/*--------------------------------*- C++ -*----------------------------------*\
  =========                 |
  \\      /  F ield         | OpenFOAM: The Open Source CFD Toolbox
   \\    /   O peration     | Website:  https://openfoam.org
    \\  /    A nd           | Version:  7
     \\/     M anipulation  |
\*---------------------------------------------------------------------------*/
FoamFile
{
    version     2.0;
    format      ascii;
    class       volScalarField;
    location    "0.25";
    object      gradTy;
}
// * * * * * * * * * * * * * * * * * * * * * * * * * * * * * * * * * * * * * //

dimensions      [0 -1 0 1 0 0 0];

internalField   nonuniform List<scalar> 
1596
(
-0.616288
-1.14557
-1.5812
-2.00238
-2.4101
-2.85738
-3.32284
-3.86735
-4.51577
-5.28635
-6.34326
-7.68774
-9.54684
-12.1899
-16.2895
-22.6745
-34.069
-55.0782
-130.112
-1.87773
-2.31776
-2.62071
-2.90471
-3.1841
-3.51749
-3.88717
-4.34877
-4.92567
-5.62289
-6.5769
-7.77375
-9.36503
-11.473
-14.4424
-18.4483
-24.3992
-33.1433
-57.9601
-3.36142
-3.51202
-3.60696
-3.72382
-3.86078
-4.06788
-4.32434
-4.67842
-5.14712
-5.72635
-6.52767
-7.52237
-8.81475
-10.4609
-12.6694
-15.4677
-19.3488
-24.6698
-36.0915
-4.91795
-4.67628
-4.52256
-4.45476
-4.44094
-4.51372
-4.64699
-4.87962
-5.22213
-5.6645
-6.29729
-7.08405
-8.09789
-9.36116
-11.0055
-13.0015
-15.6382
-19.0626
-24.9329
-6.35549
-5.74465
-5.34856
-5.09799
-4.9348
-4.8725
-4.88057
-4.98789
-5.19986
-5.50335
-5.97156
-6.56655
-7.34082
-8.3002
-9.53166
-10.9873
-12.848
-15.1662
-18.55
-7.50009
-6.6531
-6.06716
-5.65717
-5.35744
-5.16736
-5.05532
-5.0412
-5.12701
-5.2988
-5.61536
-6.04139
-6.61531
-7.33536
-8.26115
-9.34252
-10.6983
-12.3376
-14.4926
-8.25657
-7.35115
-6.66008
-6.13345
-5.72135
-5.4186
-5.1975
-5.07119
-5.04027
-5.09167
-5.27234
-5.55182
-5.95862
-6.48789
-7.18163
-7.99378
-9.0048
-10.2048
-11.6849
-8.62281
-7.80754
-7.10464
-6.51722
-6.02691
-5.63406
-5.32021
-5.09515
-4.96007
-4.90424
-4.96507
-5.11793
-5.38422
-5.75837
-6.27054
-6.88086
-7.64491
-8.54527
-9.61685
-8.67059
-8.05572
-7.42147
-6.82809
-6.2952
-5.83659
-5.44708
-5.13698
-4.91002
-4.75896
-4.71404
-4.7566
-4.90295
-5.14793
-5.5135
-5.966
-6.54408
-7.22809
-8.02887
-8.46091
-8.06276
-7.5508
-7.00479
-6.4714
-5.97969
-5.53917
-5.1641
-4.86242
-4.63132
-4.49635
-4.44453
-4.48894
-4.62548
-4.87071
-5.19681
-5.63114
-6.1545
-6.76694
-8.19322
-7.95018
-7.56194
-7.08825
-6.58257
-6.08342
-5.61277
-5.19032
-4.82919
-4.53159
-4.32047
-4.18812
-4.14573
-4.19054
-4.33544
-4.55764
-4.87666
-5.27472
-5.74694
-7.85716
-7.77389
-7.50636
-7.11392
-6.65153
-6.16223
-5.67703
-5.22105
-4.81275
-4.45959
-4.18355
-3.98177
-3.86453
-3.83061
-3.89043
-4.02548
-4.24973
-4.54726
-4.9111
-7.43717
-7.49691
-7.34788
-7.04402
-6.63849
-6.17625
-5.69372
-5.2207
-4.78042
-4.38527
-4.0576
-3.79886
-3.61939
-3.51959
-3.50851
-3.57134
-3.71841
-3.9358
-4.21579
-7.06157
-7.20365
-7.14837
-6.92551
-6.57855
-6.15069
-5.68047
-5.20107
-4.73961
-4.31278
-3.94409
-3.63873
-3.40761
-3.25278
-3.18256
-3.1852
-3.26861
-3.42074
-3.63388
-6.71189
-6.91911
-6.93615
-6.78172
-6.48904
-6.09703
-5.64394
-5.16492
-4.68998
-4.23944
-3.83828
-3.49491
-3.22114
-3.02055
-2.90117
-2.85382
-2.88475
-2.98364
-3.1432
-6.36776
-6.63699
-6.71522
-6.61892
-6.37472
-6.0174
-5.58366
-5.10956
-4.62711
-4.15951
-3.73327
-3.35956
-3.0512
-2.8132
-2.65352
-2.56515
-2.55327
-2.60908
-2.72586
-6.05466
-6.36641
-6.49436
-6.44674
-6.24434
-5.91843
-5.50379
-5.03677
-4.55072
-4.07108
-3.6258
-3.22828
-2.89237
-2.62427
-2.43206
-2.31048
-2.26405
-2.28524
-2.36795
-5.77916
-6.12023
-6.28727
-6.27952
-6.11208
-5.81281
-5.41493
-4.95474
-4.46662
-3.97787
-3.51759
-3.10114
-2.74316
-2.45086
-2.23239
-2.08395
-2.00963
-2.00305
-2.05862
-5.50272
-5.89577
-6.10369
-6.13211
-5.99487
-5.7178
-5.33332
-4.87786
-4.38691
-3.88953
-3.41589
-2.98307
-2.60636
-2.29372
-2.05325
-1.8823
-1.78479
-1.75541
-1.78909
-5.21819
-5.67035
-5.92426
-5.98944
-5.88082
-5.62392
-5.25122
-4.79973
-4.30618
-3.80136
-3.31649
-2.87015
-2.47817
-2.1489
-1.89023
-1.70031
-1.58311
-1.53468
-1.55079
-4.97412
-5.466
-5.76249
-5.86314
-5.78116
-5.54197
-5.17869
-4.72941
-4.23233
-3.72003
-3.22481
-2.76664
-2.36171
-2.01848
-1.74421
-1.53723
-1.40161
-1.33528
-1.33609
-4.7578
-5.28661
-5.62218
-5.75656
-5.69972
-5.47648
-5.12083
-4.67226
-4.17068
-3.65059
-3.1454
-2.67642
-2.26016
-1.90498
-1.61704
-1.39376
-1.23846
-1.15121
-1.13512
-4.5587
-5.12903
-5.50339
-5.67033
-5.63741
-5.42887
-5.0797
-4.63096
-4.12445
-3.59655
-3.08181
-2.60283
-2.17654
-1.81121
-1.51165
-1.27302
-1.09534
-0.977526
-0.932046
-4.38208
-4.99423
-5.40466
-5.59899
-5.58399
-5.38349
-5.03489
-4.58072
-4.06515
-3.52697
-3.0004
-2.51079
-2.07502
-1.7017
-1.39395
-1.14494
-0.947002
-0.787932
-0.658928
-4.2397
-4.89064
-5.34329
-5.5792
-5.60461
-5.44063
-5.12458
-4.69684
-4.20093
-3.67626
-3.15417
-2.66274
-2.21851
-1.83324
-1.5111
-1.24851
-1.03383
-0.849885
-0.669504
-4.14168
-4.81549
-5.29165
-5.55492
-5.61096
-5.47884
-5.19402
-4.79437
-4.32122
-3.81297
-3.29788
-2.80471
-2.35022
-1.94863
-1.60708
-1.32819
-1.10374
-0.923695
-0.770633
-4.14015
-4.81783
-5.3024
-5.58054
-5.6573
-5.5513
-5.29541
-4.92557
-4.48027
-3.99519
-3.49615
-3.00923
-2.55032
-2.13475
-1.77325
-1.47341
-1.23188
-1.04211
-0.889245
-4.2462
-4.90765
-5.38099
-5.65567
-5.73734
-5.64499
-5.40958
-5.06523
-4.64749
-4.18889
-3.71197
-3.23884
-2.78235
-2.35685
-1.97543
-1.6511
-1.38657
-1.17962
-1.01708
-4.44881
-5.08271
-5.52833
-5.78354
-5.85637
-5.7667
-5.54415
-5.22104
-4.83008
-4.4007
-3.95173
-3.50073
-3.0555
-2.62651
-2.22657
-1.87371
-1.57847
-1.3458
-1.16507
-4.7426
-5.32824
-5.73033
-5.9531
-6.00649
-5.91123
-5.69597
-5.39111
-5.02673
-4.62953
-4.21488
-3.7962
-3.37503
-2.95482
-2.5432
-2.16024
-1.82502
-1.55477
-1.3454
-5.12338
-5.64069
-5.98906
-6.1708
-6.19743
-6.09052
-5.87805
-5.58845
-5.24936
-4.88547
-4.50958
-4.13273
-3.75086
-3.35857
-2.95187
-2.54508
-2.16071
-1.83374
-1.57721
-5.53756
-5.99601
-6.28854
-6.42456
-6.42001
-6.29775
-6.08522
-5.80867
-5.49342
-5.16272
-4.82803
-4.50084
-4.17497
-3.83838
-3.47146
-3.07133
-2.64529
-2.2377
-1.89645
-6.01172
-6.40264
-6.63136
-6.71529
-6.67471
-6.53338
-6.31767
-6.0512
-5.7567
-5.45603
-5.15994
-4.88303
-4.62238
-4.36785
-4.09045
-3.76856
-3.36853
-2.9009
-2.38507
-6.56673
-6.87482
-7.03151
-7.05945
-6.98196
-6.82281
-6.60609
-6.35238
-6.08126
-5.81253
-5.55687
-5.33152
-5.14121
-4.98843
-4.85554
-4.72769
-4.55188
-4.2979
-3.9303
-7.18563
-7.39693
-7.46298
-7.41668
-7.28394
-7.08802
-6.84924
-6.58514
-6.31151
-6.04338
-5.79075
-5.56704
-5.37991
-5.23876
-5.14598
-5.1119
-5.12285
-5.16589
-5.21279
-7.8866
-7.96537
-7.92059
-7.78805
-7.59167
-7.35229
-7.08581
-6.80715
-6.52898
-6.26211
-6.01656
-5.80051
-5.62032
-5.48121
-5.38748
-5.34423
-5.35626
-5.43001
-5.57343
-8.66132
-8.5763
-8.41381
-8.19676
-7.94135
-7.66302
-7.37339
-7.08424
-6.80552
-6.54533
-6.31218
-6.1111
-5.9459
-5.81777
-5.72651
-5.66724
-5.63553
-5.62288
-5.62176
-9.37647
-9.1345
-8.86057
-8.56315
-8.2508
-7.93317
-7.61819
-7.31416
-7.02838
-6.76663
-6.53488
-6.33634
-6.17261
-6.04323
-5.94657
-5.8779
-5.83296
-5.80574
-5.79077
-9.96295
-9.6055
-9.24357
-8.88071
-8.5213
-8.17093
-7.83458
-7.51767
-7.22534
-6.9615
-6.73028
-6.53378
-6.37239
-6.24502
-6.14962
-6.08188
-6.03754
-6.01123
-5.99766
-10.4334
-9.9839
-9.55195
-9.13711
-8.74036
-8.36399
-8.01056
-7.68319
-7.38534
-7.11952
-6.88858
-6.69389
-6.53508
-6.41069
-6.31839
-6.25402
-6.21315
-6.19068
-6.18133
-10.7759
-10.2568
-9.77186
-9.31864
-8.89496
-8.50016
-8.13477
-7.80015
-7.49854
-7.23151
-7.00105
-6.80809
-6.65176
-6.53035
-6.44127
-6.3803
-6.3427
-6.3233
-6.31662
-10.9953
-10.4115
-9.88922
-9.4127
-8.974
-8.56946
-8.19799
-7.85981
-7.55649
-7.28907
-7.05912
-6.86738
-6.71278
-6.59352
-6.50697
-6.44905
-6.41496
-6.39961
-6.39745
-10.9954
-10.4116
-9.88935
-9.41283
-8.97415
-8.56961
-8.19814
-7.85996
-7.55664
-7.28923
-7.05929
-6.86755
-6.71296
-6.5937
-6.50716
-6.44925
-6.41516
-6.39982
-6.39767
-10.776
-10.257
-9.77214
-9.31897
-8.89531
-8.50053
-8.13517
-7.80056
-7.49897
-7.23195
-7.0015
-6.80856
-6.65226
-6.53088
-6.44183
-6.3809
-6.34335
-6.32401
-6.3174
-10.4336
-9.98422
-9.55239
-9.13763
-8.74093
-8.3646
-8.0112
-7.68385
-7.38603
-7.12024
-6.88932
-6.69466
-6.53589
-6.41154
-6.31929
-6.25498
-6.21417
-6.19177
-6.1825
-9.96313
-9.6059
-9.24413
-8.88137
-8.52203
-8.1717
-7.8354
-7.51852
-7.22622
-6.96241
-6.73123
-6.53475
-6.3734
-6.24607
-6.15071
-6.08302
-6.03873
-6.01247
-5.99896
-9.37667
-9.13496
-8.8612
-8.56391
-8.25164
-7.93407
-7.61916
-7.31517
-7.02944
-6.76772
-6.53601
-6.33751
-6.17382
-6.04447
-5.94783
-5.87919
-5.83429
-5.8071
-5.79216
-8.66154
-8.57679
-8.4145
-8.19758
-7.94228
-7.66402
-7.37446
-7.08537
-6.8067
-6.54656
-6.31346
-6.11241
-5.94723
-5.81911
-5.72783
-5.6685
-5.63672
-5.62397
-5.62274
-7.88684
-7.96593
-7.92143
-7.78912
-7.59294
-7.35374
-7.08744
-6.80895
-6.53096
-6.26426
-6.0189
-5.80306
-5.62309
-5.4842
-5.39066
-5.34744
-5.35921
-5.43218
-5.57409
-7.18579
-7.39704
-7.46311
-7.41685
-7.28414
-7.08824
-6.84947
-6.58535
-6.31166
-6.04342
-5.79063
-5.56666
-5.37917
-5.23754
-5.14424
-5.10975
-5.12089
-5.16528
-5.21539
-6.56681
-6.87512
-7.03205
-7.06027
-6.98309
-6.82426
-6.60785
-6.35445
-6.08363
-5.81517
-5.55979
-5.33473
-5.14478
-4.99257
-4.86063
-4.7343
-4.56076
-4.30968
-3.94535
-6.01174
-6.40268
-6.63153
-6.71563
-6.67525
-6.53414
-6.31866
-6.05241
-5.7581
-5.45763
-5.16173
-4.88505
-4.62472
-4.37069
-4.09396
-3.77287
-3.37344
-2.90579
-2.38874
-5.53756
-5.99601
-6.28864
-6.42483
-6.42049
-6.29847
-6.08619
-5.80988
-5.49486
-5.16437
-4.82991
-4.50299
-4.17745
-3.84127
-3.47474
-3.07486
-2.64872
-2.24065
-1.89879
-5.12337
-5.64065
-5.98909
-6.17098
-6.19782
-6.09115
-5.87893
-5.58957
-5.25072
-4.88706
-4.51139
-4.13479
-3.75319
-3.36113
-2.95458
-2.54773
-2.16311
-1.83575
-1.57887
-4.74258
-5.32817
-5.73031
-5.95321
-6.0068
-5.91178
-5.69676
-5.39215
-5.028
-4.63102
-4.21658
-3.7981
-3.3771
-2.957
-2.54537
-2.16225
-1.82679
-1.55627
-1.34669
-4.44878
-5.08261
-5.52826
-5.78359
-5.8566
-5.76716
-5.54486
-5.22198
-4.83124
-4.40207
-3.95328
-3.50242
-3.05729
-2.62833
-2.22831
-1.87529
-1.57985
-1.34699
-1.16614
-4.24617
-4.90754
-5.3809
-5.65568
-5.73752
-5.64538
-5.4102
-5.06607
-4.64854
-4.19013
-3.71335
-3.24032
-2.78388
-2.35835
-1.97684
-1.65236
-1.38767
-1.18061
-1.01801
-4.14011
-4.81772
-5.3023
-5.58053
-5.65744
-5.55163
-5.29595
-4.92632
-4.48121
-3.99628
-3.49735
-3.01051
-2.55161
-2.13599
-1.7744
-1.47444
-1.2328
-1.04297
-0.89012
-4.14164
-4.81537
-5.29151
-5.55483
-5.61098
-5.479
-5.19434
-4.79485
-4.32184
-3.8137
-3.29869
-2.80556
-2.35106
-1.94942
-1.60779
-1.32881
-1.10431
-0.924299
-0.77143
-4.23979
-4.8907
-5.34336
-5.57931
-5.60479
-5.44089
-5.12494
-4.69731
-4.2015
-3.67692
-3.15491
-2.66353
-2.21932
-1.83405
-1.51189
-1.24927
-1.03454
-0.850528
-0.670027
-4.38218
-4.99433
-5.40472
-5.599
-5.58394
-5.38337
-5.0347
-4.58046
-4.06484
-3.52664
-3.00006
-2.51045
-2.07469
-1.70139
-1.39366
-1.14466
-0.94671
-0.787616
-0.658547
-4.55877
-5.12909
-5.50345
-5.67038
-5.63744
-5.42889
-5.0797
-4.63095
-4.12444
-3.59653
-3.0818
-2.60283
-2.17654
-1.81122
-1.51167
-1.27305
-1.09537
-0.977572
-0.932094
-4.75785
-5.28665
-5.62221
-5.75658
-5.69971
-5.47646
-5.1208
-4.67222
-4.17064
-3.65055
-3.14537
-2.6764
-2.26015
-1.90498
-1.61705
-1.39378
-1.23849
-1.15124
-1.13516
-4.97416
-5.46603
-5.76251
-5.86315
-5.78115
-5.54195
-5.17866
-4.72938
-4.2323
-3.72
-3.22479
-2.76663
-2.3617
-2.01848
-1.74422
-1.53724
-1.40163
-1.3353
-1.33611
-5.21822
-5.67037
-5.92427
-5.98944
-5.88081
-5.6239
-5.25119
-4.7997
-4.30616
-3.80134
-3.31648
-2.87014
-2.47816
-2.1489
-1.89024
-1.70032
-1.58313
-1.5347
-1.5508
-5.50275
-5.89579
-6.10369
-6.13211
-5.99486
-5.71778
-5.3333
-4.87784
-4.38689
-3.88952
-3.41588
-2.98306
-2.60636
-2.29372
-2.05325
-1.88231
-1.7848
-1.75542
-1.7891
-5.77918
-6.12024
-6.28727
-6.27951
-6.11206
-5.81279
-5.41492
-4.95473
-4.46661
-3.97786
-3.51759
-3.10114
-2.74316
-2.45087
-2.2324
-2.08395
-2.00963
-2.00306
-2.05863
-6.05467
-6.36642
-6.49436
-6.44673
-6.24433
-5.91842
-5.50378
-5.03676
-4.55071
-4.07108
-3.6258
-3.22828
-2.89237
-2.62427
-2.43206
-2.31048
-2.26405
-2.28524
-2.36795
-6.36777
-6.63699
-6.71522
-6.61891
-6.37471
-6.01739
-5.58366
-5.10955
-4.6271
-4.15951
-3.73327
-3.35956
-3.0512
-2.8132
-2.65352
-2.56515
-2.55327
-2.60907
-2.72585
-6.71188
-6.9191
-6.93614
-6.78172
-6.48904
-6.09703
-5.64394
-5.16491
-4.68998
-4.23944
-3.83828
-3.49491
-3.22113
-3.02055
-2.90117
-2.85381
-2.88474
-2.98363
-3.14319
-7.06155
-7.20364
-7.14836
-6.9255
-6.57855
-6.1507
-5.68047
-5.20107
-4.73961
-4.31278
-3.94409
-3.63873
-3.40761
-3.25278
-3.18255
-3.1852
-3.2686
-3.42072
-3.63386
-7.43715
-7.4969
-7.34788
-7.04402
-6.6385
-6.17625
-5.69373
-5.2207
-4.78042
-4.38527
-4.0576
-3.79886
-3.61938
-3.51958
-3.5085
-3.57133
-3.71839
-3.93578
-4.21577
-7.85713
-7.77388
-7.50636
-7.11393
-6.65154
-6.16223
-5.67704
-5.22105
-4.81275
-4.45959
-4.18355
-3.98176
-3.86452
-3.8306
-3.89042
-4.02546
-4.24971
-4.54724
-4.91109
-8.19319
-7.95017
-7.56195
-7.08826
-6.58258
-6.08343
-5.61278
-5.19032
-4.82919
-4.53159
-4.32047
-4.18812
-4.14573
-4.19053
-4.33543
-4.55762
-4.87664
-5.2747
-5.74693
-8.46089
-8.06277
-7.55081
-7.0048
-6.47141
-5.9797
-5.53918
-5.1641
-4.86242
-4.63132
-4.49635
-4.44452
-4.48894
-4.62547
-4.8707
-5.19679
-5.63112
-6.15448
-6.76694
-8.67059
-8.05574
-7.42149
-6.8281
-6.29522
-5.8366
-5.44709
-5.13698
-4.91002
-4.75896
-4.71404
-4.75659
-4.90295
-5.14792
-5.51349
-5.96599
-6.54407
-7.22808
-8.02888
-8.62283
-7.80757
-7.10466
-6.51723
-6.02692
-5.63407
-5.32022
-5.09516
-4.96008
-4.90425
-4.96507
-5.11793
-5.38421
-5.75836
-6.27052
-6.88085
-7.6449
-8.54526
-9.61686
-8.2566
-7.35118
-6.6601
-6.13347
-5.72136
-5.41861
-5.1975
-5.07119
-5.04027
-5.09168
-5.27234
-5.55182
-5.95861
-6.48788
-7.18162
-7.99377
-9.00479
-10.2048
-11.6849
-7.50012
-6.65313
-6.06718
-5.65719
-5.35745
-5.16737
-5.05533
-5.04121
-5.12702
-5.2988
-5.61536
-6.04138
-6.6153
-7.33535
-8.26114
-9.34251
-10.6983
-12.3376
-14.4926
-6.35553
-5.74467
-5.34858
-5.09801
-4.93482
-4.87252
-4.88058
-4.9879
-5.19986
-5.50335
-5.97155
-6.56654
-7.34081
-8.30019
-9.53165
-10.9873
-12.848
-15.1662
-18.55
-4.91798
-4.6763
-4.52257
-4.45478
-4.44095
-4.51373
-4.647
-4.87963
-5.22214
-5.6645
-6.29729
-7.08404
-8.09788
-9.36115
-11.0055
-13.0015
-15.6382
-19.0626
-24.9329
-3.36144
-3.51203
-3.60697
-3.72383
-3.86079
-4.06789
-4.32434
-4.67842
-5.14713
-5.72636
-6.52767
-7.52237
-8.81475
-10.4609
-12.6694
-15.4677
-19.3488
-24.6698
-36.0915
-1.87774
-2.31776
-2.62072
-2.90471
-3.1841
-3.51749
-3.88717
-4.34878
-4.92567
-5.62289
-6.5769
-7.77375
-9.36502
-11.473
-14.4424
-18.4483
-24.3992
-33.1433
-57.9601
-0.616291
-1.14557
-1.5812
-2.00239
-2.4101
-2.85738
-3.32284
-3.86735
-4.51577
-5.28634
-6.34325
-7.68773
-9.54683
-12.1899
-16.2895
-22.6745
-34.069
-55.0782
-130.112
)
;

boundaryField
{
    up
    {
        type            calculated;
        value           nonuniform List<scalar> 
84
(
-117.907
-63.8578
-39.1942
-26.744
-19.7124
-15.2957
-12.2702
-10.0595
-8.37052
-7.03541
-5.95875
-5.07815
-4.34792
-3.73783
-3.22445
-2.78894
-2.41649
-2.09553
-1.81668
-1.57115
-1.35071
-1.14379
-0.92371
-0.591967
-0.573461
-0.725995
-0.845396
-0.969678
-1.11145
-1.28234
-1.49726
-1.77506
-2.19734
-3.90308
-5.36932
-5.6705
-5.61675
-5.78318
-5.99197
-6.17846
-6.31553
-6.39908
-6.3993
-6.31634
-6.17967
-5.9933
-5.7846
-5.61771
-5.66987
-5.37217
-3.92068
-2.20075
-1.77711
-1.49882
-1.28358
-1.11249
-0.970601
-0.846283
-0.727071
-0.574145
-0.591559
-0.923755
-1.14381
-1.35073
-1.57116
-1.81668
-2.09553
-2.41649
-2.78893
-3.22444
-3.73782
-4.34791
-5.07814
-5.95876
-7.03542
-8.37054
-10.0595
-12.2703
-15.2958
-19.7124
-26.744
-39.1942
-63.8578
-117.907
)
;
    }
    low
    {
        type            calculated;
        value           nonuniform List<scalar> 
84
(
-0.661118
-1.96124
-3.54339
-5.22549
-6.78241
-8.00795
-8.78475
-9.11733
-9.06816
-8.73218
-8.39725
-7.99553
-7.48606
-7.0607
-6.68207
-6.29893
-5.95201
-5.66645
-5.36974
-5.03928
-4.76009
-4.51689
-4.28504
-4.07776
-3.88105
-3.75969
-3.76288
-3.90725
-4.15937
-4.51593
-4.95242
-5.40373
-5.92159
-6.52825
-7.1904
-7.94963
-8.80614
-9.57458
-10.1941
-10.6928
-11.0581
-11.3082
-11.3082
-11.0582
-10.6929
-10.1942
-9.57468
-8.80626
-7.94978
-7.19036
-6.52834
-5.92154
-5.4037
-4.9524
-4.51591
-4.15936
-3.90726
-3.76289
-3.75973
-3.88111
-4.0779
-4.28507
-4.51694
-4.76013
-5.03931
-5.36976
-5.66647
-5.95202
-6.29893
-6.68206
-7.06068
-7.48605
-7.99549
-8.39721
-8.73215
-9.06815
-9.11734
-8.78479
-8.008
-6.78246
-5.22553
-3.54342
-1.96126
-0.661123
)
;
    }
    left
    {
        type            calculated;
        value           nonuniform List<scalar> 
19
(
-0.604437
-1.12383
-1.56764
-2.00228
-2.42642
-2.89141
-3.37703
-3.94734
-4.62822
-5.44749
-6.57725
-8.02656
-10.0534
-12.9802
-17.5617
-24.8138
-37.9083
-62.3386
-122.294
)
;
    }
    right
    {
        type            calculated;
        value           nonuniform List<scalar> 
19
(
-0.604441
-1.12383
-1.56764
-2.00228
-2.42642
-2.89141
-3.37703
-3.94734
-4.62822
-5.44748
-6.57724
-8.02655
-10.0534
-12.9801
-17.5616
-24.8138
-37.9083
-62.3386
-122.294
)
;
    }
    frontAndBackPlanes
    {
        type            empty;
    }
}


// ************************************************************************* //
