/*--------------------------------*- C++ -*----------------------------------*\
  =========                 |
  \\      /  F ield         | OpenFOAM: The Open Source CFD Toolbox
   \\    /   O peration     | Website:  https://openfoam.org
    \\  /    A nd           | Version:  7
     \\/     M anipulation  |
\*---------------------------------------------------------------------------*/
FoamFile
{
    version     2.0;
    format      ascii;
    class       volScalarField;
    location    "0.25";
    object      T;
}
// * * * * * * * * * * * * * * * * * * * * * * * * * * * * * * * * * * * * * //

dimensions      [0 0 0 1 0 0 0];

internalField   nonuniform List<scalar> 
1596
(
6.98139
6.92805
6.87352
6.82196
6.77448
6.73053
6.68917
6.64828
6.60626
6.55945
6.50497
6.43895
6.35273
6.23433
6.06516
5.80384
5.37328
4.6194
3.23341
6.91956
6.75351
6.59702
6.45338
6.32252
6.20229
6.0899
5.98082
5.87108
5.75385
5.62332
5.47243
5.28834
5.05531
4.7539
4.34736
3.77887
2.95074
1.67799
6.84643
6.5672
6.31636
6.09106
5.88805
5.70318
5.53202
5.36859
5.20753
5.04075
4.86134
4.66136
4.42788
4.14622
3.80037
3.36282
2.79594
2.04187
0.99273
6.77423
6.38905
6.0531
5.75604
5.49097
5.25171
5.03249
4.82648
4.62756
4.42725
4.21846
3.99325
3.73977
3.44534
3.0974
2.67592
2.15633
1.50475
0.658477
6.71429
6.23746
5.82702
5.4673
5.14853
4.86301
4.60395
4.36405
4.13682
3.9138
3.68799
3.45174
3.19431
2.90478
2.57309
2.18422
1.72158
1.16486
0.476849
6.67397
6.12503
5.6517
5.23752
4.87163
4.54565
4.25227
3.98401
3.73425
3.4947
3.25854
3.0184
2.76444
2.48699
2.17755
1.82425
1.41513
0.937363
0.367892
6.6543
6.05521
5.53142
5.07047
4.66274
4.3003
3.97592
3.68227
3.41281
3.1595
2.91572
2.67433
2.42613
2.16225
1.87515
1.55481
1.19193
0.777702
0.296947
6.65094
6.02284
5.46139
4.96137
4.51656
4.12068
3.76732
3.44967
3.16152
2.89516
2.64419
2.40166
2.15881
1.90733
1.64014
1.34835
1.02413
0.660806
0.247575
6.65967
6.02067
5.43368
4.90215
4.42479
3.99805
3.61707
3.27598
2.96916
2.68935
2.43043
2.18562
1.9465
1.70509
1.45457
1.18668
0.894384
0.572076
0.21139
6.67149
6.03351
5.43166
4.87641
4.37166
3.91726
3.51047
3.1468
2.82148
2.52786
2.2602
2.01189
1.77482
1.54122
1.30438
1.0564
0.79065
0.502013
0.18351
6.68101
6.04907
5.44008
4.86825
4.34165
3.86351
3.43351
3.04883
2.70579
2.39853
2.12176
1.86914
1.63283
1.40522
1.17965
0.948438
0.705116
0.444749
0.161117
6.69287
6.0702
5.45856
4.87493
4.33062
3.83188
3.38083
2.97646
2.61637
2.29558
2.00934
1.75165
1.5149
1.29164
1.07522
0.858032
0.63368
0.397199
0.142749
6.70414
6.09232
5.48094
4.88899
4.33037
3.81391
3.34404
2.92156
2.54542
2.21162
1.916
1.65292
1.41502
1.19499
0.986135
0.780899
0.57284
0.35687
0.127321
6.71107
6.1084
5.49863
4.90105
4.33119
3.79998
3.31386
2.87537
2.48481
2.13915
1.83488
1.56675
1.32763
1.11034
0.908134
0.71346
0.519794
0.321867
0.114049
6.71691
6.12118
5.5127
4.91059
4.33135
3.78747
3.28713
2.83444
2.43096
2.07463
1.76257
1.4899
1.24974
1.03497
0.838824
0.653696
0.472951
0.291107
0.102485
6.72256
6.13244
5.52445
4.91792
4.33015
3.77488
3.26175
2.79627
2.38117
2.01528
1.69633
1.41975
1.17887
0.966655
0.776246
0.599962
0.43103
0.263731
0.0922831
6.72643
6.14031
5.53194
4.92085
4.32501
3.75928
3.23457
2.75763
2.33222
1.958
1.63321
1.35357
1.11258
0.903209
0.718515
0.550706
0.392845
0.238962
0.0831428
6.72915
6.14547
5.53579
4.91972
4.31591
3.74023
3.20476
2.71738
2.28276
1.9013
1.57166
1.28981
1.04933
0.843205
0.664346
0.504837
0.35755
0.216246
0.0748451
6.7344
6.15374
5.54223
4.92048
4.30811
3.72216
3.17585
2.67816
2.23465
1.84634
1.51229
1.22862
0.988964
0.786229
0.613191
0.461777
0.324638
0.19523
0.0672511
6.7409
6.16466
5.5515
4.92369
4.30227
3.7056
3.14817
2.64007
2.18772
1.79276
1.45453
1.16926
0.930589
0.731317
0.564055
0.420582
0.293327
0.175399
0.0601816
6.74585
6.17417
5.55978
4.92609
4.29563
3.68823
3.11975
2.60142
2.14049
1.73917
1.39707
1.11048
0.872962
0.677206
0.515665
0.380022
0.262553
0.156036
0.0533977
6.75087
6.18374
5.56838
4.92901
4.28957
3.67142
3.09186
2.56328
2.09379
1.68613
1.34016
1.05218
0.815685
0.623194
0.467029
0.338861
0.230998
0.136089
0.046528
6.75672
6.19467
5.57859
4.93371
4.28536
3.65645
3.06571
2.52675
2.04847
1.6342
1.28401
0.994216
0.758223
0.568374
0.416839
0.295344
0.1965
0.113396
0.0385323
6.76295
6.20634
5.58971
4.93944
4.28232
3.64279
3.04096
2.49158
2.00433
1.58305
1.22808
0.935754
0.699439
0.511289
0.363259
0.247064
0.155744
0.0835241
0.0252158
6.77287
6.23105
5.62505
4.98135
4.32693
3.68663
3.08111
2.52576
2.03095
1.60121
1.23766
0.937394
0.694357
0.501093
0.349726
0.231926
0.140802
0.0710679
0.0188724
6.78382
6.26289
5.67656
5.05014
4.40946
3.77847
3.17741
2.62164
2.12193
1.68365
1.30896
0.996285
0.740897
0.536427
0.375661
0.250418
0.153463
0.0788928
0.0219582
6.78933
6.28198
5.71078
5.09957
4.47272
3.85286
3.2592
2.70654
2.20551
1.76182
1.37834
1.05469
0.787487
0.571696
0.401109
0.26796
0.164884
0.0854978
0.0243437
6.78945
6.28784
5.72664
5.1281
4.51479
3.90755
3.32411
2.77811
2.27951
1.83388
1.44444
1.11169
0.833547
0.606503
0.42574
0.284287
0.174912
0.0908705
0.0260951
6.78608
6.28431
5.72924
5.14149
4.54159
3.94828
3.37737
2.84098
2.348
1.90346
1.51056
1.17037
0.881909
0.643271
0.451419
0.300699
0.184414
0.0955845
0.0274844
6.77958
6.2739
5.72289
5.14519
4.55905
3.98093
3.42452
2.90015
2.41546
1.97463
1.58055
1.23448
0.936217
0.685313
0.480781
0.31894
0.19434
0.100096
0.0286818
6.77141
6.26077
5.71349
5.14603
4.57434
4.01254
3.47212
2.96162
2.48728
2.05236
1.65919
1.30889
1.00154
0.737666
0.518255
0.342174
0.206355
0.104993
0.0298245
6.76519
6.25098
5.70817
5.15156
4.59498
4.05024
3.52678
3.03138
2.56894
2.1418
1.75166
1.39922
1.08428
0.807568
0.571265
0.37671
0.224349
0.111561
0.0309308
6.75943
6.24274
5.70556
5.16096
4.6206
4.09411
3.5889
3.11015
2.66157
2.24465
1.86053
1.50942
1.19048
0.903755
0.651222
0.43519
0.25917
0.125623
0.0321189
6.75393
6.23619
5.70628
5.17526
4.65258
4.14572
3.66025
3.19987
2.76731
2.36339
1.98887
1.64371
1.32654
1.03643
0.773981
0.540098
0.338003
0.172836
0.0472243
6.74742
6.22665
5.70151
5.18127
4.67332
4.18322
3.71494
3.27095
2.85316
2.46189
2.09772
1.76055
1.44895
1.16162
0.898011
0.656793
0.437846
0.24333
0.0750917
6.73576
6.20222
5.67228
5.15318
4.65038
4.16783
3.70816
3.27287
2.86312
2.47872
2.12004
1.78691
1.47799
1.19217
0.929151
0.68751
0.466517
0.266501
0.0862152
6.72035
6.16815
5.62796
5.1045
4.6013
4.12087
3.66469
3.23335
2.82743
2.44626
2.09
1.75845
1.45035
1.1649
0.90236
0.662017
0.444122
0.250084
0.0794108
6.70749
6.13988
5.59132
5.06436
4.56093
4.08231
3.62907
3.20109
2.79848
2.42024
2.06642
1.73685
1.43036
1.14638
0.8855
0.647298
0.432308
0.242178
0.0765018
6.6984
6.11919
5.56409
5.03424
4.53044
4.05305
3.60194
3.17647
2.77639
2.40046
2.04866
1.72083
1.41586
1.13331
0.873941
0.637488
0.424627
0.237162
0.0747485
6.6915
6.1035
5.54342
5.01136
4.50724
4.03076
3.58123
3.15764
2.75948
2.38535
2.03514
1.70873
1.40502
1.12364
0.865494
0.630384
0.419099
0.233572
0.0735164
6.68646
6.09206
5.52842
4.99483
4.49053
4.01471
3.56633
3.14408
2.74729
2.37444
2.0254
1.70003
1.39724
1.11673
0.859455
0.625295
0.415118
0.230968
0.0726127
6.68229
6.08374
5.51821
4.98403
4.47991
4.0047
3.55716
3.13584
2.73998
2.368
2.01975
1.69509
1.39294
1.11301
0.856302
0.622717
0.413157
0.229718
0.0721976
6.6823
6.08376
5.51825
4.98407
4.47995
4.00475
3.55721
3.13589
2.74003
2.36805
2.0198
1.69513
1.39297
1.11304
0.856327
0.622736
0.413171
0.229726
0.0722004
6.68649
6.09213
5.52852
4.99495
4.49066
4.01485
3.56647
3.14422
2.74743
2.37458
2.02553
1.70015
1.39735
1.11682
0.859533
0.625358
0.415164
0.230996
0.0726225
6.69155
6.10362
5.54358
5.01155
4.50745
4.03098
3.58146
3.15787
2.7597
2.38556
2.03535
1.70891
1.40518
1.12379
0.865615
0.63048
0.419168
0.233614
0.0735305
6.69846
6.11934
5.5643
5.03449
4.53072
4.05335
3.60225
3.17678
2.77668
2.40075
2.04893
1.72107
1.41607
1.13349
0.874096
0.63761
0.424714
0.237214
0.0747662
6.70757
6.14006
5.59158
5.06467
4.56128
4.08268
3.62945
3.20147
2.79884
2.42059
2.06675
1.73714
1.43062
1.14661
0.885684
0.647441
0.432409
0.242237
0.0765216
6.72043
6.16835
5.62825
5.10485
4.6017
4.12129
3.66512
3.23378
2.82785
2.44666
2.09037
1.75878
1.45064
1.16514
0.902554
0.662162
0.444219
0.250137
0.0794263
6.73585
6.20245
5.6726
5.15358
4.65083
4.1683
3.70865
3.27335
2.86358
2.47916
2.12044
1.78726
1.47828
1.1924
0.929308
0.6876
0.466552
0.2665
0.0862067
6.74753
6.22698
5.70203
5.18196
4.67414
4.18416
3.71596
3.27203
2.85429
2.46304
2.09887
1.76169
1.45007
1.16272
0.899071
0.65779
0.438729
0.243994
0.0753786
6.75406
6.23658
5.7069
5.17609
4.6536
4.14689
3.66155
3.20126
2.76876
2.36488
1.99038
1.64521
1.32801
1.03786
0.775309
0.541271
0.338939
0.173448
0.0474452
6.75953
6.24307
5.7061
5.16169
4.62149
4.09513
3.59003
3.11135
2.66281
2.24591
1.86179
1.51064
1.19163
0.90481
0.652131
0.435901
0.259645
0.125859
0.0321652
6.76529
6.25128
5.70867
5.15225
4.59582
4.05121
3.52785
3.03251
2.5701
2.14296
1.75279
1.40029
1.08526
0.808417
0.571949
0.377205
0.224654
0.111709
0.0309687
6.7715
6.26105
5.71395
5.14666
4.57513
4.01345
3.47312
2.96268
2.48835
2.05341
1.66021
1.30983
1.00237
0.738359
0.518792
0.34255
0.206586
0.10511
0.0298574
6.77966
6.27415
5.72331
5.14577
4.55979
3.98178
3.42545
2.90113
2.41644
1.97559
1.58146
1.2353
0.936928
0.685893
0.48122
0.319245
0.194531
0.100196
0.0287114
6.78614
6.28453
5.72962
5.14203
4.54226
3.94906
3.37823
2.84187
2.3489
1.90433
1.51137
1.17109
0.882523
0.643764
0.45179
0.300959
0.18458
0.0956738
0.0275119
6.7895
6.28803
5.72698
5.12858
4.5154
3.90826
3.32489
2.77892
2.28032
1.83466
1.44516
1.11232
0.83408
0.606929
0.426061
0.284515
0.17506
0.0909533
0.0261218
6.78937
6.28215
5.71107
5.1
4.47327
3.85349
3.2599
2.70727
2.20624
1.76251
1.37898
1.05525
0.787954
0.572069
0.401394
0.268166
0.165022
0.0855783
0.0243716
6.78386
6.26303
5.67682
5.05051
4.40994
3.77904
3.17803
2.62229
2.12257
1.68427
1.30952
0.996774
0.741308
0.536759
0.375919
0.250609
0.153597
0.0789754
0.0219895
6.77288
6.23107
5.62511
4.98145
4.32706
3.68679
3.08129
2.52595
2.03113
1.60139
1.23782
0.937523
0.694458
0.501164
0.349769
0.231946
0.140805
0.0710607
0.0188658
6.76293
6.2063
5.58964
4.93935
4.28222
3.64267
3.04084
2.49145
2.00421
1.58294
1.22797
0.935656
0.69935
0.511208
0.363187
0.247001
0.155692
0.0834859
0.025198
6.75671
6.19466
5.57858
4.93369
4.28534
3.65643
3.06569
2.52673
2.04846
1.6342
1.28402
0.994227
0.758237
0.568389
0.416854
0.295358
0.196511
0.113403
0.0385342
6.75086
6.18374
5.56837
4.929
4.28955
3.67141
3.09185
2.56328
2.09379
1.68613
1.34017
1.05219
0.815698
0.623207
0.467041
0.338871
0.231005
0.136093
0.0465292
6.74584
6.17416
5.55977
4.92608
4.29562
3.68822
3.11974
2.60142
2.14049
1.73917
1.39708
1.11049
0.872973
0.677216
0.515675
0.38003
0.262558
0.156038
0.0533985
6.7409
6.16466
5.55149
4.92369
4.30227
3.70559
3.14817
2.64007
2.18773
1.79276
1.45454
1.16927
0.930597
0.731325
0.564062
0.420588
0.293331
0.175401
0.0601822
6.7344
6.15374
5.54223
4.92047
4.30811
3.72216
3.17585
2.67816
2.23465
1.84635
1.5123
1.22863
0.988971
0.786236
0.613196
0.461781
0.324641
0.195231
0.0672514
6.72914
6.14547
5.53579
4.91972
4.31591
3.74024
3.20477
2.71738
2.28277
1.9013
1.57167
1.28981
1.04934
0.84321
0.664349
0.504839
0.357552
0.216247
0.0748453
6.72643
6.14031
5.53194
4.92085
4.32501
3.75928
3.23457
2.75763
2.33223
1.95801
1.63321
1.35358
1.11258
0.903212
0.718517
0.550707
0.392845
0.238963
0.0831429
6.72256
6.13244
5.52445
4.91793
4.33015
3.77488
3.26175
2.79627
2.38117
2.01528
1.69633
1.41975
1.17888
0.966657
0.776247
0.599962
0.43103
0.26373
0.092283
6.71691
6.12118
5.5127
4.91059
4.33135
3.78748
3.28714
2.83444
2.43096
2.07463
1.76258
1.4899
1.24974
1.03497
0.838824
0.653695
0.47295
0.291107
0.102485
6.71107
6.10841
5.49863
4.90105
4.33119
3.79998
3.31386
2.87537
2.48481
2.13915
1.83488
1.56675
1.32763
1.11033
0.908133
0.713458
0.519792
0.321866
0.114049
6.70414
6.09232
5.48094
4.889
4.33037
3.81391
3.34404
2.92156
2.54542
2.21162
1.916
1.65292
1.41502
1.19499
0.986133
0.780897
0.572838
0.356869
0.127321
6.69288
6.07021
5.45856
4.87493
4.33062
3.83188
3.38083
2.97646
2.61636
2.29558
2.00934
1.75165
1.51489
1.29164
1.07521
0.858029
0.633678
0.397199
0.142749
6.68101
6.04908
5.44008
4.86825
4.34165
3.86351
3.43351
3.04882
2.70579
2.39853
2.12175
1.86914
1.63282
1.40521
1.17965
0.948435
0.705114
0.444749
0.161117
6.67149
6.03351
5.43166
4.87641
4.37165
3.91725
3.51046
3.1468
2.82147
2.52786
2.26019
2.01189
1.77482
1.54122
1.30438
1.0564
0.790648
0.502013
0.18351
6.65967
6.02067
5.43368
4.90215
4.42478
3.99805
3.61706
3.27598
2.96915
2.68934
2.43042
2.18561
1.9465
1.70509
1.45456
1.18668
0.894383
0.572076
0.21139
6.65094
6.02284
5.46138
4.96137
4.51656
4.12068
3.76732
3.44967
3.16151
2.89515
2.64418
2.40165
2.15881
1.90732
1.64013
1.34835
1.02413
0.660807
0.247576
6.6543
6.05521
5.53141
5.07046
4.66274
4.30029
3.97591
3.68226
3.4128
3.15949
2.91572
2.67433
2.42612
2.16225
1.87515
1.55481
1.19193
0.777703
0.296948
6.67397
6.12502
5.65169
5.23751
4.87162
4.54564
4.25226
3.984
3.73424
3.49469
3.25853
3.01839
2.76443
2.48698
2.17755
1.82425
1.41513
0.937364
0.367892
6.71428
6.23746
5.82701
5.4673
5.14852
4.863
4.60394
4.36404
4.13682
3.9138
3.68799
3.45173
3.1943
2.90478
2.57309
2.18423
1.72158
1.16486
0.476849
6.77423
6.38904
6.05309
5.75604
5.49096
5.25171
5.03249
4.82647
4.62755
4.42725
4.21846
3.99325
3.73976
3.44534
3.0974
2.67592
2.15633
1.50475
0.658477
6.84643
6.5672
6.31636
6.09106
5.88805
5.70318
5.53201
5.36858
5.20753
5.04075
4.86134
4.66136
4.42787
4.14622
3.80037
3.36282
2.79595
2.04187
0.992729
6.91956
6.75351
6.59702
6.45338
6.32252
6.20229
6.0899
5.98082
5.87108
5.75385
5.62332
5.47243
5.28834
5.05531
4.7539
4.34736
3.77887
2.95074
1.67798
6.98139
6.92805
6.87352
6.82196
6.77448
6.73053
6.68917
6.64828
6.60626
6.55945
6.50497
6.43895
6.35273
6.23433
6.06516
5.80384
5.37328
4.6194
3.23341
)
;

boundaryField
{
    up
    {
        type            fixedValue;
        value           uniform 0;
    }
    low
    {
        type            fixedValue;
        value           uniform 7;
    }
    left
    {
        type            fixedValue;
        value           uniform 7;
    }
    right
    {
        type            fixedValue;
        value           uniform 7;
    }
    frontAndBackPlanes
    {
        type            empty;
    }
}


// ************************************************************************* //
