/*--------------------------------*- C++ -*----------------------------------*\
  =========                 |
  \\      /  F ield         | OpenFOAM: The Open Source CFD Toolbox
   \\    /   O peration     | Website:  https://openfoam.org
    \\  /    A nd           | Version:  7
     \\/     M anipulation  |
\*---------------------------------------------------------------------------*/
FoamFile
{
    version     2.0;
    format      ascii;
    class       volScalarField;
    location    "0.22";
    object      T;
}
// * * * * * * * * * * * * * * * * * * * * * * * * * * * * * * * * * * * * * //

dimensions      [0 0 0 1 0 0 0];

internalField   nonuniform List<scalar> 
1596
(
1.99425
1.97779
1.96102
1.94529
1.93099
1.91798
1.90601
1.89444
1.8828
1.86999
1.85514
1.83706
1.8132
1.78005
1.73226
1.65797
1.53516
1.31984
0.923842
1.97516
1.92396
1.87591
1.83215
1.79278
1.75722
1.72467
1.69379
1.66338
1.63135
1.59592
1.55491
1.50445
1.43987
1.35546
1.24061
1.07906
0.842914
0.479432
1.95264
1.86661
1.78966
1.72109
1.66005
1.60537
1.55577
1.50945
1.46479
1.41929
1.37081
1.31685
1.25345
1.17616
1.08019
0.957489
0.797213
0.582819
0.283577
1.93047
1.81194
1.70898
1.61862
1.53892
1.46811
1.40448
1.34598
1.29075
1.23615
1.17995
1.11962
1.05146
0.971556
0.876036
0.758934
0.613067
0.428688
0.187925
1.91216
1.76564
1.63996
1.53058
1.43468
1.35006
1.27469
1.20638
1.14312
1.0823
1.02168
0.958798
0.890255
0.812606
0.722655
0.61582
0.487141
0.330683
0.135796
1.89995
1.73151
1.58672
1.4608
1.35066
1.25386
1.16824
1.09156
1.02177
0.956295
0.892947
0.829332
0.762311
0.688779
0.605967
0.510154
0.397657
0.264612
0.104352
1.8941
1.71056
1.55049
1.4104
1.28756
1.17972
1.08474
1.00042
0.924757
0.855241
0.789753
0.725963
0.660921
0.591754
0.515947
0.430296
0.331836
0.2178
0.0837085
1.89324
1.70109
1.5297
1.37779
1.24371
1.1257
1.0219
0.930273
0.848917
0.775435
0.70778
0.643681
0.580333
0.515022
0.445374
0.368496
0.281819
0.183143
0.0691859
1.89603
1.7008
1.5218
1.36041
1.21647
1.08908
0.976853
0.878056
0.790959
0.713316
0.64317
0.578314
0.516057
0.453794
0.389232
0.319663
0.242736
0.156526
0.0584091
1.8997
1.70497
1.52163
1.35315
1.20097
1.0652
0.945131
0.839436
0.746653
0.664727
0.591814
0.525783
0.464039
0.404062
0.343604
0.280075
0.211241
0.135304
0.0500092
1.90261
1.70984
1.52448
1.35111
1.19241
1.04953
0.922459
0.810397
0.712212
0.626081
0.550305
0.482839
0.421183
0.362888
0.30574
0.247227
0.185183
0.117858
0.043205
1.90617
1.71626
1.5302
1.35338
1.18945
1.04044
0.907099
0.789142
0.685821
0.595578
0.516873
0.447764
0.385836
0.328703
0.274175
0.219795
0.163432
0.103344
0.0375962
1.90951
1.72283
1.53688
1.35765
1.18952
1.03531
0.896425
0.77313
0.665062
0.570941
0.489401
0.418604
0.356216
0.299906
0.247499
0.196574
0.14502
0.0910824
0.0328886
1.91148
1.72743
1.54194
1.36105
1.18966
1.03117
0.887594
0.759679
0.647447
0.549891
0.465821
0.393503
0.330677
0.275057
0.22448
0.17655
0.129167
0.0805522
0.0288702
1.91309
1.73091
1.54569
1.36344
1.18932
1.0272
0.879587
0.74767
0.631817
0.53128
0.44503
0.371424
0.308268
0.253308
0.204382
0.159114
0.115402
0.0714422
0.0254152
1.91463
1.73385
1.54857
1.36491
1.18827
1.02291
0.871719
0.736287
0.617288
0.514198
0.426129
0.351511
0.288194
0.233942
0.186585
0.143751
0.103332
0.063494
0.022423
1.91561
1.73568
1.55001
1.36482
1.18577
1.01742
0.863039
0.724543
0.602868
0.497683
0.408205
0.332913
0.269682
0.216273
0.170499
0.129978
0.0925907
0.0564703
0.0198028
1.91624
1.73664
1.55023
1.36333
1.18183
1.01062
0.853306
0.712089
0.588133
0.481258
0.390757
0.315129
0.252244
0.199845
0.155711
0.117445
0.0829052
0.0501917
0.0174846
1.91767
1.73855
1.55119
1.36229
1.1781
1.00389
0.843592
0.699713
0.573612
0.465237
0.373922
0.298155
0.235777
0.184489
0.14202
0.105948
0.0740997
0.0445357
0.0154194
1.91949
1.7413
1.553
1.36193
1.17484
0.997436
0.834049
0.687482
0.559289
0.449524
0.357538
0.281776
0.220026
0.169924
0.12914
0.0952176
0.0659506
0.039352
0.0135524
1.92087
1.74366
1.55456
1.36134
1.1713
0.990672
0.824195
0.674995
0.544814
0.433802
0.341298
0.265689
0.204683
0.155837
0.116755
0.0849498
0.0581955
0.0344617
0.0118208
1.9223
1.74612
1.55631
1.36099
1.16801
0.984127
0.814532
0.662692
0.530545
0.418326
0.325355
0.24994
0.189698
0.142091
0.104649
0.0748704
0.050541
0.02963
0.0101396
1.92402
1.74911
1.55871
1.36138
1.16548
0.978315
0.805566
0.65104
0.516874
0.40339
0.309886
0.234588
0.175013
0.128519
0.0925534
0.0646052
0.0425237
0.0243943
0.00828619
1.92591
1.75245
1.56159
1.36235
1.16362
0.973247
0.797379
0.640165
0.503932
0.389084
0.294908
0.219551
0.160445
0.114837
0.0800807
0.0536331
0.0334283
0.0178069
0.00536803
1.92898
1.75999
1.57222
1.37475
1.17658
0.985762
0.808649
0.64963
0.511255
0.394134
0.297747
0.220411
0.159677
0.112857
0.0773188
0.0504847
0.0302876
0.0151658
0.00401002
1.93241
1.76989
1.58811
1.39572
1.2014
1.01295
0.836672
0.677019
0.536755
0.416798
0.316969
0.235981
0.171734
0.12181
0.0837251
0.0549189
0.0332235
0.0169181
0.00467693
1.93416
1.77598
1.59895
1.41122
1.22099
1.03564
0.861192
0.702017
0.56091
0.438971
0.336297
0.251965
0.18426
0.131118
0.0903019
0.0593393
0.0360138
0.0184733
0.00521281
1.93428
1.77811
1.60441
1.42076
1.23473
1.05312
0.881506
0.723956
0.583144
0.46021
0.355433
0.268199
0.197188
0.140754
0.0970246
0.06372
0.0386434
0.0198372
0.00563437
1.93334
1.77746
1.60604
1.42605
1.24434
1.06701
0.899043
0.744076
0.604525
0.48146
0.375241
0.285493
0.211257
0.151349
0.104374
0.0683895
0.0413236
0.0211435
0.00600255
1.93147
1.77483
1.60515
1.4287
1.25152
1.07895
0.915295
0.763683
0.626195
0.503741
0.396681
0.304789
0.227391
0.163744
0.113019
0.0737877
0.0442903
0.0225022
0.00635679
1.92915
1.7715
1.60354
1.43074
1.25835
1.09092
0.932066
0.784374
0.649558
0.528325
0.420972
0.327326
0.246878
0.179223
0.124085
0.0807165
0.0479626
0.0240585
0.00672967
1.92748
1.76934
1.60337
1.43443
1.26702
1.10495
0.95118
0.807759
0.67605
0.556543
0.44944
0.354545
0.27137
0.199644
0.139474
0.0907828
0.0533259
0.0261358
0.00712528
1.92601
1.76778
1.60417
1.43943
1.27733
1.12096
0.972641
0.833937
0.705884
0.588774
0.482713
0.387456
0.302433
0.227282
0.162138
0.107234
0.0631456
0.0302071
0.00757077
1.92467
1.76682
1.60607
1.44599
1.28961
1.13932
0.996865
0.863365
0.739578
0.625634
0.521587
0.427185
0.341786
0.264857
0.196249
0.13591
0.0844077
0.0428081
0.0115621
1.92306
1.76504
1.60641
1.45017
1.29865
1.15364
1.01638
0.88763
0.767896
0.657184
0.555519
0.462682
0.378057
0.301059
0.231296
0.16819
0.11151
0.0616345
0.0188915
1.91993
1.75883
1.59948
1.44423
1.29481
1.1525
1.01814
0.892151
0.774853
0.666101
0.565865
0.473918
0.389688
0.312659
0.242526
0.178702
0.120813
0.0687843
0.0221702
1.91571
1.74976
1.58806
1.43214
1.28318
1.14199
1.00906
0.884552
0.768594
0.660903
0.561388
0.469816
0.385641
0.308436
0.238059
0.174119
0.116512
0.065465
0.0207407
1.91226
1.74243
1.57886
1.42247
1.27392
1.13367
1.00192
0.878638
0.763791
0.657005
0.558154
0.467014
0.383073
0.305974
0.235677
0.171885
0.114588
0.0640988
0.0202201
1.90992
1.73726
1.57229
1.41549
1.26722
1.12765
0.99677
0.874385
0.760362
0.654254
0.555914
0.465127
0.381401
0.304425
0.234222
0.17055
0.113452
0.0633029
0.019935
1.90818
1.73341
1.56738
1.41028
1.2622
1.12313
0.992888
0.871162
0.757748
0.652145
0.554194
0.463684
0.380137
0.303272
0.233154
0.169577
0.112628
0.0627279
0.0197339
1.9069
1.73059
1.5638
1.40649
1.25855
1.11982
0.990022
0.868756
0.755766
0.65052
0.552847
0.462542
0.379134
0.302358
0.232313
0.168816
0.111983
0.0622766
0.0195736
1.90578
1.72842
1.56122
1.40386
1.25607
1.1176
0.988108
0.867147
0.754439
0.649434
0.551958
0.461807
0.378514
0.301825
0.231851
0.168421
0.111664
0.0620621
0.0195022
1.90579
1.72843
1.56123
1.40387
1.25609
1.11762
0.988122
0.867161
0.754453
0.649448
0.551971
0.461819
0.378525
0.301835
0.231859
0.168427
0.111669
0.0620647
0.0195031
1.90691
1.73061
1.56383
1.40652
1.25859
1.11986
0.990067
0.868801
0.75581
0.650563
0.552887
0.462579
0.379167
0.302387
0.232337
0.168835
0.111998
0.0622854
0.0195767
1.90819
1.73345
1.56743
1.41034
1.26227
1.1232
0.992959
0.871234
0.757818
0.652213
0.554257
0.463742
0.38019
0.303317
0.233192
0.169608
0.11265
0.0627411
0.0197385
1.90994
1.73731
1.57235
1.41557
1.2673
1.12774
0.996865
0.874481
0.760456
0.654344
0.555998
0.465204
0.38147
0.304485
0.234272
0.170589
0.11348
0.0633198
0.0199407
1.91229
1.74248
1.57894
1.42256
1.27402
1.13378
1.00204
0.878756
0.763906
0.657115
0.558257
0.467109
0.383157
0.306047
0.235737
0.171932
0.114621
0.0641187
0.0202267
1.91573
1.74982
1.58815
1.43225
1.2833
1.14212
1.00919
0.884688
0.768727
0.661029
0.561506
0.469924
0.385736
0.308516
0.238124
0.174168
0.116546
0.0654841
0.0207466
1.91996
1.75889
1.59959
1.44435
1.29495
1.15265
1.01829
0.892305
0.775002
0.666242
0.565994
0.474034
0.389786
0.312738
0.242584
0.178741
0.120833
0.0687914
0.0221707
1.9231
1.76514
1.60657
1.45038
1.2989
1.15392
1.01669
0.887955
0.768231
0.657522
0.555856
0.463012
0.378378
0.301368
0.23159
0.168463
0.111748
0.0618113
0.018967
1.92471
1.76694
1.60626
1.44625
1.28992
1.13967
0.997251
0.863774
0.740001
0.626064
0.522016
0.427606
0.342195
0.265245
0.196606
0.136222
0.084654
0.0429677
0.0116194
1.92604
1.76788
1.60433
1.43965
1.2776
1.12127
0.972978
0.834292
0.706248
0.589138
0.483069
0.387797
0.302751
0.227568
0.162382
0.107423
0.063271
0.0302694
0.0075831
1.92751
1.76944
1.60352
1.43464
1.26728
1.10524
0.951499
0.808092
0.676388
0.556876
0.449759
0.354843
0.271638
0.199874
0.139657
0.0909144
0.0534067
0.0261746
0.00713514
1.92918
1.77159
1.60369
1.43094
1.25859
1.09119
0.932365
0.784684
0.64987
0.528628
0.421257
0.327586
0.247105
0.179409
0.124228
0.0808157
0.048023
0.0240887
0.00673806
1.9315
1.77491
1.60528
1.42888
1.25174
1.0792
0.915573
0.763971
0.626481
0.504015
0.396936
0.305016
0.227583
0.163899
0.113135
0.0738675
0.0443395
0.0225276
0.00636416
1.93336
1.77753
1.60616
1.42622
1.24455
1.06724
0.899299
0.744339
0.604785
0.481706
0.375466
0.28569
0.211422
0.15148
0.104471
0.0684564
0.0413655
0.0211658
0.00600926
1.93429
1.77817
1.60451
1.42091
1.23492
1.05333
0.881738
0.724194
0.583377
0.46043
0.355631
0.268371
0.19733
0.140866
0.0971075
0.0637778
0.0386803
0.0198574
0.00564074
1.93418
1.77604
1.59904
1.41136
1.22116
1.03583
0.861399
0.702229
0.561117
0.439165
0.336471
0.252114
0.184383
0.131215
0.0903743
0.0593906
0.0360476
0.0184925
0.00521927
1.93242
1.76994
1.58818
1.39583
1.20155
1.01312
0.836854
0.677206
0.536937
0.416968
0.317121
0.236112
0.171841
0.121895
0.0837896
0.0549658
0.0332556
0.0169374
0.00468403
1.92898
1.76
1.57224
1.37478
1.17662
0.98581
0.808703
0.649685
0.51131
0.394185
0.297792
0.220449
0.159706
0.112879
0.0773329
0.0504923
0.0302901
0.0151652
0.00400871
1.9259
1.75244
1.56157
1.36232
1.16358
0.973212
0.797343
0.64013
0.503899
0.389055
0.294882
0.219528
0.160425
0.114819
0.0800653
0.0536198
0.0334172
0.0177986
0.00536405
1.92402
1.74911
1.5587
1.36137
1.16547
0.97831
0.805563
0.651038
0.516874
0.403392
0.30989
0.234593
0.175018
0.128523
0.0925578
0.0646089
0.0425265
0.024396
0.0082866
1.9223
1.74612
1.5563
1.36099
1.16801
0.984124
0.814531
0.662692
0.530546
0.418328
0.325358
0.249944
0.189702
0.142094
0.104652
0.0748731
0.050543
0.029631
0.0101399
1.92087
1.74366
1.55455
1.36133
1.1713
0.990671
0.824195
0.674995
0.544816
0.433804
0.341301
0.265692
0.204686
0.15584
0.116757
0.0849518
0.0581969
0.0344625
0.011821
1.91949
1.74129
1.553
1.36193
1.17484
0.997436
0.834049
0.687483
0.55929
0.449527
0.357541
0.281779
0.220028
0.169926
0.129142
0.0952191
0.0659517
0.0393526
0.0135525
1.91767
1.73855
1.55119
1.36229
1.1781
1.00389
0.843593
0.699714
0.573613
0.465239
0.373924
0.298157
0.235779
0.18449
0.142022
0.105949
0.0741005
0.0445361
0.0154195
1.91624
1.73664
1.55023
1.36333
1.18183
1.01063
0.853307
0.712091
0.588134
0.481259
0.390759
0.31513
0.252245
0.199846
0.155712
0.117446
0.0829057
0.050192
0.0174846
1.91561
1.73568
1.55001
1.36482
1.18577
1.01742
0.86304
0.724544
0.60287
0.497684
0.408206
0.332915
0.269683
0.216274
0.170499
0.129979
0.092591
0.0564704
0.0198028
1.91463
1.73385
1.54857
1.36491
1.18828
1.02291
0.87172
0.736288
0.617289
0.5142
0.42613
0.351512
0.288195
0.233942
0.186585
0.143752
0.103332
0.063494
0.022423
1.91309
1.73091
1.54569
1.36344
1.18932
1.0272
0.879588
0.747671
0.631818
0.531281
0.445031
0.371425
0.308269
0.253308
0.204382
0.159114
0.115402
0.0714421
0.0254152
1.91148
1.72743
1.54194
1.36106
1.18966
1.03118
0.887595
0.75968
0.647447
0.549891
0.465822
0.393503
0.330677
0.275057
0.224479
0.17655
0.129166
0.0805519
0.0288702
1.90951
1.72283
1.53689
1.35765
1.18952
1.03531
0.896426
0.77313
0.665062
0.57094
0.4894
0.418603
0.356216
0.299906
0.247498
0.196574
0.14502
0.091082
0.0328886
1.90617
1.71626
1.5302
1.35338
1.18945
1.04044
0.907099
0.789142
0.685821
0.595577
0.516872
0.447763
0.385835
0.328702
0.274174
0.219794
0.163431
0.103344
0.0375962
1.90261
1.70984
1.52448
1.35111
1.19241
1.04953
0.922459
0.810397
0.712211
0.62608
0.550303
0.482838
0.421181
0.362886
0.305738
0.247226
0.185182
0.117858
0.0432051
1.8997
1.70497
1.52163
1.35315
1.20097
1.0652
0.94513
0.839435
0.746652
0.664725
0.591812
0.525781
0.464037
0.40406
0.343603
0.280074
0.21124
0.135304
0.0500094
1.89603
1.7008
1.5218
1.36041
1.21647
1.08908
0.976852
0.878054
0.790957
0.713314
0.643167
0.578312
0.516055
0.453792
0.38923
0.319662
0.242735
0.156526
0.0584094
1.89324
1.70109
1.5297
1.37779
1.24371
1.1257
1.02189
0.930271
0.848915
0.775433
0.707777
0.643678
0.58033
0.51502
0.445372
0.368495
0.281819
0.183143
0.0691862
1.8941
1.71056
1.55049
1.41039
1.28756
1.17971
1.08473
1.00042
0.924754
0.855239
0.789751
0.725961
0.660919
0.591753
0.515946
0.430295
0.331836
0.217801
0.0837088
1.89995
1.73151
1.58672
1.4608
1.35066
1.25386
1.16824
1.09156
1.02177
0.956293
0.892945
0.82933
0.762309
0.688778
0.605966
0.510154
0.397657
0.264612
0.104353
1.91216
1.76563
1.63995
1.53057
1.43468
1.35005
1.27468
1.20637
1.14312
1.0823
1.02168
0.958796
0.890253
0.812605
0.722655
0.615821
0.487142
0.330683
0.135796
1.93046
1.81194
1.70898
1.61862
1.53892
1.4681
1.40447
1.34598
1.29075
1.23615
1.17995
1.11962
1.05146
0.971556
0.876036
0.758934
0.613067
0.428688
0.187925
1.95263
1.86661
1.78966
1.72109
1.66005
1.60537
1.55577
1.50945
1.46479
1.41929
1.37081
1.31685
1.25345
1.17616
1.08019
0.957489
0.797214
0.582819
0.283577
1.97516
1.92396
1.87591
1.83215
1.79278
1.75722
1.72467
1.69379
1.66338
1.63135
1.59592
1.55491
1.50445
1.43987
1.35546
1.24061
1.07906
0.842914
0.479432
1.99425
1.97779
1.96102
1.94529
1.93099
1.91798
1.90601
1.89444
1.8828
1.86999
1.85514
1.83706
1.8132
1.78005
1.73226
1.65797
1.53516
1.31984
0.923842
)
;

boundaryField
{
    up
    {
        type            fixedValue;
        value           uniform 0;
    }
    low
    {
        type            fixedValue;
        value           uniform 2;
    }
    left
    {
        type            fixedValue;
        value           uniform 2;
    }
    right
    {
        type            fixedValue;
        value           uniform 2;
    }
    frontAndBackPlanes
    {
        type            empty;
    }
}


// ************************************************************************* //
