/*--------------------------------*- C++ -*----------------------------------*\
  =========                 |
  \\      /  F ield         | OpenFOAM: The Open Source CFD Toolbox
   \\    /   O peration     | Website:  https://openfoam.org
    \\  /    A nd           | Version:  7
     \\/     M anipulation  |
\*---------------------------------------------------------------------------*/
FoamFile
{
    version     2.0;
    format      ascii;
    class       volScalarField;
    location    "0.24";
    object      gradTx;
}
// * * * * * * * * * * * * * * * * * * * * * * * * * * * * * * * * * * * * * //

dimensions      [0 -1 0 1 0 0 0];

internalField   nonuniform List<scalar> 
1596
(
-0.0433577
-0.217631
-0.389975
-0.545827
-0.684316
-0.805166
-0.913952
-1.01426
-1.11096
-1.21345
-1.32435
-1.45496
-1.6186
-1.83472
-2.12635
-2.5516
-3.20033
-4.2667
-6.15222
0.00951443
-0.181203
-0.350842
-0.497776
-0.625578
-0.735067
-0.831274
-0.91599
-0.99287
-1.0668
-1.13832
-1.21354
-1.29465
-1.38494
-1.48203
-1.58151
-1.65806
-1.66011
-1.47832
0.0528538
-0.148181
-0.312386
-0.448891
-0.56468
-0.661997
-0.745187
-0.815423
-0.875148
-0.926991
-0.970593
-1.00917
-1.04192
-1.06828
-1.0839
-1.0812
-1.03994
-0.924673
-0.665912
0.0597878
-0.130716
-0.280945
-0.403355
-0.505475
-0.59016
-0.660813
-0.718364
-0.76436
-0.800144
-0.825246
-0.841225
-0.846776
-0.840513
-0.818973
-0.7761
-0.698898
-0.566112
-0.336356
0.0177564
-0.136679
-0.262162
-0.365794
-0.452341
-0.523973
-0.582781
-0.629437
-0.664786
-0.689333
-0.702816
-0.705773
-0.697119
-0.675536
-0.638799
-0.582682
-0.499577
-0.377359
-0.192251
-0.0697289
-0.169022
-0.260267
-0.340464
-0.409389
-0.467324
-0.514717
-0.551765
-0.578668
-0.595308
-0.60163
-0.59749
-0.582114
-0.554395
-0.51305
-0.455175
-0.376544
-0.270352
-0.123154
-0.186202
-0.225138
-0.276965
-0.330234
-0.379645
-0.423
-0.458962
-0.487003
-0.506681
-0.517352
-0.519027
-0.511089
-0.492965
-0.463708
-0.422607
-0.367595
-0.296418
-0.205254
-0.0865411
-0.308336
-0.294569
-0.307942
-0.333485
-0.362597
-0.390848
-0.415312
-0.434606
-0.447657
-0.453362
-0.451648
-0.441566
-0.422619
-0.393943
-0.355124
-0.304602
-0.241214
-0.162802
-0.0651217
-0.434844
-0.38359
-0.362677
-0.360261
-0.367495
-0.378799
-0.390192
-0.39948
-0.405014
-0.405274
-0.399958
-0.387863
-0.368441
-0.340815
-0.304655
-0.258675
-0.202243
-0.134075
-0.0517253
-0.51089
-0.445721
-0.404469
-0.381949
-0.371834
-0.368935
-0.369083
-0.369637
-0.36859
-0.364158
-0.355801
-0.342192
-0.322703
-0.29646
-0.263145
-0.221666
-0.171665
-0.112363
-0.0423254
-0.572879
-0.501731
-0.448189
-0.410753
-0.38599
-0.370019
-0.359202
-0.350875
-0.34291
-0.333405
-0.321606
-0.306117
-0.286214
-0.260993
-0.230081
-0.192484
-0.147934
-0.0959059
-0.0355291
-0.636009
-0.564196
-0.502958
-0.453789
-0.41586
-0.386986
-0.364562
-0.346306
-0.330236
-0.314474
-0.298125
-0.279757
-0.258537
-0.233501
-0.204168
-0.169569
-0.129403
-0.0832307
-0.0304421
-0.653174
-0.59091
-0.531061
-0.478144
-0.433589
-0.396876
-0.366575
-0.341064
-0.318745
-0.297961
-0.277834
-0.25701
-0.234626
-0.209722
-0.181758
-0.149801
-0.113514
-0.0724931
-0.0262567
-0.657296
-0.605495
-0.5506
-0.497775
-0.449908
-0.407925
-0.37155
-0.339953
-0.312066
-0.286579
-0.262745
-0.23935
-0.215555
-0.190421
-0.163368
-0.133486
-0.100383
-0.0636504
-0.0228598
-0.655955
-0.613654
-0.564901
-0.514355
-0.465451
-0.420136
-0.379133
-0.34243
-0.309562
-0.279651
-0.252171
-0.2261
-0.20066
-0.174962
-0.148396
-0.120069
-0.0895295
-0.0563378
-0.0200675
-0.639708
-0.607624
-0.566357
-0.520322
-0.473027
-0.426982
-0.383633
-0.343681
-0.307258
-0.27395
-0.243526
-0.215202
-0.188315
-0.162056
-0.135823
-0.108753
-0.0803552
-0.0501592
-0.0177198
-0.607978
-0.58561
-0.55257
-0.512705
-0.46929
-0.425017
-0.381749
-0.340713
-0.302548
-0.267289
-0.235019
-0.205224
-0.177398
-0.150843
-0.124999
-0.0990562
-0.0725117
-0.0448886
-0.0157291
-0.570687
-0.554527
-0.528723
-0.495305
-0.456828
-0.415819
-0.374293
-0.333799
-0.295366
-0.259406
-0.226302
-0.195805
-0.167578
-0.141051
-0.115716
-0.0908241
-0.065885
-0.0404418
-0.0140523
-0.539391
-0.528238
-0.507983
-0.479784
-0.445512
-0.407418
-0.367563
-0.327716
-0.289213
-0.252791
-0.219088
-0.188094
-0.159616
-0.133183
-0.10832
-0.0843053
-0.0606417
-0.0369026
-0.0126986
-0.484925
-0.480377
-0.466561
-0.444834
-0.416619
-0.383763
-0.348144
-0.311534
-0.275412
-0.24072
-0.208297
-0.178343
-0.150817
-0.125373
-0.101583
-0.0787503
-0.056368
-0.0340592
-0.0115878
-0.424642
-0.425304
-0.417295
-0.401705
-0.379625
-0.352526
-0.322029
-0.289786
-0.257292
-0.225589
-0.195623
-0.16775
-0.142054
-0.1183
-0.0961038
-0.0747617
-0.0536696
-0.0323928
-0.0108821
-0.361772
-0.365795
-0.362598
-0.352596
-0.336468
-0.31531
-0.290461
-0.263386
-0.235502
-0.207858
-0.181412
-0.156605
-0.133599
-0.112264
-0.0922784
-0.0729255
-0.0533959
-0.0328822
-0.0110935
-0.292067
-0.29775
-0.298458
-0.29377
-0.283818
-0.269239
-0.251027
-0.230366
-0.208508
-0.186407
-0.164921
-0.144498
-0.125312
-0.107338
-0.0903833
-0.0738371
-0.0567332
-0.0376082
-0.014584
-0.213413
-0.210327
-0.203462
-0.192936
-0.179507
-0.164214
-0.148257
-0.132679
-0.118337
-0.105663
-0.0947019
-0.0851941
-0.0766673
-0.0686595
-0.060771
-0.0525284
-0.0431809
-0.0312414
-0.0139901
-0.14267
-0.158654
-0.176152
-0.192317
-0.205149
-0.213336
-0.216476
-0.214758
-0.208947
-0.199975
-0.188635
-0.175713
-0.16167
-0.147131
-0.132681
-0.118802
-0.105345
-0.0913731
-0.0743268
-0.0482815
-0.0558047
-0.0656691
-0.0762433
-0.0863185
-0.0950341
-0.102075
-0.107375
-0.111216
-0.113888
-0.115319
-0.115488
-0.113906
-0.110445
-0.105276
-0.0992246
-0.092916
-0.0870879
-0.0818216
0.0462818
0.0368162
0.0233945
0.00756124
-0.00924303
-0.0258542
-0.041572
-0.0560347
-0.0692508
-0.081329
-0.0920258
-0.101034
-0.107495
-0.110798
-0.110751
-0.10821
-0.104157
-0.0998376
-0.0957506
0.140694
0.127762
0.109534
0.0877722
0.0641173
0.0399482
0.0162111
-0.00657802
-0.028302
-0.0490278
-0.0685169
-0.0863125
-0.101245
-0.112093
-0.117983
-0.119431
-0.117608
-0.11432
-0.110586
0.226119
0.207809
0.183671
0.155799
0.125913
0.0954486
0.0653813
0.0361903
0.00793102
-0.0195955
-0.046342
-0.0719395
-0.0950999
-0.114015
-0.126817
-0.133141
-0.133896
-0.131435
-0.127584
0.314828
0.289962
0.259216
0.224786
0.188468
0.151754
0.115614
0.080462
0.0462532
0.0125981
-0.0207538
-0.0537765
-0.0854109
-0.113566
-0.135294
-0.14875
-0.15367
-0.152518
-0.148241
0.382025
0.349614
0.312296
0.272236
0.231208
0.190551
0.151016
0.112772
0.0755605
0.0387276
0.00165724
-0.0361752
-0.0743652
-0.111182
-0.143046
-0.166359
-0.178341
-0.180048
-0.175003
0.445234
0.40634
0.362645
0.317148
0.271734
0.227575
0.185197
0.144557
0.105243
0.0664244
0.0272163
-0.0134771
-0.056218
-0.100478
-0.143257
-0.180143
-0.205061
-0.215089
-0.211957
0.504123
0.456797
0.406271
0.355604
0.306451
0.259647
0.215417
0.173498
0.133379
0.0941684
0.0549202
0.0142379
-0.0292854
-0.0767912
-0.127356
-0.178387
-0.22245
-0.251368
-0.256954
0.542933
0.482834
0.421938
0.362925
0.306968
0.254461
0.205302
0.15905
0.115135
0.0727128
0.0309013
-0.0116423
-0.0566155
-0.106338
-0.162537
-0.226895
-0.296487
-0.364925
-0.42001
0.567768
0.502006
0.440161
0.383883
0.333188
0.287592
0.246346
0.20868
0.173891
0.141304
0.110416
0.080619
0.051222
0.0211117
-0.0113502
-0.0495152
-0.0968205
-0.157255
-0.232601
0.586819
0.518762
0.458901
0.406521
0.36034
0.319241
0.282157
0.24826
0.216908
0.187564
0.159951
0.133875
0.10923
0.0860443
0.0645096
0.0445247
0.0257913
0.00700792
-0.0143726
0.55721
0.479478
0.413911
0.357887
0.309346
0.266801
0.228999
0.195002
0.164099
0.135681
0.109419
0.0850798
0.0625058
0.0417148
0.0229584
0.00651665
-0.00711455
-0.0173825
-0.0240235
0.490621
0.419558
0.360636
0.310992
0.268511
0.231665
0.199227
0.170285
0.144174
0.120351
0.0985157
0.0784625
0.0600294
0.0431629
0.0279213
0.0143043
0.00235024
-0.00788592
-0.0164774
0.408741
0.348846
0.299143
0.257436
0.221965
0.191386
0.164632
0.140896
0.119602
0.100276
0.0826432
0.0665054
0.051682
0.0380703
0.0256499
0.0143569
0.00417429
-0.00485634
-0.0127801
0.308451
0.262133
0.224111
0.192521
0.165881
0.14307
0.123225
0.105698
0.0900319
0.0758549
0.0629432
0.051133
0.0402678
0.0302516
0.0210548
0.0126251
0.00495597
-0.00189966
-0.00795525
0.194572
0.163664
0.139068
0.119024
0.102326
0.0881394
0.0758629
0.0650593
0.0554279
0.046725
0.0388019
0.0315488
0.0248586
0.0186632
0.0129382
0.00764855
0.00279174
-0.00158797
-0.00548482
0.0747913
0.0623625
0.0528172
0.0451418
0.0387684
0.0333488
0.0286507
0.024511
0.0208185
0.0174833
0.0144477
0.0116679
0.00910002
0.00671334
0.00449186
0.00241628
0.000478779
-0.00130927
-0.00294642
-0.0747554
-0.0622833
-0.0527093
-0.0450155
-0.0386311
-0.0332062
-0.0285073
-0.0243705
-0.0206839
-0.0173573
-0.0143325
-0.0115654
-0.00901175
-0.0066408
-0.00443616
-0.0023783
-0.000459076
0.00131064
0.00292976
-0.194538
-0.163595
-0.138973
-0.118914
-0.102208
-0.0880175
-0.0757416
-0.0649421
-0.0553176
-0.0466241
-0.0387124
-0.0314725
-0.024797
-0.0186176
-0.0129095
-0.00763744
-0.00279863
0.00156329
0.005443
-0.308418
-0.262066
-0.22402
-0.192413
-0.165762
-0.142945
-0.123098
-0.105572
-0.0899115
-0.0757416
-0.0628391
-0.0510397
-0.0401866
-0.0301831
-0.0209995
-0.012583
-0.00492649
0.00191743
0.00796248
-0.408717
-0.3488
-0.299081
-0.257363
-0.221885
-0.191303
-0.164549
-0.140817
-0.119529
-0.100211
-0.0825877
-0.0664612
-0.0516499
-0.038051
-0.0256431
-0.0143623
-0.00419079
0.00482992
0.0127451
-0.490606
-0.41953
-0.360596
-0.310942
-0.268455
-0.231606
-0.199167
-0.170227
-0.144121
-0.120305
-0.098479
-0.0784364
-0.0600149
-0.0431604
-0.0279303
-0.0143234
-0.0023772
0.00785443
0.0164454
-0.557211
-0.479473
-0.413897
-0.357865
-0.309318
-0.266771
-0.228969
-0.194976
-0.164079
-0.13567
-0.109421
-0.0850953
-0.0625376
-0.0417645
-0.0230259
-0.0065991
0.00702474
0.0172982
0.0239599
-0.586821
-0.518716
-0.458792
-0.406343
-0.360092
-0.318927
-0.281783
-0.247832
-0.216434
-0.18705
-0.159403
-0.133298
-0.108625
-0.0854151
-0.0638606
-0.0438729
-0.0251772
-0.00651791
0.0145963
-0.567873
-0.502282
-0.440617
-0.384515
-0.333987
-0.288547
-0.247444
-0.209909
-0.175241
-0.142768
-0.11199
-0.082311
-0.0530493
-0.0231112
0.00912083
0.046972
0.0938822
0.153888
0.228889
-0.542892
-0.482721
-0.42174
-0.362641
-0.306601
-0.254016
-0.20479
-0.158479
-0.114517
-0.07206
-0.0302242
0.0123316
0.057304
0.107015
0.163207
0.227594
0.297316
0.366055
0.421668
-0.504159
-0.456882
-0.406398
-0.355765
-0.306638
-0.259853
-0.215638
-0.17373
-0.13362
-0.0944185
-0.0551808
-0.0145113
0.0289996
0.0765031
0.127094
0.178206
0.222415
0.251518
0.257236
-0.445257
-0.406394
-0.362725
-0.31725
-0.271851
-0.227703
-0.185334
-0.144701
-0.105394
-0.0665808
-0.0273783
0.0133121
0.0560586
0.100344
0.14318
0.180156
0.205185
0.215303
0.212219
-0.382048
-0.349668
-0.312377
-0.27234
-0.231328
-0.190683
-0.151156
-0.112917
-0.0757084
-0.0388754
-0.00180174
0.0360408
0.0742531
0.111111
0.143037
0.166424
0.178474
0.180223
0.175189
-0.31485
-0.290015
-0.259297
-0.224892
-0.188592
-0.15189
-0.115758
-0.0806088
-0.0463986
-0.0127376
0.0206255
0.0536679
0.0853336
0.113534
0.135316
0.148825
0.153786
0.152655
0.148386
-0.226138
-0.207858
-0.183748
-0.155899
-0.126031
-0.0955785
-0.065517
-0.0363261
-0.00806177
0.0194752
0.0462382
0.0718602
0.0950539
0.11401
0.126855
0.133216
0.133995
0.131549
0.127705
-0.140714
-0.127813
-0.109614
-0.0878765
-0.0642396
-0.0400816
-0.0163483
0.00644371
0.0281767
0.0489176
0.0684279
0.086251
0.101216
0.1121
0.118025
0.1195
0.117695
0.114419
0.110693
-0.0462994
-0.0368644
-0.0234715
-0.00766243
0.00912457
0.0257263
0.0414426
0.0559112
0.0691397
0.0812362
0.0919563
0.100993
0.107484
0.110817
0.110797
0.108277
0.104239
0.099931
0.0958551
0.0482404
0.0556805
0.0654577
0.0759499
0.085957
0.0946239
0.101639
0.106935
0.110792
0.113497
0.114973
0.115195
0.11367
0.110263
0.105143
0.0991346
0.0928655
0.087083
0.0818851
0.142699
0.158764
0.176363
0.192638
0.205575
0.213853
0.217063
0.21539
0.2096
0.200625
0.189264
0.176309
0.162224
0.14764
0.133148
0.119232
0.105742
0.0917443
0.0746707
0.213382
0.210218
0.203271
0.192671
0.179183
0.16385
0.147875
0.132297
0.117972
0.105326
0.0944019
0.0849344
0.0764485
0.0684799
0.060627
0.0524164
0.0430977
0.0311859
0.0139662
0.292085
0.297786
0.298512
0.293839
0.283898
0.269323
0.251109
0.230442
0.208574
0.186461
0.164963
0.144528
0.125333
0.107351
0.0903897
0.0738391
0.0567319
0.0376055
0.0145824
0.361776
0.3658
0.362604
0.352603
0.336476
0.315318
0.290468
0.263391
0.235505
0.207859
0.181411
0.156602
0.133596
0.11226
0.092274
0.0729212
0.0533921
0.0328797
0.0110929
0.424646
0.425308
0.4173
0.401711
0.379631
0.352531
0.322033
0.289789
0.257293
0.225589
0.195621
0.167747
0.142051
0.118296
0.0961001
0.0747585
0.0536671
0.0323914
0.0108817
0.484927
0.48038
0.466565
0.444838
0.416623
0.383767
0.348147
0.311535
0.275412
0.240719
0.208295
0.17834
0.150814
0.12537
0.10158
0.0787479
0.0563662
0.0340582
0.0115875
0.539393
0.528242
0.507988
0.479789
0.445516
0.407422
0.367565
0.327716
0.289213
0.252789
0.219086
0.188091
0.159613
0.133181
0.108318
0.0843034
0.0606403
0.0369018
0.0126984
0.570689
0.55453
0.528727
0.495309
0.456831
0.415821
0.374294
0.333799
0.295365
0.259404
0.2263
0.195803
0.167576
0.141048
0.115713
0.0908224
0.0658838
0.0404411
0.0140521
0.607979
0.585612
0.552572
0.512707
0.469292
0.425018
0.381749
0.340712
0.302547
0.267287
0.235016
0.205222
0.177395
0.150841
0.124997
0.0990546
0.0725105
0.0448879
0.0157289
0.63971
0.607627
0.56636
0.520325
0.473029
0.426983
0.383633
0.34368
0.307256
0.273948
0.243524
0.215199
0.188313
0.162054
0.135821
0.108752
0.080354
0.0501586
0.0177197
0.655956
0.613655
0.564903
0.514356
0.465451
0.420135
0.379132
0.342429
0.30956
0.279649
0.252169
0.226097
0.200658
0.17496
0.148394
0.120067
0.0895284
0.0563372
0.0200674
0.657297
0.605497
0.550602
0.497776
0.449909
0.407925
0.371548
0.339951
0.312064
0.286577
0.262743
0.239348
0.215552
0.190419
0.163367
0.133484
0.100382
0.06365
0.0228598
0.653176
0.590913
0.531063
0.478146
0.43359
0.396876
0.366575
0.341063
0.318744
0.297959
0.277832
0.257008
0.234625
0.20972
0.181757
0.1498
0.113514
0.072493
0.0262569
0.636008
0.564195
0.502958
0.453788
0.415858
0.386984
0.364559
0.346303
0.330233
0.314471
0.298122
0.279755
0.258535
0.233499
0.204167
0.169568
0.129403
0.0832307
0.0304423
0.572882
0.501734
0.448191
0.410754
0.38599
0.370018
0.359201
0.350873
0.342909
0.333403
0.321604
0.306115
0.286213
0.260993
0.23008
0.192484
0.147935
0.0959065
0.0355294
0.510896
0.445725
0.404471
0.38195
0.371834
0.368935
0.369082
0.369636
0.368589
0.364157
0.3558
0.342191
0.322702
0.29646
0.263145
0.221667
0.171666
0.112363
0.0423258
0.434849
0.383593
0.362678
0.360261
0.367495
0.378799
0.390192
0.399479
0.405013
0.405274
0.399957
0.387863
0.368441
0.340815
0.304656
0.258676
0.202244
0.134076
0.0517256
0.308339
0.29457
0.307942
0.333485
0.362597
0.390847
0.415312
0.434606
0.447657
0.453361
0.451648
0.441566
0.422619
0.393944
0.355125
0.304603
0.241216
0.162803
0.0651218
0.186205
0.22514
0.276966
0.330234
0.379645
0.423
0.458962
0.487003
0.506681
0.517352
0.519027
0.511089
0.492966
0.463709
0.422608
0.367597
0.296419
0.205255
0.086541
0.0697309
0.169023
0.260268
0.340465
0.409389
0.467325
0.514718
0.551765
0.578668
0.595309
0.60163
0.597491
0.582115
0.554397
0.513051
0.455176
0.376545
0.270352
0.123153
-0.0177553
0.13668
0.262163
0.365795
0.452342
0.523973
0.582782
0.629438
0.664786
0.689334
0.702817
0.705774
0.69712
0.675538
0.6388
0.582683
0.499577
0.377359
0.19225
-0.0597876
0.130717
0.280946
0.403356
0.505476
0.590161
0.660814
0.718364
0.764361
0.800144
0.825247
0.841226
0.846777
0.840514
0.818974
0.7761
0.698897
0.566111
0.336355
-0.0528541
0.148181
0.312386
0.448891
0.56468
0.661997
0.745187
0.815423
0.875148
0.926991
0.970594
1.00917
1.04192
1.06828
1.08389
1.0812
1.03994
0.924671
0.665912
-0.0095145
0.181203
0.350841
0.497776
0.625578
0.735066
0.831275
0.915991
0.992871
1.0668
1.13832
1.21354
1.29465
1.38494
1.48203
1.58151
1.65806
1.66011
1.47832
0.043358
0.217631
0.389975
0.545827
0.684316
0.805166
0.913952
1.01426
1.11096
1.21345
1.32435
1.45496
1.6186
1.83472
2.12635
2.5516
3.20033
4.26669
6.15222
)
;

boundaryField
{
    up
    {
        type            calculated;
        value           nonuniform List<scalar> 
84
(
-6.15222
-1.47832
-0.665912
-0.336356
-0.192251
-0.123154
-0.0865411
-0.0651217
-0.0517253
-0.0423254
-0.0355291
-0.0304421
-0.0262567
-0.0228598
-0.0200675
-0.0177198
-0.0157291
-0.0140523
-0.0126986
-0.0115878
-0.0108821
-0.0110935
-0.014584
-0.0139901
-0.0636168
-0.0765984
-0.090569
-0.104938
-0.121148
-0.140621
-0.165294
-0.197179
-0.234061
-0.416217
-0.240757
-0.0148365
-0.0239939
-0.0164473
-0.0127626
-0.00794949
-0.00548323
-0.00294726
0.00293059
0.00544146
0.00795678
0.0127278
0.0164155
0.0239303
0.015054
0.236939
0.418183
0.234312
0.197406
0.165468
0.14076
0.121266
0.105044
0.0906747
0.0766937
0.0639296
0.0139662
0.0145824
0.0110929
0.0108817
0.0115875
0.0126984
0.0140521
0.0157289
0.0177197
0.0200674
0.0228598
0.0262569
0.0304423
0.0355294
0.0423258
0.0517256
0.0651218
0.086541
0.123153
0.19225
0.336355
0.665912
1.47832
6.15222
)
;
    }
    low
    {
        type            calculated;
        value           nonuniform List<scalar> 
84
(
-0.0390914
0.0159406
0.0632714
0.0711584
0.0249338
-0.071062
-0.197218
-0.3269
-0.45635
-0.528527
-0.588245
-0.648143
-0.657908
-0.657408
-0.65311
-0.632676
-0.597425
-0.559235
-0.525813
-0.467486
-0.405446
-0.342394
-0.273326
-0.197104
-0.13002
-0.0437325
0.0411007
0.127768
0.209427
0.297948
0.36795
0.433556
0.496044
0.539659
0.568384
0.592087
0.567476
0.501893
0.418956
0.316678
0.200064
0.0770999
-0.0770638
-0.20003
-0.316642
-0.418928
-0.501873
-0.56747
-0.592081
-0.568471
-0.539619
-0.496074
-0.433576
-0.367972
-0.297969
-0.209446
-0.12779
-0.0411187
0.0436925
0.130048
0.197076
0.273341
0.342398
0.405449
0.467488
0.525816
0.559237
0.597426
0.632678
0.653111
0.657408
0.65791
0.648141
0.588247
0.528531
0.456354
0.326904
0.197221
0.0710643
-0.0249326
-0.0711585
-0.0632723
-0.0159412
0.0390915
)
;
    }
    left
    {
        type            calculated;
        value           nonuniform List<scalar> 
19
(
-0.0384601
-0.208862
-0.384658
-0.545844
-0.690249
-0.816711
-0.931248
-1.03805
-1.14199
-1.25487
-1.37921
-1.52777
-1.71802
-1.9761
-2.331
-2.86457
-3.70151
-5.11304
-5.33606
)
;
    }
    right
    {
        type            calculated;
        value           nonuniform List<scalar> 
19
(
0.0384604
0.208863
0.384658
0.545844
0.690249
0.816711
0.931248
1.03805
1.14199
1.25487
1.37921
1.52776
1.71801
1.97609
2.331
2.86457
3.70151
5.11304
5.33606
)
;
    }
    frontAndBackPlanes
    {
        type            empty;
    }
}


// ************************************************************************* //
