/*--------------------------------*- C++ -*----------------------------------*\
  =========                 |
  \\      /  F ield         | OpenFOAM: The Open Source CFD Toolbox
   \\    /   O peration     | Website:  https://openfoam.org
    \\  /    A nd           | Version:  7
     \\/     M anipulation  |
\*---------------------------------------------------------------------------*/
FoamFile
{
    version     2.0;
    format      ascii;
    class       volScalarField;
    location    "0.462";
    object      gradTy;
}
// * * * * * * * * * * * * * * * * * * * * * * * * * * * * * * * * * * * * * //

dimensions      [0 -1 0 1 0 0 0];

internalField   nonuniform List<scalar> 
1596
(
-0.265704
-0.497476
-0.695719
-0.897297
-1.10485
-1.34435
-1.60839
-1.92761
-2.31678
-2.7869
-3.42448
-4.23314
-5.33658
-6.88574
-9.26058
-12.9339
-19.46
-31.4719
-74.3494
-0.811093
-1.01135
-1.16482
-1.3235
-1.49407
-1.70318
-1.94346
-2.24143
-2.60952
-3.05093
-3.63563
-4.35872
-5.30196
-6.53435
-8.24991
-10.5511
-13.955
-18.9495
-33.1247
-1.45311
-1.53552
-1.61072
-1.71121
-1.83514
-2.00394
-2.20768
-2.46808
-2.79323
-3.18088
-3.68644
-4.29676
-5.06702
-6.02946
-7.30093
-8.90142
-11.111
-14.1382
-20.6486
-2.12619
-2.04559
-2.02315
-2.05509
-2.12529
-2.2464
-2.40528
-2.61829
-2.88944
-3.21297
-3.63218
-4.12951
-4.74252
-5.48459
-6.42877
-7.56367
-9.05272
-10.9855
-14.3122
-2.74608
-2.51125
-2.39157
-2.35286
-2.36679
-2.43676
-2.54712
-2.70886
-2.92287
-3.18153
-3.5182
-3.9144
-4.39589
-4.96679
-5.67436
-6.49738
-7.53703
-8.8295
-10.7253
-3.23638
-2.9036
-2.70696
-2.60493
-2.56544
-2.58502
-2.64719
-2.75823
-2.91694
-3.11507
-3.37787
-3.68806
-4.06339
-4.50351
-5.03974
-5.64985
-6.39894
-7.2988
-8.48528
-3.55537
-3.20046
-2.96136
-2.81213
-2.72745
-2.70135
-2.71883
-2.78264
-2.8905
-3.03446
-3.2332
-3.47173
-3.76212
-4.10207
-4.51247
-4.97335
-5.5274
-6.17545
-6.97287
-3.70233
-3.38876
-3.14595
-2.9718
-2.85489
-2.79139
-2.77019
-2.79217
-2.85495
-2.95156
-3.09549
-3.2745
-3.49661
-3.75878
-4.07487
-4.42806
-4.84649
-5.32634
-5.89068
-3.70892
-3.4837
-3.27111
-3.09471
-2.95998
-2.86881
-2.81584
-2.80183
-2.82527
-2.88067
-2.97768
-3.10675
-3.27306
-3.47344
-3.71689
-3.98953
-4.30967
-4.67172
-5.08487
-3.60259
-3.47212
-3.31223
-3.15569
-3.02021
-2.91438
-2.83924
-2.79711
-2.78816
-2.80877
-2.86621
-2.95339
-3.07376
-3.22439
-3.41112
-3.62261
-3.87076
-4.14947
-4.46149
-3.47012
-3.40797
-3.30166
-3.17591
-3.05182
-2.94224
-2.85368
-2.79076
-2.75581
-2.74734
-2.77138
-2.82312
-2.90502
-3.0146
-3.15565
-3.31889
-3.51189
-3.72859
-3.96859
-3.30766
-3.31528
-3.26145
-3.17077
-3.06518
-2.95961
-2.86452
-2.78681
-2.73111
-2.69815
-2.69358
-2.71465
-2.76348
-2.83818
-2.94129
-3.06516
-3.21447
-3.38348
-3.5703
-3.10955
-3.17876
-3.17614
-3.12369
-3.04251
-2.94834
-2.85396
-2.76824
-2.69784
-2.6456
-2.61753
-2.61275
-2.63358
-2.67892
-2.75076
-2.84281
-2.95801
-3.091
-3.23904
-2.93097
-3.03552
-3.07368
-3.05673
-3.00137
-2.9224
-2.83332
-2.74438
-2.66385
-2.59637
-2.54874
-2.52173
-2.51827
-2.53813
-2.58326
-2.64851
-2.73585
-2.84026
-2.95864
-2.7645
-2.89636
-2.96611
-2.97974
-2.94909
-2.88676
-2.80577
-2.71698
-2.62976
-2.55025
-2.48614
-2.43973
-2.41475
-2.41198
-2.4337
-2.47579
-2.53978
-2.62102
-2.71631
-2.6021
-2.7589
-2.85511
-2.89511
-2.88727
-2.84186
-2.77067
-2.68457
-2.59352
-2.50473
-2.42681
-2.36338
-2.31914
-2.29596
-2.29675
-2.31845
-2.36255
-2.42481
-2.50199
-2.4547
-2.6275
-2.74493
-2.80737
-2.82001
-2.79088
-2.73023
-2.64848
-2.55573
-2.45987
-2.37031
-2.29178
-2.23
-2.18794
-2.16945
-2.17257
-2.19919
-2.24549
-2.30825
-2.32524
-2.50791
-2.6417
-2.72291
-2.75357
-2.73951
-2.68934
-2.61273
-2.51961
-2.41824
-2.31858
-2.2263
-2.14803
-2.08786
-2.05074
-2.03596
-2.04626
-2.07846
-2.12938
-2.19825
-2.39906
-2.54931
-2.64759
-2.69467
-2.6946
-2.65458
-2.58338
-2.49058
-2.38459
-2.27573
-2.17037
-2.07595
-1.99753
-1.94123
-1.90782
-1.9014
-1.91989
-1.96047
-2.07105
-2.29199
-2.46
-2.57514
-2.63795
-2.65146
-2.62169
-2.55654
-2.4651
-2.35573
-2.23894
-2.12156
-2.01162
-1.91492
-1.83864
-1.78502
-1.76025
-1.76427
-1.79542
-1.96334
-2.19637
-2.38042
-2.5117
-2.58956
-2.61613
-2.59642
-2.53757
-2.44809
-2.33615
-2.21232
-2.08369
-1.95864
-1.84338
-1.74568
-1.6688
-1.62145
-1.6071
-1.62754
-1.86999
-2.11406
-2.31264
-2.45928
-2.55168
-2.591
-2.58132
-2.52905
-2.44212
-2.32838
-2.19833
-2.0592
-1.9196
-1.78578
-1.66542
-1.5616
-1.48461
-1.44254
-1.44592
-1.78678
-2.04414
-2.25729
-2.41888
-2.52547
-2.57732
-2.57772
-2.53243
-2.44874
-2.33404
-2.19865
-2.04987
-1.89654
-1.74489
-1.60201
-1.46889
-1.35392
-1.26593
-1.23092
-1.71579
-1.98755
-2.21481
-2.38952
-2.50778
-2.56906
-2.57645
-2.53495
-2.4514
-2.33293
-2.18873
-2.02721
-1.85745
-1.68634
-1.52021
-1.35829
-1.20152
-1.04603
-0.892975
-1.6614
-1.94716
-2.19043
-2.38234
-2.51935
-2.60024
-2.62811
-2.6067
-2.5417
-2.43967
-2.30702
-2.15275
-1.98505
-1.81264
-1.64194
-1.47438
-1.30574
-1.12484
-0.908864
-1.62746
-1.92206
-2.17307
-2.37343
-2.52006
-2.6118
-2.65168
-2.64285
-2.59002
-2.49876
-2.37293
-2.22086
-2.05016
-1.87091
-1.69192
-1.52044
-1.35643
-1.19741
-1.0334
-1.63571
-1.93488
-2.19049
-2.39645
-2.54999
-2.65088
-2.70201
-2.70677
-2.66915
-2.59332
-2.4815
-2.33922
-2.17258
-1.99157
-1.80731
-1.63056
-1.46577
-1.31365
-1.16747
-1.69158
-1.99055
-2.24567
-2.4518
-2.60684
-2.7117
-2.76964
-2.78463
-2.7604
-2.70007
-2.60426
-2.47529
-2.31635
-2.13561
-1.94538
-1.75981
-1.58844
-1.43538
-1.29587
-1.79229
-2.08896
-2.33884
-2.53992
-2.69132
-2.79536
-2.85599
-2.87795
-2.86516
-2.82024
-2.7425
-2.63112
-2.48519
-2.30893
-2.11341
-1.91559
-1.73103
-1.56928
-1.42805
-1.93771
-2.2251
-2.46402
-2.65489
-2.79795
-2.89691
-2.95661
-2.98269
-2.97955
-2.94996
-2.89261
-2.80436
-2.67973
-2.51673
-2.32124
-2.11019
-1.90526
-1.72516
-1.57317
-2.12865
-2.39862
-2.62203
-2.79845
-2.92923
-3.01951
-3.07517
-3.10267
-3.10707
-3.09195
-3.05631
-2.99649
-2.90344
-2.76799
-2.58591
-2.36754
-2.13593
-1.92271
-1.74508
-2.34506
-2.60036
-2.80572
-2.96396
-3.07887
-3.15724
-3.206
-3.23221
-3.24158
-3.2389
-3.22441
-3.19636
-3.14538
-3.05759
-2.91616
-2.71591
-2.46575
-2.20215
-1.96964
-2.60015
-2.83502
-3.01654
-3.15152
-3.2464
-3.30938
-3.34811
-3.36979
-3.38042
-3.38581
-3.38781
-3.38856
-3.38282
-3.35939
-3.29514
-3.16954
-2.95753
-2.66458
-2.3081
-2.90524
-3.10989
-3.26094
-3.36837
-3.44087
-3.48762
-3.51631
-3.53386
-3.54601
-3.55889
-3.57594
-3.60277
-3.64123
-3.69128
-3.74075
-3.77647
-3.76059
-3.66621
-3.4659
-3.25576
-3.42049
-3.52986
-3.59936
-3.63949
-3.65981
-3.66677
-3.6664
-3.66312
-3.66105
-3.66364
-3.67467
-3.69814
-3.73926
-3.80132
-3.89205
-4.00703
-4.13853
-4.27088
-3.66166
-3.76651
-3.82287
-3.84838
-3.85315
-3.84589
-3.8313
-3.81443
-3.79849
-3.78573
-3.77981
-3.7817
-3.79432
-3.81969
-3.86139
-3.92235
-4.00973
-4.12955
-4.29203
-4.11782
-4.14223
-4.13899
-4.11997
-4.09172
-4.0603
-4.02847
-3.99973
-3.97604
-3.95846
-3.94965
-3.94904
-3.95774
-3.97507
-4.001
-4.03155
-4.06624
-4.10007
-4.13074
-4.55527
-4.49533
-4.4309
-4.36616
-4.30355
-4.2459
-4.19406
-4.1496
-4.11315
-4.08467
-4.06523
-4.05359
-4.04953
-4.05162
-4.059
-4.06862
-4.08015
-4.09112
-4.10088
-4.93029
-4.8017
-4.68473
-4.57983
-4.4867
-4.40552
-4.33555
-4.27664
-4.22831
-4.18967
-4.16072
-4.13999
-4.1267
-4.11941
-4.11719
-4.11788
-4.12104
-4.12505
-4.12924
-5.23842
-5.05168
-4.89058
-4.75215
-4.63363
-4.53293
-4.44786
-4.37692
-4.31872
-4.27181
-4.23541
-4.20805
-4.18861
-4.17574
-4.1684
-4.16496
-4.16471
-4.16635
-4.16913
-5.46452
-5.23272
-5.03762
-4.87396
-4.73673
-4.62187
-4.526
-4.44652
-4.38144
-4.3289
-4.28764
-4.25621
-4.23329
-4.21754
-4.20781
-4.20265
-4.20102
-4.20167
-4.2036
-5.60419
-5.33405
-5.11596
-4.93729
-4.78971
-4.66731
-4.56581
-4.48197
-4.4134
-4.35808
-4.31449
-4.2812
-4.25683
-4.24009
-4.2298
-4.22471
-4.22368
-4.22554
-4.22918
-5.60423
-5.33411
-5.11603
-4.93737
-4.78979
-4.66739
-4.56589
-4.48204
-4.41347
-4.35815
-4.31455
-4.28127
-4.25689
-4.24015
-4.22985
-4.22477
-4.22374
-4.22559
-4.22923
-5.46458
-5.23285
-5.03778
-4.87414
-4.73693
-4.62207
-4.52619
-4.44672
-4.38163
-4.32909
-4.28782
-4.25639
-4.23346
-4.21771
-4.20798
-4.20283
-4.20121
-4.20187
-4.20382
-5.23851
-5.05187
-4.89083
-4.75244
-4.63394
-4.53324
-4.44818
-4.37723
-4.31902
-4.27211
-4.2357
-4.20833
-4.18888
-4.17601
-4.16867
-4.16523
-4.16498
-4.16664
-4.16943
-4.93041
-4.80195
-4.68505
-4.5802
-4.48709
-4.40593
-4.33596
-4.27705
-4.2287
-4.19006
-4.16109
-4.14034
-4.12703
-4.11972
-4.11747
-4.11813
-4.12127
-4.12525
-4.12943
-4.5554
-4.4956
-4.43126
-4.36658
-4.30401
-4.24637
-4.19454
-4.15008
-4.11363
-4.08513
-4.06568
-4.05401
-4.04991
-4.05196
-4.05929
-4.06885
-4.08032
-4.09123
-4.10093
-4.11797
-4.14252
-4.13938
-4.12042
-4.09222
-4.06083
-4.02901
-4.00028
-3.97659
-3.959
-3.95017
-3.94952
-3.95817
-3.97542
-4.00123
-4.03163
-4.06615
-4.09978
-4.13027
-3.66182
-3.76683
-3.82333
-3.84896
-3.85382
-3.84665
-3.83214
-3.81535
-3.79949
-3.78682
-3.781
-3.78299
-3.79571
-3.82117
-3.86292
-3.92377
-4.0108
-4.12985
-4.29093
-3.25587
-3.42057
-3.52994
-3.59943
-3.63954
-3.65981
-3.66671
-3.66625
-3.66286
-3.66062
-3.66301
-3.67376
-3.69685
-3.73747
-3.79898
-3.88918
-4.00404
-4.13629
-4.27086
-2.9053
-3.11003
-3.26117
-3.3687
-3.44129
-3.48815
-3.51694
-3.5346
-3.54685
-3.55985
-3.57704
-3.60404
-3.64275
-3.69324
-3.74346
-3.78042
-3.7664
-3.67442
-3.47682
-2.60019
-2.83505
-3.01661
-3.15163
-3.24655
-3.30958
-3.34836
-3.3701
-3.38078
-3.38624
-3.38833
-3.38923
-3.38373
-3.36071
-3.29705
-3.17215
-2.96072
-2.66783
-2.31045
-2.3451
-2.60038
-2.80576
-2.96403
-3.079
-3.15743
-3.20626
-3.23254
-3.242
-3.23941
-3.22506
-3.19721
-3.14652
-3.0591
-2.91806
-2.71809
-2.46794
-2.20404
-1.97114
-2.12867
-2.39862
-2.62204
-2.79849
-2.92933
-3.01966
-3.07539
-3.10297
-3.10747
-3.09248
-3.05699
-2.99737
-2.90458
-2.76938
-2.5875
-2.36917
-2.13744
-1.924
-1.74618
-1.93773
-2.22509
-2.46402
-2.65491
-2.79802
-2.89703
-2.95681
-2.98298
-2.97993
-2.95047
-2.89327
-2.80521
-2.68077
-2.51792
-2.32251
-2.11142
-1.90638
-1.72615
-1.57407
-1.7923
-2.08894
-2.33882
-2.53992
-2.69136
-2.79546
-2.85615
-2.87821
-2.86552
-2.82072
-2.74312
-2.6319
-2.4861
-2.30993
-2.11443
-1.91656
-1.73193
-1.57011
-1.42886
-1.69159
-1.99053
-2.24563
-2.45179
-2.60686
-2.71177
-2.76978
-2.78485
-2.76073
-2.70051
-2.60483
-2.47598
-2.31712
-2.13644
-1.9462
-1.7606
-1.58919
-1.43612
-1.29665
-1.63572
-1.93485
-2.19045
-2.39642
-2.55
-2.65093
-2.70213
-2.70697
-2.66945
-2.59371
-2.48199
-2.33981
-2.17324
-1.99225
-1.80799
-1.63122
-1.46643
-1.31435
-1.16829
-1.62747
-1.92203
-2.17302
-2.37338
-2.52002
-2.61179
-2.65171
-2.64293
-2.59016
-2.49896
-2.37319
-2.22116
-2.05048
-1.87123
-1.69221
-1.52073
-1.35675
-1.19788
-1.0342
-1.66146
-1.94721
-2.19049
-2.38242
-2.51945
-2.60039
-2.62832
-2.60697
-2.54205
-2.44009
-2.30751
-2.15331
-1.98566
-1.81328
-1.6426
-1.47506
-1.30642
-1.1255
-0.909456
-1.71586
-1.98762
-2.21487
-2.38958
-2.50781
-2.56907
-2.57644
-2.53491
-2.45132
-2.33281
-2.18858
-2.02702
-1.85723
-1.68608
-1.51991
-1.35795
-1.20113
-1.04559
-0.892477
-1.78684
-2.04419
-2.25734
-2.41894
-2.52552
-2.57737
-2.57776
-2.53245
-2.44876
-2.33404
-2.19865
-2.04985
-1.89651
-1.74487
-1.60198
-1.46886
-1.3539
-1.26593
-1.23095
-1.87004
-2.1141
-2.31268
-2.45932
-2.55172
-2.59103
-2.58133
-2.52905
-2.44212
-2.32837
-2.19831
-2.05917
-1.91957
-1.78574
-1.66539
-1.56157
-1.48459
-1.44254
-1.44593
-1.96338
-2.19641
-2.38046
-2.51173
-2.58958
-2.61615
-2.59643
-2.53757
-2.44808
-2.33614
-2.2123
-2.08366
-1.95862
-1.84335
-1.74565
-1.66878
-1.62144
-1.6071
-1.62754
-2.07108
-2.29202
-2.46003
-2.57516
-2.63797
-2.65148
-2.6217
-2.55654
-2.4651
-2.35572
-2.23892
-2.12154
-2.0116
-1.91491
-1.83863
-1.785
-1.76024
-1.76427
-1.79542
-2.19828
-2.39909
-2.54934
-2.64761
-2.69469
-2.69461
-2.65459
-2.58338
-2.49058
-2.38458
-2.27572
-2.17036
-2.07593
-1.99752
-1.94122
-1.90781
-1.90139
-1.91989
-1.96046
-2.32526
-2.50794
-2.64172
-2.72292
-2.75358
-2.73952
-2.68935
-2.61274
-2.51961
-2.41823
-2.31858
-2.22629
-2.14802
-2.08785
-2.05073
-2.03595
-2.04626
-2.07845
-2.12937
-2.45471
-2.62752
-2.74494
-2.80738
-2.82001
-2.79089
-2.73023
-2.64848
-2.55573
-2.45987
-2.37031
-2.29177
-2.22999
-2.18794
-2.16945
-2.17257
-2.19918
-2.24548
-2.30824
-2.60211
-2.75891
-2.85512
-2.89512
-2.88728
-2.84187
-2.77068
-2.68458
-2.59352
-2.50473
-2.4268
-2.36337
-2.31914
-2.29596
-2.29675
-2.31844
-2.36254
-2.42481
-2.50199
-2.76451
-2.89637
-2.96611
-2.97975
-2.9491
-2.88677
-2.80577
-2.71698
-2.62976
-2.55025
-2.48614
-2.43973
-2.41475
-2.41198
-2.4337
-2.47579
-2.53977
-2.62102
-2.7163
-2.93097
-3.03553
-3.07369
-3.05673
-3.00137
-2.9224
-2.83332
-2.74438
-2.66385
-2.59637
-2.54874
-2.52173
-2.51827
-2.53813
-2.58326
-2.64851
-2.73585
-2.84026
-2.95864
-3.10955
-3.17876
-3.17615
-3.12369
-3.04251
-2.94835
-2.85396
-2.76824
-2.69784
-2.6456
-2.61753
-2.61275
-2.63358
-2.67892
-2.75076
-2.84281
-2.95801
-3.091
-3.23904
-3.30766
-3.31528
-3.26145
-3.17077
-3.06518
-2.95961
-2.86452
-2.78681
-2.73111
-2.69815
-2.69358
-2.71465
-2.76348
-2.83818
-2.94129
-3.06516
-3.21447
-3.38348
-3.5703
-3.47012
-3.40797
-3.30166
-3.17592
-3.05182
-2.94224
-2.85368
-2.79076
-2.75581
-2.74734
-2.77138
-2.82312
-2.90501
-3.0146
-3.15565
-3.31889
-3.51189
-3.72859
-3.96859
-3.60259
-3.47213
-3.31224
-3.1557
-3.02021
-2.91438
-2.83924
-2.79711
-2.78816
-2.80877
-2.86621
-2.95339
-3.07376
-3.22439
-3.41111
-3.62261
-3.87076
-4.14947
-4.46149
-3.70892
-3.4837
-3.27111
-3.09471
-2.95998
-2.86881
-2.81584
-2.80183
-2.82527
-2.88067
-2.97768
-3.10675
-3.27306
-3.47344
-3.71689
-3.98952
-4.30967
-4.67172
-5.08488
-3.70234
-3.38876
-3.14596
-2.9718
-2.85489
-2.79139
-2.77019
-2.79216
-2.85495
-2.95156
-3.09549
-3.27449
-3.4966
-3.75877
-4.07487
-4.42806
-4.84649
-5.32634
-5.89069
-3.55539
-3.20047
-2.96137
-2.81214
-2.72745
-2.70135
-2.71883
-2.78264
-2.8905
-3.03446
-3.23319
-3.47172
-3.76212
-4.10206
-4.51247
-4.97334
-5.5274
-6.17546
-6.97287
-3.23639
-2.90361
-2.70696
-2.60493
-2.56544
-2.58502
-2.64719
-2.75823
-2.91694
-3.11506
-3.37786
-3.68806
-4.06338
-4.5035
-5.03974
-5.64985
-6.39893
-7.2988
-8.48528
-2.74609
-2.51125
-2.39158
-2.35287
-2.3668
-2.43677
-2.54712
-2.70886
-2.92287
-3.18153
-3.5182
-3.91439
-4.39589
-4.96678
-5.67435
-6.49738
-7.53703
-8.82949
-10.7253
-2.1262
-2.04559
-2.02316
-2.0551
-2.12529
-2.2464
-2.40528
-2.61829
-2.88944
-3.21297
-3.63218
-4.12951
-4.74251
-5.48459
-6.42876
-7.56366
-9.05272
-10.9855
-14.3122
-1.45311
-1.53552
-1.61073
-1.71122
-1.83514
-2.00394
-2.20768
-2.46808
-2.79323
-3.18088
-3.68644
-4.29676
-5.06702
-6.02946
-7.30093
-8.90141
-11.111
-14.1382
-20.6486
-0.811092
-1.01135
-1.16483
-1.3235
-1.49408
-1.70318
-1.94347
-2.24144
-2.60952
-3.05093
-3.63564
-4.35872
-5.30196
-6.53435
-8.24991
-10.5511
-13.955
-18.9495
-33.1247
-0.265702
-0.497474
-0.695718
-0.897296
-1.10485
-1.34435
-1.60839
-1.92761
-2.31678
-2.7869
-3.42448
-4.23314
-5.33658
-6.88574
-9.26058
-12.9339
-19.46
-31.4719
-74.3494
)
;

boundaryField
{
    up
    {
        type            calculated;
        value           nonuniform List<scalar> 
84
(
-67.3732
-36.4885
-22.4096
-15.3296
-11.3675
-8.91927
-7.28124
-6.11819
-5.25676
-4.59479
-4.07338
-3.65362
-3.30657
-3.0139
-2.76199
-2.54019
-2.34054
-2.15697
-1.98427
-1.81634
-1.64597
-1.46
-1.22392
-0.805944
-0.785237
-0.984449
-1.12492
-1.25442
-1.3851
-1.52601
-1.68772
-1.88256
-2.17332
-3.47981
-4.4305
-4.38667
-4.13782
-4.1023
-4.12959
-4.16981
-4.20445
-4.23134
-4.23139
-4.20469
-4.17011
-4.12978
-4.10234
-4.1373
-4.38447
-4.43056
-3.49278
-2.17546
-1.88386
-1.68876
-1.5269
-1.38591
-1.25521
-1.12577
-0.985629
-0.786072
-0.805447
-1.22397
-1.46001
-1.64597
-1.81634
-1.98426
-2.15697
-2.34053
-2.54018
-2.76198
-3.0139
-3.30656
-3.65362
-4.07339
-4.59479
-5.25676
-6.11819
-7.28125
-8.91927
-11.3675
-15.3296
-22.4096
-36.4885
-67.3732
)
;
    }
    low
    {
        type            calculated;
        value           nonuniform List<scalar> 
84
(
-0.284396
-0.844816
-1.52729
-2.25253
-2.92218
-3.44606
-3.77279
-3.90434
-3.86847
-3.7072
-3.54504
-3.35395
-3.11761
-2.91785
-2.73934
-2.5612
-2.40056
-2.26779
-2.13374
-1.98946
-1.86909
-1.76638
-1.67137
-1.58903
-1.51368
-1.47055
-1.47966
-1.54882
-1.66676
-1.83488
-2.04584
-2.27535
-2.54728
-2.87383
-3.24316
-3.67605
-4.17207
-4.63793
-5.03285
-5.35867
-5.59915
-5.756
-5.75603
-5.59918
-5.35872
-5.03292
-4.638
-4.17216
-3.67614
-3.24316
-2.87389
-2.54728
-2.27536
-2.04585
-1.8349
-1.66677
-1.54885
-1.47969
-1.47059
-1.51373
-1.58911
-1.6714
-1.76643
-1.86913
-1.9895
-2.13376
-2.26781
-2.40058
-2.56121
-2.73935
-2.91785
-3.11762
-3.35395
-3.54504
-3.7072
-3.86847
-3.90435
-3.77281
-3.44607
-2.92219
-2.25254
-1.5273
-0.844813
-0.284393
)
;
    }
    left
    {
        type            calculated;
        value           nonuniform List<scalar> 
19
(
-0.260537
-0.487899
-0.689547
-0.896997
-1.11216
-1.3605
-1.63545
-1.96943
-2.37802
-2.87739
-3.55852
-4.42956
-5.63121
-7.34431
-9.99554
-14.1643
-21.6603
-35.6249
-69.8837
)
;
    }
    right
    {
        type            calculated;
        value           nonuniform List<scalar> 
19
(
-0.260535
-0.487897
-0.689545
-0.896996
-1.11216
-1.3605
-1.63545
-1.96943
-2.37802
-2.87739
-3.55852
-4.42956
-5.63121
-7.34431
-9.99554
-14.1643
-21.6603
-35.6249
-69.8837
)
;
    }
    frontAndBackPlanes
    {
        type            empty;
    }
}


// ************************************************************************* //
