/*--------------------------------*- C++ -*----------------------------------*\
  =========                 |
  \\      /  F ield         | OpenFOAM: The Open Source CFD Toolbox
   \\    /   O peration     | Website:  https://openfoam.org
    \\  /    A nd           | Version:  7
     \\/     M anipulation  |
\*---------------------------------------------------------------------------*/
FoamFile
{
    version     2.0;
    format      ascii;
    class       volScalarField;
    location    "0.02";
    object      gradTx;
}
// * * * * * * * * * * * * * * * * * * * * * * * * * * * * * * * * * * * * * //

dimensions      [0 -1 0 1 0 0 0];

internalField   nonuniform List<scalar> 
1596
(
-1.02042
-4.94354
-7.99243
-9.7798
-10.6304
-10.9217
-10.9743
-10.9167
-10.8041
-10.6817
-10.5035
-10.2928
-10.0555
-9.8238
-9.65868
-9.82463
-10.7381
-13.1789
-18.4679
0.530994
-3.20508
-5.96746
-7.59494
-8.38754
-8.67243
-8.73069
-8.68169
-8.59204
-8.49322
-8.36951
-8.24224
-8.09242
-7.9044
-7.629
-7.22871
-6.63895
-5.81891
-4.61596
1.74339
-1.23907
-3.4251
-4.74693
-5.41254
-5.66922
-5.73296
-5.70832
-5.65609
-5.6011
-5.5456
-5.50623
-5.47086
-5.42618
-5.3279
-5.09358
-4.59218
-3.70044
-2.29082
1.96241
0.0659945
-1.41843
-2.37933
-2.89519
-3.11575
-3.18521
-3.18578
-3.16577
-3.14451
-3.13166
-3.13814
-3.16064
-3.19535
-3.22222
-3.17777
-2.94457
-2.36926
-1.29057
1.24034
0.426211
-0.362519
-0.951376
-1.30412
-1.47488
-1.54037
-1.55514
-1.55305
-1.54826
-1.55083
-1.5671
-1.59787
-1.64448
-1.70385
-1.7436
-1.69091
-1.41768
-0.756422
-0.028524
0.0381614
-0.123955
-0.344195
-0.518143
-0.620307
-0.667536
-0.683828
-0.687776
-0.688225
-0.692515
-0.704052
-0.724342
-0.755536
-0.800593
-0.848037
-0.864238
-0.768361
-0.426782
-1.46014
-0.767797
-0.398746
-0.262774
-0.242281
-0.256613
-0.271542
-0.279362
-0.282421
-0.283311
-0.285757
-0.291328
-0.30103
-0.316229
-0.340025
-0.370057
-0.394979
-0.374263
-0.222638
-2.79158
-1.70177
-0.914452
-0.454347
-0.234935
-0.148156
-0.119985
-0.112389
-0.110775
-0.110382
-0.111113
-0.113135
-0.116816
-0.122722
-0.132618
-0.146686
-0.162636
-0.164027
-0.105778
-4.07692
-2.76008
-1.62503
-0.84183
-0.396038
-0.180118
-0.0899617
-0.0566782
-0.0457099
-0.0422989
-0.0415389
-0.0418662
-0.042937
-0.0448002
-0.0481689
-0.0534373
-0.0608008
-0.0649202
-0.0455899
-4.84971
-3.51773
-2.20833
-1.20899
-0.586182
-0.257182
-0.107178
-0.0466886
-0.0248784
-0.0176702
-0.0155098
-0.015012
-0.0151232
-0.0155662
-0.0165071
-0.0181193
-0.0208274
-0.0233181
-0.0178332
-5.50245
-4.16694
-2.73696
-1.56616
-0.789527
-0.354993
-0.145402
-0.0561067
-0.0220877
-0.0102981
-0.00653249
-0.00543045
-0.00516551
-0.00517692
-0.00537293
-0.00576725
-0.00658281
-0.00763107
-0.00634035
-6.21193
-4.86546
-3.30976
-1.96265
-1.02423
-0.475321
-0.198947
-0.0762359
-0.0275265
-0.00996766
-0.0041372
-0.00234011
-0.00181978
-0.00168416
-0.00168181
-0.00174565
-0.00194259
-0.00229065
-0.00205327
-6.53396
-5.27047
-3.68109
-2.23897
-1.19759
-0.569313
-0.243555
-0.0948196
-0.0341168
-0.011619
-0.00394504
-0.00151316
-0.000783633
-0.000573638
-0.000518853
-0.000510394
-0.000543652
-0.000637677
-0.00060917
-6.7598
-5.56041
-3.94963
-2.43954
-1.32415
-0.638841
-0.277295
-0.109447
-0.0397679
-0.0134814
-0.0043551
-0.00140801
-0.00050777
-0.000244284
-0.000169626
-0.000147857
-0.000146562
-0.000166513
-0.000166609
-6.96639
-5.80144
-4.15669
-2.58474
-1.41128
-0.685043
-0.299257
-0.118929
-0.0435021
-0.014803
-0.00474926
-0.00146834
-0.000455402
-0.000156397
-7.09614e-05
-4.62837e-05
-3.94476e-05
-4.15367e-05
-4.23359e-05
-7.05375
-5.93422
-4.26461
-2.65068
-1.4447
-0.700043
-0.305419
-0.121326
-0.0443945
-0.0151125
-0.00484313
-0.00148236
-0.000440915
-0.000132321
-4.39609e-05
-1.89109e-05
-1.17181e-05
-1.03251e-05
-1.01454e-05
-6.99225
-5.92415
-4.24683
-2.62039
-1.41517
-0.679483
-0.293955
-0.115925
-0.0421642
-0.0142812
-0.00455765
-0.00138744
-0.000407469
-0.000117466
-3.45216e-05
-1.11899e-05
-4.62345e-06
-2.8528e-06
-2.37583e-06
-6.8713
-5.82106
-4.13377
-2.5134
-1.33497
-0.630469
-0.268565
-0.104449
-0.0375276
-0.0125746
-0.00397626
-0.00120036
-0.000349321
-9.9152e-05
-2.7999e-05
-8.1114e-06
-2.59063e-06
-1.055e-06
-5.98657e-07
-6.82892
-5.77514
-4.04046
-2.40391
-1.24624
-0.574443
-0.239111
-0.0910311
-0.0320776
-0.0105605
-0.00328689
-0.000978036
-0.000280798
-7.85762e-05
-2.17489e-05
-6.04068e-06
-1.73678e-06
-5.49521e-07
-1.94532e-07
-6.50159
-5.5271
-3.81141
-2.21278
-1.11479
-0.498977
-0.201876
-0.0748375
-0.0257339
-0.00828447
-0.00252683
-0.000738134
-0.000208377
-5.73935e-05
-1.563e-05
-4.2482e-06
-1.17271e-06
-3.35585e-07
-8.85236e-08
-6.03827
-5.15668
-3.49668
-1.97316
-0.961332
-0.415615
-0.162556
-0.0583712
-0.0194895
-0.00610727
-0.00181777
-0.000519312
-0.000143659
-3.88378e-05
-1.03937e-05
-2.77459e-06
-7.48786e-07
-2.05832e-07
-4.83726e-08
-5.45397
-4.67293
-3.1105
-1.70174
-0.799117
-0.332383
-0.125137
-0.0433335
-0.0139883
-0.00424939
-0.00122958
-0.000342371
-9.25272e-05
-2.44882e-05
-6.42715e-06
-1.68432e-06
-4.46136e-07
-1.19914e-07
-2.70589e-08
-4.65392
-4.00447
-2.62226
-1.39392
-0.631856
-0.252998
-0.0916643
-0.0305847
-0.00953326
-0.00280368
-0.000787684
-0.000213558
-5.63532e-05
-1.46005e-05
-3.76062e-06
-9.69158e-07
-2.52949e-07
-6.71999e-08
-1.51734e-08
-3.55341
-2.96991
-1.86919
-0.950011
-0.411151
-0.157249
-0.0544862
-0.0174049
-0.00519731
-0.00146442
-0.000394062
-0.00010225
-2.57988e-05
-6.38625e-06
-1.57116e-06
-3.87266e-07
-9.74212e-08
-2.58307e-08
-6.6628e-09
-2.39583
-2.14726
-1.44328
-0.775839
-0.351899
-0.140116
-0.0504257
-0.0167482
-0.00522292
-0.00154802
-0.000441204
-0.000122316
-3.32222e-05
-8.91151e-06
-2.38173e-06
-6.40573e-07
-1.75742e-07
-5.23234e-08
-2.04282e-08
-0.772551
-0.69122
-0.505864
-0.304303
-0.154778
-0.0686689
-0.0273005
-0.00992658
-0.00336168
-0.00107471
-0.000328488
-9.72803e-05
-2.81384e-05
-8.01828e-06
-2.26898e-06
-6.4242e-07
-1.84993e-07
-5.96026e-08
-2.76095e-08
0.91632
0.787494
0.452699
0.186676
0.054506
0.00830873
-0.00224585
-0.0025865
-0.00140284
-0.000596518
-0.000221724
-7.59579e-05
-2.46068e-05
-7.68629e-06
-2.34435e-06
-7.00165e-07
-2.07473e-07
-7.09271e-08
-4.02677e-08
2.52074
2.20301
1.4194
0.718652
0.299559
0.105593
0.0317621
0.00803605
0.00159262
0.000168164
-4.51675e-05
-3.99822e-05
-1.86462e-05
-7.18002e-06
-2.50903e-06
-8.07347e-07
-2.33256e-07
-7.33083e-08
-5.68882e-08
3.80602
3.33028
2.24232
1.21851
0.556029
0.218926
0.0756849
0.0231724
0.00627907
0.00147558
0.000283117
3.22321e-05
-5.99027e-06
-6.26376e-06
-3.12958e-06
-1.24512e-06
-3.83472e-07
-8.41766e-08
-7.8719e-08
4.92318
4.27425
2.96551
1.69968
0.830303
0.353939
0.133954
0.045533
0.0140029
0.00389216
0.000971144
0.000208118
3.23613e-05
-7.50595e-07
-3.9318e-06
-2.51455e-06
-1.06988e-06
-2.49477e-07
-1.07732e-07
5.54547
4.80085
3.42935
2.06616
1.07555
0.493467
0.20282
0.0756102
0.0258357
0.00813799
0.00237934
0.000641355
0.000155054
2.95754e-05
1.10937e-06
-3.56898e-06
-2.6661e-06
-9.61805e-07
-9.8521e-08
5.98915
5.1924
3.80765
2.39919
1.32353
0.650152
0.288756
0.117461
0.044317
0.015665
0.00526321
0.0016968
0.000529486
0.000159095
4.44859e-05
8.98037e-06
-3.90371e-07
-9.99604e-07
3.84131e-07
6.28845
5.44294
4.08007
2.67633
1.55837
0.817092
0.391325
0.17346
0.0721863
0.0285819
0.0109783
0.00416575
0.00159524
0.000627914
0.00025881
0.000109031
4.69086e-05
2.18792e-05
1.58993e-05
6.31436
5.42227
4.11401
2.77413
1.67911
0.922086
0.464602
0.217009
0.0950251
0.0393956
0.0156926
0.0060913
0.00234583
0.000912902
0.00036767
0.00014773
5.39866e-05
1.01431e-05
-3.61968e-06
6.18021
5.3122
4.11425
2.88262
1.84064
1.08038
0.58856
0.30029
0.144936
0.0667673
0.0296924
0.0128929
0.00552494
0.00236216
0.00102087
0.000440258
0.000177219
3.93331e-05
-4.9629e-05
5.99801
5.14988
4.03993
2.90172
1.91942
1.17822
0.67706
0.367327
0.189938
0.0944082
0.0455671
0.021593
0.0101372
0.00476176
0.00226306
0.00109032
0.000524752
0.000231081
5.14431e-05
5.40605
4.53509
3.50395
2.49488
1.6451
1.01173
0.585154
0.320891
0.168409
0.0852974
0.0421132
0.0204948
0.00991777
0.00481752
0.00237194
0.00118225
0.000582357
0.000254774
4.68303e-05
4.56636
3.82082
2.95745
2.11939
1.41284
0.882026
0.519759
0.291356
0.156761
0.0816103
0.0415139
0.0208603
0.010443
0.0052559
0.00268359
0.00138644
0.000705906
0.000317709
6.04416e-05
3.68147
3.08194
2.39052
1.7213
1.15632
0.729562
0.435669
0.248115
0.135949
0.072234
0.0375811
0.0193524
0.00994627
0.00514682
0.00270411
0.00143655
0.000749642
0.000343271
6.41376e-05
2.71172
2.2657
1.75843
1.27028
0.858308
0.546004
0.32948
0.190004
0.105624
0.0570401
0.0302138
0.0158657
0.00832724
0.00440552
0.002368
0.00128656
0.000685651
0.000320583
6.38802e-05
1.68324
1.39504
1.07913
0.779487
0.5279
0.337249
0.204719
0.118936
0.0667006
0.036384
0.01949
0.0103617
0.00551156
0.00295737
0.00161266
0.000888084
0.000478178
0.000223882
4.13249e-05
0.639502
0.52283
0.401264
0.288292
0.194441
0.123796
0.0749276
0.0434167
0.0242895
0.0132192
0.00706524
0.00374781
0.00198904
0.00106477
0.000579
0.000317426
0.000169053
7.61256e-05
8.19781e-06
-0.639187
-0.522138
-0.400413
-0.287463
-0.193742
-0.123266
-0.0745568
-0.0431733
-0.0241374
-0.0131277
-0.00701148
-0.00371667
-0.00197107
-0.00105436
-0.000572891
-0.000313821
-0.000166975
-7.50747e-05
-7.95208e-06
-1.68294
-1.39443
-1.0784
-0.778792
-0.527328
-0.336826
-0.20443
-0.11875
-0.0665869
-0.036317
-0.0194514
-0.0103398
-0.0054991
-0.00295026
-0.00160855
-0.000885713
-0.000476858
-0.000223275
-4.12857e-05
-2.7114
-2.26511
-1.75776
-1.26966
-0.857824
-0.54566
-0.329254
-0.189864
-0.105541
-0.0569934
-0.0301878
-0.0158514
-0.00831942
-0.00440121
-0.00236558
-0.00128519
-0.000684869
-0.000320158
-6.36907e-05
-3.68121
-3.08151
-2.39009
-1.72097
-1.15611
-0.729448
-0.435617
-0.248097
-0.135945
-0.0722361
-0.0375843
-0.0193551
-0.0099483
-0.00514819
-0.002705
-0.00143712
-0.000750001
-0.00034348
-6.42175e-05
-4.56614
-3.82051
-2.95722
-2.11931
-1.41287
-0.882116
-0.519859
-0.291441
-0.156824
-0.081652
-0.0415399
-0.0208757
-0.0104519
-0.00526098
-0.00268648
-0.00138808
-0.000706822
-0.000318162
-6.05439e-05
-5.40592
-4.53496
-3.50397
-2.49508
-1.64541
-1.01205
-0.585426
-0.321091
-0.168543
-0.0853801
-0.0421614
-0.0205217
-0.00993238
-0.0048253
-0.00237607
-0.00118445
-0.000583503
-0.000255297
-4.69236e-05
-5.99781
-5.14932
-4.03929
-2.9012
-1.91907
-1.17803
-0.676979
-0.367304
-0.18994
-0.0944169
-0.0455752
-0.0215987
-0.0101408
-0.00476382
-0.0022642
-0.00109092
-0.000525012
-0.000231122
-5.13455e-05
-6.181
-5.31462
-4.11804
-2.88698
-1.8447
-1.08363
-0.590854
-0.301754
-0.145796
-0.0672397
-0.0299384
-0.0130164
-0.00558542
-0.00239152
-0.00103523
-0.000447496
-0.000181055
-4.14635e-05
4.87424e-05
-6.31386
-5.42159
-4.1137
-2.77426
-1.67947
-0.922445
-0.464855
-0.217145
-0.0950813
-0.0394103
-0.015691
-0.00608564
-0.00234074
-0.000909394
-0.00036554
-0.000146509
-5.323e-05
-9.57281e-06
3.79974e-06
-6.2887
-5.44401
-4.08197
-2.67855
-1.56035
-0.818546
-0.392245
-0.173977
-0.0724521
-0.0287101
-0.011038
-0.00419326
-0.00160808
-0.000634098
-0.000261949
-0.000110708
-4.78315e-05
-2.24192e-05
-1.67543e-05
-5.98929
-5.19325
-3.80926
-2.40106
-1.32513
-0.651254
-0.289401
-0.117792
-0.0444712
-0.0157317
-0.00529062
-0.00170771
-0.000533703
-0.000160647
-4.4988e-05
-9.07254e-06
4.18157e-07
1.023e-06
-3.68305e-07
-5.54564
-4.80173
-3.43095
-2.0679
-1.07694
-0.494352
-0.203295
-0.0758335
-0.0259299
-0.00817441
-0.00239245
-0.000645714
-0.000156315
-2.98021e-05
-1.01983e-06
3.73652e-06
2.80551e-06
1.00653e-06
1.72664e-07
-4.92337
-4.27517
-2.96706
-1.70125
-0.831458
-0.354616
-0.134287
-0.0456751
-0.014057
-0.00391078
-0.00097693
-0.000209662
-3.26353e-05
8.02019e-07
4.03831e-06
2.61138e-06
1.1355e-06
2.6186e-07
1.33921e-07
-3.80623
-3.33117
-2.24369
-1.21978
-0.556886
-0.219385
-0.075891
-0.0232526
-0.00630667
-0.00148402
-0.000285359
-3.26866e-05
5.9713e-06
6.31499e-06
3.17243e-06
1.27231e-06
3.96701e-07
8.05298e-08
8.49866e-08
-2.52103
-2.20391
-1.42058
-0.719622
-0.300145
-0.105877
-0.0318771
-0.00807643
-0.00160504
-0.000171456
4.44686e-05
3.99066e-05
1.86744e-05
7.20347e-06
2.518e-06
8.08251e-07
2.30657e-07
6.82125e-08
5.81685e-08
-0.916633
-0.788307
-0.453581
-0.187297
-0.0548338
-0.00844827
0.00219595
0.00257125
0.00139893
0.000595764
0.000221678
7.60082e-05
2.46386e-05
7.69631e-06
2.34375e-06
6.96392e-07
2.03739e-07
6.80313e-08
4.05902e-08
0.771826
0.689748
0.504583
0.303556
0.154443
0.0685446
0.0272612
0.00991582
0.00335918
0.00107427
0.000328457
9.72967e-05
2.81454e-05
8.01685e-06
2.2649e-06
6.38645e-07
1.82415e-07
5.81678e-08
2.75741e-08
2.39596
2.14794
1.44414
0.776485
0.352259
0.14028
0.050491
0.016772
0.00523105
0.0015507
0.000442051
0.000122574
3.32957e-05
8.9299e-06
2.38487e-06
6.40238e-07
1.75063e-07
5.19303e-08
2.03986e-08
3.55279
2.9685
1.86785
0.949136
0.410704
0.157057
0.0544139
0.0173803
0.00518956
0.00146209
0.000393382
0.00010205
2.57375e-05
6.36636e-06
1.56425e-06
3.84742e-07
9.64976e-08
2.55241e-08
6.59976e-09
4.6541
4.0048
2.62258
1.39412
0.631953
0.253039
0.0916799
0.0305903
0.00953511
0.00280424
0.000787836
0.000213594
5.63594e-05
1.46009e-05
3.7602e-06
9.68878e-07
2.52824e-07
6.7157e-08
1.51597e-08
5.45394
4.6729
3.11048
1.70173
0.799108
0.332378
0.125135
0.0433333
0.0139884
0.00424953
0.00122966
0.000342402
9.25387e-05
2.44921e-05
6.42843e-06
1.68472e-06
4.46252e-07
1.19945e-07
2.70608e-08
6.03824
5.15666
3.49667
1.97315
0.961327
0.415611
0.162554
0.0583707
0.0194896
0.00610747
0.0018179
0.000519379
0.000143688
3.88494e-05
1.0398e-05
2.77606e-06
7.49237e-07
2.05957e-07
4.83862e-08
6.50156
5.52708
3.8114
2.21278
1.11479
0.498974
0.201874
0.0748366
0.0257339
0.00828471
0.00252703
0.000738247
0.00020843
5.74157e-05
1.56385e-05
4.25111e-06
1.17345e-06
3.35731e-07
8.85079e-08
6.82891
5.77514
4.04046
2.40392
1.24624
0.574441
0.239109
0.0910302
0.0320777
0.0105608
0.00328716
0.000978197
0.000280876
7.86097e-05
2.17617e-05
6.04444e-06
1.73678e-06
5.49184e-07
1.94372e-07
6.87129
5.82106
4.13378
2.51341
1.33497
0.630468
0.268563
0.104448
0.0375277
0.012575
0.00397659
0.00120056
0.000349416
9.91927e-05
2.80132e-05
8.11182e-06
2.58499e-06
1.05254e-06
5.98509e-07
6.99224
5.92415
4.24683
2.6204
1.41518
0.679484
0.293954
0.115925
0.0421644
0.0142815
0.00455793
0.00138761
0.000407553
0.000117501
3.45259e-05
1.11702e-05
4.59443e-06
2.8453e-06
2.37897e-06
7.05375
5.93423
4.26462
2.65069
1.44471
0.700047
0.305421
0.121326
0.0443947
0.0151126
0.00484325
0.00148243
0.000440952
0.000132327
4.39216e-05
1.88139e-05
1.1612e-05
1.03171e-05
1.01718e-05
6.96639
5.80144
4.15669
2.58475
1.41129
0.685049
0.29926
0.11893
0.0435023
0.014803
0.00474918
0.00146829
0.000455371
0.000156334
7.07763e-05
4.59393e-05
3.91344e-05
4.1592e-05
4.24681e-05
6.75981
5.56042
3.94964
2.43955
1.32416
0.63885
0.277301
0.109449
0.0397683
0.0134812
0.00435483
0.00140784
0.000507649
0.000244035
0.000169001
0.000146847
0.000145826
0.00016694
0.0001671
6.53398
5.27049
3.6811
2.23898
1.1976
0.569325
0.243562
0.0948224
0.0341172
0.0116186
0.00394458
0.00151288
0.000783335
0.00057286
0.000517109
0.000507968
0.000542421
0.000639465
0.000610586
6.21193
4.86546
3.30977
1.96265
1.02424
0.475329
0.198953
0.0762379
0.0275265
0.00996713
0.00413674
0.00233975
0.00181902
0.00168209
0.00167784
0.00174116
0.00194176
0.002296
0.0020564
5.50249
4.16699
2.737
1.56618
0.789543
0.355004
0.145408
0.0561087
0.022088
0.0102978
0.00653215
0.00542977
0.00516353
0.00517242
0.00536604
0.00576186
0.00658571
0.00764284
0.00634522
4.84977
3.51779
2.20838
1.20902
0.586195
0.257188
0.10718
0.0466889
0.024878
0.0176697
0.015509
0.0150102
0.015119
0.015559
0.0164996
0.0181189
0.0208398
0.0233358
0.0178368
4.07697
2.76012
1.62506
0.841848
0.396045
0.180119
0.0899603
0.0566767
0.0457087
0.0422977
0.041537
0.0418624
0.0429308
0.0447937
0.0481694
0.0534525
0.0608254
0.0649319
0.0455849
2.79162
1.7018
0.914474
0.454354
0.234932
0.14815
0.11998
0.112386
0.110773
0.110379
0.111109
0.11313
0.116812
0.122725
0.132639
0.146722
0.16266
0.164006
0.105757
1.46018
0.767825
0.39876
0.262773
0.242273
0.256605
0.271536
0.279357
0.282417
0.283306
0.285753
0.291325
0.301036
0.316253
0.340069
0.370097
0.394967
0.374187
0.222607
0.0285541
-0.0381469
0.123955
0.344186
0.518131
0.620297
0.667528
0.68382
0.687769
0.688218
0.692511
0.704056
0.724362
0.755576
0.800634
0.848033
0.864157
0.768255
0.426769
-1.24032
-0.426211
0.362506
0.951358
1.3041
1.47486
1.54036
1.55513
1.55304
1.54825
1.55083
1.56711
1.5979
1.64451
1.70384
1.74352
1.69079
1.41764
0.756457
-1.9624
-0.0660066
1.4184
2.3793
2.89517
3.11573
3.18519
3.18576
3.16575
3.14449
3.13166
3.13814
3.16064
3.19532
3.22213
3.17765
2.94453
2.36938
1.29064
-1.7434
1.23905
3.42507
4.74691
5.41252
5.6692
5.73294
5.7083
5.65607
5.60109
5.54559
5.50621
5.47082
5.4261
5.3278
5.09355
4.5923
3.70064
2.29084
-0.531005
3.20507
5.96745
7.59493
8.38753
8.67242
8.73068
8.68168
8.59203
8.49322
8.3695
8.24222
8.09238
7.90436
7.629
7.22879
6.63907
5.81893
4.61591
1.02042
4.94354
7.99242
9.77979
10.6304
10.9217
10.9743
10.9167
10.8041
10.6817
10.5035
10.2928
10.0555
9.82384
9.65875
9.82467
10.7381
13.1788
18.4679
)
;

boundaryField
{
    up
    {
        type            calculated;
        value           nonuniform List<scalar> 
84
(
-18.4679
-4.61596
-2.29082
-1.29057
-0.756422
-0.426782
-0.222638
-0.105778
-0.0455899
-0.0178332
-0.00634035
-0.00205327
-0.00060917
-0.000166609
-4.23359e-05
-1.01454e-05
-2.37583e-06
-5.98657e-07
-1.94532e-07
-8.85236e-08
-4.83726e-08
-2.70589e-08
-1.51734e-08
-6.6628e-09
-1.21418e-08
-1.75715e-08
-2.82411e-08
-5.01918e-08
-1.18264e-07
-3.48217e-07
-8.67313e-07
-1.57112e-07
2.03976e-05
1.40311e-05
-3.56871e-05
5.36515e-05
4.99653e-05
6.35365e-05
6.70339e-05
6.59299e-05
4.27621e-05
8.93032e-06
-8.67949e-06
-4.27127e-05
-6.57408e-05
-6.7108e-05
-6.36372e-05
-5.0057e-05
-5.35542e-05
3.50776e-05
-1.42587e-05
-2.18529e-05
9.50616e-08
1.06375e-06
4.60994e-07
1.61021e-07
6.35661e-08
3.19894e-08
1.83613e-08
1.21984e-08
6.59976e-09
1.51597e-08
2.70608e-08
4.83862e-08
8.85079e-08
1.94372e-07
5.98509e-07
2.37897e-06
1.01718e-05
4.24681e-05
0.0001671
0.000610586
0.0020564
0.00634522
0.0178368
0.0455849
0.105757
0.222607
0.426769
0.756457
1.29064
2.29084
4.61591
18.4679
)
;
    }
    low
    {
        type            calculated;
        value           nonuniform List<scalar> 
84
(
-0.870812
0.797138
2.08917
2.2632
1.39548
-0.0529118
-1.63942
-3.07657
-4.41721
-5.17309
-5.83482
-6.55375
-6.83509
-7.04745
-7.25902
-7.33392
-7.26089
-7.1588
-7.12655
-6.76625
-6.28287
-5.68438
-4.85258
-3.70926
-2.47304
-0.790006
0.930107
2.56001
3.87899
5.04978
5.71708
6.17593
6.49162
6.53283
6.40175
6.23441
5.65367
4.78467
3.85769
2.84245
1.76581
0.672492
-0.672175
-1.7655
-2.8421
-3.85737
-4.78438
-5.65345
-6.23409
-6.4023
-6.53217
-6.49161
-6.17583
-5.71702
-5.04976
-3.87902
-2.56018
-0.930382
0.789257
2.47313
3.7087
4.85273
5.68435
6.28285
6.76622
7.12655
7.1588
7.26088
7.33392
7.25902
7.04746
6.83511
6.55374
5.83486
5.17315
4.41726
3.07662
1.63947
0.0529457
-1.39545
-2.26319
-2.08918
-0.797149
0.87081
)
;
    }
    left
    {
        type            calculated;
        value           nonuniform List<scalar> 
19
(
-1.03485
-5.11138
-8.39658
-10.3496
-11.2928
-11.6266
-11.6992
-11.6547
-11.5444
-11.4285
-11.2477
-11.0201
-10.7661
-10.537
-10.4133
-10.7581
-12.1358
-15.5876
-15.9424
)
;
    }
    right
    {
        type            calculated;
        value           nonuniform List<scalar> 
19
(
1.03485
5.11138
8.39658
10.3496
11.2928
11.6266
11.6992
11.6547
11.5444
11.4285
11.2476
11.0201
10.7661
10.537
10.4134
10.7582
12.1356
15.5874
15.9424
)
;
    }
    frontAndBackPlanes
    {
        type            empty;
    }
}


// ************************************************************************* //
