/*--------------------------------*- C++ -*----------------------------------*\
  =========                 |
  \\      /  F ield         | OpenFOAM: The Open Source CFD Toolbox
   \\    /   O peration     | Website:  https://openfoam.org
    \\  /    A nd           | Version:  7
     \\/     M anipulation  |
\*---------------------------------------------------------------------------*/
FoamFile
{
    version     2.0;
    format      ascii;
    class       volScalarField;
    location    "0.372";
    object      gradTy;
}
// * * * * * * * * * * * * * * * * * * * * * * * * * * * * * * * * * * * * * //

dimensions      [0 -1 0 1 0 0 0];

internalField   nonuniform List<scalar> 
1596
(
-0.35989
-0.672167
-0.935966
-1.20008
-1.46719
-1.7712
-2.10138
-2.49742
-2.97764
-3.55569
-4.34201
-5.34022
-6.70684
-8.63142
-11.5902
-16.1744
-24.3274
-39.3403
-92.9369
-1.09815
-1.36476
-1.56247
-1.76141
-1.97055
-2.22546
-2.51613
-2.87742
-3.32518
-3.86335
-4.58188
-5.47365
-6.64234
-8.1744
-10.3132
-13.1861
-17.44
-23.6837
-41.4044
-1.96805
-2.07202
-2.15863
-2.27265
-2.41217
-2.60641
-2.84235
-3.14908
-3.5372
-4.00389
-4.62101
-5.37103
-6.32424
-7.52081
-9.10744
-11.1077
-13.8723
-17.6603
-25.8032
-2.88218
-2.76216
-2.71192
-2.72799
-2.78961
-2.91467
-3.08615
-3.32645
-3.64119
-4.02316
-4.52917
-5.13612
-5.89221
-6.81389
-7.99304
-9.41363
-11.2805
-13.7038
-17.8706
-3.72764
-3.39519
-3.2092
-3.12541
-3.10678
-3.1591
-3.26213
-3.43148
-3.66893
-3.96495
-4.36401
-4.84178
-5.4318
-6.13882
-7.02257
-8.05445
-9.36158
-10.9872
-13.3685
-4.40132
-3.93246
-3.63878
-3.46593
-3.3718
-3.35317
-3.38876
-3.48818
-3.65064
-3.86586
-4.16823
-4.53496
-4.98959
-5.53132
-6.20004
-6.96573
-7.91057
-9.04716
-10.5443
-4.84599
-4.34372
-3.98977
-3.75048
-3.59271
-3.51007
-3.48327
-3.51746
-3.61058
-3.75278
-3.97026
-4.24323
-4.58817
-5.00188
-5.51136
-6.08933
-6.79016
-7.61261
-8.62484
-5.05919
-4.61037
-4.24946
-3.97465
-3.77148
-3.63652
-3.55576
-3.53198
-3.56322
-3.64092
-3.78484
-3.97876
-4.23418
-4.54707
-4.93578
-5.37698
-5.90697
-6.51872
-7.24
-5.0823
-4.75199
-4.4309
-4.15189
-3.92328
-3.74944
-3.62414
-3.5502
-3.52694
-3.54782
-3.62785
-3.75439
-3.93544
-4.16694
-4.46125
-4.79886
-5.20386
-5.66706
-6.19885
-4.95103
-4.74927
-4.4995
-4.24709
-4.01687
-3.82236
-3.666
-3.55284
-3.48456
-3.45721
-3.48283
-3.55214
-3.67101
-3.83583
-4.05512
-4.31274
-4.6248
-4.98163
-5.38559
-4.783
-4.67443
-4.49768
-4.28707
-4.07205
-3.87191
-3.69656
-3.55422
-3.44959
-3.38169
-3.36101
-3.38138
-3.44753
-3.55656
-3.7145
-3.908
-4.14778
-4.42442
-4.73636
-4.57244
-4.55995
-4.4552
-4.29249
-4.1025
-3.90735
-3.72242
-3.55909
-3.42523
-3.32297
-3.26234
-3.24008
-3.26048
-3.32158
-3.42787
-3.56831
-3.75
-3.96409
-4.20723
-4.31106
-4.38431
-4.35047
-4.24045
-4.08393
-3.90419
-3.71985
-3.54504
-3.39048
-3.26123
-3.16777
-3.10951
-3.09101
-3.11142
-3.17456
-3.27142
-3.40683
-3.57269
-3.7647
-4.07475
-4.19796
-4.22094
-4.16
-4.03893
-3.8798
-3.70238
-3.52271
-3.3538
-3.20328
-3.08262
-2.99357
-2.94145
-2.9266
-2.95279
-3.01268
-3.10982
-3.23682
-3.38904
-3.8534
-4.01578
-4.08312
-4.06457
-3.97741
-3.84079
-3.67402
-3.49409
-3.31563
-3.14841
-3.00504
-2.88943
-2.80787
-2.76203
-2.756
-2.78398
-2.84886
-2.94398
-3.06469
-3.63592
-3.8345
-3.93934
-3.95747
-3.90158
-3.78777
-3.63393
-3.45717
-3.27312
-3.09315
-2.93103
-2.79256
-2.68519
-2.61196
-2.57758
-2.57776
-2.6152
-2.68397
-2.77953
-3.43763
-3.66013
-3.7953
-3.8447
-3.81679
-3.72479
-3.58473
-3.41333
-3.22659
-3.03704
-2.85947
-2.70129
-2.57112
-2.47336
-2.41365
-2.38915
-2.40281
-2.44943
-2.52465
-3.26277
-3.50067
-3.65945
-3.73498
-3.73153
-3.65944
-3.53285
-3.36766
-3.17995
-2.98299
-2.79234
-2.61677
-2.46599
-2.34569
-2.26257
-2.21532
-2.20756
-2.23496
-2.29337
-3.08982
-3.3548
-3.5374
-3.63665
-3.65526
-3.60131
-3.48736
-3.32841
-3.14038
-2.93709
-2.73466
-2.54302
-2.37276
-2.23077
-2.1248
-2.05517
-2.02667
-2.03623
-2.08014
-2.91512
-3.21004
-3.41837
-3.54108
-3.58071
-3.54416
-3.44273
-3.29061
-3.10344
-2.89537
-2.68292
-2.47692
-2.28869
-2.12598
-1.99748
-1.90507
-1.85533
-1.84727
-1.87838
-2.76632
-3.07977
-3.31128
-3.45632
-3.51583
-3.49567
-3.40615
-3.2608
-3.07498
-2.86301
-2.64171
-2.42256
-2.21743
-2.03455
-1.88311
-1.76602
-1.69194
-1.66335
-1.68115
-2.63635
-2.96657
-3.21893
-3.38499
-3.46343
-3.45891
-3.38088
-3.24232
-3.05827
-2.84315
-2.61397
-2.38276
-2.16176
-1.95941
-1.78468
-1.64021
-1.53584
-1.47841
-1.47732
-2.51931
-2.86908
-3.14202
-3.32824
-3.42482
-3.43535
-3.36853
-3.23693
-3.05525
-2.83784
-2.60181
-2.35962
-2.12396
-1.9034
-1.70621
-1.53288
-1.39089
-1.28741
-1.2469
-2.41817
-2.78843
-3.0808
-3.28425
-3.39523
-3.41642
-3.35668
-3.22799
-3.04503
-2.8224
-2.57613
-2.32037
-2.06812
-1.82876
-1.60963
-1.40943
-1.22754
-1.05788
-0.899031
-2.33919
-2.72891
-3.04343
-3.27032
-3.40633
-3.45297
-3.419
-3.31469
-3.15339
-2.94911
-2.71463
-2.46511
-2.21267
-1.969
-1.7419
-1.53286
-1.33613
-1.13855
-0.914422
-2.28782
-2.68919
-3.01451
-3.25379
-3.40425
-3.46717
-3.45091
-3.36468
-3.22036
-3.03067
-2.80527
-2.55863
-2.30225
-2.04947
-1.81074
-1.59402
-1.39797
-1.2185
-1.04304
-2.29389
-2.69948
-3.02988
-3.27646
-3.4368
-3.51305
-3.51306
-3.44588
-3.32207
-3.15238
-2.94429
-2.70899
-2.45624
-2.19938
-1.95163
-1.72514
-1.52359
-1.34655
-1.18488
-2.36437
-2.76611
-3.09323
-3.33864
-3.50072
-3.58295
-3.59325
-3.5409
-3.43563
-3.28652
-3.09873
-2.87955
-2.63529
-2.37734
-2.12033
-1.88057
-1.66754
-1.48483
-1.32542
-2.49449
-2.88839
-3.20482
-3.44122
-3.59769
-3.67928
-3.69445
-3.65292
-3.56406
-3.43581
-3.27128
-3.07379
-2.84476
-2.59103
-2.32599
-2.06941
-1.83781
-1.64113
-1.47517
-2.68298
-3.05875
-3.3563
-3.57654
-3.72107
-3.79651
-3.81208
-3.77808
-3.70382
-3.59682
-3.45883
-3.29007
-3.0864
-2.84745
-2.58078
-2.30649
-2.04833
-1.827
-1.64464
-2.92966
-3.27606
-3.54868
-3.7473
-3.87495
-3.93981
-3.95208
-3.9225
-3.8606
-3.77421
-3.66477
-3.53141
-3.36547
-3.15814
-2.90539
-2.6202
-2.32822
-2.06542
-1.84992
-3.20585
-3.52724
-3.77225
-3.94501
-4.05171
-4.10241
-4.10825
-4.08021
-4.02801
-3.9603
-3.87935
-3.78596
-3.67059
-3.51869
-3.31156
-3.04467
-2.72787
-2.40348
-2.12128
-3.52863
-3.81813
-4.02878
-4.16992
-4.25103
-4.28376
-4.27976
-4.24976
-4.20325
-4.1496
-4.09233
-4.03633
-3.97628
-3.90027
-3.78184
-3.5987
-3.32187
-2.95901
-2.53003
-3.91229
-4.15808
-4.32682
-4.43178
-4.48512
-4.49945
-4.48611
-4.45504
-4.41498
-4.37517
-4.3406
-4.31974
-4.31515
-4.32738
-4.34192
-4.34422
-4.28963
-4.14832
-3.88874
-4.34932
-4.53995
-4.65309
-4.709
-4.72202
-4.70506
-4.66767
-4.61845
-4.56425
-4.51158
-4.46538
-4.43167
-4.41558
-4.42375
-4.45963
-4.53243
-4.63536
-4.75892
-4.88324
-4.8522
-4.96273
-5.00622
-5.00544
-4.97401
-4.92361
-4.86138
-4.79456
-4.72835
-4.66675
-4.6149
-4.57527
-4.55172
-4.5472
-4.56584
-4.61147
-4.69158
-4.81304
-4.98672
-5.41469
-5.42056
-5.38727
-5.32983
-5.25715
-5.17748
-5.09538
-5.01611
-4.94321
-4.87909
-4.82771
-4.78948
-4.76616
-4.75742
-4.76321
-4.77912
-4.8039
-4.83147
-4.85835
-5.94847
-5.84762
-5.73742
-5.62314
-5.50847
-5.39763
-5.29275
-5.19668
-5.11124
-5.03739
-4.97717
-4.93001
-4.89603
-4.87385
-4.86241
-4.85812
-4.85989
-4.8644
-4.87006
-6.40074
-6.2155
-6.04083
-5.87769
-5.72645
-5.58819
-5.463
-5.35164
-5.25449
-5.17142
-5.10308
-5.04851
-5.00705
-4.9772
-4.95771
-4.94587
-4.9405
-4.93916
-4.94028
-6.77008
-6.51451
-6.2865
-6.0831
-5.90183
-5.74105
-5.5991
-5.47505
-5.36816
-5.27747
-5.20273
-5.14279
-5.09655
-5.06248
-5.03922
-5.0245
-5.01691
-5.01433
-5.01513
-7.04058
-6.73086
-6.46195
-6.22841
-6.02513
-5.84811
-5.69421
-5.56119
-5.4475
-5.35167
-5.27279
-5.20969
-5.16094
-5.125
-5.10032
-5.08484
-5.07674
-5.07393
-5.07455
-7.20925
-6.85238
-6.55548
-6.30393
-6.08844
-5.90279
-5.7427
-5.60511
-5.48802
-5.38967
-5.30887
-5.2444
-5.19475
-5.1584
-5.13378
-5.11902
-5.11219
-5.11132
-5.11442
-7.20929
-6.85246
-6.55557
-6.30402
-6.08854
-5.90288
-5.74279
-5.6052
-5.48812
-5.38977
-5.30896
-5.24449
-5.19484
-5.15849
-5.13387
-5.11911
-5.11229
-5.11142
-5.11451
-7.04064
-6.73102
-6.46215
-6.22864
-6.02537
-5.84836
-5.69446
-5.56144
-5.44776
-5.35192
-5.27305
-5.20994
-5.16119
-5.12526
-5.10059
-5.08513
-5.07704
-5.07427
-5.07492
-6.77019
-6.51475
-6.28682
-6.08346
-5.90222
-5.74145
-5.59951
-5.47546
-5.36856
-5.27788
-5.20314
-5.1432
-5.09696
-5.0629
-5.03965
-5.02495
-5.01737
-5.01482
-5.01565
-6.40088
-6.2158
-6.04123
-5.87814
-5.72694
-5.5887
-5.46352
-5.35217
-5.25502
-5.17194
-5.1036
-5.04902
-5.00756
-4.97769
-4.9582
-4.94634
-4.94097
-4.93962
-4.94074
-5.94863
-5.84795
-5.73787
-5.62366
-5.50904
-5.39823
-5.29337
-5.19731
-5.11187
-5.03802
-4.97779
-4.93063
-4.89662
-4.87442
-4.86295
-4.85861
-4.86034
-4.86481
-4.87043
-5.41486
-5.42091
-5.38775
-5.33039
-5.25777
-5.17814
-5.09607
-5.01682
-4.94393
-4.87981
-4.82842
-4.79018
-4.76682
-4.75801
-4.76371
-4.77949
-4.8041
-4.83149
-4.85818
-4.85239
-4.96312
-5.00679
-5.00617
-4.97486
-4.92457
-4.86245
-4.79574
-4.72964
-4.66816
-4.61643
-4.57695
-4.55355
-4.54916
-4.56788
-4.61344
-4.69321
-4.81383
-4.98596
-4.34944
-4.54003
-4.65317
-4.70908
-4.72209
-4.7051
-4.66764
-4.61833
-4.56402
-4.51119
-4.46477
-4.43076
-4.41427
-4.4219
-4.4572
-4.52947
-4.63236
-4.75691
-4.88391
-3.91235
-4.15827
-4.32713
-4.43223
-4.48571
-4.5002
-4.48701
-4.4561
-4.41619
-4.37655
-4.34216
-4.32152
-4.31725
-4.32999
-4.34542
-4.34917
-4.29672
-4.15817
-3.90173
-3.52867
-3.81817
-4.02886
-4.17007
-4.25127
-4.28408
-4.28017
-4.25026
-4.20385
-4.15029
-4.09315
-4.03733
-3.97758
-3.90205
-3.78431
-3.60198
-3.32579
-2.96301
-2.53297
-3.20587
-3.52725
-3.77229
-3.94512
-4.05191
-4.10271
-4.10865
-4.08073
-4.02866
-3.96108
-3.8803
-3.78716
-3.67213
-3.52066
-3.31397
-3.0474
-2.7306
-2.40585
-2.12316
-2.92967
-3.27605
-3.54869
-3.74737
-3.87509
-3.94006
-3.95244
-3.92298
-3.86122
-3.77499
-3.66575
-3.53263
-3.36697
-3.15994
-2.90741
-2.62225
-2.33012
-2.06704
-1.8513
-2.68299
-3.05872
-3.35628
-3.57657
-3.72117
-3.79671
-3.8124
-3.77853
-3.7044
-3.59757
-3.45977
-3.29123
-3.08777
-2.849
-2.5824
-2.30805
-2.04974
-1.82824
-1.64576
-2.49449
-2.88834
-3.20477
-3.44121
-3.59775
-3.67945
-3.69472
-3.65333
-3.56461
-3.43652
-3.27216
-3.07484
-2.84596
-2.59233
-2.32729
-2.07065
-1.83894
-1.64215
-1.47614
-2.36438
-2.76606
-3.09318
-3.33861
-3.50076
-3.58308
-3.59349
-3.54126
-3.43613
-3.28716
-3.09952
-2.88048
-2.63633
-2.37842
-2.12139
-1.88157
-1.66847
-1.48571
-1.32632
-2.29389
-2.69943
-3.02982
-3.27643
-3.43682
-3.51315
-3.51326
-3.4462
-3.32251
-3.15296
-2.94499
-2.7098
-2.45711
-2.20027
-1.95251
-1.72597
-1.5244
-1.34737
-1.18579
-2.28781
-2.68913
-3.01443
-3.25372
-3.4042
-3.46717
-3.45099
-3.36484
-3.2206
-3.03101
-2.80568
-2.55909
-2.30274
-2.04994
-1.81118
-1.59444
-1.3984
-1.21905
-1.04392
-2.33926
-2.72896
-3.04349
-3.27041
-3.40646
-3.45315
-3.41925
-3.31502
-3.15381
-2.94962
-2.71522
-2.46577
-2.21338
-1.96975
-1.74267
-1.53363
-1.33689
-1.13926
-0.915045
-2.41824
-2.78851
-3.08087
-3.2843
-3.39525
-3.4164
-3.35662
-3.22789
-3.0449
-2.82223
-2.57593
-2.32013
-2.06786
-1.82847
-1.60932
-1.40908
-1.22715
-1.05745
-0.898525
-2.51937
-2.86913
-3.14208
-3.3283
-3.42487
-3.43538
-3.36856
-3.23694
-3.05525
-2.83784
-2.6018
-2.3596
-2.12395
-1.90339
-1.70619
-1.53286
-1.39089
-1.28744
-1.24694
-2.6364
-2.96661
-3.21897
-3.38502
-3.46345
-3.45892
-3.38088
-3.2423
-3.05825
-2.84313
-2.61395
-2.38273
-2.16173
-1.95939
-1.78466
-1.6402
-1.53584
-1.47842
-1.47734
-2.76636
-3.07981
-3.31131
-3.45634
-3.51585
-3.49567
-3.40614
-3.26079
-3.07496
-2.86299
-2.64168
-2.42254
-2.21741
-2.03454
-1.8831
-1.76601
-1.69195
-1.66336
-1.68116
-2.91515
-3.21007
-3.41839
-3.54109
-3.58072
-3.54416
-3.44273
-3.2906
-3.10342
-2.89536
-2.68291
-2.4769
-2.28868
-2.12597
-1.99747
-1.90507
-1.85533
-1.84727
-1.87839
-3.08985
-3.35482
-3.53741
-3.63666
-3.65526
-3.6013
-3.48735
-3.3284
-3.14037
-2.93708
-2.73465
-2.543
-2.37276
-2.23076
-2.12479
-2.05517
-2.02667
-2.03623
-2.08015
-3.26279
-3.50069
-3.65946
-3.73498
-3.73153
-3.65943
-3.53284
-3.36766
-3.17994
-2.98298
-2.79233
-2.61677
-2.46599
-2.34569
-2.26257
-2.21532
-2.20756
-2.23496
-2.29337
-3.43765
-3.66015
-3.79531
-3.8447
-3.81679
-3.72479
-3.58473
-3.41332
-3.22658
-3.03703
-2.85946
-2.70129
-2.57112
-2.47336
-2.41365
-2.38915
-2.40281
-2.44943
-2.52465
-3.63593
-3.83451
-3.93934
-3.95747
-3.90158
-3.78777
-3.63392
-3.45717
-3.27311
-3.09314
-2.93102
-2.79256
-2.68519
-2.61195
-2.57758
-2.57776
-2.6152
-2.68397
-2.77952
-3.8534
-4.01578
-4.08312
-4.06457
-3.97741
-3.84079
-3.67402
-3.49408
-3.31563
-3.14841
-3.00503
-2.88942
-2.80786
-2.76203
-2.756
-2.78398
-2.84886
-2.94398
-3.06468
-4.07475
-4.19797
-4.22094
-4.16
-4.03893
-3.8798
-3.70238
-3.5227
-3.3538
-3.20328
-3.08261
-2.99357
-2.94144
-2.9266
-2.95278
-3.01267
-3.10981
-3.23681
-3.38903
-4.31106
-4.38432
-4.35047
-4.24045
-4.08393
-3.90419
-3.71985
-3.54504
-3.39048
-3.26123
-3.16777
-3.10951
-3.09101
-3.11141
-3.17456
-3.27141
-3.40683
-3.57268
-3.7647
-4.57244
-4.55995
-4.4552
-4.29249
-4.1025
-3.90735
-3.72242
-3.55909
-3.42523
-3.32297
-3.26234
-3.24007
-3.26048
-3.32157
-3.42786
-3.5683
-3.74999
-3.96408
-4.20723
-4.78299
-4.67443
-4.49768
-4.28708
-4.07206
-3.87191
-3.69656
-3.55422
-3.44959
-3.38169
-3.361
-3.38138
-3.44752
-3.55655
-3.7145
-3.908
-4.14778
-4.42442
-4.73636
-4.95103
-4.74928
-4.49951
-4.2471
-4.01688
-3.82236
-3.666
-3.55284
-3.48456
-3.45721
-3.48283
-3.55214
-3.671
-3.83582
-4.05511
-4.31273
-4.62479
-4.98163
-5.38559
-5.0823
-4.752
-4.43091
-4.1519
-3.92328
-3.74944
-3.62414
-3.55021
-3.52694
-3.54782
-3.62785
-3.75439
-3.93544
-4.16693
-4.46125
-4.79885
-5.20386
-5.66706
-6.19886
-5.0592
-4.61038
-4.24947
-3.97466
-3.77149
-3.63652
-3.55576
-3.53198
-3.56322
-3.64092
-3.78483
-3.97876
-4.23418
-4.54707
-4.93577
-5.37697
-5.90696
-6.51872
-7.24
-4.84601
-4.34373
-3.98978
-3.75049
-3.59272
-3.51008
-3.48327
-3.51746
-3.61058
-3.75278
-3.97026
-4.24322
-4.58817
-5.00187
-5.51136
-6.08932
-6.79016
-7.61261
-8.62484
-4.40134
-3.93247
-3.63879
-3.46594
-3.37181
-3.35318
-3.38876
-3.48818
-3.65064
-3.86586
-4.16822
-4.53496
-4.98959
-5.53131
-6.20004
-6.96573
-7.91057
-9.04716
-10.5443
-3.72766
-3.3952
-3.20921
-3.12542
-3.10679
-3.15911
-3.26213
-3.43148
-3.66893
-3.96495
-4.364
-4.84178
-5.4318
-6.13881
-7.02256
-8.05445
-9.36158
-10.9872
-13.3685
-2.8822
-2.76217
-2.71193
-2.728
-2.78961
-2.91468
-3.08616
-3.32645
-3.64119
-4.02316
-4.52917
-5.13612
-5.89221
-6.81389
-7.99304
-9.41363
-11.2805
-13.7038
-17.8706
-1.96806
-2.07203
-2.15863
-2.27265
-2.41218
-2.60642
-2.84236
-3.14908
-3.5372
-4.00389
-4.62101
-5.37103
-6.32424
-7.52081
-9.10744
-11.1077
-13.8723
-17.6603
-25.8032
-1.09816
-1.36476
-1.56248
-1.76142
-1.97055
-2.22547
-2.51613
-2.87742
-3.32518
-3.86335
-4.58188
-5.47364
-6.64233
-8.1744
-10.3132
-13.1861
-17.44
-23.6837
-41.4044
-0.359891
-0.672168
-0.935966
-1.20008
-1.46719
-1.7712
-2.10138
-2.49742
-2.97764
-3.55569
-4.34201
-5.34022
-6.70684
-8.63141
-11.5902
-16.1744
-24.3274
-39.3403
-92.9369
)
;

boundaryField
{
    up
    {
        type            calculated;
        value           nonuniform List<scalar> 
84
(
-84.2171
-45.6111
-28.008
-19.1477
-14.178
-11.0946
-9.01868
-7.53283
-6.42184
-5.55967
-4.87389
-4.31685
-3.85339
-3.4612
-3.12369
-2.82804
-2.56471
-2.32656
-2.10768
-1.90148
-1.70048
-1.49133
-1.23912
-0.810578
-0.788302
-0.990925
-1.13794
-1.27828
-1.42508
-1.58862
-1.78117
-2.01738
-2.36977
-3.89373
-5.05673
-5.09088
-4.86351
-4.86974
-4.93945
-5.01519
-5.07515
-5.11676
-5.11685
-5.07554
-5.01573
-4.93991
-4.87011
-4.86329
-5.08887
-5.05754
-3.9091
-2.37248
-2.01904
-1.78247
-1.5897
-1.42605
-1.2792
-1.13889
-0.992193
-0.789164
-0.810059
-1.23917
-1.49136
-1.70049
-1.90148
-2.10768
-2.32656
-2.56471
-2.82804
-3.12369
-3.46119
-3.85338
-4.31685
-4.8739
-5.55967
-6.42185
-7.53284
-9.01868
-11.0946
-14.178
-19.1477
-28.008
-45.6111
-84.2171
)
;
    }
    low
    {
        type            calculated;
        value           nonuniform List<scalar> 
84
(
-0.385534
-1.14494
-2.07068
-3.05667
-3.97087
-4.6914
-5.14783
-5.3412
-5.30722
-5.10138
-4.89302
-4.64312
-4.32878
-4.06283
-3.82432
-3.5844
-3.36709
-3.18705
-3.00362
-2.80436
-2.63727
-2.4937
-2.35976
-2.24257
-2.13421
-2.07021
-2.0782
-2.16839
-2.32391
-2.5453
-2.82105
-3.11639
-3.463
-3.87619
-4.33871
-4.87739
-5.49185
-6.06167
-6.53833
-6.92911
-7.217
-7.40716
-7.40719
-7.21703
-6.92916
-6.5384
-6.06175
-5.49194
-4.8775
-4.3387
-3.87626
-3.46298
-3.11639
-2.82105
-2.54531
-2.32391
-2.16841
-2.07823
-2.07024
-2.13426
-2.24267
-2.3598
-2.49375
-2.63731
-2.8044
-3.00365
-3.18707
-3.3671
-3.58441
-3.82433
-4.06283
-4.32878
-4.64311
-4.893
-5.10137
-5.30723
-5.34121
-5.14785
-4.69142
-3.97089
-3.05669
-2.07069
-1.14495
-0.385536
)
;
    }
    left
    {
        type            calculated;
        value           nonuniform List<scalar> 
19
(
-0.352906
-0.659227
-0.927644
-1.19964
-1.47679
-1.79222
-2.13622
-2.55069
-3.05492
-3.6691
-4.50928
-5.58476
-7.07346
-9.20245
-12.5064
-17.7099
-27.0759
-44.5303
-87.3542
)
;
    }
    right
    {
        type            calculated;
        value           nonuniform List<scalar> 
19
(
-0.352907
-0.659228
-0.927645
-1.19964
-1.47679
-1.79223
-2.13622
-2.55069
-3.05492
-3.6691
-4.50928
-5.58476
-7.07346
-9.20245
-12.5064
-17.7099
-27.0759
-44.5303
-87.3542
)
;
    }
    frontAndBackPlanes
    {
        type            empty;
    }
}


// ************************************************************************* //
