/*--------------------------------*- C++ -*----------------------------------*\
  =========                 |
  \\      /  F ield         | OpenFOAM: The Open Source CFD Toolbox
   \\    /   O peration     | Website:  https://openfoam.org
    \\  /    A nd           | Version:  7
     \\/     M anipulation  |
\*---------------------------------------------------------------------------*/
FoamFile
{
    version     2.0;
    format      ascii;
    class       volScalarField;
    location    "0.27";
    object      T;
}
// * * * * * * * * * * * * * * * * * * * * * * * * * * * * * * * * * * * * * //

dimensions      [0 0 0 1 0 0 0];

internalField   nonuniform List<scalar> 
1596
(
6.9822
6.93113
6.87881
6.82911
6.78299
6.73987
6.6988
6.65767
6.61496
6.56709
6.51129
6.4438
6.35615
6.23649
6.06632
5.80432
5.37339
4.61938
3.23339
6.92302
6.76399
6.61374
6.47515
6.34797
6.22996
6.11835
6.00871
5.89718
5.77719
5.64316
5.48834
5.30028
5.06356
4.75901
4.35007
3.78
2.95102
1.67797
6.85298
6.58544
6.34448
6.12701
5.92966
5.74822
5.57831
5.41412
5.25048
5.07961
4.89497
4.68903
4.44937
4.16179
3.81068
3.36887
2.79891
2.0429
0.992837
6.78373
6.4145
6.09166
5.80488
5.54721
5.31252
5.09509
4.88831
4.6863
4.48098
4.26564
4.03285
3.77135
3.46903
3.11385
2.68622
2.16187
1.50701
0.658858
6.72612
6.26881
5.87426
5.52699
5.21725
4.93742
4.68083
4.4404
4.20991
3.9813
3.74803
3.50299
3.23607
2.93698
2.59626
2.19943
1.73029
1.16877
0.477662
6.68725
6.16048
5.70536
5.30556
4.95026
4.63117
4.3411
4.07279
3.81992
3.57459
3.33045
3.0807
2.81614
2.52776
2.20773
1.84478
1.42745
0.943262
0.369281
6.66816
6.09295
5.58917
5.14429
4.74865
4.39435
4.07427
3.78129
3.50915
3.2502
2.99828
2.74681
2.48724
2.21139
1.91238
1.58089
1.20816
0.785856
0.299035
6.66476
6.06139
5.52123
5.03868
4.60734
4.22086
3.87289
3.5568
3.26661
2.995
2.73603
2.48326
2.22859
1.96437
1.68423
1.37998
1.0444
0.671381
0.250451
6.67303
6.05894
5.49405
4.9811
4.51842
4.10229
3.72781
3.38925
3.08119
2.79671
2.53013
2.27517
2.02404
1.7694
1.50513
1.22368
0.918681
0.585139
0.215112
6.68437
6.07109
5.49174
4.95586
4.46679
4.02405
3.6248
3.26461
2.93886
2.64124
2.36637
2.10817
1.85908
1.61197
1.36081
1.0984
0.818789
0.517518
0.188092
6.69357
6.08605
5.4997
4.94775
4.43755
3.9719
3.5503
3.1699
2.82719
2.51655
2.23306
1.97088
1.72267
1.48144
1.24118
0.99489
0.736762
0.462541
0.166531
6.70511
6.10658
5.51764
4.95422
4.42684
3.94124
3.49927
3.09986
2.74071
2.4171
2.1246
1.85767
1.60922
1.37235
1.14103
0.908301
0.668404
0.41705
0.148935
6.71615
6.12827
5.53964
4.96816
4.42687
3.92403
3.46374
3.04672
2.67198
2.33576
2.03423
1.7622
1.51279
1.27921
1.05536
0.834283
0.610134
0.378483
0.134187
6.72307
6.14435
5.55743
4.98053
4.4283
3.91102
3.43478
3.00203
2.61311
2.26525
1.95527
1.67836
1.42787
1.1971
0.979888
0.769202
0.559088
0.344889
0.121476
6.72898
6.1574
5.57203
4.99086
4.42949
3.89975
3.40945
2.96258
2.56078
2.20226
1.88451
1.60309
1.35159
1.1234
0.912262
0.711059
0.513669
0.315169
0.110343
6.73474
6.16913
5.58464
4.99942
4.4298
3.88883
3.38578
2.92604
2.51247
2.14421
1.81937
1.5339
1.28163
1.05598
0.850599
0.658251
0.472613
0.288467
0.100438
6.73879
6.1777
5.59337
5.00405
4.42669
3.87542
3.36074
2.88933
2.46512
2.08812
1.75705
1.46821
1.2156
0.992713
0.79306
0.609257
0.434755
0.264013
0.091462
6.74174
6.1837
5.59873
5.00503
4.4201
3.85905
3.33352
2.85133
2.41741
2.03258
1.69608
1.40451
1.15207
0.932237
0.738406
0.56302
0.399269
0.241266
0.0832004
6.74709
6.19268
5.60663
5.00796
4.41503
3.84394
3.3075
2.81463
2.3712
1.97879
1.63711
1.34305
1.09092
0.874196
0.686135
0.518993
0.365676
0.219894
0.0755241
6.75358
6.20413
5.61724
5.01333
4.41198
3.8305
3.2829
2.77924
2.32629
1.92634
1.57956
1.28306
1.03126
0.817597
0.635211
0.476191
0.333155
0.199361
0.0682518
6.75854
6.21414
5.62679
5.01785
4.40814
3.81631
3.25764
2.74331
2.281
1.87371
1.52199
1.22316
0.971705
0.761049
0.584226
0.43324
0.300515
0.178868
0.0611223
6.76352
6.22406
5.63645
5.02265
4.40467
3.80249
3.23272
2.70769
2.23598
1.82125
1.46447
1.1631
0.911716
0.703692
0.532005
0.388697
0.266224
0.157193
0.0537075
6.76922
6.23508
5.64737
5.02882
4.40259
3.79003
3.20905
2.67314
2.19177
1.76926
1.40694
1.1025
0.850541
0.6444
0.476998
0.340507
0.227748
0.131802
0.044789
6.77523
6.2466
5.65878
5.03546
4.40102
3.77813
3.18596
2.6391
2.14781
1.71704
1.34855
1.04021
0.786751
0.581435
0.417068
0.285885
0.181242
0.0975233
0.029462
6.78467
6.27026
5.69287
5.07617
4.44468
3.82135
3.22578
2.67308
2.17417
1.73467
1.35717
1.04036
0.779646
0.568774
0.400787
0.267918
0.163644
0.0829346
0.0220728
6.79503
6.30047
5.74193
5.14206
4.52428
3.91064
3.32021
2.76799
2.2651
1.81788
1.42984
1.101
0.828102
0.606028
0.428545
0.28807
0.177725
0.0918198
0.0256484
6.80016
6.3183
5.77398
5.18858
4.58421
3.98166
3.39899
2.85051
2.34711
1.89529
1.49919
1.1599
0.875509
0.642269
0.455005
0.306588
0.190015
0.0990931
0.0283511
6.80014
6.32328
5.78799
5.21429
4.62266
4.0323
3.4598
2.91832
2.41798
1.965
1.56371
1.21598
0.921135
0.676963
0.479722
0.323121
0.200311
0.104726
0.0302516
6.79672
6.31906
5.78886
5.22477
4.64549
4.06828
3.50797
2.97621
2.48197
2.03083
1.62692
1.27253
0.96801
0.712714
0.504714
0.339098
0.209584
0.109371
0.0316631
6.79025
6.308
5.78073
5.22534
4.65855
4.09555
3.54919
3.0294
2.54384
2.09714
1.69295
1.33361
1.02007
0.753098
0.532837
0.356419
0.218885
0.113547
0.032781
6.78207
6.29407
5.76926
5.22264
4.66892
4.12115
3.59015
3.0841
2.60925
2.16921
1.76694
1.40442
1.08273
0.803509
0.56884
0.378495
0.230023
0.117904
0.0337625
6.77564
6.28306
5.76133
5.22405
4.68402
4.15222
3.63754
3.14647
2.68393
2.25249
1.85437
1.49094
1.16281
0.871635
0.620623
0.412054
0.247166
0.123836
0.0346346
6.76954
6.2733
5.75571
5.22888
4.70366
4.18902
3.69198
3.21746
2.7692
2.34889
1.95803
1.59736
1.26666
0.966677
0.700236
0.470499
0.281859
0.137563
0.0355349
6.7636
6.26497
5.75307
5.23826
4.72934
4.2333
3.75541
3.29921
2.86744
2.46107
2.08117
1.72808
1.40091
1.09923
0.824247
0.577478
0.362858
0.186355
0.0512293
6.75659
6.25356
5.74491
5.23937
4.74381
4.26347
3.80207
3.36202
2.94523
2.55216
2.18364
1.83991
1.51993
1.22279
0.94837
0.695737
0.465154
0.259256
0.0802978
6.74451
6.22757
5.71281
5.20703
4.71533
4.24139
3.7877
3.35567
2.94655
2.56028
2.19746
1.85825
1.54166
1.24696
0.97424
0.722452
0.491183
0.281092
0.0911166
6.72873
6.1921
5.66593
5.15459
4.66132
4.18843
3.73728
3.30847
2.90263
2.51927
2.15877
1.82128
1.50586
1.21211
0.940679
0.691224
0.464336
0.261769
0.0832222
6.71539
6.16228
5.62665
5.11074
4.61625
4.14428
3.69535
3.26933
2.86644
2.48585
2.12785
1.79259
1.47925
1.18762
0.918675
0.672338
0.449454
0.251976
0.0796566
6.70576
6.14004
5.5969
5.07722
4.58156
4.11016
3.66281
3.23892
2.83834
2.46001
2.10416
1.77094
1.45957
1.16996
0.903237
0.659449
0.439552
0.245623
0.0774504
6.69838
6.12303
5.57415
5.05157
4.555
4.08401
3.63787
3.2156
2.81682
2.44029
2.08618
1.75463
1.4449
1.15694
0.891985
0.65014
0.432451
0.241096
0.0759038
6.693
6.11064
5.55768
5.03311
4.53597
4.06531
3.62007
3.19899
2.8015
2.42629
2.07345
1.74314
1.4346
1.14782
0.88411
0.643615
0.42745
0.237886
0.074798
6.68867
6.10187
5.54675
5.02135
4.52417
4.05396
3.60944
3.1892
2.79262
2.41829
2.0663
1.7368
1.42903
1.14301
0.88005
0.640331
0.42499
0.236342
0.0742855
6.68868
6.10189
5.54679
5.02139
4.52421
4.054
3.60948
3.18925
2.79266
2.41833
2.06634
1.73684
1.42907
1.14304
0.880073
0.640349
0.425003
0.23635
0.0742881
6.69303
6.11071
5.55778
5.03323
4.53609
4.06544
3.62021
3.19912
2.80164
2.42642
2.07357
1.74325
1.4347
1.14791
0.884184
0.643674
0.427493
0.237913
0.0748071
6.69843
6.12314
5.5743
5.05175
4.55521
4.08422
3.63809
3.21582
2.81703
2.44049
2.08637
1.75481
1.44506
1.15708
0.892097
0.650229
0.432514
0.241134
0.0759169
6.70581
6.14018
5.5971
5.07746
4.58183
4.11044
3.6631
3.23921
2.83862
2.46028
2.10441
1.77116
1.45977
1.17013
0.90338
0.659561
0.439632
0.245671
0.0774664
6.71546
6.16245
5.62689
5.11104
4.61658
4.14463
3.6957
3.26969
2.86678
2.48617
2.12815
1.79286
1.47949
1.18782
0.918843
0.672467
0.449545
0.252029
0.0796741
6.72881
6.1923
5.66621
5.15493
4.6617
4.18883
3.73769
3.30888
2.90302
2.51964
2.15911
1.82158
1.50613
1.21233
0.940851
0.691351
0.464419
0.261812
0.0832342
6.7446
6.22779
5.71312
5.20741
4.71575
4.24184
3.78816
3.35613
2.94698
2.56068
2.19782
1.85857
1.54191
1.24715
0.974366
0.722514
0.491194
0.281075
0.0911016
6.75669
6.25387
5.74542
5.24003
4.7446
4.26437
3.80306
3.36307
2.94633
2.55328
2.18477
1.84104
1.52105
1.22389
0.949442
0.696754
0.466062
0.259945
0.080597
6.76373
6.26534
5.75367
5.23906
4.73032
4.23444
3.75667
3.30057
2.86887
2.46255
2.08267
1.7296
1.40241
1.10069
0.825615
0.578695
0.363834
0.186995
0.0514616
6.76964
6.27361
5.75623
5.22958
4.70452
4.19001
3.69307
3.21863
2.77043
2.35014
1.95929
1.59859
1.26783
0.967758
0.701172
0.471236
0.282353
0.137808
0.0355826
6.77573
6.28335
5.76181
5.22471
4.68482
4.15316
3.63857
3.14757
2.68507
2.25365
1.85551
1.49203
1.16381
0.872506
0.621328
0.412567
0.247484
0.123989
0.0346742
6.78215
6.29433
5.7697
5.22325
4.66968
4.12203
3.59112
3.08513
2.61031
2.17027
1.76796
1.40537
1.08358
0.804221
0.569394
0.378885
0.230263
0.118026
0.0337973
6.79032
6.30824
5.78113
5.2259
4.65925
4.09637
3.55009
3.03036
2.54482
2.0981
1.69387
1.33444
1.0208
0.753695
0.533292
0.356738
0.219085
0.113652
0.0328126
6.79678
6.31926
5.78923
5.22528
4.64613
4.06903
3.5088
2.97708
2.48286
2.03169
1.62773
1.27327
0.96864
0.713223
0.505101
0.33937
0.209759
0.109467
0.0316928
6.80019
6.32346
5.78831
5.21474
4.62325
4.03298
3.46055
2.91912
2.41878
1.96578
1.56444
1.21663
0.921685
0.677406
0.480059
0.323363
0.20047
0.104815
0.0302809
6.80021
6.31845
5.77426
5.18899
4.58474
3.98227
3.39967
2.85123
2.34783
1.89599
1.49984
1.16047
0.875992
0.64266
0.455306
0.306808
0.190165
0.0991812
0.028382
6.79506
6.3006
5.74218
5.14242
4.52474
3.91118
3.32082
2.76862
2.26574
1.81849
1.43041
1.10151
0.828531
0.606378
0.428819
0.288277
0.177872
0.0919115
0.0256838
6.78467
6.27029
5.69292
5.07626
4.4448
3.8215
3.22594
2.67326
2.17435
1.73484
1.35732
1.04048
0.779741
0.568838
0.400824
0.267932
0.163642
0.0829237
0.0220646
6.77521
6.24656
5.65872
5.03537
4.40091
3.77801
3.18583
2.63897
2.14768
1.71691
1.34843
1.0401
0.78665
0.581341
0.416984
0.285811
0.181181
0.0974787
0.0294416
6.76922
6.23507
5.64736
5.0288
4.40256
3.79001
3.20903
2.67313
2.19176
1.76925
1.40695
1.10251
0.850552
0.644413
0.477012
0.34052
0.22776
0.13181
0.0447912
6.76351
6.22405
5.63643
5.02263
4.40465
3.80248
3.2327
2.70768
2.23597
1.82125
1.46447
1.16311
0.911727
0.703703
0.532017
0.388707
0.266231
0.157198
0.0537088
6.75854
6.21413
5.62678
5.01784
4.40813
3.8163
3.25763
2.74331
2.281
1.87371
1.522
1.22317
0.971715
0.761059
0.584235
0.433247
0.300521
0.178871
0.0611232
6.75358
6.20413
5.61723
5.01332
4.41197
3.8305
3.2829
2.77924
2.32629
1.92634
1.57957
1.28307
1.03126
0.817605
0.635218
0.476196
0.333158
0.199363
0.0682524
6.74709
6.19267
5.60663
5.00796
4.41502
3.84394
3.3075
2.81463
2.37121
1.97879
1.63712
1.34306
1.09093
0.874202
0.68614
0.518997
0.365678
0.219895
0.0755245
6.74174
6.1837
5.59873
5.00502
4.4201
3.85905
3.33352
2.85134
2.41742
2.03258
1.69608
1.40452
1.15208
0.932241
0.73841
0.563022
0.399271
0.241266
0.0832007
6.73879
6.1777
5.59337
5.00405
4.4267
3.87542
3.36075
2.88934
2.46512
2.08813
1.75706
1.46821
1.21561
0.992715
0.793062
0.609259
0.434755
0.264013
0.0914621
6.73474
6.16913
5.58464
4.99943
4.4298
3.88883
3.38578
2.92605
2.51248
2.14421
1.81937
1.5339
1.28163
1.05598
0.850599
0.658252
0.472613
0.288466
0.100438
6.72898
6.1574
5.57203
4.99087
4.42949
3.89976
3.40945
2.96258
2.56078
2.20226
1.88451
1.60309
1.35159
1.1234
0.912262
0.711059
0.513668
0.315169
0.110342
6.72307
6.14435
5.55743
4.98054
4.4283
3.91102
3.43479
3.00203
2.61311
2.26525
1.95527
1.67836
1.42787
1.1971
0.979886
0.769201
0.559087
0.344888
0.121476
6.71615
6.12827
5.53964
4.96816
4.42687
3.92403
3.46374
3.04672
2.67198
2.33576
2.03423
1.7622
1.51279
1.27921
1.05536
0.834281
0.610133
0.378482
0.134187
6.70512
6.10658
5.51764
4.95422
4.42684
3.94124
3.49927
3.09986
2.74071
2.41709
2.12459
1.85767
1.60921
1.37234
1.14102
0.908299
0.668402
0.41705
0.148936
6.69358
6.08606
5.49971
4.94775
4.43755
3.9719
3.5503
3.1699
2.82718
2.51655
2.23306
1.97087
1.72266
1.48143
1.24118
0.994888
0.73676
0.462541
0.166532
6.68437
6.0711
5.49174
4.95586
4.46679
4.02405
3.6248
3.2646
2.93886
2.64124
2.36636
2.10817
1.85908
1.61196
1.3608
1.0984
0.818789
0.517518
0.188093
6.67303
6.05894
5.49405
4.9811
4.51842
4.10229
3.72781
3.38925
3.08118
2.79671
2.53012
2.27517
2.02404
1.76939
1.50512
1.22368
0.91868
0.585139
0.215113
6.66476
6.06139
5.52123
5.03868
4.60734
4.22086
3.87289
3.55679
3.2666
2.995
2.73602
2.48326
2.22859
1.96436
1.68423
1.37998
1.0444
0.671381
0.250452
6.66815
6.09295
5.58917
5.14428
4.74865
4.39434
4.07427
3.78128
3.50914
3.25019
2.99827
2.74681
2.48724
2.21138
1.91238
1.58089
1.20816
0.785857
0.299035
6.68725
6.16048
5.70536
5.30555
4.95026
4.63117
4.3411
4.07279
3.81991
3.57458
3.33045
3.0807
2.81614
2.52776
2.20773
1.84478
1.42745
0.943263
0.369282
6.72612
6.2688
5.87425
5.52698
5.21724
4.93741
4.68083
4.44039
4.2099
3.9813
3.74803
3.50299
3.23606
2.93698
2.59626
2.19943
1.73029
1.16877
0.477662
6.78372
6.41449
6.09165
5.80487
5.54721
5.31251
5.09509
4.8883
4.6863
4.48097
4.26563
4.03285
3.77134
3.46903
3.11385
2.68622
2.16187
1.50701
0.658858
6.85298
6.58544
6.34448
6.12701
5.92965
5.74822
5.57831
5.41411
5.25047
5.07961
4.89497
4.68903
4.44937
4.16179
3.81068
3.36887
2.79891
2.0429
0.992837
6.92302
6.76399
6.61374
6.47515
6.34797
6.22996
6.11835
6.0087
5.89718
5.77719
5.64316
5.48834
5.30028
5.06356
4.75901
4.35007
3.78
2.95102
1.67797
6.9822
6.93113
6.87881
6.82911
6.78299
6.73987
6.6988
6.65767
6.61496
6.56709
6.51129
6.4438
6.35615
6.23649
6.06632
5.80432
5.37339
4.61938
3.23339
)
;

boundaryField
{
    up
    {
        type            fixedValue;
        value           uniform 0;
    }
    low
    {
        type            fixedValue;
        value           uniform 7;
    }
    left
    {
        type            fixedValue;
        value           uniform 7;
    }
    right
    {
        type            fixedValue;
        value           uniform 7;
    }
    frontAndBackPlanes
    {
        type            empty;
    }
}


// ************************************************************************* //
