/*--------------------------------*- C++ -*----------------------------------*\
  =========                 |
  \\      /  F ield         | OpenFOAM: The Open Source CFD Toolbox
   \\    /   O peration     | Website:  https://openfoam.org
    \\  /    A nd           | Version:  7
     \\/     M anipulation  |
\*---------------------------------------------------------------------------*/
FoamFile
{
    version     2.0;
    format      ascii;
    class       volScalarField;
    location    "0.142";
    object      gradTy;
}
// * * * * * * * * * * * * * * * * * * * * * * * * * * * * * * * * * * * * * //

dimensions      [0 -1 0 1 0 0 0];

internalField   nonuniform List<scalar> 
1596
(
-0.642459
-1.18607
-1.6172
-2.01154
-2.36474
-2.72504
-3.06612
-3.44116
-3.86618
-4.3517
-5.03138
-5.89769
-7.12664
-8.91789
-11.7636
-16.2588
-24.3574
-39.3453
-92.9386
-1.94735
-2.37932
-2.6423
-2.85469
-3.03041
-3.22772
-3.42815
-3.68345
-4.01164
-4.41401
-5.00559
-5.76832
-6.82188
-8.25655
-10.3272
-13.1549
-17.3945
-23.6449
-41.3866
-3.45846
-3.57201
-3.59199
-3.59767
-3.59071
-3.62393
-3.67953
-3.8047
-4.01434
-4.30357
-4.76916
-5.38268
-6.22855
-7.34774
-8.89678
-10.887
-13.6764
-17.5097
-25.7104
-5.00679
-4.70724
-4.45178
-4.24278
-4.05569
-3.92841
-3.84102
-3.8333
-3.91623
-4.08093
-4.4077
-4.86299
-5.50767
-6.35765
-7.51441
-8.94679
-10.8679
-13.3707
-17.6335
-6.39018
-5.71929
-5.20835
-4.79875
-4.44455
-4.16685
-3.94417
-3.80785
-3.7656
-3.80656
-3.9965
-4.30164
-4.76664
-5.39529
-6.2572
-7.30799
-8.6845
-10.4124
-12.9197
-7.44108
-6.54955
-5.85008
-5.27575
-4.77813
-4.36668
-4.02148
-3.76613
-3.60643
-3.53133
-3.59382
-3.76308
-4.07208
-4.51905
-5.15393
-5.93172
-6.94577
-8.19237
-9.83181
-8.08539
-7.15728
-6.36412
-5.67807
-5.07013
-4.54759
-4.09669
-3.73565
-3.46996
-3.28997
-3.23762
-3.28676
-3.46146
-3.75765
-4.21205
-4.78415
-5.54029
-6.46546
-7.62056
-8.34621
-7.52361
-6.73284
-5.99682
-5.31884
-4.71329
-4.17729
-3.72703
-3.36955
-3.09795
-2.94499
-2.88989
-2.94979
-3.11977
-3.42697
-3.83702
-4.39814
-5.09258
-5.94262
-8.31414
-7.69317
-6.98094
-6.25037
-5.54019
-4.87854
-4.27662
-3.75238
-3.31618
-2.96501
-2.7246
-2.57952
-2.54148
-2.60538
-2.79085
-3.06955
-3.47643
-3.99465
-4.63071
-8.06048
-7.64415
-7.05576
-6.38051
-5.67975
-4.99587
-4.35435
-3.77794
-3.28168
-2.86731
-2.55586
-2.33684
-2.21804
-2.19445
-2.27983
-2.45128
-2.73394
-3.1134
-3.5899
-7.77854
-7.4978
-7.02607
-6.42468
-5.75766
-5.07533
-4.41441
-3.80349
-3.26289
-2.79948
-2.43163
-2.15328
-1.96946
-1.87538
-1.88005
-1.9649
-2.14736
-2.41545
-2.76694
-7.45733
-7.31072
-6.94545
-6.42014
-5.79718
-5.1301
-4.46312
-3.83035
-3.25727
-2.75582
-2.3434
-2.01769
-1.78203
-1.63184
-1.57229
-1.58808
-1.69047
-1.86951
-2.12195
-7.07867
-7.04846
-6.78266
-6.33492
-5.7644
-5.1258
-4.46733
-3.82765
-3.23661
-2.71062
-2.26736
-1.90759
-1.63381
-1.44168
-1.33348
-1.29632
-1.33674
-1.44639
-1.62169
-6.75837
-6.78726
-6.59393
-6.2113
-5.68955
-5.08204
-4.43819
-3.79998
-3.20053
-2.65986
-2.19654
-1.81366
-1.51338
-1.29157
-1.14828
-1.07224
-1.06637
-1.12335
-1.23948
-6.47414
-6.5482
-6.40553
-6.07214
-5.59029
-5.0107
-4.38249
-3.74975
-3.14793
-2.59973
-2.12472
-1.72764
-1.41051
-1.16927
-1.00227
-0.899194
-0.860243
-0.878703
-0.95082
-6.20225
-6.3226
-6.22046
-5.92412
-5.47278
-4.91578
-4.30168
-3.67604
-3.07583
-2.52564
-2.04582
-1.64211
-1.31638
-1.06444
-0.883272
-0.763076
-0.701988
-0.693626
-0.7342
-5.96316
-6.11553
-6.04444
-5.77489
-5.34471
-4.80344
-4.19978
-3.5806
-2.98401
-2.43571
-1.95649
-1.55241
-1.22498
-0.969655
-0.782208
-0.652991
-0.578583
-0.552735
-0.571627
-5.76016
-5.93623
-5.88814
-5.63655
-5.21868
-4.68533
-4.08659
-3.47097
-2.87765
-2.33302
-1.85781
-1.45786
-1.13396
-0.880891
-0.693262
-0.561284
-0.480305
-0.444073
-0.44873
-5.55261
-5.78046
-5.76039
-5.52366
-5.11176
-4.57888
-3.97835
-3.36117
-2.76807
-2.22615
-1.75571
-1.36194
-1.04456
-0.797337
-0.61361
-0.483198
-0.400388
-0.358817
-0.354558
-5.33071
-5.62357
-5.64101
-5.42173
-5.01395
-4.47757
-3.87093
-3.2487
-2.65378
-2.11408
-1.6493
-1.26364
-0.955358
-0.716941
-0.540332
-0.414763
-0.333586
-0.290288
-0.280889
-5.14073
-5.48349
-5.5388
-5.33781
-4.93243
-4.38881
-3.77165
-3.14037
-2.54078
-2.00185
-1.54251
-1.16575
-0.868035
-0.640266
-0.472849
-0.354242
-0.276898
-0.234147
-0.222046
-4.96856
-5.36182
-5.45511
-5.27325
-4.86987
-4.31682
-3.68592
-3.0422
-2.43507
-1.89497
-1.44006
-1.07198
-0.785192
-0.568831
-0.411626
-0.301068
-0.228631
-0.187431
-0.17383
-4.80238
-5.25304
-5.38725
-5.22641
-4.82589
-4.26291
-3.61666
-2.95827
-2.34137
-1.79819
-1.34627
-0.985935
-0.709554
-0.504449
-0.357637
-0.255477
-0.188195
-0.148217
-0.132508
-4.64675
-5.15509
-5.32962
-5.1881
-4.78852
-4.21306
-3.54925
-2.87407
-2.2458
-1.6989
-1.24945
-0.897133
-0.6318
-0.438934
-0.303702
-0.211482
-0.150659
-0.11177
-0.088116
-4.51463
-5.07791
-5.30522
-5.20659
-4.83835
-4.28092
-3.62461
-2.94817
-2.31326
-1.75773
-1.29816
-0.936718
-0.66306
-0.463413
-0.322753
-0.226832
-0.162805
-0.120185
-0.0891712
-4.41707
-5.0169
-5.2839
-5.22682
-4.89708
-4.36982
-3.73291
-3.06424
-2.42699
-1.86222
-1.38849
-1.01132
-0.72199
-0.508119
-0.355368
-0.250385
-0.180155
-0.134593
-0.104616
-4.40687
-5.01333
-5.29803
-5.26808
-4.96941
-4.47158
-3.85714
-3.20133
-2.56678
-1.99606
-1.50996
-1.11657
-0.809273
-0.577542
-0.408541
-0.290211
-0.210021
-0.157932
-0.124452
-4.49512
-5.07722
-5.35252
-5.32869
-5.04753
-4.5728
-3.98048
-3.3411
-2.71464
-2.14351
-1.6495
-1.24273
-0.918333
-0.66762
-0.479586
-0.344278
-0.250429
-0.18861
-0.148795
-4.66853
-5.20768
-5.452
-5.41639
-5.14048
-4.68231
-4.11073
-3.4901
-2.8762
-2.30985
-1.81268
-1.3962
-1.05664
-0.78669
-0.576937
-0.420165
-0.307453
-0.231255
-0.181388
-4.91883
-5.39055
-5.58638
-5.52609
-5.2467
-4.80043
-4.24881
-3.64925
-3.05231
-2.49624
-2.00154
-1.58065
-1.23017
-0.943278
-0.710997
-0.528618
-0.390455
-0.293105
-0.22772
-5.23866
-5.62321
-5.76145
-5.66923
-5.38058
-4.94223
-4.40889
-3.83084
-3.25314
-2.711
-2.22328
-1.80323
-1.44753
-1.14896
-0.896898
-0.687083
-0.516052
-0.387239
-0.29705
-5.57089
-5.88236
-5.96501
-5.83936
-5.53938
-5.10734
-4.59176
-4.03602
-3.47968
-2.95476
-2.47837
-2.06492
-1.7117
-1.41131
-1.14966
-0.919183
-0.712744
-0.539026
-0.406746
-5.94091
-6.17623
-6.20013
-6.03814
-5.72427
-5.29665
-4.79786
-4.26465
-3.73108
-3.22587
-2.76416
-2.36196
-2.01847
-1.72844
-1.47553
-1.24768
-1.02453
-0.80601
-0.593308
-6.36759
-6.51852
-6.48065
-6.28146
-5.95402
-5.53219
-5.05229
-4.54473
-4.03798
-3.5571
-3.11558
-2.73024
-2.40364
-2.13616
-1.91598
-1.73402
-1.56209
-1.38629
-1.1888
-6.83126
-6.89059
-6.7768
-6.52482
-6.16749
-5.73547
-5.25895
-4.76327
-4.27179
-3.80485
-3.37482
-2.99604
-2.67306
-2.40991
-2.20349
-2.05456
-1.94856
-1.87488
-1.81405
-7.34853
-7.2876
-7.07979
-6.76101
-6.36063
-5.9055
-5.42018
-4.92623
-4.44313
-3.98711
-3.57014
-3.20311
-2.8905
-2.63514
-2.43631
-2.29388
-2.203
-2.16185
-2.16657
-7.91592
-7.71366
-7.40788
-7.0222
-6.57831
-6.09769
-5.60022
-5.10416
-4.62615
-4.17979
-3.77611
-3.42383
-3.12644
-2.8852
-2.69813
-2.56087
-2.46567
-2.40462
-2.3681
-8.42053
-8.09251
-7.6996
-7.25362
-6.76969
-6.26445
-5.75423
-5.2542
-4.77861
-4.33891
-3.94459
-3.60291
-3.31628
-3.08493
-2.90633
-2.77565
-2.68527
-2.62772
-2.5941
-8.81433
-8.40268
-7.94615
-7.45415
-6.93902
-6.41446
-5.89425
-5.39128
-4.91787
-4.48382
-4.09746
-3.76493
-3.48787
-3.26594
-3.09638
-2.97401
-2.8914
-2.841
-2.81402
-9.12235
-8.64788
-8.1431
-7.616
-7.07697
-6.53761
-6.00975
-5.50453
-5.03288
-4.60328
-4.22326
-3.89808
-3.62888
-3.41487
-3.25313
-3.13818
-3.06267
-3.01899
-2.99842
-9.34523
-8.82414
-8.28324
-7.73043
-7.17432
-6.62459
-6.0915
-5.58487
-5.1146
-4.6883
-4.31291
-3.99314
-3.72976
-3.52166
-3.3658
-3.25642
-3.18617
-3.14726
-3.13091
-9.4955
-8.92606
-8.35796
-7.78894
-7.22311
-6.66792
-6.1323
-5.62521
-5.15597
-4.73169
-4.359
-4.04234
-3.78229
-3.57763
-3.42528
-3.31944
-3.2528
-3.21757
-3.20497
-9.49554
-8.92614
-8.35806
-7.78905
-7.22324
-6.66805
-6.13244
-5.62536
-5.15612
-4.73184
-4.35916
-4.0425
-3.78246
-3.5778
-3.42546
-3.31963
-3.253
-3.21779
-3.2052
-9.34529
-8.8243
-8.28347
-7.73071
-7.17464
-6.62494
-6.09188
-5.58527
-5.11502
-4.68873
-4.31336
-3.99361
-3.73025
-3.52217
-3.36634
-3.257
-3.18679
-3.14793
-3.13164
-9.12244
-8.64812
-8.14346
-7.61644
-7.07748
-6.53817
-6.01035
-5.50517
-5.03355
-4.60398
-4.22398
-3.89884
-3.62967
-3.41569
-3.25399
-3.13909
-3.06364
-3.02003
-2.99953
-8.81445
-8.40299
-7.94661
-7.45472
-6.93968
-6.41519
-5.89504
-5.39211
-4.91875
-4.48474
-4.09841
-3.7659
-3.48887
-3.26698
-3.09746
-2.97515
-2.8926
-2.84227
-2.81538
-8.42067
-8.09287
-7.70013
-7.25428
-6.77046
-6.26532
-5.75517
-5.25521
-4.77967
-4.34001
-3.94573
-3.60408
-3.31748
-3.08616
-2.90761
-2.77697
-2.68665
-2.62918
-2.59565
-7.91608
-7.71405
-7.40846
-7.02293
-6.57917
-6.09865
-5.60127
-5.10529
-4.62735
-4.18103
-3.77739
-3.42513
-3.12777
-2.88655
-2.6995
-2.56227
-2.4671
-2.40608
-2.36959
-7.34872
-7.28807
-7.08052
-6.76197
-6.3618
-5.90687
-5.42171
-4.9279
-4.44491
-3.98897
-3.57208
-3.20513
-2.89258
-2.63729
-2.43854
-2.29614
-2.20521
-2.16385
-2.16813
-6.83137
-6.89068
-6.77697
-6.52512
-6.16795
-5.7361
-5.25973
-4.76417
-4.27278
-3.80587
-3.37583
-2.99697
-2.67386
-2.41052
-2.20392
-2.05488
-1.94903
-1.87599
-1.81655
-6.36765
-6.51885
-6.48129
-6.28248
-5.95544
-5.534
-5.05448
-4.54722
-4.0407
-3.55997
-3.11855
-2.73323
-2.40664
-2.13921
-1.91919
-1.7376
-1.56631
-1.39142
-1.19501
-5.94092
-6.1763
-6.20041
-6.0387
-5.72516
-5.29786
-4.79936
-4.26639
-3.73298
-3.22786
-2.76618
-2.36396
-2.02045
-1.73043
-1.47759
-1.24986
-1.02678
-0.808145
-0.594928
-5.57087
-5.88238
-5.96522
-5.83985
-5.54021
-5.10851
-4.59322
-4.03771
-3.48151
-2.95666
-2.48028
-2.06678
-1.7135
-1.41307
-1.15139
-0.920859
-0.714279
-0.540294
-0.407687
-5.23862
-5.62318
-5.76159
-5.66963
-5.38131
-4.9433
-4.41024
-3.83241
-3.25484
-2.71274
-2.22499
-1.80486
-1.44908
-1.15041
-0.898238
-0.688287
-0.517072
-0.388046
-0.297645
-4.91879
-5.3905
-5.58646
-5.52643
-5.24736
-4.8014
-4.25006
-3.65069
-3.05385
-2.4978
-2.00305
-1.58205
-1.23146
-0.944437
-0.712015
-0.529482
-0.391154
-0.293647
-0.228125
-4.66847
-5.20759
-5.45203
-5.41666
-5.14105
-4.68319
-4.11186
-3.4914
-2.87758
-2.31122
-1.81397
-1.39738
-1.05769
-0.787605
-0.577709
-0.420794
-0.307948
-0.231637
-0.18168
-4.49506
-5.07712
-5.35252
-5.32891
-5.04803
-4.57358
-3.98148
-3.34225
-2.71585
-2.14469
-1.6506
-1.24371
-0.919184
-0.668338
-0.480173
-0.344744
-0.250792
-0.188893
-0.149019
-4.40681
-5.01323
-5.29802
-5.26826
-4.96985
-4.47226
-3.85801
-3.20233
-2.56781
-1.99706
-1.51088
-1.11737
-0.809956
-0.578106
-0.408994
-0.290566
-0.210298
-0.158153
-0.124639
-4.417
-5.01679
-5.28385
-5.22692
-4.89738
-4.37031
-3.73356
-3.06497
-2.42775
-1.86295
-1.38915
-1.01189
-0.722473
-0.508512
-0.355677
-0.250625
-0.180342
-0.134749
-0.104772
-4.5147
-5.07795
-5.30529
-5.20671
-4.83854
-4.28118
-3.62494
-2.94854
-2.31365
-1.75811
-1.29852
-0.937048
-0.663354
-0.46367
-0.322972
-0.227018
-0.162962
-0.120314
-0.0892579
-4.64682
-5.15515
-5.32963
-5.18804
-4.78839
-4.21286
-3.549
-2.8738
-2.24552
-1.69864
-1.24922
-0.896942
-0.631646
-0.438815
-0.303611
-0.211413
-0.150604
-0.111721
-0.088051
-4.80242
-5.25307
-5.38728
-5.22642
-4.82589
-4.26289
-3.61665
-2.95827
-2.34137
-1.7982
-1.34628
-0.985951
-0.709572
-0.504466
-0.357653
-0.255491
-0.188208
-0.148229
-0.132514
-4.96859
-5.36185
-5.45512
-5.27324
-4.86984
-4.31679
-3.68589
-3.04217
-2.43506
-1.89496
-1.44006
-1.07198
-0.785199
-0.568839
-0.411634
-0.301076
-0.22864
-0.187439
-0.173836
-5.14075
-5.48351
-5.5388
-5.33779
-4.93241
-4.38878
-3.77163
-3.14035
-2.54077
-2.00184
-1.54251
-1.16575
-0.868039
-0.640271
-0.472855
-0.354248
-0.276906
-0.234156
-0.222054
-5.33072
-5.62358
-5.64101
-5.42172
-5.01393
-4.47755
-3.87092
-3.24869
-2.65378
-2.11408
-1.6493
-1.26364
-0.955359
-0.716943
-0.540335
-0.414768
-0.333594
-0.290298
-0.280899
-5.55262
-5.78047
-5.76038
-5.52365
-5.11175
-4.57887
-3.97835
-3.36116
-2.76807
-2.22614
-1.7557
-1.36194
-1.04456
-0.797337
-0.613613
-0.483204
-0.400398
-0.35883
-0.35457
-5.76017
-5.93624
-5.88813
-5.63654
-5.21867
-4.68532
-4.08659
-3.47097
-2.87765
-2.33302
-1.85781
-1.45785
-1.13395
-0.880888
-0.693263
-0.56129
-0.480316
-0.444089
-0.448744
-5.96317
-6.11552
-6.04443
-5.77489
-5.3447
-4.80344
-4.19978
-3.5806
-2.98401
-2.4357
-1.95648
-1.5524
-1.22497
-0.969651
-0.78221
-0.652998
-0.578597
-0.552752
-0.571641
-6.20225
-6.32259
-6.22045
-5.92411
-5.47278
-4.91579
-4.30169
-3.67604
-3.07583
-2.52563
-2.04581
-1.6421
-1.31637
-1.06444
-0.883274
-0.763085
-0.702003
-0.693643
-0.734212
-6.47414
-6.54819
-6.40552
-6.07214
-5.59029
-5.0107
-4.38249
-3.74975
-3.14792
-2.59972
-2.1247
-1.72762
-1.4105
-1.16927
-1.00227
-0.899204
-0.860257
-0.878716
-0.950827
-6.75836
-6.78724
-6.59392
-6.2113
-5.68956
-5.08205
-4.4382
-3.79998
-3.20052
-2.65985
-2.19653
-1.81365
-1.51338
-1.29157
-1.14829
-1.07225
-1.06638
-1.12335
-1.23947
-7.07866
-7.04844
-6.78266
-6.33493
-5.76442
-5.12581
-4.46733
-3.82765
-3.2366
-2.71061
-2.26734
-1.90758
-1.6338
-1.44168
-1.33348
-1.29632
-1.33674
-1.44638
-1.62167
-7.4573
-7.3107
-6.94545
-6.42015
-5.79719
-5.1301
-4.46312
-3.83034
-3.25726
-2.7558
-2.34338
-2.01768
-1.78203
-1.63185
-1.57229
-1.58808
-1.69046
-1.86949
-2.12193
-7.77851
-7.4978
-7.02608
-6.42469
-5.75768
-5.07534
-4.41442
-3.80348
-3.26288
-2.79947
-2.43163
-2.15327
-1.96946
-1.87539
-1.88005
-1.96489
-2.14733
-2.41541
-2.76691
-8.06046
-7.64415
-7.05578
-6.38053
-5.67977
-4.99588
-4.35435
-3.77793
-3.28167
-2.8673
-2.55585
-2.33684
-2.21804
-2.19445
-2.27982
-2.45126
-2.7339
-3.11335
-3.58987
-8.31413
-7.69319
-6.98096
-6.25038
-5.54019
-4.87854
-4.27662
-3.75237
-3.31617
-2.965
-2.7246
-2.57952
-2.54148
-2.60538
-2.79084
-3.06952
-3.47639
-3.9946
-4.6307
-8.34622
-7.52364
-6.73286
-5.99683
-5.31884
-4.71329
-4.17729
-3.72703
-3.36955
-3.09796
-2.945
-2.8899
-2.94979
-3.11976
-3.42695
-3.83699
-4.39809
-5.09254
-5.94262
-8.08542
-7.15731
-6.36414
-5.67808
-5.07014
-4.54759
-4.0967
-3.73566
-3.46997
-3.28998
-3.23764
-3.28677
-3.46147
-3.75765
-4.21203
-4.78412
-5.54025
-6.46544
-7.62058
-7.44111
-6.54957
-5.8501
-5.27576
-4.77814
-4.36669
-4.02149
-3.76615
-3.60644
-3.53134
-3.59384
-3.76309
-4.07207
-4.51904
-5.15391
-5.93169
-6.94574
-8.19237
-9.83184
-6.39021
-5.7193
-5.20836
-4.79876
-4.44456
-4.16686
-3.94419
-3.80786
-3.76562
-3.80658
-3.99652
-4.30165
-4.76663
-5.39528
-6.25718
-7.30797
-8.68449
-10.4124
-12.9198
-5.00682
-4.70725
-4.45179
-4.24279
-4.05571
-3.92843
-3.84104
-3.83332
-3.91626
-4.08095
-4.40771
-4.863
-5.50766
-6.35763
-7.51439
-8.94677
-10.8679
-13.3708
-17.6335
-3.45847
-3.57201
-3.59199
-3.59768
-3.59072
-3.62394
-3.67955
-3.80472
-4.01436
-4.30359
-4.76917
-5.38268
-6.22854
-7.34772
-8.89676
-10.887
-13.6764
-17.5097
-25.7104
-1.94736
-2.37931
-2.64229
-2.85469
-3.03041
-3.22772
-3.42817
-3.68346
-4.01166
-4.41402
-5.0056
-5.76832
-6.82187
-8.25653
-10.3272
-13.1549
-17.3945
-23.6449
-41.3866
-0.642463
-1.18607
-1.61719
-2.01154
-2.36474
-2.72504
-3.06612
-3.44117
-3.86619
-4.35171
-5.03139
-5.89768
-7.12663
-8.91787
-11.7636
-16.2588
-24.3574
-39.3453
-92.9386
)
;

boundaryField
{
    up
    {
        type            calculated;
        value           nonuniform List<scalar> 
84
(
-84.2252
-45.6165
-27.9582
-18.9714
-13.8025
-10.4603
-8.08986
-6.30156
-4.90608
-3.80021
-2.92457
-2.23727
-1.70408
-1.29655
-0.989043
-0.758877
-0.586867
-0.457582
-0.359189
-0.282847
-0.222356
-0.17301
-0.129534
-0.0780429
-0.0749459
-0.0963853
-0.115283
-0.137661
-0.16715
-0.208697
-0.269843
-0.361463
-0.518448
-1.1541
-1.84329
-2.18566
-2.35434
-2.58237
-2.80541
-2.99282
-3.12733
-3.20333
-3.20356
-3.12808
-2.99397
-2.80681
-2.58396
-2.35586
-2.18682
-1.84597
-1.16125
-0.519983
-0.362269
-0.270365
-0.209058
-0.167413
-0.137867
-0.115459
-0.0965741
-0.0750458
-0.0779654
-0.129534
-0.173014
-0.222362
-0.282856
-0.359199
-0.457594
-0.586879
-0.758886
-0.989046
-1.29654
-1.70406
-2.23725
-2.92455
-3.8002
-4.90609
-6.30159
-8.08991
-10.4603
-13.8025
-18.9715
-27.9582
-45.6165
-84.2252
)
;
    }
    low
    {
        type            calculated;
        value           nonuniform List<scalar> 
84
(
-0.690239
-2.03789
-3.65266
-5.32939
-6.83017
-7.955
-8.61029
-8.82982
-8.69928
-8.32418
-7.98191
-7.60425
-7.14721
-6.78603
-6.47949
-6.1737
-5.90394
-5.69195
-5.46298
-5.19182
-4.962
-4.75703
-4.55117
-4.35818
-4.16372
-4.03739
-4.03141
-4.16261
-4.39257
-4.71322
-5.09546
-5.46896
-5.88458
-6.3623
-6.867
-7.43751
-8.0773
-8.62534
-9.04282
-9.37033
-9.60898
-9.78369
-9.78372
-9.60901
-9.37037
-9.04288
-8.62541
-8.07739
-7.43763
-6.86694
-6.36237
-5.88451
-5.46892
-5.09542
-4.71318
-4.39252
-4.16258
-4.0314
-4.03739
-4.16375
-4.3583
-4.55117
-4.75706
-4.96202
-5.19183
-5.46299
-5.69197
-5.90395
-6.1737
-6.47948
-6.78602
-7.14719
-7.60422
-7.98187
-8.32414
-8.69925
-8.82981
-8.61031
-7.95504
-6.83021
-5.32943
-3.65269
-2.03791
-0.690246
)
;
    }
    left
    {
        type            calculated;
        value           nonuniform List<scalar> 
19
(
-0.630751
-1.16543
-1.60629
-2.01534
-2.38513
-2.7617
-3.11902
-3.51275
-3.95899
-4.47576
-5.20254
-6.13697
-7.47885
-9.467
-12.6531
-17.7671
-27.0828
-44.52
-87.3499
)
;
    }
    right
    {
        type            calculated;
        value           nonuniform List<scalar> 
19
(
-0.630755
-1.16543
-1.60629
-2.01534
-2.38513
-2.7617
-3.11902
-3.51275
-3.959
-4.47576
-5.20254
-6.13696
-7.47883
-9.46697
-12.653
-17.767
-27.0828
-44.52
-87.3499
)
;
    }
    frontAndBackPlanes
    {
        type            empty;
    }
}


// ************************************************************************* //
