/*--------------------------------*- C++ -*----------------------------------*\
  =========                 |
  \\      /  F ield         | OpenFOAM: The Open Source CFD Toolbox
   \\    /   O peration     | Website:  https://openfoam.org
    \\  /    A nd           | Version:  7
     \\/     M anipulation  |
\*---------------------------------------------------------------------------*/
FoamFile
{
    version     2.0;
    format      ascii;
    class       volScalarField;
    location    "0.13";
    object      gradTy;
}
// * * * * * * * * * * * * * * * * * * * * * * * * * * * * * * * * * * * * * //

dimensions      [0 -1 0 1 0 0 0];

internalField   nonuniform List<scalar> 
1596
(
-0.137202
-0.252998
-0.344269
-0.426974
-0.500063
-0.573689
-0.642188
-0.71665
-0.800209
-0.894825
-1.02785
-1.19735
-1.43905
-1.79317
-2.35866
-3.25473
-4.87257
-7.86924
-18.5878
-0.415368
-0.506596
-0.560885
-0.603401
-0.637195
-0.674717
-0.712112
-0.760228
-0.822677
-0.899523
-1.01439
-1.16325
-1.3705
-1.65432
-2.06614
-2.63004
-3.47738
-4.72761
-8.27665
-0.736196
-0.758799
-0.760265
-0.757529
-0.751226
-0.752772
-0.758588
-0.778601
-0.815822
-0.869052
-0.958181
-1.07712
-1.24312
-1.46444
-1.77282
-2.17025
-2.72872
-3.49672
-5.13876
-1.06289
-0.99728
-0.939437
-0.890148
-0.844702
-0.811441
-0.786461
-0.778162
-0.788768
-0.816266
-0.877118
-0.964229
-1.09003
-1.25775
-1.48808
-1.77452
-2.16007
-2.66294
-3.51848
-1.35223
-1.20819
-1.09589
-1.00355
-0.922164
-0.856624
-0.802822
-0.767398
-0.751931
-0.754011
-0.787033
-0.843874
-0.933611
-1.05701
-1.22837
-1.43858
-1.71545
-2.06376
-2.56893
-1.56932
-1.37951
-1.22756
-1.10028
-0.988395
-0.894447
-0.814785
-0.754459
-0.714681
-0.693022
-0.700158
-0.729584
-0.787907
-0.874743
-1.00039
-1.15571
-1.3598
-1.61174
-1.94345
-1.69971
-1.50326
-1.33211
-1.18151
-1.04646
-0.929168
-0.82739
-0.745101
-0.683503
-0.640481
-0.62435
-0.629567
-0.660829
-0.717231
-0.806343
-0.919985
-1.07185
-1.2589
-1.49328
-1.74961
-1.57615
-1.40616
-1.2455
-1.09602
-0.961495
-0.842073
-0.741378
-0.660988
-0.599397
-0.56297
-0.547262
-0.555453
-0.586408
-0.645656
-0.726301
-0.838343
-0.978328
-1.15079
-1.73903
-1.60816
-1.45517
-1.29615
-1.14029
-0.994295
-0.861327
-0.745462
-0.649031
-0.571385
-0.517408
-0.483742
-0.472374
-0.482059
-0.516683
-0.570582
-0.650999
-0.754749
-0.883294
-1.68338
-1.59516
-1.46836
-1.32133
-1.16783
-1.01753
-0.876596
-0.750177
-0.641642
-0.551369
-0.483277
-0.43501
-0.407687
-0.400011
-0.414555
-0.446733
-0.501692
-0.576787
-0.672277
-1.62309
-1.56268
-1.46021
-1.32882
-1.18266
-1.03299
-0.888323
-0.755061
-0.637716
-0.53777
-0.458621
-0.398798
-0.358822
-0.337375
-0.335954
-0.350804
-0.385398
-0.437572
-0.507104
-1.55571
-1.52259
-1.44203
-1.3265
-1.18966
-1.0434
-0.897722
-0.760234
-0.636541
-0.5292
-0.441443
-0.372551
-0.322673
-0.290477
-0.276596
-0.277874
-0.296429
-0.330461
-0.379523
-1.47726
-1.46767
-1.40737
-1.3078
-1.18187
-1.04166
-0.897968
-0.759348
-0.632318
-0.520378
-0.426847
-0.351622
-0.294665
-0.254656
-0.231576
-0.222687
-0.22907
-0.249177
-0.282456
-1.41162
-1.41362
-1.36781
-1.28141
-1.16543
-1.03169
-0.891182
-0.753141
-0.624755
-0.510263
-0.413186
-0.333874
-0.272219
-0.226907
-0.19743
-0.181312
-0.178845
-0.188616
-0.21
-1.35397
-1.36471
-1.32878
-1.25207
-1.14403
-1.01596
-0.878761
-0.742092
-0.613594
-0.498032
-0.399135
-0.317557
-0.253157
-0.204612
-0.171046
-0.150128
-0.14156
-0.143991
-0.156731
-1.2992
-1.31903
-1.29083
-1.22117
-1.11897
-0.995336
-0.861036
-0.726034
-0.598245
-0.482764
-0.383468
-0.301165
-0.235676
-0.185634
-0.149876
-0.126139
-0.113691
-0.111199
-0.117922
-1.25146
-1.27751
-1.25507
-1.19023
-1.0918
-0.971044
-0.838807
-0.705313
-0.57865
-0.464075
-0.365506
-0.283759
-0.218564
-0.168461
-0.132048
-0.107069
-0.0924825
-0.0869445
-0.0896795
-1.21134
-1.242
-1.22365
-1.1617
-1.06508
-0.945472
-0.814079
-0.681462
-0.555865
-0.442594
-0.345479
-0.265215
-0.201356
-0.152291
-0.116388
-0.091356
-0.0759217
-0.0687236
-0.0689598
-1.17023
-1.21157
-1.19842
-1.13868
-1.04242
-0.922272
-0.790227
-0.657373
-0.532208
-0.420064
-0.324582
-0.246235
-0.184307
-0.136965
-0.102334
-0.078048
-0.0626455
-0.0547393
-0.0535067
-1.12597
-1.181
-1.17516
-1.11816
-1.0218
-0.900174
-0.766487
-0.632623
-0.507458
-0.396359
-0.302715
-0.226683
-0.167196
-0.122134
-0.0893594
-0.0664044
-0.0516526
-0.0436936
-0.0416944
-1.0882
-1.15392
-1.15557
-1.1015
-1.00463
-0.880654
-0.744327
-0.60858
-0.482818
-0.372485
-0.280661
-0.207121
-0.15036
-0.107918
-0.0773638
-0.0561029
-0.0423808
-0.0347691
-0.0324421
-1.05386
-1.13056
-1.13988
-1.08898
-0.991485
-0.864645
-0.724938
-0.586547
-0.459571
-0.349603
-0.259394
-0.188301
-0.134325
-0.0946208
-0.0664431
-0.0470429
-0.034524
-0.0274367
-0.0250011
-1.02038
-1.10967
-1.12743
-1.08021
-0.982325
-0.852498
-0.709028
-0.56748
-0.438776
-0.328746
-0.239828
-0.170962
-0.119633
-0.0825934
-0.0567765
-0.0392575
-0.0279658
-0.0213674
-0.0187655
-0.98867
-1.09068
-1.11689
-1.07317
-0.974661
-0.841451
-0.693846
-0.548753
-0.418021
-0.307786
-0.220041
-0.153421
-0.104815
-0.0705678
-0.0472661
-0.0318379
-0.0219584
-0.0158505
-0.0123032
-0.961467
-1.07571
-1.11335
-1.07852
-0.986041
-0.855787
-0.708853
-0.562703
-0.430021
-0.317681
-0.22779
-0.159411
-0.10934
-0.0739875
-0.0498602
-0.0339113
-0.023606
-0.0170056
-0.0124401
-0.941116
-1.06369
-1.11035
-1.08472
-1.0004
-0.876091
-0.732469
-0.586993
-0.452887
-0.337854
-0.24454
-0.172708
-0.119455
-0.0813938
-0.05509
-0.0375755
-0.026229
-0.0191199
-0.0146386
-0.938743
-1.06293
-1.11382
-1.09444
-1.01698
-0.898786
-0.75937
-0.615741
-0.481197
-0.363979
-0.267354
-0.191726
-0.134639
-0.0930364
-0.063695
-0.0438009
-0.0307443
-0.0225458
-0.017482
-0.956703
-1.07557
-1.12476
-1.10726
-1.03408
-0.921041
-0.786134
-0.645364
-0.511616
-0.393305
-0.294114
-0.215037
-0.154062
-0.108519
-0.0754888
-0.0524715
-0.0370014
-0.0271413
-0.0210263
-0.992152
-1.10154
-1.14436
-1.12499
-1.05369
-0.944717
-0.814325
-0.677137
-0.545237
-0.426892
-0.325967
-0.243959
-0.179231
-0.129472
-0.0920767
-0.064996
-0.0461028
-0.0337177
-0.02589
-1.04329
-1.13795
-1.17071
-1.14683
-1.0757
-0.970001
-0.844172
-0.711239
-0.58222
-0.464989
-0.363382
-0.279303
-0.211396
-0.157594
-0.115453
-0.08338
-0.0597626
-0.0435751
-0.0330283
-1.10854
-1.18437
-1.20524
-1.17538
-1.10327
-1.0001
-0.878587
-0.750117
-0.624546
-0.509214
-0.407785
-0.32253
-0.252305
-0.195162
-0.14849
-0.110852
-0.0810068
-0.0590727
-0.0440925
-1.17581
-1.23602
-1.24557
-1.20952
-1.13605
-1.0351
-0.917848
-0.794086
-0.672488
-0.559797
-0.459433
-0.374054
-0.302798
-0.243867
-0.194183
-0.151853
-0.115043
-0.084795
-0.06222
-1.25049
-1.29467
-1.29241
-1.24962
-1.17426
-1.07514
-0.961985
-0.843061
-0.725852
-0.616448
-0.517942
-0.43341
-0.362463
-0.303825
-0.254148
-0.210883
-0.169972
-0.131049
-0.0939776
-1.33661
-1.36326
-1.34866
-1.29898
-1.22175
-1.1247
-1.01605
-0.902624
-0.790699
-0.685616
-0.590177
-0.507683
-0.438441
-0.382286
-0.336737
-0.299848
-0.266201
-0.233093
-0.197119
-1.43001
-1.4378
-1.40796
-1.3481
-1.26558
-1.16729
-1.06007
-0.949566
-0.840968
-0.738649
-0.645203
-0.563511
-0.494315
-0.438184
-0.394253
-0.362347
-0.339409
-0.323231
-0.309978
-1.53424
-1.51727
-1.46834
-1.3952
-1.30439
-1.20194
-1.0934
-0.983604
-0.876884
-0.776764
-0.685768
-0.606127
-0.538622
-0.483667
-0.440898
-0.410055
-0.389878
-0.37975
-0.378615
-1.64875
-1.60277
-1.53389
-1.44727
-1.34782
-1.24041
-1.12958
-1.01945
-0.913739
-0.815431
-0.726873
-0.649883
-0.585101
-0.532677
-0.492074
-0.462297
-0.441616
-0.428339
-0.420408
-1.75028
-1.67868
-1.59214
-1.4934
-1.38599
-1.27376
-1.1605
-1.04967
-0.944488
-0.847496
-0.760749
-0.68579
-0.623065
-0.572558
-0.533646
-0.50524
-0.485644
-0.47323
-0.466055
-1.8291
-1.74068
-1.64135
-1.5334
-1.41981
-1.3038
-1.18862
-1.07726
-0.972551
-0.876684
-0.791493
-0.718308
-0.657439
-0.608764
-0.571631
-0.544881
-0.526856
-0.515903
-0.510093
-1.89065
-1.78965
-1.68065
-1.56569
-1.44735
-1.32843
-1.21178
-1.10002
-0.995683
-0.900708
-0.816771
-0.745031
-0.685703
-0.638582
-0.602995
-0.577719
-0.561121
-0.551524
-0.547011
-1.9352
-1.82487
-1.70862
-1.58851
-1.46676
-1.3458
-1.22813
-1.11612
-1.01208
-0.917771
-0.83476
-0.764089
-0.70591
-0.659959
-0.62554
-0.601377
-0.585836
-0.577207
-0.573559
-1.96547
-1.84529
-1.72352
-1.60014
-1.47644
-1.3544
-1.23624
-1.12416
-1.02035
-0.926453
-0.843989
-0.77394
-0.716425
-0.671156
-0.637436
-0.613972
-0.599148
-0.591246
-0.588334
-1.96548
-1.84531
-1.72354
-1.60016
-1.47647
-1.35443
-1.23627
-1.12419
-1.02038
-0.926485
-0.844021
-0.773973
-0.71646
-0.671191
-0.637473
-0.614011
-0.599188
-0.591288
-0.588379
-1.93522
-1.8249
-1.70866
-1.58857
-1.46683
-1.34587
-1.22821
-1.1162
-1.01217
-0.917863
-0.834854
-0.764186
-0.70601
-0.660062
-0.625649
-0.601491
-0.585959
-0.57734
-0.573704
-1.89067
-1.7897
-1.68073
-1.56579
-1.44746
-1.32855
-1.21191
-1.10015
-0.995825
-0.900856
-0.816923
-0.745187
-0.685863
-0.638748
-0.603168
-0.577902
-0.561314
-0.551732
-0.547233
-1.82913
-1.74074
-1.64144
-1.53352
-1.41994
-1.30395
-1.18879
-1.07744
-0.972737
-0.876876
-0.79169
-0.718509
-0.657645
-0.608976
-0.571851
-0.54511
-0.527096
-0.516158
-0.510364
-1.7503
-1.67875
-1.59225
-1.49354
-1.38615
-1.27395
-1.1607
-1.04989
-0.944712
-0.847728
-0.760986
-0.686032
-0.623312
-0.572809
-0.533904
-0.505506
-0.485922
-0.473522
-0.466364
-1.64879
-1.60286
-1.53401
-1.44742
-1.348
-1.24062
-1.12981
-1.01969
-0.913993
-0.815693
-0.72714
-0.650153
-0.585373
-0.532952
-0.492352
-0.462578
-0.441903
-0.428632
-0.42071
-1.53427
-1.51737
-1.46849
-1.3954
-1.30464
-1.20223
-1.09372
-0.983955
-0.877256
-0.77715
-0.686166
-0.606532
-0.539036
-0.484088
-0.441329
-0.410488
-0.390302
-0.380139
-0.378932
-1.43003
-1.43782
-1.40799
-1.34817
-1.26569
-1.16744
-1.06025
-0.94978
-0.841203
-0.738891
-0.645442
-0.563733
-0.49451
-0.438343
-0.394376
-0.362446
-0.339533
-0.323467
-0.310462
-1.33662
-1.36333
-1.3488
-1.2992
-1.22206
-1.1251
-1.01652
-0.90316
-0.79128
-0.686222
-0.590792
-0.508293
-0.439042
-0.382883
-0.337349
-0.300511
-0.266964
-0.234006
-0.198216
-1.25049
-1.29469
-1.29247
-1.24975
-1.17446
-1.07541
-0.962318
-0.843443
-0.726264
-0.616872
-0.518363
-0.433818
-0.362855
-0.304207
-0.254531
-0.21128
-0.170376
-0.131427
-0.0942649
-1.1758
-1.23603
-1.24562
-1.20964
-1.13624
-1.03536
-0.918171
-0.794455
-0.672882
-0.560197
-0.459823
-0.374425
-0.303148
-0.244197
-0.194499
-0.152154
-0.115315
-0.0850184
-0.0623824
-1.10853
-1.18437
-1.20528
-1.17548
-1.10344
-1.00034
-0.878888
-0.750459
-0.624908
-0.509575
-0.40813
-0.322851
-0.252599
-0.195429
-0.148732
-0.111065
-0.0811855
-0.059212
-0.0441918
-1.04329
-1.13794
-1.17073
-1.14691
-1.07585
-0.970223
-0.84445
-0.711552
-0.582547
-0.465311
-0.363683
-0.279576
-0.211637
-0.157805
-0.115633
-0.0835305
-0.0598826
-0.0436661
-0.0330935
-0.992138
-1.10152
-1.14437
-1.12506
-1.05382
-0.944917
-0.814576
-0.677419
-0.545527
-0.427173
-0.326224
-0.244186
-0.179426
-0.129636
-0.0922117
-0.0651037
-0.0461858
-0.03378
-0.0259353
-0.95669
-1.07555
-1.12477
-1.10731
-1.0342
-0.921219
-0.786357
-0.645612
-0.511868
-0.393544
-0.294329
-0.215223
-0.154218
-0.108646
-0.0755899
-0.0525497
-0.0370607
-0.027186
-0.02106
-0.938729
-1.06291
-1.11382
-1.09449
-1.01709
-0.898942
-0.759564
-0.615954
-0.481412
-0.364179
-0.267531
-0.191876
-0.134762
-0.093135
-0.0637718
-0.0438594
-0.0307884
-0.0225799
-0.0175097
-0.941102
-1.06366
-1.11034
-1.08475
-1.00047
-0.876207
-0.732613
-0.587151
-0.453045
-0.338001
-0.244668
-0.172816
-0.119542
-0.0814626
-0.0551426
-0.037615
-0.0262587
-0.0191438
-0.0146614
-0.96148
-1.07571
-1.11337
-1.07855
-0.986084
-0.855844
-0.708921
-0.562777
-0.430096
-0.317752
-0.227856
-0.15947
-0.109391
-0.07403
-0.0498953
-0.0339403
-0.0236297
-0.0170246
-0.0124523
-0.988685
-1.09069
-1.11689
-1.07316
-0.974631
-0.841407
-0.693793
-0.548697
-0.417965
-0.307736
-0.219998
-0.153386
-0.104788
-0.0705471
-0.0472507
-0.0318265
-0.0219497
-0.0158429
-0.0122933
-1.02039
-1.10968
-1.12743
-1.08021
-0.982324
-0.852495
-0.709025
-0.567478
-0.438777
-0.328748
-0.239831
-0.170965
-0.119636
-0.0825966
-0.0567793
-0.0392597
-0.0279676
-0.0213689
-0.0187661
-1.05386
-1.13057
-1.13988
-1.08898
-0.991479
-0.864638
-0.724932
-0.586543
-0.459569
-0.349603
-0.259395
-0.188302
-0.134327
-0.0946224
-0.0664445
-0.0470443
-0.0345253
-0.0274379
-0.0250019
-1.0882
-1.15392
-1.15557
-1.1015
-1.00462
-0.880649
-0.744323
-0.608577
-0.482816
-0.372485
-0.280662
-0.207122
-0.150361
-0.107919
-0.0773647
-0.0561039
-0.042382
-0.0347705
-0.0324434
-1.12597
-1.18101
-1.17516
-1.11816
-1.0218
-0.900171
-0.766485
-0.632622
-0.507457
-0.396359
-0.302715
-0.226683
-0.167196
-0.122134
-0.0893599
-0.0664053
-0.0516541
-0.0436956
-0.0416963
-1.17023
-1.21158
-1.19842
-1.13868
-1.04242
-0.92227
-0.790225
-0.657373
-0.532208
-0.420063
-0.324582
-0.246235
-0.184307
-0.136965
-0.102334
-0.078049
-0.0626474
-0.0547419
-0.0535093
-1.21134
-1.242
-1.22365
-1.1617
-1.06508
-0.945471
-0.814079
-0.681462
-0.555864
-0.442593
-0.345478
-0.265213
-0.201355
-0.15229
-0.116388
-0.0913573
-0.0759242
-0.0687271
-0.068963
-1.25146
-1.27751
-1.25507
-1.19022
-1.0918
-0.971044
-0.838807
-0.705313
-0.578649
-0.464073
-0.365504
-0.283757
-0.218562
-0.16846
-0.132049
-0.107071
-0.0924856
-0.0869487
-0.0896832
-1.2992
-1.31903
-1.29083
-1.22117
-1.11897
-0.995337
-0.861037
-0.726034
-0.598244
-0.482762
-0.383466
-0.301162
-0.235674
-0.185633
-0.149877
-0.126141
-0.113695
-0.111203
-0.117925
-1.35397
-1.36471
-1.32877
-1.25207
-1.14404
-1.01597
-0.878762
-0.742092
-0.613593
-0.49803
-0.399132
-0.317554
-0.253155
-0.204611
-0.171046
-0.150131
-0.141564
-0.143995
-0.156733
-1.41162
-1.41362
-1.36781
-1.28141
-1.16544
-1.0317
-0.891183
-0.75314
-0.624753
-0.51026
-0.413183
-0.333871
-0.272217
-0.226906
-0.197431
-0.181315
-0.178848
-0.188619
-0.210001
-1.47725
-1.46767
-1.40737
-1.30781
-1.18187
-1.04166
-0.897968
-0.759347
-0.632315
-0.520375
-0.426844
-0.351619
-0.294663
-0.254656
-0.231578
-0.222689
-0.229071
-0.249176
-0.282454
-1.5557
-1.52259
-1.44203
-1.3265
-1.18966
-1.0434
-0.897722
-0.760232
-0.636537
-0.529197
-0.441439
-0.372549
-0.322672
-0.290477
-0.276598
-0.277875
-0.296428
-0.330457
-0.379518
-1.62308
-1.56268
-1.46021
-1.32882
-1.18266
-1.033
-0.888323
-0.755059
-0.637713
-0.537767
-0.458619
-0.398796
-0.358821
-0.337375
-0.335955
-0.350803
-0.385393
-0.437564
-0.507096
-1.68337
-1.59516
-1.46837
-1.32134
-1.16784
-1.01753
-0.876595
-0.750176
-0.641639
-0.551366
-0.483276
-0.43501
-0.407687
-0.400012
-0.414555
-0.446729
-0.501684
-0.576775
-0.672269
-1.73902
-1.60816
-1.45518
-1.29615
-1.14029
-0.994295
-0.861326
-0.74546
-0.64903
-0.571384
-0.517408
-0.483743
-0.472375
-0.482059
-0.516681
-0.570576
-0.650988
-0.754735
-0.883288
-1.74961
-1.57615
-1.40616
-1.2455
-1.09602
-0.961494
-0.842072
-0.741377
-0.660987
-0.599398
-0.562972
-0.547264
-0.555454
-0.586408
-0.645653
-0.726293
-0.838332
-0.978316
-1.15079
-1.69972
-1.50327
-1.33211
-1.18151
-1.04646
-0.929168
-0.82739
-0.745102
-0.683505
-0.640484
-0.624353
-0.62957
-0.660831
-0.71723
-0.806338
-0.919977
-1.07184
-1.25889
-1.49328
-1.56932
-1.37952
-1.22756
-1.10028
-0.988396
-0.894448
-0.814787
-0.754462
-0.714684
-0.693026
-0.700162
-0.729587
-0.787908
-0.87474
-1.00039
-1.1557
-1.3598
-1.61174
-1.94346
-1.35224
-1.20819
-1.09589
-1.00355
-0.922167
-0.856627
-0.802826
-0.767403
-0.751936
-0.754016
-0.787037
-0.843876
-0.933611
-1.05701
-1.22836
-1.43858
-1.71544
-2.06376
-2.56894
-1.06289
-0.997281
-0.939438
-0.89015
-0.844705
-0.811445
-0.786466
-0.778167
-0.788773
-0.816271
-0.877122
-0.96423
-1.09003
-1.25774
-1.48807
-1.77452
-2.16007
-2.66294
-3.51849
-0.736199
-0.758798
-0.760265
-0.75753
-0.751229
-0.752776
-0.758593
-0.778606
-0.815827
-0.869057
-0.958185
-1.07712
-1.24312
-1.46444
-1.77281
-2.17025
-2.72872
-3.49673
-5.13876
-0.41537
-0.506594
-0.560884
-0.603401
-0.637196
-0.674719
-0.712115
-0.760232
-0.822682
-0.899527
-1.01439
-1.16326
-1.37049
-1.65431
-2.06614
-2.63004
-3.47738
-4.72761
-8.27664
-0.137203
-0.252998
-0.344268
-0.426973
-0.500063
-0.573689
-0.642189
-0.716651
-0.800211
-0.894827
-1.02785
-1.19735
-1.43905
-1.79316
-2.35866
-3.25472
-4.87257
-7.86924
-18.5878
)
;

boundaryField
{
    up
    {
        type            calculated;
        value           nonuniform List<scalar> 
84
(
-16.8453
-9.12343
-5.58974
-3.78799
-2.74762
-2.0712
-1.58883
-1.22373
-0.938909
-0.714302
-0.53813
-0.401782
-0.297975
-0.220436
-0.163475
-0.12209
-0.0921139
-0.0702675
-0.0541047
-0.0418679
-0.0323725
-0.0247818
-0.0182669
-0.0108531
-0.0104107
-0.0134263
-0.0161125
-0.0193345
-0.0236744
-0.0299807
-0.0395958
-0.0545197
-0.0809793
-0.190379
-0.314063
-0.381267
-0.41752
-0.463615
-0.508283
-0.545801
-0.572755
-0.587905
-0.587951
-0.572906
-0.546031
-0.508562
-0.463932
-0.417826
-0.381516
-0.31458
-0.191639
-0.0812525
-0.0546569
-0.0396806
-0.0300369
-0.0237139
-0.0193646
-0.0161379
-0.0134534
-0.0104244
-0.0108412
-0.0182664
-0.0247822
-0.0323735
-0.0418695
-0.0541069
-0.0702702
-0.0921169
-0.122092
-0.163477
-0.220436
-0.297972
-0.401777
-0.538124
-0.714298
-0.938909
-1.22373
-1.58885
-2.07121
-2.74763
-3.788
-5.58974
-9.12342
-16.8453
)
;
    }
    low
    {
        type            calculated;
        value           nonuniform List<scalar> 
84
(
-0.147438
-0.4348
-0.777741
-1.13165
-1.44565
-1.67798
-1.81023
-1.85106
-1.81962
-1.73857
-1.66584
-1.58692
-1.49238
-1.41847
-1.35637
-1.29467
-1.24063
-1.19871
-1.15311
-1.09842
-1.05213
-1.0107
-0.968625
-0.928788
-0.888123
-0.861462
-0.85992
-0.88707
-0.934667
-1.00088
-1.07947
-1.15552
-1.23982
-1.33661
-1.43853
-1.5538
-1.68329
-1.7937
-1.87729
-1.94274
-1.99047
-2.02576
-2.02577
-1.99048
-1.94275
-1.8773
-1.79371
-1.68331
-1.55382
-1.43852
-1.33662
-1.2398
-1.15551
-1.07946
-1.00087
-0.934656
-0.887065
-0.859916
-0.861462
-0.888128
-0.928811
-0.968625
-1.01071
-1.05214
-1.09842
-1.15311
-1.19872
-1.24063
-1.29467
-1.35637
-1.41846
-1.49237
-1.58692
-1.66583
-1.73856
-1.81962
-1.85106
-1.81023
-1.67799
-1.44566
-1.13166
-0.777748
-0.434804
-0.14744
)
;
    }
    left
    {
        type            calculated;
        value           nonuniform List<scalar> 
19
(
-0.134736
-0.248696
-0.342108
-0.427999
-0.504631
-0.58168
-0.653515
-0.731734
-0.819465
-0.92019
-1.06243
-1.24526
-1.50922
-1.90243
-2.53578
-3.55552
-5.41687
-8.90366
-17.4698
)
;
    }
    right
    {
        type            calculated;
        value           nonuniform List<scalar> 
19
(
-0.134737
-0.248696
-0.342107
-0.427998
-0.50463
-0.58168
-0.653516
-0.731735
-0.819467
-0.920191
-1.06243
-1.24526
-1.50922
-1.90242
-2.53577
-3.55552
-5.41687
-8.90366
-17.4698
)
;
    }
    frontAndBackPlanes
    {
        type            empty;
    }
}


// ************************************************************************* //
