/*--------------------------------*- C++ -*----------------------------------*\
  =========                 |
  \\      /  F ield         | OpenFOAM: The Open Source CFD Toolbox
   \\    /   O peration     | Website:  https://openfoam.org
    \\  /    A nd           | Version:  7
     \\/     M anipulation  |
\*---------------------------------------------------------------------------*/
FoamFile
{
    version     2.0;
    format      ascii;
    class       volScalarField;
    location    "0.13";
    object      gradTz;
}
// * * * * * * * * * * * * * * * * * * * * * * * * * * * * * * * * * * * * * //

dimensions      [0 -1 0 1 0 0 0];

internalField   nonuniform List<scalar> 
1596
(
-1.61341e-16
-7.75519e-17
7.97886e-17
2.62836e-18
-1.49432e-16
0
-6.82187e-17
-6.72876e-17
-5.80725e-18
-3.61682e-17
-2.39764e-19
-3.62325e-17
1.61318e-16
-3.61167e-17
1.68186e-16
1.45586e-16
8.67224e-17
1.09863e-16
0
1.60174e-16
0
2.19462e-16
-2.21568e-18
-6.47706e-17
6.39824e-17
1.35421e-16
5.62075e-18
6.34594e-17
-3.0882e-17
6.1849e-17
-6.90941e-19
-8.61692e-17
-5.42098e-17
-1.35845e-16
-1.33019e-16
-1.21331e-16
6.93041e-17
0
-7.71221e-17
0
-1.40129e-16
3.49419e-18
1.23039e-16
-3.71358e-17
4.12107e-18
-8.28004e-19
-7.2463e-19
-6.89298e-19
2.11781e-17
0
4.46616e-17
1.25651e-16
-1.24698e-17
1.02877e-17
2.40613e-17
3.84374e-17
0
1.22997e-16
-3.49491e-17
3.48214e-17
0
-3.27943e-17
-3.4651e-17
5.48738e-17
-4.48744e-17
0
0
-1.99691e-17
1.10979e-17
0
-3.64206e-17
-4.5202e-17
3.1938e-17
-3.4497e-17
-1.76455e-18
0
2.16999e-17
5.42985e-17
-4.6136e-17
0
-1.27068e-17
-3.92378e-17
0
5.66307e-17
-5.47232e-18
-4.96377e-18
-7.69307e-18
2.83808e-17
3.61569e-17
4.02441e-18
3.3728e-18
-3.45141e-17
1.71976e-18
1.61193e-17
-7.13863e-18
-5.63511e-18
-7.41419e-17
6.74034e-17
-5.54167e-17
-1.77571e-19
-4.46169e-17
1.22588e-18
-1.22995e-18
-3.24763e-17
0
-6.36032e-18
-3.38108e-17
-3.25683e-17
2.51807e-17
2.92186e-17
-3.90781e-19
-1.757e-17
-1.63496e-17
1.26626e-17
4.70936e-17
-7.507e-17
7.93623e-17
4.22714e-17
0
3.4607e-17
1.89983e-17
-8.96484e-18
4.08802e-17
-7.42426e-18
-3.27172e-17
2.24031e-19
-1.84264e-17
-2.52776e-17
-1.87477e-17
1.66952e-17
1.77246e-17
-2.41509e-19
-5.18935e-18
6.63403e-18
1.20358e-16
-1.32947e-16
0
0
-4.03526e-17
0
0
0
2.30646e-17
0
0
1.71691e-17
4.53657e-19
6.3416e-18
-1.47528e-17
0
7.84733e-18
3.27333e-18
0
-7.56052e-17
1.43319e-16
0
0
4.15576e-17
0
-1.35534e-17
1.35397e-17
-2.34764e-17
9.22435e-18
-9.29181e-18
0
1.3252e-17
1.50267e-17
0
-8.61917e-18
-8.00931e-18
-2.89061e-18
1.96494e-16
-8.99951e-17
0
-5.36482e-17
5.30478e-17
0
3.25855e-17
0
0
0
7.86024e-18
-7.89792e-18
0
-1.03576e-17
-2.80545e-18
0
1.79449e-18
4.65002e-18
0
-4.99193e-17
0
0
5.40082e-17
-9.74414e-17
7.74562e-18
3.06302e-18
-1.18956e-17
2.08238e-18
8.14927e-19
-8.07293e-18
-1.17437e-17
0
8.61525e-18
-1.89473e-18
1.92316e-18
5.87093e-18
-3.72795e-18
-1.61186e-18
3.7583e-17
-6.30671e-18
3.62892e-17
1.14835e-16
-9.46522e-18
-4.39103e-17
0
0
0
1.6821e-17
6.00384e-18
2.08513e-17
-4.98149e-18
-8.46113e-18
-4.46712e-18
-2.71344e-18
1.23675e-18
-2.78395e-18
1.51406e-18
-4.40657e-17
4.33458e-17
-7.78784e-17
-1.13642e-16
1.0178e-16
3.51036e-17
-6.23369e-17
4.92315e-17
-3.87172e-17
1.02325e-17
6.69532e-18
-5.75242e-18
2.93688e-18
-2.85033e-18
8.66387e-18
0
-6.82014e-19
5.24844e-18
-7.9337e-19
-2.97762e-16
1.33074e-16
9.52191e-20
-2.41047e-17
5.04609e-18
3.41355e-17
-6.33625e-17
-2.31191e-17
1.78079e-17
-1.36004e-17
-1.04384e-17
0
-1.02889e-17
-2.94336e-18
-4.78815e-18
-2.79227e-18
2.16571e-19
-2.88678e-18
1.73914e-19
4.86539e-17
-4.1502e-17
2.49029e-20
-2.85807e-17
-6.48721e-17
5.9562e-17
3.32436e-19
2.25296e-17
-1.73383e-17
2.59055e-17
5.81841e-18
4.30612e-18
1.14535e-17
0
8.3918e-18
3.79414e-18
0
1.44199e-18
1.27029e-19
0
4.02618e-17
2.82076e-17
-6.07122e-17
6.26917e-17
-8.92898e-17
5.90513e-17
1.87152e-17
-4.39499e-18
-2.6207e-17
3.91473e-18
-3.89542e-18
-9.98261e-18
3.50951e-18
-1.83135e-18
-3.5381e-18
1.37753e-18
-8.69321e-19
4.19339e-19
-4.52524e-17
1.43232e-16
-1.07728e-16
5.27865e-17
0
0
-1.02221e-17
2.28245e-17
-1.30586e-17
2.36819e-17
0
0
6.44456e-18
-5.25767e-18
-3.1789e-18
1.00699e-18
-1.08682e-18
5.92854e-19
0
5.53264e-18
4.2353e-17
-3.08483e-17
-2.55216e-17
-3.63608e-17
-8.27433e-18
1.55328e-17
0
-1.20148e-17
-8.33406e-18
7.10162e-18
-5.07387e-18
3.60597e-18
0
1.27167e-18
2.10234e-18
0
0
0
-5.37824e-18
6.05762e-17
1.93309e-17
-7.75811e-17
1.91584e-17
1.5242e-17
0
0
1.1045e-17
-5.88952e-18
-6.86881e-18
4.90736e-18
-3.48724e-18
0
-6.85125e-19
4.97974e-19
0
-4.10031e-19
-1.46113e-19
-3.4448e-17
1.01177e-16
-1.173e-16
-4.12942e-17
2.23752e-17
-1.39539e-17
1.05388e-17
0
-5.65468e-18
4.29792e-18
0
0
1.20094e-18
-1.20233e-18
2.82014e-19
-4.43633e-19
5.49519e-19
1.04736e-19
1.11005e-19
1.8645e-17
-1.59239e-17
7.47788e-17
-4.76259e-17
-1.68665e-17
3.14009e-18
2.25154e-17
7.11354e-18
5.41068e-18
0
2.18899e-18
-1.98989e-18
1.37257e-18
-1.01974e-18
1.02546e-18
-1.63747e-18
-4.2462e-19
3.57642e-19
8.66513e-20
4.81568e-17
-4.97171e-17
0
3.6365e-17
-1.98956e-17
-1.23666e-17
6.52195e-18
-2.2484e-17
0
-3.92814e-19
-2.7811e-18
-1.62953e-18
1.95677e-18
-2.24084e-19
-9.91087e-19
6.53027e-19
0
1.88574e-19
-8.41377e-20
8.68037e-17
-1.42346e-17
5.47215e-17
-4.2521e-17
1.89619e-17
-7.31574e-19
-1.96987e-17
-5.16778e-18
8.74451e-18
-5.32191e-19
-3.5353e-18
2.73555e-18
-1.09142e-18
-1.12982e-18
0
0
0
-1.90007e-19
6.71466e-21
-7.42339e-17
7.14752e-17
4.4166e-20
9.08416e-18
7.0818e-18
-1.46256e-17
1.58808e-17
-1.13684e-17
8.56989e-18
-2.16271e-18
3.98905e-18
1.12479e-18
-4.24781e-19
2.14176e-20
-9.3833e-20
-1.69366e-19
0
0
0
0
0
3.01627e-17
-1.77964e-17
-4.18997e-17
0
0
-3.27612e-18
-4.49591e-18
3.24716e-18
0
-1.41856e-18
9.3524e-19
-2.56681e-18
2.83522e-18
-7.50814e-19
7.93108e-19
7.81479e-20
0
-1.43467e-17
1.45233e-17
0
-9.77749e-18
9.72018e-18
1.40337e-17
0
3.3074e-18
3.14437e-18
-1.52789e-17
0
-1.67417e-18
1.11564e-18
6.53877e-19
-4.22441e-19
5.61631e-19
0
-1.74992e-19
0
-7.38959e-18
-6.9551e-18
4.10645e-19
1.00461e-17
-2.45702e-17
0
-5.08587e-18
0
1.0802e-17
3.67056e-18
0
6.61878e-18
-6.21442e-18
7.81605e-19
-8.42017e-19
4.27345e-19
1.08813e-18
3.53125e-19
-2.80197e-19
0
1.48757e-17
-1.18083e-17
1.44369e-17
1.52972e-17
0
1.01335e-17
-9.13099e-18
-5.89466e-18
7.36188e-18
-1.08895e-17
-4.31207e-18
0
0
5.876e-19
0
0
1.32264e-19
0
-6.78752e-17
5.25183e-17
0
1.17037e-18
-8.63562e-18
-4.33548e-19
6.72286e-18
3.78816e-18
-5.46489e-18
-1.05112e-17
1.41787e-17
-3.96107e-18
0
-1.30875e-18
0
0
0
-5.17762e-19
4.15723e-19
-1.96567e-17
1.75548e-17
4.34303e-17
-4.14111e-17
1.18925e-17
9.53719e-19
-6.81071e-18
5.2498e-18
7.92346e-18
5.22413e-18
-1.01944e-17
0
3.70105e-18
2.19225e-21
-1.49765e-18
-2.66154e-18
2.12474e-18
-2.60905e-19
5.32084e-19
-6.81949e-17
8.97293e-17
-8.79567e-17
1.42696e-17
1.09801e-17
-1.00312e-17
8.01124e-18
-5.53684e-18
0
-3.88292e-18
5.18894e-18
2.20552e-18
3.21776e-18
3.28206e-18
-4.74545e-18
-2.08741e-19
0
-2.38526e-19
8.20631e-20
-7.37135e-17
-2.05074e-17
-3.33101e-17
1.82923e-17
-2.62578e-17
2.09642e-17
-1.19985e-17
8.98736e-18
-9.60924e-19
-9.1939e-19
-5.89747e-18
3.72923e-18
-1.37702e-18
4.49933e-18
-4.83008e-18
3.67295e-19
4.38709e-19
0
-1.50947e-19
7.97005e-17
-2.22576e-17
0
0
-2.69447e-17
5.11325e-17
-1.13279e-17
-1.86878e-18
1.44148e-17
-4.29587e-19
0
0
-2.34203e-18
0
-4.46273e-18
1.02157e-17
-6.87968e-18
0
6.67692e-20
2.66637e-17
4.79568e-17
0
-1.87417e-17
-1.37117e-17
-1.08936e-17
-1.18998e-17
4.3982e-18
-1.17661e-17
-5.74749e-18
0
0
3.79553e-18
0
0
-6.50397e-18
1.08626e-17
0
0
1.83132e-16
-2.45725e-17
-1.0481e-16
-5.20392e-17
7.10298e-17
2.08191e-17
1.15383e-17
0
-3.71685e-18
3.26666e-18
8.20588e-18
-2.55246e-18
-3.33061e-18
5.02841e-18
-5.34868e-18
-1.44658e-18
0
0
0
1.46644e-17
-1.10268e-16
1.07646e-16
-9.76316e-18
-7.06114e-17
1.07775e-16
-5.26815e-17
0
0
2.29344e-17
-1.84022e-17
0
-4.8187e-18
8.55893e-18
-8.33923e-19
2.3619e-18
6.90361e-19
1.00521e-20
1.43049e-19
0
0
0
8.44317e-17
-5.69047e-17
5.43821e-17
-8.35756e-17
2.3042e-17
0
-7.3496e-18
1.10323e-17
-1.12757e-17
-2.02765e-18
5.84275e-20
-1.29711e-18
-1.61109e-19
-1.03427e-18
-2.97742e-19
-1.58398e-19
1.213e-16
-2.12907e-16
9.92418e-17
0
2.37343e-17
-3.25208e-17
3.00176e-17
-2.37465e-17
0
-1.01647e-17
1.42753e-17
0
0
5.46867e-20
0
-1.45002e-18
9.80599e-19
1.53076e-19
2.56529e-19
1.2116e-16
0
-4.40286e-17
4.90937e-17
-2.85905e-17
6.15411e-17
-2.8488e-17
-2.05737e-17
2.07885e-17
-2.00958e-18
0
0
1.17495e-18
-1.87377e-18
-1.30603e-18
2.45132e-18
-5.29214e-19
2.59985e-19
0
6.86791e-17
5.0845e-17
-3.22049e-18
-4.69992e-17
-4.49465e-18
-3.08181e-17
4.28719e-18
2.49057e-17
-1.22162e-18
2.04731e-18
0
0
-1.20366e-18
0
1.37473e-18
-1.47064e-18
0
1.8623e-19
-5.10918e-20
-3.64299e-17
-2.55467e-17
2.39492e-17
-2.60851e-18
-1.1333e-18
2.94796e-18
0
-7.26317e-19
1.03299e-17
-8.69633e-18
0
2.69689e-18
-5.77959e-19
-2.33009e-18
-2.08904e-19
-1.61217e-19
0
-1.46057e-19
0
1.45334e-17
-2.7279e-17
1.5201e-20
1.12092e-17
9.61492e-18
-9.51463e-18
-6.29727e-18
7.11227e-18
-2.28445e-18
1.79826e-18
-1.63628e-18
1.68675e-18
0
4.07954e-21
-1.54244e-19
5.51989e-19
-1.8728e-21
0
0
1.45339e-17
-1.44794e-17
-1.11498e-17
9.90102e-18
1.69541e-17
-1.70541e-17
-3.14878e-18
3.15669e-18
-2.3041e-18
2.32814e-18
-1.63637e-18
3.0538e-18
-8.56681e-19
-5.95996e-19
-1.77802e-19
6.00826e-20
1.3953e-19
3.66376e-20
-2.7452e-20
0
-3.3972e-18
1.93584e-17
-2.10509e-17
1.68861e-17
-1.50117e-17
0
1.06946e-17
-9.59662e-18
0
3.23384e-18
-4.07738e-18
-2.22366e-18
2.33054e-18
4.13679e-19
0
0
-1.46104e-19
5.29439e-20
5.77805e-17
-1.04974e-16
1.03919e-16
-8.83075e-17
3.42068e-17
-2.69362e-17
2.56591e-17
2.85192e-18
-1.0153e-17
9.04835e-18
0
-5.96891e-18
5.44886e-18
-9.85694e-19
-4.05198e-19
6.12538e-19
4.46057e-19
1.41839e-19
-5.11559e-20
1.36392e-16
0
-4.99122e-17
3.8844e-17
4.44311e-18
-3.22527e-17
5.60177e-17
-4.77863e-17
1.84331e-17
-7.27817e-18
7.44985e-18
1.41818e-18
2.3003e-18
9.60076e-19
-7.53633e-19
-1.12017e-19
-9.59721e-19
0
9.30855e-20
1.06272e-16
-1.19633e-16
0
1.01184e-17
4.12294e-17
-4.00414e-17
6.39477e-18
5.41751e-18
2.30981e-18
3.81358e-18
0
0
-3.96828e-18
7.19177e-18
-2.58431e-18
-8.96197e-19
9.81186e-19
7.69912e-20
-1.75092e-19
1.33475e-17
1.0519e-16
-1.15192e-17
-7.44595e-17
6.55259e-17
7.36451e-18
-6.25845e-18
-5.2913e-18
1.61264e-17
-1.99623e-17
1.10382e-17
-1.12816e-17
1.55986e-18
-2.15984e-18
3.55611e-18
-2.39098e-18
0
0
1.5404e-19
0
2.5859e-17
-7.32895e-17
8.40174e-17
-6.22665e-17
6.21182e-17
0
1.85325e-17
-1.86174e-17
-1.26284e-17
1.84209e-17
0
6.77001e-18
-8.56837e-18
-1.23634e-18
0
-1.25916e-19
-2.2251e-19
-2.03193e-20
-2.53693e-16
1.18767e-16
0
-7.10241e-17
7.1017e-17
3.9516e-17
-2.58449e-17
9.57758e-18
0
-3.79784e-19
2.36798e-18
-2.55005e-18
-3.32789e-18
5.024e-18
-5.34218e-18
0
9.77755e-19
-1.54701e-19
-1.39308e-19
1.54195e-16
-1.49871e-16
0
1.85045e-17
1.59183e-17
-1.40048e-17
0
-1.00374e-17
-7.73719e-18
0
-6.69334e-19
0
3.79911e-18
0
0
1.29806e-18
4.71994e-18
-6.21093e-18
0
2.20421e-21
2.22691e-17
-1.95403e-17
1.4226e-17
-7.31494e-17
2.70606e-17
0
1.87069e-18
5.19305e-18
0
-4.62944e-18
1.15763e-17
-1.21616e-17
1.72651e-18
0
-3.32877e-19
0
0
0
7.11036e-21
0
1.80601e-17
0
-2.38712e-17
2.42506e-17
0
6.96032e-18
-5.00896e-18
1.70844e-17
-8.00762e-18
2.4032e-18
-3.51549e-18
2.94322e-18
-4.83994e-18
-7.3024e-19
0
-3.31417e-19
0
5.88538e-17
-9.98128e-17
0
-1.41237e-17
1.17781e-17
0
0
-1.2459e-17
0
-3.88739e-18
-5.19555e-18
-2.20876e-18
3.22314e-18
0
1.2409e-18
0
0
6.8625e-19
-7.13776e-19
0
8.2951e-17
-6.60316e-17
1.30754e-17
-1.09066e-17
-3.90342e-18
1.07819e-17
1.08374e-17
-1.14805e-17
3.63434e-18
5.53091e-19
-2.35259e-18
9.30964e-18
-2.83365e-18
-5.37999e-18
1.71272e-18
-3.50513e-19
2.1515e-19
-5.30639e-20
-1.43662e-16
5.25431e-17
0
0
4.36732e-18
-4.44108e-18
2.42171e-18
1.04972e-18
9.96196e-18
4.35166e-18
-4.07304e-18
-3.47878e-19
-1.67026e-18
1.31096e-18
0
4.57975e-19
3.21271e-19
1.43445e-19
4.79623e-20
0
4.36145e-17
-3.86708e-17
1.1987e-17
1.07882e-17
-2.0178e-18
-5.61101e-18
-4.26812e-18
-1.22433e-17
4.21048e-18
-1.87066e-18
3.05242e-18
1.5619e-18
-1.5429e-18
1.63769e-18
7.85988e-19
-1.09012e-18
-1.32492e-19
0
-8.32663e-18
-3.50925e-17
1.17326e-17
1.00494e-17
-3.10534e-17
2.12621e-17
8.59589e-18
-8.78631e-18
5.59593e-18
-3.99596e-18
0
0
-1.97153e-18
3.34921e-18
-1.36033e-18
1.00958e-18
-1.11371e-18
1.58541e-19
-2.8063e-19
1.53094e-17
1.36095e-17
-1.15594e-17
7.58358e-18
-9.7303e-18
-1.21936e-17
0
0
0
0
0
0
1.00357e-18
-2.20855e-18
2.33578e-18
-5.99039e-19
7.50285e-19
3.09647e-19
-2.59208e-19
3.23062e-17
-4.96572e-17
6.17269e-17
-2.43611e-17
3.42368e-17
-2.00791e-17
3.5524e-17
-1.84111e-17
-7.55134e-18
7.72468e-18
0
1.41782e-18
-9.80431e-19
1.92944e-18
-8.07955e-19
-8.01758e-19
-1.35745e-18
1.12619e-19
2.15738e-19
5.06009e-17
1.34654e-17
0
-1.81264e-17
-1.23767e-17
2.69036e-17
1.45317e-18
-8.55847e-18
4.68665e-18
-2.70757e-18
0
-1.12237e-18
0
-6.84399e-19
5.05816e-19
-3.99115e-19
-1.2528e-19
7.70776e-20
0
7.02254e-17
-1.42344e-17
5.47356e-17
-4.25743e-17
-7.52395e-18
2.56057e-17
-1.5282e-17
1.0417e-18
7.4226e-19
-2.68221e-18
2.45226e-18
0
0
9.00092e-19
-2.4501e-19
1.35496e-19
4.51809e-19
-1.55443e-19
0
1.19864e-20
0
-1.24946e-17
6.6796e-17
-4.40838e-17
-3.98194e-17
2.15206e-17
-1.78902e-17
1.5921e-17
6.61102e-18
-4.28656e-18
1.553e-18
-1.28331e-18
2.81995e-19
1.56149e-18
-3.27003e-22
-4.55736e-19
4.38618e-19
-9.31717e-20
1.67361e-16
-5.25698e-17
2.17347e-17
-6.9041e-17
1.68664e-17
-2.34294e-17
1.31381e-17
0
0
-4.25009e-19
-6.65614e-19
-1.89883e-19
0
-1.53321e-18
-1.02549e-18
6.74791e-19
-4.66411e-20
1.0899e-19
1.95869e-19
0
-5.06289e-17
7.92906e-17
1.37417e-17
-5.89309e-17
1.39539e-17
-1.87613e-17
4.72468e-18
1.3699e-17
0
0
2.19193e-19
1.73796e-18
0
-1.1791e-18
-4.71595e-19
7.25106e-20
-2.00253e-19
-2.53926e-19
0
-3.02758e-17
1.02296e-17
5.34882e-17
3.4322e-17
-6.09126e-17
2.64062e-17
-1.51009e-17
8.40744e-18
-9.5096e-18
0
0
0
-2.4707e-18
4.45908e-19
-6.88501e-19
0
-3.78453e-20
1.84627e-19
-1.24345e-16
1.16192e-16
1.12916e-16
-1.36139e-16
5.64563e-17
-5.19238e-17
0
1.62555e-17
-2.13399e-17
1.13284e-17
-7.59925e-18
5.51403e-18
3.99008e-18
2.55525e-18
1.81578e-18
0
0
0
0
1.41274e-16
-7.71885e-17
0
0
-2.13861e-17
4.68133e-17
-2.96335e-17
-1.74991e-17
1.73019e-17
1.07775e-17
1.62821e-17
-5.72134e-18
2.30527e-18
1.50516e-18
1.00184e-18
8.49014e-19
1.3258e-18
-6.27211e-20
6.38871e-20
-1.41503e-16
1.26616e-16
6.1851e-17
-3.29965e-17
6.25594e-17
-3.97237e-17
-2.7801e-17
-2.14203e-17
0
-2.27765e-17
1.73839e-18
6.94542e-18
-4.74187e-18
-3.50958e-18
-1.22104e-18
-1.14636e-18
-9.23631e-19
0
0
-4.86779e-17
0
3.46519e-17
9.07545e-21
0
0
2.86776e-17
2.21027e-17
0
1.26749e-17
0
-1.04663e-17
-2.7506e-18
4.71538e-18
0
2.90676e-18
-3.96227e-19
4.04204e-19
0
1.05441e-16
0
6.50303e-17
-1.17393e-16
9.96954e-17
7.21127e-17
-3.59917e-18
0
2.30288e-18
1.58698e-17
0
-1.25109e-17
1.2884e-17
-1.113e-17
-2.3575e-18
-2.29069e-18
-7.34349e-19
-1.43754e-19
-6.1425e-19
-9.46517e-17
1.35412e-16
-3.60562e-17
-8.91029e-17
-4.83866e-17
-3.88645e-17
-6.17657e-17
-2.18089e-17
2.77538e-18
6.70794e-18
-6.69534e-18
1.90732e-17
-8.25118e-18
1.55523e-17
-2.88575e-18
0
3.74694e-18
-2.3646e-18
5.96411e-19
2.16845e-16
-6.29035e-18
-1.50622e-16
1.14836e-16
-9.82927e-17
7.97376e-17
-3.80893e-18
-2.57152e-17
2.07552e-17
7.34068e-18
-1.33491e-18
-1.62813e-17
4.30285e-18
5.58642e-18
-1.48936e-18
1.50635e-18
-3.88092e-18
-8.79382e-19
-1.25017e-18
1.06452e-16
4.2515e-17
7.12223e-17
-5.88818e-17
-4.41554e-17
3.92345e-18
-2.92248e-17
6.96054e-17
3.35804e-18
2.81151e-17
1.56828e-17
-1.3538e-17
0
-8.6153e-18
0
0
7.05428e-18
2.9123e-18
1.43595e-18
9.80051e-17
0
6.98291e-17
5.85018e-17
-4.86167e-17
3.97585e-17
0
-2.6803e-17
-3.56255e-17
-2.91166e-17
-1.58216e-17
1.3691e-17
0
0
0
0
-6.63745e-18
-5.9241e-18
0
-1.91903e-16
0
-5.35947e-18
-4.81935e-18
7.48133e-17
-3.81354e-17
-1.67015e-17
-1.68968e-17
3.70294e-17
0
9.22428e-18
-9.39811e-19
9.39439e-18
0
0
1.31997e-17
-1.00517e-18
7.12903e-18
-3.19596e-18
1.33806e-16
3.62536e-17
-3.58794e-17
-2.99123e-17
-9.58272e-17
6.26461e-17
7.16517e-17
-3.18148e-18
-2.60243e-17
2.68577e-17
5.41869e-18
-2.87302e-17
-2.23646e-17
-1.56617e-17
-1.69476e-17
-1.52646e-17
1.46043e-17
-6.73436e-19
3.27334e-18
-4.04102e-17
1.75572e-17
-8.30851e-17
1.31023e-17
-1.30546e-17
0
-3.6124e-17
-4.31651e-18
-3.34863e-17
4.91848e-18
3.2717e-17
2.26215e-17
-5.9509e-18
4.96749e-19
1.59939e-17
0
-3.171e-17
-1.25131e-17
-2.55372e-19
8.43282e-17
-2.15034e-18
1.30786e-16
-6.01033e-17
1.7757e-19
1.48994e-18
4.38204e-17
-5.56684e-18
3.24762e-17
-3.02902e-17
-2.8706e-17
0
3.2568e-17
2.47699e-17
3.77387e-19
-5.54148e-19
1.77418e-17
1.27146e-17
0
-5.94836e-17
0
-1.20091e-17
5.78617e-17
1.1975e-18
1.27238e-17
-4.23736e-17
3.94379e-17
4.43782e-17
4.27994e-17
4.16809e-17
0
-3.16392e-17
0
1.86336e-18
-1.93526e-18
0
-1.98615e-19
1.00152e-17
4.24922e-17
3.24789e-18
-2.99214e-17
9.40021e-17
-2.96163e-17
0
0
-5.29419e-17
-4.2998e-17
-4.1463e-17
-7.88411e-17
-1.10978e-17
0
0
0
-4.07023e-18
4.30733e-18
2.84672e-17
-1.01722e-17
3.42435e-18
0
-6.78786e-17
-5.94183e-17
6.39762e-17
-6.38009e-17
-9.02625e-17
1.07336e-16
3.19374e-17
0
4.78663e-17
5.77144e-17
-1.24505e-17
6.89306e-17
-1.13841e-17
1.18481e-17
4.7121e-17
-2.70533e-17
0
-8.06917e-17
0
-7.59953e-17
7.39642e-17
0
1.28259e-16
5.92741e-17
-1.27709e-16
1.05125e-16
-4.89487e-19
-3.11982e-17
-5.58793e-17
0
8.19189e-17
-1.35845e-16
1.4629e-16
-1.86554e-16
0
0
8.06333e-17
-8.07093e-19
-1.97095e-18
-1.50973e-16
1.53546e-16
-7.34398e-17
7.31404e-17
7.21245e-17
-6.11896e-17
0
0
1.22681e-16
-1.24794e-16
-1.31341e-16
1.30815e-16
-1.27912e-16
1.38738e-16
-2.17715e-16
0
)
;

boundaryField
{
    up
    {
        type            calculated;
        value           nonuniform List<scalar> 
84
(
0
0
0
0
-7.13863e-18
1.26626e-17
-5.18935e-18
3.27333e-18
-2.89061e-18
0
-1.61186e-18
1.51406e-18
-7.9337e-19
1.73914e-19
1.27029e-19
4.19339e-19
0
0
-1.46113e-19
1.11005e-19
8.66513e-20
-8.41377e-20
6.71466e-21
0
3.16342e-20
1.91004e-20
-2.5862e-19
0
4.15723e-19
5.801e-19
8.20631e-20
-1.50947e-19
6.67692e-20
0
-2.59805e-20
1.45013e-19
-1.56258e-19
2.54722e-19
0
-5.06441e-20
0
0
-2.74124e-20
5.29439e-20
-5.11559e-20
9.30855e-20
-1.75092e-19
1.5404e-19
-2.03193e-20
-1.39308e-19
0
0
0
-7.13776e-19
-1.01221e-19
4.79623e-20
0
-2.8063e-19
-2.59208e-19
1.84181e-19
0
0
-9.31717e-20
1.95869e-19
-2.53926e-19
1.84627e-19
0
6.38871e-20
0
0
-6.1425e-19
5.96411e-19
-1.25017e-18
1.43595e-18
0
-3.19596e-18
3.27334e-18
-2.55372e-19
0
1.00152e-17
-1.01722e-17
0
0
0
)
;
    }
    low
    {
        type            calculated;
        value           nonuniform List<scalar> 
84
(
-1.6152e-16
1.60174e-16
-7.67941e-17
1.23258e-16
2.18728e-17
-5.68506e-18
4.75042e-17
7.01916e-18
0
1.96939e-16
-4.99193e-17
3.73159e-17
-4.40657e-17
-2.97823e-16
4.86539e-17
0
-4.52524e-17
5.53264e-18
-5.37824e-18
-3.4448e-17
1.8645e-17
4.81568e-17
8.63832e-17
-7.42339e-17
0
-1.43467e-17
-7.38959e-18
0
-6.78752e-17
-1.96567e-17
-6.79489e-17
-7.35391e-17
7.96077e-17
2.66637e-17
1.83205e-16
1.46644e-17
0
1.213e-16
1.2153e-16
6.88751e-17
-3.65324e-17
1.45334e-17
1.45339e-17
0
5.77805e-17
1.36762e-16
1.06272e-16
1.36291e-17
0
-2.53765e-16
1.54195e-16
2.20421e-21
7.11036e-21
5.88538e-17
0
-1.43208e-16
0
-8.32663e-18
1.53094e-17
3.20287e-17
5.01319e-17
6.98048e-17
1.19864e-20
1.6705e-16
0
0
-1.24345e-16
1.41176e-16
-1.41462e-16
-4.86779e-17
1.05502e-16
-9.46517e-17
2.1738e-16
1.06805e-16
9.80051e-17
-1.91903e-16
1.3342e-16
-3.99997e-17
8.43282e-17
-5.93108e-17
4.24922e-17
3.75235e-18
-8.06917e-17
8.07231e-17
)
;
    }
    left
    {
        type            calculated;
        value           nonuniform List<scalar> 
19
(
-1.61341e-16
-7.76357e-17
7.97886e-17
2.64715e-18
-1.49513e-16
0
-6.82187e-17
-6.72876e-17
-6.08314e-18
-3.61682e-17
-2.39764e-19
-3.62325e-17
1.62898e-16
-3.61167e-17
1.68186e-16
1.45586e-16
8.67224e-17
1.27541e-16
0
)
;
    }
    right
    {
        type            calculated;
        value           nonuniform List<scalar> 
19
(
8.06333e-17
-7.23305e-19
-1.97095e-18
-1.50991e-16
1.53626e-16
-7.34398e-17
7.31404e-17
7.21245e-17
-6.09137e-17
0
0
1.23827e-16
-1.26375e-16
-1.31341e-16
1.30815e-16
-1.27912e-16
1.38738e-16
-2.35393e-16
0
)
;
    }
    frontAndBackPlanes
    {
        type            empty;
    }
}


// ************************************************************************* //
