/*--------------------------------*- C++ -*----------------------------------*\
  =========                 |
  \\      /  F ield         | OpenFOAM: The Open Source CFD Toolbox
   \\    /   O peration     | Website:  https://openfoam.org
    \\  /    A nd           | Version:  7
     \\/     M anipulation  |
\*---------------------------------------------------------------------------*/
FoamFile
{
    version     2.0;
    format      ascii;
    class       volScalarField;
    location    "0.14";
    object      gradTz;
}
// * * * * * * * * * * * * * * * * * * * * * * * * * * * * * * * * * * * * * //

dimensions      [0 -1 0 1 0 0 0];

internalField   nonuniform List<scalar> 
1596
(
-1.12941e-15
-5.43819e-16
5.58445e-16
1.74472e-17
-1.04856e-15
0
-4.80321e-16
-4.7374e-16
-3.94289e-17
-2.53871e-16
-1.77542e-18
-2.54071e-16
1.12922e-15
-2.52969e-16
1.17864e-15
1.01978e-15
6.07318e-16
7.68979e-16
0
1.12233e-15
0
1.54432e-15
-1.48586e-17
-4.58412e-16
4.53044e-16
9.54996e-16
3.81039e-17
4.48259e-16
-2.17834e-16
4.36037e-16
-5.12514e-18
-6.07153e-16
-3.8158e-16
-9.52148e-16
-9.31813e-16
-8.49591e-16
4.85012e-16
0
-5.41841e-16
0
-9.89253e-16
2.34627e-17
8.74333e-16
-2.61105e-16
2.77383e-17
-5.9169e-18
-5.30205e-18
-5.14394e-18
1.51608e-16
0
3.14727e-16
8.8661e-16
-8.79019e-17
7.22512e-17
1.69132e-16
2.69234e-16
0
8.62209e-16
-2.47054e-16
2.46152e-16
0
-2.32615e-16
-2.45111e-16
3.92251e-16
-3.23997e-16
0
0
-1.39808e-16
7.94042e-17
0
-2.57616e-16
-3.21035e-16
2.26125e-16
-2.4241e-16
-1.2411e-17
0
1.51899e-16
3.83405e-16
-3.28706e-16
0
-9.154e-17
-2.82075e-16
0
4.09292e-16
-3.97346e-17
-3.60319e-17
-5.25451e-17
2.06312e-16
2.61422e-16
2.8779e-17
2.19739e-17
-2.44385e-16
1.21985e-17
1.13999e-16
-5.02665e-17
-3.94458e-17
-5.23934e-16
4.79551e-16
-3.97717e-16
-1.20636e-18
-3.24977e-16
8.96961e-18
-8.99938e-18
-2.39685e-16
0
-4.36232e-17
-2.45504e-16
-2.3558e-16
1.83536e-16
2.09429e-16
-2.80979e-18
-1.25891e-16
-1.15628e-16
8.93793e-17
3.29655e-16
-5.30691e-16
5.6587e-16
3.0383e-16
0
2.51689e-16
1.39626e-16
-6.61071e-17
3.02061e-16
-5.51475e-17
-2.41488e-16
1.73543e-18
-1.37073e-16
-1.84267e-16
-1.3776e-16
1.21846e-16
1.27e-16
-1.72537e-18
-3.67293e-17
4.46272e-17
8.49717e-16
-9.47007e-16
0
0
-2.95692e-16
0
0
0
1.74278e-16
0
0
1.27415e-16
3.57682e-18
4.51612e-17
-1.07501e-16
0
5.71843e-17
2.36197e-17
0
-5.35982e-16
1.01824e-15
0
0
3.04521e-16
0
-1.01823e-16
1.0172e-16
-1.7739e-16
7.03558e-17
-7.08704e-17
0
1.01262e-16
1.12164e-16
0
-6.43894e-17
-5.83746e-17
-2.08259e-17
1.37885e-15
-6.33297e-16
0
-3.86737e-16
3.82409e-16
0
2.41566e-16
0
0
0
6.06719e-17
-6.09627e-17
0
-7.90004e-17
-2.15849e-17
0
1.24721e-17
3.5027e-17
0
-3.50247e-16
0
0
3.889e-16
-7.05021e-16
5.32864e-17
2.08966e-17
-8.98235e-17
1.48134e-17
5.89313e-18
-6.23906e-17
-9.22635e-17
0
6.80992e-17
-1.47657e-17
1.49873e-17
4.46545e-17
-2.79937e-17
-1.22169e-17
2.67129e-16
-4.26244e-17
2.57703e-16
8.24007e-16
-6.47587e-17
-3.19153e-16
0
0
0
1.29593e-16
4.71303e-17
1.64797e-16
-3.94493e-17
-6.68809e-17
-3.59692e-17
-2.14993e-17
9.76494e-18
-2.1855e-17
1.14968e-17
-3.10799e-16
3.05536e-16
-5.51026e-16
-8.15154e-16
7.33323e-16
2.57868e-16
-4.60587e-16
3.68695e-16
-2.94178e-16
7.76177e-17
5.20694e-17
-4.52687e-17
2.39775e-17
-2.30627e-17
6.97206e-17
0
-5.45703e-18
4.16907e-17
-6.28622e-18
-2.08901e-15
9.36788e-16
6.86936e-19
-1.74078e-16
3.44581e-17
2.50591e-16
-4.66625e-16
-1.73235e-16
1.35469e-16
-1.05148e-16
-8.20569e-17
0
-8.30129e-17
-2.39194e-17
-3.95626e-17
-2.31714e-17
1.8027e-18
-2.33985e-17
1.26576e-18
3.41359e-16
-2.92799e-16
2.44415e-19
-2.04523e-16
-4.70061e-16
4.33103e-16
2.41443e-18
1.68818e-16
-1.31897e-16
2.00339e-16
4.54584e-17
3.41296e-17
9.30891e-17
0
6.98194e-17
3.17005e-17
0
1.1853e-17
9.4663e-19
0
2.84049e-16
2.02012e-16
-4.32829e-16
4.54417e-16
-6.51739e-16
4.35021e-16
1.41237e-16
-3.14743e-17
-2.0177e-16
3.10805e-17
-3.09271e-17
-8.14938e-17
2.92075e-17
-1.52252e-17
-2.98247e-17
1.18083e-17
-7.4439e-18
3.48354e-18
-3.1758e-16
1.01422e-15
-7.61877e-16
3.78483e-16
0
0
-7.66264e-17
1.70021e-16
-1.00266e-16
1.82736e-16
0
0
5.28716e-17
-4.36417e-17
-2.70684e-17
8.58488e-18
-9.2987e-18
5.0564e-18
0
3.72082e-17
2.97192e-16
-2.19342e-16
-1.82766e-16
-2.64765e-16
-6.3541e-17
1.13895e-16
0
-9.24894e-17
-6.56955e-17
5.63257e-17
-4.10309e-17
2.97501e-17
0
1.07504e-17
1.82138e-17
0
0
0
-3.61046e-17
4.31439e-16
1.41216e-16
-5.55333e-16
1.39211e-16
1.11806e-16
0
0
8.53332e-17
-4.53493e-17
-5.44792e-17
3.96844e-17
-2.87706e-17
0
-5.93741e-18
4.39157e-18
0
-3.67496e-18
-1.30829e-18
-2.43462e-16
7.14915e-16
-8.33899e-16
-2.98561e-16
1.61113e-16
-1.02931e-16
7.88465e-17
0
-4.36905e-17
3.36175e-17
0
0
1.00846e-17
-1.00962e-17
2.46455e-18
-3.81344e-18
4.94642e-18
9.03599e-19
9.91732e-19
1.30897e-16
-1.12608e-16
5.34857e-16
-3.41266e-16
-1.23134e-16
2.21132e-17
1.67722e-16
5.43377e-17
4.18052e-17
0
1.77683e-17
-1.61812e-17
1.13935e-17
-8.63218e-18
9.0195e-18
-1.46069e-17
-3.83021e-18
3.24722e-18
7.98031e-19
3.39693e-16
-3.49854e-16
0
2.63956e-16
-1.43739e-16
-9.15301e-17
5.01548e-17
-1.70935e-16
0
-3.04145e-18
-2.23086e-17
-1.34442e-17
1.6595e-17
-1.81502e-18
-8.71719e-18
5.85487e-18
0
1.75551e-18
-7.74881e-19
6.07972e-16
-1.00719e-16
3.92584e-16
-3.05384e-16
1.40185e-16
-2.62373e-18
-1.47638e-16
-4.01572e-17
6.85126e-17
-4.03455e-18
-2.91762e-17
2.28262e-17
-9.2287e-18
-9.89319e-18
0
0
0
-1.76933e-18
6.3003e-20
-5.22692e-16
5.04046e-16
3.32704e-19
6.57398e-17
5.19422e-17
-1.09638e-16
1.20409e-16
-8.78675e-17
6.74318e-17
-1.76703e-17
3.2714e-17
9.55349e-18
-3.67504e-18
1.80627e-19
-8.76477e-19
-1.56695e-18
0
0
0
0
0
2.17246e-16
-1.25116e-16
-3.05609e-16
0
0
-2.54064e-17
-3.56361e-17
2.63193e-17
0
-1.20487e-17
8.13142e-18
-2.29897e-17
2.55364e-17
-6.98318e-18
7.37993e-18
7.39566e-19
0
-1.01059e-16
1.02303e-16
0
-7.06364e-17
7.04856e-17
1.03657e-16
0
2.5649e-17
2.55775e-17
-1.22759e-16
0
-1.41631e-17
9.65882e-18
5.81397e-18
-3.83453e-18
5.17916e-18
0
-1.65324e-18
0
-5.20415e-17
-4.93689e-17
2.91577e-18
7.25771e-17
-1.79905e-16
0
-3.84333e-17
0
8.51114e-17
2.96468e-17
0
5.60544e-17
-5.34767e-17
6.56513e-18
-7.82666e-18
3.68749e-18
1.00481e-17
3.33084e-18
-2.64286e-18
0
1.05148e-16
-8.46375e-17
1.03689e-16
1.11881e-16
0
7.68039e-17
-6.9687e-17
-4.6339e-17
5.94957e-17
-8.82098e-17
-3.60461e-17
0
0
5.27243e-18
0
0
1.23235e-18
0
-4.77864e-16
3.6936e-16
0
7.93297e-18
-6.34751e-17
-3.22791e-18
5.03552e-17
2.94145e-17
-4.15904e-17
-8.32367e-17
1.1509e-16
-3.20449e-17
0
-1.11971e-17
0
0
0
-4.81824e-18
3.86685e-18
-1.37945e-16
1.24013e-16
3.10106e-16
-2.96754e-16
8.60668e-17
6.63033e-18
-5.10347e-17
3.99978e-17
6.14565e-17
4.14371e-17
-8.10231e-17
0
3.10689e-17
6.4822e-19
-1.28164e-17
-2.3533e-17
1.88843e-17
-2.42224e-18
4.88019e-18
-4.76987e-16
6.35309e-16
-6.23776e-16
1.02353e-16
7.98535e-17
-7.33791e-17
5.90744e-17
-4.16744e-17
0
-3.00848e-17
4.1334e-17
1.76271e-17
2.61165e-17
2.75378e-17
-4.00219e-17
-1.61252e-18
0
-2.15522e-18
7.39288e-19
-5.15614e-16
-1.44769e-16
-2.37664e-16
1.29929e-16
-1.89974e-16
1.5355e-16
-8.84047e-17
6.74389e-17
-6.86761e-18
-6.61629e-18
-4.6437e-17
2.90805e-17
-1.14615e-17
3.69805e-17
-3.96989e-17
3.2817e-18
3.69025e-18
0
-1.34689e-18
5.57492e-16
-1.56973e-16
0
0
-1.94999e-16
3.71399e-16
-8.29315e-17
-1.39948e-17
1.0902e-16
-3.17364e-18
0
0
-1.86956e-17
0
-3.63638e-17
8.39726e-17
-5.6806e-17
0
5.86369e-19
1.87043e-16
3.38135e-16
0
-1.33739e-16
-9.93807e-17
-8.02801e-17
-8.70129e-17
3.271e-17
-8.80854e-17
-4.37998e-17
0
0
2.9449e-17
0
0
-5.2442e-17
8.74022e-17
0
0
1.2845e-15
-1.69679e-16
-7.40729e-16
-3.72588e-16
5.08103e-16
1.50748e-16
8.43698e-17
0
-2.77343e-17
2.47069e-17
6.2063e-17
-1.94078e-17
-2.58417e-17
3.92077e-17
-4.1705e-17
-1.14985e-17
0
0
0
1.02859e-16
-7.78528e-16
7.60455e-16
-6.95166e-17
-5.07639e-16
7.77691e-16
-3.81681e-16
0
0
1.71476e-16
-1.38084e-16
0
-3.70056e-17
6.55509e-17
-6.52848e-18
1.82599e-17
5.3711e-18
7.5486e-20
1.12129e-18
0
0
0
6.02509e-16
-4.0579e-16
3.93345e-16
-6.05843e-16
1.67873e-16
0
-5.45917e-17
8.28108e-17
-8.46375e-17
-1.54288e-17
3.52904e-19
-9.98354e-18
-1.26948e-18
-7.9685e-18
-2.2872e-18
-1.22106e-18
8.5226e-16
-1.49919e-15
7.0045e-16
0
1.70469e-16
-2.33366e-16
2.18162e-16
-1.7267e-16
0
-7.55017e-17
1.05981e-16
0
0
3.34832e-19
0
-1.10556e-17
7.48849e-18
1.19638e-18
1.97348e-18
8.48019e-16
0
-3.12168e-16
3.48171e-16
-2.05068e-16
4.4245e-16
-2.05491e-16
-1.50334e-16
1.51904e-16
-1.48155e-17
0
0
8.8026e-18
-1.41577e-17
-9.88714e-18
1.85853e-17
-4.01524e-18
1.98404e-18
0
4.80801e-16
3.58689e-16
-2.12034e-17
-3.33171e-16
-3.2123e-17
-2.22041e-16
2.9802e-17
1.8058e-16
-8.93715e-18
1.50937e-17
0
0
-9.01767e-18
0
1.03617e-17
-1.10845e-17
0
1.40703e-18
-3.86562e-19
-2.55056e-16
-1.80195e-16
1.689e-16
-1.85341e-17
-8.09303e-18
2.11755e-17
0
-5.27761e-18
7.57111e-17
-6.37434e-17
0
2.00788e-17
-4.23826e-18
-1.74158e-17
-1.56759e-18
-1.21208e-18
0
-1.10302e-18
0
1.02093e-16
-1.91991e-16
-2.77512e-19
7.94205e-17
6.88127e-17
-6.81369e-17
-4.56028e-17
5.15233e-17
-1.67373e-17
1.31618e-17
-1.21155e-17
1.24892e-17
0
3.05119e-20
-1.15776e-18
4.14478e-18
-1.40867e-20
0
0
1.02097e-16
-1.01714e-16
-7.90003e-17
7.01272e-17
1.21374e-16
-1.2209e-16
-2.28024e-17
2.28592e-17
-1.68809e-17
1.70571e-17
-1.21162e-17
2.26564e-17
-6.35563e-18
-4.44943e-18
-1.33439e-18
4.49338e-19
1.04871e-18
2.75732e-19
-2.06636e-19
0
-2.39146e-17
1.37219e-16
-1.49142e-16
1.20914e-16
-1.07446e-16
0
7.79429e-17
-6.99064e-17
0
2.39658e-17
-3.02373e-17
-1.66201e-17
1.74189e-17
3.11057e-18
0
0
-1.10335e-18
4.00001e-19
4.05927e-16
-7.38912e-16
7.34725e-16
-6.27408e-16
2.43593e-16
-1.94133e-16
1.84815e-16
2.07614e-17
-7.44982e-17
6.64194e-17
0
-4.45426e-17
4.06524e-17
-7.41405e-18
-3.0468e-18
4.63291e-18
3.37932e-18
1.07114e-18
-3.86492e-19
9.54841e-16
0
-3.53778e-16
2.7528e-16
3.17546e-17
-2.32553e-16
4.05256e-16
-3.4794e-16
1.34611e-16
-5.38665e-17
5.51371e-17
1.05743e-17
1.73021e-17
7.22137e-18
-5.71485e-18
-8.35945e-19
-7.27662e-18
0
7.11114e-19
7.46868e-16
-8.4076e-16
0
7.19554e-17
2.95701e-16
-2.87546e-16
4.63898e-17
3.95831e-17
1.6957e-17
2.82735e-17
0
0
-2.98958e-17
5.44415e-17
-1.9616e-17
-6.84363e-18
7.49264e-18
5.89901e-19
-1.33956e-18
9.02969e-17
7.39135e-16
-8.15559e-17
-5.315e-16
4.67559e-16
5.30586e-17
-4.54008e-17
-3.86609e-17
1.19274e-16
-1.47711e-16
8.28527e-17
-8.46793e-17
1.19451e-17
-1.63316e-17
2.73203e-17
-1.83501e-17
0
0
1.20189e-18
0
1.82187e-16
-5.20637e-16
5.96579e-16
-4.47841e-16
4.46774e-16
0
1.36421e-16
-1.37046e-16
-9.45256e-17
1.3822e-16
0
5.18513e-17
-6.56199e-17
-9.51535e-18
0
-9.83902e-19
-1.76919e-18
-1.42046e-19
-1.77947e-15
8.35205e-16
0
-5.08055e-16
5.08004e-16
2.86795e-16
-1.87717e-16
7.06969e-17
0
-2.8607e-18
1.83365e-17
-1.93883e-17
-2.58188e-17
3.91702e-17
-4.1651e-17
0
7.82412e-18
-1.30948e-18
-1.10565e-18
1.08341e-15
-1.05479e-15
0
1.32261e-16
1.14708e-16
-1.01498e-16
0
-7.40909e-17
-5.80871e-17
0
-4.71007e-18
0
2.94746e-17
0
0
1.0505e-17
3.84076e-17
-5.04046e-17
0
3.60924e-20
1.57053e-16
-1.3881e-16
1.02774e-16
-5.27471e-16
1.96126e-16
0
1.40085e-17
3.90234e-17
0
-3.55742e-17
9.11074e-17
-9.57136e-17
1.39564e-17
0
-2.53204e-18
0
0
0
6.59914e-20
0
1.28295e-16
0
-1.73558e-16
1.76318e-16
0
5.23481e-17
-3.8312e-17
1.31949e-16
-6.21375e-17
1.92054e-17
-2.85301e-17
2.43978e-17
-3.97748e-17
-6.05456e-18
0
-2.92221e-18
0
4.14651e-16
-7.02938e-16
0
-1.01473e-16
8.55497e-17
0
0
-9.4003e-17
0
-3.01176e-17
-4.13836e-17
-1.76515e-17
2.61575e-17
0
1.06161e-17
0
0
6.10677e-18
-6.41531e-18
0
5.87627e-16
-4.68158e-16
9.39406e-17
-7.92195e-17
-2.8947e-17
8.04831e-17
8.22984e-17
-8.91545e-17
2.83035e-17
4.00794e-18
-1.94216e-17
7.72553e-17
-2.36105e-17
-4.6295e-17
1.49368e-17
-3.17552e-18
1.94359e-18
-4.95082e-19
-1.00837e-15
3.69501e-16
0
0
3.20385e-17
-3.25796e-17
1.85512e-17
8.68865e-18
7.78614e-17
3.48628e-17
-3.29086e-17
-2.61318e-18
-1.42006e-17
1.12145e-17
0
4.14084e-18
2.91059e-18
1.33637e-18
4.47484e-19
0
3.0865e-16
-2.75754e-16
8.59171e-17
7.89764e-17
-1.48408e-17
-4.22329e-17
-3.27068e-17
-9.59356e-17
3.382e-17
-1.58359e-17
2.50768e-17
1.32793e-17
-1.3611e-17
1.44473e-17
7.25126e-18
-9.95917e-18
-1.23434e-18
0
-5.82701e-17
-2.47876e-16
8.37124e-17
7.26001e-17
-2.28061e-16
1.57212e-16
6.56232e-17
-6.7077e-17
4.39888e-17
-3.20969e-17
0
0
-1.71757e-17
2.94228e-17
-1.21106e-17
9.32193e-18
-1.02745e-17
1.49518e-18
-2.64678e-18
1.07456e-16
9.62305e-17
-8.25852e-17
5.56681e-17
-7.03819e-17
-9.08814e-17
0
0
0
0
0
0
8.72482e-18
-1.97688e-17
2.09077e-17
-5.56632e-18
6.94898e-18
2.92739e-18
-2.45414e-18
2.26143e-16
-3.52967e-16
4.3918e-16
-1.77886e-16
2.49376e-16
-1.51184e-16
2.69589e-16
-1.41546e-16
-6.04702e-17
6.18583e-17
0
1.20423e-17
-8.5237e-18
1.73219e-17
-7.03747e-18
-7.24988e-18
-1.26901e-17
1.03822e-18
2.04759e-18
3.53879e-16
9.52758e-17
0
-1.31138e-16
-9.15251e-17
2.00504e-16
1.21244e-17
-6.60676e-17
3.6653e-17
-2.18157e-17
0
-9.53287e-18
0
-6.05855e-18
4.54542e-18
-3.66397e-18
-1.16008e-18
7.31908e-19
0
4.91579e-16
-1.00717e-16
3.92627e-16
-3.05677e-16
-5.50627e-17
1.91521e-16
-1.14439e-16
7.55265e-18
5.50912e-18
-2.14867e-17
1.98485e-17
0
0
7.86283e-18
-2.24777e-18
1.27853e-18
4.19023e-18
-1.44699e-18
0
8.97408e-20
0
-8.92279e-17
4.83528e-16
-3.20184e-16
-2.9624e-16
1.60356e-16
-1.37877e-16
1.23415e-16
5.25802e-17
-3.48439e-17
1.28407e-17
-1.07342e-17
2.30026e-18
1.36997e-17
6.53606e-20
-4.18256e-18
4.05496e-18
-8.5858e-19
1.17494e-15
-3.69872e-16
1.56715e-16
-4.95706e-16
1.23134e-16
-1.73876e-16
9.69325e-17
0
0
-3.25508e-18
-4.99121e-18
-1.43845e-18
0
-1.32053e-17
-9.01979e-18
6.05002e-18
-4.23917e-19
9.61194e-19
1.7901e-18
0
-3.57784e-16
5.66682e-16
1.02116e-16
-4.26739e-16
1.0293e-16
-1.40998e-16
3.38781e-17
1.04568e-16
0
0
1.72061e-18
1.42933e-17
0
-1.01561e-17
-4.14819e-18
6.32144e-19
-1.8294e-18
-2.28823e-18
0
-2.15484e-16
6.93228e-17
3.82127e-16
2.50721e-16
-4.46861e-16
1.95047e-16
-1.14776e-16
6.35437e-17
-7.4053e-17
0
0
0
-2.07932e-17
3.9849e-18
-5.96664e-18
0
-3.3708e-19
1.65131e-18
-8.743e-16
8.18596e-16
8.06325e-16
-9.73121e-16
4.10496e-16
-3.78706e-16
0
1.23141e-16
-1.6259e-16
8.74195e-17
-6.00609e-17
4.4417e-17
3.277e-17
2.15048e-17
1.55664e-17
0
0
0
0
9.89729e-16
-5.44832e-16
0
0
-1.54632e-16
3.43678e-16
-2.17906e-16
-1.32245e-16
1.30754e-16
8.36529e-17
1.28525e-16
-4.60869e-17
1.8876e-17
1.2641e-17
8.54092e-18
7.24774e-18
1.13647e-17
-5.41513e-19
5.5158e-19
-9.92836e-16
8.9163e-16
4.40947e-16
-2.34433e-16
4.53588e-16
-2.88457e-16
-2.05511e-16
-1.60534e-16
0
-1.76855e-16
1.28111e-17
5.56432e-17
-3.87912e-17
-2.92079e-17
-1.03099e-17
-9.87119e-18
-7.95088e-18
0
0
-3.4155e-16
0
2.46029e-16
3.68005e-22
0
0
2.11991e-16
1.65648e-16
0
9.80506e-17
0
-8.40079e-17
-2.24675e-17
3.86965e-17
0
2.41115e-17
-3.30836e-18
3.37497e-18
0
7.3809e-16
0
4.63335e-16
-8.3966e-16
7.18182e-16
5.27933e-16
-2.48376e-17
0
1.66764e-17
1.21582e-16
0
-9.98456e-17
1.04224e-16
-9.0663e-17
-1.93225e-17
-1.90541e-17
-6.03743e-18
-1.16563e-18
-4.83977e-18
-6.65699e-16
9.53263e-16
-2.55989e-16
-6.37824e-16
-3.49533e-16
-2.83822e-16
-4.56889e-16
-1.64616e-16
1.98105e-17
5.21674e-17
-5.20694e-17
1.51405e-16
-6.5892e-17
1.25562e-16
-2.33492e-17
0
2.97368e-17
-1.8562e-17
4.7258e-18
1.51792e-15
-4.26145e-17
-1.06793e-15
8.24012e-16
-7.10382e-16
5.82625e-16
-2.65451e-17
-1.9302e-16
1.5788e-16
5.69635e-17
-9.81831e-18
-1.28504e-16
3.44691e-17
4.3553e-17
-1.18335e-17
1.19684e-17
-3.08001e-17
-6.3161e-18
-9.45293e-18
7.45163e-16
2.99969e-16
5.06024e-16
-4.22288e-16
-3.21321e-16
2.66296e-17
-2.17876e-16
5.20407e-16
2.42147e-17
2.15445e-16
1.21316e-16
-1.05262e-16
0
-6.80993e-17
0
0
5.37213e-17
2.23981e-17
1.08828e-17
6.87807e-16
0
4.9688e-16
4.19562e-16
-3.5254e-16
2.91241e-16
0
-2.0114e-16
-2.69577e-16
-2.22802e-16
-1.2239e-16
1.06452e-16
0
0
0
0
-5.05187e-17
-4.38346e-17
0
-1.34694e-15
0
-3.60582e-17
-3.23158e-17
5.41815e-16
-2.81023e-16
-1.24184e-16
-1.25484e-16
2.7959e-16
0
7.03553e-17
-7.20163e-18
7.03033e-17
0
0
9.77914e-17
-7.42194e-18
5.2734e-17
-2.30614e-17
9.40374e-16
2.57184e-16
-2.54529e-16
-2.14045e-16
-6.94995e-16
4.58148e-16
5.29153e-16
-2.22924e-17
-1.95666e-16
2.00748e-16
4.07781e-17
-2.14717e-16
-1.68502e-16
-1.15415e-16
-1.24465e-16
-1.13038e-16
1.05856e-16
-4.89908e-18
2.36198e-17
-2.84726e-16
1.24586e-16
-5.91341e-16
9.45052e-17
-9.41614e-17
0
-2.66301e-16
-2.98708e-17
-2.47138e-16
3.39839e-17
2.41487e-16
1.68723e-16
-4.3921e-17
6.02755e-18
1.17598e-16
0
-2.28353e-16
-8.91463e-17
-1.82441e-18
5.92136e-16
-1.5253e-17
9.30915e-16
-4.30453e-16
1.20636e-18
1.07934e-17
3.18705e-16
-3.81596e-17
2.39683e-16
-2.23704e-16
-2.11757e-16
0
2.35578e-16
1.80567e-16
2.71349e-18
-3.97834e-18
1.27121e-16
9.05861e-17
0
-4.18156e-16
0
-8.67673e-17
4.13727e-16
8.12981e-18
9.16622e-17
-3.08183e-16
2.87582e-16
3.20441e-16
3.08728e-16
3.00071e-16
0
-2.2886e-16
0
1.327e-17
-1.37821e-17
0
-1.39924e-18
7.02858e-17
2.97356e-16
2.16384e-17
-2.1332e-16
6.68366e-16
-2.11219e-16
0
0
-3.78625e-16
-3.10474e-16
-2.99088e-16
-5.6461e-16
-7.94039e-17
0
0
0
-2.86976e-17
3.03693e-17
1.99706e-16
-7.13834e-17
2.27646e-17
0
-4.80037e-16
-4.23223e-16
4.53684e-16
-4.52097e-16
-6.40867e-16
7.65879e-16
2.25493e-16
0
3.41239e-16
4.07597e-16
-8.79531e-17
4.85521e-16
-8.00898e-17
8.3354e-17
3.30327e-16
-1.89785e-16
0
-5.65177e-16
0
-5.33672e-16
5.19969e-16
0
9.07388e-16
4.20414e-16
-9.02199e-16
7.39317e-16
-3.64078e-18
-2.20064e-16
-3.94637e-16
0
5.73227e-16
-9.52147e-16
1.02481e-15
-1.30674e-15
0
0
5.64459e-16
-5.34596e-18
-1.30737e-17
-1.05923e-15
1.076e-15
-5.1549e-16
5.13389e-16
5.06212e-16
-4.32228e-16
0
0
8.58427e-16
-8.73215e-16
-9.21226e-16
9.16896e-16
-8.96041e-16
9.71447e-16
-1.52401e-15
0
)
;

boundaryField
{
    up
    {
        type            calculated;
        value           nonuniform List<scalar> 
84
(
0
0
0
0
-5.02665e-17
8.93793e-17
-3.67293e-17
2.36197e-17
-2.08259e-17
0
-1.22169e-17
1.14968e-17
-6.28622e-18
1.26576e-18
9.4663e-19
3.48354e-18
0
0
-1.30829e-18
9.91732e-19
7.98031e-19
-7.74881e-19
6.3003e-20
0
2.9458e-19
1.73183e-19
-2.44947e-18
0
3.86685e-18
5.28587e-18
7.39288e-19
-1.34689e-18
5.86369e-19
0
-2.46926e-19
1.14006e-18
-1.20665e-18
1.96122e-18
0
-3.83623e-19
0
0
-2.06413e-19
4.00001e-19
-3.86492e-19
7.11114e-19
-1.33956e-18
1.20189e-18
-1.42046e-19
-1.10565e-18
0
0
0
-6.41531e-18
-9.01734e-19
4.47484e-19
0
-2.64678e-18
-2.45414e-18
1.75378e-18
0
0
-8.5858e-19
1.7901e-18
-2.28823e-18
1.65131e-18
0
5.5158e-19
0
0
-4.83977e-18
4.7258e-18
-9.45293e-18
1.08828e-17
0
-2.30614e-17
2.36198e-17
-1.82441e-18
0
7.02858e-17
-7.13834e-17
0
0
0
)
;
    }
    low
    {
        type            calculated;
        value           nonuniform List<scalar> 
84
(
-1.1306e-15
1.12233e-15
-5.39671e-16
8.63939e-16
1.5305e-16
-3.97795e-17
3.32408e-16
4.72174e-17
0
1.38184e-15
-3.50247e-16
2.65352e-16
-3.10799e-16
-2.08937e-15
3.41359e-16
0
-3.1758e-16
3.72082e-17
-3.61046e-17
-2.43462e-16
1.30897e-16
3.39693e-16
6.051e-16
-5.22692e-16
0
-1.01059e-16
-5.20415e-17
0
-4.77864e-16
-1.37945e-16
-4.75286e-16
-5.14387e-16
5.56812e-16
1.87043e-16
1.28494e-15
1.02859e-16
0
8.5226e-16
8.50498e-16
4.82118e-16
-2.55746e-16
1.02093e-16
1.02097e-16
0
4.05927e-16
9.57319e-16
7.46868e-16
9.21598e-17
0
-1.77991e-15
1.08341e-15
3.60924e-20
6.59914e-20
4.14651e-16
0
-1.0053e-15
0
-5.82701e-17
1.07456e-16
2.24271e-16
3.50696e-16
4.88707e-16
8.97408e-20
1.17277e-15
0
0
-8.743e-16
9.88987e-16
-9.92484e-16
-3.4155e-16
7.38446e-16
-6.65699e-16
1.52147e-15
7.47535e-16
6.87807e-16
-1.34694e-15
9.37784e-16
-2.81974e-16
5.92136e-16
-4.17005e-16
2.97356e-16
2.49343e-17
-5.65177e-16
5.65052e-16
)
;
    }
    left
    {
        type            calculated;
        value           nonuniform List<scalar> 
19
(
-1.12941e-15
-5.44386e-16
5.58445e-16
1.75498e-17
-1.04907e-15
0
-4.80321e-16
-4.7374e-16
-4.13009e-17
-2.53871e-16
-1.77542e-18
-2.54071e-16
1.14032e-15
-2.52969e-16
1.17864e-15
1.01978e-15
6.07318e-16
8.92776e-16
0
)
;
    }
    right
    {
        type            calculated;
        value           nonuniform List<scalar> 
19
(
5.64459e-16
-4.77938e-18
-1.30737e-17
-1.05934e-15
1.07652e-15
-5.1549e-16
5.13389e-16
5.06212e-16
-4.30356e-16
0
0
8.66445e-16
-8.84314e-16
-9.21226e-16
9.16896e-16
-8.96041e-16
9.71447e-16
-1.6478e-15
0
)
;
    }
    frontAndBackPlanes
    {
        type            empty;
    }
}


// ************************************************************************* //
