/*--------------------------------*- C++ -*----------------------------------*\
  =========                 |
  \\      /  F ield         | OpenFOAM: The Open Source CFD Toolbox
   \\    /   O peration     | Website:  https://openfoam.org
    \\  /    A nd           | Version:  7
     \\/     M anipulation  |
\*---------------------------------------------------------------------------*/
FoamFile
{
    version     2.0;
    format      ascii;
    class       volScalarField;
    location    "0.14";
    object      gradTy;
}
// * * * * * * * * * * * * * * * * * * * * * * * * * * * * * * * * * * * * * //

dimensions      [0 -1 0 1 0 0 0];

internalField   nonuniform List<scalar> 
1596
(
-0.908884
-1.67762
-2.2867
-2.84298
-3.34018
-3.84634
-4.32418
-4.84864
-5.44206
-6.11902
-7.06736
-8.27604
-9.9921
-12.4954
-16.4754
-22.7655
-34.1015
-55.0836
-130.114
-2.7544
-3.36444
-3.73452
-4.03199
-4.27661
-4.55078
-4.82846
-5.18263
-5.63855
-6.19783
-7.02222
-8.08599
-9.55719
-11.5624
-14.4589
-18.4158
-24.3507
-33.1014
-57.9405
-4.89024
-5.04918
-5.07451
-5.07838
-5.0634
-5.10441
-5.17647
-5.34616
-5.63442
-6.03419
-6.68156
-7.53633
-8.71708
-10.2812
-12.4484
-15.234
-19.1399
-24.508
-35.991
-7.07663
-6.65114
-6.2863
-5.9857
-5.71517
-5.52854
-5.39798
-5.37971
-5.48914
-5.71361
-6.16603
-6.79905
-7.69815
-8.88566
-10.5041
-12.5094
-15.2005
-18.707
-24.6781
-9.02748
-8.07753
-7.35135
-6.76674
-6.25952
-5.8599
-5.538
-5.33811
-5.27111
-5.32156
-5.58187
-6.00434
-6.65171
-7.52929
-8.73492
-10.2062
-12.1351
-14.5571
-18.0715
-10.5066
-9.24595
-8.25368
-7.43626
-6.72626
-6.13757
-5.64264
-5.27489
-5.04251
-4.92983
-5.01122
-5.24314
-5.67182
-6.29476
-7.1822
-8.27093
-9.69212
-11.4403
-13.7398
-11.4107
-10.0995
-8.97549
-8.00057
-7.13491
-6.38945
-5.74546
-5.22881
-4.84733
-4.58733
-4.50754
-4.57102
-4.8114
-5.22288
-5.85713
-6.6573
-7.71674
-9.01433
-10.6353
-11.7736
-10.6121
-9.49223
-8.44726
-7.48306
-6.62069
-5.85686
-5.21467
-4.70418
-4.31561
-4.09471
-4.01211
-4.09155
-4.32605
-4.7537
-5.32634
-6.11184
-7.08544
-8.27836
-11.7243
-10.8476
-9.83905
-8.8023
-7.79307
-6.85187
-5.99536
-5.24917
-4.62811
-4.12796
-3.78451
-3.5759
-3.5182
-3.60405
-3.8609
-4.24907
-4.81777
-5.54357
-6.43573
-11.3638
-10.7755
-9.94194
-8.98365
-7.98812
-7.01595
-6.10394
-5.28457
-4.57932
-3.99067
-3.54783
-3.23586
-3.06523
-3.02867
-3.14524
-3.3829
-3.77696
-4.30748
-4.97501
-10.9648
-10.5672
-9.89798
-9.04403
-8.09639
-7.12674
-6.18773
-5.32012
-4.55285
-3.89568
-3.3741
-2.97935
-2.71803
-2.58308
-2.58677
-2.70311
-2.95646
-3.33031
-3.82175
-10.5116
-10.3023
-9.78286
-9.03613
-8.15073
-7.20282
-6.25556
-5.3575
-4.54493
-3.83473
-3.25106
-2.79045
-2.45702
-2.24397
-2.15812
-2.17796
-2.31911
-2.56786
-2.91985
-9.97846
-9.93239
-9.55263
-8.915
-8.10346
-7.19582
-6.26077
-5.35333
-4.51589
-3.77168
-3.14526
-2.63748
-2.25126
-1.98009
-1.82667
-1.77278
-1.82736
-1.97884
-2.22238
-9.52825
-9.56469
-9.28638
-8.74007
-7.99705
-7.13319
-6.21889
-5.31382
-4.46496
-3.70063
-3.04664
-2.50709
-2.08444
-1.7724
-1.57051
-1.46275
-1.45292
-1.53081
-1.69139
-9.1294
-9.22877
-9.02111
-8.54358
-7.85636
-7.03168
-6.13947
-5.24235
-4.39056
-3.61617
-2.94639
-2.3876
-1.94206
-1.60355
-1.36918
-1.22423
-1.16862
-1.19295
-1.29202
-8.74825
-8.91227
-8.76097
-8.33492
-7.69013
-6.89698
-6.02459
-5.13765
-4.28854
-3.51188
-2.83601
-2.26861
-1.81174
-1.45898
-1.2055
-1.03726
-0.951255
-0.938489
-0.993684
-8.41355
-8.62223
-8.51393
-8.12481
-7.50912
-6.73769
-5.87986
-5.00218
-4.15856
-3.38512
-2.71076
-2.14355
-1.68504
-1.32826
-1.06669
-0.886459
-0.782394
-0.745642
-0.770844
-8.12981
-8.37156
-8.29494
-7.93023
-7.33106
-6.57021
-5.71909
-4.84654
-4.0079
-3.24021
-2.57219
-2.0115
-1.55866
-1.20573
-0.944554
-0.761054
-0.648333
-0.597516
-0.603168
-7.8396
-8.15423
-8.11645
-7.77174
-7.18004
-6.41914
-5.56513
-4.69043
-3.85249
-3.0892
-2.42859
-1.87735
-1.43436
-1.09027
-0.835152
-0.654373
-0.539568
-0.481697
-0.475222
-7.52898
-7.93542
-7.95
-7.62895
-7.04202
-6.27535
-5.41229
-4.53045
-3.69031
-2.93076
-2.27883
-1.73972
-1.3102
-0.979063
-0.734446
-0.560905
-0.448794
-0.388863
-0.375496
-7.26315
-7.74026
-7.80784
-7.51166
-6.92704
-6.14924
-5.27082
-4.37616
-3.52978
-2.77192
-2.12841
-1.60255
-1.18853
-0.872903
-0.641641
-0.478242
-0.371843
-0.312982
-0.29609
-7.02212
-7.57093
-7.69181
-7.42176
-6.83888
-6.0468
-5.14841
-4.23608
-3.37939
-2.62049
-1.98396
-1.47104
-1.07302
-0.773921
-0.557387
-0.405599
-0.306375
-0.249972
-0.23122
-6.78911
-7.41949
-7.59801
-7.35689
-6.77702
-5.96994
-5.04926
-4.11609
-3.24587
-2.48322
-1.8516
-1.35027
-0.967478
-0.684644
-0.483032
-0.343288
-0.251562
-0.197203
-0.17583
-6.57051
-7.28294
-7.51836
-7.30397
-6.72457
-5.89908
-4.95308
-3.99614
-3.1102
-2.34287
-1.71543
-1.22605
-0.859324
-0.594056
-0.408933
-0.283278
-0.200791
-0.148337
-0.116669
-6.38463
-7.17533
-7.48562
-7.33165
-6.79592
-5.99501
-5.05863
-4.09902
-3.20306
-2.42316
-1.78136
-1.27922
-0.901033
-0.626538
-0.434108
-0.303527
-0.216815
-0.159454
-0.11805
-6.24709
-7.09005
-7.45707
-7.36226
-6.88099
-6.12229
-5.21251
-4.26285
-3.36258
-2.56879
-1.90645
-1.3819
-0.981671
-0.68738
-0.478272
-0.335271
-0.240093
-0.178689
-0.138564
-6.23245
-7.08499
-7.47751
-7.42157
-6.98453
-6.26732
-5.38874
-4.45635
-3.55881
-2.75559
-2.07497
-1.52704
-1.10133
-0.782015
-0.550359
-0.388976
-0.280158
-0.209852
-0.164946
-6.35637
-7.17431
-7.55384
-7.50714
-7.09544
-6.41117
-5.56371
-4.65391
-3.76683
-2.96194
-2.26915
-1.7016
-1.25137
-0.905262
-0.647048
-0.462168
-0.334567
-0.250949
-0.19741
-6.60005
-7.35688
-7.69281
-7.63009
-7.22659
-6.56633
-5.74834
-4.86467
-3.9945
-3.19526
-2.49683
-1.91456
-1.44226
-1.06876
-0.780063
-0.565352
-0.411707
-0.308334
-0.241049
-6.95174
-7.61279
-7.88038
-7.78351
-7.37603
-6.73339
-5.94399
-5.08991
-4.24301
-3.45718
-2.76095
-2.17117
-1.68245
-1.28444
-0.963882
-0.713418
-0.524516
-0.391986
-0.303391
-7.40101
-7.93847
-8.12497
-7.98376
-7.56421
-6.93366
-6.17059
-5.34688
-4.52655
-3.7593
-3.07155
-2.48148
-1.984
-1.56848
-1.21952
-0.930504
-0.695929
-0.519933
-0.397181
-7.86713
-8.30115
-8.40953
-8.22199
-7.7875
-7.16682
-6.4294
-5.63725
-4.84656
-4.10264
-3.42948
-2.84708
-2.35136
-1.93167
-1.56801
-1.24937
-0.9653
-0.727148
-0.546369
-8.386
-8.71248
-8.73847
-8.50056
-8.04754
-7.43405
-6.72099
-5.96079
-5.20188
-4.48491
-3.83119
-3.26304
-2.77915
-2.37196
-2.01853
-1.70185
-1.39345
-1.09283
-0.801233
-8.98428
-9.19186
-9.13133
-8.84187
-8.37074
-7.76633
-7.08053
-6.35669
-5.63533
-4.95191
-4.32547
-3.77952
-3.31745
-2.93957
-2.62922
-2.37357
-2.1334
-1.88937
-1.61671
-9.6342
-9.71288
-9.54595
-9.18294
-8.67067
-8.05287
-7.37263
-6.66606
-5.96645
-5.3026
-4.692
-4.15477
-3.69712
-3.32443
-3.03214
-2.82094
-2.67029
-2.56523
-2.47857
-10.3592
-10.2687
-9.96981
-9.51333
-8.94111
-8.29144
-7.59936
-6.89564
-6.20802
-5.55952
-4.9671
-4.44606
-4.00257
-3.64045
-3.35846
-3.15618
-3.02649
-2.96655
-2.97065
-11.1547
-10.8655
-10.429
-9.87869
-9.24561
-8.56038
-7.85145
-7.14489
-6.46442
-5.82936
-5.25535
-4.75467
-4.33221
-3.98959
-3.72393
-3.52899
-3.39374
-3.30695
-3.25503
-11.8617
-11.3959
-10.8372
-10.2024
-9.51329
-8.79372
-8.06707
-7.35508
-6.67807
-6.05236
-5.49143
-5.00557
-4.5981
-4.26933
-4.01559
-3.82998
-3.70165
-3.62
-3.57237
-12.413
-11.83
-11.1821
-10.4829
-9.75018
-9.00366
-8.26314
-7.54711
-6.87322
-6.25546
-5.70567
-5.23259
-4.83852
-4.52293
-4.28185
-4.10791
-3.99051
-3.91893
-3.88066
-12.844
-12.1731
-11.4577
-10.7093
-9.94318
-9.176
-8.42483
-7.70573
-7.03435
-6.42285
-5.88195
-5.41919
-5.03612
-4.73161
-4.50149
-4.33795
-4.23052
-4.16839
-4.13911
-13.156
-12.4198
-11.6537
-10.8694
-10.0793
-9.29769
-8.53925
-7.81821
-7.14881
-6.54195
-6.00757
-5.55238
-5.17746
-4.88124
-4.65936
-4.50364
-4.40359
-4.34815
-4.32483
-13.3665
-12.5624
-11.7582
-10.9512
-10.1475
-9.35825
-8.5963
-7.87466
-7.20672
-6.6027
-6.07212
-5.62129
-5.25105
-4.95964
-4.74269
-4.59192
-4.49694
-4.44665
-4.42856
-13.3666
-12.5626
-11.7584
-10.9513
-10.1477
-9.35844
-8.5965
-7.87486
-7.20693
-6.60292
-6.07235
-5.62152
-5.25128
-4.95989
-4.74294
-4.59219
-4.49722
-4.44695
-4.42888
-13.1561
-12.42
-11.654
-10.8698
-10.0798
-9.29818
-8.53978
-7.81878
-7.14941
-6.54256
-6.0082
-5.55304
-5.17814
-4.88195
-4.66011
-4.50444
-4.40445
-4.34909
-4.32585
-12.8442
-12.1734
-11.4582
-10.7099
-9.9439
-9.17679
-8.42569
-7.70664
-7.0353
-6.42384
-5.88298
-5.42025
-5.03722
-4.73276
-4.50269
-4.33922
-4.23188
-4.16984
-4.14068
-12.4132
-11.8304
-11.1828
-10.4837
-9.75111
-9.00469
-8.26426
-7.54829
-6.87447
-6.25675
-5.70701
-5.23396
-4.83993
-4.52439
-4.28337
-4.10951
-3.99219
-3.92071
-3.88256
-11.8619
-11.3964
-10.8379
-10.2033
-9.51438
-8.79494
-8.06841
-7.35651
-6.67956
-6.05391
-5.49304
-5.00721
-4.59979
-4.27107
-4.01738
-3.83183
-3.70359
-3.62204
-3.57454
-11.1549
-10.866
-10.4298
-9.87972
-9.24682
-8.56175
-7.85295
-7.14649
-6.4661
-5.83111
-5.25715
-4.75651
-4.33408
-3.99149
-3.72586
-3.53095
-3.39574
-3.309
-3.25713
-10.3595
-10.2694
-9.97083
-9.51469
-8.94277
-8.29336
-7.60152
-6.89799
-6.21053
-5.56215
-4.96983
-4.44888
-4.00548
-3.64345
-3.36156
-3.15932
-3.02956
-2.96935
-2.97285
-9.63436
-9.713
-9.54619
-9.18337
-8.67133
-8.05377
-7.37375
-6.66737
-5.96788
-5.30408
-4.69346
-4.15611
-3.69827
-3.32534
-3.03279
-2.82143
-2.67098
-2.5668
-2.48205
-8.98436
-9.19232
-9.13224
-8.84331
-8.37275
-7.76891
-7.08363
-6.36022
-5.63919
-4.95597
-4.32965
-3.78372
-3.32166
-2.94383
-2.63369
-2.37852
-2.13922
-1.89642
-1.62524
-8.38601
-8.71258
-8.73887
-8.50136
-8.04881
-7.43577
-6.72313
-5.96327
-5.20459
-4.48774
-3.83404
-3.26585
-2.78192
-2.37472
-2.02137
-1.70485
-1.39655
-1.09577
-0.803459
-7.86711
-8.30118
-8.40984
-8.2227
-7.78869
-7.16847
-6.43148
-5.63965
-4.84916
-4.10533
-3.43215
-2.84968
-2.35388
-1.93411
-1.57039
-1.25168
-0.967411
-0.728889
-0.547657
-7.40096
-7.93844
-8.12517
-7.98434
-7.56526
-6.93518
-6.17252
-5.3491
-4.52894
-3.76175
-3.07394
-2.48376
-1.98614
-1.57048
-1.22137
-0.932157
-0.697329
-0.521037
-0.397992
-6.95168
-7.61271
-7.88051
-7.784
-7.37697
-6.73478
-5.94577
-5.09196
-4.24519
-3.45937
-2.76305
-2.17313
-1.68423
-1.28604
-0.965282
-0.714602
-0.525472
-0.392724
-0.30394
-6.59996
-7.35675
-7.69286
-7.63048
-7.22741
-6.56759
-5.74995
-4.86652
-3.99645
-3.19719
-2.49865
-1.91622
-1.44372
-1.07002
-0.781122
-0.566213
-0.412382
-0.308853
-0.241442
-6.35629
-7.17417
-7.55385
-7.50746
-7.09616
-6.41229
-5.56514
-4.65555
-3.76854
-2.9636
-2.27068
-1.70296
-1.25254
-0.906248
-0.647851
-0.462804
-0.33506
-0.251331
-0.197711
-6.23236
-7.08485
-7.4775
-7.42184
-6.98516
-6.26829
-5.38999
-4.45777
-3.56026
-2.75699
-2.07624
-1.52816
-1.10227
-0.782789
-0.550977
-0.389458
-0.280533
-0.21015
-0.165197
-6.247
-7.0899
-7.45701
-7.36242
-6.88143
-6.123
-5.21344
-4.26389
-3.36365
-2.56981
-1.90738
-1.3827
-0.982338
-0.687919
-0.478695
-0.335597
-0.240346
-0.178899
-0.138773
-6.38472
-7.17538
-7.48572
-7.33183
-6.7962
-5.99538
-5.05909
-4.09953
-3.20359
-2.42369
-1.78186
-1.27968
-0.901434
-0.626886
-0.434404
-0.303778
-0.217026
-0.159626
-0.118165
-6.57061
-7.28302
-7.51838
-7.30388
-6.72438
-5.89879
-4.95272
-3.99575
-3.10982
-2.34251
-1.71511
-1.22579
-0.859113
-0.593893
-0.408809
-0.283184
-0.200717
-0.14827
-0.116582
-6.78917
-7.41954
-7.59804
-7.35691
-6.77701
-5.96993
-5.04924
-4.11608
-3.24587
-2.48323
-1.85161
-1.3503
-0.967504
-0.684668
-0.483054
-0.343307
-0.251579
-0.197218
-0.175837
-7.02216
-7.57096
-7.69182
-7.42175
-6.83884
-6.04676
-5.14836
-4.23605
-3.37937
-2.62049
-1.98396
-1.47105
-1.07303
-0.773933
-0.557399
-0.405611
-0.306387
-0.249983
-0.231228
-7.26318
-7.74029
-7.80784
-7.51164
-6.92701
-6.14921
-5.27079
-4.37614
-3.52977
-2.77192
-2.12841
-1.60256
-1.18854
-0.87291
-0.641648
-0.478251
-0.371854
-0.312994
-0.2961
-7.529
-7.93544
-7.95
-7.62893
-7.042
-6.27533
-5.41227
-4.53044
-3.69031
-2.93076
-2.27883
-1.73972
-1.3102
-0.979066
-0.734451
-0.560913
-0.448806
-0.388877
-0.37551
-7.83962
-8.15424
-8.11644
-7.77172
-7.18002
-6.41912
-5.56512
-4.69042
-3.85249
-3.08919
-2.42859
-1.87734
-1.43435
-1.09027
-0.835155
-0.65438
-0.539582
-0.481715
-0.475239
-8.12982
-8.37157
-8.29493
-7.93021
-7.33104
-6.57021
-5.71908
-4.84654
-4.0079
-3.24021
-2.57218
-2.0115
-1.55865
-1.20573
-0.944556
-0.761063
-0.64835
-0.597538
-0.603188
-8.41356
-8.62222
-8.51392
-8.1248
-7.50912
-6.73769
-5.87986
-5.00218
-4.15855
-3.38511
-2.71075
-2.14354
-1.68503
-1.32825
-1.06669
-0.88647
-0.782414
-0.745667
-0.770865
-8.74825
-8.91226
-8.76096
-8.33491
-7.69013
-6.89698
-6.02459
-5.13765
-4.28854
-3.51187
-2.83599
-2.26859
-1.81173
-1.45898
-1.20551
-1.03727
-0.951276
-0.938514
-0.993703
-9.12938
-9.22875
-9.0211
-8.54358
-7.85637
-7.03169
-6.13947
-5.24235
-4.39055
-3.61616
-2.94638
-2.38758
-1.94205
-1.60355
-1.36919
-1.22425
-1.16864
-1.19297
-1.29203
-9.52823
-9.56467
-9.28638
-8.74008
-7.99706
-7.13321
-6.2189
-5.31381
-4.46495
-3.70061
-3.04662
-2.50707
-2.08443
-1.7724
-1.57052
-1.46277
-1.45294
-1.53082
-1.69138
-9.97844
-9.93238
-9.55263
-8.91502
-8.10348
-7.19583
-6.26078
-5.35333
-4.51587
-3.77166
-3.14524
-2.63746
-2.25125
-1.98009
-1.82668
-1.77279
-1.82737
-1.97883
-2.22236
-10.5116
-10.3023
-9.78286
-9.03615
-8.15074
-7.20283
-6.25555
-5.35749
-4.54491
-3.83471
-3.25104
-2.79043
-2.45702
-2.24397
-2.15812
-2.17796
-2.3191
-2.56783
-2.91982
-10.9648
-10.5672
-9.89799
-9.04406
-8.09641
-7.12675
-6.18773
-5.32011
-4.55284
-3.89566
-3.37409
-2.97935
-2.71803
-2.58308
-2.58677
-2.7031
-2.95642
-3.33025
-3.8217
-11.3638
-10.7756
-9.94197
-8.98368
-7.98813
-7.01595
-6.10393
-5.28456
-4.57931
-3.99066
-3.54782
-3.23586
-3.06524
-3.02867
-3.14524
-3.38287
-3.7769
-4.30741
-4.97497
-11.7243
-10.8476
-9.83909
-8.80232
-7.79308
-6.85187
-5.99536
-5.24916
-4.62811
-4.12795
-3.78451
-3.57591
-3.51821
-3.60405
-3.86088
-4.24903
-4.8177
-5.54349
-6.4357
-11.7736
-10.6122
-9.49226
-8.44728
-7.48307
-6.62069
-5.85686
-5.21467
-4.70418
-4.31562
-4.09472
-4.01212
-4.09156
-4.32605
-4.75368
-5.32629
-6.11178
-7.08538
-8.27835
-11.4107
-10.0995
-8.97552
-8.00058
-7.13492
-6.38945
-5.74547
-5.22882
-4.84734
-4.58735
-4.50756
-4.57104
-4.81141
-5.22287
-5.8571
-6.65726
-7.71669
-9.01429
-10.6353
-10.5067
-9.24598
-8.2537
-7.43628
-6.72627
-6.13758
-5.64266
-5.27491
-5.04253
-4.92986
-5.01124
-5.24315
-5.67182
-6.29474
-7.18217
-8.27089
-9.69208
-11.4403
-13.7398
-9.02752
-8.07755
-7.35137
-6.76676
-6.25954
-5.85992
-5.53802
-5.33814
-5.27114
-5.32158
-5.58189
-6.00435
-6.65171
-7.52927
-8.73488
-10.2061
-12.135
-14.5572
-18.0715
-7.07666
-6.65115
-6.28631
-5.98572
-5.71519
-5.52856
-5.39801
-5.37974
-5.48917
-5.71364
-6.16605
-6.79905
-7.69813
-8.88564
-10.504
-12.5094
-15.2005
-18.707
-24.6781
-4.89026
-5.04917
-5.07451
-5.07839
-5.06342
-5.10443
-5.1765
-5.34619
-5.63445
-6.03421
-6.68158
-7.53633
-8.71707
-10.2812
-12.4484
-15.234
-19.1399
-24.508
-35.991
-2.75441
-3.36443
-3.73451
-4.03199
-4.27662
-4.55079
-4.82848
-5.18265
-5.63858
-6.19785
-7.02223
-8.08599
-9.55717
-11.5623
-14.4588
-18.4158
-24.3507
-33.1014
-57.9405
-0.90889
-1.67762
-2.28669
-2.84298
-3.34017
-3.84634
-4.32418
-4.84865
-5.44207
-6.11904
-7.06736
-8.27604
-9.99208
-12.4953
-16.4754
-22.7654
-34.1015
-55.0836
-130.114
)
;

boundaryField
{
    up
    {
        type            calculated;
        value           nonuniform List<scalar> 
84
(
-117.916
-63.8632
-39.1395
-26.5533
-19.3097
-14.6219
-11.2942
-8.78223
-6.82195
-5.26953
-4.04198
-3.08049
-2.33672
-1.77022
-1.34453
-1.02736
-0.791467
-0.61501
-0.481303
-0.377962
-0.296349
-0.229991
-0.171775
-0.10327
-0.099152
-0.127572
-0.152672
-0.182464
-0.221863
-0.277642
-0.36018
-0.484521
-0.69867
-1.56828
-2.5174
-2.99599
-3.23558
-3.55582
-3.8685
-4.13117
-4.31972
-4.42615
-4.42647
-4.32078
-4.13279
-3.87045
-3.55805
-3.23771
-2.99764
-2.52112
-1.57809
-0.700781
-0.485623
-0.360889
-0.278129
-0.222216
-0.182739
-0.152907
-0.127824
-0.0992842
-0.103166
-0.171775
-0.229996
-0.296357
-0.377974
-0.481318
-0.615026
-0.791484
-1.02737
-1.34454
-1.77022
-2.3367
-3.08046
-4.04195
-5.26951
-6.82197
-8.78227
-11.2943
-14.622
-19.3097
-26.5533
-39.1395
-63.8632
-117.916
)
;
    }
    low
    {
        type            calculated;
        value           nonuniform List<scalar> 
84
(
-0.976512
-2.88258
-5.16505
-7.53287
-9.64937
-11.2326
-12.1516
-12.4559
-12.2674
-11.7357
-11.2518
-10.7193
-10.0759
-9.56838
-9.13829
-8.70954
-8.33171
-8.03537
-7.71493
-7.33469
-7.01249
-6.72495
-6.43565
-6.16404
-5.8898
-5.71139
-5.70264
-5.88735
-6.21112
-6.6624
-7.2
-7.72449
-8.30774
-8.978
-9.68572
-10.4857
-11.3831
-12.1512
-12.7356
-13.194
-13.528
-13.7729
-13.7729
-13.528
-13.194
-12.7357
-12.1512
-11.3832
-10.4859
-9.68565
-8.9781
-8.30764
-7.72442
-7.19993
-6.66234
-6.21105
-5.88732
-5.70262
-5.71139
-5.88984
-6.1642
-6.43566
-6.72498
-7.01251
-7.33471
-7.71494
-8.03539
-8.33172
-8.70954
-9.13829
-9.56837
-10.0759
-10.7193
-11.2517
-11.7356
-12.2674
-12.4558
-12.1517
-11.2326
-9.64943
-7.53293
-5.1651
-2.88261
-0.976522
)
;
    }
    left
    {
        type            calculated;
        value           nonuniform List<scalar> 
19
(
-0.892356
-1.64853
-2.27143
-2.84858
-3.36923
-3.89836
-4.39903
-4.94966
-5.57272
-6.29328
-7.30732
-8.61106
-10.4849
-13.2635
-17.7198
-24.8761
-37.9162
-62.3276
-122.29
)
;
    }
    right
    {
        type            calculated;
        value           nonuniform List<scalar> 
19
(
-0.892362
-1.64853
-2.27143
-2.84858
-3.36923
-3.89836
-4.39903
-4.94967
-5.57273
-6.29329
-7.30732
-8.61105
-10.4848
-13.2634
-17.7198
-24.8761
-37.9162
-62.3276
-122.29
)
;
    }
    frontAndBackPlanes
    {
        type            empty;
    }
}


// ************************************************************************* //
