/*--------------------------------*- C++ -*----------------------------------*\
  =========                 |
  \\      /  F ield         | OpenFOAM: The Open Source CFD Toolbox
   \\    /   O peration     | Website:  https://openfoam.org
    \\  /    A nd           | Version:  7
     \\/     M anipulation  |
\*---------------------------------------------------------------------------*/
FoamFile
{
    version     2.0;
    format      ascii;
    class       volScalarField;
    location    "0.256";
    object      T;
}
// * * * * * * * * * * * * * * * * * * * * * * * * * * * * * * * * * * * * * //

dimensions      [0 0 0 1 0 0 0];

internalField   nonuniform List<scalar> 
1596
(
1.99476
1.97972
1.96434
1.94978
1.93634
1.92386
1.91207
1.90036
1.88829
1.87482
1.85914
1.84014
1.81538
1.78143
1.73301
1.65828
1.53523
1.31983
0.923829
1.97733
1.93053
1.88638
1.8458
1.80875
1.7746
1.74256
1.71134
1.67983
1.64609
1.60847
1.565
1.51204
1.44513
1.35872
1.24235
1.07978
0.843095
0.479423
1.95672
1.878
1.80723
1.74357
1.68608
1.63358
1.58479
1.53802
1.49177
1.44375
1.39202
1.33434
1.26707
1.18606
1.08676
0.961359
0.799112
0.583485
0.283647
1.93635
1.82775
1.73295
1.64901
1.57395
1.50601
1.44354
1.38461
1.3275
1.26982
1.20957
1.14454
1.07138
0.986543
0.886473
0.76549
0.616601
0.430136
0.188171
1.91944
1.78497
1.66914
1.56749
1.47723
1.39618
1.32239
1.2538
1.18858
1.12436
1.05917
0.990871
0.916458
0.83287
0.737281
0.625451
0.492675
0.333175
0.136317
1.90805
1.75321
1.61962
1.50258
1.399
1.30649
1.22297
1.14633
1.07469
1.00573
0.937533
0.868054
0.794535
0.714274
0.624904
0.523084
0.405447
0.268356
0.105239
1.90247
1.73346
1.58561
1.45536
1.33996
1.23715
1.14486
1.06102
0.983796
0.910916
0.840534
0.770659
0.698718
0.622244
0.539138
0.446602
0.342028
0.222944
0.0850325
1.90151
1.72427
1.56578
1.42449
1.29862
1.18636
1.08589
0.995275
0.912767
0.836195
0.763773
0.69356
0.623113
0.550112
0.472605
0.388112
0.29445
0.189763
0.0709978
1.90396
1.72362
1.5579
1.4077
1.27263
1.15166
1.0434
0.946178
0.858406
0.778045
0.703384
0.632531
0.563136
0.492973
0.42016
0.3424
0.25774
0.164635
0.0607354
1.90729
1.72722
1.55728
1.40038
1.25757
1.12879
1.01324
0.909649
0.816666
0.732421
0.655302
0.583476
0.514669
0.446717
0.377765
0.305619
0.228442
0.144835
0.0528468
1.90998
1.73161
1.55963
1.39803
1.24904
1.11355
0.991446
0.881922
0.783942
0.695856
0.61618
0.543154
0.474576
0.40833
0.342571
0.275161
0.204312
0.128676
0.0465229
1.91334
1.73759
1.56486
1.39991
1.2459
1.10458
0.976518
0.861426
0.758628
0.666723
0.584384
0.509939
0.441256
0.376258
0.313097
0.249658
0.184169
0.115271
0.041343
1.91654
1.74387
1.57121
1.40391
1.24585
1.0995
0.966098
0.845872
0.738527
0.642938
0.55795
0.481991
0.412999
0.348932
0.287929
0.227883
0.167005
0.1039
0.036994
1.91852
1.74846
1.57627
1.40738
1.24612
1.09558
0.957566
0.832787
0.721338
0.622379
0.534937
0.457548
0.388222
0.324945
0.265845
0.208806
0.152014
0.0940171
0.03325
1.92019
1.75214
1.58034
1.41017
1.24626
1.09211
0.950039
0.821205
0.706064
0.604054
0.514385
0.435702
0.36608
0.303532
0.246168
0.191856
0.138743
0.0853128
0.0299816
1.92182
1.7554
1.58378
1.41238
1.24604
1.08866
0.942927
0.810428
0.691949
0.587188
0.495528
0.415715
0.345885
0.284066
0.228346
0.176565
0.126828
0.0775416
0.0270902
1.92294
1.75771
1.58603
1.41337
1.24476
1.08439
0.935346
0.799549
0.678091
0.570909
0.477543
0.396825
0.326941
0.265929
0.211845
0.162495
0.115931
0.0704834
0.02449
1.92374
1.75927
1.58727
1.41324
1.24239
1.07919
0.927058
0.788242
0.664104
0.554795
0.459988
0.37859
0.308822
0.24872
0.196303
0.149339
0.105816
0.0639811
0.0221192
1.92525
1.7617
1.58925
1.41366
1.24041
1.07429
0.919056
0.777258
0.650519
0.539185
0.443047
0.361066
0.291485
0.232328
0.18157
0.136934
0.0963392
0.0579366
0.0199391
1.92711
1.76487
1.59203
1.41478
1.239
1.06985
0.911427
0.766617
0.637288
0.523969
0.426552
0.344038
0.274678
0.216474
0.167359
0.125009
0.0872756
0.0522014
0.0178987
1.92853
1.76764
1.59451
1.41566
1.23736
1.06518
0.903596
0.75582
0.623967
0.508741
0.410121
0.327136
0.258034
0.200788
0.153294
0.1132
0.0783109
0.0465642
0.0159278
1.92996
1.77041
1.59707
1.41667
1.23587
1.06066
0.895904
0.745158
0.610778
0.493641
0.393806
0.310322
0.241426
0.185057
0.139077
0.101137
0.0690505
0.0407102
0.0139158
1.93162
1.77354
1.60006
1.41816
1.23487
1.05662
0.888667
0.734907
0.597939
0.478805
0.377646
0.29353
0.224682
0.169001
0.124314
0.0882939
0.058845
0.0339898
0.0115501
1.93338
1.77687
1.60327
1.41989
1.23415
1.05289
0.881759
0.724974
0.585356
0.464109
0.361458
0.276497
0.207453
0.15218
0.108453
0.0739485
0.0467012
0.0250726
0.00757105
1.93617
1.78383
1.61326
1.43176
1.24682
1.06537
0.893218
0.734741
0.592957
0.46927
0.364129
0.276849
0.205836
0.149061
0.104354
0.0693815
0.0422039
0.0213298
0.00566827
1.93925
1.79278
1.62776
1.45116
1.27015
1.0914
0.920585
0.762071
0.618972
0.492917
0.384643
0.293851
0.219318
0.159337
0.111932
0.0748146
0.0459471
0.0236582
0.00659234
1.94079
1.79813
1.63735
1.46503
1.28794
1.11236
0.943701
0.786137
0.642736
0.515207
0.404488
0.310604
0.23272
0.169515
0.119302
0.0799191
0.04929
0.0256051
0.00730173
1.94081
1.79972
1.64171
1.47293
1.29964
1.12764
0.961893
0.806267
0.663621
0.53561
0.423258
0.326831
0.245863
0.179467
0.126361
0.0846112
0.0521841
0.0271655
0.00781569
1.93984
1.79865
1.6423
1.4765
1.30694
1.13885
0.976665
0.823799
0.682807
0.555178
0.441914
0.343431
0.25957
0.1899
0.133652
0.0892727
0.0548857
0.0285098
0.00821549
1.93799
1.79562
1.64033
1.47727
1.31154
1.14771
0.989614
0.840186
0.701599
0.575099
0.461581
0.361501
0.274909
0.201785
0.141947
0.0944149
0.0576743
0.0297735
0.00855182
1.93565
1.7918
1.63745
1.4772
1.31547
1.1562
1.00263
0.857154
0.721564
0.596822
0.483657
0.382464
0.293357
0.21659
0.152539
0.100963
0.061038
0.0311296
0.00886549
1.93385
1.78889
1.6357
1.47841
1.32087
1.16639
1.0176
0.876434
0.744285
0.621845
0.509648
0.407954
0.316782
0.236423
0.167592
0.110756
0.0661122
0.0329547
0.00916239
1.93218
1.7864
1.63468
1.48068
1.32765
1.17829
1.03467
0.898254
0.770107
0.65067
0.540306
0.439121
0.346933
0.263821
0.190422
0.127474
0.0760585
0.0369476
0.00947784
1.93057
1.78437
1.63459
1.48433
1.33623
1.19238
1.05435
0.923186
0.79966
0.684024
0.576526
0.47719
0.385664
0.301735
0.225623
0.157645
0.098784
0.0505829
0.0138477
1.92866
1.78147
1.63292
1.48561
1.3416
1.20244
1.06927
0.942762
0.823479
0.711518
0.60707
0.51014
0.420353
0.337374
0.261084
0.191138
0.127539
0.0709442
0.0219187
1.92529
1.77435
1.62431
1.4772
1.33455
1.19745
1.06666
0.942578
0.825559
0.715558
0.6127
0.516969
0.428011
0.345546
0.269523
0.199568
0.135503
0.077451
0.0250719
1.92086
1.7645
1.61142
1.46296
1.32009
1.1835
1.05362
0.930607
0.814634
0.705527
0.603353
0.508086
0.419394
0.337086
0.261271
0.191779
0.128712
0.0725042
0.0230316
1.91714
1.75628
1.60072
1.45116
1.30814
1.17199
1.04288
0.920781
0.805721
0.697439
0.595968
0.501287
0.413097
0.331267
0.255999
0.187205
0.125066
0.0700786
0.0221425
1.9145
1.75023
1.59272
1.44226
1.29905
1.1632
1.03465
0.913234
0.798877
0.691252
0.590368
0.496212
0.408495
0.327126
0.252354
0.18413
0.122675
0.0685272
0.0216015
1.91248
1.74563
1.58663
1.43547
1.29213
1.15649
1.02836
0.907456
0.793637
0.686525
0.586111
0.492382
0.405059
0.324068
0.249692
0.181905
0.120956
0.0674186
0.0212216
1.91101
1.74228
1.58221
1.43058
1.28715
1.15167
1.02385
0.903309
0.789878
0.683135
0.583063
0.489649
0.402614
0.321897
0.247804
0.180324
0.119728
0.0666207
0.0209454
1.90981
1.73986
1.57923
1.42741
1.28401
1.14869
1.0211
0.900819
0.78765
0.681156
0.581315
0.488113
0.401273
0.320738
0.246822
0.179524
0.119123
0.0662374
0.0208182
1.90981
1.73987
1.57924
1.42742
1.28402
1.1487
1.02111
0.900832
0.787663
0.681169
0.581327
0.488124
0.401282
0.320746
0.246829
0.17953
0.119127
0.0662398
0.020819
1.91102
1.7423
1.58224
1.43062
1.28719
1.15171
1.02389
0.90335
0.789917
0.683173
0.583099
0.489682
0.402644
0.321924
0.247826
0.180341
0.119741
0.0666286
0.0209482
1.9125
1.74567
1.58667
1.43553
1.29219
1.15655
1.02843
0.90752
0.7937
0.686585
0.586167
0.492434
0.405106
0.324108
0.249726
0.181932
0.120975
0.0674301
0.0212255
1.91451
1.75028
1.59278
1.44233
1.29913
1.16328
1.03474
0.913319
0.79896
0.691331
0.590443
0.49628
0.408556
0.327178
0.252397
0.184164
0.122699
0.0685417
0.0216064
1.91716
1.75633
1.60079
1.45125
1.30824
1.1721
1.04299
0.920886
0.805823
0.697536
0.596058
0.50137
0.41317
0.33133
0.256051
0.187245
0.125094
0.0700951
0.0221479
1.92088
1.76455
1.61151
1.46306
1.3202
1.18362
1.05374
0.930728
0.814751
0.705639
0.603456
0.508178
0.419475
0.337154
0.261324
0.191819
0.128739
0.0725185
0.0230357
1.92532
1.77442
1.62441
1.47732
1.33467
1.19759
1.06679
0.942714
0.825689
0.71568
0.612811
0.517066
0.428091
0.345608
0.269565
0.199592
0.135511
0.0774495
0.0250689
1.92869
1.78157
1.63307
1.4858
1.34183
1.20271
1.06956
0.943069
0.823797
0.711843
0.607397
0.510466
0.420674
0.337689
0.261388
0.191425
0.127793
0.0711362
0.0220018
1.9306
1.78448
1.63476
1.48456
1.33652
1.19271
1.05472
0.92358
0.800072
0.684449
0.576957
0.477621
0.386088
0.302145
0.226006
0.157984
0.099055
0.0507601
0.0139119
1.93221
1.78649
1.63484
1.48089
1.32791
1.17858
1.03499
0.898596
0.770461
0.65103
0.540665
0.439471
0.347266
0.264125
0.190684
0.12768
0.0761959
0.037016
0.00949119
1.93388
1.78897
1.63584
1.4786
1.3211
1.16666
1.01791
0.876755
0.744615
0.622175
0.509971
0.408261
0.317063
0.236667
0.16779
0.110899
0.0662007
0.0329975
0.00917337
1.93568
1.79187
1.63758
1.47738
1.31569
1.15646
1.00291
0.857453
0.721869
0.597124
0.483947
0.382733
0.293596
0.21679
0.152694
0.101072
0.0611048
0.0311634
0.00887507
1.93801
1.79569
1.64044
1.47744
1.31174
1.14795
0.989878
0.840463
0.70188
0.575374
0.461841
0.361737
0.275114
0.201952
0.142074
0.0945033
0.0577296
0.0298026
0.00856045
1.93986
1.79871
1.64241
1.47665
1.30713
1.13907
0.976908
0.824053
0.683064
0.555427
0.442146
0.343638
0.259747
0.190043
0.133759
0.0893481
0.0549339
0.0285359
0.00822354
1.94082
1.79978
1.64181
1.47307
1.29981
1.12784
0.962114
0.806498
0.663853
0.535833
0.423464
0.327013
0.246017
0.17959
0.126454
0.0846775
0.0522274
0.0271897
0.00782356
1.9408
1.79817
1.63743
1.46515
1.28809
1.11254
0.943899
0.786345
0.642943
0.515406
0.404671
0.310764
0.232855
0.169623
0.119385
0.0799792
0.0493305
0.0256288
0.00730996
1.93926
1.79282
1.62783
1.45127
1.27029
1.09156
0.920761
0.762255
0.619156
0.493092
0.384804
0.293992
0.219437
0.159434
0.112007
0.0748707
0.0459865
0.0236826
0.00660165
1.93617
1.78384
1.61328
1.43179
1.24686
1.06541
0.893268
0.734794
0.59301
0.469319
0.364172
0.276886
0.205864
0.14908
0.104366
0.0693867
0.0422042
0.0213274
0.00566624
1.93337
1.77685
1.60325
1.41986
1.23412
1.05285
0.881722
0.724937
0.58532
0.464075
0.361426
0.276468
0.207426
0.152156
0.108432
0.0739295
0.0466855
0.0250611
0.00756572
1.93162
1.77354
1.60006
1.41815
1.23487
1.05661
0.888662
0.734904
0.597937
0.478805
0.377648
0.293533
0.224686
0.169005
0.124318
0.0882978
0.0588482
0.0339919
0.0115507
1.92996
1.7704
1.59707
1.41667
1.23587
1.06065
0.895901
0.745156
0.610778
0.493642
0.393809
0.310325
0.241429
0.18506
0.13908
0.10114
0.0690527
0.0407115
0.0139161
1.92853
1.76763
1.59451
1.41566
1.23736
1.06518
0.903594
0.75582
0.623967
0.508742
0.410123
0.327138
0.258037
0.200791
0.153296
0.113202
0.0783124
0.046565
0.0159281
1.92711
1.76487
1.59202
1.41477
1.239
1.06985
0.911426
0.766617
0.637289
0.52397
0.426554
0.34404
0.27468
0.216476
0.167361
0.12501
0.0872767
0.052202
0.0178988
1.92525
1.7617
1.58925
1.41366
1.24041
1.07429
0.919056
0.777259
0.65052
0.539187
0.443049
0.361068
0.291487
0.232329
0.181572
0.136935
0.09634
0.057937
0.0199392
1.92374
1.75927
1.58727
1.41324
1.24239
1.07919
0.927059
0.788243
0.664105
0.554796
0.45999
0.378592
0.308824
0.248722
0.196304
0.149339
0.105816
0.0639813
0.0221192
1.92294
1.75771
1.58603
1.41337
1.24476
1.08439
0.935347
0.79955
0.678092
0.57091
0.477544
0.396826
0.326942
0.26593
0.211845
0.162496
0.115932
0.0704835
0.02449
1.92182
1.7554
1.58378
1.41238
1.24605
1.08866
0.942928
0.810429
0.691951
0.587189
0.495529
0.415716
0.345885
0.284067
0.228346
0.176565
0.126828
0.0775416
0.0270902
1.92019
1.75214
1.58034
1.41017
1.24626
1.09211
0.95004
0.821206
0.706065
0.604055
0.514386
0.435702
0.36608
0.303532
0.246168
0.191855
0.138743
0.0853126
0.0299816
1.91852
1.74846
1.57628
1.40738
1.24613
1.09558
0.957567
0.832788
0.721339
0.622379
0.534937
0.457548
0.388222
0.324945
0.265845
0.208806
0.152014
0.0940169
0.03325
1.91654
1.74387
1.57121
1.40391
1.24585
1.0995
0.966099
0.845873
0.738527
0.642938
0.55795
0.48199
0.412999
0.348931
0.287929
0.227882
0.167004
0.103899
0.036994
1.91334
1.73759
1.56486
1.39991
1.24591
1.10458
0.976518
0.861426
0.758627
0.666722
0.584384
0.509938
0.441255
0.376257
0.313096
0.249658
0.184168
0.115271
0.041343
1.90998
1.73161
1.55964
1.39803
1.24905
1.11355
0.991446
0.881922
0.783941
0.695855
0.616179
0.543152
0.474574
0.408329
0.34257
0.27516
0.204312
0.128676
0.046523
1.90729
1.72722
1.55728
1.40038
1.25757
1.12879
1.01324
0.909648
0.816664
0.732419
0.655301
0.583475
0.514668
0.446716
0.377764
0.305618
0.228442
0.144835
0.052847
1.90396
1.72362
1.5579
1.4077
1.27263
1.15166
1.0434
0.946176
0.858404
0.778043
0.703383
0.632529
0.563135
0.492972
0.420159
0.342399
0.257739
0.164636
0.0607356
1.90151
1.72427
1.56578
1.42449
1.29862
1.18636
1.08589
0.995273
0.912765
0.836193
0.763771
0.693558
0.623111
0.550111
0.472604
0.388112
0.29445
0.189764
0.070998
1.90247
1.73346
1.58561
1.45536
1.33996
1.23715
1.14486
1.06102
0.983793
0.910913
0.840532
0.770657
0.698716
0.622243
0.539138
0.446602
0.342028
0.222944
0.0850327
1.90805
1.75321
1.61962
1.50258
1.399
1.30649
1.22297
1.14632
1.07469
1.00572
0.937531
0.868052
0.794534
0.714273
0.624904
0.523084
0.405447
0.268357
0.105239
1.91944
1.78497
1.66914
1.56749
1.47723
1.39617
1.32238
1.25379
1.18858
1.12436
1.05917
0.990869
0.916457
0.832869
0.737281
0.625451
0.492676
0.333175
0.136317
1.93635
1.82775
1.73295
1.64901
1.57395
1.50601
1.44354
1.38461
1.3275
1.26981
1.20957
1.14453
1.07138
0.986543
0.886473
0.76549
0.616601
0.430136
0.188171
1.95672
1.878
1.80723
1.74357
1.68608
1.63357
1.58478
1.53802
1.49177
1.44375
1.39202
1.33434
1.26707
1.18606
1.08676
0.961359
0.799113
0.583485
0.283647
1.97733
1.93053
1.88638
1.8458
1.80875
1.7746
1.74256
1.71134
1.67983
1.64608
1.60847
1.565
1.51204
1.44513
1.35872
1.24235
1.07978
0.843094
0.479423
1.99476
1.97972
1.96434
1.94978
1.93634
1.92386
1.91207
1.90036
1.88829
1.87482
1.85914
1.84014
1.81538
1.78143
1.73301
1.65828
1.53523
1.31983
0.923829
)
;

boundaryField
{
    up
    {
        type            fixedValue;
        value           uniform 0;
    }
    low
    {
        type            fixedValue;
        value           uniform 2;
    }
    left
    {
        type            fixedValue;
        value           uniform 2;
    }
    right
    {
        type            fixedValue;
        value           uniform 2;
    }
    frontAndBackPlanes
    {
        type            empty;
    }
}


// ************************************************************************* //
