/*--------------------------------*- C++ -*----------------------------------*\
  =========                 |
  \\      /  F ield         | OpenFOAM: The Open Source CFD Toolbox
   \\    /   O peration     | Website:  https://openfoam.org
    \\  /    A nd           | Version:  7
     \\/     M anipulation  |
\*---------------------------------------------------------------------------*/
FoamFile
{
    version     2.0;
    format      ascii;
    class       volScalarField;
    location    "0.26";
    object      gradTz;
}
// * * * * * * * * * * * * * * * * * * * * * * * * * * * * * * * * * * * * * //

dimensions      [0 -1 0 1 0 0 0];

internalField   nonuniform List<scalar> 
1596
(
-8.06838e-16
-3.92503e-16
3.98538e-16
8.40401e-18
-7.59926e-16
0
-3.55265e-16
-3.50309e-16
-2.28815e-17
-1.84354e-16
-1.7093e-18
-1.83355e-16
8.06589e-16
-1.81295e-16
8.47261e-16
7.31029e-16
4.34796e-16
5.49036e-16
0
8.06409e-16
0
1.13787e-15
-7.7388e-18
-3.49193e-16
3.46216e-16
7.12897e-16
2.17681e-17
3.3789e-16
-1.62781e-16
3.24776e-16
-4.96934e-18
-4.50449e-16
-2.81321e-16
-6.85035e-16
-6.68241e-16
-6.07889e-16
3.4598e-16
0
-3.9569e-16
0
-7.42873e-16
1.22922e-17
6.82139e-16
-1.91105e-16
1.44553e-17
-4.74944e-18
-4.84302e-18
-5.16801e-18
1.23371e-16
0
2.33673e-16
6.62985e-16
-6.53322e-17
5.25527e-17
1.23617e-16
1.92966e-16
0
6.21266e-16
-1.87151e-16
1.86468e-16
0
-1.79492e-16
-1.856e-16
3.16692e-16
-2.76994e-16
0
0
-9.89941e-17
6.44042e-17
0
-1.95357e-16
-2.49117e-16
1.72269e-16
-1.76867e-16
-9.10158e-18
0
1.08499e-16
2.89282e-16
-2.61475e-16
0
-7.73312e-17
-2.35239e-16
0
3.51928e-16
-3.50611e-17
-3.17462e-17
-3.003e-17
1.83323e-16
2.25139e-16
2.32342e-17
7.85651e-18
-1.86272e-16
9.3891e-18
8.62557e-17
-3.70943e-17
-2.81755e-17
-3.97067e-16
3.7826e-16
-3.30866e-16
-6.77765e-19
-2.93376e-16
8.27547e-18
-8.30295e-18
-2.32164e-16
0
-2.48599e-17
-2.16739e-16
-2.03403e-16
1.6551e-16
1.71374e-16
-2.34008e-18
-1.02748e-16
-8.7488e-17
6.6884e-17
2.35468e-16
-4.04598e-16
4.54693e-16
2.54733e-16
0
2.25162e-16
1.3264e-16
-6.39102e-17
2.94528e-16
-5.53709e-17
-2.33978e-16
2.13584e-18
-1.38855e-16
-1.66301e-16
-1.30142e-16
1.1068e-16
1.03653e-16
-1.38373e-18
-2.79105e-17
2.28298e-17
6.42499e-16
-7.57803e-16
0
0
-2.79348e-16
0
0
0
1.93291e-16
0
0
1.2733e-16
4.78368e-18
3.44467e-17
-9.67417e-17
0
5.1491e-17
2.00826e-17
0
-4.17293e-16
8.03382e-16
0
0
2.8769e-16
0
-1.10249e-16
1.10138e-16
-1.96743e-16
8.20449e-17
-8.26449e-17
0
1.19342e-16
1.15889e-16
0
-6.69041e-17
-5.26149e-17
-1.75407e-17
1.00256e-15
-4.69741e-16
0
-3.35337e-16
3.31584e-16
0
2.47073e-16
0
0
0
7.59357e-17
-7.62997e-17
0
-9.21539e-17
-2.64103e-17
0
7.08766e-18
3.81849e-17
0
-2.54473e-16
0
0
3.36148e-16
-6.27967e-16
3.17076e-17
1.22145e-17
-1.02056e-16
1.12541e-17
3.91113e-18
-7.97733e-17
-1.28589e-16
0
9.7232e-17
-1.94178e-17
1.97092e-17
5.13936e-17
-2.99579e-17
-1.38036e-17
2.12294e-16
-2.23177e-17
2.03818e-16
6.98449e-16
-3.69375e-17
-2.93437e-16
0
0
0
1.64323e-16
6.60311e-17
2.38285e-16
-5.75428e-17
-9.54926e-17
-5.69951e-17
-3.10351e-17
1.38235e-17
-3.00705e-17
1.31353e-17
-2.34467e-16
2.29717e-16
-4.25032e-16
-6.89954e-16
6.39573e-16
2.54208e-16
-4.70647e-16
4.081e-16
-3.5348e-16
9.215e-17
7.08166e-17
-6.41837e-17
4.19147e-17
-3.77015e-17
1.10284e-16
0
-8.3258e-18
6.13541e-17
-9.1182e-18
-1.51682e-15
6.97092e-16
5.75194e-19
-1.54275e-16
1.94364e-17
2.46933e-16
-4.69375e-16
-1.94014e-16
1.6596e-16
-1.41237e-16
-1.2064e-16
0
-1.37608e-16
-4.09758e-17
-7.33964e-17
-4.36625e-17
3.43738e-18
-3.8579e-17
8.5642e-19
2.4791e-16
-2.21152e-16
4.64926e-19
-1.70511e-16
-4.2633e-16
4.02102e-16
1.65792e-18
1.89067e-16
-1.61584e-16
2.70918e-16
6.41512e-17
5.28472e-17
1.63305e-16
0
1.35776e-16
6.24205e-17
0
2.10737e-17
7.2301e-19
0
2.14543e-16
1.69141e-16
-3.51572e-16
4.13112e-16
-6.20819e-16
4.39836e-16
1.66559e-16
-2.42266e-17
-2.68005e-16
4.93078e-17
-4.90645e-17
-1.49255e-16
5.94079e-17
-2.96307e-17
-6.24313e-17
2.70494e-17
-1.67958e-17
6.57988e-18
-2.30939e-16
7.85285e-16
-5.84941e-16
3.18936e-16
0
0
-8.68351e-17
1.84937e-16
-1.32091e-16
2.48378e-16
0
0
1.00709e-16
-8.80457e-17
-6.25267e-17
1.97243e-17
-2.10587e-17
1.10902e-17
0
1.87158e-17
2.15965e-16
-1.74586e-16
-1.53023e-16
-2.47488e-16
-8.05141e-17
1.11433e-16
0
-1.24167e-16
-1.01133e-16
9.08829e-17
-7.42414e-17
6.02467e-17
0
2.38643e-17
4.68014e-17
0
0
0
-1.79163e-17
3.46077e-16
1.32345e-16
-4.61737e-16
1.27647e-16
1.0953e-16
0
0
1.17258e-16
-6.11006e-17
-8.79035e-17
7.18049e-17
-5.82631e-17
0
-1.5601e-17
1.33194e-17
0
-1.12374e-17
-3.92607e-18
-1.85433e-16
5.44152e-16
-6.607e-16
-2.6461e-16
1.38721e-16
-1.03779e-16
8.72157e-17
0
-5.9615e-17
4.98353e-17
0
0
2.29627e-17
-2.29892e-17
6.91173e-18
-9.1782e-18
1.60573e-17
1.95748e-18
2.92122e-18
9.53156e-17
-8.59796e-17
4.40468e-16
-2.84317e-16
-1.15483e-16
1.48382e-17
1.79581e-16
6.83075e-17
5.70426e-17
0
3.31451e-17
-3.06968e-17
2.44452e-17
-2.07088e-17
2.67586e-17
-4.61267e-17
-1.2502e-17
1.09093e-17
2.90594e-18
2.55128e-16
-2.58647e-16
0
2.38277e-16
-1.25636e-16
-9.37982e-17
6.50209e-17
-2.08054e-16
0
-3.67684e-18
-3.82879e-17
-2.75968e-17
4.02315e-17
-3.10697e-18
-2.58617e-17
1.91397e-17
0
6.93687e-18
-2.82164e-18
4.35879e-16
-7.70485e-17
3.27995e-16
-2.56933e-16
1.41653e-16
1.55844e-17
-1.62502e-16
-5.55742e-17
1.00124e-16
-4.25026e-18
-5.87009e-17
4.95858e-17
-2.16998e-17
-2.85714e-17
0
0
0
-7.00248e-18
2.60194e-19
-3.87695e-16
3.77562e-16
2.69555e-19
5.77495e-17
4.972e-17
-1.20108e-16
1.41663e-16
-1.16485e-16
9.93377e-17
-3.29761e-17
6.2718e-17
2.23184e-17
-9.48041e-18
4.83506e-19
-3.42449e-18
-6.01404e-18
0
0
0
0
0
1.85323e-16
-9.02252e-17
-2.81611e-16
0
0
-3.38352e-17
-5.46362e-17
4.57072e-17
0
-2.81476e-17
2.1851e-17
-7.28365e-17
8.37408e-17
-2.73313e-17
2.91003e-17
3.18364e-18
0
-7.51197e-17
7.60443e-17
0
-6.1278e-17
6.21706e-17
1.02929e-16
0
3.41583e-17
4.50932e-17
-2.01744e-16
0
-3.13007e-17
2.44194e-17
1.74844e-17
-1.29951e-17
1.90217e-17
0
-6.99989e-18
0
-3.86318e-17
-3.84568e-17
2.27746e-18
6.29616e-17
-1.69232e-16
0
-4.36257e-17
0
1.23708e-16
4.99514e-17
0
1.24123e-16
-1.30225e-16
1.31878e-17
-2.88588e-17
8.2026e-18
3.65538e-17
1.38348e-17
-1.09592e-17
0
7.98539e-17
-7.00642e-17
8.69411e-17
1.0456e-16
0
8.87881e-17
-8.39429e-17
-6.63234e-17
9.99373e-17
-1.50051e-16
-7.33984e-17
0
0
1.61054e-17
0
0
4.60912e-18
0
-3.54155e-16
2.71905e-16
0
4.15851e-18
-6.10459e-17
-3.36388e-18
5.43743e-17
3.90344e-17
-4.87835e-17
-1.24436e-16
1.97949e-16
-5.36477e-17
0
-2.57626e-17
0
0
0
-1.78059e-17
1.4224e-17
-1.00173e-16
9.39115e-17
2.51281e-16
-2.45789e-16
7.55867e-17
4.22119e-18
-5.52421e-17
4.77308e-17
8.13395e-17
6.23886e-17
-1.23323e-16
0
6.42448e-17
9.05759e-18
-2.94928e-17
-6.47093e-17
5.33465e-17
-8.65037e-18
1.6358e-17
-3.38931e-16
4.8861e-16
-4.84663e-16
8.54163e-17
7.26822e-17
-6.92313e-17
5.83095e-17
-4.64418e-17
0
-3.95998e-17
6.36744e-17
2.76256e-17
4.46153e-17
5.66576e-17
-8.48755e-17
-1.41354e-18
0
-6.63382e-18
2.2199e-18
-3.66468e-16
-1.0926e-16
-1.92048e-16
1.02064e-16
-1.6731e-16
1.4582e-16
-8.7009e-17
7.38695e-17
-5.08815e-18
-5.07905e-18
-6.69009e-17
3.94688e-17
-2.22333e-17
6.76993e-17
-7.26758e-17
9.08372e-18
7.70041e-18
0
-3.84536e-18
3.96232e-16
-1.17834e-16
0
0
-1.72337e-16
3.35516e-16
-7.85599e-17
-1.51473e-17
1.24924e-16
-3.22347e-18
0
0
-2.90239e-17
0
-6.32769e-17
1.53668e-16
-1.06663e-16
0
1.52829e-18
1.3554e-16
2.53446e-16
0
-1.08262e-16
-8.85999e-17
-7.86403e-17
-8.1709e-17
3.39531e-17
-9.49931e-17
-5.20998e-17
0
0
3.86334e-17
0
0
-8.5685e-17
1.41219e-16
0
0
9.30159e-16
-1.09627e-16
-5.63892e-16
-3.07963e-16
4.17664e-16
1.33453e-16
7.92271e-17
0
-2.92304e-17
2.83727e-17
7.03438e-17
-2.2701e-17
-3.39011e-17
5.26084e-17
-5.59592e-17
-1.72855e-17
0
0
0
7.44882e-17
-5.8871e-16
5.77226e-16
-5.5433e-17
-4.2969e-16
6.73218e-16
-3.38376e-16
0
0
1.81703e-16
-1.49344e-16
0
-4.52915e-17
7.88681e-17
-8.88975e-18
2.30642e-17
7.04099e-18
7.62391e-20
1.53611e-18
0
0
0
4.86747e-16
-3.26401e-16
3.4425e-16
-5.37017e-16
1.53132e-16
0
-5.53854e-17
8.87867e-17
-9.07453e-17
-1.78564e-17
-3.2619e-19
-1.22731e-17
-1.81147e-18
-9.78478e-18
-2.74405e-18
-1.49942e-18
6.23877e-16
-1.11316e-15
5.27883e-16
0
1.42727e-16
-1.94443e-16
1.95511e-16
-1.55105e-16
0
-7.58871e-17
1.06395e-16
0
0
-2.38179e-19
0
-1.26736e-17
8.67102e-18
1.59846e-18
2.39098e-18
6.05259e-16
0
-2.41692e-16
2.69971e-16
-1.69984e-16
3.71673e-16
-1.75842e-16
-1.38026e-16
1.39467e-16
-1.42102e-17
0
0
9.14009e-18
-1.54594e-17
-1.08395e-17
2.05568e-17
-4.45042e-18
2.27894e-18
0
3.43646e-16
2.69048e-16
-8.91465e-18
-2.57384e-16
-2.60505e-17
-1.88225e-16
2.01517e-17
1.58434e-16
-8.20566e-18
1.4477e-17
0
0
-9.36341e-18
0
1.10257e-17
-1.17949e-17
0
1.51108e-18
-4.19013e-19
-1.82401e-16
-1.34962e-16
1.26373e-16
-1.4505e-17
-6.51341e-18
1.76258e-17
0
-4.66745e-18
7.00633e-17
-5.90046e-17
0
2.00543e-17
-3.9263e-18
-1.77161e-17
-1.62152e-18
-1.26481e-18
0
-1.18113e-18
0
7.45515e-17
-1.41846e-16
-1.95035e-18
6.10734e-17
5.60516e-17
-5.56925e-17
-3.95939e-17
4.48224e-17
-1.54285e-17
1.20671e-17
-1.17592e-17
1.21218e-17
0
3.1043e-20
-1.19466e-18
4.29554e-18
-1.47048e-20
0
0
7.45541e-17
-7.42747e-17
-6.07535e-17
5.38152e-17
9.90231e-17
-9.96077e-17
-1.97976e-17
1.98445e-17
-1.5559e-17
1.57223e-17
-1.17596e-17
2.22002e-17
-6.22642e-18
-4.48888e-18
-1.37898e-18
4.56965e-19
1.09098e-18
2.88558e-19
-2.16411e-19
0
-1.76986e-17
1.05835e-16
-1.14708e-16
9.88564e-17
-8.76222e-17
0
7.00664e-17
-6.26687e-17
0
2.34156e-17
-2.96517e-17
-1.69055e-17
1.77181e-17
3.26322e-18
0
0
-1.1813e-18
4.29298e-19
2.96721e-16
-5.46763e-16
5.58591e-16
-4.91169e-16
1.93245e-16
-1.64815e-16
1.56377e-16
1.8646e-17
-6.95517e-17
6.21497e-17
0
-4.52619e-17
4.12156e-17
-7.84594e-18
-3.19632e-18
5.0349e-18
3.70261e-18
1.14682e-18
-4.148e-19
6.82499e-16
0
-2.73393e-16
2.1246e-16
2.57509e-17
-1.98516e-16
3.52462e-16
-3.13415e-16
1.23136e-16
-5.28403e-17
5.40866e-17
1.07285e-17
1.84754e-17
7.64202e-18
-6.35219e-18
-8.30496e-19
-8.0228e-18
0
8.22028e-19
5.47668e-16
-6.16473e-16
0
5.67661e-17
2.45677e-16
-2.40701e-16
4.12097e-17
3.66021e-17
1.60015e-17
2.82891e-17
0
0
-3.21425e-17
6.03069e-17
-2.20538e-17
-7.92192e-18
8.67318e-18
6.95544e-19
-1.56395e-18
4.92934e-17
5.4153e-16
-6.27583e-17
-4.30106e-16
3.77569e-16
4.53119e-17
-4.03312e-17
-3.57494e-17
1.18247e-16
-1.4669e-16
8.88131e-17
-9.07711e-17
1.42697e-17
-1.80692e-17
3.31183e-17
-2.20682e-17
0
0
1.59862e-18
0
1.35867e-16
-4.09477e-16
4.67859e-16
-3.80112e-16
3.79206e-16
0
1.32541e-16
-1.33148e-16
-1.00718e-16
1.49454e-16
0
6.24544e-17
-7.89247e-17
-1.16933e-17
0
-1.32241e-18
-2.65278e-18
-3.73814e-20
-1.28878e-15
6.15375e-16
0
-4.17588e-16
4.17546e-16
2.57508e-16
-1.6929e-16
7.01607e-17
0
-3.17758e-18
2.38619e-17
-2.26699e-17
-3.38564e-17
5.25311e-17
-5.5858e-17
0
1.22372e-17
-2.73045e-18
-1.64248e-18
7.9363e-16
-7.81302e-16
0
1.08149e-16
9.86735e-17
-9.03814e-17
0
-7.3529e-17
-6.36971e-17
0
-2.72803e-18
0
3.86503e-17
0
0
1.75888e-17
6.62482e-17
-8.56489e-17
0
1.08254e-19
1.17891e-16
-1.09121e-16
8.97338e-17
-4.55801e-16
1.74813e-16
0
1.51582e-17
4.30006e-17
0
-4.44848e-17
1.30408e-16
-1.37001e-16
2.32544e-17
0
-2.54536e-18
0
0
0
1.05607e-19
0
1.00855e-16
0
-1.57598e-16
1.60103e-16
0
5.80798e-17
-4.68698e-17
1.70686e-16
-8.24821e-17
3.00846e-17
-4.87111e-17
4.66988e-17
-7.27643e-17
-1.16535e-17
0
-7.85624e-18
0
3.0895e-16
-5.22361e-16
0
-8.54329e-17
7.70048e-17
0
0
-1.06224e-16
0
-3.96288e-17
-6.37238e-17
-2.76506e-17
4.46603e-17
0
2.43598e-17
0
0
1.72194e-17
-1.9098e-17
0
4.53125e-16
-3.62873e-16
7.90913e-17
-7.13069e-17
-2.95157e-17
8.52604e-17
9.644e-17
-1.18889e-16
3.83965e-17
2.53865e-18
-3.65717e-17
1.50068e-16
-4.67214e-17
-1.09877e-16
3.80991e-17
-9.9979e-18
5.97651e-18
-1.84684e-18
-7.33091e-16
2.7189e-16
0
0
3.05627e-17
-3.10789e-17
2.26484e-17
1.52347e-17
1.07559e-16
5.55896e-17
-5.52762e-17
-2.03302e-18
-3.16946e-17
2.57858e-17
0
1.30262e-17
9.1638e-18
4.99454e-18
1.66928e-18
0
2.36191e-16
-2.21204e-16
7.11197e-17
7.42305e-17
-1.43587e-17
-4.6855e-17
-4.03174e-17
-1.34707e-16
5.48575e-17
-3.4261e-17
4.63516e-17
2.96384e-17
-3.75593e-17
3.98669e-17
2.57636e-17
-3.33508e-17
-4.6132e-18
0
-4.15329e-17
-1.87427e-16
6.73467e-17
6.29781e-17
-2.18587e-16
1.56966e-16
7.92601e-17
-8.1016e-17
6.29436e-17
-5.20625e-17
0
0
-4.47471e-17
8.05792e-17
-3.5712e-17
3.38916e-17
-3.70208e-17
6.1739e-18
-1.09693e-17
7.80897e-17
7.32243e-17
-6.69887e-17
5.31588e-17
-6.15569e-17
-9.51845e-17
0
0
0
0
0
0
2.29994e-17
-6.13056e-17
6.48374e-17
-2.13446e-17
2.62972e-17
1.24547e-17
-1.05671e-17
1.61531e-16
-2.77668e-16
3.47509e-16
-1.65017e-16
2.27938e-16
-1.69286e-16
3.17027e-16
-1.79911e-16
-9.84081e-17
1.00667e-16
0
2.81303e-17
-2.24692e-17
5.57741e-17
-1.84207e-17
-2.40805e-17
-5.13783e-17
3.84235e-18
9.00027e-18
2.51248e-16
7.2885e-17
0
-1.15126e-16
-9.20809e-17
2.11767e-16
2.24135e-17
-8.71707e-17
5.21575e-17
-3.75798e-17
0
-2.22683e-17
0
-1.84695e-17
1.50671e-17
-1.36626e-17
-4.53188e-18
3.22257e-18
0
3.5112e-16
-7.70474e-17
3.27857e-16
-2.5686e-16
-5.22106e-17
2.08265e-16
-1.24898e-16
6.09486e-18
5.07255e-18
-3.67442e-17
3.55596e-17
0
0
2.23759e-17
-8.2705e-18
5.43235e-18
1.63959e-17
-5.7052e-18
0
7.15342e-20
0
-7.24546e-17
4.29013e-16
-2.90519e-16
-3.13312e-16
1.71766e-16
-1.82609e-16
1.69834e-16
8.52741e-17
-6.52012e-17
2.67106e-17
-2.39233e-17
4.08591e-18
4.01587e-17
1.58618e-18
-1.55011e-17
1.53433e-17
-3.14162e-18
8.55825e-16
-2.73299e-16
1.35697e-16
-4.18175e-16
1.15483e-16
-1.82766e-16
9.77755e-17
0
0
-3.76332e-18
-5.06467e-18
-1.49319e-18
0
-3.49418e-17
-2.6759e-17
1.97773e-17
-1.45648e-18
2.56574e-18
6.19382e-18
0
-2.72409e-16
4.64954e-16
1.06118e-16
-3.82281e-16
1.03779e-16
-1.61337e-16
2.58185e-17
1.32475e-16
0
0
2.47464e-18
2.88784e-17
0
-2.61197e-17
-1.1995e-17
1.76091e-18
-6.32643e-18
-7.18771e-18
0
-1.72403e-16
3.66352e-17
3.13803e-16
2.38297e-16
-4.38168e-16
1.99954e-16
-1.41959e-16
7.57072e-17
-1.06765e-16
0
0
0
-4.67772e-17
1.28112e-17
-1.56775e-17
0
-9.81824e-19
4.9251e-18
-6.4423e-16
6.1154e-16
6.60692e-16
-8.02554e-16
3.79762e-16
-3.57943e-16
0
1.49282e-16
-2.04895e-16
1.19619e-16
-9.4298e-17
7.7772e-17
6.37455e-17
4.8378e-17
3.834e-17
0
0
0
0
7.11045e-16
-4.12512e-16
0
0
-1.38115e-16
3.39697e-16
-2.17798e-16
-1.57772e-16
1.55993e-16
1.17846e-16
1.99383e-16
-8.0696e-17
3.45785e-17
2.64328e-17
1.96228e-17
1.60636e-17
2.60325e-17
-1.28223e-18
1.30607e-18
-7.21268e-16
6.64582e-16
3.58166e-16
-1.8587e-16
4.13039e-16
-2.6543e-16
-2.1225e-16
-1.80797e-16
0
-2.46862e-16
1.16342e-17
9.18014e-17
-7.25589e-17
-5.9408e-17
-2.20022e-17
-2.33188e-17
-1.86368e-17
0
0
-2.48124e-16
0
1.94366e-16
-3.07939e-19
0
0
2.18942e-16
1.86557e-16
0
1.33522e-16
0
-1.39546e-16
-3.93856e-17
7.00893e-17
0
4.53879e-17
-6.42379e-18
6.55313e-18
0
5.27207e-16
0
3.75149e-16
-6.98234e-16
6.26001e-16
5.10798e-16
-1.51401e-17
0
1.34299e-17
1.54527e-16
0
-1.56157e-16
1.75929e-16
-1.56923e-16
-3.43002e-17
-3.64797e-17
-1.0741e-17
-1.91708e-18
-6.78868e-18
-4.92169e-16
7.09493e-16
-2.02202e-16
-5.32427e-16
-3.10088e-16
-2.7003e-16
-4.69423e-16
-1.90507e-16
1.46088e-17
7.09498e-17
-7.08165e-17
2.27794e-16
-1.00847e-16
2.03653e-16
-3.81693e-17
0
4.34131e-17
-2.55301e-17
6.86208e-18
1.08423e-15
-2.27201e-17
-8.35233e-16
6.98454e-16
-6.3054e-16
5.53584e-16
-1.68638e-17
-2.13359e-16
1.87484e-16
7.54583e-17
-9.40775e-18
-1.85837e-16
5.40865e-17
5.68131e-17
-1.73451e-17
1.75429e-17
-4.49654e-17
-4.45747e-18
-1.05298e-17
5.32259e-16
2.26784e-16
4.0123e-16
-3.55202e-16
-2.96315e-16
1.47533e-17
-2.31003e-16
5.60266e-16
1.82206e-17
2.62925e-16
1.54659e-16
-1.37401e-16
0
-9.72318e-17
0
0
6.22585e-17
2.74796e-17
1.22934e-17
5.005e-16
0
3.96586e-16
3.5291e-16
-3.15817e-16
2.78358e-16
0
-2.19878e-16
-3.06113e-16
-2.68802e-16
-1.56028e-16
1.38955e-16
0
0
0
0
-5.83639e-17
-4.31302e-17
0
-9.80709e-16
0
-1.86296e-17
-1.64475e-17
4.80404e-16
-2.73718e-16
-1.2628e-16
-1.26788e-16
3.1062e-16
0
8.20444e-17
-8.69875e-18
7.34963e-17
0
0
9.68426e-17
-7.20654e-18
5.17866e-17
-1.96079e-17
6.90465e-16
2.00662e-16
-1.98591e-16
-1.76745e-16
-6.19025e-16
4.27726e-16
5.19497e-16
-1.3482e-17
-2.11678e-16
2.08947e-16
4.404e-17
-2.23223e-16
-1.83409e-16
-1.10781e-16
-1.17221e-16
-1.11641e-16
9.23929e-17
-4.36506e-18
2.00827e-17
-2.12575e-16
9.71368e-17
-4.68878e-16
8.10616e-17
-8.07667e-17
0
-2.57984e-16
-1.7259e-17
-2.39384e-16
1.95353e-17
2.33977e-16
1.73441e-16
-4.25135e-17
1.8414e-17
1.11494e-16
0
-1.9203e-16
-7.03665e-17
-1.46316e-18
4.31505e-16
-1.18353e-17
7.37243e-16
-3.52607e-16
6.77764e-19
9.43604e-18
2.84203e-16
-2.13646e-17
2.32163e-16
-2.17454e-16
-2.04496e-16
0
2.03403e-16
1.62962e-16
2.25989e-18
-3.28415e-18
1.03742e-16
7.15248e-17
0
-3.06915e-16
0
-7.51403e-17
3.35813e-16
4.57745e-18
7.74344e-17
-2.7482e-16
2.6015e-16
2.74119e-16
2.62587e-16
2.52332e-16
0
-1.97602e-16
0
1.04553e-17
-1.08588e-17
0
-1.03555e-18
5.09046e-17
2.11958e-16
1.05916e-17
-1.69932e-16
5.2331e-16
-1.68311e-16
0
0
-3.06609e-16
-2.65593e-16
-2.54388e-16
-4.60872e-16
-6.44041e-17
0
0
0
-2.13405e-17
2.25836e-17
1.44346e-16
-5.16802e-17
1.09631e-17
0
-3.64176e-16
-3.34576e-16
3.49675e-16
-3.47034e-16
-4.97695e-16
6.12055e-16
1.695e-16
0
2.71215e-16
3.06599e-16
-6.62032e-17
3.59348e-16
-5.88375e-17
6.12355e-17
2.37817e-16
-1.37166e-16
0
-4.05127e-16
0
-3.88489e-16
3.80945e-16
0
6.90074e-16
3.24596e-16
-6.80482e-16
5.42874e-16
-3.59089e-18
-1.64448e-16
-2.96851e-16
0
4.08457e-16
-6.85034e-16
7.35061e-16
-9.36715e-16
0
0
4.03301e-16
-2.53055e-18
-6.23313e-18
-7.67033e-16
7.7365e-16
-3.74323e-16
3.72797e-16
3.67399e-16
-3.25732e-16
0
0
6.11756e-16
-6.22295e-16
-6.65518e-16
6.59672e-16
-6.42587e-16
6.94971e-16
-1.08859e-15
0
)
;

boundaryField
{
    up
    {
        type            calculated;
        value           nonuniform List<scalar> 
84
(
0
0
0
0
-3.70943e-17
6.6884e-17
-2.79105e-17
2.00826e-17
-1.75407e-17
0
-1.38036e-17
1.31353e-17
-9.1182e-18
8.5642e-19
7.2301e-19
6.57988e-18
0
0
-3.92607e-18
2.92122e-18
2.90594e-18
-2.82164e-18
2.60194e-19
0
1.1536e-18
5.34495e-19
-1.0439e-17
0
1.4224e-17
1.70907e-17
2.2199e-18
-3.84536e-18
1.52829e-18
0
-7.52324e-19
1.59022e-18
-1.49744e-18
2.38736e-18
0
-4.18343e-19
0
0
-2.16533e-19
4.29298e-19
-4.148e-19
8.22028e-19
-1.56395e-18
1.59862e-18
-3.73814e-20
-1.64248e-18
0
0
0
-1.9098e-17
-2.58011e-18
1.66928e-18
0
-1.09693e-17
-1.05671e-17
7.85059e-18
0
0
-3.14162e-18
6.19382e-18
-7.18771e-18
4.9251e-18
0
1.30607e-18
0
0
-6.78868e-18
6.86208e-18
-1.05298e-17
1.22934e-17
0
-1.96079e-17
2.00827e-17
-1.46316e-18
0
5.09046e-17
-5.16802e-17
0
0
0
)
;
    }
    low
    {
        type            calculated;
        value           nonuniform List<scalar> 
84
(
-8.07386e-16
8.06409e-16
-3.94689e-16
6.22079e-16
1.0905e-16
-2.83385e-17
2.36838e-16
2.41411e-17
0
1.00409e-15
-2.54473e-16
2.11474e-16
-2.34467e-16
-1.5168e-15
2.4791e-16
0
-2.30939e-16
1.87158e-17
-1.79163e-17
-1.85433e-16
9.53156e-17
2.55128e-16
4.34322e-16
-3.87695e-16
0
-7.51197e-17
-3.86318e-17
0
-3.54155e-16
-1.00173e-16
-3.3791e-16
-3.65651e-16
3.95671e-16
1.3554e-16
9.30174e-16
7.44882e-17
0
6.23877e-16
6.06502e-16
3.44331e-16
-1.82769e-16
7.45515e-17
7.45541e-17
0
2.96721e-16
6.83741e-16
5.47668e-16
5.01114e-17
0
-1.28879e-15
7.9363e-16
1.08254e-19
1.05607e-19
3.0895e-16
0
-7.31489e-16
0
-4.15329e-17
7.80897e-17
1.60584e-16
2.49582e-16
3.49562e-16
7.15342e-20
8.54523e-16
0
0
-6.4423e-16
7.1038e-16
-7.20817e-16
-2.48124e-16
5.2719e-16
-4.92169e-16
1.08587e-15
5.33433e-16
5.005e-16
-9.80709e-16
6.89154e-16
-2.11205e-16
4.31505e-16
-3.06364e-16
2.11958e-16
1.19634e-17
-4.05127e-16
4.03575e-16
)
;
    }
    left
    {
        type            calculated;
        value           nonuniform List<scalar> 
19
(
-8.06838e-16
-3.928e-16
3.98538e-16
8.4011e-18
-7.60126e-16
0
-3.55265e-16
-3.50309e-16
-2.40259e-17
-1.84354e-16
-1.7093e-18
-1.83355e-16
8.14752e-16
-1.81295e-16
8.47261e-16
7.31029e-16
4.34796e-16
6.37671e-16
0
)
;
    }
    right
    {
        type            calculated;
        value           nonuniform List<scalar> 
19
(
4.03301e-16
-2.23398e-18
-6.23313e-18
-7.6703e-16
7.7385e-16
-3.74323e-16
3.72797e-16
3.67399e-16
-3.24587e-16
0
0
6.17555e-16
-6.30457e-16
-6.65518e-16
6.59672e-16
-6.42587e-16
6.94971e-16
-1.17722e-15
0
)
;
    }
    frontAndBackPlanes
    {
        type            empty;
    }
}


// ************************************************************************* //
