/*--------------------------------*- C++ -*----------------------------------*\
  =========                 |
  \\      /  F ield         | OpenFOAM: The Open Source CFD Toolbox
   \\    /   O peration     | Website:  https://openfoam.org
    \\  /    A nd           | Version:  7
     \\/     M anipulation  |
\*---------------------------------------------------------------------------*/
FoamFile
{
    version     2.0;
    format      ascii;
    class       volScalarField;
    location    "0.27";
    object      gradTz;
}
// * * * * * * * * * * * * * * * * * * * * * * * * * * * * * * * * * * * * * //

dimensions      [0 -1 0 1 0 0 0];

internalField   nonuniform List<scalar> 
1596
(
-1.61369e-16
-7.85342e-17
7.97043e-17
1.64724e-18
-1.52076e-16
0
-7.11542e-17
-7.01606e-17
-4.53305e-18
-3.68956e-17
-3.45598e-19
-3.66861e-17
1.61318e-16
-3.62637e-17
1.69494e-16
1.46226e-16
8.69666e-17
1.09805e-16
0
1.61322e-16
0
2.27864e-16
-1.52382e-18
-7.00198e-17
6.94331e-17
1.42835e-16
4.30844e-18
6.77248e-17
-3.26151e-17
6.50638e-17
-1.00494e-18
-9.02247e-17
-5.63339e-17
-1.37045e-16
-1.33668e-16
-1.21586e-16
6.91926e-17
0
-7.92117e-17
0
-1.4888e-16
2.42078e-18
1.36917e-16
-3.82555e-17
2.84242e-18
-9.546e-19
-9.77975e-19
-1.04677e-18
2.48013e-17
0
4.6806e-17
1.32835e-16
-1.30866e-17
1.05178e-17
2.47451e-17
3.8598e-17
0
1.243e-16
-3.75224e-17
3.73853e-17
0
-3.60108e-17
-3.72027e-17
6.36499e-17
-5.57955e-17
0
0
-1.97845e-17
1.29455e-17
0
-3.91632e-17
-4.99847e-17
3.45401e-17
-3.54021e-17
-1.82214e-18
0
2.16999e-17
5.79967e-17
-5.25355e-17
0
-1.55716e-17
-4.7341e-17
0
7.09055e-17
-7.07115e-18
-6.40189e-18
-5.93031e-18
3.698e-17
4.53594e-17
4.66911e-18
1.50194e-18
-3.73483e-17
1.88326e-18
1.72895e-17
-7.42807e-18
-5.63511e-18
-7.96193e-17
7.59731e-17
-6.66055e-17
-1.3389e-19
-5.92402e-17
1.67205e-18
-1.6776e-18
-4.69944e-17
0
-4.90065e-18
-4.37098e-17
-4.09843e-17
3.34052e-17
3.44576e-17
-4.70828e-19
-2.06567e-17
-1.75365e-17
1.34008e-17
4.70936e-17
-8.11655e-17
9.14197e-17
5.12933e-17
0
4.54491e-17
2.68365e-17
-1.29385e-17
5.96334e-17
-1.12235e-17
-4.73573e-17
4.35991e-19
-2.81518e-17
-3.35658e-17
-2.63141e-17
2.2345e-17
2.08386e-17
-2.77993e-19
-5.59539e-18
4.47705e-18
1.28844e-16
-1.52351e-16
0
0
-5.65403e-17
0
0
0
3.93374e-17
0
0
2.58018e-17
9.78993e-19
6.89755e-18
-1.95236e-17
0
1.03918e-17
4.04392e-18
0
-8.38047e-17
1.61433e-16
0
0
5.82286e-17
0
-2.24269e-17
2.24043e-17
-4.00398e-17
1.67266e-17
-1.68489e-17
0
2.43368e-17
2.35133e-17
0
-1.35777e-17
-1.06191e-17
-3.53071e-18
2.00696e-16
-9.41286e-17
0
-6.76745e-17
6.69171e-17
0
5.01978e-17
0
0
0
1.55266e-17
-1.5601e-17
0
-1.87852e-17
-5.39322e-18
0
1.39008e-18
7.76377e-18
0
-5.09404e-17
0
0
6.78445e-17
-1.26907e-16
6.27009e-18
2.42351e-18
-2.08193e-17
2.25605e-18
7.63909e-19
-1.63368e-17
-2.64127e-17
0
1.99782e-17
-3.97621e-18
4.03589e-18
1.0471e-17
-6.08656e-18
-2.81043e-18
4.26882e-17
-4.37612e-18
4.09756e-17
1.40874e-16
-7.28255e-18
-5.93963e-17
0
0
0
3.36574e-17
1.35723e-17
4.90218e-17
-1.18405e-17
-1.96209e-17
-1.1758e-17
-6.37804e-18
2.83862e-18
-6.16863e-18
2.67557e-18
-4.70273e-17
4.60682e-17
-8.53436e-17
-1.3916e-16
1.29185e-16
5.16226e-17
-9.57196e-17
8.32651e-17
-7.23448e-17
1.88508e-17
1.45562e-17
-1.31979e-17
8.68972e-18
-7.78893e-18
2.27517e-17
0
-1.7146e-18
1.26193e-17
-1.8743e-18
-3.03628e-16
1.39718e-16
1.16174e-19
-3.11868e-17
3.83018e-18
5.01579e-17
-9.54314e-17
-3.96279e-17
3.40196e-17
-2.90524e-17
-2.48945e-17
0
-2.8487e-17
-8.48991e-18
-1.52439e-17
-9.06969e-18
7.14302e-19
-7.97015e-18
1.67754e-19
4.96252e-17
-4.43578e-17
9.53191e-20
-3.437e-17
-8.62847e-17
8.14708e-17
3.21008e-19
3.86174e-17
-3.31226e-17
5.57596e-17
1.32135e-17
1.09295e-17
3.39054e-17
0
2.82618e-17
1.29919e-17
0
4.36605e-18
1.42052e-19
0
4.30322e-17
3.40996e-17
-7.0775e-17
8.36208e-17
-1.25942e-16
8.94689e-17
3.41118e-17
-4.8473e-18
-5.51482e-17
1.02153e-17
-1.01649e-17
-3.10675e-17
1.24126e-17
-6.16948e-18
-1.3032e-17
5.66499e-18
-3.51397e-18
1.36648e-18
-4.62292e-17
1.57699e-16
-1.17418e-16
6.43135e-17
0
0
-1.7757e-17
3.77479e-17
-2.71869e-17
5.11909e-17
0
0
2.10055e-17
-1.83962e-17
-1.31266e-17
4.13758e-18
-4.40824e-18
2.31704e-18
0
3.66152e-18
4.32308e-17
-3.51066e-17
-3.08508e-17
-5.01556e-17
-1.65254e-17
2.26311e-17
0
-2.55822e-17
-2.09493e-17
1.88692e-17
-1.54829e-17
1.26157e-17
0
5.00275e-18
9.86927e-18
0
0
0
-3.50281e-18
6.96037e-17
2.68033e-17
-9.30363e-17
2.58375e-17
2.22444e-17
0
0
2.41847e-17
-1.25928e-17
-1.82506e-17
1.49747e-17
-1.22003e-17
0
-3.29576e-18
2.83405e-18
0
-2.38387e-18
-8.31808e-19
-3.72008e-17
1.09166e-16
-1.328e-16
-5.3471e-17
2.79908e-17
-2.10953e-17
1.78049e-17
0
-1.22873e-17
1.03115e-17
0
0
4.83376e-18
-4.83933e-18
1.46493e-18
-1.92858e-18
3.41909e-18
4.06871e-19
6.18304e-19
1.90804e-17
-1.72497e-17
8.86881e-17
-5.72771e-17
-2.33898e-17
2.94143e-18
3.65963e-17
1.4021e-17
1.17571e-17
0
6.92409e-18
-6.41862e-18
5.13615e-18
-4.36922e-18
5.68856e-18
-9.82115e-18
-2.6619e-18
2.3246e-18
6.21122e-19
5.11454e-17
-5.18126e-17
0
4.81723e-17
-2.53593e-17
-1.9075e-17
1.33573e-17
-4.26392e-17
0
-7.47843e-19
-7.96661e-18
-5.78648e-18
8.4914e-18
-6.45033e-19
-5.49789e-18
4.08144e-18
0
1.48839e-18
-6.03104e-19
8.71908e-17
-1.54579e-17
6.60681e-17
-5.17709e-17
2.87779e-17
3.3343e-18
-3.31378e-17
-1.14479e-17
2.06757e-17
-8.58877e-19
-1.22848e-17
1.04138e-17
-4.57169e-18
-6.06729e-18
0
0
0
-1.50256e-18
5.59189e-20
-7.76729e-17
7.56768e-17
5.33145e-20
1.16562e-17
1.00748e-17
-2.44803e-17
2.89636e-17
-2.39387e-17
2.05023e-17
-6.87532e-18
1.30935e-17
4.69385e-18
-2.00077e-18
1.0321e-19
-7.33736e-19
-1.28916e-18
0
0
0
0
0
3.73569e-17
-1.80393e-17
-5.69563e-17
0
0
-6.94957e-18
-1.12929e-17
9.49118e-18
0
-5.9198e-18
4.62124e-18
-1.54965e-17
1.78414e-17
-5.86062e-18
6.24279e-18
6.85029e-19
0
-1.5051e-17
1.52362e-17
0
-1.23601e-17
1.2546e-17
2.08818e-17
0
7.01593e-18
9.3673e-18
-4.1791e-17
0
-6.55899e-18
5.14415e-18
3.71107e-18
-2.77091e-18
4.06687e-18
0
-1.50488e-18
0
-7.73978e-18
-7.72086e-18
4.57307e-19
1.26997e-17
-3.42519e-17
0
-8.89824e-18
0
2.54887e-17
1.03548e-17
0
2.60057e-17
-2.73887e-17
2.74654e-18
-6.16266e-18
1.71025e-18
7.8074e-18
2.97105e-18
-2.35325e-18
0
1.60145e-17
-1.41041e-17
1.75113e-17
2.1156e-17
0
1.81235e-17
-1.71625e-17
-1.3655e-17
2.07046e-17
-3.11006e-17
-1.53206e-17
0
0
3.41545e-18
0
0
9.84721e-19
0
-7.09494e-17
5.44553e-17
0
8.15477e-19
-1.23654e-17
-6.83721e-19
1.10674e-17
8.01087e-18
-9.95792e-18
-2.56593e-17
4.10407e-17
-1.1107e-17
0
-5.40011e-18
0
0
0
-3.80178e-18
3.03625e-18
-2.00498e-17
1.88317e-17
5.05389e-17
-4.94808e-17
1.52536e-17
8.37433e-19
-1.12451e-17
9.75416e-18
1.66905e-17
1.28658e-17
-2.54412e-17
0
1.34103e-17
1.956e-18
-6.18161e-18
-1.36539e-17
1.12675e-17
-1.84329e-18
3.47761e-18
-6.77698e-17
9.80494e-17
-9.7301e-17
1.72015e-17
1.46915e-17
-1.40153e-17
1.18253e-17
-9.46423e-18
0
-8.1225e-18
1.31413e-17
5.70436e-18
9.24299e-18
1.18223e-17
-1.77321e-17
-2.77045e-19
0
-1.40556e-18
4.69788e-19
-7.32764e-17
-2.19068e-17
-3.86226e-17
2.05005e-17
-3.3771e-17
2.95259e-17
-1.76437e-17
1.50436e-17
-1.01444e-18
-1.01377e-18
-1.3769e-17
8.10282e-18
-4.62697e-18
1.40616e-17
-1.50953e-17
1.91446e-18
1.60758e-18
0
-8.12259e-19
7.92279e-17
-2.36206e-17
0
0
-3.47908e-17
6.77942e-17
-1.59049e-17
-3.08299e-18
2.54834e-17
-6.55234e-19
0
0
-5.98998e-18
0
-1.3116e-17
3.19157e-17
-2.21754e-17
0
3.21652e-19
2.71261e-17
5.08015e-17
0
-2.17737e-17
-1.78917e-17
-1.59394e-17
-1.65344e-17
6.89841e-18
-1.9329e-17
-1.06403e-17
0
0
7.9186e-18
0
0
-1.77149e-17
2.91844e-17
0
0
1.86151e-16
-2.18161e-17
-1.13106e-16
-6.1991e-17
8.40539e-17
2.694e-17
1.60322e-17
0
-5.94117e-18
5.78847e-18
1.43353e-17
-4.63217e-18
-6.94863e-18
1.07902e-17
-1.14775e-17
-3.56177e-18
0
0
0
1.49072e-17
-1.18046e-16
1.15763e-16
-1.11403e-17
-8.65719e-17
1.35761e-16
-6.83019e-17
0
0
3.69289e-17
-3.03765e-17
0
-9.25393e-18
1.61024e-17
-1.82383e-18
4.71719e-18
1.44224e-18
1.5413e-20
3.15216e-19
0
0
0
9.78703e-17
-6.56175e-17
6.94401e-17
-1.08377e-16
3.09382e-17
0
-1.12341e-17
1.80446e-17
-1.84426e-17
-3.63986e-18
-7.34442e-20
-2.50728e-18
-3.72445e-19
-1.99834e-18
-5.59761e-19
-3.06191e-19
1.24912e-16
-2.23013e-16
1.05825e-16
0
2.87347e-17
-3.91401e-17
3.94657e-17
-3.13113e-17
0
-1.53804e-17
2.15643e-17
0
0
-5.42829e-20
0
-2.5803e-18
1.76616e-18
3.27582e-19
4.87958e-19
1.21048e-16
0
-4.85035e-17
5.41816e-17
-3.42049e-17
7.48273e-17
-3.54261e-17
-2.78788e-17
2.81699e-17
-2.8742e-18
0
0
1.85357e-18
-3.14169e-18
-2.20258e-18
4.17865e-18
-9.04657e-19
4.63964e-19
0
6.8731e-17
5.39204e-17
-1.72925e-18
-5.16445e-17
-5.23723e-18
-3.79015e-17
4.01992e-18
3.19426e-17
-1.65686e-18
2.92817e-18
0
0
-1.89886e-18
0
2.23728e-18
-2.39336e-18
0
3.06681e-19
-8.50767e-20
-3.6482e-17
-2.70454e-17
2.53231e-17
-2.91185e-18
-1.30887e-18
3.54652e-18
0
-9.4111e-19
1.41496e-17
-1.19163e-17
0
4.06003e-18
-7.92926e-19
-3.58871e-18
-3.28613e-19
-2.56391e-19
0
-2.39682e-19
0
1.4924e-17
-2.84087e-17
-4.04814e-19
1.22512e-17
1.12684e-17
-1.11976e-17
-7.97802e-18
9.0322e-18
-3.11512e-18
2.43595e-18
-2.37821e-18
2.45156e-18
0
6.28741e-21
-2.42042e-19
8.70522e-19
-2.9806e-21
0
0
1.49245e-17
-1.48686e-17
-1.2187e-17
1.07943e-17
1.99084e-17
-2.00259e-17
-3.98914e-18
3.99858e-18
-3.14144e-18
3.17442e-18
-2.37829e-18
4.49119e-18
-1.25962e-18
-9.08939e-19
-2.79428e-19
9.25518e-20
2.21115e-19
5.84939e-20
-4.387e-20
0
-3.54501e-18
2.12333e-17
-2.30109e-17
1.98774e-17
-1.76167e-17
0
1.41362e-17
-1.26423e-17
0
4.73722e-18
-5.99971e-18
-3.4245e-18
3.5891e-18
6.61756e-19
0
0
-2.39717e-19
8.71237e-20
5.94028e-17
-1.09516e-16
1.1201e-16
-9.86055e-17
3.88149e-17
-3.31891e-17
3.14861e-17
3.7628e-18
-1.40528e-17
1.25583e-17
0
-9.17129e-18
8.3503e-18
-1.5921e-18
-6.4819e-19
1.02258e-18
7.52202e-19
2.32719e-19
-8.41813e-20
1.36504e-16
0
-5.4861e-17
4.26309e-17
5.17699e-18
-3.99902e-17
7.10515e-17
-6.32608e-17
2.48674e-17
-1.06973e-17
1.09496e-17
2.17405e-18
3.75178e-18
1.55072e-18
-1.29168e-18
-1.67967e-19
-1.63039e-18
0
1.674e-19
1.09662e-16
-1.23439e-16
0
1.14012e-17
4.94484e-17
-4.84611e-17
8.31652e-18
7.39782e-18
3.23562e-18
5.73408e-18
0
0
-6.52829e-18
1.22645e-17
-4.48761e-18
-1.61355e-18
1.76657e-18
1.41771e-19
-3.18635e-19
9.71881e-18
1.08431e-16
-1.25934e-17
-8.64872e-17
7.59169e-17
9.13049e-18
-8.13923e-18
-7.22547e-18
2.39643e-17
-2.97297e-17
1.80498e-17
-1.84477e-17
2.91189e-18
-3.67528e-18
6.76109e-18
-4.50343e-18
0
0
3.27622e-19
0
2.72268e-17
-8.22475e-17
9.39622e-17
-7.65919e-17
7.64095e-17
0
2.68491e-17
-2.69721e-17
-2.04732e-17
3.03984e-17
0
1.27523e-17
-1.61137e-17
-2.38879e-18
0
-2.71146e-19
-5.46483e-19
-6.21752e-21
-2.57922e-16
1.23252e-16
0
-8.40384e-17
8.403e-17
5.20129e-17
-3.41997e-17
1.42287e-17
0
-6.47136e-19
4.89027e-18
-4.62575e-18
-6.93933e-18
1.07741e-17
-1.14565e-17
0
2.52561e-18
-5.69384e-19
-3.38249e-19
1.58912e-16
-1.56523e-16
0
2.17607e-17
1.98969e-17
-1.82501e-17
0
-1.49118e-17
-1.29701e-17
0
-5.3211e-19
0
7.92191e-18
0
0
3.64033e-18
1.37266e-17
-1.77361e-17
0
2.23556e-20
2.3632e-17
-2.19189e-17
1.81057e-17
-9.19295e-17
3.53032e-17
0
3.08516e-18
8.75722e-18
0
-9.10368e-18
2.68277e-17
-2.81841e-17
4.81236e-18
0
-5.11894e-19
0
0
0
2.1574e-20
0
2.02585e-17
0
-3.18518e-17
3.23582e-17
0
1.18339e-17
-9.5862e-18
3.49863e-17
-1.69229e-17
6.21201e-18
-1.00913e-17
9.71536e-18
-1.51133e-17
-2.42527e-18
0
-1.65584e-18
0
6.19092e-17
-1.04661e-16
0
-1.72109e-17
1.5557e-17
0
0
-2.16598e-17
0
-8.12833e-18
-1.31512e-17
-5.70941e-18
9.25209e-18
0
5.10462e-18
0
0
3.6356e-18
-4.04066e-18
0
9.09377e-17
-7.28415e-17
1.59334e-17
-1.44058e-17
-5.99383e-18
1.73409e-17
1.96938e-17
-2.44025e-17
7.88631e-18
4.92416e-19
-7.60592e-18
3.12518e-17
-9.73558e-18
-2.30564e-17
8.01621e-18
-2.12075e-18
1.26625e-18
-3.94407e-19
-1.46737e-16
5.44515e-17
0
0
6.18938e-18
-6.2939e-18
4.63229e-18
3.15442e-18
2.2108e-17
1.14909e-17
-1.14522e-17
-3.97465e-19
-6.6377e-18
5.40483e-18
0
2.7641e-18
1.94382e-18
1.06703e-18
3.56488e-19
0
4.73839e-17
-4.44689e-17
1.43165e-17
1.50231e-17
-2.90954e-18
-9.54749e-18
-8.25027e-18
-2.77109e-17
1.13506e-17
-7.16639e-18
9.64006e-18
6.20707e-18
-7.93208e-18
8.41941e-18
5.49426e-18
-7.09499e-18
-9.85565e-19
0
-8.30569e-18
-3.75811e-17
1.35401e-17
1.27029e-17
-4.42766e-17
3.18497e-17
1.62093e-17
-1.65684e-17
1.2959e-17
-1.07722e-17
0
0
-9.4347e-18
1.70238e-17
-7.56585e-18
7.23861e-18
-7.90306e-18
1.32534e-18
-2.35535e-18
1.56301e-17
1.46863e-17
-1.34734e-17
1.07664e-17
-1.24214e-17
-1.93534e-17
0
0
0
0
0
0
4.85658e-18
-1.30233e-17
1.37735e-17
-4.57083e-18
5.62972e-18
2.67814e-18
-2.27357e-18
3.23062e-17
-5.57744e-17
6.98208e-17
-3.33843e-17
4.60854e-17
-3.45268e-17
6.47956e-17
-3.68906e-17
-2.03873e-17
2.08553e-17
0
5.91613e-18
-4.74462e-18
1.18748e-17
-3.88595e-18
-5.13107e-18
-1.1033e-17
8.21979e-19
1.93845e-18
5.02355e-17
1.46226e-17
0
-2.32378e-17
-1.86978e-17
4.30922e-17
4.65542e-18
-1.79131e-17
1.07506e-17
-7.81137e-18
0
-4.68328e-18
0
-3.92854e-18
3.2146e-18
-2.92732e-18
-9.72634e-19
6.94094e-19
0
7.02237e-17
-1.54577e-17
6.604e-17
-5.17549e-17
-1.05774e-17
4.24487e-17
-2.54556e-17
1.21992e-18
1.01881e-18
-7.64557e-18
7.40741e-18
0
0
4.74884e-18
-1.77071e-18
1.16858e-18
3.51805e-18
-1.22394e-18
0
1.41734e-20
0
-1.45763e-17
8.66657e-17
-5.87515e-17
-6.38012e-17
3.5003e-17
-3.75601e-17
3.49932e-17
1.76979e-17
-1.36184e-17
5.60288e-18
-5.03236e-18
8.49304e-19
8.53431e-18
3.49918e-19
-3.32002e-18
3.2863e-18
-6.71662e-19
1.71326e-16
-5.47475e-17
2.73835e-17
-8.42904e-17
2.33896e-17
-3.72259e-17
1.98751e-17
0
0
-7.65032e-19
-1.02519e-18
-3.02074e-19
0
-7.39872e-18
-5.68865e-18
4.21741e-18
-3.10819e-19
5.40277e-19
1.32092e-18
0
-5.46498e-17
9.36098e-17
2.15891e-17
-7.72907e-17
2.10953e-17
-3.29953e-17
5.15224e-18
2.72195e-17
0
0
5.10502e-19
6.05212e-18
0
-5.51706e-18
-2.5445e-18
3.73291e-19
-1.34928e-18
-1.52615e-18
0
-3.4673e-17
7.1838e-18
6.31935e-17
4.83186e-17
-8.89899e-17
4.0694e-17
-2.91425e-17
1.55151e-17
-2.2064e-17
0
0
0
-9.82954e-18
2.73078e-18
-3.31192e-18
0
-2.07774e-19
1.04322e-18
-1.29047e-16
1.22583e-16
1.33042e-16
-1.61658e-16
7.69216e-17
-7.25797e-17
0
3.06202e-17
-4.21016e-17
2.46713e-17
-1.95487e-17
1.61886e-17
1.33174e-17
1.01659e-17
8.0785e-18
0
0
0
0
1.42251e-16
-8.27455e-17
0
0
-2.7932e-17
6.90299e-17
-4.42828e-17
-3.23356e-17
3.19711e-17
2.4325e-17
4.13018e-17
-1.67973e-17
7.1899e-18
5.5227e-18
4.11629e-18
3.35841e-18
5.45202e-18
-2.68796e-19
2.73793e-19
-1.44381e-16
1.33207e-16
7.21026e-17
-3.73717e-17
8.36118e-17
-5.37585e-17
-4.32137e-17
-3.69489e-17
0
-5.08952e-17
2.34105e-18
1.90347e-17
-1.51224e-17
-1.24126e-17
-4.59827e-18
-4.891e-18
-3.90653e-18
0
0
-4.96681e-17
0
3.90749e-17
-6.49804e-20
0
0
4.45764e-17
3.81261e-17
0
2.74973e-17
0
-2.89358e-17
-8.16592e-18
1.45537e-17
0
9.42843e-18
-1.33559e-18
1.36248e-18
0
1.05441e-16
0
7.55113e-17
-1.40729e-16
1.26447e-16
1.03665e-16
-3.00007e-18
0
2.68666e-18
3.17115e-17
0
-3.22597e-17
3.645e-17
-3.25218e-17
-7.11226e-18
-7.58343e-18
-2.22559e-18
-3.95945e-19
-1.39353e-18
-9.86125e-17
1.42205e-16
-4.06495e-17
-1.07318e-16
-6.2684e-17
-5.47577e-17
-9.54882e-17
-3.89353e-17
2.91068e-18
1.45836e-17
-1.45562e-17
4.697e-17
-2.07904e-17
4.20702e-17
-7.88559e-18
0
8.92582e-18
-5.23712e-18
1.41063e-18
2.16845e-16
-4.46096e-18
-1.67817e-16
1.40874e-16
-1.27437e-16
1.12211e-16
-3.33702e-18
-4.34947e-17
3.83172e-17
1.54837e-17
-1.90736e-18
-3.82464e-17
1.11652e-17
1.16261e-17
-3.56677e-18
3.60745e-18
-9.24498e-18
-8.83184e-19
-2.14266e-18
1.06452e-16
4.54896e-17
8.06678e-17
-7.15973e-17
-5.99695e-17
2.91412e-18
-4.70074e-17
1.14073e-16
3.62444e-18
5.37522e-17
3.16562e-17
-2.81409e-17
0
-1.99782e-17
0
0
1.26879e-17
5.61256e-18
2.50295e-18
1.00195e-16
0
7.97402e-17
7.11352e-17
-6.38118e-17
5.6407e-17
0
-4.47808e-17
-6.24068e-17
-5.49201e-17
-3.19364e-17
2.84591e-17
0
0
0
0
-1.18928e-17
-8.73459e-18
0
-1.96332e-16
0
-3.66096e-18
-3.23196e-18
9.70126e-17
-5.54631e-17
-2.56211e-17
-2.57181e-17
6.3241e-17
0
1.67265e-17
-1.77749e-18
1.49172e-17
0
0
1.96169e-17
-1.45865e-18
1.04868e-17
-3.94834e-18
1.38279e-16
4.02977e-17
-3.98817e-17
-3.55882e-17
-1.25001e-16
8.65289e-17
1.05272e-16
-2.64872e-18
-4.30462e-17
4.24129e-17
8.95109e-18
-4.53034e-17
-3.72881e-17
-2.24128e-17
-2.36988e-17
-2.26121e-17
1.86238e-17
-8.80569e-19
4.04393e-18
-4.26049e-17
1.95042e-17
-9.42076e-17
1.63394e-17
-1.62799e-17
0
-5.22432e-17
-3.39271e-18
-4.84559e-17
3.84242e-18
4.73572e-17
3.51844e-17
-8.60398e-18
3.82192e-18
2.25468e-17
0
-3.86524e-17
-1.4128e-17
-2.9395e-19
8.63789e-17
-2.37565e-18
1.48109e-16
-7.09262e-17
1.3389e-19
1.90288e-18
5.7347e-17
-4.20262e-18
4.69942e-17
-4.40201e-17
-4.13849e-17
0
4.09842e-17
3.2892e-17
4.54694e-19
-6.60548e-19
2.08564e-17
1.43607e-17
0
-6.14579e-17
0
-1.51521e-17
6.75241e-17
9.04675e-19
1.55924e-17
-5.54537e-17
5.25198e-17
5.52165e-17
5.28809e-17
5.07924e-17
0
-3.98154e-17
0
2.09907e-18
-2.18007e-18
0
-2.0739e-19
1.01862e-17
4.23876e-17
2.07652e-18
-3.41411e-17
1.05055e-16
-3.38122e-17
0
0
-6.16297e-17
-5.34991e-17
-5.12298e-17
-9.26641e-17
-1.29455e-17
0
0
0
-4.27472e-18
4.52373e-18
2.88821e-17
-1.03413e-17
2.14715e-18
0
-7.30148e-17
-6.71902e-17
7.01512e-17
-6.96092e-17
-9.98747e-17
1.22961e-16
3.39696e-17
0
5.44732e-17
6.14458e-17
-1.32679e-17
7.19697e-17
-1.17803e-17
1.22604e-17
4.75775e-17
-2.74455e-17
0
-8.10373e-17
0
-7.77584e-17
7.62682e-17
0
1.38366e-16
6.5123e-17
-1.36396e-16
1.08696e-16
-7.26762e-19
-3.29491e-17
-5.94922e-17
0
8.16826e-17
-1.37045e-16
1.47035e-16
-1.87368e-16
0
0
8.06613e-17
-4.95454e-19
-1.22064e-18
-1.53493e-16
1.54772e-16
-7.49151e-17
7.46097e-17
7.35278e-17
-6.52866e-17
0
0
1.2234e-16
-1.24448e-16
-1.33162e-16
1.31971e-16
-1.28537e-16
1.39002e-16
-2.17718e-16
0
)
;

boundaryField
{
    up
    {
        type            calculated;
        value           nonuniform List<scalar> 
84
(
0
0
0
0
-7.42807e-18
1.34008e-17
-5.59539e-18
4.04392e-18
-3.53071e-18
0
-2.81043e-18
2.67557e-18
-1.8743e-18
1.67754e-19
1.42052e-19
1.36648e-18
0
0
-8.31808e-19
6.18304e-19
6.21122e-19
-6.03104e-19
5.59189e-20
0
2.47314e-19
1.13121e-19
-2.24414e-18
0
3.03625e-18
3.62835e-18
4.69788e-19
-8.12259e-19
3.21652e-19
0
-1.58367e-19
3.26565e-19
-3.05923e-19
4.8731e-19
0
-8.49593e-20
0
0
-4.38968e-20
8.71237e-20
-8.41813e-20
1.674e-19
-3.18635e-19
3.27622e-19
-6.21752e-21
-3.38249e-19
0
0
0
-4.04066e-18
-5.45249e-19
3.56488e-19
0
-2.35535e-18
-2.27357e-18
1.69199e-18
0
0
-6.71662e-19
1.32092e-18
-1.52615e-18
1.04322e-18
0
2.73793e-19
0
0
-1.39353e-18
1.41063e-18
-2.14266e-18
2.50295e-18
0
-3.94834e-18
4.04393e-18
-2.9395e-19
0
1.01862e-17
-1.03413e-17
0
0
0
)
;
    }
    low
    {
        type            calculated;
        value           nonuniform List<scalar> 
84
(
-1.61476e-16
1.61322e-16
-7.90164e-17
1.24458e-16
2.18076e-17
-5.66698e-18
4.73617e-17
4.73369e-18
0
2.00994e-16
-5.09404e-17
4.25289e-17
-4.70273e-17
-3.03622e-16
4.96252e-17
0
-4.62292e-17
3.66152e-18
-3.50281e-18
-3.72008e-17
1.90804e-17
5.11454e-17
8.68854e-17
-7.76729e-17
0
-1.5051e-17
-7.73978e-18
0
-7.09494e-17
-2.00498e-17
-6.75681e-17
-7.31142e-17
7.91154e-17
2.71261e-17
1.86151e-16
1.49072e-17
0
1.24912e-16
1.21291e-16
6.88658e-17
-3.65546e-17
1.4924e-17
1.49245e-17
0
5.94028e-17
1.36748e-16
1.09662e-16
9.87766e-18
0
-2.57923e-16
1.58912e-16
2.23556e-20
2.1574e-20
6.19092e-17
0
-1.46422e-16
0
-8.30569e-18
1.56301e-17
3.21208e-17
4.9909e-17
6.99182e-17
1.41734e-20
1.71069e-16
0
0
-1.29047e-16
1.42118e-16
-1.4429e-16
-4.96681e-17
1.05436e-16
-9.86125e-17
2.17164e-16
1.06681e-16
1.00195e-16
-1.96332e-16
1.38023e-16
-4.23369e-17
8.63789e-17
-6.13502e-17
4.23876e-17
2.34244e-18
-8.10373e-17
8.07148e-17
)
;
    }
    left
    {
        type            calculated;
        value           nonuniform List<scalar> 
19
(
-1.61369e-16
-7.85925e-17
7.97043e-17
1.6464e-18
-1.52115e-16
0
-7.11542e-17
-7.01606e-17
-4.76082e-18
-3.68956e-17
-3.45598e-19
-3.66861e-17
1.62953e-16
-3.62637e-17
1.69494e-16
1.46226e-16
8.69666e-17
1.27534e-16
0
)
;
    }
    right
    {
        type            calculated;
        value           nonuniform List<scalar> 
19
(
8.06613e-17
-4.37226e-19
-1.22064e-18
-1.53492e-16
1.54811e-16
-7.49151e-17
7.46097e-17
7.35278e-17
-6.50588e-17
0
0
1.23501e-16
-1.26082e-16
-1.33162e-16
1.31971e-16
-1.28537e-16
1.39002e-16
-2.35446e-16
0
)
;
    }
    frontAndBackPlanes
    {
        type            empty;
    }
}


// ************************************************************************* //
