/*--------------------------------*- C++ -*----------------------------------*\
  =========                 |
  \\      /  F ield         | OpenFOAM: The Open Source CFD Toolbox
   \\    /   O peration     | Website:  https://openfoam.org
    \\  /    A nd           | Version:  7
     \\/     M anipulation  |
\*---------------------------------------------------------------------------*/
FoamFile
{
    version     2.0;
    format      ascii;
    class       volScalarField;
    location    "0.27";
    object      gradTx;
}
// * * * * * * * * * * * * * * * * * * * * * * * * * * * * * * * * * * * * * //

dimensions      [0 -1 0 1 0 0 0];

internalField   nonuniform List<scalar> 
1596
(
-0.0404875
-0.203355
-0.364933
-0.512026
-0.644166
-0.76134
-0.868935
-0.970388
-1.07027
-1.17745
-1.29422
-1.43122
-1.60119
-1.82302
-2.11937
-2.54807
-3.19897
-4.26642
-6.15226
0.00885833
-0.169415
-0.328347
-0.466762
-0.588271
-0.693817
-0.788232
-0.873214
-0.95216
-1.02961
-1.10584
-1.18648
-1.27333
-1.36921
-1.47139
-1.57509
-1.65481
-1.65892
-1.47817
0.0492788
-0.138835
-0.29269
-0.421122
-0.530882
-0.624197
-0.705222
-0.775055
-0.835945
-0.890285
-0.937535
-0.980563
-1.0183
-1.04983
-1.07048
-1.07234
-1.03487
-0.922426
-0.665463
0.0556461
-0.122968
-0.263895
-0.379059
-0.475685
-0.556541
-0.624875
-0.681559
-0.728008
-0.765417
-0.793197
-0.812678
-0.822376
-0.820658
-0.803797
-0.765436
-0.692303
-0.562868
-0.335564
0.016152
-0.129127
-0.247164
-0.344829
-0.426719
-0.494945
-0.551509
-0.597047
-0.632329
-0.657789
-0.673091
-0.678648
-0.67327
-0.655483
-0.622868
-0.570967
-0.491918
-0.373315
-0.191145
-0.0660033
-0.160005
-0.246313
-0.322238
-0.387649
-0.442864
-0.488326
-0.52423
-0.550758
-0.567782
-0.57521
-0.57286
-0.559914
-0.535195
-0.497292
-0.443148
-0.368331
-0.265778
-0.121802
-0.17545
-0.213092
-0.262781
-0.31376
-0.361061
-0.402629
-0.437215
-0.464327
-0.483551
-0.494281
-0.496528
-0.489703
-0.473245
-0.446205
-0.407815
-0.355931
-0.288149
-0.200446
-0.0850352
-0.290296
-0.278528
-0.292398
-0.317683
-0.346213
-0.373786
-0.397623
-0.416414
-0.429148
-0.434797
-0.433317
-0.423834
-0.405911
-0.378739
-0.341908
-0.293855
-0.233332
-0.158039
-0.0635558
-0.409273
-0.362219
-0.344077
-0.343432
-0.351781
-0.363765
-0.375558
-0.385062
-0.390703
-0.391062
-0.385882
-0.374075
-0.355187
-0.328447
-0.293587
-0.249386
-0.195192
-0.129654
-0.0502038
-0.4807
-0.420416
-0.383212
-0.363884
-0.356227
-0.35518
-0.356687
-0.35819
-0.357753
-0.353694
-0.34553
-0.332062
-0.312783
-0.286957
-0.25437
-0.21405
-0.165675
-0.108465
-0.0409235
-0.538732
-0.47268
-0.423928
-0.390742
-0.369596
-0.3566
-0.348148
-0.341609
-0.334901
-0.326205
-0.314826
-0.299497
-0.279628
-0.254478
-0.223809
-0.186793
-0.143252
-0.0927179
-0.0343225
-0.597595
-0.530825
-0.474842
-0.430769
-0.397519
-0.372754
-0.353785
-0.338293
-0.324291
-0.309951
-0.294425
-0.276404
-0.255194
-0.230007
-0.200532
-0.165992
-0.12623
-0.0809156
-0.0295012
-0.612969
-0.555078
-0.500344
-0.452793
-0.413483
-0.381619
-0.355586
-0.333638
-0.314111
-0.295346
-0.276489
-0.256282
-0.234
-0.208856
-0.180497
-0.148202
-0.11181
-0.0710696
-0.0256056
-0.6159
-0.567779
-0.51765
-0.470209
-0.427916
-0.391331
-0.359902
-0.33259
-0.30819
-0.285333
-0.263258
-0.240818
-0.217294
-0.19192
-0.164306
-0.133769
-0.100117
-0.063128
-0.0225155
-0.61356
-0.574329
-0.529939
-0.484658
-0.4415
-0.401986
-0.366492
-0.334718
-0.30599
-0.279311
-0.254096
-0.229355
-0.204413
-0.178539
-0.151317
-0.122088
-0.0906214
-0.0566872
-0.0200303
-0.597182
-0.567488
-0.530078
-0.489027
-0.447447
-0.407402
-0.369943
-0.335415
-0.303676
-0.274134
-0.24645
-0.219832
-0.193693
-0.167367
-0.140442
-0.112289
-0.0826558
-0.0513
-0.0179688
-0.566373
-0.5457
-0.515924
-0.480612
-0.442688
-0.404403
-0.367202
-0.331907
-0.298829
-0.267767
-0.238647
-0.210904
-0.184075
-0.157583
-0.131047
-0.10389
-0.0758579
-0.0467211
-0.0162321
-0.53052
-0.515579
-0.492488
-0.463142
-0.429822
-0.394646
-0.359207
-0.324624
-0.291552
-0.26012
-0.230504
-0.202363
-0.175368
-0.149036
-0.123027
-0.0968131
-0.070163
-0.0428873
-0.0147791
-0.500425
-0.490135
-0.472198
-0.447713
-0.418339
-0.385953
-0.352199
-0.318397
-0.285483
-0.253867
-0.223947
-0.19558
-0.168547
-0.142439
-0.116919
-0.0914701
-0.06586
-0.0399542
-0.0136381
-0.44903
-0.4448
-0.432763
-0.414216
-0.390427
-0.362917
-0.333176
-0.30253
-0.272036
-0.242286
-0.213839
-0.186724
-0.160842
-0.135865
-0.111468
-0.0871238
-0.06257
-0.0377403
-0.0127361
-0.39256
-0.39312
-0.3864
-0.373469
-0.355308
-0.333117
-0.308164
-0.281679
-0.254732
-0.227998
-0.202118
-0.177245
-0.153368
-0.130236
-0.107521
-0.0846314
-0.0611472
-0.0369187
-0.0123026
-0.333997
-0.337685
-0.335398
-0.327596
-0.314893
-0.298174
-0.278467
-0.256849
-0.23433
-0.211587
-0.18926
-0.167561
-0.146532
-0.125995
-0.105641
-0.0847988
-0.0627359
-0.038792
-0.0130161
-0.269392
-0.274678
-0.276012
-0.273088
-0.266037
-0.255348
-0.241764
-0.226136
-0.209339
-0.191966
-0.174552
-0.157296
-0.14023
-0.123257
-0.106174
-0.0883691
-0.0688404
-0.0460253
-0.017907
-0.196765
-0.194057
-0.1883
-0.179604
-0.16864
-0.156311
-0.143654
-0.131533
-0.120618
-0.111163
-0.103032
-0.0957989
-0.0888756
-0.081722
-0.0739007
-0.0649095
-0.0539267
-0.0392302
-0.0175863
-0.131604
-0.146794
-0.164022
-0.180823
-0.195435
-0.206618
-0.213868
-0.217118
-0.216753
-0.213272
-0.207024
-0.198405
-0.18761
-0.175135
-0.161558
-0.147423
-0.132618
-0.116095
-0.094846
-0.0446846
-0.0521998
-0.0622154
-0.0732818
-0.084334
-0.0946072
-0.103818
-0.111866
-0.118912
-0.125065
-0.129996
-0.133394
-0.134506
-0.133012
-0.129003
-0.123374
-0.116874
-0.110413
-0.104178
0.042418
0.0328713
0.0194395
0.0035186
-0.0136089
-0.0309242
-0.0478396
-0.0640568
-0.0795722
-0.0944064
-0.108134
-0.120181
-0.129394
-0.134894
-0.136323
-0.134538
-0.130635
-0.126031
-0.121349
0.129543
0.116554
0.0985115
0.0770379
0.0536101
0.0294371
0.00530455
-0.0183984
-0.0416218
-0.0644266
-0.0864728
-0.107082
-0.124788
-0.138037
-0.145691
-0.148166
-0.14672
-0.14333
-0.139153
0.208652
0.190442
0.166716
0.13943
0.110156
0.0801651
0.0502609
0.0207724
-0.00835765
-0.0373844
-0.0662377
-0.0943993
-0.120324
-0.141839
-0.156712
-0.16435
-0.165674
-0.163212
-0.158978
0.291228
0.266741
0.23672
0.20324
0.167955
0.132194
0.0967555
0.0618904
0.027415
-0.00716107
-0.0421364
-0.0774224
-0.11178
-0.142773
-0.167011
-0.182244
-0.188064
-0.187053
-0.182424
0.354369
0.322604
0.286212
0.247275
0.207447
0.16794
0.129354
0.091719
0.0546388
0.0173396
-0.0208969
-0.0606265
-0.101388
-0.141211
-0.176085
-0.201855
-0.215333
-0.217484
-0.212096
0.414367
0.376277
0.333689
0.289489
0.245448
0.202633
0.161442
0.121715
0.0829175
0.0440989
0.0042462
-0.0378387
-0.0827919
-0.130029
-0.176271
-0.21654
-0.244078
-0.255417
-0.252295
0.470962
0.424676
0.375438
0.32621
0.278555
0.233229
0.190359
0.149591
0.110315
0.071545
0.0322134
-0.00920047
-0.0542629
-0.104251
-0.158256
-0.21341
-0.26161
-0.293667
-0.300319
0.509324
0.450605
0.391221
0.333777
0.279364
0.228308
0.18042
0.135187
0.0919621
0.0498316
0.00783331
-0.0354685
-0.0819186
-0.134051
-0.193862
-0.263264
-0.339292
-0.415018
-0.477097
0.535017
0.470493
0.409919
0.354938
0.30556
0.261306
0.221403
0.18507
0.151579
0.120231
0.0905054
0.0617685
0.0333001
0.00391866
-0.0281775
-0.0666489
-0.115403
-0.179021
-0.259798
0.555617
0.488539
0.429702
0.378458
0.333544
0.293854
0.25829
0.226003
0.19632
0.168668
0.142757
0.118373
0.0954206
0.0739498
0.0541803
0.0360378
0.0192163
0.00228826
-0.0175421
0.529981
0.453244
0.388676
0.333717
0.286309
0.244956
0.208375
0.175613
0.145944
0.118749
0.0937121
0.0706006
0.0492892
0.0298243
0.0124914
-0.00239706
-0.0143061
-0.0226737
-0.0272293
0.468586
0.397943
0.339604
0.290699
0.249083
0.2132
0.181791
0.153929
0.128935
0.106257
0.0856029
0.0667639
0.0495929
0.034044
0.0201748
0.00797603
-0.00253126
-0.0113352
-0.0185388
0.391828
0.331922
0.282502
0.241295
0.206478
0.176665
0.150754
0.127921
0.107572
0.0892273
0.072611
0.0575186
0.0437724
0.031266
0.019967
0.009796
0.000715219
-0.00726776
-0.0142185
0.296571
0.250052
0.212129
0.180844
0.154653
0.132394
0.113172
0.0963215
0.0813732
0.0679462
0.0558119
0.0447989
0.0347481
0.0255569
0.0171835
0.0095632
0.00267413
-0.00345281
-0.00884309
0.187476
0.156409
0.131845
0.11197
0.095536
0.0816814
0.0697851
0.0593978
0.0502092
0.0419703
0.0345274
0.0277652
0.0215735
0.0158792
0.0106493
0.00584142
0.00144398
-0.00251116
-0.00602426
0.0721804
0.0597466
0.0502511
0.0426676
0.0364157
0.0311371
0.0265922
0.0226129
0.0190845
0.0159152
0.013046
0.0104313
0.00802699
0.00580119
0.00373574
0.00180947
1.20225e-05
-0.00164887
-0.00317337
-0.0721457
-0.0596709
-0.0501488
-0.0425488
-0.0362875
-0.0310048
-0.0264601
-0.0224843
-0.0189621
-0.0158014
-0.0129426
-0.01034
-0.00794909
-0.00573794
-0.00368806
-0.00177809
2.59851e-06
0.0016467
0.00315469
-0.187444
-0.156343
-0.131757
-0.111868
-0.0954265
-0.0815696
-0.0696749
-0.0592924
-0.0501111
-0.0418816
-0.03445
-0.0277006
-0.0215229
-0.0158436
-0.0106296
-0.00583804
-0.00145717
0.00248164
0.00597908
-0.296539
-0.24999
-0.212044
-0.180744
-0.154543
-0.132279
-0.113056
-0.0962078
-0.0812644
-0.0678445
-0.0557192
-0.0447164
-0.0346769
-0.0254975
-0.017136
-0.00952732
-0.00264928
0.00346765
0.00884912
-0.391806
-0.33188
-0.282446
-0.24123
-0.206407
-0.176592
-0.150682
-0.127852
-0.10751
-0.0891736
-0.0725673
-0.057486
-0.0437517
-0.0312574
-0.01997
-0.00981003
-0.00073901
0.00723561
0.0141795
-0.468574
-0.397919
-0.339569
-0.290656
-0.249035
-0.213149
-0.18174
-0.153881
-0.128892
-0.106222
-0.0855775
-0.0667493
-0.0495899
-0.0340529
-0.0201947
-0.00800524
0.00249559
0.0112968
0.018502
-0.529984
-0.453243
-0.388667
-0.333701
-0.286288
-0.244933
-0.208353
-0.175595
-0.145933
-0.118748
-0.0937242
-0.070628
-0.0493341
-0.0298883
-0.0125743
0.0022986
0.0142008
0.0225762
0.0271566
-0.555621
-0.488499
-0.429603
-0.378292
-0.33331
-0.293554
-0.257928
-0.225586
-0.195852
-0.168155
-0.142204
-0.117783
-0.0947959
-0.0732925
-0.0534956
-0.035344
-0.0185581
-0.00176049
0.0177825
-0.535118
-0.470759
-0.410358
-0.355549
-0.306336
-0.262239
-0.222484
-0.186291
-0.152933
-0.121715
-0.092121
-0.063525
-0.0352197
-0.00604363
0.0257816
0.0638868
0.112181
0.175295
0.255651
-0.509287
-0.450501
-0.391036
-0.333508
-0.279012
-0.227877
-0.179918
-0.134622
-0.0913436
-0.04917
-0.00713986
0.0361811
0.082636
0.134761
0.194567
0.264003
0.340172
0.416225
0.478884
-0.470997
-0.42476
-0.375562
-0.326366
-0.278737
-0.23343
-0.190575
-0.149819
-0.110554
-0.071796
-0.0324789
0.00891714
0.0539612
0.103942
0.157969
0.213207
0.261562
0.293819
0.300612
-0.414389
-0.376329
-0.333767
-0.289587
-0.245561
-0.202757
-0.161575
-0.121856
-0.0830652
-0.0442547
-0.00441064
0.0376677
0.082623
0.129883
0.176183
0.21655
0.244206
0.255644
0.252573
-0.354392
-0.322656
-0.28629
-0.247374
-0.207562
-0.168067
-0.129489
-0.0918595
-0.0547832
-0.0174862
0.0207509
0.060488
0.10127
0.141136
0.176075
0.201925
0.215476
0.217672
0.212298
-0.291249
-0.266792
-0.236797
-0.20334
-0.168072
-0.132324
-0.0968929
-0.0620315
-0.0275564
0.00702327
0.0420076
0.0773117
0.111701
0.14274
0.167036
0.182326
0.188191
0.187203
0.182584
-0.20867
-0.190489
-0.166788
-0.139524
-0.110267
-0.0802876
-0.0503895
-0.0209023
0.00823104
0.0372662
0.0661344
0.0943197
0.120278
0.141836
0.156756
0.164434
0.165785
0.163338
0.159114
-0.129562
-0.116602
-0.0985861
-0.0771351
-0.0537244
-0.0295624
-0.00543444
0.0182698
0.0415003
0.0643182
0.0863841
0.10702
0.124761
0.138048
0.145739
0.148244
0.146819
0.143442
0.139276
-0.0424345
-0.032916
-0.0195108
-0.00361247
0.0134985
0.0308042
0.0477169
0.0639381
0.0794637
0.0943144
0.108064
0.120139
0.129385
0.134917
0.136376
0.134615
0.13073
0.12614
0.121472
0.0446467
0.052085
0.0620188
0.0730066
0.083991
0.0942123
0.103391
0.111425
0.118478
0.124655
0.129623
0.13307
0.134237
0.132798
0.12884
0.123258
0.116805
0.1104
0.104253
0.131631
0.146896
0.164221
0.181128
0.195845
0.207124
0.214453
0.21776
0.217429
0.213962
0.207708
0.199069
0.188243
0.175732
0.162118
0.147949
0.133114
0.116563
0.0952833
0.196737
0.193957
0.188124
0.179356
0.168334
0.155963
0.143283
0.131156
0.120251
0.110819
0.102719
0.0955227
0.0886381
0.0815229
0.0737375
0.0647798
0.0538284
0.0391633
0.0175569
0.269409
0.274712
0.276063
0.273155
0.266115
0.255431
0.241847
0.226214
0.209409
0.192025
0.174599
0.157332
0.140256
0.123274
0.106184
0.0883731
0.0688398
0.0460222
0.0179048
0.334001
0.33769
0.335405
0.327604
0.314902
0.298183
0.278475
0.256856
0.234336
0.211591
0.189261
0.167561
0.14653
0.125992
0.105637
0.0847945
0.0627317
0.0387889
0.0130152
0.392564
0.393125
0.386406
0.373476
0.355315
0.333124
0.30817
0.281684
0.254735
0.228
0.202118
0.177243
0.153365
0.130233
0.107518
0.0846281
0.0611445
0.036917
0.0123022
0.449033
0.444804
0.432767
0.414222
0.390432
0.362922
0.33318
0.302532
0.272037
0.242286
0.213838
0.186722
0.160839
0.135862
0.111465
0.0871213
0.0625681
0.0377392
0.0127358
0.500428
0.490139
0.472203
0.447718
0.418344
0.385957
0.352202
0.318399
0.285483
0.253867
0.223946
0.195578
0.168544
0.142436
0.116916
0.091468
0.0658585
0.0399533
0.0136378
0.530522
0.515583
0.492491
0.463146
0.429825
0.394648
0.359209
0.324625
0.291552
0.260118
0.230502
0.202361
0.175365
0.149034
0.123025
0.0968113
0.0701617
0.0428866
0.0147789
0.566374
0.545703
0.515927
0.480615
0.44269
0.404404
0.367202
0.331906
0.298828
0.267765
0.238645
0.210902
0.184072
0.15758
0.131045
0.103888
0.0758568
0.0467205
0.0162319
0.597184
0.56749
0.530081
0.48903
0.447449
0.407403
0.369943
0.335414
0.303675
0.274132
0.246448
0.219829
0.193691
0.167365
0.14044
0.112288
0.0826548
0.0512995
0.0179687
0.613561
0.57433
0.529941
0.48466
0.441501
0.401986
0.366492
0.334717
0.305988
0.279308
0.254094
0.229353
0.204411
0.178537
0.151316
0.122087
0.0906205
0.0566868
0.0200302
0.615901
0.56778
0.517652
0.47021
0.427917
0.391331
0.359901
0.332589
0.308188
0.285331
0.263256
0.240816
0.217292
0.191918
0.164305
0.133767
0.100116
0.0631277
0.0225155
0.612971
0.555081
0.500347
0.452795
0.413484
0.381619
0.355586
0.333637
0.31411
0.295345
0.276488
0.256281
0.233999
0.208855
0.180496
0.148201
0.111809
0.0710696
0.0256058
0.597594
0.530824
0.474842
0.430767
0.397517
0.372751
0.353783
0.33829
0.324288
0.309948
0.294423
0.276402
0.255193
0.230006
0.200531
0.165992
0.126229
0.0809157
0.0295013
0.538735
0.472683
0.42393
0.390743
0.369597
0.3566
0.348147
0.341608
0.3349
0.326204
0.314825
0.299496
0.279628
0.254477
0.223809
0.186793
0.143252
0.0927184
0.0343227
0.480705
0.42042
0.383214
0.363885
0.356228
0.355179
0.356687
0.35819
0.357752
0.353693
0.345529
0.332061
0.312783
0.286958
0.254371
0.214051
0.165676
0.108465
0.0409238
0.409277
0.362222
0.344079
0.343433
0.351781
0.363764
0.375558
0.385061
0.390703
0.391061
0.385881
0.374075
0.355187
0.328448
0.293588
0.249387
0.195193
0.129654
0.050204
0.290299
0.278529
0.292399
0.317683
0.346213
0.373786
0.397622
0.416414
0.429147
0.434797
0.433317
0.423835
0.405912
0.37874
0.341909
0.293857
0.233333
0.15804
0.0635559
0.175453
0.213093
0.262782
0.313761
0.361061
0.402629
0.437215
0.464327
0.483551
0.494281
0.496528
0.489703
0.473246
0.446206
0.407816
0.355932
0.28815
0.200446
0.0850351
0.0660052
0.160007
0.246314
0.322239
0.38765
0.442864
0.488326
0.52423
0.550759
0.567782
0.57521
0.57286
0.559915
0.535196
0.497293
0.443149
0.368331
0.265778
0.121802
-0.0161509
0.129128
0.247165
0.344829
0.42672
0.494945
0.551509
0.597047
0.632329
0.657789
0.673092
0.678649
0.673271
0.655484
0.622868
0.570967
0.491918
0.373314
0.191144
-0.0556459
0.122968
0.263895
0.37906
0.475685
0.556541
0.624875
0.681559
0.728009
0.765417
0.793198
0.812678
0.822377
0.820659
0.803797
0.765436
0.692302
0.562867
0.335564
-0.0492791
0.138835
0.29269
0.421122
0.530882
0.624197
0.705222
0.775055
0.835946
0.890285
0.937535
0.980564
1.0183
1.04983
1.07048
1.07234
1.03487
0.922425
0.665463
-0.00885842
0.169415
0.328347
0.466762
0.588271
0.693817
0.788232
0.873214
0.952161
1.02961
1.10584
1.18648
1.27333
1.36921
1.47139
1.57509
1.65481
1.65892
1.47817
0.0404877
0.203355
0.364933
0.512026
0.644166
0.76134
0.868935
0.970388
1.07027
1.17745
1.29422
1.43122
1.60118
1.82302
2.11937
2.54807
3.19897
4.26642
6.15226
)
;

boundaryField
{
    up
    {
        type            calculated;
        value           nonuniform List<scalar> 
84
(
-6.15226
-1.47817
-0.665463
-0.335564
-0.191145
-0.121802
-0.0850352
-0.0635558
-0.0502038
-0.0409235
-0.0343225
-0.0295012
-0.0256056
-0.0225155
-0.0200303
-0.0179688
-0.0162321
-0.0147791
-0.0136381
-0.0127361
-0.0123026
-0.0130161
-0.017907
-0.0175863
-0.0813894
-0.0978817
-0.115276
-0.132687
-0.151761
-0.174034
-0.201552
-0.236337
-0.275698
-0.474458
-0.269465
-0.0180858
-0.0272174
-0.0185168
-0.0142052
-0.00883912
-0.0060235
-0.00317458
0.00315589
0.00597836
0.00884521
0.0141663
0.0184801
0.0271446
0.0183192
0.265189
0.476585
0.275958
0.23658
0.20174
0.174188
0.151894
0.13281
0.115402
0.097997
0.0817888
0.0175569
0.0179048
0.0130152
0.0123022
0.0127358
0.0136378
0.0147789
0.0162319
0.0179687
0.0200302
0.0225155
0.0256058
0.0295013
0.0343227
0.0409238
0.050204
0.0635559
0.0850351
0.121802
0.191144
0.335564
0.665463
1.47817
6.15226
)
;
    }
    low
    {
        type            calculated;
        value           nonuniform List<scalar> 
84
(
-0.0365247
0.0147964
0.0589287
0.0662046
0.0228311
-0.0672462
-0.185738
-0.307651
-0.429371
-0.497127
-0.552956
-0.608673
-0.616984
-0.615471
-0.610266
-0.589912
-0.555802
-0.51913
-0.487098
-0.432213
-0.374233
-0.315627
-0.251735
-0.181468
-0.119787
-0.0404431
0.0375849
0.117449
0.192946
0.275198
0.340814
0.402933
0.462815
0.505664
0.535043
0.560104
0.539344
0.479065
0.401434
0.304373
0.192716
0.0743906
-0.0743557
-0.192683
-0.304339
-0.401408
-0.479047
-0.53934
-0.5601
-0.535128
-0.505628
-0.462843
-0.402953
-0.340835
-0.275219
-0.192965
-0.117469
-0.0376017
0.0404062
0.119814
0.181442
0.25175
0.315631
0.374236
0.432215
0.487101
0.519132
0.555804
0.589914
0.610267
0.615472
0.616986
0.608671
0.552958
0.497132
0.429375
0.307655
0.185741
0.0672484
-0.02283
-0.0662047
-0.0589295
-0.0147969
0.0365248
)
;
    }
    left
    {
        type            calculated;
        value           nonuniform List<scalar> 
19
(
-0.0358879
-0.195083
-0.359838
-0.511907
-0.649647
-0.772237
-0.885514
-0.993507
-1.10079
-1.21857
-1.34904
-1.50428
-1.70108
-1.96501
-2.32467
-2.86162
-3.70059
-5.11302
-5.33619
)
;
    }
    right
    {
        type            calculated;
        value           nonuniform List<scalar> 
19
(
0.0358882
0.195083
0.359838
0.511908
0.649648
0.772238
0.885515
0.993507
1.10079
1.21857
1.34904
1.50427
1.70108
1.965
2.32466
2.86162
3.70058
5.11302
5.33619
)
;
    }
    frontAndBackPlanes
    {
        type            empty;
    }
}


// ************************************************************************* //
