/*--------------------------------*- C++ -*----------------------------------*\
  =========                 |
  \\      /  F ield         | OpenFOAM: The Open Source CFD Toolbox
   \\    /   O peration     | Website:  https://openfoam.org
    \\  /    A nd           | Version:  7
     \\/     M anipulation  |
\*---------------------------------------------------------------------------*/
FoamFile
{
    version     2.0;
    format      ascii;
    class       volScalarField;
    location    "0.079";
    object      T;
}
// * * * * * * * * * * * * * * * * * * * * * * * * * * * * * * * * * * * * * //

dimensions      [0 0 0 1 0 0 0];

internalField   nonuniform List<scalar> 
1596
(
6.95664
6.83395
6.71338
6.60815
6.52321
6.45841
6.41155
6.37789
6.354
6.33356
6.31249
6.28481
6.23851
6.15811
6.02156
5.78426
5.36802
4.61994
3.23419
6.81534
6.43923
6.09965
5.81278
5.58372
5.40936
5.28257
5.19229
5.12905
5.07997
5.03548
4.9839
4.90579
4.77802
4.57306
4.24576
3.73387
2.93847
1.67821
6.6565
6.03858
5.50643
5.06625
4.71759
4.45281
4.26002
4.12358
4.02951
3.96121
3.90604
3.84988
3.77207
3.64899
3.45423
3.1487
2.68527
2.00066
0.987738
6.51291
5.68609
4.99237
4.42544
3.97814
3.63842
3.39039
3.21516
3.09551
3.01269
2.95231
2.89944
2.83449
2.73592
2.58036
2.33495
1.963
1.42113
0.643032
6.40946
5.42165
4.59917
3.92898
3.39959
2.99604
2.69972
2.48964
2.34633
2.24967
2.18419
2.13473
2.08344
2.01148
1.89882
1.71811
1.43968
1.03085
0.446664
6.35563
5.26076
4.34189
3.5888
2.9901
2.53031
2.18972
1.94626
1.77899
1.66693
1.5937
1.54403
1.50169
1.45035
1.37318
1.24756
1.04908
0.751312
0.320517
6.34453
5.1936
4.20883
3.3911
2.73377
2.22354
1.84132
1.56502
1.37292
1.24342
1.15935
1.10518
1.06585
1.02711
0.9748
0.890485
0.754122
0.543688
0.232049
6.36046
5.19435
4.17081
3.30535
2.5995
2.04445
1.62339
1.31518
1.09797
0.949802
0.852733
0.790846
0.749722
0.716565
0.679382
0.623245
0.531957
0.387258
0.166771
6.39171
5.23873
4.198
3.29952
2.55451
1.96028
1.50354
1.16497
0.923204
0.756148
0.645187
0.573861
0.527939
0.495499
0.466078
0.427581
0.367134
0.269945
0.117732
6.42134
5.29456
4.25235
3.33432
2.56041
1.93435
1.44706
1.08162
0.817633
0.633159
0.509059
0.428306
0.376556
0.342286
0.31602
0.28779
0.247456
0.183368
0.0810256
6.44109
5.34056
4.30564
3.37907
2.58655
1.93722
1.42612
1.03893
0.756569
0.557469
0.4222
0.33325
0.276015
0.239076
0.213507
0.190844
0.163056
0.12118
0.0541174
6.46036
5.38308
4.35711
3.42695
2.62197
1.9554
1.4258
1.02126
0.724052
0.513095
0.36879
0.273211
0.211422
0.171904
0.145965
0.126106
0.105805
0.0782175
0.0351018
6.47498
5.41593
4.39759
3.4659
2.65266
1.97396
1.43101
1.01382
0.705776
0.486243
0.33551
0.235312
0.170386
0.129035
0.102624
0.0842313
0.068344
0.0496697
0.022198
6.47935
5.4293
4.4155
3.48335
2.66564
1.98008
1.42946
1.00502
0.69087
0.466653
0.31257
0.210102
0.143741
0.101645
0.075182
0.057784
0.0445934
0.0313934
0.0137977
6.47973
5.42945
4.41468
3.48042
2.65969
1.97074
1.4169
0.989845
0.673876
0.448613
0.294092
0.191586
0.125424
0.083683
0.0577509
0.0413047
0.0299177
0.0200921
0.00855381
6.47812
5.42056
4.39874
3.45915
2.63514
1.94482
1.3912
0.96548
0.651531
0.428578
0.276335
0.175862
0.111402
0.071039
0.0462418
0.0309026
0.0209102
0.0132517
0.00538841
6.47195
5.40019
4.3658
3.4177
2.58996
1.90015
1.35005
0.929612
0.621533
0.404242
0.256948
0.160501
0.0991502
0.0611031
0.0380052
0.0239982
0.0152492
0.00910158
0.00350793
6.46276
5.37047
4.31821
3.3583
2.52595
1.83796
1.29422
0.882541
0.583794
0.375172
0.235197
0.144502
0.0874439
0.0524741
0.0315237
0.0190448
0.0114907
0.0065018
0.0023795
6.45815
5.34334
4.2683
3.29204
2.45234
1.76551
1.22909
0.828072
0.540823
0.342865
0.211802
0.128013
0.0760182
0.0445991
0.0260573
0.0152093
0.00881168
0.00477623
0.00167464
6.4563
5.31923
4.21803
3.22142
2.37162
1.68499
1.1565
0.767662
0.493709
0.308057
0.187181
0.111178
0.0647893
0.0372224
0.0212301
0.0120481
0.00676092
0.00354548
0.00120437
6.45245
5.29254
4.16354
3.14443
2.28313
1.59664
1.07716
0.7022
0.44332
0.271467
0.161847
0.0942943
0.0538706
0.0303107
0.0169043
0.00936017
0.0051158
0.00261444
0.000868691
6.45055
5.26852
4.11084
3.06749
2.19312
1.50602
0.995673
0.635264
0.392262
0.234881
0.136945
0.0780388
0.0436124
0.0240011
0.0130856
0.00707699
0.00377589
0.00188743
0.000617513
6.45287
5.25245
4.06682
2.99821
2.10907
1.41978
0.917463
0.570927
0.343387
0.200161
0.113607
0.0630457
0.0343315
0.0184199
0.0097934
0.00516242
0.00268187
0.00130613
0.000420497
6.45906
5.24611
4.0357
2.94258
2.03772
1.34436
0.847928
0.513266
0.299488
0.169054
0.0928286
0.0498227
0.0262468
0.0136301
0.00701456
0.00357015
0.00177477
0.000808842
0.000230361
6.47706
5.27898
4.06855
2.96671
2.05048
1.34739
0.844723
0.507322
0.293281
0.163872
0.0890517
0.0473216
0.0247087
0.0127377
0.00651725
0.00329442
0.00161074
0.000699347
0.000170843
6.50071
5.33951
4.15173
3.05675
2.13418
1.41661
0.896749
0.543377
0.316594
0.178098
0.0973214
0.0519508
0.0272291
0.0140883
0.00724193
0.00368999
0.00182882
0.000811399
0.000206746
6.51523
5.38682
4.22626
3.14627
2.2249
1.4975
0.961755
0.591206
0.349188
0.198866
0.109787
0.059038
0.0310591
0.0160607
0.00821858
0.00416301
0.00205782
0.000917453
0.000238271
6.52062
5.41879
4.28822
3.23086
2.31913
1.58832
1.03992
0.652452
0.393469
0.228699
0.128645
0.0702673
0.0373529
0.0193624
0.0098292
0.0048892
0.00236195
0.00103264
0.000265322
6.52137
5.44211
4.34332
3.31417
2.41884
1.69036
1.13272
0.729165
0.451984
0.270313
0.156441
0.0877679
0.0477192
0.0250895
0.0127384
0.0062181
0.00289516
0.00120949
0.000296132
6.51857
5.46033
4.39512
3.3982
2.52435
1.80305
1.23966
0.821587
0.525876
0.325556
0.195352
0.113691
0.0640222
0.0346768
0.0179194
0.0087146
0.00392706
0.00154705
0.00034884
6.51544
5.48004
4.45022
3.4878
2.63845
1.92768
1.36144
0.930551
0.616545
0.396435
0.247802
0.150582
0.0886477
0.0501371
0.0268789
0.0133416
0.00594989
0.00222819
0.000457462
6.51895
5.511
4.51773
3.5902
2.76623
2.06757
1.5003
1.05798
0.726086
0.485463
0.316697
0.201567
0.124713
0.0743373
0.0420088
0.0218293
0.00995556
0.00362692
0.000672459
6.52516
5.54706
4.59121
3.69939
2.90242
2.21845
1.65317
1.20218
0.854269
0.593774
0.404309
0.269756
0.175836
0.111096
0.0670092
0.037384
0.0182438
0.00686618
0.00108085
6.53281
5.58613
4.66845
3.81327
3.04518
2.37881
1.81906
1.36288
1.00177
0.723116
0.51344
0.358888
0.246538
0.165562
0.107512
0.0658718
0.0363615
0.0162783
0.00365805
6.53887
5.61895
4.73428
3.91192
3.17117
2.52338
1.97226
1.51535
1.14592
0.853651
0.62747
0.45556
0.326421
0.230069
0.158335
0.104437
0.0635318
0.0324397
0.00905195
6.5357
5.62465
4.75721
3.95515
3.23348
2.60078
2.05933
1.60642
1.23593
0.938589
0.704615
0.523384
0.384333
0.27816
0.197137
0.134558
0.0854422
0.0462234
0.0141832
6.52574
5.6115
4.75055
3.95974
3.25056
2.62922
2.09664
1.64946
1.28159
0.984063
0.747714
0.562523
0.418441
0.306612
0.219703
0.151264
0.0965837
0.0523774
0.016091
6.51908
5.60378
4.74888
3.96757
3.26872
2.65674
2.13145
1.68902
1.32333
1.02564
0.787245
0.598614
0.450117
0.333277
0.241104
0.167372
0.107577
0.0586455
0.0181339
6.51663
5.60247
4.75283
3.97887
3.2878
2.6828
2.16292
1.72394
1.35972
1.06168
0.821441
0.629847
0.477578
0.356449
0.259749
0.181438
0.117192
0.0641362
0.0199351
6.51517
5.60219
4.7566
3.98817
3.30292
2.70317
2.18737
1.75103
1.38797
1.08972
0.848126
0.654292
0.49913
0.374673
0.274429
0.192511
0.124749
0.068441
0.0213484
6.51377
5.60102
4.75793
3.99322
3.31201
2.71596
2.20311
1.76874
1.40666
1.10842
0.866036
0.670782
0.513719
0.387033
0.284387
0.200006
0.129838
0.0713179
0.0222866
6.51063
5.59672
4.75487
3.99246
3.31383
2.7202
2.20934
1.7764
1.41517
1.11724
0.874682
0.67888
0.520976
0.393241
0.289428
0.203826
0.132448
0.0728023
0.0227763
6.51065
5.59676
4.75493
3.99253
3.31391
2.72027
2.20941
1.77648
1.41524
1.1173
0.874735
0.678926
0.521015
0.393274
0.289455
0.203846
0.132463
0.072811
0.0227793
6.51381
5.60114
4.7581
3.99342
3.31223
2.71619
2.20334
1.76896
1.40686
1.1086
0.866196
0.670921
0.513838
0.387131
0.284467
0.200068
0.129883
0.0713445
0.0222959
6.51524
5.60238
4.75687
3.98849
3.30328
2.70354
2.18774
1.75138
1.38829
1.09001
0.848381
0.654513
0.499317
0.374829
0.274555
0.192608
0.124818
0.0684821
0.0213626
6.51673
5.60272
4.75319
3.97931
3.28828
2.6833
2.16341
1.7244
1.36014
1.06206
0.821779
0.630138
0.477825
0.356653
0.259912
0.181563
0.11728
0.064189
0.0199533
6.5192
5.60409
4.74934
3.96812
3.26932
2.65736
2.13206
1.6896
1.32386
1.02611
0.787657
0.598966
0.450412
0.333519
0.241296
0.167518
0.107679
0.0587066
0.0181549
6.52588
5.61186
4.75109
3.96038
3.25127
2.62996
2.09736
1.65013
1.2822
0.984607
0.748183
0.562919
0.418769
0.306877
0.219911
0.15142
0.0966918
0.0524409
0.0161124
6.53586
5.62507
4.75783
3.9559
3.23431
2.60163
2.06016
1.60719
1.23663
0.939198
0.705134
0.523816
0.384685
0.27844
0.197352
0.134716
0.0855496
0.0462857
0.0142045
6.53907
5.61956
4.73523
3.91312
3.17253
2.52481
1.97368
1.51668
1.14713
0.854705
0.628366
0.456306
0.327031
0.230561
0.158729
0.104747
0.0637666
0.0325958
0.00911312
6.53307
5.58686
4.66957
3.81468
3.04676
2.38044
1.82065
1.36436
1.00308
0.724237
0.514372
0.359647
0.247145
0.166043
0.107887
0.0661569
0.0365646
0.0164013
0.00370005
6.52537
5.5477
4.59222
3.70065
2.90382
2.21988
1.65453
1.2034
0.855319
0.594642
0.405005
0.2703
0.176254
0.111411
0.0672422
0.0375472
0.018345
0.00691405
0.00108993
6.51916
5.51162
4.51869
3.59141
2.76756
2.06891
1.50154
1.05906
0.726992
0.486187
0.317256
0.201988
0.125024
0.0745622
0.0421665
0.0219322
0.0100131
0.00364976
0.000675343
6.51562
5.48063
4.45114
3.48895
2.6397
1.92891
1.36256
0.931506
0.617315
0.397029
0.248244
0.150901
0.0888741
0.0502936
0.0269826
0.0134047
0.0059821
0.00223929
0.000458022
6.51874
5.46088
4.39599
3.39927
2.52551
1.80417
1.24066
0.822411
0.52652
0.326035
0.195695
0.11393
0.0641836
0.0347827
0.0179853
0.00875165
0.00394421
0.0015521
0.000348648
6.52152
5.44261
4.34412
3.31515
2.41988
1.69135
1.13358
0.72986
0.45251
0.270691
0.156701
0.0879417
0.0478316
0.0251593
0.0127791
0.00623906
0.00290387
0.00121162
0.000295822
6.52075
5.41923
4.28893
3.23173
2.32005
1.58917
1.04065
0.653023
0.393889
0.228991
0.128839
0.0703921
0.0374299
0.0194077
0.00985389
0.00490098
0.00236644
0.00103363
0.000265162
6.51534
5.3872
4.22687
3.14702
2.22568
1.49821
0.962351
0.591663
0.349516
0.199089
0.109931
0.0591276
0.0311124
0.0160908
0.00823419
0.00417019
0.00206061
0.000918277
0.000238349
6.5008
5.33983
4.15224
3.05737
2.13482
1.41719
0.897224
0.543737
0.316849
0.178268
0.0974299
0.0520169
0.0272677
0.0141096
0.00725295
0.00369528
0.00183121
0.000812434
0.000207049
6.47707
5.27905
4.06868
2.96687
2.05065
1.34755
0.844857
0.507426
0.293357
0.163924
0.0890848
0.0473418
0.0247203
0.0127438
0.00652009
0.00329553
0.00161104
0.000699275
0.000170645
6.45903
5.24603
4.03558
2.94244
2.03757
1.34424
0.847825
0.513187
0.299431
0.169014
0.0928012
0.0498044
0.0262348
0.0136222
0.00700947
0.00356692
0.0017728
0.000807685
0.000229818
6.45287
5.25244
4.06681
2.99821
2.10908
1.41979
0.917474
0.570937
0.343395
0.200166
0.113609
0.063046
0.0343309
0.0184189
0.00979245
0.00516167
0.00268135
0.0013058
0.000420327
6.45055
5.26851
4.11083
3.06749
2.19312
1.50602
0.99568
0.635271
0.392267
0.234884
0.136946
0.078039
0.0436121
0.0240005
0.0130852
0.00707663
0.00377567
0.00188731
0.000617449
6.45245
5.29253
4.16353
3.14443
2.28313
1.59664
1.07716
0.702204
0.443323
0.271469
0.161849
0.0942949
0.0538708
0.0303107
0.0169044
0.00936026
0.00511594
0.00261456
0.000868712
6.4563
5.31922
4.21802
3.22142
2.37162
1.68499
1.1565
0.767663
0.493711
0.308058
0.187183
0.111179
0.0647901
0.0372231
0.0212307
0.0120488
0.00676154
0.00354595
0.0012045
6.45815
5.34334
4.2683
3.29203
2.45234
1.76551
1.22909
0.828072
0.540823
0.342866
0.211803
0.128015
0.0760195
0.0446004
0.0260586
0.0152107
0.00881301
0.00477724
0.00167495
6.46276
5.37047
4.31821
3.3583
2.52595
1.83796
1.29422
0.88254
0.583793
0.375172
0.235198
0.144503
0.0874458
0.0524762
0.031526
0.0190473
0.0114931
0.00650364
0.00238006
6.47195
5.40019
4.3658
3.41771
2.58996
1.90014
1.35005
0.92961
0.621532
0.404241
0.256949
0.160503
0.0991527
0.0611063
0.038009
0.0240024
0.0152533
0.00910463
0.00350881
6.47812
5.42056
4.39875
3.45915
2.63514
1.94482
1.39119
0.965476
0.651529
0.428577
0.276337
0.175865
0.111405
0.0710439
0.0462478
0.0309094
0.0209168
0.0132563
0.00538962
6.47973
5.42946
4.41468
3.48042
2.65969
1.97073
1.4169
0.989841
0.673874
0.448612
0.294094
0.19159
0.125429
0.0836904
0.0577601
0.0413148
0.0299271
0.0200983
0.00855518
6.47935
5.4293
4.41551
3.48335
2.66564
1.98008
1.42946
1.00501
0.690868
0.466653
0.312572
0.210107
0.143749
0.101656
0.0751951
0.0577979
0.0446054
0.0314006
0.0137988
6.47498
5.41594
4.39759
3.4659
2.65266
1.97396
1.43101
1.01381
0.705775
0.486244
0.335514
0.23532
0.170397
0.12905
0.102641
0.0842482
0.0683573
0.0496763
0.0221982
6.46036
5.38309
4.35711
3.42695
2.62197
1.9554
1.4258
1.02126
0.724052
0.513098
0.368796
0.273222
0.211437
0.171922
0.145985
0.126123
0.105816
0.0782211
0.0351005
6.44109
5.34057
4.30564
3.37907
2.58655
1.93722
1.42612
1.03893
0.756571
0.557475
0.422209
0.333264
0.276033
0.239096
0.213526
0.190856
0.163061
0.121178
0.0541143
6.42134
5.29457
4.25235
3.33432
2.56041
1.93434
1.44706
1.08162
0.817636
0.633166
0.50907
0.428321
0.376573
0.342303
0.316031
0.287793
0.24745
0.183359
0.0810211
6.39172
5.23873
4.198
3.29951
2.5545
1.96027
1.50354
1.16497
0.923208
0.756156
0.645199
0.573873
0.527951
0.495505
0.466076
0.427568
0.367115
0.269929
0.117727
6.36047
5.19434
4.1708
3.30534
2.59949
2.04445
1.62339
1.31518
1.09798
0.949809
0.85274
0.790852
0.749723
0.716557
0.679363
0.623217
0.531927
0.387239
0.166769
6.34453
5.1936
4.20883
3.39109
2.73377
2.22354
1.84132
1.56502
1.37293
1.24343
1.15935
1.10518
1.06584
1.02708
0.974764
0.890445
0.754089
0.543672
0.23205
6.35563
5.26075
4.34188
3.58879
2.9901
2.53031
2.18972
1.94626
1.77899
1.66692
1.59369
1.54401
1.50166
1.45031
1.37313
1.24752
1.04906
0.751305
0.320523
6.40946
5.42165
4.59917
3.92897
3.39959
2.99603
2.69972
2.48964
2.34632
2.24966
2.18417
2.1347
2.0834
2.01143
1.89878
1.71808
1.43966
1.03086
0.446672
6.51291
5.68609
4.99238
4.42544
3.97814
3.63842
3.39039
3.21515
3.0955
3.01268
2.95229
2.8994
2.83445
2.73588
2.58033
2.33494
1.963
1.42114
0.643039
6.65649
6.03858
5.50644
5.06625
4.71759
4.45281
4.26002
4.12357
4.02949
3.96119
3.90601
3.84985
3.77203
3.64896
3.45422
3.14871
2.68528
2.00067
0.987741
6.81534
6.43923
6.09965
5.81279
5.58372
5.40936
5.28257
5.19228
5.12905
5.07996
5.03546
4.98388
4.90578
4.77802
4.57306
4.24578
3.73388
2.93848
1.67821
6.95664
6.83395
6.71338
6.60816
6.52321
6.45841
6.41155
6.37789
6.354
6.33356
6.31248
6.28481
6.2385
6.15812
6.02157
5.78427
5.36802
4.61993
3.23419
)
;

boundaryField
{
    up
    {
        type            fixedValue;
        value           uniform 0;
    }
    low
    {
        type            fixedValue;
        value           uniform 7;
    }
    left
    {
        type            fixedValue;
        value           uniform 7;
    }
    right
    {
        type            fixedValue;
        value           uniform 7;
    }
    frontAndBackPlanes
    {
        type            empty;
    }
}


// ************************************************************************* //
