/*--------------------------------*- C++ -*----------------------------------*\
  =========                 |
  \\      /  F ield         | OpenFOAM: The Open Source CFD Toolbox
   \\    /   O peration     | Website:  https://openfoam.org
    \\  /    A nd           | Version:  7
     \\/     M anipulation  |
\*---------------------------------------------------------------------------*/
FoamFile
{
    version     2.0;
    format      ascii;
    class       volScalarField;
    location    "0.23";
    object      gradTx;
}
// * * * * * * * * * * * * * * * * * * * * * * * * * * * * * * * * * * * * * //

dimensions      [0 -1 0 1 0 0 0];

internalField   nonuniform List<scalar> 
1596
(
-0.133485
-0.669882
-1.19975
-1.67776
-2.10082
-2.46779
-2.79562
-3.09521
-3.38159
-3.68351
-4.00923
-4.39342
-4.87679
-5.51831
-6.38752
-7.65911
-9.60264
-12.8004
-18.4566
0.0293581
-0.557547
-1.07918
-1.53011
-1.92103
-2.25421
-2.54501
-2.79889
-3.02713
-3.24478
-3.4538
-3.67303
-3.90956
-4.17375
-4.45893
-4.75229
-4.97811
-4.98179
-4.43513
0.162891
-0.455413
-0.960232
-1.37929
-1.7338
-2.03051
-2.28269
-2.49393
-2.6718
-2.82445
-2.95101
-3.06153
-3.15393
-3.22689
-3.26778
-3.25429
-3.12597
-2.77674
-1.99828
0.184422
-0.400906
-0.862436
-1.23814
-1.55095
-1.80953
-2.02426
-2.198
-2.33554
-2.44109
-2.51336
-2.55729
-2.56916
-2.54509
-2.475
-2.34106
-2.10462
-1.70225
-1.01003
0.0554052
-0.418314
-0.80329
-1.12106
-1.38609
-1.60495
-1.78403
-1.92538
-2.03161
-2.10432
-2.1428
-2.1488
-2.11917
-2.05011
-1.93517
-1.76193
-1.50786
-1.13692
-0.578086
-0.213209
-0.516828
-0.796026
-1.0414
-1.25213
-1.42905
-1.57347
-1.686
-1.76726
-1.81689
-1.83477
-1.82049
-1.77176
-1.68532
-1.55744
-1.37959
-1.13931
-0.816481
-0.371077
-0.570688
-0.688516
-0.846097
-1.00827
-1.15875
-1.29076
-1.40019
-1.48541
-1.54507
-1.57718
-1.58176
-1.55692
-1.5009
-1.41084
-1.28465
-1.11619
-0.898844
-0.621393
-0.261405
-0.94537
-0.901285
-0.940402
-1.01697
-1.1047
-1.19003
-1.26404
-1.32247
-1.36205
-1.37938
-1.37419
-1.34353
-1.28584
-1.19842
-1.07999
-0.925852
-0.732594
-0.493882
-0.197191
-1.33338
-1.17437
-1.10801
-1.09832
-1.11839
-1.15125
-1.18478
-1.21231
-1.22881
-1.22959
-1.21368
-1.17735
-1.11881
-1.03529
-0.925704
-0.786071
-0.614497
-0.407184
-0.156914
-1.56664
-1.36521
-1.23639
-1.16474
-1.13117
-1.12002
-1.11866
-1.11908
-1.11519
-1.10154
-1.07641
-1.03569
-0.977321
-0.898511
-0.798154
-0.672805
-0.521309
-0.341303
-0.128533
-1.75699
-1.53748
-1.371
-1.2534
-1.17454
-1.12284
-1.08738
-1.06015
-1.03471
-1.00528
-0.969531
-0.92311
-0.863683
-0.788336
-0.695759
-0.582761
-0.448392
-0.290976
-0.107872
-1.95114
-1.72978
-1.53975
-1.38602
-1.26645
-1.17473
-1.10316
-1.04498
-0.994263
-0.945319
-0.895409
-0.840101
-0.776718
-0.702153
-0.614755
-0.51136
-0.390878
-0.25182
-0.0922587
-2.00467
-1.81277
-1.62712
-1.46187
-1.32179
-1.2057
-1.10956
-1.02867
-0.958343
-0.893613
-0.83182
-0.768792
-0.701777
-0.627678
-0.544652
-0.449633
-0.341384
-0.218481
-0.0793286
-2.01844
-1.85876
-1.68841
-1.52345
-1.37309
-1.24057
-1.12542
-1.02544
-0.93759
-0.858031
-0.784529
-0.713369
-0.641884
-0.567061
-0.48692
-0.398462
-0.300263
-0.190852
-0.0687551
-2.01566
-1.8852
-1.73377
-1.57581
-1.42216
-1.2792
-1.14953
-1.0335
-0.929956
-0.836427
-0.751394
-0.671751
-0.595044
-0.518413
-0.439796
-0.356244
-0.266136
-0.16789
-0.0600088
-1.96722
-1.86821
-1.73983
-1.59576
-1.44699
-1.30162
-1.16449
-1.03815
-0.923332
-0.819007
-0.724598
-0.637755
-0.556397
-0.477924
-0.400299
-0.320672
-0.237289
-0.148467
-0.0526361
-1.87117
-1.80211
-1.69911
-1.57406
-1.43721
-1.29719
-1.16012
-1.03018
-0.909685
-0.799022
-0.698616
-0.606967
-0.522491
-0.442951
-0.366446
-0.290289
-0.212686
-0.131926
-0.0463866
-1.75784
-1.70797
-1.62734
-1.5222
-1.40057
-1.27054
-1.13869
-1.0102
-0.888607
-0.775488
-0.67221
-0.578118
-0.492168
-0.412531
-0.337486
-0.26454
-0.191928
-0.117988
-0.0411287
-1.66276
-1.62833
-1.56482
-1.47577
-1.36707
-1.24595
-1.11913
-0.99245
-0.870426
-0.755633
-0.650259
-0.554389
-0.467449
-0.387937
-0.314249
-0.243988
-0.175378
-0.106826
-0.0368689
-1.49601
-1.48204
-1.43849
-1.36951
-1.27955
-1.17459
-1.06076
-0.943922
-0.829024
-0.719307
-0.617583
-0.524619
-0.440329
-0.363614
-0.293052
-0.22636
-0.161749
-0.0977675
-0.0333573
-1.31091
-1.31308
-1.28755
-1.23761
-1.16668
-1.07954
-0.981495
-0.878039
-0.774162
-0.673424
-0.57899
-0.492123
-0.413144
-0.341326
-0.275424
-0.213186
-0.152594
-0.0920538
-0.0310096
-1.11744
-1.12998
-1.11935
-1.08674
-1.03429
-0.965567
-0.884985
-0.797431
-0.707649
-0.619216
-0.535355
-0.457605
-0.386551
-0.321807
-0.262357
-0.205978
-0.150145
-0.092285
-0.0311912
-0.902501
-0.920105
-0.921548
-0.905432
-0.872173
-0.823884
-0.763873
-0.696121
-0.624834
-0.553288
-0.484413
-0.419789
-0.360067
-0.305198
-0.254577
-0.206344
-0.157616
-0.104099
-0.0403093
-0.659595
-0.650003
-0.628217
-0.594606
-0.551551
-0.502342
-0.450783
-0.40021
-0.35341
-0.311875
-0.275936
-0.244974
-0.217685
-0.192751
-0.168995
-0.145016
-0.118627
-0.0856023
-0.0383094
-0.440899
-0.489852
-0.54272
-0.590512
-0.626963
-0.648087
-0.652841
-0.642126
-0.618705
-0.585867
-0.546482
-0.503311
-0.45798
-0.412446
-0.36843
-0.327254
-0.2884
-0.249158
-0.202299
-0.149051
-0.171708
-0.201234
-0.23252
-0.261774
-0.286303
-0.30513
-0.318099
-0.326197
-0.330505
-0.331093
-0.328209
-0.320674
-0.308292
-0.29165
-0.273133
-0.254468
-0.237678
-0.222892
0.143331
0.114964
0.0745919
0.0270202
-0.0232408
-0.0725207
-0.118577
-0.160244
-0.197553
-0.230929
-0.259846
-0.28368
-0.300182
-0.30781
-0.306168
-0.297808
-0.285547
-0.272924
-0.261305
0.435059
0.396277
0.34125
0.275428
0.203929
0.131106
0.0600025
-0.00766705
-0.0714597
-0.131575
-0.187412
-0.237852
-0.279722
-0.309734
-0.325568
-0.328862
-0.323044
-0.313333
-0.302627
0.698693
0.6436
0.570574
0.486052
0.395383
0.303083
0.212304
0.124681
0.0405326
-0.0406626
-0.118786
-0.192903
-0.259448
-0.313416
-0.349619
-0.367213
-0.368913
-0.361582
-0.35048
0.971955
0.896862
0.803631
0.698996
0.58852
0.476889
0.367252
0.261058
0.15836
0.0581193
-0.0403569
-0.137068
-0.229052
-0.310441
-0.372906
-0.41136
-0.425185
-0.421625
-0.409229
1.17825
1.08021
0.967017
0.845282
0.720473
0.596787
0.476677
0.360841
0.248687
0.138406
0.0282732
-0.0832562
-0.195048
-0.302199
-0.394477
-0.461721
-0.496056
-0.500745
-0.486048
1.3716
1.25391
1.12136
0.983108
0.844942
0.710534
0.581638
0.458284
0.339406
0.222662
0.105552
-0.0150987
-0.140909
-0.270381
-0.394854
-0.501741
-0.57361
-0.602287
-0.592958
1.55092
1.40764
1.25438
1.10045
0.950938
0.808457
0.673835
0.546401
0.424764
0.306376
0.188541
0.0672108
-0.0616668
-0.201383
-0.349184
-0.497624
-0.625185
-0.708472
-0.724124
1.66787
1.48586
1.30123
1.12211
0.952159
0.792639
0.643378
0.503147
0.37035
0.242546
0.117183
-0.00966007
-0.142918
-0.289322
-0.45378
-0.64111
-0.842629
-1.03981
-1.19736
1.7414
1.54254
1.35533
1.18474
1.03085
0.892214
0.766629
0.651823
0.545733
0.446369
0.352252
0.2616
0.17237
0.081298
-0.0163537
-0.130302
-0.270353
-0.44784
-0.667578
1.79681
1.59133
1.41035
1.25164
1.11136
0.98617
0.872904
0.769122
0.672957
0.582838
0.497962
0.417777
0.341945
0.270533
0.204072
0.142223
0.084093
0.0259104
-0.0396944
1.70342
1.46888
1.27079
1.10125
0.954077
0.824838
0.709815
0.606223
0.511959
0.425211
0.344984
0.270571
0.201467
0.137686
0.0799357
0.0290111
-0.0136531
-0.0464197
-0.068513
1.49767
1.28378
1.10613
0.956124
0.827477
0.715636
0.616969
0.528762
0.44905
0.376207
0.309334
0.247812
0.191135
0.139129
0.0919618
0.0496346
0.0122738
-0.0199161
-0.0471272
1.24611
1.06623
0.9166
0.790719
0.683381
0.590611
0.50925
0.436907
0.371871
0.312731
0.258666
0.209086
0.163442
0.121426
0.082982
0.0479309
0.016238
-0.0119396
-0.0367183
0.939373
0.80048
0.686148
0.590885
0.510322
0.441145
0.380803
0.327374
0.279509
0.236097
0.196475
0.160157
0.126674
0.0957415
0.0672803
0.0411428
0.0173216
-0.00400325
-0.0228613
0.592115
0.499464
0.425535
0.36512
0.314646
0.271638
0.234318
0.201389
0.171962
0.145311
0.120995
0.0986908
0.0780774
0.0589546
0.0412555
0.0248809
0.00983089
-0.00375016
-0.0158397
0.227473
0.19015
0.16142
0.138256
0.118968
0.102523
0.0882337
0.0756162
0.0643416
0.054142
0.0448462
0.0363236
0.0284424
0.0211109
0.0142826
0.00790066
0.00194376
-0.00355075
-0.00857726
-0.227364
-0.189909
-0.16109
-0.137868
-0.118546
-0.102084
-0.0877911
-0.0751818
-0.0639248
-0.0537509
-0.0444879
-0.036004
-0.0281666
-0.0208834
-0.014107
-0.00777973
-0.00187923
0.0035587
0.00852956
-0.592013
-0.499251
-0.425247
-0.364783
-0.314281
-0.271261
-0.233942
-0.201025
-0.171618
-0.144995
-0.120714
-0.0984494
-0.0778808
-0.0588069
-0.0411597
-0.0248393
-0.0098447
0.00368149
0.0157181
-0.939272
-0.800276
-0.685868
-0.590552
-0.509954
-0.440759
-0.38041
-0.326986
-0.279135
-0.235745
-0.19615
-0.159866
-0.12642
-0.095527
-0.0671067
-0.04101
-0.0172284
0.00405958
0.0228842
-1.24603
-1.06609
-0.91641
-0.790493
-0.683133
-0.590352
-0.508992
-0.436658
-0.371639
-0.312523
-0.258487
-0.208941
-0.163334
-0.121357
-0.0829515
-0.0479377
-0.0162798
0.0118665
0.0366178
-1.49762
-1.2837
-1.106
-0.955969
-0.827301
-0.715449
-0.616779
-0.528579
-0.44888
-0.376059
-0.309212
-0.247722
-0.191079
-0.13911
-0.0919776
-0.0496817
-0.0123456
0.019829
0.0470364
-1.70342
-1.46886
-1.27075
-1.10118
-0.953987
-0.824739
-0.709717
-0.606135
-0.51189
-0.425169
-0.344977
-0.270606
-0.201549
-0.13782
-0.080122
-0.0292417
0.0134001
0.0461811
0.0683319
-1.79681
-1.59119
-1.41001
-1.2511
-1.11061
-0.985212
-0.871766
-0.767828
-0.671529
-0.581298
-0.496327
-0.416062
-0.340157
-0.26868
-0.202168
-0.140318
-0.0823026
-0.0244843
0.0403461
-1.74172
-1.54338
-1.35672
-1.18666
-1.03328
-0.895104
-0.769944
-0.655521
-0.549777
-0.450734
-0.356928
-0.266601
-0.177746
-0.0871532
0.00985498
0.12292
0.261858
0.43814
0.656927
-1.66775
-1.48551
-1.30062
-1.12125
-0.95104
-0.791291
-0.64183
-0.501432
-0.368502
-0.2406
-0.115173
0.0116988
0.144948
0.291315
0.455749
0.643162
0.845054
1.0431
1.20219
-1.55103
-1.4079
-1.25477
-1.10094
-0.951505
-0.809084
-0.674505
-0.547103
-0.425491
-0.307126
-0.189318
-0.0680208
0.0608263
0.200542
0.348426
0.497105
0.625093
0.708919
0.724954
-1.37166
-1.25407
-1.12161
-0.983416
-0.845298
-0.710926
-0.582056
-0.458723
-0.339861
-0.223133
-0.106036
0.0146095
0.14044
0.26999
0.39463
0.501784
0.573972
0.602914
0.59372
-1.17832
-1.08037
-0.967265
-0.845597
-0.720841
-0.597192
-0.477106
-0.361284
-0.249135
-0.138852
-0.0287059
0.0828563
0.194717
0.301991
0.39445
0.461912
0.496443
0.501252
0.486589
-0.972022
-0.897024
-0.80388
-0.699319
-0.5889
-0.477307
-0.367692
-0.261505
-0.158801
-0.0585406
0.0399721
0.136743
0.228822
0.310344
0.372967
0.411577
0.425518
0.42202
0.409647
-0.698751
-0.64375
-0.57081
-0.48636
-0.395746
-0.303482
-0.212719
-0.125096
-0.04093
0.0402987
0.118474
0.192665
0.259309
0.313397
0.349725
0.367426
0.369198
0.361906
0.350825
-0.435123
-0.396434
-0.341496
-0.275749
-0.204306
-0.131515
-0.0604226
0.00725733
0.0710795
0.131242
0.187144
0.237667
0.279635
0.309753
0.325686
0.329058
0.323293
0.313614
0.302932
-0.143385
-0.115113
-0.0748299
-0.0273325
0.022876
0.0721277
0.118181
0.159868
0.197217
0.23065
0.259638
0.283556
0.300147
0.307864
0.306298
0.297997
0.285778
0.273188
0.261599
0.148924
0.171325
0.200582
0.231619
0.260669
0.285056
0.303813
0.316779
0.324937
0.329354
0.330085
0.327366
0.320002
0.307783
0.291283
0.272889
0.254335
0.23767
0.223071
0.440987
0.49019
0.543368
0.591491
0.628258
0.649651
0.654605
0.64401
0.620633
0.58777
0.548307
0.505021
0.459554
0.41388
0.369732
0.328441
0.289492
0.250173
0.203236
0.6595
0.649664
0.627627
0.593791
0.550559
0.501234
0.449624
0.39906
0.352317
0.310876
0.275052
0.244215
0.217051
0.192234
0.168584
0.144699
0.118393
0.0854476
0.0382435
0.902555
0.920215
0.921714
0.905644
0.872415
0.824138
0.76412
0.696346
0.625027
0.553445
0.484531
0.419873
0.360122
0.305231
0.254593
0.206348
0.157611
0.104091
0.0403053
1.11745
1.12999
1.11937
1.08676
1.03431
0.965588
0.885003
0.797444
0.707655
0.619216
0.535349
0.457595
0.386538
0.321794
0.262344
0.205965
0.150135
0.092278
0.0311897
1.31092
1.31309
1.28756
1.23762
1.1667
1.07955
0.981506
0.878046
0.774163
0.673421
0.578982
0.492113
0.413133
0.341314
0.275413
0.213176
0.152587
0.0920499
0.0310087
1.49601
1.48205
1.43851
1.36952
1.27956
1.1746
1.06077
0.943924
0.829022
0.719302
0.617575
0.524609
0.440319
0.363604
0.293044
0.226353
0.161745
0.0977648
0.0333566
1.66277
1.62834
1.56483
1.47578
1.36708
1.24596
1.11913
0.992451
0.870423
0.755628
0.650251
0.554381
0.46744
0.387929
0.314242
0.243982
0.175374
0.106823
0.0368683
1.75785
1.70798
1.62735
1.52221
1.40058
1.27054
1.13869
1.0102
0.888603
0.775482
0.672203
0.57811
0.49216
0.412523
0.33748
0.264535
0.191925
0.117986
0.0411281
1.87117
1.80211
1.69912
1.57407
1.43722
1.29719
1.16012
1.03017
0.909679
0.799016
0.698609
0.60696
0.522483
0.442944
0.36644
0.290284
0.212683
0.131924
0.0463861
1.96723
1.86821
1.73984
1.59576
1.447
1.30162
1.16449
1.03815
0.923327
0.819001
0.724591
0.637748
0.55639
0.477917
0.400294
0.320668
0.237285
0.148465
0.0526356
2.01566
1.8852
1.73377
1.57582
1.42216
1.2792
1.14953
1.03349
0.92995
0.83642
0.751387
0.671744
0.595037
0.518406
0.43979
0.356239
0.266133
0.167888
0.0600085
2.01844
1.85877
1.68842
1.52346
1.37309
1.24056
1.12542
1.02543
0.937584
0.858024
0.784522
0.713362
0.641877
0.567054
0.486914
0.398458
0.30026
0.190851
0.0687551
2.00467
1.81278
1.62713
1.46187
1.3218
1.2057
1.10956
1.02867
0.958339
0.893608
0.831815
0.768786
0.701771
0.627672
0.544648
0.449629
0.341382
0.218481
0.0793291
1.95114
1.72978
1.53975
1.38601
1.26644
1.17472
1.10316
1.04498
0.994255
0.945311
0.895401
0.840093
0.776711
0.702147
0.61475
0.511356
0.390876
0.25182
0.0922593
1.757
1.53749
1.371
1.2534
1.17454
1.12284
1.08738
1.06014
1.03471
1.00528
0.969525
0.923105
0.863678
0.788333
0.695757
0.582761
0.448393
0.290978
0.107873
1.56666
1.36522
1.2364
1.16474
1.13117
1.12002
1.11865
1.11908
1.11519
1.10153
1.07641
1.03568
0.977318
0.89851
0.798155
0.672807
0.521311
0.341306
0.128534
1.33339
1.17438
1.10802
1.09832
1.11839
1.15125
1.18478
1.21231
1.2288
1.22958
1.21368
1.17735
1.11881
1.0353
0.925707
0.786076
0.614502
0.407187
0.156915
0.94538
0.90129
0.940404
1.01697
1.10469
1.19003
1.26403
1.32247
1.36205
1.37938
1.37419
1.34353
1.28584
1.19842
1.07999
0.925858
0.732599
0.493885
0.197191
0.570697
0.688521
0.846101
1.00828
1.15875
1.29076
1.40019
1.48541
1.54507
1.57718
1.58176
1.55692
1.50091
1.41085
1.28466
1.11619
0.898849
0.621395
0.261405
0.213215
0.516833
0.79603
1.0414
1.25214
1.42905
1.57347
1.686
1.76726
1.81689
1.83477
1.82049
1.77176
1.68533
1.55745
1.37959
1.13931
0.816482
0.371076
-0.0554018
0.418318
0.803294
1.12106
1.38609
1.60495
1.78403
1.92538
2.03161
2.10432
2.1428
2.1488
2.11917
2.05012
1.93517
1.76193
1.50786
1.13692
0.578084
-0.184422
0.400909
0.862439
1.23814
1.55095
1.80953
2.02426
2.198
2.33554
2.44109
2.51336
2.55729
2.56916
2.54509
2.475
2.34106
2.10461
1.70225
1.01002
-0.162892
0.455414
0.960232
1.37929
1.7338
2.03051
2.28269
2.49393
2.6718
2.82445
2.95101
3.06153
3.15393
3.22689
3.26778
3.25429
3.12596
2.77674
1.99828
-0.0293583
0.557547
1.07918
1.53011
1.92103
2.25421
2.54501
2.79889
3.02713
3.24478
3.45381
3.67304
3.90956
4.17375
4.45892
4.75228
4.9781
4.98178
4.43513
0.133486
0.669883
1.19975
1.67776
2.10082
2.46779
2.79562
3.09521
3.38159
3.68351
4.00923
4.39342
4.87678
5.51831
6.38751
7.6591
9.60263
12.8004
18.4566
)
;

boundaryField
{
    up
    {
        type            calculated;
        value           nonuniform List<scalar> 
84
(
-18.4566
-4.43513
-1.99828
-1.01003
-0.578086
-0.371077
-0.261405
-0.197191
-0.156914
-0.128533
-0.107872
-0.0922587
-0.0793286
-0.0687551
-0.0600088
-0.0526361
-0.0463866
-0.0411287
-0.0368689
-0.0333573
-0.0310096
-0.0311912
-0.0403093
-0.0383094
-0.172967
-0.208359
-0.246739
-0.286611
-0.332085
-0.387297
-0.457939
-0.550033
-0.657484
-1.18485
-0.69041
-0.0409989
-0.0684052
-0.0470282
-0.0366613
-0.022842
-0.0158339
-0.00857933
0.00853162
0.0157125
0.0228651
0.0365613
0.0469379
0.0682242
0.0416328
0.679465
1.19057
0.658225
0.550696
0.458441
0.387696
0.33242
0.286912
0.247035
0.208624
0.173818
0.0382435
0.0403053
0.0311897
0.0310087
0.0333566
0.0368683
0.0411281
0.0463861
0.0526356
0.0600085
0.0687551
0.0793291
0.0922593
0.107873
0.128534
0.156915
0.197191
0.261405
0.371076
0.578084
1.01002
1.99828
4.43513
18.4566
)
;
    }
    low
    {
        type            calculated;
        value           nonuniform List<scalar> 
84
(
-0.120326
0.0492128
0.195047
0.219485
0.0775167
-0.217312
-0.604567
-1.00243
-1.39946
-1.62088
-1.80434
-1.98871
-2.01968
-2.01942
-2.00769
-1.94648
-1.83962
-1.72351
-1.62184
-1.44308
-1.25241
-1.05821
-0.845077
-0.609534
-0.402002
-0.135053
0.127388
0.395331
0.647489
0.920347
1.13544
1.3363
1.52678
1.65851
1.74394
1.81352
1.73527
1.53241
1.27747
0.964554
0.608894
0.234517
-0.234407
-0.608789
-0.964446
-1.27738
-1.53235
-1.73525
-1.8135
-1.74421
-1.65838
-1.52687
-1.33636
-1.13551
-0.920413
-0.647549
-0.395397
-0.127444
0.134929
0.402089
0.609445
0.845124
1.05823
1.25242
1.44308
1.62185
1.72352
1.83962
1.94648
2.00769
2.01942
2.01969
1.98871
1.80435
1.62089
1.39947
1.00244
0.604577
0.217319
-0.0775134
-0.219485
-0.19505
-0.0492146
0.120326
)
;
    }
    left
    {
        type            calculated;
        value           nonuniform List<scalar> 
19
(
-0.118445
-0.643005
-1.18356
-1.67801
-2.11921
-2.50325
-2.84841
-3.16745
-3.47533
-3.80814
-4.17388
-4.61158
-5.17449
-5.94171
-7.0007
-8.59731
-11.1057
-15.3392
-16.008
)
;
    }
    right
    {
        type            calculated;
        value           nonuniform List<scalar> 
19
(
0.118446
0.643007
1.18356
1.67801
2.11921
2.50325
2.84841
3.16745
3.47533
3.80814
4.17388
4.61158
5.17448
5.9417
7.00069
8.59731
11.1057
15.3392
16.008
)
;
    }
    frontAndBackPlanes
    {
        type            empty;
    }
}


// ************************************************************************* //
