/*--------------------------------*- C++ -*----------------------------------*\
  =========                 |
  \\      /  F ield         | OpenFOAM: The Open Source CFD Toolbox
   \\    /   O peration     | Website:  https://openfoam.org
    \\  /    A nd           | Version:  7
     \\/     M anipulation  |
\*---------------------------------------------------------------------------*/
FoamFile
{
    version     2.0;
    format      ascii;
    class       volScalarField;
    location    "0.23";
    object      gradTy;
}
// * * * * * * * * * * * * * * * * * * * * * * * * * * * * * * * * * * * * * //

dimensions      [0 -1 0 1 0 0 0];

internalField   nonuniform List<scalar> 
1596
(
-0.277675
-0.515632
-0.710408
-0.89725
-1.07622
-1.2707
-1.47075
-1.70308
-1.97823
-2.30388
-2.75157
-3.3213
-4.11137
-5.23771
-6.98932
-9.72154
-14.6024
-23.6051
-55.7625
-0.845599
-1.04223
-1.17536
-1.2979
-1.4162
-1.55642
-1.71051
-1.90313
-2.14443
-2.43647
-2.83902
-3.34561
-4.022
-4.92078
-6.19016
-7.90491
-10.4547
-14.2025
-24.8392
-1.51275
-1.57795
-1.61567
-1.66083
-1.71271
-1.79384
-1.89502
-2.03782
-2.22978
-2.46911
-2.80492
-3.22443
-3.77305
-4.47486
-5.41964
-6.61852
-8.28315
-10.5658
-15.4635
-2.21141
-2.09932
-2.02382
-1.98426
-1.96662
-1.98577
-2.03028
-2.1177
-2.25284
-2.43141
-2.69349
-3.023
-3.45196
-3.9899
-4.69366
-5.54978
-6.68255
-8.15405
-10.6745
-2.85509
-2.57684
-2.3916
-2.26882
-2.18294
-2.14039
-2.12792
-2.15869
-2.23537
-2.35236
-2.54224
-2.78835
-3.11383
-3.52112
-4.04795
-4.67289
-5.47392
-6.47254
-7.9289
-3.36587
-2.98196
-2.71126
-2.5164
-2.36863
-2.26819
-2.20145
-2.17763
-2.19797
-2.25654
-2.37968
-2.55192
-2.79033
-3.09411
-3.48931
-3.95358
-4.5383
-5.2465
-6.17719
-3.70172
-3.2923
-2.97471
-2.72752
-2.52924
-2.37813
-2.26241
-2.18837
-2.15668
-2.16184
-2.22499
-2.33284
-2.49815
-2.71886
-3.01347
-3.36148
-3.79789
-4.31764
-4.95935
-3.86259
-3.49421
-3.17185
-2.89778
-2.66467
-2.47336
-2.31627
-2.19823
-2.12024
-2.07785
-2.08801
-2.14002
-2.24356
-2.39627
-2.6116
-2.87179
-3.20123
-3.59175
-4.05791
-3.88143
-3.60309
-3.312
-3.03576
-2.784
-2.56357
-2.37292
-2.21715
-2.09842
-2.01386
-1.97724
-1.98052
-2.03114
-2.12693
-2.27782
-2.46884
-2.71711
-3.01365
-3.36276
-3.78609
-3.60459
-3.36854
-3.11399
-2.86251
-2.62778
-2.41479
-2.23046
-2.07883
-1.95903
-1.88273
-1.8444
-1.85004
-1.89796
-1.9957
-2.13093
-2.31591
-2.54199
-2.80894
-3.66595
-3.55324
-3.37248
-3.15054
-2.91185
-2.67426
-2.44831
-2.24335
-2.06575
-1.91688
-1.8072
-1.73356
-1.70103
-1.70851
-1.76191
-1.85118
-1.98511
-2.15583
-2.36107
-3.51639
-3.47428
-3.34711
-3.16146
-2.94229
-2.70942
-2.4774
-2.25799
-2.05994
-1.88696
-1.74904
-1.64516
-1.57993
-1.5529
-1.56882
-1.61957
-1.71148
-1.83758
-1.99479
-3.33029
-3.35123
-3.27643
-3.13007
-2.93626
-2.71566
-2.48517
-2.25867
-2.04701
-1.85608
-1.69601
-1.56763
-1.47551
-1.41987
-1.40477
-1.42373
-1.48143
-1.57185
-1.69163
-3.16479
-3.22166
-3.18798
-3.07724
-2.90926
-2.70394
-2.47911
-2.25016
-2.02968
-1.82546
-1.64808
-1.49997
-1.3859
-1.30672
-1.26607
-1.25882
-1.28849
-1.34992
-1.43983
-3.01139
-3.09664
-3.09444
-3.0135
-2.86915
-2.67948
-2.46222
-2.23368
-2.00774
-1.79377
-1.60296
-1.43912
-1.30729
-1.20894
-1.14743
-1.11875
-1.12559
-1.16358
-1.22963
-2.86074
-2.97323
-2.99758
-2.94171
-2.81819
-2.6434
-2.43446
-2.20816
-1.97929
-1.75849
-1.55759
-1.38152
-1.2357
-1.12209
-1.04392
-0.998035
-0.986587
-1.00584
-1.05297
-2.72403
-2.85531
-2.90118
-2.86613
-2.76029
-2.59868
-2.3977
-2.1744
-1.94419
-1.71872
-1.51041
-1.3251
-1.16855
-1.04313
-0.951969
-0.892595
-0.86675
-0.871235
-0.903491
-2.60404
-2.74845
-2.81126
-2.79309
-2.70175
-2.55099
-2.3567
-2.13606
-1.90502
-1.67606
-1.46212
-1.26977
-1.10503
-0.970584
-0.869429
-0.799607
-0.762551
-0.7555
-0.776112
-2.4833
-2.65135
-2.73212
-2.72925
-2.65023
-2.50815
-2.31882
-2.09964
-1.86721
-1.63483
-1.41587
-1.21761
-1.04623
-0.904588
-0.795521
-0.717419
-0.671471
-0.655292
-0.666736
-2.35843
-2.55368
-2.65498
-2.66783
-2.60045
-2.46607
-2.28079
-2.06254
-1.82861
-1.59316
-1.37001
-1.16705
-0.990554
-0.843452
-0.728312
-0.64371
-0.590674
-0.567238
-0.571535
-2.25123
-2.46513
-2.58562
-2.61377
-2.55719
-2.42935
-2.24694
-2.02865
-1.79262
-1.5539
-1.32683
-1.11982
-0.939231
-0.78789
-0.667966
-0.577967
-0.518742
-0.488897
-0.487246
-2.15592
-2.38734
-2.52563
-2.56843
-2.52205
-2.39995
-2.21953
-2.00038
-1.76164
-1.51936
-1.28839
-1.07768
-0.893622
-0.738908
-0.615118
-0.520296
-0.454801
-0.417842
-0.409986
-2.06771
-2.31877
-2.47485
-2.53191
-2.49531
-2.37843
-2.19944
-1.97895
-1.73718
-1.49117
-1.25632
-1.04212
-0.855052
-0.697653
-0.570849
-0.471736
-0.39928
-0.352101
-0.333887
-1.98896
-2.25973
-2.43239
-2.50151
-2.47214
-2.3577
-2.17771
-1.95371
-1.70726
-1.45662
-1.2171
-0.999336
-0.809663
-0.650622
-0.522336
-0.421065
-0.3428
-0.282029
-0.234595
-1.92506
-2.2141
-2.40637
-2.49438
-2.48285
-2.3839
-2.21712
-2.00321
-1.76367
-1.51725
-1.27828
-1.05868
-0.864731
-0.700284
-0.565883
-0.459056
-0.374295
-0.304303
-0.238273
-1.88063
-2.18057
-2.38422
-2.48536
-2.48824
-2.40385
-2.25082
-2.04872
-1.81818
-1.57767
-1.34047
-1.11904
-0.919925
-0.748044
-0.605162
-0.491149
-0.401721
-0.332113
-0.274954
-1.87919
-2.18082
-2.38856
-2.49693
-2.50969
-2.43738
-2.29726
-2.10789
-1.88862
-1.65688
-1.42506
-1.2048
-1.00248
-0.823676
-0.671652
-0.548294
-0.451157
-0.376767
-0.318625
-1.92567
-2.21931
-2.42179
-2.52883
-2.5443
-2.47862
-2.34795
-2.16979
-1.96206
-1.74083
-1.51717
-1.3013
-1.0986
-0.914426
-0.753153
-0.61891
-0.511628
-0.429517
-0.366637
-2.01493
-2.29502
-2.48444
-2.58273
-2.59468
-2.53083
-2.40646
-2.23794
-2.04175
-1.8325
-1.61969
-1.41179
-1.21232
-1.02532
-0.855214
-0.708307
-0.58766
-0.494331
-0.423324
-2.14428
-2.40123
-2.57033
-2.65396
-2.65767
-2.59209
-2.47175
-2.31186
-2.12743
-1.93173
-1.73268
-1.53713
-1.34615
-1.1612
-0.984849
-0.824444
-0.686526
-0.577091
-0.493682
-2.31156
-2.53627
-2.68048
-2.74568
-2.73794
-2.66804
-2.54989
-2.39749
-2.22451
-2.04309
-1.85989
-1.68075
-1.50452
-1.32928
-1.15316
-0.981503
-0.822378
-0.688973
-0.585604
-2.4923
-2.68926
-2.80787
-2.85274
-2.83177
-2.75608
-2.63903
-2.49338
-2.33148
-2.16458
-1.99856
-1.83931
-1.68479
-1.5305
-1.36845
-1.19743
-1.01968
-0.852422
-0.713876
-2.69828
-2.86389
-2.95365
-2.97561
-2.93947
-2.85651
-2.73938
-2.59941
-2.44753
-2.29419
-2.14467
-2.00602
-1.87739
-1.755
-1.6271
-1.48516
-1.31531
-1.12175
-0.911781
-2.9386
-3.06645
-3.12405
-3.12166
-3.07015
-2.9806
-2.86444
-2.73141
-2.59088
-2.45214
-2.32029
-2.20325
-2.10316
-2.02121
-1.95009
-1.88383
-1.80069
-1.68867
-1.53338
-3.20532
-3.28964
-3.3071
-3.27244
-3.19755
-3.09315
-2.96888
-2.833
-2.6931
-2.55633
-2.42739
-2.31255
-2.21514
-2.13914
-2.08529
-2.05765
-2.04994
-2.05658
-2.0655
-3.50637
-3.53167
-3.50021
-3.42788
-3.32562
-3.203
-3.06762
-2.92654
-2.78587
-2.65089
-2.52625
-2.41597
-2.32287
-2.24925
-2.19676
-2.16745
-2.16273
-2.18495
-2.23673
-3.83828
-3.79139
-3.70829
-3.59912
-3.47137
-3.3322
-3.18731
-3.04233
-2.90218
-2.77089
-2.6525
-2.54964
-2.46409
-2.3965
-2.34673
-2.31276
-2.29237
-2.28185
-2.27765
-4.14268
-4.02753
-3.89611
-3.75229
-3.60021
-3.44455
-3.28937
-3.13878
-2.99653
-2.86563
-2.74903
-2.64855
-2.56505
-2.49845
-2.44802
-2.4117
-2.38735
-2.3722
-2.36351
-4.3903
-4.22574
-4.05668
-3.88498
-3.71305
-3.54383
-3.3801
-3.22474
-3.08055
-2.94971
-2.83439
-2.73588
-2.6545
-2.58988
-2.5411
-2.5062
-2.48305
-2.4691
-2.46171
-4.58808
-4.38452
-4.18578
-3.99212
-3.80455
-3.62465
-3.45416
-3.29496
-3.14913
-3.01822
-2.90384
-2.80693
-2.72749
-2.66494
-2.61824
-2.58545
-2.56438
-2.55257
-2.54741
-4.73184
-4.49892
-4.2778
-4.06798
-3.86917
-3.68173
-3.50652
-3.34469
-3.19777
-3.06687
-2.95326
-2.85765
-2.77982
-2.71905
-2.67419
-2.64327
-2.62397
-2.61379
-2.61005
-4.82456
-4.56399
-4.32691
-4.10723
-3.90215
-3.71074
-3.53315
-3.37005
-3.22266
-3.09188
-2.97878
-2.88399
-2.80716
-2.74757
-2.70402
-2.67459
-2.65694
-2.64862
-2.6469
-4.82459
-4.56403
-4.32697
-4.10729
-3.90222
-3.7108
-3.53321
-3.37011
-3.22273
-3.09195
-2.97886
-2.88406
-2.80724
-2.74765
-2.70411
-2.67468
-2.65704
-2.64872
-2.647
-4.73188
-4.49901
-4.27792
-4.06812
-3.86933
-3.6819
-3.5067
-3.34488
-3.19796
-3.06707
-2.95346
-2.85787
-2.78004
-2.71929
-2.67445
-2.64355
-2.62427
-2.61412
-2.6104
-4.58814
-4.38466
-4.18597
-3.99235
-3.8048
-3.62492
-3.45444
-3.29526
-3.14944
-3.01854
-2.90417
-2.80728
-2.72786
-2.66533
-2.61865
-2.58588
-2.56485
-2.55308
-2.54795
-4.39038
-4.22592
-4.05692
-3.88527
-3.71337
-3.54417
-3.38046
-3.22512
-3.08095
-2.95012
-2.83482
-2.73632
-2.65496
-2.59037
-2.5416
-2.50673
-2.48361
-2.46969
-2.46232
-4.14276
-4.02772
-3.89638
-3.75261
-3.60058
-3.44495
-3.28979
-3.13923
-2.997
-2.86612
-2.74954
-2.64909
-2.5656
-2.49902
-2.44861
-2.41231
-2.38798
-2.37285
-2.36418
-3.83837
-3.7916
-3.70859
-3.59948
-3.47177
-3.33264
-3.18778
-3.04284
-2.9027
-2.77144
-2.65308
-2.55024
-2.4647
-2.39712
-2.34735
-2.31337
-2.29296
-2.28241
-2.27818
-3.50647
-3.53191
-3.50057
-3.42835
-3.32618
-3.20364
-3.06834
-2.92733
-2.78674
-2.65183
-2.52728
-2.41709
-2.32407
-2.25055
-2.19814
-2.16885
-2.16404
-2.18597
-2.23716
-3.20539
-3.28968
-3.30716
-3.27252
-3.19765
-3.09327
-2.96901
-2.83314
-2.69323
-2.55642
-2.42742
-2.31249
-2.21494
-2.13876
-2.08471
-2.05692
-2.0493
-2.05651
-2.06674
-2.93863
-3.06659
-3.12429
-3.12203
-3.07068
-2.98127
-2.86526
-2.73237
-2.59197
-2.45335
-2.32161
-2.20469
-2.10475
-2.02302
-1.95227
-1.88661
-1.80435
-1.69347
-1.53947
-2.69829
-2.86392
-2.95372
-2.97577
-2.93974
-2.85688
-2.73986
-2.59999
-2.4482
-2.29494
-2.14551
-2.00695
-1.87844
-1.75623
-1.62859
-1.48696
-1.31734
-1.12375
-0.913286
-2.4923
-2.68926
-2.80792
-2.85287
-2.83201
-2.75643
-2.6395
-2.49396
-2.33215
-2.16535
-1.99942
-1.84027
-1.68588
-1.53173
-1.36983
-1.19889
-1.02109
-0.853631
-0.714828
-2.31155
-2.53625
-2.6805
-2.74577
-2.73814
-2.66835
-2.55031
-2.39803
-2.22515
-2.04382
-1.86072
-1.68166
-1.50553
-1.33037
-1.15429
-0.9826
-0.823359
-0.689793
-0.586274
-2.14428
-2.4012
-2.57032
-2.65403
-2.65783
-2.59236
-2.47214
-2.31235
-2.12802
-1.93242
-1.73345
-1.53796
-1.34704
-1.16212
-0.98575
-0.825274
-0.687247
-0.577696
-0.494197
-2.01491
-2.29497
-2.48442
-2.58276
-2.5948
-2.53106
-2.4068
-2.23839
-2.0423
-1.83313
-1.62038
-1.41253
-1.21309
-1.02608
-0.855933
-0.708952
-0.588216
-0.494806
-0.423743
-1.92566
-2.21926
-2.42175
-2.52884
-2.54439
-2.47882
-2.34826
-2.17019
-1.96255
-1.74139
-1.51778
-1.30194
-1.09925
-0.915054
-0.753731
-0.619422
-0.512072
-0.429907
-0.366997
-1.87917
-2.18077
-2.38852
-2.49693
-2.50977
-2.43754
-2.29752
-2.10824
-1.88905
-1.65737
-1.42559
-1.20535
-1.00303
-0.824193
-0.672122
-0.54871
-0.451524
-0.377103
-0.318958
-1.88061
-2.18052
-2.38416
-2.48533
-2.48826
-2.40394
-2.25099
-2.04896
-1.81847
-1.57801
-1.34084
-1.11942
-0.920288
-0.74838
-0.60546
-0.49141
-0.401954
-0.332349
-0.275254
-1.9251
-2.21413
-2.4064
-2.49443
-2.48293
-2.38402
-2.21728
-2.00341
-1.76392
-1.51753
-1.27858
-1.059
-0.865055
-0.700604
-0.56619
-0.459348
-0.374565
-0.304545
-0.238466
-1.98901
-2.25977
-2.43242
-2.50151
-2.47211
-2.35763
-2.17762
-1.95359
-1.70712
-1.45647
-1.21695
-0.999191
-0.809528
-0.650499
-0.522222
-0.420959
-0.342695
-0.281916
-0.234457
-2.06774
-2.3188
-2.47487
-2.53193
-2.49532
-2.37843
-2.19944
-1.97894
-1.73717
-1.49116
-1.25632
-1.04212
-0.855055
-0.697659
-0.570858
-0.471748
-0.399295
-0.35212
-0.333905
-2.15594
-2.38735
-2.52564
-2.56843
-2.52205
-2.39994
-2.21951
-2.00036
-1.76163
-1.51935
-1.28838
-1.07767
-0.893618
-0.738908
-0.615122
-0.520304
-0.454812
-0.417855
-0.409998
-2.25125
-2.46514
-2.58563
-2.61377
-2.55718
-2.42934
-2.24693
-2.02863
-1.7926
-1.55389
-1.32682
-1.11982
-0.93923
-0.787892
-0.667971
-0.577974
-0.518751
-0.488906
-0.487255
-2.35844
-2.55369
-2.65498
-2.66783
-2.60044
-2.46606
-2.28078
-2.06253
-1.8286
-1.59315
-1.37
-1.16704
-0.990554
-0.843454
-0.728316
-0.643716
-0.59068
-0.567245
-0.571541
-2.48331
-2.65136
-2.73212
-2.72924
-2.65022
-2.50815
-2.31881
-2.09964
-1.8672
-1.63482
-1.41586
-1.21761
-1.04623
-0.904589
-0.795524
-0.717423
-0.671476
-0.655296
-0.66674
-2.60405
-2.74845
-2.81125
-2.79308
-2.70174
-2.55098
-2.3567
-2.13605
-1.90501
-1.67606
-1.46211
-1.26977
-1.10503
-0.970585
-0.869431
-0.79961
-0.762554
-0.755502
-0.776114
-2.72403
-2.85531
-2.90118
-2.86613
-2.76029
-2.59867
-2.3977
-2.17439
-1.94418
-1.71871
-1.51041
-1.3251
-1.16855
-1.04313
-0.95197
-0.892597
-0.866751
-0.871235
-0.903491
-2.86074
-2.97323
-2.99757
-2.94171
-2.81819
-2.6434
-2.43446
-2.20816
-1.97929
-1.75848
-1.55759
-1.38152
-1.2357
-1.12209
-1.04392
-0.998034
-0.986587
-1.00584
-1.05297
-3.01139
-3.09664
-3.09443
-3.0135
-2.86915
-2.67948
-2.46222
-2.23368
-2.00774
-1.79377
-1.60296
-1.43911
-1.30729
-1.20893
-1.14743
-1.11874
-1.12559
-1.16358
-1.22962
-3.16479
-3.22165
-3.18797
-3.07724
-2.90926
-2.70394
-2.47911
-2.25016
-2.02968
-1.82546
-1.64808
-1.49997
-1.3859
-1.30672
-1.26607
-1.25881
-1.28848
-1.34992
-1.43983
-3.33028
-3.35122
-3.27643
-3.13007
-2.93626
-2.71566
-2.48518
-2.25867
-2.04701
-1.85608
-1.69601
-1.56763
-1.47551
-1.41987
-1.40477
-1.42373
-1.48143
-1.57184
-1.69162
-3.51637
-3.47428
-3.34711
-3.16146
-2.94229
-2.70943
-2.4774
-2.25799
-2.05994
-1.88696
-1.74904
-1.64516
-1.57992
-1.55289
-1.56881
-1.61956
-1.71147
-1.83757
-1.99478
-3.66594
-3.55324
-3.37249
-3.15054
-2.91186
-2.67427
-2.44832
-2.24335
-2.06575
-1.91688
-1.8072
-1.73356
-1.70102
-1.70851
-1.76191
-1.85117
-1.9851
-2.15582
-2.36107
-3.78608
-3.60459
-3.36854
-3.11399
-2.86252
-2.62779
-2.4148
-2.23046
-2.07883
-1.95903
-1.88273
-1.8444
-1.85004
-1.89795
-1.99569
-2.13092
-2.3159
-2.54198
-2.80894
-3.88143
-3.6031
-3.31201
-3.03577
-2.784
-2.56358
-2.37293
-2.21715
-2.09842
-2.01386
-1.97724
-1.98052
-2.03113
-2.12693
-2.27782
-2.46883
-2.71711
-3.01364
-3.36276
-3.8626
-3.49422
-3.17186
-2.89779
-2.66468
-2.47336
-2.31627
-2.19823
-2.12024
-2.07785
-2.08801
-2.14002
-2.24356
-2.39626
-2.61159
-2.87178
-3.20122
-3.59174
-4.05792
-3.70174
-3.29231
-2.97472
-2.72753
-2.52924
-2.37813
-2.26241
-2.18837
-2.15668
-2.16184
-2.22499
-2.33283
-2.49815
-2.71885
-3.01347
-3.36147
-3.79789
-4.31764
-4.95936
-3.36589
-2.98197
-2.71127
-2.5164
-2.36864
-2.2682
-2.20146
-2.17763
-2.19797
-2.25654
-2.37968
-2.55192
-2.79032
-3.09411
-3.48931
-3.95357
-4.5383
-5.24651
-6.1772
-2.85511
-2.57685
-2.39161
-2.26883
-2.18295
-2.1404
-2.12792
-2.15869
-2.23537
-2.35236
-2.54224
-2.78835
-3.11383
-3.52112
-4.04794
-4.67288
-5.47392
-6.47255
-7.92891
-2.21142
-2.09933
-2.02383
-1.98427
-1.96663
-1.98577
-2.03029
-2.11771
-2.25284
-2.43141
-2.69349
-3.023
-3.45196
-3.98989
-4.69366
-5.54978
-6.68256
-8.15406
-10.6745
-1.51276
-1.57795
-1.61568
-1.66083
-1.71272
-1.79384
-1.89502
-2.03782
-2.22978
-2.46911
-2.80492
-3.22443
-3.77305
-4.47485
-5.41964
-6.61852
-8.28315
-10.5658
-15.4635
-0.845603
-1.04223
-1.17536
-1.2979
-1.4162
-1.55642
-1.71051
-1.90313
-2.14443
-2.43647
-2.83902
-3.34561
-4.022
-4.92077
-6.19015
-7.9049
-10.4547
-14.2025
-24.8392
-0.277677
-0.515633
-0.710408
-0.89725
-1.07622
-1.2707
-1.47075
-1.70308
-1.97823
-2.30388
-2.75156
-3.3213
-4.11137
-5.23771
-6.98931
-9.72153
-14.6024
-23.6051
-55.7625
)
;

boundaryField
{
    up
    {
        type            calculated;
        value           nonuniform List<scalar> 
84
(
-50.5319
-27.3679
-16.7953
-11.4536
-8.43066
-6.52534
-5.21413
-4.25122
-3.51222
-2.92631
-2.45337
-2.06714
-1.74832
-1.4839
-1.26355
-1.07883
-0.922967
-0.790557
-0.677217
-0.578988
-0.492349
-0.412778
-0.330558
-0.210497
-0.203689
-0.258382
-0.302015
-0.348374
-0.402348
-0.468672
-0.55355
-0.664928
-0.835789
-1.51912
-2.12431
-2.27351
-2.27437
-2.35958
-2.45882
-2.54587
-2.60936
-2.64739
-2.6475
-2.60973
-2.54642
-2.45945
-2.36026
-2.27489
-2.27343
-2.12566
-1.52622
-0.837193
-0.665766
-0.554177
-0.469165
-0.402755
-0.348729
-0.302351
-0.25878
-0.203937
-0.210348
-0.330574
-0.412789
-0.492357
-0.578994
-0.677221
-0.790559
-0.922966
-1.07883
-1.26354
-1.48389
-1.74832
-2.06713
-2.45337
-2.92632
-3.51223
-4.25123
-5.21414
-6.52535
-8.43066
-11.4536
-16.7953
-27.3679
-50.5319
)
;
    }
    low
    {
        type            calculated;
        value           nonuniform List<scalar> 
84
(
-0.297951
-0.883496
-1.59518
-2.35046
-3.04778
-3.59471
-3.93937
-4.08483
-4.06007
-3.9082
-3.75817
-3.57952
-3.3537
-3.16624
-3.00012
-2.83212
-2.68028
-2.55575
-2.42573
-2.27992
-2.15658
-2.0488
-1.94545
-1.85253
-1.76376
-1.70857
-1.70928
-1.77335
-1.88536
-2.04348
-2.2363
-2.43409
-2.65993
-2.92352
-3.2096
-3.53655
-3.90456
-4.23217
-4.49392
-4.70367
-4.85708
-4.96308
-4.9631
-4.85709
-4.70369
-4.49396
-4.23222
-3.90461
-3.53661
-3.20958
-2.92355
-2.65991
-2.43408
-2.23629
-2.04347
-1.88535
-1.77335
-1.70929
-1.70858
-1.76378
-1.85259
-1.94546
-2.04882
-2.1566
-2.27993
-2.42574
-2.55575
-2.68028
-2.83212
-3.00012
-3.16623
-3.3537
-3.5795
-3.75815
-3.90818
-4.06006
-4.08484
-3.93938
-3.59473
-3.0478
-2.35048
-1.59519
-0.883504
-0.297953
)
;
    }
    left
    {
        type            calculated;
        value           nonuniform List<scalar> 
19
(
-0.27236
-0.505918
-0.704428
-0.897348
-1.08365
-1.28595
-1.49475
-1.73814
-2.02707
-2.37335
-2.85193
-3.46616
-4.32769
-5.57528
-7.53321
-10.6371
-16.2467
-26.7161
-52.4117
)
;
    }
    right
    {
        type            calculated;
        value           nonuniform List<scalar> 
19
(
-0.272362
-0.505919
-0.704428
-0.897348
-1.08365
-1.28595
-1.49475
-1.73814
-2.02706
-2.37335
-2.85193
-3.46616
-4.32768
-5.57528
-7.5332
-10.6371
-16.2467
-26.7161
-52.4117
)
;
    }
    frontAndBackPlanes
    {
        type            empty;
    }
}


// ************************************************************************* //
