/*--------------------------------*- C++ -*----------------------------------*\
  =========                 |
  \\      /  F ield         | OpenFOAM: The Open Source CFD Toolbox
   \\    /   O peration     | Website:  https://openfoam.org
    \\  /    A nd           | Version:  7
     \\/     M anipulation  |
\*---------------------------------------------------------------------------*/
FoamFile
{
    version     2.0;
    format      ascii;
    class       volScalarField;
    location    "0.111";
    object      T;
}
// * * * * * * * * * * * * * * * * * * * * * * * * * * * * * * * * * * * * * //

dimensions      [0 0 0 1 0 0 0];

internalField   nonuniform List<scalar> 
1596
(
5.97181
5.89163
5.81165
5.73976
5.67894
5.62932
5.58999
5.55823
5.53195
5.50651
5.47844
5.4428
5.39002
5.30788
5.17881
4.96609
4.6035
3.9598
2.77184
5.87913
5.63165
5.40457
5.20679
5.04122
4.90661
4.79972
4.71445
4.64515
4.58261
4.51907
4.44488
4.34445
4.19976
3.98997
3.67993
3.21909
2.52401
1.43844
5.77247
5.36152
5.00192
4.69523
4.44075
4.23471
4.07145
3.94255
3.83987
3.75193
3.66878
3.57875
3.46497
3.30889
3.09092
2.78193
2.34592
1.73188
0.848841
5.67203
5.11439
4.63958
4.23993
3.91012
3.64376
3.43307
3.26802
3.13889
3.03307
2.93965
2.84631
2.73665
2.59324
2.39854
2.12863
1.75704
1.25137
0.557596
5.59474
4.91772
4.34676
3.86846
3.47423
3.15573
2.90367
2.70705
2.55513
2.43486
2.33495
2.24304
2.14371
2.02105
1.85938
1.63856
1.33783
0.934651
0.39486
5.54921
4.78618
4.13894
3.59485
3.14477
2.77981
2.49001
2.26393
2.09031
1.95599
1.84956
1.75885
1.66951
1.56705
1.43739
1.26311
1.02692
0.71138
0.292691
5.53356
4.71865
4.01511
3.41728
2.91869
2.51157
2.18628
1.93155
1.73599
1.58652
1.47172
1.37963
1.29687
1.21021
1.10691
0.971685
0.78954
0.545823
0.222177
5.53882
4.70172
3.96101
3.32127
2.78131
2.33613
1.97745
1.69475
1.47688
1.31098
1.18568
1.08921
1.00895
0.932728
0.848965
0.744128
0.605026
0.418767
0.170089
5.55743
4.72077
3.95937
3.28872
2.71436
2.2353
1.84556
1.5359
1.29576
1.11265
0.975265
0.87194
0.790646
0.72001
0.649431
0.566898
0.460764
0.319536
0.130025
5.57697
4.75317
3.98413
3.29315
2.6922
2.18475
1.76768
1.4335
1.17253
0.972774
0.823036
0.711732
0.627209
0.558707
0.496405
0.429597
0.348026
0.241499
0.0985415
5.59082
4.78257
4.01409
3.31182
2.69229
2.16293
1.72359
1.36869
1.08968
0.875153
0.714082
0.594945
0.506333
0.437918
0.380486
0.324429
0.260733
0.180465
0.0737278
5.60537
4.81275
4.04789
3.33922
2.70638
2.15999
1.70254
1.33034
1.03601
0.808768
0.637776
0.511538
0.418758
0.349366
0.294576
0.245641
0.194604
0.133695
0.0544858
5.61726
4.83838
4.07777
3.36536
2.72299
2.16369
1.69215
1.30629
0.999803
0.762459
0.583592
0.45169
0.355471
0.284991
0.231732
0.187591
0.145461
0.0985878
0.0398688
5.62216
4.85149
4.09398
3.37937
2.73065
2.16252
1.68118
1.28584
0.970961
0.726767
0.54269
0.407166
0.308871
0.237904
0.185911
0.14526
0.109507
0.0727462
0.0290107
5.62455
4.85632
4.09869
3.38119
2.72743
2.15302
1.66518
1.26386
0.944009
0.696048
0.509391
0.372351
0.27351
0.20295
0.152411
0.114599
0.0835722
0.0541018
0.0211437
5.62588
4.85582
4.0943
3.37188
2.71285
2.13347
1.64143
1.23698
0.91514
0.666244
0.479502
0.343
0.245174
0.176047
0.127409
0.0922196
0.0649171
0.0408011
0.0155516
5.6243
4.84817
4.07927
3.34968
2.68474
2.10125
1.60701
1.20209
0.881164
0.634143
0.44981
0.315912
0.220687
0.154088
0.107948
0.0754368
0.0513082
0.0312827
0.0116051
5.62088
4.83494
4.05531
3.31612
2.64414
2.05678
1.56175
1.15855
0.841058
0.598422
0.418754
0.289329
0.198144
0.135079
0.0920203
0.06235
0.0411017
0.0243532
0.00880135
5.621
4.82473
4.03155
3.27967
2.59828
2.00584
1.50995
1.10932
0.796661
0.560014
0.386555
0.262927
0.176814
0.118005
0.0784502
0.0517421
0.0331827
0.0191679
0.00676946
5.62322
4.81774
4.00948
3.24238
2.54926
1.95025
1.45306
1.05542
0.748591
0.519183
0.353168
0.236399
0.156175
0.102179
0.0664428
0.0427867
0.0267854
0.0151376
0.00524617
5.62399
4.80955
3.98583
3.20232
2.49617
1.88981
1.39124
0.997194
0.697211
0.476207
0.318731
0.209716
0.136034
0.0872683
0.0555613
0.0349944
0.0214345
0.0118856
0.00405935
5.62587
4.80332
3.96423
3.16361
2.44337
1.82872
1.32827
0.937787
0.644983
0.432886
0.284458
0.183612
0.116748
0.0733509
0.0456933
0.0281383
0.0168618
0.00918032
0.00310097
5.6302
4.80199
3.94855
3.13078
2.39572
1.77176
1.26849
0.880875
0.594802
0.391349
0.251801
0.158985
0.0987974
0.0606092
0.0368226
0.0220804
0.0128689
0.00682765
0.00227417
5.6365
4.80585
3.94021
3.10637
2.35662
1.7228
1.21575
0.829889
0.549463
0.35368
0.22218
0.136704
0.0826328
0.0492048
0.028924
0.0166775
0.00923555
0.00455572
0.00134152
5.64992
4.83418
3.97407
3.13862
2.38294
1.74152
1.22724
0.835645
0.551309
0.353242
0.22066
0.134854
0.0808605
0.0476811
0.0276804
0.0156707
0.00840887
0.00390331
0.000991635
5.66631
4.87853
4.03948
3.21619
2.46351
1.81739
1.29325
0.889358
0.592536
0.383304
0.241574
0.148798
0.0897972
0.0532102
0.0310047
0.0176228
0.00951732
0.0044747
0.00117688
5.6757
4.91006
4.09201
3.28446
2.53994
1.89409
1.3638
0.949649
0.640861
0.419883
0.267829
0.166709
0.101415
0.0603734
0.0352143
0.0199843
0.0107721
0.00506855
0.0013471
5.67816
4.92763
4.12929
3.34037
2.60912
1.96915
1.43743
1.01619
0.696921
0.464272
0.30101
0.19016
0.117052
0.0701683
0.0409562
0.0231167
0.012342
0.00574612
0.00151352
5.67672
4.93649
4.15689
3.38872
2.67478
2.04531
1.51635
1.09103
0.762871
0.51877
0.343466
0.221387
0.138663
0.0841351
0.0493087
0.0276794
0.014575
0.00665955
0.00171399
5.67214
4.93983
4.17906
3.43353
2.73998
2.12466
1.60195
1.17533
0.839966
0.584933
0.397067
0.262446
0.168284
0.104068
0.0616487
0.0345687
0.0179533
0.00801694
0.0019996
5.66671
4.94307
4.20224
3.4808
2.8096
2.21079
1.69679
1.27103
0.92995
0.664621
0.463936
0.31572
0.20842
0.132358
0.0799776
0.0451842
0.0232445
0.0101252
0.00243933
5.6655
4.95389
4.23433
3.53766
2.88949
2.3082
1.80421
1.38066
1.03502
0.760027
0.546515
0.38401
0.262205
0.172287
0.107383
0.0619782
0.0319361
0.0135454
0.00310157
5.66607
4.9687
4.27174
3.60079
2.9767
2.41435
1.9222
1.50288
1.15458
0.871463
0.646086
0.469603
0.332909
0.227998
0.148555
0.0895544
0.0476367
0.020122
0.00408356
5.66779
4.98663
4.31359
3.66942
3.0706
2.52874
2.0504
1.63759
1.289
0.999914
0.764435
0.575268
0.424488
0.304864
0.210463
0.136325
0.079283
0.0374823
0.00914593
5.66866
5.00111
4.34867
3.72812
3.15229
2.62993
2.16584
1.76127
1.41505
1.12322
0.881011
0.682384
0.520492
0.38889
0.282001
0.194662
0.123107
0.0650492
0.0188743
5.66322
4.99698
4.35364
3.74654
3.18549
2.67701
2.22432
1.82787
1.4862
1.19549
0.951449
0.74865
0.580857
0.442199
0.327588
0.232055
0.151776
0.0840143
0.02631
5.65326
4.9804
4.33879
3.73831
3.18624
2.68721
2.24315
1.85364
1.51681
1.22869
0.985106
0.780881
0.610072
0.467177
0.347557
0.246659
0.161154
0.0888538
0.0276578
5.6462
4.96924
4.32982
3.73517
3.19064
2.6994
2.26237
1.87847
1.5455
1.25936
1.01598
0.810392
0.636917
0.49036
0.366455
0.26096
0.170869
0.0943251
0.0294253
5.64275
4.96418
4.32699
3.73697
3.19816
2.71277
2.28095
1.90115
1.57092
1.28605
1.04255
0.835624
0.659786
0.510082
0.382537
0.273152
0.179173
0.0990237
0.0309655
5.64051
4.96107
4.32571
3.7392
3.20467
2.72361
2.29565
1.91886
1.59062
1.30663
1.06298
0.854988
0.677302
0.525155
0.394794
0.282408
0.185445
0.102551
0.0321218
5.63872
4.95833
4.32406
3.7399
3.20831
2.73025
2.30496
1.93028
1.60345
1.32012
1.07641
0.867741
0.688836
0.535058
0.40281
0.288415
0.189466
0.104776
0.0328407
5.63602
4.95419
4.32043
3.73774
3.20799
2.73181
2.30822
1.9349
1.60904
1.32626
1.08271
0.873832
0.694424
0.539909
0.406776
0.291413
0.191491
0.105908
0.0332144
5.63603
4.95422
4.32048
3.73779
3.20805
2.73187
2.30828
1.93496
1.6091
1.32632
1.08276
0.873876
0.694463
0.539943
0.406803
0.291435
0.191506
0.105917
0.0332176
5.63875
4.95842
4.32419
3.74005
3.20848
2.73043
2.30514
1.93045
1.60362
1.32028
1.07656
0.867875
0.688954
0.53516
0.402895
0.288482
0.189514
0.104805
0.0328509
5.64056
4.96121
4.32591
3.73944
3.20494
2.7239
2.29594
1.91915
1.5909
1.30689
1.06322
0.855203
0.677491
0.525317
0.394928
0.282513
0.18552
0.102596
0.0321375
5.64283
4.96437
4.32726
3.7373
3.19853
2.71316
2.28135
1.90154
1.57129
1.28639
1.04286
0.835911
0.660037
0.510297
0.382714
0.27329
0.179272
0.0990833
0.030986
5.64629
4.96947
4.33015
3.73558
3.19109
2.69988
2.26286
1.87895
1.54596
1.25979
1.01637
0.810743
0.637223
0.49062
0.366669
0.261126
0.170988
0.0943964
0.0294498
5.65337
4.98067
4.33918
3.73879
3.18678
2.68778
2.24372
1.8542
1.51735
1.22919
0.985558
0.781282
0.61042
0.46747
0.347796
0.246842
0.161283
0.0889301
0.0276834
5.66333
4.99728
4.35409
3.74709
3.18611
2.67766
2.22498
1.82851
1.48681
1.19605
0.951955
0.749095
0.581237
0.442514
0.327838
0.232242
0.151902
0.0840865
0.0263339
5.6688
5.00155
4.34936
3.72902
3.15332
2.63106
2.167
1.76242
1.41616
1.12426
0.881956
0.68323
0.521238
0.38954
0.282559
0.195131
0.123481
0.0653071
0.0189777
5.66797
4.98715
4.31441
3.67047
3.07182
2.53007
2.05176
1.63893
1.29027
1.00108
0.765484
0.576192
0.425289
0.305546
0.211033
0.136782
0.0796214
0.0376918
0.00921841
5.66622
4.96916
4.27246
3.60173
2.97779
2.41552
1.92338
1.50402
1.15563
0.872409
0.64691
0.470305
0.333493
0.228471
0.148924
0.0898233
0.0478078
0.0202052
0.00410036
5.66564
4.95432
4.23503
3.53856
2.89053
2.3093
1.80531
1.3817
1.03596
0.760854
0.547215
0.384587
0.262668
0.172647
0.107648
0.0621578
0.0320411
0.0135921
0.00311129
5.66684
4.94348
4.20289
3.48166
2.81058
2.21182
1.69781
1.27197
0.93079
0.665337
0.464526
0.31619
0.208784
0.132629
0.0801686
0.0453074
0.0233135
0.0101553
0.00244546
5.67225
4.9402
4.17967
3.43433
2.7409
2.12561
1.60288
1.17618
0.840702
0.585545
0.397557
0.262825
0.168568
0.104272
0.0617867
0.0346545
0.0180001
0.00803709
0.00200371
5.67682
4.93683
4.15744
3.38945
2.67561
2.04617
1.51718
1.09178
0.763505
0.519285
0.343868
0.221689
0.138882
0.0842877
0.0494088
0.0277399
0.0146074
0.00667357
0.00171694
5.67825
4.92793
4.12979
3.34102
2.60987
1.96991
1.43815
1.01683
0.697455
0.464697
0.301334
0.190398
0.117221
0.0702827
0.0410294
0.0231602
0.0123654
0.00575647
0.00151588
5.67577
4.91032
4.09244
3.28503
2.54058
1.89475
1.36442
0.950187
0.641304
0.420229
0.268089
0.166897
0.101545
0.0604604
0.0352694
0.0200171
0.0107901
0.00507698
0.00134929
5.66637
4.87874
4.03985
3.21668
2.46406
1.81794
1.29376
0.889802
0.592899
0.383585
0.241783
0.148948
0.0899003
0.0532785
0.0310481
0.0176491
0.00953231
0.00448227
0.00117918
5.64993
4.83423
3.97416
3.13875
2.38309
1.74168
1.22739
0.835779
0.551422
0.353332
0.220729
0.134905
0.0808964
0.0477049
0.0276952
0.015679
0.00841272
0.00390425
0.000991172
5.63647
4.80579
3.94012
3.10626
2.3565
1.72269
1.21565
0.829805
0.549397
0.35363
0.222144
0.136678
0.0826147
0.0491921
0.0289148
0.0166707
0.00923065
0.00455223
0.00133967
5.63019
4.80198
3.94854
3.13077
2.39571
1.77176
1.2685
0.880885
0.594813
0.391359
0.251809
0.158992
0.098802
0.060612
0.0368242
0.0220812
0.0128692
0.00682761
0.00227395
5.62587
4.80331
3.96422
3.1636
2.44337
1.82872
1.32827
0.937794
0.644991
0.432893
0.284464
0.183616
0.116751
0.0733526
0.0456943
0.028139
0.0168622
0.00918052
0.00310098
5.62399
4.80955
3.98582
3.20231
2.49617
1.88981
1.39124
0.997199
0.697216
0.476211
0.318734
0.209719
0.136036
0.0872698
0.0555626
0.0349955
0.0214354
0.0118862
0.00405951
5.62322
4.81773
4.00948
3.24238
2.54926
1.95025
1.45306
1.05542
0.748594
0.519185
0.353171
0.236401
0.156177
0.102181
0.0664446
0.0427885
0.026787
0.0151387
0.00524649
5.62099
4.82473
4.03154
3.27967
2.59828
2.00584
1.50996
1.10933
0.796662
0.560015
0.386556
0.262929
0.176816
0.118007
0.0784528
0.0517449
0.0331852
0.0191696
0.00676996
5.62088
4.83494
4.05531
3.31612
2.64414
2.05678
1.56175
1.15855
0.841058
0.598422
0.418755
0.289331
0.198146
0.135082
0.0920241
0.062354
0.0411052
0.0243556
0.00880203
5.62429
4.84817
4.07927
3.34968
2.68474
2.10125
1.60701
1.20209
0.881163
0.634143
0.449811
0.315914
0.22069
0.154093
0.107953
0.0754423
0.051313
0.0312858
0.0116059
5.62588
4.85582
4.0943
3.37188
2.71285
2.13347
1.64143
1.23698
0.915139
0.666244
0.479503
0.343003
0.245178
0.176053
0.127416
0.0922266
0.064923
0.0408047
0.0155524
5.62455
4.85632
4.09869
3.3812
2.72743
2.15302
1.66518
1.26386
0.944008
0.696048
0.509394
0.372355
0.273516
0.202958
0.152419
0.114607
0.0835786
0.0541054
0.0211443
5.62216
4.85149
4.09399
3.37937
2.73066
2.16252
1.68118
1.28584
0.97096
0.726768
0.542694
0.407172
0.308879
0.237913
0.185921
0.145269
0.109513
0.072749
0.029011
5.61726
4.83838
4.07778
3.36537
2.72299
2.16369
1.69215
1.30629
0.999803
0.762461
0.583596
0.451697
0.35548
0.285001
0.231742
0.187599
0.145465
0.098589
0.0398685
5.60537
4.81275
4.04789
3.33923
2.70638
2.15999
1.70254
1.33034
1.03601
0.808771
0.637782
0.511546
0.418767
0.349375
0.294583
0.245645
0.194605
0.133694
0.0544849
5.59082
4.78257
4.01409
3.31182
2.69229
2.16293
1.72359
1.36869
1.08968
0.875157
0.714088
0.594953
0.506341
0.437923
0.380489
0.324428
0.26073
0.180461
0.0737264
5.57698
4.75317
3.98413
3.29315
2.6922
2.18475
1.76768
1.4335
1.17253
0.972777
0.82304
0.711736
0.627212
0.558707
0.496402
0.42959
0.348017
0.241492
0.0985402
5.55743
4.72077
3.95937
3.28872
2.71436
2.2353
1.84556
1.5359
1.29576
1.11266
0.975267
0.87194
0.790643
0.720002
0.64942
0.566885
0.460752
0.319529
0.130024
5.53882
4.70171
3.961
3.32126
2.7813
2.33612
1.97744
1.69475
1.47688
1.31098
1.18568
1.0892
1.00894
0.932714
0.848947
0.74411
0.605013
0.41876
0.170089
5.53356
4.71864
4.0151
3.41728
2.91868
2.51156
2.18627
1.93155
1.73599
1.58651
1.47171
1.37961
1.29686
1.21019
1.10689
0.971666
0.789528
0.545819
0.222178
5.54921
4.78618
4.13893
3.59484
3.14476
2.77981
2.49
2.26392
2.0903
1.95598
1.84955
1.75883
1.66949
1.56702
1.43737
1.2631
1.02691
0.71138
0.292694
5.59473
4.91772
4.34676
3.86846
3.47423
3.15573
2.90367
2.70705
2.55512
2.43485
2.33493
2.24301
2.14369
2.02103
1.85937
1.63856
1.33783
0.934655
0.394863
5.67203
5.11439
4.63958
4.23993
3.91012
3.64375
3.43306
3.26802
3.13888
3.03305
2.93963
2.84629
2.73663
2.59323
2.39853
2.12863
1.75704
1.25137
0.557598
5.77247
5.36152
5.00192
4.69524
4.44075
4.23471
4.07145
3.94254
3.83986
3.75192
3.66876
3.57874
3.46496
3.30889
3.09092
2.78194
2.34593
1.73189
0.848841
5.87913
5.63165
5.40457
5.20679
5.04122
4.90661
4.79972
4.71445
4.64514
4.5826
4.51906
4.44488
4.34444
4.19976
3.98998
3.67993
3.2191
2.52401
1.43844
5.97181
5.89163
5.81165
5.73976
5.67894
5.62932
5.58999
5.55823
5.53195
5.50651
5.47844
5.4428
5.39002
5.30789
5.17882
4.9661
4.6035
3.9598
2.77184
)
;

boundaryField
{
    up
    {
        type            fixedValue;
        value           uniform 0;
    }
    low
    {
        type            fixedValue;
        value           uniform 6;
    }
    left
    {
        type            fixedValue;
        value           uniform 6;
    }
    right
    {
        type            fixedValue;
        value           uniform 6;
    }
    frontAndBackPlanes
    {
        type            empty;
    }
}


// ************************************************************************* //
