/*--------------------------------*- C++ -*----------------------------------*\
  =========                 |
  \\      /  F ield         | OpenFOAM: The Open Source CFD Toolbox
   \\    /   O peration     | Website:  https://openfoam.org
    \\  /    A nd           | Version:  7
     \\/     M anipulation  |
\*---------------------------------------------------------------------------*/
FoamFile
{
    version     2.0;
    format      ascii;
    class       volScalarField;
    location    "0.425";
    object      T;
}
// * * * * * * * * * * * * * * * * * * * * * * * * * * * * * * * * * * * * * //

dimensions      [0 0 0 1 0 0 0];

internalField   nonuniform List<scalar> 
1596
(
3.99177
3.96805
3.94339
3.91937
3.8962
3.87344
3.85053
3.82638
3.80024
3.77032
3.73528
3.69328
3.63988
3.5686
3.46909
3.31784
3.07076
2.6396
1.84761
3.96436
3.89036
3.81937
3.75213
3.68801
3.62561
3.56339
3.49909
3.43086
3.35555
3.27057
3.17281
3.05604
2.91222
2.73098
2.49186
2.16253
1.68692
0.958809
3.93188
3.80731
3.69335
3.5877
3.48816
3.39227
3.29769
3.20155
3.10142
2.99369
2.87548
2.74354
2.59199
2.4138
2.20101
1.93878
1.60605
1.16969
0.567577
3.89979
3.72786
3.57518
3.43595
3.30618
3.18248
3.06189
2.94117
2.81765
2.68768
2.54848
2.39707
2.22842
2.03698
1.81706
1.55846
1.2479
0.866242
0.377347
3.87316
3.66032
3.47394
3.3057
3.15026
3.00351
2.86203
2.7224
2.58185
2.43683
2.28477
2.12302
1.94735
1.75343
1.53727
1.2918
1.00864
0.676738
0.274784
3.85533
3.61042
3.39582
3.20278
3.02541
2.85923
2.7006
2.54601
2.39266
2.23715
2.0771
1.91009
1.73252
1.54093
1.33243
1.10199
0.844172
0.552541
0.214178
3.84677
3.57975
3.3428
3.12887
2.93259
2.74963
2.57634
2.40926
2.24562
2.08217
1.91666
1.74684
1.56955
1.38186
1.1816
0.96501
0.728409
0.468001
0.175675
3.84558
3.56607
3.3127
3.08169
2.86911
2.67133
2.48501
2.30687
2.13429
1.96414
1.79427
1.62257
1.44611
1.26236
1.06953
0.864643
0.64509
0.408582
0.149815
3.84988
3.56612
3.30196
3.05749
2.83095
2.61991
2.42163
2.23324
2.05231
1.87591
1.70197
1.52846
1.35264
1.17216
0.985464
0.79006
0.583953
0.365727
0.131736
3.85565
3.57314
3.30308
3.04876
2.81073
2.58802
2.37883
2.18084
1.99196
1.80949
1.63151
1.45604
1.28047
1.10256
0.920838
0.733101
0.537707
0.33373
0.118544
3.86048
3.58161
3.3092
3.04825
2.8012
2.56858
2.34963
2.14278
1.94639
1.75808
1.5761
1.39856
1.22293
1.04705
0.869451
0.688079
0.501475
0.30896
0.108526
3.86641
3.59279
3.32015
3.05477
2.80056
2.55939
2.33162
2.11644
1.91279
1.7187
1.53262
1.35278
1.17673
1.00233
0.828086
0.651991
0.472647
0.289461
0.100767
3.87214
3.60462
3.3332
3.06504
2.80519
2.5567
2.32095
2.09799
1.88739
1.68761
1.49738
1.3151
1.13837
0.965077
0.793662
0.622088
0.448935
0.273586
0.0945535
3.87599
3.61398
3.3445
3.0748
2.81064
2.55601
2.31323
2.08318
1.86608
1.66088
1.46666
1.28197
1.10454
0.932241
0.763433
0.596005
0.428448
0.260041
0.0893518
3.87938
3.62201
3.35448
3.08382
2.81618
2.55624
2.30714
2.07051
1.84726
1.63686
1.43875
1.25171
1.07357
0.902218
0.735915
0.572433
0.410118
0.248081
0.0848482
3.88266
3.62945
3.36365
3.0922
2.8215
2.55675
2.30177
2.05893
1.82975
1.61426
1.41232
1.22294
1.0441
0.873701
0.709894
0.550303
0.393081
0.23711
0.0808013
3.88515
3.63544
3.37108
3.09888
2.82536
2.55615
2.29564
2.04686
1.81196
1.59152
1.3858
1.19413
1.01464
0.845282
0.684095
0.528527
0.376485
0.226565
0.076993
3.88708
3.64018
3.37693
3.10388
2.82761
2.5541
2.28825
2.03369
1.79315
1.56778
1.35827
1.16428
0.984174
0.815939
0.657546
0.506248
0.359658
0.216008
0.0732575
3.88999
3.64608
3.38375
3.10962
2.83043
2.55248
2.28115
2.02061
1.7742
1.54361
1.33002
1.13343
0.952468
0.78525
0.629704
0.482898
0.342113
0.205119
0.0694817
3.8933
3.65286
3.3915
3.11618
2.8339
2.5513
2.27423
2.00744
1.75481
1.5186
1.30047
1.10086
0.918674
0.752238
0.599509
0.45744
0.322978
0.193335
0.0654837
3.89583
3.6587
3.39837
3.12184
2.83639
2.54903
2.26608
1.9928
1.73364
1.49143
1.26834
1.06524
0.881414
0.715436
0.565418
0.428327
0.300893
0.179738
0.0609694
3.89825
3.66415
3.40471
3.12688
2.83813
2.54582
2.25673
1.97662
1.7105
1.46177
1.23312
1.02589
0.839776
0.673677
0.525963
0.393814
0.27403
0.162885
0.0554346
3.90085
3.66968
3.41091
3.13153
2.83922
2.54167
2.24606
1.95867
1.68503
1.4291
1.19412
0.981927
0.79266
0.625576
0.479366
0.351593
0.239549
0.139932
0.0475133
3.90347
3.67496
3.41646
3.13512
2.83883
2.53562
2.23306
1.93789
1.6561
1.39221
1.15002
0.931899
0.738473
0.569349
0.423499
0.298849
0.193431
0.105329
0.0318876
3.90744
3.685
3.43107
3.15269
2.85773
2.55417
2.24964
1.95099
1.66445
1.39488
1.14661
0.922633
0.724146
0.551206
0.403082
0.277814
0.17366
0.089395
0.0240048
3.91171
3.69744
3.45144
3.18049
2.89208
2.59378
2.2929
1.99602
1.70923
1.4375
1.18541
0.956544
0.752762
0.574767
0.422227
0.293236
0.185709
0.0978376
0.0277351
3.91363
3.70394
3.46315
3.19774
2.91483
2.62158
2.32481
2.0307
1.74502
1.47255
1.21796
0.985172
0.7767
0.593968
0.437225
0.304777
0.194356
0.103701
0.0302665
3.91316
3.70422
3.46569
3.20377
2.9252
2.63662
2.34433
2.05395
1.77073
1.49906
1.24343
1.00791
0.795519
0.608447
0.447742
0.312161
0.199437
0.106962
0.0316597
3.91104
3.69981
3.46121
3.20121
2.92613
2.64206
2.35468
2.06892
1.78942
1.51999
1.26473
1.0276
0.811907
0.620602
0.455736
0.316867
0.202025
0.108361
0.032259
3.90735
3.69166
3.45153
3.1926
2.92068
2.64126
2.35934
2.07913
1.80456
1.53876
1.28525
1.04765
0.829245
0.633557
0.463776
0.320713
0.20323
0.108503
0.0322966
3.90261
3.68146
3.43923
3.18113
2.91247
2.63809
2.36228
2.08853
1.82003
1.55921
1.30891
1.07213
0.851812
0.651612
0.475714
0.326557
0.204682
0.108073
0.0319674
3.89834
3.67183
3.42754
3.17046
2.9054
2.63656
2.36752
2.10106
1.8397
1.58522
1.33973
1.1055
0.884709
0.680549
0.497539
0.339579
0.209683
0.108272
0.0313549
3.89393
3.6621
3.41609
3.16057
2.89979
2.63729
2.37593
2.11785
1.86497
1.6185
1.37996
1.1509
0.932525
0.72697
0.537962
0.369595
0.226826
0.113833
0.0306313
3.88929
3.65245
3.4054
3.15233
2.89682
2.64168
2.38909
2.14062
1.89769
1.66108
1.43193
1.21131
0.999679
0.797982
0.608356
0.433252
0.27681
0.14475
0.0408057
3.88388
3.64076
3.39135
3.13932
2.88752
2.63808
2.39259
2.15209
1.91767
1.68982
1.46948
1.25756
1.05426
0.860001
0.675744
0.501897
0.339587
0.19157
0.0602465
3.87576
3.62141
3.36477
3.10875
2.85542
2.60628
2.36236
2.1243
1.89287
1.66832
1.45149
1.2432
1.04364
0.853299
0.673207
0.503623
0.345135
0.198981
0.0650458
3.86557
3.59695
3.33045
3.0678
2.81023
2.55859
2.31341
2.07495
1.84373
1.6198
1.40392
1.1969
0.999007
0.810881
0.633893
0.468726
0.316573
0.179321
0.057305
3.85646
3.57529
3.30024
3.03193
2.77082
2.51719
2.27116
2.03267
1.80204
1.57918
1.36483
1.15979
0.964394
0.77937
0.606211
0.445689
0.299055
0.168183
0.0533363
3.84935
3.55802
3.27592
3.00293
2.7389
2.48367
2.237
1.99861
1.76866
1.54695
1.33417
1.13113
0.938154
0.755989
0.586152
0.429402
0.286968
0.160686
0.0507638
3.84373
3.54443
3.25685
2.98026
2.71404
2.45765
2.21061
1.97243
1.74315
1.5225
1.31111
1.10979
0.91882
0.738953
0.571694
0.41778
0.278417
0.155426
0.0489837
3.83963
3.53459
3.24317
2.96412
2.69645
2.43935
2.19214
1.95421
1.72551
1.50568
1.29535
1.09528
0.905755
0.727494
0.562
0.409998
0.272686
0.15189
0.0477838
3.83669
3.52824
3.2348
2.95459
2.68633
2.42902
2.18188
1.94422
1.71595
1.49668
1.28701
1.0877
0.899011
0.721655
0.557127
0.40614
0.269884
0.150186
0.047219
3.83669
3.52825
3.23481
2.95461
2.68635
2.42904
2.1819
1.94424
1.71597
1.4967
1.28702
1.08772
0.899022
0.721664
0.557135
0.406146
0.269888
0.150189
0.0472199
3.83965
3.53462
3.24321
2.96417
2.69651
2.43941
2.1922
1.95427
1.72556
1.50573
1.29539
1.09532
0.905792
0.727525
0.562027
0.410019
0.272701
0.151899
0.0477871
3.84375
3.54448
3.25693
2.98035
2.71413
2.45774
2.2107
1.97251
1.74323
1.52258
1.31118
1.10985
0.918874
0.738998
0.571731
0.417809
0.278437
0.155438
0.0489877
3.84938
3.55809
3.27601
3.00304
2.73902
2.48379
2.23712
1.99873
1.76877
1.54705
1.33426
1.13121
0.938218
0.756042
0.586193
0.429433
0.286989
0.160698
0.0507677
3.8565
3.57538
3.30035
3.03206
2.77097
2.51734
2.2713
2.0328
1.80216
1.5793
1.36493
1.15988
0.964465
0.779426
0.606253
0.445718
0.299073
0.168192
0.0533387
3.86561
3.59704
3.33058
3.06795
2.8104
2.55875
2.31357
2.0751
1.84387
1.61993
1.40403
1.19699
0.999071
0.810925
0.633918
0.468736
0.316573
0.179316
0.0573006
3.87581
3.62151
3.36491
3.10891
2.8556
2.60646
2.36253
2.12446
1.89301
1.66845
1.45159
1.24326
1.04368
0.853299
0.673175
0.503565
0.345065
0.198919
0.0650162
3.88393
3.64091
3.39158
3.13962
2.88788
2.6385
2.39305
2.15259
1.9182
1.69037
1.47005
1.25815
1.05486
0.860609
0.676358
0.502505
0.340152
0.192014
0.0604459
3.88935
3.65262
3.40567
3.15271
2.89729
2.64223
2.38972
2.1413
1.89843
1.66187
1.43277
1.21218
1.00057
0.798872
0.60922
0.434042
0.277459
0.145184
0.0409659
3.89397
3.66224
3.41632
3.16089
2.90019
2.63776
2.37646
2.11843
1.8656
1.61917
1.38065
1.1516
0.93322
0.727629
0.538549
0.370066
0.227145
0.113991
0.0306602
3.89838
3.67196
3.42776
3.17076
2.90577
2.637
2.36802
2.10161
1.84029
1.58583
1.34035
1.10612
0.885295
0.681075
0.497975
0.3399
0.209883
0.108369
0.0313801
3.90264
3.68157
3.43942
3.1814
2.91281
2.6385
2.36275
2.08904
1.82056
1.55977
1.30947
1.07267
0.852308
0.65204
0.476054
0.326799
0.204833
0.108152
0.0319906
3.90738
3.69176
3.45171
3.19285
2.92099
2.64164
2.35977
2.0796
1.80505
1.53927
1.28575
1.04812
0.829671
0.633916
0.464056
0.320914
0.20336
0.108574
0.0323187
3.91107
3.6999
3.46136
3.20144
2.92642
2.64241
2.35507
2.06935
1.78987
1.52045
1.26517
1.02801
0.812279
0.620912
0.455978
0.317044
0.202143
0.108428
0.0322811
3.91319
3.7043
3.46582
3.20397
2.92545
2.63693
2.34469
2.05434
1.77114
1.49948
1.24383
1.00828
0.795847
0.608721
0.447959
0.312324
0.199549
0.107029
0.031683
3.91364
3.704
3.46326
3.19791
2.91506
2.62185
2.32513
2.03105
1.74539
1.47293
1.21832
0.985504
0.776994
0.594216
0.437425
0.304932
0.194468
0.103771
0.0302931
3.91173
3.69749
3.45154
3.18064
2.89228
2.59403
2.29319
1.99633
1.70956
1.43783
1.18574
0.956842
0.753028
0.574997
0.422418
0.29339
0.185826
0.0979164
0.0277677
3.90744
3.68501
3.43108
3.15272
2.85777
2.55422
2.2497
1.95105
1.66451
1.39493
1.14665
0.922662
0.724159
0.551204
0.403067
0.27779
0.173634
0.0893722
0.0239946
3.90346
3.67493
3.41643
3.13507
2.83877
2.53554
2.23298
1.9378
1.656
1.39211
1.14991
0.93179
0.738365
0.569245
0.423402
0.298763
0.193361
0.10528
0.0318675
3.90085
3.66967
3.4109
3.13151
2.8392
2.54164
2.24603
1.95865
1.68501
1.42908
1.1941
0.981911
0.792649
0.62557
0.479365
0.351595
0.239554
0.139937
0.0475155
3.89824
3.66414
3.4047
3.12686
2.83811
2.5458
2.25671
1.9766
1.71048
1.46175
1.23311
1.02588
0.839768
0.673672
0.525962
0.393815
0.274032
0.162887
0.0554354
3.89583
3.6587
3.39836
3.12182
2.83638
2.54902
2.26607
1.99278
1.73362
1.49142
1.26833
1.06523
0.881409
0.715434
0.565418
0.428327
0.300894
0.179739
0.0609696
3.8933
3.65285
3.3915
3.11617
2.83389
2.55128
2.27422
2.00743
1.75479
1.51859
1.30046
1.10085
0.918671
0.752236
0.599509
0.45744
0.322979
0.193335
0.0654837
3.88999
3.64608
3.38375
3.10961
2.83043
2.55247
2.28114
2.0206
1.77419
1.54361
1.33001
1.13343
0.952465
0.785249
0.629703
0.482898
0.342113
0.205119
0.0694817
3.88708
3.64018
3.37693
3.10387
2.8276
2.55409
2.28825
2.03368
1.79315
1.56777
1.35827
1.16428
0.984173
0.815937
0.657545
0.506247
0.359658
0.216007
0.0732573
3.88515
3.63544
3.37108
3.09888
2.82536
2.55614
2.29564
2.04686
1.81196
1.59152
1.3858
1.19412
1.01464
0.845281
0.684094
0.528526
0.376485
0.226564
0.0769929
3.88266
3.62945
3.36365
3.0922
2.8215
2.55675
2.30177
2.05892
1.82974
1.61426
1.41232
1.22294
1.0441
0.8737
0.709893
0.550303
0.393081
0.237109
0.0808012
3.87937
3.62201
3.35448
3.08382
2.81618
2.55624
2.30714
2.07051
1.84726
1.63685
1.43874
1.25171
1.07357
0.902218
0.735915
0.572433
0.410118
0.24808
0.0848481
3.87599
3.61398
3.3445
3.0748
2.81064
2.55601
2.31323
2.08318
1.86608
1.66088
1.46666
1.28197
1.10454
0.932241
0.763433
0.596005
0.428448
0.260041
0.0893518
3.87214
3.60462
3.3332
3.06504
2.80519
2.5567
2.32095
2.09799
1.88739
1.68761
1.49738
1.3151
1.13837
0.965078
0.793662
0.622088
0.448935
0.273586
0.0945536
3.86641
3.59279
3.32015
3.05477
2.80056
2.55939
2.33162
2.11644
1.91279
1.7187
1.53262
1.35278
1.17673
1.00233
0.828086
0.651991
0.472648
0.289461
0.100767
3.86048
3.58162
3.3092
3.04825
2.8012
2.56858
2.34963
2.14278
1.94639
1.75808
1.5761
1.39856
1.22294
1.04705
0.869452
0.68808
0.501476
0.308961
0.108526
3.85565
3.57314
3.30308
3.04876
2.81073
2.58802
2.37883
2.18084
1.99196
1.80949
1.63151
1.45604
1.28047
1.10256
0.920839
0.733102
0.537708
0.33373
0.118545
3.84988
3.56612
3.30196
3.05748
2.83095
2.61991
2.42163
2.23324
2.05231
1.87591
1.70197
1.52846
1.35264
1.17216
0.985465
0.790061
0.583954
0.365728
0.131736
3.84558
3.56606
3.3127
3.08169
2.86911
2.67133
2.485
2.30687
2.13429
1.96414
1.79427
1.62256
1.44611
1.26236
1.06953
0.864644
0.645091
0.408583
0.149816
3.84677
3.57975
3.3428
3.12887
2.93259
2.74963
2.57634
2.40925
2.24562
2.08217
1.91665
1.74684
1.56955
1.38186
1.1816
0.965011
0.72841
0.468002
0.175675
3.85533
3.61042
3.39582
3.20278
3.0254
2.85923
2.7006
2.54601
2.39266
2.23715
2.07709
1.91008
1.73252
1.54093
1.33243
1.10199
0.844172
0.552541
0.214178
3.87316
3.66032
3.47394
3.3057
3.15025
3.0035
2.86203
2.7224
2.58184
2.43682
2.28477
2.12302
1.94735
1.75343
1.53727
1.2918
1.00864
0.676738
0.274784
3.89979
3.72786
3.57518
3.43595
3.30618
3.18248
3.06189
2.94117
2.81765
2.68767
2.54847
2.39706
2.22842
2.03698
1.81706
1.55846
1.2479
0.866242
0.377347
3.93188
3.80731
3.69335
3.5877
3.48815
3.39226
3.29769
3.20155
3.10141
2.99368
2.87547
2.74354
2.59198
2.4138
2.20101
1.93878
1.60605
1.16969
0.567577
3.96436
3.89036
3.81937
3.75213
3.68801
3.62561
3.56339
3.49908
3.43086
3.35555
3.27057
3.17281
3.05604
2.91222
2.73098
2.49186
2.16253
1.68692
0.958809
3.99177
3.96805
3.94339
3.91937
3.8962
3.87344
3.85053
3.82638
3.80024
3.77032
3.73528
3.69328
3.63988
3.5686
3.46909
3.31784
3.07076
2.6396
1.84761
)
;

boundaryField
{
    up
    {
        type            fixedValue;
        value           uniform 0;
    }
    low
    {
        type            fixedValue;
        value           uniform 4;
    }
    left
    {
        type            fixedValue;
        value           uniform 4;
    }
    right
    {
        type            fixedValue;
        value           uniform 4;
    }
    frontAndBackPlanes
    {
        type            empty;
    }
}


// ************************************************************************* //
