/*--------------------------------*- C++ -*----------------------------------*\
  =========                 |
  \\      /  F ield         | OpenFOAM: The Open Source CFD Toolbox
   \\    /   O peration     | Website:  https://openfoam.org
    \\  /    A nd           | Version:  7
     \\/     M anipulation  |
\*---------------------------------------------------------------------------*/
FoamFile
{
    version     2.0;
    format      ascii;
    class       volScalarField;
    location    "0.081";
    object      T;
}
// * * * * * * * * * * * * * * * * * * * * * * * * * * * * * * * * * * * * * //

dimensions      [0 0 0 1 0 0 0];

internalField   nonuniform List<scalar> 
1596
(
4.96967
4.88381
4.79933
4.7254
4.66548
4.61952
4.58605
4.56179
4.54435
4.52928
4.51362
4.49311
4.45918
4.40085
4.30245
4.13225
3.83449
3.29995
2.31011
4.87076
4.6074
4.36927
4.16757
4.00587
3.88212
3.79149
3.72639
3.68025
3.64395
3.61067
3.572
3.51409
3.42049
3.27171
3.0358
2.6685
2.09934
1.19872
4.75934
4.32626
3.95275
3.64297
3.39663
3.20856
3.07069
2.97227
2.90362
2.85306
2.81155
2.76897
2.7105
2.61935
2.4768
2.25527
1.92142
1.43037
0.705707
4.65826
4.07807
3.59063
3.19124
2.87491
2.63343
2.45597
2.32957
2.24233
2.18106
2.13553
2.09501
2.04545
1.97143
1.85636
1.67706
1.40767
1.01761
0.459811
4.58503
3.89092
3.31231
2.83968
2.46497
2.17793
1.96587
1.81437
1.70999
1.63866
1.58939
1.55132
1.51159
1.45663
1.37219
1.23887
1.0358
0.740079
0.319955
4.54649
3.7761
3.1289
2.59727
2.17316
1.84595
1.60216
1.42666
1.30502
1.22257
1.16777
1.1297
1.09662
1.05675
0.997967
0.904191
0.758185
0.541437
0.230256
4.53806
3.7272
3.03281
2.45499
1.98902
1.62574
1.35213
1.15304
1.01353
0.918537
0.856004
0.814874
0.784262
0.75382
0.713309
0.649495
0.548145
0.393787
0.167389
4.54884
3.72642
3.00397
2.39192
1.89122
1.49589
1.19444
0.972426
0.81483
0.706386
0.634536
0.587984
0.556341
0.530303
0.501129
0.458017
0.389364
0.282256
0.120952
4.57062
3.75682
3.02165
2.38579
1.85704
1.43365
1.10663
0.862796
0.687495
0.565407
0.483536
0.430244
0.395319
0.370098
0.346927
0.316978
0.270936
0.198245
0.0859593
4.59141
3.79571
3.05905
2.40899
1.85946
1.41324
1.0643
0.801124
0.609777
0.475066
0.383664
0.323568
0.284521
0.258179
0.2376
0.215461
0.18435
0.13586
0.0596349
4.60534
3.82795
3.09615
2.43975
1.87677
1.41381
1.04773
0.768867
0.564209
0.418864
0.319318
0.253253
0.210261
0.182098
0.162239
0.144438
0.122773
0.0906995
0.0402048
4.61899
3.85797
3.13233
2.47318
1.90116
1.42575
1.04632
0.75491
0.539472
0.385476
0.279309
0.208381
0.162069
0.132083
0.112087
0.0965406
0.0806008
0.0592142
0.0263588
4.6294
3.88131
3.16101
2.50064
1.92259
1.43839
1.04927
0.748654
0.525305
0.365011
0.2541
0.179751
0.131123
0.0998159
0.0795499
0.0652165
0.0527061
0.0380732
0.0168707
4.63261
3.89099
3.17391
2.51312
1.93175
1.44248
1.0477
0.741717
0.513831
0.350036
0.236601
0.160534
0.110822
0.0789699
0.0587073
0.045195
0.0348078
0.0243793
0.0106248
4.63302
3.89142
3.1737
2.51135
1.92767
1.43577
1.03848
0.730431
0.501063
0.336377
0.222527
0.146365
0.0967624
0.065163
0.0453156
0.0325641
0.0236058
0.0158025
0.00667711
4.63204
3.88554
3.16292
2.49672
1.91053
1.41743
1.02003
0.712696
0.484582
0.321414
0.209112
0.134366
0.0859757
0.0553823
0.0363885
0.024497
0.0166403
0.0105404
0.00426184
4.62789
3.87163
3.14022
2.46793
1.87887
1.38582
0.990618
0.686779
0.462655
0.303409
0.194589
0.122716
0.0765766
0.047685
0.029963
0.0190919
0.0122097
0.00730434
0.00280654
4.62162
3.8512
3.10729
2.42653
1.83392
1.34179
0.950739
0.652836
0.435159
0.281993
0.178374
0.110642
0.0676313
0.0410116
0.0248981
0.0151923
0.00924058
0.00525259
0.00192111
4.61862
3.8327
3.07285
2.3804
1.78226
1.29051
0.90423
0.613571
0.403873
0.25822
0.160965
0.098226
0.0589209
0.0349325
0.0206278
0.0121654
0.00711187
0.00387821
0.00136141
4.61758
3.81641
3.03831
2.33136
1.72567
1.23355
0.852401
0.570019
0.369562
0.232601
0.142642
0.0855508
0.0503646
0.0292416
0.0168577
0.00966812
0.00547699
0.00289198
0.000984626
4.61513
3.79839
3.00091
2.27795
1.66369
1.17107
0.79574
0.522799
0.332832
0.205638
0.123763
0.0728227
0.0420343
0.0239034
0.0134754
0.00754138
0.00416203
0.00214267
0.000713973
4.61404
3.78228
2.96488
2.2247
1.60073
1.10703
0.737559
0.474493
0.295576
0.178638
0.10517
0.0605405
0.0341887
0.0190177
0.0104816
0.00572967
0.00308729
0.00155497
0.000510354
4.6159
3.77173
2.93499
2.17692
1.54207
1.04617
0.681742
0.428051
0.259882
0.152977
0.0877094
0.0491829
0.0270691
0.0146814
0.00789084
0.00420398
0.00220536
0.00108222
0.000349563
4.62042
3.76794
2.91408
2.13873
1.49238
0.99301
0.632141
0.386424
0.227801
0.129957
0.0721354
0.0391422
0.0208487
0.0109466
0.00569474
0.00292848
0.00146923
0.000674306
0.000192665
4.63317
3.79152
2.93807
2.15685
1.50255
0.996144
0.630598
0.382653
0.223606
0.126332
0.0694245
0.0373063
0.0196953
0.0102627
0.00530463
0.00270644
0.00133363
0.000582402
0.000142796
4.64981
3.83431
2.99724
2.2214
1.56312
1.0468
0.669154
0.409743
0.241382
0.137347
0.0759275
0.0410014
0.0217347
0.0113681
0.00590248
0.00303399
0.00151415
0.000674969
0.00017244
4.65997
3.86751
3.04978
2.28494
1.62806
1.10528
0.716688
0.44516
0.265851
0.153169
0.085571
0.0465722
0.024794
0.0129691
0.00670733
0.00342863
0.0017063
0.000763731
0.000198605
4.66366
3.88964
3.09296
2.34433
1.6948
1.17024
0.773203
0.489971
0.298666
0.175578
0.0999399
0.0552555
0.0297355
0.0156028
0.00801398
0.00402853
0.00196189
0.000861547
0.000221505
4.66402
3.90546
3.13093
2.40233
1.76489
1.24269
0.839794
0.545641
0.341637
0.206523
0.120878
0.0686143
0.0377559
0.0200956
0.0103302
0.00510455
0.00240229
0.00101086
0.000248126
4.66184
3.91754
3.16635
2.46056
1.83877
1.32239
0.9162
0.612371
0.395578
0.247312
0.149947
0.0882114
0.0502268
0.0275164
0.0143893
0.00708733
0.00323567
0.00128946
0.000293151
4.65938
3.93061
3.20402
2.52263
1.91861
1.41041
1.00301
0.690806
0.461497
0.299376
0.18888
0.115884
0.0688916
0.0393531
0.021317
0.0107028
0.0048363
0.00183787
0.000383301
4.66157
3.9516
3.25047
2.59378
2.00815
1.50924
1.10193
0.782351
0.540893
0.364496
0.239745
0.153879
0.0960143
0.0577118
0.0328891
0.0172464
0.00795169
0.00293919
0.000557078
4.66566
3.97623
3.30125
2.66985
2.10372
1.61588
1.21076
0.885783
0.633555
0.443425
0.304118
0.204397
0.134198
0.0853791
0.0518401
0.0291131
0.0143129
0.00544267
0.000879416
4.67078
4.00308
3.35482
2.74939
2.20405
1.72928
1.32881
1.0009
0.739932
0.537362
0.38395
0.270079
0.18668
0.126096
0.0823182
0.0506759
0.028096
0.0126349
0.00285907
4.67482
4.02561
3.40047
2.81826
2.29254
1.83139
1.43764
1.10984
0.843555
0.631793
0.466977
0.340934
0.245621
0.174006
0.120303
0.0796663
0.0486246
0.0248986
0.0069695
4.67237
4.02909
3.41593
2.84801
2.33589
1.88567
1.49911
1.17454
0.907889
0.69286
0.522766
0.390261
0.287971
0.209358
0.148965
0.102016
0.0649482
0.0352057
0.0108205
4.66517
4.01937
3.41062
2.85058
2.34733
1.90526
1.52516
1.20486
0.94029
0.725333
0.553708
0.418491
0.312667
0.23002
0.165385
0.114182
0.073058
0.0396775
0.0122028
4.66033
4.01359
3.40898
2.85562
2.3597
1.92434
1.54956
1.2328
0.969941
0.755024
0.582069
0.444489
0.335563
0.249346
0.180927
0.125895
0.0810564
0.0442381
0.0136894
4.6585
4.01243
3.41145
2.86326
2.37286
1.94253
1.57168
1.25748
0.995803
0.780752
0.606582
0.466956
0.355375
0.266103
0.194433
0.136094
0.0880316
0.0482212
0.0149963
4.6574
4.01207
3.41389
2.86959
2.38334
1.95676
1.58888
1.27664
1.01588
0.800759
0.625688
0.484513
0.370893
0.279251
0.205038
0.1441
0.093496
0.0513329
0.016018
4.65637
4.01114
3.41469
2.87301
2.38962
1.96569
1.59994
1.28916
1.02914
0.814084
0.638494
0.496338
0.381378
0.288148
0.212214
0.149503
0.0971635
0.0534047
0.0166935
4.65413
4.00804
3.41246
2.87239
2.39083
1.96862
1.6043
1.29456
1.03518
0.820358
0.644667
0.502135
0.386585
0.292611
0.215841
0.152252
0.0990416
0.0544723
0.0170458
4.65414
4.00807
3.4125
2.87244
2.39088
1.96868
1.60435
1.29462
1.03522
0.820401
0.644705
0.502169
0.386614
0.292634
0.21586
0.152267
0.0990521
0.0544787
0.017048
4.6564
4.01122
3.41481
2.87315
2.38977
1.96585
1.6001
1.28932
1.02929
0.814214
0.638609
0.496438
0.381465
0.28822
0.212272
0.149548
0.0971959
0.0534242
0.0167003
4.65745
4.0122
3.41409
2.86982
2.38359
1.95702
1.58914
1.27689
1.01611
0.800966
0.625872
0.484674
0.37103
0.279365
0.20513
0.144171
0.0935462
0.0513631
0.0160285
4.65857
4.01261
3.41171
2.86357
2.37321
1.94288
1.57203
1.25782
0.99611
0.781029
0.606826
0.467168
0.355554
0.266252
0.194553
0.136186
0.0880964
0.04826
0.0150097
4.66042
4.01381
3.40931
2.85601
2.36012
1.92479
1.55
1.23321
0.970321
0.755365
0.582367
0.444745
0.335778
0.249523
0.181068
0.126002
0.081132
0.0442832
0.0137049
4.66527
4.01963
3.41099
2.85104
2.34783
1.90578
1.52567
1.20534
0.940731
0.725724
0.554048
0.418779
0.312907
0.230215
0.165538
0.114297
0.073138
0.0397245
0.0122186
4.67248
4.02939
3.41636
2.84854
2.33648
1.88627
1.4997
1.17509
0.90839
0.6933
0.523143
0.390577
0.288229
0.209564
0.149124
0.102133
0.0650276
0.0352517
0.0108361
4.67496
4.02604
3.40114
2.81912
2.29351
1.8324
1.43865
1.11079
0.844424
0.632556
0.467631
0.341481
0.246071
0.174372
0.120597
0.0798992
0.0488015
0.0250166
0.0070158
4.67096
4.00359
3.35561
2.75039
2.20518
1.73044
1.32996
1.00196
0.740879
0.538178
0.384633
0.270638
0.18713
0.126455
0.0825995
0.0508907
0.0282495
0.012728
0.00289088
4.66581
3.97668
3.30196
2.67074
2.10471
1.61689
1.21173
0.886664
0.634317
0.444059
0.304629
0.204799
0.134509
0.0856157
0.0520156
0.0292363
0.0143895
0.00547902
0.000886375
4.66171
3.95203
3.25116
2.59464
2.00909
1.51019
1.10282
0.783138
0.541554
0.365027
0.240158
0.154192
0.0962472
0.0578813
0.0330084
0.0173246
0.00799559
0.00295684
0.000559471
4.65951
3.93102
3.20467
2.52344
1.9195
1.41129
1.00382
0.691498
0.46206
0.299814
0.189209
0.116124
0.0690625
0.0394719
0.0213963
0.0107512
0.00486129
0.00184672
0.000383926
4.66196
3.91793
3.16696
2.46132
1.83959
1.32319
0.916918
0.612971
0.396051
0.247667
0.150204
0.0883912
0.0503496
0.0275976
0.0144403
0.00711628
0.00324933
0.0012937
0.000293156
4.66413
3.90581
3.13149
2.40303
1.76564
1.2434
0.840418
0.546149
0.342025
0.206804
0.121074
0.0687466
0.0378423
0.0201498
0.0103621
0.00512131
0.00240949
0.0010128
0.000247993
4.66375
3.88994
3.09346
2.34495
1.69545
1.17085
0.773731
0.49039
0.298977
0.175797
0.100087
0.0553512
0.0297954
0.0156385
0.00803375
0.00403821
0.00196577
0.00086254
0.000221448
4.66005
3.86778
3.05021
2.28547
1.62862
1.1058
0.717121
0.445496
0.266095
0.153337
0.0856811
0.0466415
0.0248359
0.0129931
0.00672005
0.00343467
0.00170877
0.000764526
0.000198708
4.64987
3.83454
2.9976
2.22184
1.56358
1.04722
0.669502
0.410009
0.241573
0.137476
0.0760108
0.0410529
0.0217652
0.0113853
0.00591153
0.00303844
0.00151623
0.000675879
0.000172705
4.63318
3.79157
2.93816
2.15696
1.50267
0.996259
0.630696
0.38273
0.223663
0.126372
0.0694502
0.0373223
0.0197047
0.0102678
0.00530707
0.00270745
0.00133393
0.000582369
0.00014264
4.6204
3.76788
2.914
2.13863
1.49228
0.99292
0.632067
0.386367
0.227759
0.129927
0.0721151
0.0391286
0.0208397
0.0109407
0.00569085
0.00292599
0.00146769
0.000673387
0.00019223
4.6159
3.77173
2.93498
2.17692
1.54207
1.04618
0.681749
0.428059
0.259888
0.152981
0.0877112
0.0491834
0.0270688
0.0146808
0.00789019
0.00420345
0.00220499
0.00108198
0.000349433
4.61404
3.78227
2.96487
2.2247
1.60073
1.10704
0.737564
0.474498
0.29558
0.178641
0.105172
0.0605408
0.0341885
0.0190174
0.0104813
0.00572942
0.00308714
0.00155489
0.000510308
4.61513
3.79838
3.00091
2.27795
1.66369
1.17107
0.795743
0.522802
0.332834
0.20564
0.123764
0.0728232
0.0420345
0.0239035
0.0134754
0.00754147
0.00416216
0.00214278
0.000713994
4.61757
3.81641
3.0383
2.33136
1.72567
1.23355
0.852403
0.570021
0.369563
0.232602
0.142643
0.0855516
0.0503652
0.0292422
0.0168582
0.00966863
0.00547749
0.00289235
0.000984733
4.61862
3.8327
3.07285
2.3804
1.78226
1.29051
0.90423
0.613571
0.403873
0.258221
0.160966
0.0982269
0.0589219
0.0349335
0.0206288
0.0121665
0.00711291
0.00387899
0.00136164
4.62162
3.8512
3.10729
2.42653
1.83392
1.34179
0.950738
0.652835
0.435158
0.281993
0.178375
0.110643
0.0676327
0.0410131
0.0248999
0.0151942
0.00924246
0.00525398
0.00192153
4.62789
3.87163
3.14022
2.46793
1.87887
1.38581
0.990616
0.686777
0.462654
0.303408
0.194589
0.122717
0.0765785
0.0476874
0.0299659
0.0190951
0.0122128
0.00730661
0.00280719
4.63205
3.88554
3.16292
2.49672
1.91053
1.41743
1.02002
0.712693
0.48458
0.321414
0.209112
0.134368
0.0859785
0.055386
0.036393
0.0245021
0.0166451
0.0105437
0.00426271
4.63302
3.89142
3.1737
2.51135
1.92767
1.43577
1.03848
0.730428
0.501061
0.336377
0.222528
0.146368
0.0967664
0.0651686
0.0453224
0.0325715
0.0236126
0.0158069
0.00667808
4.63261
3.891
3.17392
2.51313
1.93175
1.44248
1.04769
0.741714
0.51383
0.350036
0.236603
0.160538
0.110828
0.0789779
0.0587169
0.045205
0.0348163
0.0243843
0.0106255
4.6294
3.88131
3.16101
2.50064
1.92259
1.43839
1.04927
0.748652
0.525303
0.365012
0.254103
0.179756
0.131131
0.0998267
0.0795621
0.0652283
0.0527152
0.0380777
0.0168708
4.61899
3.85797
3.13233
2.47318
1.90116
1.42575
1.04632
0.754908
0.539472
0.385478
0.279314
0.208389
0.16208
0.132096
0.112101
0.0965524
0.0806083
0.0592164
0.0263579
4.60534
3.82796
3.09616
2.43976
1.87677
1.41381
1.04773
0.768867
0.56421
0.418868
0.319324
0.253263
0.210273
0.182111
0.162251
0.144447
0.122776
0.0906977
0.0402026
4.59142
3.79571
3.05905
2.40899
1.85946
1.41324
1.06429
0.801124
0.609779
0.475071
0.383672
0.323579
0.284533
0.258189
0.237607
0.215462
0.184345
0.135853
0.0596318
4.57062
3.75682
3.02165
2.38579
1.85703
1.43364
1.10663
0.862796
0.687498
0.565412
0.483544
0.430253
0.395326
0.370101
0.346924
0.316968
0.270923
0.198233
0.0859564
4.54884
3.72642
3.00396
2.39191
1.89122
1.49588
1.19444
0.972427
0.814832
0.706391
0.634541
0.587988
0.55634
0.530296
0.501115
0.457997
0.389344
0.282243
0.12095
4.53806
3.7272
3.0328
2.45498
1.98901
1.62574
1.35213
1.15304
1.01353
0.918538
0.856003
0.814869
0.784251
0.753801
0.713283
0.649467
0.548122
0.393776
0.16739
4.54649
3.7761
3.12889
2.59726
2.17316
1.84595
1.60216
1.42666
1.30502
1.22257
1.16777
1.12969
1.0966
1.05672
0.997936
0.904162
0.758167
0.541433
0.23026
4.58503
3.89092
3.31231
2.83968
2.46497
2.17793
1.96587
1.81437
1.70999
1.63865
1.58937
1.5513
1.51156
1.4566
1.37216
1.23885
1.03579
0.740082
0.31996
4.65826
4.07807
3.59063
3.19124
2.87491
2.63343
2.45597
2.32957
2.24232
2.18104
2.13551
2.09498
2.04542
1.9714
1.85634
1.67705
1.40767
1.01762
0.459816
4.75934
4.32626
3.95276
3.64298
3.39663
3.20856
3.07068
2.97226
2.90361
2.85305
2.81154
2.76894
2.71048
2.61933
2.4768
2.25527
1.92143
1.43038
0.705709
4.87076
4.6074
4.36927
4.16758
4.00587
3.88212
3.79149
3.72639
3.68024
3.64394
3.61065
3.57199
3.51408
3.42048
3.27172
3.03581
2.66852
2.09934
1.19872
4.96967
4.88381
4.79933
4.7254
4.66548
4.61952
4.58605
4.56178
4.54435
4.52927
4.51362
4.49311
4.45918
4.40085
4.30245
4.13226
3.83449
3.29995
2.31011
)
;

boundaryField
{
    up
    {
        type            fixedValue;
        value           uniform 0;
    }
    low
    {
        type            fixedValue;
        value           uniform 5;
    }
    left
    {
        type            fixedValue;
        value           uniform 5;
    }
    right
    {
        type            fixedValue;
        value           uniform 5;
    }
    frontAndBackPlanes
    {
        type            empty;
    }
}


// ************************************************************************* //
