/*--------------------------------*- C++ -*----------------------------------*\
  =========                 |
  \\      /  F ield         | OpenFOAM: The Open Source CFD Toolbox
   \\    /   O peration     | Website:  https://openfoam.org
    \\  /    A nd           | Version:  7
     \\/     M anipulation  |
\*---------------------------------------------------------------------------*/
FoamFile
{
    version     2.0;
    format      ascii;
    class       volScalarField;
    location    "0.046";
    object      T;
}
// * * * * * * * * * * * * * * * * * * * * * * * * * * * * * * * * * * * * * //

dimensions      [0 0 0 1 0 0 0];

internalField   nonuniform List<scalar> 
1596
(
2.97
2.88646
2.8079
2.74465
2.69929
2.6696
2.65172
2.64118
2.63551
2.63176
2.62913
2.62606
2.61777
2.59727
2.55359
2.46505
2.29596
1.97988
1.38663
2.87452
2.62304
2.40655
2.23841
2.11927
2.04135
1.99404
1.96662
1.95211
1.94431
1.9408
1.93884
1.93175
1.90994
1.85964
1.75674
1.56894
1.24935
0.718929
2.77351
2.37158
2.04149
1.7905
1.61399
1.49868
1.4285
1.3882
1.36722
1.3572
1.35442
1.35566
1.3549
1.34364
1.3097
1.23186
1.08316
0.829111
0.419016
2.69125
2.17155
1.7546
1.44066
1.22018
1.0757
0.987229
0.936385
0.909838
0.897582
0.894735
0.897771
0.901872
0.900665
0.884959
0.838053
0.738438
0.559319
0.264846
2.64123
2.04267
1.56406
1.20323
0.948328
0.779853
0.675507
0.614869
0.58252
0.567115
0.562602
0.565034
0.570548
0.574719
0.571309
0.548287
0.489419
0.373676
0.173654
2.62336
1.98254
1.46374
1.06823
0.785366
0.595798
0.476505
0.405942
0.367161
0.347657
0.340205
0.34027
0.344455
0.34966
0.351939
0.343285
0.312257
0.242921
0.113919
2.62818
1.97401
1.43223
1.01155
0.705404
0.496601
0.36274
0.28194
0.236215
0.212054
0.201104
0.198119
0.199728
0.203512
0.206994
0.205193
0.190619
0.151926
0.0729813
2.64424
1.99588
1.44418
1.00609
0.680755
0.454495
0.306595
0.215505
0.162651
0.133686
0.119237
0.113309
0.112265
0.113881
0.116448
0.116978
0.110907
0.0907253
0.044967
2.66506
2.03316
1.48024
1.03066
0.689611
0.447645
0.286422
0.185231
0.125288
0.0915887
0.0738714
0.065418
0.0621784
0.061828
0.0629382
0.0636731
0.061396
0.0514957
0.0263981
2.68236
2.06954
1.52086
1.06513
0.712584
0.45783
0.28513
0.174935
0.108573
0.0706002
0.05006
0.0396102
0.0347717
0.032999
0.0328775
0.0331459
0.0322982
0.0276836
0.014671
2.69286
2.09603
1.55396
1.09647
0.736892
0.473052
0.291587
0.174214
0.102609
0.0611216
0.0383177
0.0263773
0.0204567
0.0177787
0.0168361
0.0166057
0.0161709
0.014074
0.00768584
2.70235
2.11782
1.58139
1.12345
0.759186
0.488732
0.300603
0.177625
0.10187
0.0575913
0.0330273
0.0199958
0.0133609
0.0101458
0.00872849
0.00815572
0.0077801
0.00679532
0.00379707
2.70884
2.13254
1.59987
1.14181
0.774705
0.500063
0.307618
0.180963
0.102473
0.0563641
0.0306698
0.0169706
0.00993466
0.00644837
0.00480285
0.00405328
0.00366165
0.0031446
0.00177575
2.70945
2.13575
1.60478
1.14714
0.779363
0.503407
0.309481
0.181518
0.102054
0.0553115
0.0292488
0.015352
0.00821116
0.0046582
0.00294848
0.00214102
0.00174325
0.00142173
0.000793654
2.70762
2.13108
1.59879
1.14099
0.773776
0.4987
0.305696
0.178555
0.0997577
0.053522
0.0278225
0.0141709
0.00718615
0.00372449
0.00205779
0.00126614
0.000885492
0.000652491
0.000346833
2.70435
2.12071
1.5839
1.1248
0.758785
0.486315
0.296312
0.171913
0.0952949
0.0506281
0.0259715
0.0129707
0.00637201
0.00312941
0.00158019
0.000849446
0.000504484
0.000321137
0.000154508
2.6981
2.10308
1.55904
1.09787
0.733997
0.466053
0.281237
0.161539
0.0885991
0.0465286
0.0235547
0.0115736
0.00556137
0.00264187
0.00126377
0.000621922
0.000324355
0.000177363
7.423e-05
2.68964
2.07912
1.52529
1.0614
0.700585
0.438975
0.261339
0.148069
0.0800894
0.0414612
0.0206759
0.00999344
0.00471115
0.00218413
0.00100927
0.000470679
0.000225652
0.000109775
4.00722e-05
2.68321
2.0551
1.4887
1.02052
0.662653
0.408166
0.238807
0.13296
0.0706707
0.0359477
0.0176098
0.00835633
0.00386298
0.00175201
0.000788267
0.000354628
0.000161337
7.2822e-05
2.40868e-05
2.67774
2.03078
1.44955
0.975786
0.620872
0.374355
0.214325
0.116777
0.0607571
0.0302588
0.0145156
0.00674498
0.00305225
0.00135382
0.000594505
0.000259968
0.000114102
4.91571e-05
1.53361e-05
2.6707
2.00318
1.40575
0.926081
0.574931
0.337725
0.188294
0.0999383
0.050682
0.0246209
0.0115289
0.00523194
0.00231294
0.00100218
0.000429667
0.000183147
7.8129e-05
3.26002e-05
9.83832e-06
2.66469
1.97572
1.36075
0.874548
0.527445
0.300283
0.162134
0.0833694
0.0410035
0.0193437
0.00880828
0.00389195
0.00167691
0.00070867
0.000296439
0.000123256
5.12501e-05
2.08426e-05
6.16059e-06
2.66146
1.9523
1.31907
0.825336
0.481693
0.264334
0.13731
0.0679186
0.0321709
0.0146443
0.00644897
0.00276188
0.00115578
0.000475216
0.000193664
7.85001e-05
3.18141e-05
1.26083e-05
3.65924e-06
2.66136
1.9356
1.2849
0.782829
0.441271
0.232337
0.115264
0.0543229
0.0245088
0.0106411
0.0044813
0.00184119
0.000741737
0.000294562
0.000116276
4.56966e-05
1.78772e-05
6.69961e-06
1.72183e-06
2.66991
1.94513
1.28811
0.77938
0.434305
0.225075
0.109519
0.0505175
0.0223018
0.00949314
0.00393579
0.00160157
0.000643772
0.000257177
0.000102967
4.12963e-05
1.64265e-05
6.03769e-06
1.3063e-06
2.68351
1.97542
1.32294
0.809424
0.455547
0.237864
0.11623
0.0536341
0.023599
0.00998576
0.00411146
0.00166436
0.000668821
0.000269311
0.000109919
4.55912e-05
1.90303e-05
7.41447e-06
1.72315e-06
2.69314
2.00437
1.36256
0.848654
0.486909
0.259104
0.128766
0.0601957
0.0266796
0.011292
0.00461343
0.00183896
0.000723615
0.00028492
0.000114406
4.74953e-05
2.04057e-05
8.39786e-06
2.10402e-06
2.69863
2.03032
1.40473
0.895617
0.528307
0.289805
0.148589
0.0715767
0.0325719
0.0140669
0.0058078
0.00230796
0.000889347
0.000335491
0.000126311
4.88624e-05
2.02354e-05
8.54943e-06
2.31689e-06
2.70257
2.05556
1.4499
0.949625
0.579122
0.330055
0.176437
0.0887936
0.0422306
0.0190334
0.00816546
0.00334313
0.00130679
0.000486089
0.000171559
5.76585e-05
1.97789e-05
7.55173e-06
2.16784e-06
2.70539
2.08025
1.49677
1.00828
0.637003
0.3784
0.211918
0.112206
0.0563402
0.0268831
0.0122313
0.00531245
0.00219679
0.000855644
0.000306605
9.58767e-05
2.48872e-05
5.78421e-06
1.36229e-06
2.70861
2.10634
1.54598
1.07085
0.700705
0.433905
0.254797
0.142218
0.075664
0.0384495
0.0187268
0.00875558
0.00392134
0.00166505
0.000653077
0.000220871
5.59398e-05
6.99839e-06
-4.04146e-07
2.71588
2.13811
1.60064
1.13909
0.77102
0.497041
0.305684
0.179734
0.101312
0.0548718
0.0286671
0.0144835
0.00707419
0.00331766
0.00146465
0.000574902
0.000177173
2.87311e-05
-2.99058e-06
2.72439
2.17114
1.65631
1.20913
0.844963
0.565884
0.363747
0.224869
0.134068
0.0772799
0.043252
0.0235867
0.0125514
0.00649842
0.00323468
0.00148767
0.000579635
0.00014907
-2.94042e-06
2.73312
2.20377
1.71129
1.27942
0.921293
0.639635
0.428792
0.27809
0.17497
0.107083
0.0640331
0.0375715
0.0216943
0.012334
0.00687449
0.00367461
0.00179445
0.000709623
0.000130194
2.74026
2.23106
1.75808
1.34077
0.990016
0.708482
0.492016
0.332163
0.218554
0.140489
0.0885978
0.0550437
0.0337963
0.0205461
0.0123562
0.00725022
0.00400675
0.00189256
0.000487596
2.74159
2.24181
1.78023
1.3729
1.02864
0.749469
0.531673
0.367833
0.248796
0.164895
0.107526
0.0692602
0.0442004
0.0279999
0.0175997
0.0108477
0.00635843
0.00324601
0.000953303
2.73851
2.24049
1.78428
1.38303
1.04377
0.767676
0.550907
0.386384
0.265509
0.179155
0.119189
0.0784834
0.0512862
0.033299
0.0214503
0.0135258
0.00808293
0.0041894
0.00124819
2.73666
2.24055
1.78887
1.39263
1.05751
0.784027
0.568208
0.403205
0.280847
0.192439
0.130237
0.0873779
0.0582493
0.0386068
0.0253803
0.0163105
0.00990954
0.005208
0.0015749
2.73659
2.24284
1.79481
1.40235
1.07027
0.79865
0.583435
0.41794
0.294309
0.204172
0.140088
0.0954032
0.0646136
0.0435228
0.0290664
0.0189515
0.0116573
0.00618923
0.00189234
2.73664
2.24472
1.79943
1.4098
1.08003
0.809882
0.595199
0.429413
0.30489
0.213492
0.148004
0.101929
0.0698513
0.0476151
0.0321665
0.0211915
0.0131485
0.00702987
0.0021658
2.73642
2.24537
1.8018
1.41411
1.08602
0.817001
0.602832
0.436993
0.311987
0.219828
0.153453
0.106474
0.0735393
0.0505244
0.0343877
0.0228052
0.0142259
0.00763736
0.00236345
2.73499
2.24372
1.80106
1.41463
1.08773
0.81962
0.606001
0.440367
0.315295
0.222881
0.156144
0.108764
0.0754266
0.0520326
0.0355515
0.023658
0.0147991
0.00796239
0.00247004
2.735
2.24374
1.80109
1.41466
1.08777
0.819654
0.606032
0.440394
0.315318
0.222899
0.156159
0.108775
0.0754354
0.0520394
0.0355566
0.0236617
0.0148016
0.00796388
0.00247055
2.73644
2.24543
1.80189
1.41421
1.08612
0.817103
0.602925
0.437073
0.312055
0.219884
0.153497
0.106508
0.0735657
0.0505445
0.0344028
0.0228162
0.0142334
0.00764179
0.00236499
2.73668
2.24482
1.79957
1.40996
1.08021
0.810046
0.595349
0.429543
0.304998
0.21358
0.148073
0.101982
0.0698923
0.0476461
0.0321896
0.0212081
0.0131598
0.00703651
0.00216809
2.73664
2.24297
1.795
1.40257
1.0705
0.798872
0.583636
0.418113
0.294453
0.204287
0.140178
0.0954723
0.0646659
0.0435618
0.029095
0.018972
0.0116711
0.0061973
0.00189511
2.73672
2.24073
1.78912
1.39291
1.0578
0.784303
0.568456
0.403418
0.281021
0.192576
0.130343
0.0874583
0.0583091
0.0386508
0.0254121
0.016333
0.00992451
0.00521666
0.00157785
2.73859
2.24069
1.78457
1.38337
1.04412
0.768003
0.551198
0.386629
0.265707
0.179309
0.119306
0.0785693
0.0513487
0.033344
0.0214821
0.0135478
0.0080973
0.00419754
0.00125089
2.74168
2.24205
1.78057
1.37329
1.02904
0.749848
0.532006
0.36811
0.249015
0.165062
0.107649
0.0693494
0.0442639
0.0280446
0.0176308
0.0108689
0.00637213
0.00325384
0.000956006
2.74037
2.2314
1.7586
1.34139
0.990666
0.709103
0.492566
0.332619
0.218913
0.14076
0.088795
0.0551834
0.0338934
0.0206129
0.0124022
0.00728184
0.00402831
0.00190605
0.000492734
2.73326
2.20417
1.71189
1.28012
0.922016
0.640308
0.42937
0.278556
0.175326
0.107343
0.0642168
0.0376984
0.0217808
0.0123926
0.00691439
0.00370174
0.00181229
0.000719916
0.000133589
2.72451
2.1715
1.65685
1.20975
0.845591
0.566449
0.364214
0.225228
0.134329
0.0774606
0.0433728
0.0236656
0.0126022
0.00653115
0.00325578
0.0015009
0.000587015
0.000151951
-2.7672e-06
2.716
2.13846
1.60116
1.13969
0.771603
0.497548
0.306087
0.18003
0.101515
0.0550053
0.0287511
0.0145349
0.00710515
0.00333618
0.00147561
0.000580949
0.000179736
2.89131e-05
-3.55015e-06
2.70873
2.10668
1.54648
1.07141
0.701237
0.434351
0.255137
0.142456
0.0758188
0.038545
0.0187831
0.00878758
0.00393907
0.00167464
0.000658019
0.000223025
5.63631e-05
6.49098e-06
-8.96178e-07
2.7055
2.08057
1.49724
1.0088
0.63748
0.378785
0.212198
0.112391
0.0564545
0.0269493
0.0122676
0.00533148
0.00220631
0.000860115
0.000308425
9.62867e-05
2.46039e-05
5.29358e-06
1.07351e-06
2.70267
2.05585
1.45033
0.95009
0.579537
0.330377
0.17666
0.088934
0.0423123
0.0190778
0.00818806
0.00335393
0.00131156
0.000487923
0.000172008
5.7494e-05
1.94215e-05
7.23901e-06
2.02925e-06
2.69871
2.03058
1.40511
0.89602
0.528655
0.290064
0.14876
0.0716793
0.0326284
0.0140957
0.00582142
0.00231388
0.000891621
0.000336145
0.000126304
4.86341e-05
1.99984e-05
8.39465e-06
2.26251e-06
2.69321
2.0046
1.36288
0.848988
0.487189
0.259305
0.128894
0.0602689
0.026718
0.0113106
0.00462171
0.00184231
0.000724769
0.000285184
0.000114354
4.73681e-05
2.03017e-05
8.34421e-06
2.08996e-06
2.68357
1.9756
1.3232
0.809688
0.455763
0.238015
0.116324
0.0536863
0.0236258
0.0099984
0.004117
0.00166659
0.000669634
0.000269557
0.000109962
4.55801e-05
1.90184e-05
7.41358e-06
1.72554e-06
2.66992
1.94518
1.28817
0.779447
0.434359
0.225113
0.109542
0.0505298
0.0223078
0.00949574
0.0039368
0.00160191
0.000643854
0.000257177
0.000102951
4.12842e-05
1.64219e-05
6.03646e-06
1.30378e-06
2.66133
1.93555
1.28484
0.782765
0.441215
0.232294
0.115235
0.0543041
0.0244976
0.0106347
0.00447787
0.00183942
0.000740861
0.000294141
0.000116078
4.5606e-05
1.78369e-05
6.68124e-06
1.71341e-06
2.66145
1.9523
1.31907
0.825337
0.481696
0.264337
0.137311
0.0679187
0.0321705
0.0146437
0.00644847
0.00276152
0.00115556
0.000475084
0.000193591
7.84617e-05
3.17945e-05
1.25983e-05
3.65445e-06
2.66469
1.97571
1.36075
0.874548
0.527446
0.300285
0.162135
0.0833698
0.0410036
0.0193435
0.0088081
0.00389179
0.00167679
0.000708592
0.000296392
0.000123229
5.12353e-05
2.08347e-05
6.15661e-06
2.6707
2.00318
1.40575
0.926081
0.574931
0.337726
0.188295
0.0999389
0.0506824
0.0246211
0.0115289
0.00523191
0.00231289
0.00100214
0.000429636
0.000183126
7.81172e-05
3.25937e-05
9.83405e-06
2.67774
2.03078
1.44955
0.975786
0.620872
0.374355
0.214326
0.116778
0.0607576
0.0302591
0.0145158
0.00674506
0.00305227
0.00135382
0.000594492
0.000259956
0.000114096
4.91546e-05
1.53317e-05
2.68321
2.0551
1.4887
1.02052
0.662652
0.408166
0.238807
0.13296
0.0706712
0.0359481
0.0176101
0.00835651
0.00386307
0.00175204
0.000788279
0.000354632
0.000161345
7.28318e-05
2.40837e-05
2.68964
2.07913
1.52529
1.0614
0.700584
0.438974
0.261339
0.148069
0.0800898
0.0414617
0.0206762
0.00999371
0.00471131
0.00218422
0.00100931
0.00047071
0.000225693
0.000109818
4.00735e-05
2.6981
2.10308
1.55904
1.09787
0.733996
0.466052
0.281236
0.161539
0.0885994
0.0465291
0.0235552
0.011574
0.00556162
0.00264202
0.00126386
0.000622009
0.000324481
0.000177491
7.42428e-05
2.70435
2.12071
1.5839
1.1248
0.758784
0.486314
0.296311
0.171913
0.0952953
0.0506287
0.0259722
0.0129713
0.00637236
0.00312962
0.00158035
0.00084966
0.000504815
0.000321461
0.000154544
2.70762
2.13109
1.59879
1.141
0.773775
0.498699
0.305694
0.178555
0.0997581
0.0535227
0.0278232
0.0141715
0.00718655
0.00372475
0.00205808
0.00126665
0.000886287
0.00065322
0.000346898
2.70945
2.13575
1.60479
1.14714
0.779362
0.503406
0.30948
0.181518
0.102055
0.0553123
0.0292496
0.0153526
0.00821157
0.00465856
0.00294909
0.00214219
0.00174497
0.00142317
0.000793719
2.70884
2.13255
1.59987
1.14181
0.774705
0.500062
0.307617
0.180963
0.102473
0.056365
0.0306706
0.0169711
0.00993509
0.006449
0.00480421
0.00405577
0.00366494
0.00314703
0.00177567
2.70236
2.11783
1.5814
1.12345
0.759186
0.488732
0.300603
0.177625
0.10187
0.0575921
0.033028
0.0199963
0.0133615
0.0101472
0.00873131
0.00816033
0.00778546
0.00679864
0.00379651
2.69286
2.09603
1.55396
1.09648
0.736894
0.473053
0.291588
0.174215
0.10261
0.0611222
0.0383181
0.0263778
0.0204578
0.0177815
0.0168412
0.0166129
0.016178
0.0140772
0.00768426
2.68236
2.06955
1.52086
1.06513
0.712586
0.457831
0.285131
0.174937
0.108574
0.0706006
0.0500604
0.0396111
0.0347741
0.0330039
0.0328852
0.033155
0.0323051
0.0276847
0.0146679
2.66506
2.03316
1.48024
1.03066
0.689612
0.447646
0.286423
0.185232
0.125289
0.091589
0.073872
0.0654199
0.0621825
0.061835
0.0629471
0.0636809
0.0613987
0.051492
0.0263937
2.64425
1.99588
1.44418
1.00609
0.680756
0.454495
0.306596
0.215506
0.162651
0.133687
0.119238
0.113312
0.112271
0.113889
0.116455
0.11698
0.110901
0.0907152
0.0449626
2.62818
1.97401
1.43223
1.01155
0.705403
0.496601
0.36274
0.28194
0.236215
0.212054
0.201106
0.198122
0.199733
0.203516
0.206994
0.205184
0.190602
0.151911
0.0729795
2.62337
1.98254
1.46374
1.06823
0.785364
0.595797
0.476503
0.40594
0.36716
0.347657
0.340206
0.340272
0.344456
0.349658
0.351928
0.343265
0.312234
0.242908
0.113922
2.64123
2.04267
1.56406
1.20323
0.948326
0.779851
0.675504
0.614867
0.582518
0.567114
0.562601
0.565032
0.570544
0.574708
0.571289
0.548261
0.489398
0.37367
0.173663
2.69124
2.17155
1.7546
1.44066
1.22017
1.0757
0.987226
0.936381
0.909835
0.897579
0.894731
0.897765
0.901861
0.900646
0.884936
0.838031
0.738429
0.559327
0.264857
2.7735
2.37158
2.04149
1.7905
1.61399
1.49868
1.42849
1.38819
1.36722
1.35719
1.35441
1.35565
1.35489
1.34362
1.30969
1.23185
1.08317
0.829128
0.419024
2.87451
2.62304
2.40655
2.23841
2.11927
2.04135
1.99404
1.96662
1.95211
1.9443
1.9408
1.93884
1.93175
1.90993
1.85964
1.75674
1.56896
1.24936
0.71893
2.96999
2.88646
2.8079
2.74465
2.69929
2.6696
2.65172
2.64118
2.63551
2.63175
2.62913
2.62606
2.61777
2.59727
2.55359
2.46506
2.29597
1.97989
1.38662
)
;

boundaryField
{
    up
    {
        type            fixedValue;
        value           uniform 0;
    }
    low
    {
        type            fixedValue;
        value           uniform 3;
    }
    left
    {
        type            fixedValue;
        value           uniform 3;
    }
    right
    {
        type            fixedValue;
        value           uniform 3;
    }
    frontAndBackPlanes
    {
        type            empty;
    }
}


// ************************************************************************* //
