/*--------------------------------*- C++ -*----------------------------------*\
  =========                 |
  \\      /  F ield         | OpenFOAM: The Open Source CFD Toolbox
   \\    /   O peration     | Website:  https://openfoam.org
    \\  /    A nd           | Version:  7
     \\/     M anipulation  |
\*---------------------------------------------------------------------------*/
FoamFile
{
    version     2.0;
    format      ascii;
    class       volScalarField;
    location    "0.09";
    object      gradTz;
}
// * * * * * * * * * * * * * * * * * * * * * * * * * * * * * * * * * * * * * //

dimensions      [0 -1 0 1 0 0 0];

internalField   nonuniform List<scalar> 
1596
(
-1.12923e-15
-5.36961e-16
5.58946e-16
2.42143e-17
-1.03086e-15
0
-4.61184e-16
-4.55114e-16
-4.78728e-17
-2.49124e-16
-1.15026e-18
-2.50913e-16
1.12922e-15
-2.5181e-16
1.16839e-15
1.01453e-15
6.05219e-16
7.69524e-16
0
1.11444e-15
0
1.48718e-15
-1.92311e-17
-4.23484e-16
4.17386e-16
9.06586e-16
4.65493e-17
4.20669e-16
-2.06361e-16
4.14509e-16
-3.25373e-18
-5.7883e-16
-3.66188e-16
-9.42743e-16
-9.2649e-16
-8.47398e-16
4.85928e-16
0
-5.27845e-16
0
-9.30684e-16
3.00572e-17
7.84583e-16
-2.52674e-16
3.46815e-17
-5.03817e-18
-3.80164e-18
-3.13652e-18
1.29116e-16
0
2.99787e-16
8.35909e-16
-8.34214e-17
7.04385e-17
1.63788e-16
2.67844e-16
0
8.53593e-16
-2.3036e-16
2.29518e-16
0
-2.1138e-16
-2.26739e-16
3.37755e-16
-2.59555e-16
0
0
-1.38271e-16
6.78651e-17
0
-2.3861e-16
-2.88407e-16
2.07656e-16
-2.35319e-16
-1.19619e-17
0
1.51899e-16
3.61131e-16
-2.90206e-16
0
-7.43891e-17
-2.32807e-16
0
3.25488e-16
-3.05158e-17
-2.77627e-17
-5.91964e-17
1.57316e-16
2.07018e-16
2.46053e-17
3.21909e-17
-2.24279e-16
1.10477e-17
1.05481e-16
-4.80295e-17
-3.94458e-17
-4.90624e-16
4.27706e-16
-3.33707e-16
-1.41887e-18
-2.44295e-16
6.511e-18
-6.53261e-18
-1.63576e-16
0
-4.70511e-17
-1.88751e-16
-1.85957e-16
1.37035e-16
1.76091e-16
-2.30791e-18
-1.05991e-16
-1.06988e-16
8.39047e-17
3.29655e-16
-4.96868e-16
4.98923e-16
2.51965e-16
0
1.9119e-16
9.83487e-17
-4.53935e-17
2.04401e-16
-3.5884e-17
-1.64922e-16
7.87395e-19
-8.8447e-17
-1.37443e-16
-9.69841e-17
8.99904e-17
1.06924e-16
-1.48281e-18
-3.37786e-17
5.63094e-17
8.02913e-16
-8.41691e-16
0
0
-2.14516e-16
0
0
0
1.0024e-16
0
0
8.36555e-17
1.38131e-18
3.86751e-17
-8.02627e-17
0
4.26878e-17
1.89084e-17
0
-4.93048e-16
9.22542e-16
0
0
2.20922e-16
0
-6.13945e-17
6.13324e-17
-1.0203e-16
3.77594e-17
-3.80356e-17
0
5.3771e-17
7.05854e-17
0
-4.02899e-17
-4.35233e-17
-1.6848e-17
1.35732e-15
-6.12115e-16
0
-3.17508e-16
3.13954e-16
0
1.62525e-16
0
0
0
2.98935e-17
-3.00368e-17
0
-4.25111e-17
-1.08885e-17
0
1.17442e-17
2.06796e-17
0
-3.45064e-16
0
0
3.22206e-16
-5.65363e-16
5.72234e-17
2.35941e-17
-5.29474e-17
1.26407e-17
4.24017e-18
-3.07816e-17
-4.02025e-17
0
2.82375e-17
-6.79093e-18
6.89285e-18
2.45767e-17
-1.68852e-17
-6.90965e-18
2.41358e-16
-5.22986e-17
2.3455e-16
6.99607e-16
-7.25137e-17
-2.48239e-16
0
0
0
6.58254e-17
2.08197e-17
6.89148e-17
-1.62393e-17
-2.77324e-17
-1.30382e-17
-8.76646e-18
4.08776e-18
-9.59452e-18
6.42273e-18
-2.95915e-16
2.92258e-16
-5.13899e-16
-6.93776e-16
6.05672e-16
1.86589e-16
-3.20357e-16
2.33341e-16
-1.67927e-16
4.46307e-17
2.50207e-17
-1.95838e-17
7.93938e-18
-8.08459e-18
2.54143e-17
0
-2.07672e-18
1.6829e-17
-2.58615e-18
-2.05906e-15
9.03122e-16
5.10402e-19
-1.41508e-16
3.91525e-17
1.8226e-16
-3.3206e-16
-1.09321e-16
7.69271e-17
-5.32373e-17
-3.68217e-17
0
-3.03518e-17
-8.26633e-18
-1.19907e-17
-6.76707e-18
5.0888e-19
-8.15905e-18
8.34457e-19
3.36326e-16
-2.78157e-16
-2.40744e-19
-1.76779e-16
-3.7348e-16
3.36038e-16
1.87762e-18
1.06534e-16
-7.48987e-17
1.01401e-16
2.1219e-17
1.44985e-17
3.26462e-17
0
2.02543e-17
8.84713e-18
0
3.7136e-18
5.26208e-19
0
2.69845e-16
1.73558e-16
-3.83571e-16
3.60129e-16
-4.9285e-16
3.08803e-16
8.50246e-17
-2.56601e-17
-1.05716e-16
1.31265e-17
-1.30618e-17
-2.79955e-17
8.72317e-18
-4.45507e-18
-7.87089e-18
2.74904e-18
-1.73558e-18
1.01268e-18
-3.12287e-16
9.40219e-16
-7.12149e-16
3.22467e-16
0
0
-4.82902e-17
1.11853e-16
-5.36067e-17
9.44308e-17
0
0
1.76519e-17
-1.33414e-17
-6.85086e-18
2.13739e-18
-2.19315e-18
1.20853e-18
0
4.69594e-17
2.92515e-16
-1.97714e-16
-1.57102e-16
-2.03213e-16
-3.20259e-17
8.33232e-17
0
-4.85804e-17
-2.90041e-17
2.40601e-17
-1.53237e-17
9.65316e-18
0
2.86376e-18
4.09584e-18
0
0
0
-4.60404e-17
3.83851e-16
1.04378e-16
-4.78285e-16
1.08171e-16
8.15408e-17
0
0
4.3702e-17
-2.37852e-17
-2.32713e-17
1.48208e-17
-9.33533e-18
0
-1.34955e-18
9.1183e-19
0
-6.36541e-19
-2.25676e-19
-2.2827e-16
6.71698e-16
-7.51662e-16
-2.40015e-16
1.33089e-16
-7.20641e-17
5.01243e-17
0
-2.23003e-17
1.57976e-17
0
0
2.91055e-18
-2.9139e-18
5.32729e-19
-8.96861e-19
8.53214e-19
1.92646e-19
1.73072e-19
1.28341e-16
-1.0509e-16
4.6224e-16
-2.91249e-16
-9.23245e-17
2.0207e-17
1.09743e-16
2.98994e-17
2.1338e-17
0
6.48482e-18
-5.85399e-18
3.57754e-18
-2.36059e-18
1.88064e-18
-2.73073e-18
-6.47633e-19
5.20194e-19
1.15209e-19
3.22466e-16
-3.37612e-16
0
2.05858e-16
-1.15629e-16
-6.24663e-17
2.61456e-17
-9.71271e-17
0
-1.45266e-18
-8.80345e-18
-4.37984e-18
4.48124e-18
-6.36016e-19
-1.8176e-18
1.05961e-18
0
2.38923e-19
-1.11867e-19
6.05621e-16
-9.35181e-17
3.3128e-16
-2.55816e-16
9.61149e-17
-1.46678e-17
-9.20398e-17
-1.95473e-17
3.15948e-17
-2.21992e-18
-9.40901e-18
6.8701e-18
-2.53248e-18
-2.13161e-18
0
0
0
-2.40344e-19
8.10447e-21
-5.021e-16
4.79037e-16
1.14326e-19
5.20434e-17
3.74957e-17
-6.79905e-17
6.90754e-17
-4.41481e-17
2.98475e-17
-6.05871e-18
1.0958e-17
2.4931e-18
-8.39389e-19
5.03712e-20
-1.12077e-19
-2.25352e-19
0
0
0
0
0
1.77864e-16
-1.19695e-16
-2.28894e-16
0
0
-1.23219e-17
-1.4933e-17
9.38067e-18
0
-3.14426e-18
1.80811e-18
-4.13883e-18
4.42925e-18
-9.60585e-19
1.01578e-18
8.95589e-20
0
-9.67678e-17
9.79588e-17
0
-5.65196e-17
5.4608e-17
7.09285e-17
0
1.24396e-17
8.83639e-18
-4.64585e-17
0
-3.71137e-18
2.15158e-18
1.09203e-18
-6.23612e-19
7.46584e-19
0
-2.01518e-19
0
-4.99064e-17
-4.47601e-17
2.63988e-18
5.80725e-17
-1.30824e-16
0
-2.23292e-17
0
3.67674e-17
1.076e-17
0
1.45363e-17
-1.24235e-17
1.73804e-18
-1.01099e-18
7.84141e-19
1.41156e-18
4.07319e-19
-3.22874e-19
0
9.82595e-17
-7.17312e-17
8.66559e-17
8.20788e-17
0
4.37511e-17
-3.78333e-17
-2.03317e-17
2.14677e-17
-3.12948e-17
-1.01951e-17
0
0
8.9775e-19
0
0
1.5772e-19
0
-4.59432e-16
3.57657e-16
0
9.34709e-18
-4.48826e-17
-2.09379e-18
3.13137e-17
1.40376e-17
-2.28763e-17
-3.48674e-17
4.03067e-17
-1.14174e-17
0
-2.66204e-18
0
0
0
-6.18118e-19
4.96518e-19
-1.35603e-16
1.16454e-16
2.70564e-16
-2.52392e-16
6.81899e-17
6.62998e-18
-3.16408e-17
2.20375e-17
2.981e-17
1.7154e-17
-3.30548e-17
0
8.49572e-18
-1.02305e-18
-3.03915e-18
-4.35912e-18
3.35592e-18
-3.06439e-19
6.79805e-19
-4.79519e-16
5.88061e-16
-5.70867e-16
8.66438e-17
6.15406e-17
-5.43201e-17
4.12029e-17
-2.51668e-17
0
-1.47677e-17
1.65848e-17
6.90302e-18
9.13521e-18
7.54744e-18
-1.05783e-17
-6.79069e-19
0
-3.34637e-19
1.1528e-19
-5.18128e-16
-1.36747e-16
-2.08857e-16
1.1775e-16
-1.51568e-16
1.12555e-16
-6.21737e-17
4.1651e-17
-5.61382e-18
-5.13291e-18
-2.02745e-17
1.35593e-17
-3.2543e-18
1.17774e-17
-1.26432e-17
5.01362e-19
9.92196e-19
0
-2.26497e-19
5.60209e-16
-1.49366e-16
0
0
-1.5561e-16
2.88884e-16
-6.1033e-17
-8.77636e-18
6.37126e-17
-2.1966e-18
0
0
-7.36839e-18
0
-1.23016e-17
2.66754e-17
-1.74645e-17
0
1.10672e-19
1.84454e-16
3.22312e-16
0
-1.17553e-16
-7.84919e-17
-5.60097e-17
-6.45563e-17
2.15337e-17
-5.53344e-17
-2.41087e-17
0
0
1.41799e-17
0
0
-1.9071e-17
3.23049e-17
0
0
1.26781e-15
-1.84535e-16
-6.95241e-16
-3.20175e-16
4.39288e-16
1.19776e-16
6.25953e-17
0
-1.77887e-17
1.44685e-17
3.59776e-17
-1.08338e-17
-1.24429e-17
1.81052e-17
-1.92584e-17
-4.6294e-18
0
0
0
1.01506e-16
-7.35643e-16
7.15761e-16
-6.20054e-17
-4.23789e-16
6.32781e-16
-3.01803e-16
0
0
1.07923e-16
-8.46752e-17
0
-1.90101e-17
3.43037e-17
-2.90024e-18
8.86956e-18
2.49187e-18
4.35444e-20
4.92769e-19
0
0
0
5.292e-16
-3.58142e-16
3.14216e-16
-4.76391e-16
1.27309e-16
0
-3.58829e-17
5.02374e-17
-5.13456e-17
-8.45656e-18
5.06663e-19
-5.0034e-18
-5.44607e-19
-3.93683e-18
-1.14761e-18
-5.98647e-19
8.31648e-16
-1.44165e-15
6.63011e-16
0
1.42899e-16
-1.96922e-16
1.68018e-16
-1.3247e-16
0
-4.93046e-17
6.95488e-17
0
0
4.72011e-19
0
-5.85476e-18
3.92161e-18
5.32418e-19
9.80863e-19
8.48666e-16
0
-2.86312e-16
3.18745e-16
-1.7339e-16
3.67856e-16
-1.66803e-16
-1.10906e-16
1.12064e-16
-1.01926e-17
0
0
5.32469e-18
-8.04882e-18
-5.50483e-18
1.02332e-17
-2.1948e-18
1.04027e-18
0
4.80489e-16
3.40423e-16
-2.99235e-17
-3.05801e-16
-2.78448e-17
-1.81482e-16
3.07817e-17
1.40878e-16
-6.5085e-18
1.0384e-17
0
0
-5.45479e-18
0
5.93817e-18
-6.35242e-18
0
7.88527e-19
-2.14551e-19
-2.54743e-16
-1.71143e-16
1.60586e-16
-1.67333e-17
-7.04656e-18
1.76798e-17
0
-4.04253e-18
5.43075e-17
-4.569e-17
0
1.26977e-17
-3.01704e-18
-1.06606e-17
-9.26694e-19
-7.04762e-19
0
-6.20022e-19
0
9.97035e-17
-1.85096e-16
2.24196e-18
7.31051e-17
5.89656e-17
-5.81267e-17
-3.58251e-17
4.0369e-17
-1.20244e-17
9.52907e-18
-8.00112e-18
8.24789e-18
0
1.85276e-20
-6.8045e-19
2.43398e-18
-8.14576e-21
0
0
9.97071e-17
-9.93334e-17
-7.27137e-17
6.47059e-17
1.03781e-16
-1.04394e-16
-1.79135e-17
1.79612e-17
-1.21299e-17
1.22555e-17
-8.00169e-18
1.47205e-17
-4.12932e-18
-2.74424e-18
-7.86773e-19
2.72971e-19
6.10465e-19
1.58666e-19
-1.18732e-19
0
-2.30271e-17
1.25952e-16
-1.37371e-16
1.0327e-16
-9.20467e-17
0
5.83902e-17
-5.25583e-17
0
1.57395e-17
-1.97581e-17
-1.01743e-17
1.06633e-17
1.81414e-18
0
0
-6.20296e-19
2.24083e-19
3.96267e-16
-7.11916e-16
6.86846e-16
-5.6691e-16
2.16537e-16
-1.58295e-16
1.51377e-16
1.57319e-17
-5.30835e-17
4.71844e-17
0
-2.77708e-17
2.53709e-17
-4.33972e-18
-1.77695e-18
2.58887e-18
1.86252e-18
6.02189e-19
-2.16516e-19
9.54194e-16
0
-3.25141e-16
2.53256e-16
2.75263e-17
-1.89311e-16
3.22022e-16
-2.63633e-16
9.97385e-17
-3.60259e-17
3.68756e-17
6.64997e-18
1.02053e-17
4.22693e-18
-3.15386e-18
-5.11165e-19
-3.99279e-18
0
3.70038e-19
7.27537e-16
-8.1907e-16
0
6.46577e-17
2.50484e-16
-2.41399e-16
3.62405e-17
2.93502e-17
1.20957e-17
1.87995e-17
0
0
-1.73931e-17
3.06171e-17
-1.08054e-17
-3.58495e-18
3.92492e-18
3.01075e-19
-6.9038e-19
1.10643e-16
7.20927e-16
-7.56189e-17
-4.65885e-16
4.10914e-16
4.35442e-17
-3.54679e-17
-2.86664e-17
8.09572e-17
-9.98779e-17
5.02734e-17
-5.13817e-17
6.21745e-18
-9.30229e-18
1.38327e-17
-9.34364e-18
0
0
5.44536e-19
0
1.74589e-16
-4.71952e-16
5.42434e-16
-3.72749e-16
3.71861e-16
0
9.62655e-17
-9.67066e-17
-5.89777e-17
8.47796e-17
0
2.71547e-17
-3.4351e-17
-4.77041e-18
0
-4.42071e-19
-7.07002e-19
-1.11005e-19
-1.756e-15
8.10348e-16
0
-4.39288e-16
4.39244e-16
2.24248e-16
-1.46e-16
4.9056e-17
0
-1.71228e-18
8.96336e-18
-1.08275e-17
-1.24382e-17
1.80979e-17
-1.9244e-17
0
3.00408e-18
-3.15589e-19
-4.48027e-19
1.05707e-15
-1.01776e-15
0
1.14928e-16
9.42317e-17
-8.01503e-17
0
-5.14111e-17
-3.57514e-17
0
-4.06574e-18
0
1.41995e-17
0
0
3.73506e-18
1.30968e-17
-1.75332e-17
0
-1.19476e-19
1.49446e-16
-1.25705e-16
8.2869e-17
-4.31442e-16
1.54825e-16
0
8.78771e-18
2.38483e-17
0
-1.84907e-17
3.97886e-17
-4.18002e-17
5.01614e-18
0
-1.28295e-18
0
0
0
-6.32009e-20
0
1.16183e-16
0
-1.33889e-16
1.36018e-16
0
3.17879e-17
-2.06552e-17
6.63659e-17
-3.01837e-17
7.52591e-18
-9.98719e-18
7.26437e-18
-1.26805e-17
-1.81022e-18
0
-5.45796e-19
0
3.96919e-16
-6.74749e-16
0
-8.48064e-17
6.62406e-17
0
0
-5.57547e-17
0
-1.47905e-17
-1.66139e-17
-6.917e-18
9.15665e-18
0
2.52163e-18
0
0
1.0593e-18
-1.02996e-18
0
5.41593e-16
-4.28985e-16
7.85113e-17
-6.13391e-17
-1.93633e-17
5.13454e-17
4.64995e-17
-4.29067e-17
1.3371e-17
2.74474e-18
-6.01332e-18
2.30433e-17
-6.79753e-18
-1.05479e-17
3.07125e-18
-4.89691e-19
3.02293e-19
-6.1716e-20
-9.89942e-16
3.58061e-16
0
0
2.30753e-17
-2.3465e-17
9.67708e-18
2.06933e-18
3.56554e-17
1.3405e-17
-1.19236e-17
-1.38324e-18
-3.54398e-18
2.66895e-18
0
6.56923e-19
4.48838e-19
1.71094e-19
5.57826e-20
0
2.86152e-16
-2.42373e-16
7.28201e-17
5.75527e-17
-1.04748e-17
-2.52944e-17
-1.72415e-17
-4.31191e-17
1.27294e-17
-4.01018e-18
8.045e-18
3.31406e-18
-2.60698e-18
2.76715e-18
1.00458e-18
-1.47369e-18
-1.58031e-19
0
-5.83637e-17
-2.32783e-16
7.32096e-17
5.80947e-17
-1.62452e-16
1.06756e-16
3.55081e-17
-3.62947e-17
1.93064e-17
-1.20808e-17
0
0
-3.64483e-18
5.89758e-18
-2.20304e-18
1.31006e-18
-1.44697e-18
1.82227e-19
-3.23305e-19
1.05468e-16
8.97022e-17
-7.15479e-17
3.97257e-17
-5.58467e-17
-5.82628e-17
0
0
0
0
0
0
1.91492e-18
-3.52382e-18
3.72682e-18
-7.61208e-19
9.77122e-19
3.55492e-19
-2.95823e-19
2.26143e-16
-3.17263e-16
3.92073e-16
-1.32147e-16
1.88623e-16
-9.05937e-17
1.53064e-16
-7.32837e-17
-2.35876e-17
2.41291e-17
0
3.14254e-18
-1.87077e-18
3.07462e-18
-1.50409e-18
-1.21313e-18
-1.68903e-18
1.5164e-19
2.43297e-19
3.56098e-16
8.84643e-17
0
-1.04121e-16
-6.237e-17
1.29487e-16
2.58451e-18
-3.35531e-17
1.69461e-17
-8.2516e-18
0
-2.48767e-18
0
-1.2055e-18
8.12733e-19
-5.61838e-19
-1.66378e-19
8.65127e-20
0
4.91554e-16
-9.35164e-17
3.3175e-16
-2.56677e-16
-4.04888e-17
1.21134e-16
-7.16537e-17
5.56774e-18
3.49717e-18
-8.58841e-18
7.32708e-18
0
0
1.72097e-18
-3.40818e-19
1.57431e-19
5.92329e-19
-1.96658e-19
0
3.24015e-20
0
-7.77562e-17
3.84192e-16
-2.48763e-16
-1.9508e-16
1.04559e-16
-7.12806e-17
6.13994e-17
2.19481e-17
-1.25751e-17
4.1444e-18
-3.18632e-18
7.64113e-19
2.91266e-18
-6.98196e-20
-6.3925e-19
5.78051e-19
-1.23588e-19
1.1524e-15
-3.57402e-16
1.27972e-16
-4.17205e-16
9.23243e-17
-1.1701e-16
6.7698e-17
0
0
-1.69085e-18
-2.93696e-18
-7.65211e-19
0
-3.19687e-18
-1.88064e-18
1.09489e-18
-6.82979e-20
1.82415e-19
2.71522e-19
0
-3.35738e-16
4.92707e-16
6.64861e-17
-3.39488e-16
7.20641e-17
-8.70957e-17
2.74846e-17
5.80969e-17
0
0
7.56933e-19
4.76854e-18
0
-2.42382e-18
-8.53798e-19
1.38692e-19
-2.78513e-19
-3.79431e-19
0
-1.92869e-16
8.30481e-17
3.33551e-16
1.87983e-16
-3.25997e-16
1.35731e-16
-6.57281e-17
3.7785e-17
-3.58865e-17
0
0
0
-5.84702e-18
7.32517e-19
-1.35624e-18
0
-6.04825e-20
2.87244e-19
-8.49105e-16
7.84671e-16
7.06172e-16
-8.46571e-16
3.18103e-16
-2.87468e-16
0
7.21859e-17
-9.18165e-17
4.51963e-17
-2.6263e-17
1.70021e-17
1.09234e-17
6.04711e-18
3.81184e-18
0
0
0
0
9.84436e-16
-5.15797e-16
0
0
-1.24533e-16
2.49595e-16
-1.56558e-16
-7.88388e-17
7.79502e-17
4.14569e-17
5.66342e-17
-1.76413e-17
6.32027e-18
3.46834e-18
2.12661e-18
1.72444e-18
2.64621e-18
-1.19034e-19
1.21247e-19
-9.77964e-16
8.57437e-16
3.90766e-16
-2.12507e-16
3.58705e-16
-2.25814e-16
-1.42427e-16
-1.01244e-16
0
-8.73047e-17
8.58262e-18
2.18929e-17
-1.31985e-17
-8.7236e-18
-2.71116e-18
-2.22577e-18
-1.79302e-18
0
0
-3.36353e-16
0
2.2412e-16
4.31339e-19
0
0
1.46918e-16
1.0447e-16
0
4.9611e-17
0
-3.25634e-17
-7.42287e-18
1.24581e-17
0
7.0685e-18
-9.21726e-19
9.40284e-19
0
7.3809e-16
0
4.12535e-16
-7.28566e-16
5.93805e-16
3.9114e-16
-2.60059e-17
0
1.25458e-17
6.56462e-17
0
-3.96321e-17
3.75349e-17
-3.07069e-17
-6.21638e-18
-5.47724e-18
-1.88071e-18
-4.03324e-19
-2.06907e-18
-6.4569e-16
9.19008e-16
-2.33311e-16
-5.50273e-16
-2.83549e-16
-2.13761e-16
-3.14723e-16
-9.84421e-17
1.65333e-17
2.50679e-17
-2.50208e-17
6.20413e-17
-2.55415e-17
4.48756e-17
-8.18568e-18
0
1.20285e-17
-8.15068e-18
1.94608e-18
1.51792e-15
-5.13747e-17
-9.82385e-16
6.99611e-16
-5.74683e-16
4.37144e-16
-2.62295e-17
-1.19195e-16
8.83297e-17
2.75425e-17
-6.71525e-18
-5.46159e-17
1.31321e-17
1.97527e-17
-4.72317e-18
4.77704e-18
-1.24586e-17
-4.75639e-18
-5.43475e-18
7.45163e-16
2.84967e-16
4.59061e-16
-3.59363e-16
-2.47466e-16
3.11946e-17
-1.41156e-16
3.29876e-16
1.83958e-17
1.13147e-16
5.90702e-17
-4.92326e-17
0
-2.82391e-17
0
0
2.93066e-17
1.14068e-17
6.15956e-18
6.76505e-16
0
4.45766e-16
3.57043e-16
-2.77154e-16
2.13637e-16
0
-1.23635e-16
-1.54949e-16
-1.17915e-16
-5.9593e-17
4.97892e-17
0
0
0
0
-2.76706e-17
-2.93678e-17
0
-1.32379e-15
0
-4.51401e-17
-4.13976e-17
4.2899e-16
-1.95359e-16
-8.03234e-17
-8.19898e-17
1.62188e-16
0
3.77597e-17
-3.72187e-18
4.33534e-17
0
0
6.49124e-17
-5.04119e-18
3.54017e-17
-1.84612e-17
9.16269e-16
2.35251e-16
-2.32822e-16
-1.84556e-16
-5.43562e-16
3.37073e-16
3.6108e-16
-2.03041e-17
-1.16855e-16
1.24929e-16
2.41432e-17
-1.33926e-16
-9.91142e-17
-7.96059e-17
-8.7971e-17
-7.52681e-17
8.20704e-17
-3.69847e-18
1.89082e-17
-2.72691e-16
1.13565e-16
-5.27245e-16
7.65734e-17
-7.62948e-17
0
-1.83684e-16
-2.99787e-17
-1.68664e-16
3.43523e-17
1.64921e-16
1.06815e-16
-2.99692e-17
-7.86981e-18
8.243e-17
0
-1.85596e-16
-7.81985e-17
-1.5679e-18
5.79754e-16
-1.39163e-17
8.28439e-16
-3.65715e-16
1.41886e-18
8.43622e-18
2.41766e-16
-4.13013e-17
1.63576e-16
-1.52044e-16
-1.45243e-16
0
1.85953e-16
1.34681e-16
2.22878e-18
-3.3037e-18
1.07036e-16
7.94309e-17
0
-4.06236e-16
0
-6.93752e-17
3.55738e-16
9.63268e-18
7.44885e-17
-2.33784e-16
2.14198e-16
2.56752e-16
2.49234e-16
2.45575e-16
0
-1.8065e-16
0
1.16802e-17
-1.21309e-17
0
-1.33196e-18
6.88827e-17
2.97904e-16
2.92031e-17
-1.87048e-16
5.97264e-16
-1.84603e-16
0
0
-3.25135e-16
-2.48766e-16
-2.41452e-16
-4.80254e-16
-6.78645e-17
0
0
0
-2.71678e-17
2.87503e-17
1.96308e-16
-6.99927e-17
3.12128e-17
0
-4.45886e-16
-3.7317e-16
4.13168e-16
-4.14467e-16
-5.79658e-16
6.68617e-16
2.12314e-16
0
2.9963e-16
3.82452e-16
-8.2241e-17
4.63714e-16
-7.70944e-17
8.02365e-17
3.26574e-16
-1.86572e-16
0
-5.62771e-16
0
-5.21545e-16
5.04314e-16
0
8.41654e-16
3.83231e-16
-8.45958e-16
7.15472e-16
-2.28052e-18
-2.08474e-16
-3.70292e-16
0
5.74448e-16
-9.42743e-16
1.0187e-15
-1.29993e-15
0
0
5.6428e-16
-7.53138e-18
-1.82159e-17
-1.0422e-15
1.06766e-15
-5.05726e-16
5.03665e-16
4.97002e-16
-4.05503e-16
0
0
8.60888e-16
-8.75719e-16
-9.07553e-16
9.0784e-16
-8.90923e-16
9.69159e-16
-1.52398e-15
0
)
;

boundaryField
{
    up
    {
        type            calculated;
        value           nonuniform List<scalar> 
84
(
0
0
0
0
-4.80295e-17
8.39047e-17
-3.37786e-17
1.89084e-17
-1.6848e-17
0
-6.90965e-18
6.42273e-18
-2.58615e-18
8.34457e-19
5.26208e-19
1.01268e-18
0
0
-2.25676e-19
1.73072e-19
1.15209e-19
-1.11867e-19
8.10447e-21
0
3.99661e-20
2.68822e-20
-2.91922e-19
0
4.96518e-19
7.74162e-19
1.1528e-19
-2.26497e-19
1.10672e-19
0
9.21546e-21
4.90689e-19
-5.8431e-19
9.68541e-19
0
-2.10898e-19
0
0
-1.18226e-19
2.24083e-19
-2.16516e-19
3.70038e-19
-6.9038e-19
5.44536e-19
-1.11005e-19
-4.48027e-19
0
0
0
-1.02996e-18
-1.56994e-19
5.57826e-20
0
-3.23305e-19
-2.95823e-19
2.03397e-19
0
0
-1.23588e-19
2.71522e-19
-3.79431e-19
2.87244e-19
0
1.21247e-19
0
0
-2.06907e-18
1.94608e-18
-5.43475e-18
6.15956e-18
0
-1.84612e-17
1.89082e-17
-1.5679e-18
0
6.88827e-17
-6.99927e-17
0
0
0
)
;
    }
    low
    {
        type            calculated;
        value           nonuniform List<scalar> 
84
(
-1.13093e-15
1.11444e-15
-5.24762e-16
8.55999e-16
1.53463e-16
-3.98885e-17
3.33222e-16
5.96012e-17
0
1.3611e-15
-3.45064e-16
2.38913e-16
-2.95915e-16
-2.05994e-15
3.36326e-16
0
-3.12287e-16
4.69594e-17
-4.60404e-17
-2.2827e-16
1.28341e-16
3.22466e-16
6.02441e-16
-5.021e-16
0
-9.67678e-17
-4.99064e-17
0
-4.59432e-16
-1.35603e-16
-4.77799e-16
-5.17045e-16
5.59822e-16
1.84454e-16
1.26876e-15
1.01506e-16
0
8.31648e-16
8.5191e-16
4.82185e-16
-2.55622e-16
9.97035e-17
9.97071e-17
0
3.96267e-16
9.57438e-16
7.27537e-16
1.13249e-16
0
-1.75695e-15
1.05707e-15
-1.19476e-19
-6.32009e-20
3.96919e-16
0
-9.86275e-16
0
-5.83637e-17
1.05468e-16
2.23874e-16
3.52413e-16
4.88373e-16
3.24015e-20
1.1503e-15
0
0
-8.49105e-16
9.84155e-16
-9.7812e-16
-3.36353e-16
7.38974e-16
-6.4569e-16
1.52281e-15
7.48248e-16
6.76505e-16
-1.32379e-15
9.12978e-16
-2.69125e-16
5.79754e-16
-4.04672e-16
2.97904e-16
3.42961e-17
-5.62771e-16
5.6513e-16
)
;
    }
    left
    {
        type            calculated;
        value           nonuniform List<scalar> 
19
(
-1.12923e-15
-5.37637e-16
5.58946e-16
2.45892e-17
-1.03181e-15
0
-4.61184e-16
-4.55114e-16
-5.02476e-17
-2.49124e-16
-1.15026e-18
-2.50913e-16
1.14024e-15
-2.5181e-16
1.16839e-15
1.01453e-15
6.05219e-16
8.92903e-16
0
)
;
    }
    right
    {
        type            calculated;
        value           nonuniform List<scalar> 
19
(
5.6428e-16
-6.85513e-18
-1.82159e-17
-1.04257e-15
1.06861e-15
-5.05726e-16
5.03665e-16
4.97002e-16
-4.03128e-16
0
0
8.69152e-16
-8.86728e-16
-9.07553e-16
9.0784e-16
-8.90923e-16
9.69159e-16
-1.64736e-15
0
)
;
    }
    frontAndBackPlanes
    {
        type            empty;
    }
}


// ************************************************************************* //
