/*--------------------------------*- C++ -*----------------------------------*\
  =========                 |
  \\      /  F ield         | OpenFOAM: The Open Source CFD Toolbox
   \\    /   O peration     | Website:  https://openfoam.org
    \\  /    A nd           | Version:  7
     \\/     M anipulation  |
\*---------------------------------------------------------------------------*/
FoamFile
{
    version     2.0;
    format      ascii;
    class       volScalarField;
    location    "0.2";
    object      gradTx;
}
// * * * * * * * * * * * * * * * * * * * * * * * * * * * * * * * * * * * * * //

dimensions      [0 -1 0 1 0 0 0];

internalField   nonuniform List<scalar> 
1596
(
-0.194517
-0.975623
-1.74445
-2.43264
-3.03371
-3.54457
-3.9889
-4.38211
-4.74598
-5.1218
-5.52243
-5.99778
-6.60552
-7.42744
-8.55855
-10.2335
-12.8118
-17.0689
-24.6086
0.0432949
-0.810524
-1.56751
-2.21784
-2.77543
-3.24261
-3.64098
-3.97835
-4.27125
-4.54174
-4.79383
-5.05531
-5.33785
-5.65778
-6.00841
-6.37473
-6.657
-6.64959
-5.9144
0.238635
-0.658526
-1.39012
-1.99467
-2.50172
-2.92031
-3.2692
-3.55362
-3.78475
-3.9748
-4.12358
-4.24632
-4.34171
-4.40982
-4.43565
-4.39144
-4.19817
-3.71581
-2.6671
0.271177
-0.574374
-1.24102
-1.78213
-2.22988
-2.59621
-2.89584
-3.13291
-3.31455
-3.44718
-3.52969
-3.56982
-3.56346
-3.50666
-3.38734
-3.18339
-2.84487
-2.2889
-1.35145
0.0854953
-0.593925
-1.14664
-1.60223
-1.98074
-2.29118
-2.54255
-2.73776
-2.88072
-2.97393
-3.01677
-3.01214
-2.95624
-2.84464
-2.66963
-2.41583
-2.05457
-1.53948
-0.777327
-0.301538
-0.731125
-1.1275
-1.47602
-1.77488
-2.0249
-2.22786
-2.38455
-2.49591
-2.5615
-2.58125
-2.55472
-2.47884
-2.34945
-2.162
-1.90575
-1.56512
-1.11471
-0.502619
-0.815672
-0.974861
-1.19268
-1.41835
-1.62824
-1.81249
-1.96517
-2.08388
-2.16668
-2.21067
-2.21583
-2.17935
-2.09859
-1.96949
-1.78927
-1.54989
-1.24315
-0.855088
-0.357067
-1.35333
-1.27891
-1.32394
-1.42364
-1.54073
-1.65595
-1.75666
-1.83681
-1.89171
-1.91642
-1.91036
-1.86909
-1.78997
-1.66887
-1.50375
-1.28801
-1.0173
-0.683717
-0.271486
-1.90929
-1.67067
-1.56287
-1.5362
-1.55332
-1.59057
-1.63112
-1.66561
-1.68695
-1.6884
-1.66834
-1.62112
-1.54365
-1.43143
-1.28238
-1.09049
-0.853002
-0.564937
-0.217148
-2.24328
-1.94543
-1.74792
-1.63094
-1.56899
-1.54076
-1.52907
-1.52291
-1.51386
-1.49414
-1.46111
-1.40856
-1.33296
-1.22965
-1.09629
-0.927343
-0.720683
-0.472839
-0.178199
-2.5167
-2.19464
-1.94355
-1.75987
-1.63122
-1.5426
-1.47967
-1.43169
-1.38998
-1.34645
-1.29761
-1.237
-1.16065
-1.06368
-0.943353
-0.794264
-0.61429
-0.400523
-0.149112
-2.79707
-2.47368
-2.18939
-1.9534
-1.76492
-1.61682
-1.49971
-1.40498
-1.32491
-1.25174
-1.18149
-1.10766
-1.02581
-0.93077
-0.819244
-0.685765
-0.527808
-0.342434
-0.126412
-2.87778
-2.59774
-2.32054
-2.06815
-1.8495
-1.66499
-1.51069
-1.38126
-1.27097
-1.17331
-1.08455
-0.998633
-0.911082
-0.816766
-0.712106
-0.591738
-0.452815
-0.292322
-0.107244
-2.90296
-2.66986
-2.41531
-2.16355
-1.92966
-1.72043
-1.5372
-1.37844
-1.24103
-1.12023
-1.01309
-0.914283
-0.819528
-0.723858
-0.623511
-0.513224
-0.389838
-0.25018
-0.0912507
-2.90557
-2.71483
-2.4879
-2.24637
-2.0074
-1.78226
-1.57677
-1.39328
-1.23153
-1.08895
-0.963718
-0.851483
-0.748327
-0.649541
-0.551272
-0.448353
-0.337341
-0.214873
-0.0778455
-2.8432
-2.6981
-2.50477
-2.28343
-2.05129
-1.82202
-1.60469
-1.40495
-1.22542
-1.06574
-0.925594
-0.80177
-0.690948
-0.58883
-0.491628
-0.39434
-0.29335
-0.185158
-0.0665431
-2.71211
-2.61075
-2.45456
-2.26103
-2.04609
-1.82414
-1.60606
-1.39997
-1.21092
-1.04071
-0.890577
-0.758616
-0.642276
-0.537821
-0.441683
-0.349121
-0.256478
-0.160219
-0.0570601
-2.55529
-2.48221
-2.35895
-2.19469
-2.00195
-1.79426
-1.58316
-1.37828
-1.18653
-1.01155
-0.856054
-0.719416
-0.599928
-0.49448
-0.399808
-0.311475
-0.225878
-0.139537
-0.0491981
-2.42392
-2.37347
-2.27527
-2.13452
-1.96054
-1.76556
-1.56127
-1.35833
-1.16511
-0.986766
-0.82729
-0.687163
-0.565393
-0.459386
-0.366106
-0.281307
-0.201399
-0.122969
-0.042863
-2.1869
-2.16687
-2.09845
-1.98754
-1.84132
-1.67001
-1.48444
-1.29529
-1.11163
-0.939682
-0.784411
-0.647354
-0.528296
-0.425285
-0.335651
-0.255427
-0.181103
-0.109441
-0.0376713
-1.92102
-1.92499
-1.88353
-1.80116
-1.68337
-1.53849
-1.37608
-1.20621
-1.03805
-0.87831
-0.732576
-0.60317
-0.490537
-0.393341
-0.3093
-0.234691
-0.165939
-0.0997656
-0.033881
-1.64085
-1.6601
-1.64085
-1.58447
-1.49442
-1.37711
-1.24063
-1.09405
-0.946128
-0.803627
-0.672265
-0.554845
-0.452268
-0.363769
-0.287513
-0.220063
-0.157584
-0.0960513
-0.0326312
-1.3273
-1.35377
-1.35247
-1.3209
-1.25987
-1.17342
-1.06779
-0.950534
-0.829504
-0.710969
-0.600301
-0.500455
-0.412549
-0.336369
-0.270738
-0.212865
-0.158868
-0.10339
-0.0397956
-0.970936
-0.957012
-0.922624
-0.868384
-0.798061
-0.716994
-0.631312
-0.546544
-0.467422
-0.396798
-0.335895
-0.284479
-0.241163
-0.204338
-0.172426
-0.143532
-0.114953
-0.0819867
-0.0365731
-0.648885
-0.719174
-0.791499
-0.851746
-0.890441
-0.90228
-0.88693
-0.847446
-0.789843
-0.720805
-0.64626
-0.571397
-0.499157
-0.432186
-0.372286
-0.320469
-0.275593
-0.234327
-0.188839
-0.218712
-0.249631
-0.289067
-0.329215
-0.364239
-0.390077
-0.405318
-0.410035
-0.406247
-0.396363
-0.381767
-0.364095
-0.342941
-0.318767
-0.292542
-0.266922
-0.243541
-0.224236
-0.208707
0.212307
0.174412
0.119599
0.0550652
-0.0122593
-0.0766012
-0.134263
-0.183282
-0.223729
-0.256607
-0.282165
-0.300874
-0.311172
-0.31224
-0.304269
-0.290506
-0.27412
-0.258937
-0.246206
0.641513
0.589706
0.514164
0.422884
0.323673
0.22344
0.127331
0.038499
-0.041972
-0.114309
-0.178251
-0.233445
-0.277209
-0.306832
-0.32053
-0.320861
-0.311981
-0.299931
-0.287895
1.02782
0.953452
0.852573
0.734475
0.607225
0.477967
0.352114
0.232923
0.121624
0.0179398
-0.0780845
-0.16601
-0.242501
-0.302801
-0.34189
-0.359728
-0.359895
-0.350603
-0.337924
1.42579
1.32316
1.19344
1.04629
0.890047
0.732103
0.577932
0.430633
0.291272
0.159137
0.0335754
-0.0857981
-0.196112
-0.291444
-0.363071
-0.406229
-0.420865
-0.415959
-0.401575
1.7229
1.58812
1.43058
1.25956
1.0832
0.908057
0.738546
0.576665
0.422622
0.274805
0.131487
-0.00928799
-0.146477
-0.274957
-0.383498
-0.461413
-0.500331
-0.504965
-0.487625
1.99803
1.83604
1.65157
1.45749
1.26236
1.07194
0.889567
0.716216
0.551383
0.392746
0.2377
0.0824944
-0.0748239
-0.232781
-0.381536
-0.507306
-0.590469
-0.622756
-0.610993
2.24942
2.05185
1.83865
1.62287
1.41202
1.2103
1.01963
0.839883
0.66996
0.507145
0.348542
0.189381
0.0249381
-0.148698
-0.328124
-0.505039
-0.654446
-0.750244
-0.766617
2.40771
2.15643
1.90009
1.65011
1.41201
1.18811
0.978879
0.783295
0.599833
0.425732
0.258067
0.0920886
-0.0781234
-0.260615
-0.460863
-0.684425
-0.920391
-1.14707
-1.32347
2.50117
2.22794
1.96935
1.73224
1.51693
1.32168
1.14389
0.980794
0.829953
0.688979
0.556103
0.429145
0.305541
0.181258
0.0507142
-0.0975911
-0.274602
-0.492768
-0.756379
2.56698
2.28604
2.03695
1.81658
1.61985
1.44245
1.28049
1.13102
0.991854
0.861196
0.738135
0.622086
0.512526
0.409408
0.313219
0.223301
0.138416
0.0540819
-0.0383546
2.42133
2.10121
1.82937
1.59506
1.39017
1.209
1.04686
0.900243
0.766526
0.643407
0.529543
0.423979
0.325854
0.234979
0.152042
0.0778411
0.0139902
-0.0374833
-0.0756553
2.11913
1.82953
1.58726
1.38099
1.20261
1.04629
0.907441
0.782616
0.66934
0.565521
0.469952
0.381806
0.300296
0.22509
0.156333
0.0939849
0.0382137
-0.0105828
-0.0525711
1.75603
1.51419
1.31113
1.13867
0.990248
0.860846
0.746498
0.644168
0.551698
0.467266
0.389787
0.318489
0.252585
0.191628
0.135538
0.0840851
0.0372597
-0.00462331
-0.0416577
1.31945
1.1336
0.979025
0.848891
0.737734
0.64139
0.556651
0.48108
0.412974
0.350899
0.293997
0.241641
0.193185
0.148243
0.106722
0.0684384
0.0334138
0.00195525
-0.0259436
0.829752
0.705896
0.606101
0.523711
0.454177
0.394359
0.342004
0.295464
0.25361
0.215509
0.180592
0.148444
0.118631
0.0908877
0.0651376
0.0412575
0.0192664
-0.000606282
-0.0183154
0.318204
0.268024
0.229065
0.197349
0.170686
0.147756
0.127686
0.109861
0.0938642
0.0793477
0.0660897
0.053918
0.0426516
0.0321648
0.022396
0.0132689
0.00475883
-0.0030747
-0.0102214
-0.318051
-0.267682
-0.228595
-0.196793
-0.170077
-0.147119
-0.127042
-0.109226
-0.0932522
-0.0787714
-0.0655595
-0.0534427
-0.0422389
-0.0318214
-0.0221272
-0.0130789
-0.0046502
0.00310166
0.0101681
-0.829609
-0.705593
-0.605687
-0.523224
-0.453646
-0.393808
-0.34145
-0.294923
-0.253096
-0.215033
-0.180163
-0.14807
-0.11832
-0.0906462
-0.0649699
-0.0411672
-0.0192555
0.000538258
0.0181711
-1.31931
-1.13331
-0.97862
-0.848407
-0.737198
-0.640826
-0.556075
-0.48051
-0.412422
-0.350379
-0.293516
-0.241207
-0.192804
-0.14792
-0.106459
-0.068236
-0.0332707
-0.00186824
0.025979
-1.75592
-1.51398
-1.31085
-1.13834
-0.989876
-0.860457
-0.746106
-0.643786
-0.551339
-0.466937
-0.389499
-0.318247
-0.252394
-0.191491
-0.135456
-0.0840569
-0.0372832
0.00455214
0.0415437
-2.11906
-1.8294
-1.58706
-1.38075
-1.20234
-1.046
-0.907145
-0.782327
-0.669068
-0.565277
-0.469743
-0.381639
-0.300175
-0.225018
-0.156309
-0.0940058
-0.0382722
0.0104973
0.0524723
-2.42133
-2.10117
-1.82929
-1.59493
-1.39002
-1.20884
-1.0467
-0.900089
-0.766396
-0.643311
-0.52949
-0.423977
-0.325911
-0.235099
-0.152226
-0.0780794
-0.0142592
0.0372253
0.0754565
-2.56698
-2.28582
-2.03645
-1.81578
-1.61876
-1.4411
-1.27892
-1.12925
-0.989933
-0.859157
-0.736007
-0.61989
-0.510275
-0.407111
-0.310891
-0.220999
-0.136273
-0.0523857
0.0391324
-2.50162
-2.22912
-1.9713
-1.73492
-1.52029
-1.32566
-1.1484
-0.985768
-0.835319
-0.694684
-0.562116
-0.435468
-0.31222
-0.188406
-0.0585151
0.0888696
0.264711
0.481626
0.744315
-2.40752
-2.15592
-1.89921
-1.64888
-1.41044
-1.18625
-0.976776
-0.781001
-0.597399
-0.423207
-0.255497
-0.0895166
0.080656
0.26308
0.463283
0.686933
0.923331
1.15103
1.32921
-2.24958
-2.05221
-1.83919
-1.62355
-1.41281
-1.21117
-1.02056
-0.840849
-0.67095
-0.50815
-0.349561
-0.190418
-0.0259854
0.147678
0.327228
0.504447
0.654368
0.750807
0.767641
-1.99812
-1.83627
-1.65191
-1.45792
-1.26286
-1.0725
-0.890159
-0.716832
-0.552015
-0.393386
-0.238341
-0.0831242
0.0742379
0.232304
0.381271
0.507366
0.590909
0.623507
0.611898
-1.723
-1.58835
-1.43093
-1.26001
-1.08372
-0.908634
-0.739156
-0.57729
-0.423246
-0.275413
-0.132063
0.00876774
0.146054
0.274692
0.383455
0.46163
0.500782
0.505558
0.488254
-1.42588
-1.32339
-1.1938
-1.04675
-0.890592
-0.732704
-0.57856
-0.431266
-0.291887
-0.159714
-0.0340912
0.0853706
0.19581
0.291307
0.363126
0.406469
0.421243
0.41641
0.402049
-1.0279
-0.953669
-0.852914
-0.734922
-0.607752
-0.478543
-0.35271
-0.23351
-0.122179
-0.018439
0.077663
0.165691
0.242309
0.302757
0.341995
0.35996
0.360211
0.350963
0.338304
-0.641604
-0.589935
-0.514523
-0.423352
-0.324221
-0.224032
-0.127932
-0.0390768
0.0414449
0.113856
0.177891
0.233197
0.277085
0.306836
0.32065
0.321072
0.312252
0.300236
0.288221
-0.212386
-0.17463
-0.119948
-0.0555229
0.0117276
0.0760343
0.1337
0.182757
0.223269
0.256233
0.28189
0.300708
0.311117
0.31229
0.304407
0.290709
0.274366
0.259214
0.246511
0.218524
0.249069
0.288118
0.327919
0.362674
0.388347
0.403534
0.408297
0.404637
0.394941
0.380564
0.363127
0.342201
0.318231
0.292176
0.266696
0.243429
0.224246
0.208893
0.649012
0.719662
0.792427
0.853128
0.892237
0.904403
0.889268
0.849879
0.79226
0.723117
0.648402
0.573336
0.500879
0.4337
0.373614
0.321644
0.276648
0.235289
0.189718
0.970794
0.956512
0.921763
0.867207
0.79665
0.715445
0.629724
0.545002
0.465993
0.395524
0.334797
0.283562
0.240417
0.203748
0.171971
0.143191
0.114709
0.08183
0.0365086
1.32737
1.35392
1.3527
1.3212
1.2602
1.17376
1.06811
0.95082
0.829739
0.711151
0.600431
0.500541
0.4126
0.336395
0.270747
0.212864
0.158861
0.103382
0.0397926
1.64086
1.66011
1.64087
1.58449
1.49444
1.37713
1.24064
1.09405
0.946126
0.803616
0.672249
0.554824
0.452247
0.363748
0.287494
0.220048
0.157573
0.0960449
0.0326303
1.92103
1.92501
1.88355
1.80118
1.68338
1.5385
1.37609
1.20621
1.03804
0.878298
0.73256
0.603153
0.49052
0.393325
0.309287
0.234681
0.165932
0.0997623
0.0338803
2.1869
2.16688
2.09846
1.98755
1.84133
1.67001
1.48444
1.29528
1.11163
0.939669
0.784397
0.647339
0.528282
0.425274
0.335642
0.255421
0.181099
0.109439
0.0376707
2.42393
2.37348
2.27529
2.13453
1.96056
1.76557
1.56127
1.35832
1.1651
0.986756
0.827279
0.687152
0.565383
0.459377
0.366099
0.281303
0.201396
0.122967
0.0428624
2.5553
2.48222
2.35896
2.1947
2.00196
1.79427
1.58316
1.37828
1.18653
1.01154
0.856044
0.719406
0.59992
0.494472
0.399803
0.311471
0.225874
0.139535
0.0491974
2.71211
2.61076
2.45457
2.26104
2.0461
1.82414
1.60605
1.39996
1.21091
1.0407
0.890568
0.758608
0.642269
0.537815
0.441677
0.349117
0.256474
0.160217
0.0570593
2.84321
2.69811
2.50478
2.28344
2.05129
1.82202
1.60469
1.40495
1.22541
1.06574
0.925586
0.801762
0.690941
0.588823
0.491621
0.394334
0.293345
0.185155
0.0665423
2.90557
2.71484
2.48791
2.24638
2.0074
1.78225
1.57677
1.39327
1.23153
1.08894
0.96371
0.851475
0.748318
0.649533
0.551264
0.448346
0.337335
0.21487
0.0778448
2.90297
2.66987
2.41532
2.16356
1.92966
1.72043
1.5372
1.37844
1.24102
1.12023
1.01308
0.914274
0.819519
0.723849
0.623502
0.513216
0.389832
0.250177
0.0912504
2.87779
2.59775
2.32055
2.06816
1.84951
1.66499
1.51069
1.38125
1.27096
1.1733
1.08454
0.998625
0.911073
0.816756
0.712097
0.59173
0.45281
0.29232
0.107244
2.79707
2.47368
2.18939
1.9534
1.76491
1.61681
1.4997
1.40497
1.32489
1.25172
1.18148
1.10765
1.0258
0.930759
0.819234
0.685758
0.527803
0.342432
0.126413
2.51671
2.19465
1.94356
1.75987
1.63122
1.5426
1.47966
1.43168
1.38997
1.34644
1.2976
1.23699
1.16064
1.06368
0.943346
0.79426
0.614289
0.400524
0.149114
2.2433
1.94545
1.74792
1.63094
1.56899
1.54075
1.52906
1.52291
1.51385
1.49413
1.46111
1.40855
1.33296
1.22964
1.09629
0.927343
0.720686
0.472843
0.178201
1.90931
1.67068
1.56287
1.5362
1.55332
1.59057
1.63112
1.6656
1.68694
1.6884
1.66834
1.62111
1.54365
1.43143
1.28238
1.09049
0.853009
0.564942
0.21715
1.35335
1.27891
1.32394
1.42364
1.54073
1.65595
1.75666
1.83681
1.89171
1.91641
1.91035
1.86908
1.78997
1.66888
1.50376
1.28802
1.0173
0.683723
0.271487
0.815684
0.974868
1.19269
1.41835
1.62825
1.81249
1.96517
2.08388
2.16667
2.21067
2.21583
2.17935
2.0986
1.9695
1.78928
1.5499
1.24316
0.855093
0.357067
0.301547
0.731131
1.12751
1.47602
1.77488
2.0249
2.22786
2.38455
2.49591
2.5615
2.58125
2.55472
2.47885
2.34946
2.16201
1.90576
1.56513
1.11471
0.502618
-0.0854906
0.593932
1.14664
1.60223
1.98074
2.29119
2.54255
2.73776
2.88072
2.97393
3.01677
3.01215
2.95624
2.84465
2.66964
2.41584
2.05457
1.53948
0.777325
-0.271176
0.574379
1.24102
1.78213
2.22988
2.59621
2.89584
3.13291
3.31456
3.44719
3.5297
3.56982
3.56347
3.50667
3.38735
3.1834
2.84487
2.2889
1.35145
-0.238636
0.658527
1.39012
1.99467
2.50172
2.92031
3.2692
3.55362
3.78475
3.97481
4.12358
4.24632
4.34171
4.40982
4.43565
4.39143
4.19817
3.7158
2.6671
-0.043295
0.810524
1.56751
2.21784
2.77543
3.24261
3.64098
3.97835
4.27125
4.54175
4.79383
5.05531
5.33785
5.65778
6.0084
6.37472
6.65698
6.64958
5.9144
0.194519
0.975624
1.74445
2.43264
3.0337
3.54457
3.9889
4.38211
4.74598
5.1218
5.52243
5.99778
6.60551
7.42743
8.55854
10.2334
12.8118
17.0689
24.6086
)
;

boundaryField
{
    up
    {
        type            calculated;
        value           nonuniform List<scalar> 
84
(
-24.6086
-5.9144
-2.6671
-1.35145
-0.777327
-0.502619
-0.357067
-0.271486
-0.217148
-0.178199
-0.149112
-0.126412
-0.107244
-0.0912507
-0.0778455
-0.0665431
-0.0570601
-0.0491981
-0.042863
-0.0376713
-0.033881
-0.0326312
-0.0397956
-0.0365731
-0.160822
-0.194054
-0.23102
-0.270709
-0.317635
-0.376739
-0.455058
-0.560526
-0.687442
-1.30265
-0.779827
-0.0397143
-0.0754328
-0.0524024
-0.0415622
-0.0259087
-0.0183034
-0.010222
0.0101687
0.0181593
0.0259445
0.0414489
0.0523046
0.0752345
0.0404723
0.767474
1.30942
0.688364
0.561311
0.455635
0.377185
0.317999
0.271026
0.231323
0.194319
0.161614
0.0365086
0.0397926
0.0326303
0.0338803
0.0376707
0.0428624
0.0491974
0.0570593
0.0665423
0.0778448
0.0912504
0.107244
0.126413
0.149114
0.178201
0.21715
0.271487
0.357067
0.502618
0.777325
1.35145
2.6671
5.9144
24.6086
)
;
    }
    low
    {
        type            calculated;
        value           nonuniform List<scalar> 
84
(
-0.175228
0.0725421
0.285839
0.322459
0.117718
-0.307496
-0.864693
-1.43564
-2.00448
-2.32152
-2.58544
-2.85245
-2.90159
-2.9074
-2.89785
-2.81758
-2.67108
-2.51021
-2.3691
-2.11402
-1.83925
-1.5572
-1.24543
-0.899076
-0.59269
-0.198423
0.189203
0.584133
0.954356
1.35259
1.66326
1.94988
2.21782
2.39746
2.50785
2.59358
2.46878
2.16985
1.80126
1.35543
0.853578
0.328166
-0.328012
-0.853431
-1.35528
-1.80113
-2.16976
-2.46875
-2.59354
-2.50822
-2.39728
-2.21794
-1.94996
-1.66335
-1.35268
-0.954442
-0.584229
-0.189283
0.198241
0.592815
0.898944
1.24549
1.55721
1.83926
2.11402
2.36911
2.51022
2.67109
2.81759
2.89785
2.9074
2.90159
2.85244
2.58544
2.32154
2.00449
1.43565
0.864706
0.307506
-0.117714
-0.32246
-0.285844
-0.0725451
0.175229
)
;
    }
    left
    {
        type            calculated;
        value           nonuniform List<scalar> 
19
(
-0.172819
-0.937139
-1.72193
-2.43421
-3.06135
-3.59615
-4.06402
-4.48291
-4.87446
-5.29017
-5.74258
-6.28754
-6.9999
-7.98851
-9.37237
-11.481
-14.8132
-20.4524
-21.3433
)
;
    }
    right
    {
        type            calculated;
        value           nonuniform List<scalar> 
19
(
0.17282
0.937143
1.72193
2.43421
3.06135
3.59615
4.06402
4.48291
4.87446
5.29017
5.74258
6.28753
6.99989
7.98849
9.37235
11.481
14.8132
20.4524
21.3433
)
;
    }
    frontAndBackPlanes
    {
        type            empty;
    }
}


// ************************************************************************* //
