/*--------------------------------*- C++ -*----------------------------------*\
  =========                 |
  \\      /  F ield         | OpenFOAM: The Open Source CFD Toolbox
   \\    /   O peration     | Website:  https://openfoam.org
    \\  /    A nd           | Version:  7
     \\/     M anipulation  |
\*---------------------------------------------------------------------------*/
FoamFile
{
    version     2.0;
    format      ascii;
    class       volScalarField;
    location    "0.2";
    object      T;
}
// * * * * * * * * * * * * * * * * * * * * * * * * * * * * * * * * * * * * * //

dimensions      [0 0 0 1 0 0 0];

internalField   nonuniform List<scalar> 
1596
(
3.98777
3.95277
3.91724
3.88409
3.85423
3.82744
3.80323
3.78028
3.75762
3.73294
3.70443
3.6696
3.62318
3.55806
3.46342
3.31548
3.07021
2.6397
1.8477
3.9472
3.83844
3.73668
3.64457
3.56247
3.4893
3.42346
3.36217
3.3029
3.24129
3.17356
3.09507
2.99778
2.87201
2.7061
2.47864
2.15703
1.68556
0.958876
3.89941
3.71687
3.55408
3.40985
3.28263
3.17013
3.06973
2.9777
2.89061
2.8032
2.71087
2.60826
2.48701
2.33782
2.1507
1.90925
1.5916
1.16464
0.567048
3.85254
3.60134
3.38373
3.19382
3.02774
2.88198
2.75303
2.63661
2.52877
2.42391
2.31723
2.20322
2.07402
1.92128
1.7368
1.50823
1.22091
0.855226
0.375482
3.81405
3.50394
3.23859
3.00883
2.80902
2.63466
2.48164
2.34535
2.22156
2.10465
1.9898
1.87162
1.74281
1.59593
1.42407
1.21759
0.966165
0.657691
0.270816
3.78862
3.43269
3.12732
2.86298
2.63342
2.43374
2.25952
2.10604
1.96898
1.84281
1.72281
1.6037
1.47871
1.34107
1.1847
1.00161
0.783983
0.523745
0.207398
3.77669
3.38947
3.05231
2.75838
2.50232
2.27958
2.08583
1.91648
1.76724
1.63277
1.50847
1.38921
1.2686
1.14036
0.9989
0.837257
0.648996
0.428146
0.165482
3.77525
3.37052
3.00997
2.69149
2.41198
2.16801
1.9558
1.77112
1.60993
1.46711
1.33821
1.21826
1.10117
0.981011
0.852488
0.709261
0.545664
0.356795
0.135751
3.7814
3.37076
2.9947
2.65663
2.35665
2.09312
1.86328
1.66354
1.49023
1.33856
1.20427
1.08254
0.967549
0.853609
0.735615
0.607624
0.464404
0.301578
0.113493
3.78929
3.38017
2.99543
2.64287
2.32587
2.04497
1.79879
1.58462
1.39935
1.23858
1.09831
0.973872
0.859677
0.750245
0.640601
0.525073
0.398686
0.257314
0.0960183
3.79544
3.39076
3.00219
2.63977
2.30946
2.01393
1.7533
1.52593
1.32939
1.15977
1.01335
0.885678
0.771362
0.665109
0.562053
0.456728
0.344336
0.220869
0.0818052
3.80288
3.40432
3.01457
2.64529
2.3044
1.99641
1.72296
1.4835
1.27637
1.0982
0.945609
0.814324
0.699165
0.594992
0.497028
0.399971
0.299148
0.190609
0.0700815
3.80973
3.41792
3.02856
2.6545
2.30521
1.98674
1.70211
1.45186
1.2351
1.04902
0.89057
0.755687
0.639361
0.536585
0.442652
0.352388
0.261215
0.165213
0.0602821
3.81365
3.42713
3.03873
2.66143
2.30565
1.97869
1.68475
1.42534
1.20033
1.00742
0.843889
0.705876
0.588517
0.486908
0.3964
0.311921
0.228974
0.143656
0.0519963
3.81676
3.43378
3.04581
2.66573
2.30455
1.97047
1.66866
1.40149
1.16949
0.970851
0.80312
0.662599
0.544534
0.444098
0.35667
0.27726
0.20143
0.12529
0.0449698
3.81967
3.4391
3.05072
2.66766
2.30144
1.961
1.65233
1.37851
1.14064
0.937303
0.76627
0.623945
0.50564
0.406557
0.322079
0.247265
0.177718
0.109558
0.0389896
3.82138
3.44198
3.05234
2.66591
2.29476
1.9485
1.63378
1.35432
1.11168
0.904722
0.731376
0.588081
0.470157
0.372789
0.291334
0.220871
0.157031
0.0959368
0.0338585
3.82235
3.44294
3.0512
2.66089
2.28465
1.93277
1.61254
1.32821
1.0817
0.872083
0.697351
0.553903
0.437002
0.341772
0.263508
0.197287
0.138749
0.0840176
0.0294171
3.82502
3.44588
3.05148
2.65656
2.27461
1.9167
1.59084
1.30179
1.05175
0.839972
0.664398
0.521318
0.405875
0.313072
0.238104
0.17602
0.122449
0.0735039
0.0255465
3.82857
3.45061
3.05351
2.65351
2.26527
1.90087
1.56909
1.27526
1.02186
0.80822
0.632194
0.489883
0.376242
0.286102
0.214524
0.156507
0.107661
0.0640744
0.0221249
3.8312
3.4546
3.05505
2.64994
2.25525
1.88421
1.54647
1.24796
0.991449
0.776301
0.600222
0.459068
0.347552
0.260289
0.192182
0.138184
0.0938951
0.0553909
0.0190284
3.83402
3.45892
3.05714
2.64702
2.24582
1.868
1.52421
1.22099
0.96141
0.744877
0.568904
0.429063
0.319782
0.235428
0.170727
0.12059
0.0806588
0.0470574
0.0161097
3.83752
3.46452
3.06084
2.64589
2.23822
1.85356
1.50358
1.19552
0.932761
0.714737
0.53877
0.40013
0.292948
0.211312
0.149752
0.103136
0.067217
0.0383428
0.0130162
3.84142
3.47109
3.06591
2.64643
2.23252
1.84116
1.48506
1.17213
0.906063
0.686336
0.510094
0.372322
0.266874
0.187554
0.128668
0.0850032
0.0524429
0.0277639
0.00835767
3.84793
3.48686
3.08784
2.67161
2.25839
1.86567
1.5067
1.18998
0.919666
0.695638
0.515382
0.374141
0.265926
0.184601
0.124447
0.0801597
0.0475915
0.0236638
0.00623353
3.85526
3.50792
3.12135
2.71541
2.3096
1.92099
1.56284
1.24396
0.969067
0.738791
0.551355
0.402783
0.287722
0.200495
0.135599
0.0877103
0.0524702
0.0265016
0.0072846
3.85908
3.52111
3.14468
2.74848
2.3509
1.96817
1.61309
1.29437
1.01698
0.78204
0.588436
0.432957
0.310998
0.217513
0.147417
0.0955002
0.0572777
0.0291114
0.00815372
3.85943
3.52609
3.15709
2.76973
2.38096
2.00576
1.65602
1.33994
1.06236
0.824665
0.626227
0.464538
0.335795
0.235752
0.159971
0.10356
0.0620296
0.0315199
0.00887124
3.8576
3.52541
3.16182
2.78265
2.4032
2.0369
1.69436
1.38298
1.10722
0.868444
0.666364
0.499068
0.363533
0.256419
0.174177
0.112507
0.0671126
0.0339606
0.00953836
3.85387
3.52075
3.1616
2.79053
2.42101
2.06474
1.73092
1.42592
1.15361
0.915212
0.71059
0.538276
0.395915
0.281074
0.191277
0.123161
0.0729659
0.0366353
0.0102243
3.84924
3.51483
3.16017
2.79754
2.43857
2.0932
1.76916
1.47172
1.20412
0.967285
0.761118
0.584426
0.435312
0.312078
0.213344
0.136996
0.0803612
0.039813
0.0109889
3.8461
3.51158
3.16203
2.80829
2.46028
2.12628
1.8126
1.52345
1.26142
1.02711
0.820386
0.640171
0.484767
0.352859
0.243867
0.156952
0.091097
0.044086
0.0118428
3.84346
3.50974
3.16613
2.822
2.48561
2.16365
1.86108
1.58114
1.32577
1.0953
0.889505
0.707374
0.547198
0.407643
0.288297
0.188978
0.110207
0.0521212
0.0128352
3.84116
3.50931
3.17267
2.83906
2.51508
2.20591
1.91529
1.64553
1.39806
1.17294
0.969942
0.788159
0.625877
0.481566
0.354427
0.243862
0.150468
0.0757778
0.0202652
3.83835
3.50725
3.17606
2.85126
2.53797
2.24006
1.96018
1.69989
1.46013
1.24076
1.04154
0.861715
0.699691
0.553937
0.42329
0.306274
0.202113
0.1112
0.0338888
3.8324
3.49602
3.1644
2.8426
2.53445
2.24272
1.96921
1.71481
1.48006
1.2645
1.06785
0.889346
0.727511
0.580984
0.448801
0.329496
0.222054
0.126067
0.0405079
3.82421
3.4789
3.1434
2.82116
2.51476
2.22602
1.95601
1.70506
1.47331
1.26005
1.06485
0.886953
0.724948
0.577652
0.444427
0.324193
0.216457
0.121396
0.0383885
3.81766
3.46533
3.12691
2.80447
2.49961
2.21338
1.94624
1.69809
1.46879
1.25741
1.06348
0.886232
0.724354
0.576807
0.44317
0.322562
0.214697
0.119949
0.037794
3.81336
3.4561
3.11554
2.79294
2.48919
2.2048
1.93977
1.69368
1.46616
1.25616
1.06313
0.886373
0.7246
0.576882
0.442941
0.322018
0.21396
0.119282
0.0375369
3.8102
3.44933
3.1072
2.78448
2.48155
2.19849
1.935
1.69041
1.46419
1.25518
1.06283
0.886433
0.724752
0.576923
0.442769
0.32162
0.213418
0.118792
0.0373561
3.80789
3.44433
3.10106
2.77824
2.47588
2.19375
1.93132
1.68776
1.46244
1.25412
1.06225
0.886125
0.724534
0.576656
0.442387
0.321116
0.212855
0.118323
0.0371802
3.80574
3.4403
3.09639
2.77366
2.47175
2.19026
1.92853
1.68564
1.4609
1.25306
1.06154
0.885652
0.724195
0.576373
0.442112
0.320831
0.212575
0.118105
0.0371075
3.80575
3.44031
3.09642
2.77368
2.47178
2.19029
1.92856
1.68567
1.46093
1.25309
1.06156
0.885677
0.724218
0.576393
0.442129
0.320844
0.212585
0.118111
0.0371095
3.80791
3.44438
3.10112
2.77832
2.47597
2.19385
1.93142
1.68785
1.46253
1.25421
1.06233
0.886203
0.724605
0.576719
0.44244
0.321157
0.212885
0.118341
0.0371867
3.81023
3.4494
3.1073
2.7846
2.48169
2.19864
1.93515
1.69056
1.46434
1.25532
1.06296
0.886558
0.724864
0.57702
0.442851
0.321685
0.213464
0.11882
0.0373658
3.8134
3.4562
3.11568
2.7931
2.48938
2.20499
1.93997
1.69388
1.46636
1.25635
1.06331
0.886538
0.724748
0.577011
0.443048
0.322102
0.21402
0.119318
0.0375494
3.81771
3.46545
3.12707
2.80467
2.49983
2.21362
1.94649
1.69834
1.46904
1.25765
1.0637
0.886435
0.724535
0.576963
0.4433
0.322663
0.21477
0.119992
0.0378087
3.82426
3.47903
3.14359
2.82139
2.51502
2.2263
1.9563
1.70535
1.47359
1.26032
1.0651
0.887184
0.725152
0.577827
0.44457
0.324302
0.216532
0.12144
0.0384023
3.83246
3.49617
3.16462
2.84286
2.53475
2.24304
1.96954
1.71514
1.48038
1.26481
1.06813
0.889597
0.727728
0.581162
0.448936
0.329589
0.222108
0.126091
0.0405128
3.83842
3.50746
3.1764
2.8517
2.5385
2.24066
1.96082
1.70056
1.46082
1.24145
1.04222
0.862377
0.700329
0.554545
0.423861
0.306797
0.202564
0.111532
0.0340292
3.84124
3.50956
3.17307
2.83959
2.51572
2.20664
1.91608
1.64637
1.39892
1.1738
0.970792
0.788986
0.626668
0.482308
0.355103
0.244447
0.150926
0.0760731
0.0203706
3.84353
3.50996
3.16648
2.82247
2.48617
2.16429
1.86178
1.58186
1.32651
1.09602
0.890208
0.708039
0.547811
0.408188
0.288757
0.189332
0.110441
0.0522369
0.0128583
3.84617
3.51177
3.16236
2.80874
2.46082
2.12689
1.81326
1.52413
1.2621
1.02777
0.821015
0.64075
0.485281
0.353296
0.244212
0.157198
0.0912474
0.0441578
0.0118609
3.8493
3.51501
3.16047
2.79796
2.43908
2.09377
1.76977
1.47235
1.20475
0.967887
0.761678
0.584928
0.435745
0.312431
0.213611
0.13718
0.0804726
0.0398682
0.011004
3.85392
3.52091
3.16188
2.79091
2.42148
2.06528
1.7315
1.4265
1.15418
0.915755
0.711086
0.538711
0.396281
0.281364
0.191492
0.123307
0.0730553
0.0366809
0.0102373
3.85764
3.52556
3.16208
2.783
2.40364
2.03739
1.69489
1.38352
1.10774
0.86893
0.666801
0.499445
0.363844
0.256661
0.174355
0.112628
0.0671877
0.0339999
0.00954996
3.85946
3.52622
3.15732
2.77004
2.38135
2.00621
1.6565
1.34042
1.06282
0.825095
0.626609
0.464863
0.33606
0.235957
0.160121
0.103663
0.0620947
0.0315549
0.00888205
3.85911
3.52122
3.14488
2.74876
2.35125
1.96857
1.61352
1.2948
1.01739
0.782416
0.588768
0.433238
0.311225
0.217689
0.147547
0.0955906
0.0573363
0.0291442
0.00816448
3.85529
3.50801
3.12152
2.71565
2.3099
1.92134
1.56321
1.24433
0.969425
0.739118
0.551643
0.403025
0.287919
0.200648
0.135713
0.0877918
0.0525249
0.0265338
0.00729619
3.84793
3.48688
3.08788
2.67168
2.25847
1.86577
1.50681
1.19009
0.919776
0.69574
0.515471
0.374215
0.265984
0.184644
0.124476
0.080176
0.0475981
0.0236639
0.00623162
3.84141
3.47107
3.06587
2.64638
2.23245
1.84109
1.48498
1.17206
0.906001
0.686281
0.510047
0.372283
0.26684
0.187526
0.128643
0.0849824
0.0524255
0.0277509
0.00835118
3.83751
3.46452
3.06083
2.64588
2.23821
1.85355
1.50357
1.19552
0.932764
0.714743
0.538778
0.40014
0.292958
0.211322
0.14976
0.103143
0.0672219
0.0383456
0.0130168
3.83401
3.45892
3.05713
2.64701
2.24582
1.868
1.5242
1.22099
0.961414
0.744883
0.568912
0.429071
0.31979
0.235435
0.170733
0.120595
0.0806622
0.0470593
0.0161102
3.8312
3.4546
3.05504
2.64994
2.25525
1.8842
1.54647
1.24796
0.991453
0.776306
0.600228
0.459075
0.347558
0.260294
0.192187
0.138188
0.0938976
0.0553923
0.0190288
3.82857
3.45061
3.05351
2.65351
2.26527
1.90087
1.56909
1.27526
1.02186
0.808225
0.632199
0.489888
0.376247
0.286107
0.214527
0.15651
0.107663
0.0640755
0.0221252
3.82502
3.44588
3.05148
2.65656
2.27461
1.91671
1.59084
1.30179
1.05176
0.839976
0.664402
0.521322
0.405879
0.313075
0.238107
0.176022
0.122451
0.0735047
0.0255467
3.82235
3.44294
3.05119
2.66089
2.28465
1.93277
1.61254
1.32821
1.0817
0.872087
0.697355
0.553906
0.437005
0.341775
0.26351
0.197289
0.138751
0.0840183
0.0294172
3.82138
3.44198
3.05234
2.66592
2.29477
1.9485
1.63378
1.35433
1.11168
0.904724
0.731378
0.588084
0.470159
0.372791
0.291335
0.220873
0.157032
0.0959372
0.0338586
3.81967
3.43911
3.05072
2.66766
2.30144
1.96101
1.65233
1.37851
1.14065
0.937305
0.766272
0.623947
0.505642
0.406558
0.322081
0.247266
0.177718
0.109558
0.0389896
3.81676
3.43378
3.04581
2.66573
2.30455
1.97047
1.66866
1.40149
1.1695
0.970852
0.803121
0.6626
0.544536
0.444098
0.356671
0.277261
0.20143
0.12529
0.0449697
3.81365
3.42713
3.03873
2.66143
2.30565
1.9787
1.68475
1.42534
1.20033
1.00742
0.843889
0.705877
0.588517
0.486908
0.3964
0.311921
0.228973
0.143655
0.0519962
3.80973
3.41792
3.02856
2.65451
2.30521
1.98674
1.70211
1.45186
1.2351
1.04902
0.89057
0.755687
0.639361
0.536584
0.442651
0.352386
0.261214
0.165212
0.060282
3.80288
3.40432
3.01458
2.64529
2.3044
1.99641
1.72296
1.4835
1.27637
1.0982
0.945607
0.814323
0.699163
0.59499
0.497026
0.399969
0.299147
0.190608
0.0700814
3.79545
3.39076
3.00219
2.63977
2.30946
2.01393
1.7533
1.52593
1.32939
1.15977
1.01335
0.885676
0.771359
0.665106
0.56205
0.456725
0.344334
0.220868
0.0818053
3.78929
3.38017
2.99543
2.64287
2.32587
2.04497
1.79879
1.58462
1.39934
1.23858
1.0983
0.973869
0.859673
0.750242
0.640598
0.52507
0.398684
0.257314
0.0960186
3.78141
3.37076
2.9947
2.65663
2.35665
2.09312
1.86327
1.66353
1.49022
1.33855
1.20427
1.08254
0.967544
0.853604
0.735611
0.607621
0.464402
0.301578
0.113494
3.77525
3.37052
3.00997
2.69149
2.41197
2.168
1.95579
1.77112
1.60992
1.4671
1.3382
1.21825
1.10116
0.981007
0.852485
0.709259
0.545663
0.356796
0.135751
3.77669
3.38947
3.05231
2.75837
2.50231
2.27958
2.08583
1.91647
1.76724
1.63277
1.50846
1.3892
1.26859
1.14036
0.998897
0.837256
0.648996
0.428146
0.165482
3.78861
3.43269
3.12732
2.86298
2.63341
2.43373
2.25951
2.10604
1.96897
1.84281
1.7228
1.6037
1.4787
1.34107
1.18469
1.00161
0.783984
0.523746
0.207398
3.81405
3.50394
3.23859
3.00883
2.80901
2.63465
2.48163
2.34534
2.22155
2.10464
1.9898
1.87162
1.7428
1.59593
1.42407
1.21759
0.966166
0.657692
0.270817
3.85254
3.60134
3.38373
3.19381
3.02774
2.88197
2.75302
2.63661
2.52876
2.42391
2.31722
2.20322
2.07402
1.92128
1.7368
1.50823
1.22091
0.855227
0.375482
3.89941
3.71687
3.55408
3.40985
3.28263
3.17013
3.06972
2.9777
2.89061
2.80319
2.71086
2.60825
2.48701
2.33782
2.1507
1.90926
1.59161
1.16464
0.567047
3.9472
3.83844
3.73668
3.64457
3.56247
3.4893
3.42346
3.36217
3.3029
3.24129
3.17356
3.09507
2.99778
2.87201
2.7061
2.47864
2.15703
1.68556
0.958876
3.98777
3.95277
3.91724
3.88409
3.85423
3.82744
3.80323
3.78028
3.75762
3.73294
3.70443
3.6696
3.62318
3.55806
3.46342
3.31548
3.07021
2.6397
1.8477
)
;

boundaryField
{
    up
    {
        type            fixedValue;
        value           uniform 0;
    }
    low
    {
        type            fixedValue;
        value           uniform 4;
    }
    left
    {
        type            fixedValue;
        value           uniform 4;
    }
    right
    {
        type            fixedValue;
        value           uniform 4;
    }
    frontAndBackPlanes
    {
        type            empty;
    }
}


// ************************************************************************* //
