/*--------------------------------*- C++ -*----------------------------------*\
  =========                 |
  \\      /  F ield         | OpenFOAM: The Open Source CFD Toolbox
   \\    /   O peration     | Website:  https://openfoam.org
    \\  /    A nd           | Version:  7
     \\/     M anipulation  |
\*---------------------------------------------------------------------------*/
FoamFile
{
    version     2.0;
    format      ascii;
    class       volScalarField;
    location    "0.16";
    object      T;
}
// * * * * * * * * * * * * * * * * * * * * * * * * * * * * * * * * * * * * * //

dimensions      [0 0 0 1 0 0 0];

internalField   nonuniform List<scalar> 
1596
(
1.99286
1.97249
1.95194
1.93302
1.91636
1.90191
1.88944
1.87822
1.86773
1.85667
1.84404
1.82844
1.80705
1.77612
1.73011
1.65706
1.53494
1.31988
0.923879
1.96926
1.90608
1.84737
1.79497
1.7493
1.70991
1.67599
1.64598
1.61846
1.59097
1.56134
1.52691
1.48322
1.42503
1.34615
1.2356
1.07694
0.842376
0.479454
1.94164
1.83591
1.74227
1.66043
1.58981
1.5293
1.47749
1.43231
1.39179
1.35289
1.31296
1.26882
1.21575
1.14853
1.06165
0.946455
0.791737
0.580874
0.283365
1.91485
1.76994
1.64518
1.5377
1.44564
1.3672
1.30048
1.24308
1.19267
1.14603
1.10028
1.05216
0.997098
0.930288
0.847005
0.740498
0.603016
0.424521
0.187204
1.89325
1.71519
1.56363
1.43394
1.32328
1.22933
1.14984
1.08219
1.0239
0.97168
0.922642
0.873518
0.820026
0.757789
0.68267
0.589192
0.471656
0.323622
0.134293
1.87942
1.67611
1.50241
1.35359
1.22655
1.11877
1.02782
0.951022
0.885819
0.828972
0.777617
0.728558
0.677782
0.621261
0.555263
0.475112
0.376275
0.254194
0.101842
1.87341
1.65342
1.46247
1.29747
1.15591
1.03548
0.933837
0.848362
0.776526
0.71518
0.661528
0.612455
0.564186
0.512966
0.455336
0.387135
0.304487
0.203794
0.0800345
1.87328
1.64454
1.44126
1.26308
1.10878
0.976745
0.864952
0.771013
0.69251
0.626428
0.570057
0.520371
0.473797
0.426801
0.376121
0.317947
0.248796
0.165557
0.0642746
1.87727
1.64627
1.43517
1.24669
1.08143
0.938809
0.81739
0.715146
0.629876
0.558731
0.499108
0.448073
0.402222
0.358204
0.312911
0.262798
0.204641
0.135589
0.0522704
1.88202
1.65273
1.43762
1.24177
1.06761
0.915755
0.785562
0.67549
0.583636
0.507362
0.444189
0.391279
0.345372
0.303274
0.262008
0.218243
0.168955
0.111459
0.0427448
1.8856
1.6594
1.44289
1.24229
1.06138
0.901974
0.764231
0.647185
0.549295
0.468171
0.401475
0.346467
0.300019
0.259069
0.220759
0.181948
0.139785
0.0917189
0.0349934
1.88972
1.66725
1.45065
1.24689
1.0608
0.895146
0.750899
0.627669
0.524307
0.438683
0.368604
0.311429
0.264132
0.223763
0.187564
0.152554
0.11604
0.0755936
0.0286604
1.89336
1.67467
1.45862
1.25275
1.06267
0.89193
0.742222
0.613693
0.505577
0.415995
0.342899
0.283727
0.235536
0.195458
0.160811
0.128755
0.0967333
0.0624324
0.0234813
1.89525
1.67926
1.46384
1.25657
1.06352
0.888854
0.734825
0.602057
0.490124
0.39737
0.32187
0.261125
0.21225
0.172435
0.13906
0.109396
0.0810077
0.0516948
0.0192513
1.89659
1.6821
1.46678
1.2582
1.06269
0.88485
0.727374
0.59127
0.476381
0.381232
0.30398
0.242163
0.192924
0.153485
0.121264
0.0936222
0.0682268
0.0429792
0.0158217
1.89776
1.68392
1.46802
1.25782
1.05994
0.879309
0.718985
0.580257
0.463164
0.366344
0.28799
0.225636
0.176418
0.137563
0.106504
0.0806676
0.0578064
0.0359112
0.0130544
1.89822
1.68416
1.46699
1.25479
1.05447
0.871294
0.708604
0.567894
0.449319
0.351558
0.272783
0.210474
0.161728
0.123746
0.0939592
0.0698404
0.0492106
0.0301404
0.010817
1.89824
1.68317
1.4641
1.24941
1.04644
0.860777
0.69602
0.553816
0.434362
0.336307
0.257736
0.196026
0.148196
0.111394
0.0830309
0.0606109
0.0420124
0.0253776
0.00899596
1.89924
1.68323
1.46177
1.24401
1.03787
0.849398
0.682476
0.538889
0.418826
0.320846
0.242883
0.182157
0.135566
0.100176
0.0733529
0.0526199
0.0359005
0.0214008
0.00750034
1.90078
1.6843
1.4603
1.23904
1.02924
0.837581
0.668291
0.523307
0.402781
0.305131
0.228083
0.168647
0.123561
0.0897738
0.0645936
0.0455482
0.0306003
0.0180143
0.00625079
1.90185
1.68503
1.45857
1.23367
1.02001
0.824979
0.653245
0.50692
0.386105
0.28904
0.213193
0.155323
0.111971
0.079953
0.0565009
0.039145
0.0258886
0.0150565
0.00518187
1.90311
1.68611
1.4573
1.22875
1.01111
0.812535
0.638228
0.490513
0.369441
0.273057
0.19854
0.142368
0.100859
0.0706745
0.0489616
0.0332502
0.021592
0.012386
0.00423628
1.90485
1.68816
1.45727
1.22517
1.00349
0.801252
0.624223
0.474982
0.353552
0.257781
0.184552
0.130045
0.0903448
0.0619408
0.0418865
0.027705
0.0175067
0.0098024
0.0033167
1.90693
1.69106
1.45848
1.22309
0.997526
0.791668
0.611868
0.460993
0.339056
0.243727
0.171605
0.118582
0.0805148
0.0537229
0.0351526
0.0223037
0.013342
0.00692896
0.00207533
1.91063
1.69968
1.46997
1.23564
1.00969
0.802457
0.620736
0.467764
0.343817
0.246721
0.173154
0.119028
0.0801832
0.0528932
0.0340481
0.0210859
0.0121441
0.00591605
0.00154172
1.91491
1.71175
1.48874
1.25946
1.03657
0.830328
0.647758
0.492499
0.365325
0.264553
0.187266
0.129703
0.0879071
0.0582499
0.0376212
0.0233824
0.0135497
0.00668894
0.00181085
1.91721
1.71965
1.50246
1.27841
1.05946
0.855469
0.67338
0.517012
0.387488
0.283568
0.202766
0.141705
0.096726
0.0643941
0.0416845
0.0259284
0.0150395
0.00745245
0.00204724
1.91757
1.72316
1.51065
1.29177
1.07753
0.877063
0.696894
0.540768
0.409992
0.303674
0.219739
0.155238
0.106885
0.0715489
0.0464005
0.0288228
0.0166657
0.00823293
0.00226213
1.91674
1.72373
1.51506
1.30135
1.09244
0.896516
0.719466
0.564749
0.433696
0.325664
0.238953
0.171043
0.11907
0.0802932
0.0522034
0.032352
0.0185972
0.00912042
0.0024879
1.91492
1.72231
1.51715
1.30877
1.10575
0.915195
0.742217
0.589861
0.459366
0.350245
0.261117
0.189859
0.134029
0.0913185
0.0596473
0.0368858
0.0210357
0.0102065
0.00275234
1.91269
1.72045
1.51895
1.3162
1.11951
0.93488
0.766629
0.617313
0.48801
0.378322
0.287121
0.212625
0.152757
0.105618
0.069601
0.0430447
0.0243138
0.0116144
0.00308347
1.91143
1.72035
1.52291
1.32604
1.1359
0.957468
0.794274
0.648395
0.520716
0.41088
0.317958
0.240442
0.176527
0.124611
0.0834901
0.0520151
0.0291568
0.0135928
0.00349445
1.91053
1.72123
1.52831
1.33769
1.15443
0.982559
0.824851
0.682914
0.557438
0.448075
0.354058
0.274101
0.206588
0.150071
0.103539
0.0661641
0.0375279
0.0171693
0.00401045
1.9099
1.72299
1.53514
1.3512
1.17522
1.01029
0.858521
0.721075
0.598457
0.490316
0.396034
0.314548
0.244401
0.184228
0.133001
0.0898369
0.0544233
0.0268739
0.00698772
1.90904
1.72391
1.54027
1.3621
1.19254
1.03389
0.887656
0.754626
0.635112
0.52873
0.434967
0.352939
0.281368
0.219
0.164769
0.11754
0.0765532
0.0415836
0.0124743
1.90646
1.71978
1.53714
1.36165
1.1957
1.04095
0.898431
0.768583
0.651514
0.546739
0.453748
0.37172
0.299478
0.235893
0.180031
0.130793
0.0873539
0.0492036
0.0156781
1.90266
1.71238
1.52879
1.35408
1.18993
1.03748
0.897355
0.769681
0.654378
0.550831
0.458489
0.376546
0.303874
0.239444
0.182484
0.132075
0.0876254
0.0488885
0.015381
1.89976
1.70683
1.52267
1.34874
1.18614
1.0356
0.897418
0.771494
0.657595
0.555009
0.463166
0.381283
0.308283
0.243226
0.185457
0.13417
0.0888885
0.0494851
0.0155425
1.89803
1.70344
1.51898
1.34566
1.18424
1.03512
0.898374
0.773725
0.660828
0.558905
0.467372
0.385472
0.312164
0.246572
0.188131
0.13611
0.0901179
0.050116
0.0157402
1.89681
1.70106
1.51641
1.34358
1.18303
1.03496
0.899254
0.775526
0.663347
0.561889
0.470563
0.388628
0.315074
0.249071
0.190119
0.137544
0.0910169
0.0505715
0.0158844
1.8959
1.69927
1.51445
1.34194
1.18198
1.03463
0.899641
0.776542
0.664854
0.563717
0.472536
0.390587
0.316876
0.250604
0.191318
0.138384
0.0915168
0.0508037
0.0159528
1.89492
1.69756
1.51264
1.34035
1.18079
1.0339
0.899366
0.776666
0.665298
0.564385
0.473333
0.391424
0.317675
0.251304
0.19188
0.138787
0.0917645
0.0509248
0.0159926
1.89493
1.69756
1.51265
1.34037
1.18081
1.03392
0.899384
0.776683
0.665315
0.564402
0.473348
0.391438
0.317687
0.251315
0.191889
0.138795
0.0917697
0.0509279
0.0159937
1.89591
1.69929
1.51449
1.34198
1.18203
1.03468
0.899694
0.776595
0.664906
0.563767
0.472583
0.39063
0.316914
0.250638
0.191347
0.138407
0.0915333
0.0508137
0.0159563
1.89682
1.7011
1.51647
1.34365
1.1831
1.03504
0.899339
0.775611
0.66343
0.561969
0.470638
0.388697
0.315136
0.249125
0.190164
0.13758
0.0910425
0.050587
0.0158898
1.89805
1.70349
1.51905
1.34576
1.18434
1.03523
0.898488
0.773839
0.66094
0.559012
0.467473
0.385564
0.312247
0.246643
0.188191
0.136157
0.0901517
0.0501363
0.0157472
1.89979
1.7069
1.52277
1.34885
1.18627
1.03574
0.897559
0.771636
0.657733
0.555142
0.463289
0.381396
0.308384
0.243313
0.18553
0.134227
0.0889293
0.0495096
0.0155509
1.90269
1.71245
1.52889
1.35422
1.19008
1.03764
0.89752
0.769846
0.65454
0.550985
0.458633
0.376677
0.30399
0.239543
0.182566
0.132138
0.0876696
0.0489145
0.0153895
1.90649
1.71986
1.53726
1.3618
1.19587
1.04113
0.898619
0.768771
0.651697
0.546912
0.453908
0.371864
0.299603
0.235997
0.180113
0.130853
0.0873927
0.0492241
0.0156841
1.90908
1.72403
1.54046
1.36235
1.19283
1.03421
0.888006
0.754987
0.635474
0.529085
0.435309
0.353263
0.281672
0.219281
0.165025
0.117768
0.0767444
0.0417209
0.0125312
1.90995
1.72313
1.53537
1.3515
1.17557
1.01069
0.858945
0.721512
0.598894
0.490743
0.396443
0.314932
0.244757
0.184552
0.133287
0.0900785
0.0546088
0.0269916
0.00702921
1.91057
1.72135
1.52851
1.33795
1.15475
0.982908
0.825221
0.683291
0.55781
0.448431
0.35439
0.274406
0.206859
0.150305
0.103731
0.0663092
0.0376225
0.0172158
0.00401986
1.91146
1.72047
1.5231
1.32629
1.1362
0.9578
0.794624
0.648746
0.521057
0.411201
0.318252
0.240703
0.176751
0.124796
0.0836328
0.0521151
0.0292171
0.0136211
0.0035013
1.91272
1.72056
1.51913
1.31643
1.11979
0.935192
0.766955
0.617639
0.488322
0.37861
0.287378
0.212848
0.152942
0.105764
0.0697097
0.0431179
0.0243571
0.0116351
0.00308882
1.91495
1.7224
1.51731
1.30899
1.10602
0.915486
0.742519
0.59016
0.459648
0.350501
0.261341
0.190049
0.134182
0.0914364
0.0597323
0.036942
0.0210689
0.0102228
0.0027567
1.91677
1.72382
1.51521
1.30155
1.09269
0.896783
0.719741
0.565019
0.433948
0.325889
0.239147
0.171203
0.119197
0.0803888
0.0522712
0.0323966
0.0186237
0.00913371
0.00249158
1.91759
1.72323
1.51078
1.29195
1.07775
0.877304
0.697141
0.541008
0.410213
0.303869
0.219905
0.155373
0.106991
0.071627
0.0464555
0.0288591
0.0166876
0.00824421
0.0022654
1.91723
1.71972
1.50258
1.27857
1.05965
0.855681
0.673598
0.517221
0.387679
0.283736
0.202906
0.141819
0.0968136
0.0644589
0.0417303
0.0259589
0.0150584
0.00746254
0.00205036
1.91492
1.71181
1.48884
1.2596
1.03674
0.830512
0.647945
0.492679
0.365489
0.264695
0.187385
0.129798
0.0879808
0.0583046
0.0376602
0.0234089
0.0135666
0.00669844
0.00181407
1.91063
1.69969
1.46999
1.23567
1.00974
0.80251
0.620792
0.467819
0.343869
0.246766
0.173193
0.11906
0.0802078
0.0529111
0.0340602
0.0210931
0.0121475
0.00591683
0.00154127
1.90692
1.69105
1.45845
1.22306
0.997491
0.791632
0.611833
0.460961
0.339028
0.243704
0.171587
0.118567
0.0805039
0.0537143
0.0351457
0.022298
0.0133373
0.0069254
0.00207346
1.90485
1.68815
1.45726
1.22516
1.00348
0.80125
0.624223
0.474984
0.353555
0.257786
0.184557
0.13005
0.0903491
0.0619445
0.0418894
0.0277072
0.0175081
0.00980309
0.00331678
1.90311
1.68611
1.4573
1.22875
1.0111
0.812534
0.638229
0.490515
0.369444
0.27306
0.198544
0.142371
0.100863
0.0706771
0.0489637
0.0332518
0.021593
0.0123865
0.0042364
1.90185
1.68503
1.45856
1.23366
1.02001
0.824979
0.653246
0.506922
0.386107
0.289042
0.213195
0.155325
0.111974
0.0799549
0.0565024
0.0391463
0.0258895
0.015057
0.005182
1.90078
1.6843
1.4603
1.23903
1.02924
0.837582
0.668292
0.523309
0.402783
0.305133
0.228085
0.168649
0.123562
0.0897754
0.064595
0.0455493
0.0306012
0.0180148
0.00625093
1.89924
1.68323
1.46177
1.24401
1.03787
0.849398
0.682477
0.53889
0.418827
0.320847
0.242885
0.182158
0.135568
0.100177
0.0733542
0.052621
0.0359014
0.0214013
0.00750049
1.89824
1.68317
1.4641
1.24941
1.04644
0.860778
0.696021
0.553817
0.434363
0.336308
0.257737
0.196027
0.148197
0.111396
0.0830322
0.0606121
0.0420133
0.0253782
0.0089961
1.89822
1.68415
1.46699
1.25479
1.05447
0.871295
0.708605
0.567895
0.44932
0.351559
0.272784
0.210475
0.161729
0.123748
0.0939606
0.0698416
0.0492115
0.0301409
0.0108171
1.89776
1.68392
1.46802
1.25782
1.05994
0.87931
0.718986
0.580258
0.463165
0.366344
0.287991
0.225637
0.176419
0.137564
0.106505
0.0806687
0.0578072
0.0359116
0.0130544
1.89659
1.6821
1.46678
1.2582
1.0627
0.884851
0.727375
0.59127
0.476382
0.381232
0.303981
0.242164
0.192926
0.153486
0.121266
0.0936231
0.0682273
0.0429794
0.0158217
1.89525
1.67927
1.46384
1.25657
1.06352
0.888855
0.734825
0.602058
0.490124
0.397371
0.321871
0.261126
0.212251
0.172436
0.139061
0.109396
0.0810078
0.0516947
0.0192512
1.89336
1.67467
1.45862
1.25275
1.06267
0.891931
0.742222
0.613693
0.505577
0.415996
0.3429
0.283728
0.235537
0.195458
0.160812
0.128755
0.0967329
0.062432
0.0234812
1.88972
1.66725
1.45065
1.24689
1.0608
0.895147
0.750899
0.627669
0.524307
0.438683
0.368604
0.311429
0.264132
0.223763
0.187563
0.152553
0.116039
0.0755929
0.0286602
1.8856
1.6594
1.4429
1.24229
1.06139
0.901974
0.764231
0.647184
0.549295
0.468171
0.401475
0.346467
0.300018
0.259068
0.220758
0.181946
0.139783
0.091718
0.0349933
1.88202
1.65274
1.43763
1.24177
1.06761
0.915754
0.785561
0.67549
0.583635
0.507361
0.444188
0.391277
0.34537
0.303272
0.262006
0.218241
0.168953
0.111459
0.0427448
1.87727
1.64627
1.43517
1.24669
1.08143
0.938807
0.817388
0.715145
0.629874
0.558729
0.499106
0.448071
0.402219
0.358201
0.312909
0.262796
0.204639
0.135588
0.0522706
1.87328
1.64454
1.44126
1.26308
1.10878
0.976743
0.86495
0.771011
0.692508
0.626426
0.570054
0.520368
0.473793
0.426798
0.376118
0.317945
0.248794
0.165557
0.0642749
1.87341
1.65342
1.46246
1.29747
1.15591
1.03548
0.933834
0.848359
0.776523
0.715177
0.661524
0.612451
0.564182
0.512963
0.455333
0.387133
0.304486
0.203795
0.080035
1.87942
1.67611
1.50241
1.35359
1.22655
1.11877
1.02782
0.951019
0.885816
0.828968
0.777613
0.728554
0.677778
0.621258
0.555261
0.475111
0.376275
0.254195
0.101843
1.89325
1.71519
1.56363
1.43394
1.32327
1.22933
1.14983
1.08219
1.02389
0.971676
0.922638
0.873515
0.820023
0.757786
0.682669
0.589192
0.471657
0.323623
0.134293
1.91485
1.76993
1.64518
1.5377
1.44564
1.3672
1.30048
1.24308
1.19267
1.14602
1.10028
1.05216
0.997095
0.930287
0.847004
0.740498
0.603017
0.424521
0.187204
1.94164
1.83591
1.74227
1.66043
1.58981
1.5293
1.47749
1.43231
1.39179
1.35289
1.31296
1.26882
1.21575
1.14853
1.06165
0.946456
0.791738
0.580875
0.283365
1.96926
1.90608
1.84737
1.79497
1.7493
1.70991
1.67599
1.64597
1.61846
1.59096
1.56134
1.52691
1.48322
1.42503
1.34616
1.2356
1.07694
0.842376
0.479454
1.99286
1.97249
1.95194
1.93302
1.91636
1.90191
1.88944
1.87822
1.86773
1.85667
1.84404
1.82844
1.80705
1.77612
1.73011
1.65706
1.53494
1.31988
0.923879
)
;

boundaryField
{
    up
    {
        type            fixedValue;
        value           uniform 0;
    }
    low
    {
        type            fixedValue;
        value           uniform 2;
    }
    left
    {
        type            fixedValue;
        value           uniform 2;
    }
    right
    {
        type            fixedValue;
        value           uniform 2;
    }
    frontAndBackPlanes
    {
        type            empty;
    }
}


// ************************************************************************* //
