/*--------------------------------*- C++ -*----------------------------------*\
  =========                 |
  \\      /  F ield         | OpenFOAM: The Open Source CFD Toolbox
   \\    /   O peration     | Website:  https://openfoam.org
    \\  /    A nd           | Version:  7
     \\/     M anipulation  |
\*---------------------------------------------------------------------------*/
FoamFile
{
    version     2.0;
    format      ascii;
    class       volScalarField;
    location    "0.2";
    object      gradTy;
}
// * * * * * * * * * * * * * * * * * * * * * * * * * * * * * * * * * * * * * //

dimensions      [0 -1 0 1 0 0 0];

internalField   nonuniform List<scalar> 
1596
(
-0.10116
-0.187538
-0.257598
-0.323909
-0.386263
-0.45288
-0.519947
-0.59677
-0.686788
-0.792468
-0.938376
-1.12419
-1.38329
-1.75463
-2.33504
-3.24307
-4.86836
-7.86853
-18.5875
-0.30774
-0.378374
-0.424829
-0.466199
-0.504722
-0.549782
-0.598418
-0.659364
-0.736075
-0.829179
-0.959392
-1.12424
-1.34613
-1.64273
-2.06379
-2.634
-3.48351
-4.73298
-8.27921
-0.549719
-0.571836
-0.582527
-0.594442
-0.607411
-0.629626
-0.657854
-0.699844
-0.758257
-0.83246
-0.939629
-1.07519
-1.25472
-1.48627
-1.80007
-2.19942
-2.75508
-3.51735
-5.15171
-0.802048
-0.759333
-0.728104
-0.708267
-0.694973
-0.693749
-0.700677
-0.72214
-0.75993
-0.812601
-0.894288
-0.999331
-1.13881
-1.3159
-1.54983
-1.8356
-2.21491
-2.70787
-3.55097
-1.03314
-0.930209
-0.858784
-0.808171
-0.769508
-0.745359
-0.731239
-0.732028
-0.74882
-0.779748
-0.836388
-0.912925
-1.01745
-1.15075
-1.3257
-1.53464
-1.80385
-2.13993
-2.62929
-1.21499
-1.07429
-0.971938
-0.895022
-0.833688
-0.788342
-0.754453
-0.735525
-0.732201
-0.742521
-0.775902
-0.82698
-0.901779
-1.00002
-1.1307
-1.28587
-1.483
-1.72254
-2.03722
-1.33299
-1.18374
-1.06478
-0.969071
-0.889504
-0.825858
-0.774338
-0.737434
-0.715624
-0.70712
-0.719523
-0.748253
-0.797854
-0.867635
-0.964084
-1.07993
-1.2272
-1.40373
-1.62215
-1.3879
-1.25398
-1.13376
-1.02869
-0.936803
-0.858857
-0.792627
-0.740121
-0.701962
-0.676755
-0.670616
-0.679894
-0.708045
-0.754295
-0.823432
-0.909175
-1.02002
-1.15288
-1.31239
-1.39223
-1.29093
-1.18235
-1.07689
-0.978627
-0.8905
-0.81248
-0.746706
-0.694248
-0.654288
-0.631803
-0.62409
-0.633802
-0.660236
-0.706965
-0.768724
-0.851567
-0.952223
-1.07198
-1.35643
-1.28975
-1.20115
-1.10383
-1.00604
-0.913141
-0.827471
-0.751836
-0.687998
-0.635864
-0.599641
-0.577521
-0.571614
-0.581371
-0.60952
-0.651757
-0.712462
-0.788586
-0.879961
-1.31265
-1.27018
-1.20134
-1.11588
-1.02295
-0.92936
-0.839412
-0.756801
-0.684121
-0.622089
-0.574462
-0.540254
-0.52122
-0.516995
-0.529689
-0.555821
-0.598558
-0.655192
-0.724928
-1.25923
-1.2414
-1.19145
-1.11893
-1.03309
-0.941428
-0.849614
-0.762224
-0.682698
-0.612587
-0.55546
-0.511062
-0.480949
-0.464946
-0.464705
-0.477432
-0.505394
-0.546246
-0.598958
-1.19352
-1.19755
-1.16587
-1.10718
-1.03036
-0.943192
-0.852164
-0.762604
-0.678697
-0.60276
-0.538386
-0.485951
-0.446946
-0.421388
-0.410619
-0.412416
-0.428415
-0.456629
-0.495972
-1.13577
-1.15197
-1.1344
-1.08802
-1.02018
-0.938407
-0.84951
-0.759367
-0.672763
-0.592676
-0.522843
-0.46416
-0.418137
-0.384962
-0.36576
-0.358754
-0.365119
-0.383178
-0.411879
-1.08277
-1.10853
-1.10157
-1.06526
-1.00542
-0.928999
-0.842763
-0.752946
-0.664786
-0.581803
-0.507928
-0.444484
-0.393036
-0.35392
-0.328097
-0.314135
-0.312864
-0.322863
-0.343158
-1.03098
-1.06608
-1.06799
-1.03998
-0.986996
-0.915465
-0.831998
-0.743034
-0.654139
-0.569265
-0.492545
-0.425638
-0.370178
-0.326612
-0.295777
-0.27649
-0.269325
-0.273065
-0.286822
-0.984276
-1.02585
-1.03492
-1.01365
-0.966281
-0.898884
-0.817905
-0.729933
-0.640779
-0.554734
-0.476113
-0.40683
-0.348574
-0.301861
-0.267416
-0.244224
-0.232662
-0.231663
-0.240419
-0.943538
-0.989744
-1.00442
-0.988488
-0.945513
-0.881287
-0.802194
-0.714959
-0.625623
-0.538764
-0.458844
-0.387973
-0.32786
-0.279044
-0.242129
-0.216202
-0.201468
-0.196969
-0.201956
-0.902345
-0.957205
-0.978003
-0.966883
-0.927475
-0.865525
-0.787545
-0.700472
-0.610627
-0.522881
-0.441832
-0.369753
-0.308342
-0.258116
-0.219534
-0.191722
-0.174727
-0.167663
-0.169825
-0.859378
-0.924406
-0.95244
-0.946388
-0.910315
-0.850223
-0.772928
-0.685693
-0.595181
-0.506578
-0.424621
-0.351722
-0.289539
-0.238525
-0.198966
-0.169966
-0.151431
-0.142536
-0.142626
-0.822462
-0.894708
-0.929641
-0.928602
-0.895594
-0.836907
-0.759787
-0.671938
-0.580434
-0.490817
-0.407975
-0.33444
-0.271813
-0.220437
-0.180386
-0.150667
-0.131031
-0.120732
-0.11924
-0.789459
-0.868621
-0.910074
-0.913919
-0.88382
-0.826249
-0.748935
-0.660094
-0.567285
-0.476452
-0.392648
-0.31853
-0.25563
-0.204161
-0.163938
-0.133774
-0.113189
-0.101501
-0.0985264
-0.758599
-0.845506
-0.893577
-0.902277
-0.875011
-0.818408
-0.740692
-0.650631
-0.556318
-0.464121
-0.379272
-0.304564
-0.241466
-0.190066
-0.149908
-0.119499
-0.0979199
-0.0842628
-0.0789753
-0.730728
-0.825371
-0.879673
-0.892529
-0.867321
-0.810828
-0.731974
-0.64005
-0.54376
-0.44997
-0.363899
-0.288649
-0.225548
-0.174583
-0.134982
-0.10498
-0.0828472
-0.0666265
-0.0548082
-0.707848
-0.809688
-0.871507
-0.891322
-0.872313
-0.820797
-0.745777
-0.656373
-0.561419
-0.46809
-0.381416
-0.305005
-0.2402
-0.187377
-0.145878
-0.114265
-0.0904047
-0.0719003
-0.055624
-0.691677
-0.797925
-0.864443
-0.889566
-0.876156
-0.829984
-0.759649
-0.673865
-0.581259
-0.489057
-0.402115
-0.324371
-0.257357
-0.201824
-0.157468
-0.123461
-0.0979333
-0.0790601
-0.0644817
-0.690764
-0.797672
-0.865951
-0.894105
-0.884672
-0.843068
-0.777273
-0.695567
-0.606149
-0.515992
-0.429806
-0.35146
-0.282585
-0.224227
-0.176565
-0.139357
-0.111202
-0.0905813
-0.0752956
-0.706892
-0.810534
-0.876874
-0.904799
-0.896753
-0.857908
-0.795667
-0.71778
-0.631895
-0.544557
-0.460135
-0.382222
-0.312296
-0.251486
-0.20037
-0.159402
-0.127836
-0.1046
-0.087592
-0.738085
-0.836164
-0.897522
-0.922416
-0.913501
-0.875792
-0.816163
-0.741776
-0.659648
-0.575805
-0.494129
-0.417806
-0.347897
-0.285298
-0.23072
-0.185336
-0.149303
-0.122359
-0.102619
-0.783238
-0.872112
-0.925765
-0.945467
-0.934021
-0.896268
-0.838597
-0.76754
-0.689448
-0.609803
-0.531948
-0.458643
-0.390337
-0.32732
-0.269905
-0.219701
-0.177909
-0.14571
-0.121909
-0.841403
-0.917767
-0.962089
-0.975267
-0.960186
-0.92153
-0.86526
-0.797266
-0.723249
-0.64819
-0.57495
-0.505998
-0.44119
-0.379953
-0.321455
-0.266892
-0.218
-0.178097
-0.14791
-0.903553
-0.969178
-1.00406
-1.01016
-0.990908
-0.950917
-0.895764
-0.830694
-0.760779
-0.69056
-0.622528
-0.559148
-0.500014
-0.443879
-0.388241
-0.332571
-0.277061
-0.226346
-0.18518
-0.973854
-1.02764
-1.0521
-1.05035
-1.02634
-0.984584
-0.930224
-0.867834
-0.80184
-0.736363
-0.673586
-0.616257
-0.564289
-0.516662
-0.469804
-0.421187
-0.366442
-0.306692
-0.243757
-1.05547
-1.09538
-1.10844
-1.09849
-1.06973
-1.0265
-0.97333
-0.914109
-0.852573
-0.792346
-0.735417
-0.684738
-0.641059
-0.604804
-0.57364
-0.545767
-0.514449
-0.476176
-0.426568
-1.14538
-1.16961
-1.1686
-1.14771
-1.11143
-1.06386
-1.00883
-0.949603
-0.889227
-0.830535
-0.775349
-0.726047
-0.683752
-0.64973
-0.624041
-0.607782
-0.598624
-0.594675
-0.591914
-1.24634
-1.2496
-1.23148
-1.19766
-1.15225
-1.09889
-1.04063
-0.980262
-0.920277
-0.862821
-0.809683
-0.762485
-0.722205
-0.68963
-0.665171
-0.649395
-0.642388
-0.644652
-0.656595
-1.35726
-1.33527
-1.29924
-1.25277
-1.19875
-1.13996
-1.07875
-1.0174
-0.957951
-0.902121
-0.851484
-0.807196
-0.769923
-0.739951
-0.717183
-0.700953
-0.690321
-0.683989
-0.680579
-1.45791
-1.41254
-1.36004
-1.30188
-1.23978
-1.17567
-1.11133
-1.0485
-0.988831
-0.933654
-0.884204
-0.841346
-0.805452
-0.776563
-0.754397
-0.73824
-0.72717
-0.720131
-0.715982
-1.5387
-1.47685
-1.4118
-1.34441
-1.27584
-1.20744
-1.14056
-1.07653
-1.01665
-0.961972
-0.913468
-0.871805
-0.837176
-0.809504
-0.788443
-0.773272
-0.76308
-0.756858
-0.753494
-1.60274
-1.52811
-1.45331
-1.37874
-1.30513
-1.23341
-1.16455
-1.09956
-1.03951
-0.985193
-0.937417
-0.896706
-0.863136
-0.836552
-0.816562
-0.802428
-0.793233
-0.787983
-0.785578
-1.64919
-1.565
-1.48287
-1.40304
-1.32583
-1.25177
-1.18155
-1.11593
-1.05576
-1.00173
-0.954495
-0.914497
-0.881736
-0.856003
-0.836869
-0.823565
-0.815147
-0.8106
-0.80881
-1.67953
-1.58607
-1.49865
-1.41559
-1.33636
-1.26107
-1.19017
-1.12425
-1.06407
-1.01023
-0.963314
-0.923732
-0.891447
-0.866231
-0.847647
-0.834932
-0.827143
-0.823273
-0.822199
-1.67954
-1.58609
-1.49867
-1.41561
-1.33638
-1.26109
-1.19019
-1.12427
-1.0641
-1.01025
-0.96334
-0.92376
-0.891476
-0.866261
-0.847679
-0.834966
-0.827179
-0.82331
-0.822237
-1.6492
-1.56503
-1.48291
-1.40309
-1.32589
-1.25183
-1.18161
-1.11599
-1.05583
-1.0018
-0.95457
-0.914576
-0.881819
-0.856091
-0.836963
-0.823666
-0.815256
-0.81072
-0.80894
-1.60276
-1.52816
-1.45337
-1.37882
-1.30522
-1.2335
-1.16465
-1.09967
-1.03962
-0.985308
-0.937538
-0.896833
-0.86327
-0.836693
-0.816713
-0.802589
-0.793405
-0.788168
-0.785777
-1.53872
-1.47691
-1.41188
-1.34451
-1.27595
-1.20756
-1.14069
-1.07666
-1.01679
-0.962121
-0.913624
-0.871968
-0.837346
-0.809683
-0.788631
-0.773469
-0.763288
-0.757078
-0.753726
-1.45794
-1.41261
-1.36014
-1.302
-1.23991
-1.17582
-1.11148
-1.04866
-0.989002
-0.933833
-0.88439
-0.841541
-0.805655
-0.776774
-0.754617
-0.738469
-0.727409
-0.720381
-0.716243
-1.35729
-1.33535
-1.29934
-1.2529
-1.1989
-1.14012
-1.07892
-1.01758
-0.958142
-0.902321
-0.851693
-0.807413
-0.770148
-0.740181
-0.717416
-0.701188
-0.690554
-0.68422
-0.680807
-1.24637
-1.24968
-1.23161
-1.19782
-1.15245
-1.09911
-1.04088
-0.980541
-0.920582
-0.863149
-0.810037
-0.762866
-0.722615
-0.690069
-0.665637
-0.64987
-0.642842
-0.645027
-0.656809
-1.1454
-1.16962
-1.16863
-1.14774
-1.11148
-1.06392
-1.0089
-0.94968
-0.889307
-0.83061
-0.775411
-0.726084
-0.683752
-0.649679
-0.623938
-0.607642
-0.59852
-0.594746
-0.592381
-1.05548
-1.09543
-1.10854
-1.09863
-1.06993
-1.02675
-0.973642
-0.914473
-0.852985
-0.792797
-0.735904
-0.685259
-0.641618
-0.605421
-0.574357
-0.546648
-0.515577
-0.477626
-0.428382
-0.973856
-1.02765
-1.05213
-1.05042
-1.02645
-0.984734
-0.930417
-0.868065
-0.802105
-0.736656
-0.673903
-0.616597
-0.56466
-0.51708
-0.470288
-0.42175
-0.367062
-0.307297
-0.244214
-0.903553
-0.969179
-1.00408
-1.01022
-0.991006
-0.95106
-0.895952
-0.830922
-0.761042
-0.690853
-0.622845
-0.55949
-0.500385
-0.444284
-0.388678
-0.333024
-0.277492
-0.226711
-0.185465
-0.8414
-0.91776
-0.962098
-0.975308
-0.960268
-0.921658
-0.865432
-0.797479
-0.723496
-0.648465
-0.575248
-0.506316
-0.441526
-0.380303
-0.321809
-0.267229
-0.218297
-0.178342
-0.148106
-0.783233
-0.8721
-0.925767
-0.945497
-0.93409
-0.896381
-0.838755
-0.767737
-0.689678
-0.610058
-0.532221
-0.458929
-0.39063
-0.327613
-0.270185
-0.219953
-0.178124
-0.145888
-0.122056
-0.738077
-0.836148
-0.897515
-0.922435
-0.913557
-0.87589
-0.816304
-0.741955
-0.659857
-0.576036
-0.494374
-0.418058
-0.348147
-0.285538
-0.230941
-0.18553
-0.149466
-0.122495
-0.102736
-0.706885
-0.810516
-0.876863
-0.904811
-0.896799
-0.857994
-0.795792
-0.71794
-0.632082
-0.544762
-0.46035
-0.382438
-0.312506
-0.251682
-0.200545
-0.159554
-0.127964
-0.104709
-0.0876895
-0.690756
-0.797653
-0.865938
-0.894113
-0.884711
-0.843142
-0.777383
-0.695708
-0.606313
-0.51617
-0.429991
-0.351643
-0.282759
-0.224387
-0.176706
-0.139479
-0.111306
-0.0906731
-0.0753834
-0.691668
-0.797905
-0.864425
-0.889561
-0.876175
-0.83003
-0.759722
-0.673963
-0.581374
-0.489183
-0.402244
-0.324498
-0.257477
-0.201931
-0.15756
-0.123539
-0.0980013
-0.0791252
-0.0645588
-0.707862
-0.809696
-0.871517
-0.891339
-0.872341
-0.820838
-0.745834
-0.656443
-0.561499
-0.468179
-0.38151
-0.3051
-0.240294
-0.187468
-0.145963
-0.114344
-0.090476
-0.0719627
-0.0556718
-0.730742
-0.825384
-0.87968
-0.892527
-0.867307
-0.810802
-0.731938
-0.640005
-0.54371
-0.449919
-0.363849
-0.288603
-0.225506
-0.174546
-0.134951
-0.104953
-0.0828214
-0.0666
-0.0547749
-0.758609
-0.845513
-0.893583
-0.902281
-0.875013
-0.818408
-0.74069
-0.650629
-0.556316
-0.464119
-0.379272
-0.304565
-0.241468
-0.190069
-0.149912
-0.119503
-0.0979249
-0.0842683
-0.07898
-0.789466
-0.868626
-0.910077
-0.91392
-0.883817
-0.826244
-0.748929
-0.660087
-0.56728
-0.476448
-0.392645
-0.318528
-0.25563
-0.204162
-0.16394
-0.133777
-0.113192
-0.101504
-0.0985297
-0.822467
-0.894712
-0.929643
-0.928601
-0.895591
-0.836903
-0.759782
-0.671933
-0.58043
-0.490814
-0.407973
-0.334439
-0.271813
-0.220439
-0.180388
-0.150669
-0.131034
-0.120735
-0.119242
-0.859382
-0.924409
-0.952441
-0.946387
-0.910313
-0.850219
-0.772924
-0.68569
-0.595178
-0.506576
-0.42462
-0.351721
-0.289539
-0.238526
-0.198967
-0.169968
-0.151433
-0.142538
-0.142628
-0.902347
-0.957207
-0.978003
-0.966881
-0.927472
-0.865522
-0.787543
-0.70047
-0.610625
-0.52288
-0.441831
-0.369753
-0.308342
-0.258116
-0.219535
-0.191723
-0.174728
-0.167665
-0.169827
-0.94354
-0.989745
-1.00442
-0.988486
-0.945511
-0.881285
-0.802192
-0.714958
-0.625622
-0.538763
-0.458843
-0.387973
-0.32786
-0.279045
-0.24213
-0.216203
-0.20147
-0.196971
-0.201957
-0.984277
-1.02585
-1.03492
-1.01365
-0.96628
-0.898882
-0.817904
-0.729932
-0.640778
-0.554733
-0.476112
-0.40683
-0.348573
-0.301861
-0.267416
-0.244225
-0.232663
-0.231664
-0.240419
-1.03098
-1.06608
-1.06799
-1.03998
-0.986995
-0.915464
-0.831997
-0.743034
-0.654138
-0.569264
-0.492544
-0.425638
-0.370178
-0.326612
-0.295778
-0.27649
-0.269325
-0.273065
-0.286822
-1.08276
-1.10853
-1.10157
-1.06526
-1.00542
-0.928999
-0.842763
-0.752946
-0.664785
-0.581802
-0.507927
-0.444483
-0.393036
-0.353919
-0.328097
-0.314135
-0.312863
-0.322862
-0.343157
-1.13577
-1.15197
-1.1344
-1.08802
-1.02018
-0.938408
-0.84951
-0.759367
-0.672763
-0.592675
-0.522842
-0.46416
-0.418137
-0.384962
-0.36576
-0.358754
-0.365118
-0.383176
-0.411877
-1.19352
-1.19755
-1.16587
-1.10718
-1.03036
-0.943193
-0.852165
-0.762604
-0.678697
-0.60276
-0.538386
-0.485951
-0.446946
-0.421387
-0.410618
-0.412415
-0.428412
-0.456625
-0.495969
-1.25923
-1.24139
-1.19145
-1.11893
-1.0331
-0.941429
-0.849615
-0.762224
-0.682698
-0.612586
-0.555459
-0.511062
-0.480949
-0.464945
-0.464704
-0.477429
-0.50539
-0.546242
-0.598955
-1.31265
-1.27018
-1.20135
-1.11588
-1.02295
-0.929361
-0.839414
-0.756802
-0.684121
-0.622089
-0.574462
-0.540253
-0.521219
-0.516994
-0.529687
-0.555818
-0.598554
-0.655187
-0.724926
-1.35643
-1.28975
-1.20116
-1.10383
-1.00604
-0.913143
-0.827472
-0.751836
-0.687998
-0.635864
-0.599641
-0.577521
-0.571613
-0.58137
-0.609518
-0.651754
-0.712457
-0.788581
-0.87996
-1.39223
-1.29093
-1.18236
-1.0769
-0.978629
-0.890501
-0.812481
-0.746707
-0.694248
-0.654289
-0.631804
-0.62409
-0.633801
-0.660234
-0.706963
-0.76872
-0.851562
-0.95222
-1.07198
-1.3879
-1.25399
-1.13376
-1.02869
-0.936804
-0.858859
-0.792628
-0.740122
-0.701963
-0.676756
-0.670616
-0.679894
-0.708044
-0.754294
-0.823429
-0.909171
-1.02002
-1.15288
-1.31239
-1.33299
-1.18374
-1.06478
-0.969074
-0.889505
-0.82586
-0.77434
-0.737435
-0.715625
-0.707121
-0.719523
-0.748253
-0.797853
-0.867633
-0.964081
-1.07992
-1.22719
-1.40373
-1.62216
-1.21499
-1.07429
-0.971941
-0.895024
-0.83369
-0.788344
-0.754455
-0.735527
-0.732202
-0.742522
-0.775903
-0.826979
-0.901778
-1.00002
-1.1307
-1.28587
-1.483
-1.72255
-2.03723
-1.03315
-0.930213
-0.858786
-0.808173
-0.76951
-0.745361
-0.731241
-0.73203
-0.748822
-0.779749
-0.836389
-0.912924
-1.01744
-1.15074
-1.32569
-1.53464
-1.80385
-2.13993
-2.62929
-0.802053
-0.759336
-0.728106
-0.708269
-0.694975
-0.693751
-0.70068
-0.722142
-0.759932
-0.812602
-0.894288
-0.99933
-1.13881
-1.3159
-1.54982
-1.8356
-2.21491
-2.70788
-3.55097
-0.549723
-0.571837
-0.582529
-0.594443
-0.607412
-0.629628
-0.657856
-0.699846
-0.758258
-0.832461
-0.939629
-1.07518
-1.25472
-1.48627
-1.80007
-2.19942
-2.75508
-3.51735
-5.15171
-0.307741
-0.378374
-0.424829
-0.4662
-0.504723
-0.549783
-0.59842
-0.659365
-0.736076
-0.82918
-0.959391
-1.12423
-1.34613
-1.64273
-2.06378
-2.634
-3.48351
-4.73299
-8.27921
-0.101161
-0.187538
-0.257598
-0.323909
-0.386263
-0.45288
-0.519947
-0.596771
-0.686788
-0.792468
-0.938376
-1.12419
-1.38329
-1.75463
-2.33504
-3.24306
-4.86836
-7.86853
-18.5875
)
;

boundaryField
{
    up
    {
        type            calculated;
        value           nonuniform List<scalar> 
84
(
-16.8442
-9.12281
-5.59693
-3.81256
-2.79881
-2.15573
-1.70948
-1.37896
-1.12352
-0.92029
-0.756373
-0.623269
-0.514648
-0.426029
-0.353718
-0.294581
-0.246018
-0.205907
-0.172524
-0.144402
-0.120332
-0.0990055
-0.0780074
-0.0490512
-0.0473655
-0.0603043
-0.0709662
-0.0826925
-0.0968349
-0.114829
-0.138625
-0.170793
-0.221186
-0.420634
-0.607014
-0.666179
-0.678886
-0.714307
-0.752281
-0.784882
-0.808446
-0.822237
-0.822276
-0.808582
-0.785087
-0.75252
-0.714574
-0.679114
-0.666253
-0.607518
-0.42274
-0.221614
-0.171043
-0.138807
-0.114968
-0.0969469
-0.0827876
-0.0710535
-0.0604041
-0.0474254
-0.0490141
-0.0780109
-0.0990083
-0.120335
-0.144404
-0.172525
-0.205907
-0.246019
-0.294581
-0.353717
-0.426028
-0.514646
-0.623267
-0.756373
-0.920291
-1.12352
-1.37896
-1.70948
-2.15574
-2.79882
-3.81256
-5.59693
-9.12281
-16.8442
)
;
    }
    low
    {
        type            calculated;
        value           nonuniform List<scalar> 
84
(
-0.10859
-0.321696
-0.57997
-0.85289
-1.10334
-1.29805
-1.41895
-1.46804
-1.45656
-1.40047
-1.34611
-1.28249
-1.2028
-1.13742
-1.08004
-1.02214
-0.970052
-0.927684
-0.883062
-0.832353
-0.78939
-0.751633
-0.715021
-0.681769
-0.649586
-0.629335
-0.629205
-0.651893
-0.691613
-0.747492
-0.815192
-0.883704
-0.961301
-1.05135
-1.1482
-1.25834
-1.38194
-1.49058
-1.57605
-1.64403
-1.69365
-1.72851
-1.72851
-1.69366
-1.64404
-1.57606
-1.49059
-1.38196
-1.25837
-1.1482
-1.05136
-0.961291
-0.883699
-0.815187
-0.747488
-0.691608
-0.651892
-0.629205
-0.629338
-0.649593
-0.681789
-0.715024
-0.75164
-0.789395
-0.832356
-0.883065
-0.927687
-0.970053
-1.02214
-1.08004
-1.13742
-1.2028
-1.28249
-1.34611
-1.40046
-1.45656
-1.46805
-1.41896
-1.29806
-1.10335
-0.852898
-0.579975
-0.321699
-0.108591
)
;
    }
    left
    {
        type            calculated;
        value           nonuniform List<scalar> 
19
(
-0.0992432
-0.184061
-0.255518
-0.32406
-0.389058
-0.458426
-0.528484
-0.609001
-0.703523
-0.815928
-0.971926
-1.17229
-1.45493
-1.86647
-2.5155
-3.54742
-5.41576
-8.90504
-17.4704
)
;
    }
    right
    {
        type            calculated;
        value           nonuniform List<scalar> 
19
(
-0.0992439
-0.184061
-0.255518
-0.32406
-0.389059
-0.458426
-0.528484
-0.609002
-0.703523
-0.815928
-0.971925
-1.17229
-1.45493
-1.86646
-2.5155
-3.54741
-5.41576
-8.90504
-17.4704
)
;
    }
    frontAndBackPlanes
    {
        type            empty;
    }
}


// ************************************************************************* //
