/*--------------------------------*- C++ -*----------------------------------*\
  =========                 |
  \\      /  F ield         | OpenFOAM: The Open Source CFD Toolbox
   \\    /   O peration     | Website:  https://openfoam.org
    \\  /    A nd           | Version:  7
     \\/     M anipulation  |
\*---------------------------------------------------------------------------*/
FoamFile
{
    version     2.0;
    format      ascii;
    class       volScalarField;
    location    "0.21";
    object      gradTx;
}
// * * * * * * * * * * * * * * * * * * * * * * * * * * * * * * * * * * * * * //

dimensions      [0 -1 0 1 0 0 0];

internalField   nonuniform List<scalar> 
1596
(
-0.141343
-0.709046
-1.26852
-1.77067
-2.2113
-2.58851
-2.91976
-3.21637
-3.49419
-3.78338
-4.09308
-4.45972
-4.92563
-5.55129
-6.4073
-7.66917
-9.60653
-12.8012
-18.4565
0.0313041
-0.589503
-1.14037
-1.61464
-2.02284
-2.36693
-2.66278
-2.9161
-3.13889
-3.34714
-3.54347
-3.74801
-3.9689
-4.21772
-4.48884
-4.77042
-4.98733
-4.98519
-4.43555
0.173022
-0.479976
-1.01268
-1.45356
-1.82445
-2.13211
-2.39031
-2.60285
-2.77781
-2.924
-3.04099
-3.13972
-3.21882
-3.27786
-3.30508
-3.27911
-3.14027
-2.78311
-1.99957
0.196337
-0.420175
-0.906238
-1.30115
-1.62863
-1.89751
-2.11859
-2.2949
-2.43157
-2.53318
-2.59876
-2.63379
-2.63499
-2.59905
-2.51656
-2.37051
-2.12298
-1.71136
-1.01227
0.0607647
-0.436015
-0.83997
-1.17308
-1.4502
-1.67801
-1.86312
-2.00767
-2.11448
-2.18533
-2.21965
-2.21948
-2.18186
-2.10334
-1.9779
-1.79369
-1.52884
-1.14812
-0.581187
-0.221697
-0.537477
-0.828442
-1.0842
-1.30361
-1.48737
-1.63682
-1.75253
-1.83518
-1.88444
-1.90023
-1.88219
-1.82805
-1.73466
-1.5985
-1.41137
-1.16132
-0.828908
-0.374807
-0.597192
-0.716374
-0.877941
-1.04487
-1.19996
-1.33605
-1.4488
-1.53648
-1.59767
-1.63026
-1.63424
-1.6076
-1.54845
-1.45383
-1.32168
-1.14595
-0.92034
-0.634124
-0.265475
-0.990228
-0.938979
-0.975001
-1.05071
-1.13872
-1.22492
-1.30003
-1.3596
-1.4002
-1.41822
-1.41331
-1.38227
-1.32329
-1.23342
-1.11126
-0.951968
-0.752246
-0.506051
-0.201303
-1.3969
-1.2254
-1.15008
-1.13409
-1.1498
-1.17974
-1.21144
-1.238
-1.25421
-1.25515
-1.23968
-1.20375
-1.14526
-1.06105
-0.949746
-0.807073
-0.631045
-0.417928
-0.160752
-1.64131
-1.42603
-1.28512
-1.20348
-1.16195
-1.14463
-1.13872
-1.13605
-1.13037
-1.11597
-1.09099
-1.05095
-0.993433
-0.915196
-0.814745
-0.688198
-0.534149
-0.350109
-0.131875
-1.84118
-1.6077
-1.42747
-1.29725
-1.20739
-1.1465
-1.10374
-1.07105
-1.04196
-1.01048
-0.974114
-0.928183
-0.869951
-0.796028
-0.704641
-0.592067
-0.456969
-0.297374
-0.11051
-2.04574
-1.8109
-1.60621
-1.43784
-1.30459
-1.20073
-1.11897
-1.05271
-0.996107
-0.943391
-0.891671
-0.836217
-0.773947
-0.701259
-0.615988
-0.514378
-0.394846
-0.255467
-0.0940228
-2.10377
-1.90031
-1.70057
-1.52015
-1.36502
-1.2349
-1.12643
-1.03534
-0.957171
-0.887021
-0.822142
-0.758126
-0.691836
-0.619694
-0.539325
-0.447051
-0.341075
-0.219454
-0.0801883
-2.12078
-1.95144
-1.76806
-1.58803
-1.42185
-1.27394
-1.14473
-1.03268
-0.935176
-0.848574
-0.770652
-0.697528
-0.626188
-0.553163
-0.475936
-0.3909
-0.296032
-0.189288
-0.0687154
-2.12096
-1.98247
-1.81915
-1.64653
-1.47673
-1.31741
-1.17228
-1.04255
-0.927706
-0.825597
-0.734828
-0.652197
-0.57495
-0.499799
-0.424151
-0.344459
-0.258485
-0.164049
-0.0591303
-2.07349
-1.96822
-1.82932
-1.67139
-1.50662
-1.34445
-1.19094
-1.04969
-0.922219
-0.807996
-0.706668
-0.615867
-0.533262
-0.45586
-0.381109
-0.305574
-0.22688
-0.142739
-0.0510376
-1.97585
-1.90237
-1.79043
-1.6527
-1.50047
-1.34374
-1.18988
-1.04428
-0.910178
-0.788592
-0.680287
-0.583828
-0.497441
-0.418537
-0.344722
-0.272744
-0.200191
-0.124736
-0.0442133
-1.85965
-1.80664
-1.71855
-1.60204
-1.46595
-1.31966
-1.17103
-1.02652
-0.890714
-0.765928
-0.653987
-0.554378
-0.465933
-0.386515
-0.313948
-0.245192
-0.177871
-0.109696
-0.0385166
-1.76223
-1.72564
-1.65574
-1.5563
-1.43388
-1.2969
-1.15334
-1.01041
-0.873717
-0.746691
-0.632053
-0.530099
-0.440179
-0.36053
-0.289131
-0.223074
-0.15998
-0.097612
-0.0339058
-1.58831
-1.57366
-1.52523
-1.44733
-1.34497
-1.22517
-1.09528
-0.962498
-0.832955
-0.710802
-0.59947
-0.500008
-0.412321
-0.335107
-0.26659
-0.204045
-0.145127
-0.0877303
-0.0301079
-1.39396
-1.39662
-1.3676
-1.31023
-1.22836
-1.12764
-1.01454
-0.89582
-0.777663
-0.664586
-0.560431
-0.466811
-0.384097
-0.311423
-0.247271
-0.18905
-0.134309
-0.0808718
-0.0273918
-1.18976
-1.20348
-1.19046
-1.15178
-1.08985
-1.00897
-0.914574
-0.812734
-0.709347
-0.608948
-0.515473
-0.430864
-0.355807
-0.289839
-0.231741
-0.179081
-0.129111
-0.078957
-0.0267805
-0.961849
-0.980846
-0.980765
-0.959899
-0.918761
-0.860009
-0.787788
-0.707116
-0.623261
-0.540419
-0.462248
-0.390778
-0.326825
-0.270309
-0.220478
-0.175346
-0.132024
-0.0864065
-0.0333358
-0.703359
-0.693174
-0.66881
-0.630686
-0.581453
-0.524835
-0.465126
-0.406165
-0.351224
-0.302217
-0.259866
-0.223863
-0.193095
-0.166338
-0.142431
-0.119972
-0.09689
-0.0694282
-0.0310132
-0.470079
-0.521404
-0.575155
-0.621324
-0.653091
-0.666436
-0.66078
-0.637874
-0.601581
-0.556296
-0.505928
-0.454012
-0.402596
-0.353703
-0.308856
-0.26904
-0.233534
-0.199784
-0.161464
-0.158598
-0.181564
-0.211083
-0.24157
-0.268856
-0.290015
-0.30401
-0.310808
-0.311727
-0.308311
-0.301259
-0.291468
-0.27834
-0.262052
-0.243302
-0.224233
-0.20625
-0.190959
-0.178253
0.15347
0.125089
0.0842997
0.0362884
-0.013999
-0.0624756
-0.106565
-0.144906
-0.177546
-0.205119
-0.227556
-0.244872
-0.255519
-0.258569
-0.253985
-0.244256
-0.231917
-0.220075
-0.209813
0.464437
0.425621
0.369619
0.302234
0.229049
0.154931
0.0834321
0.0166692
-0.044685
-0.100814
-0.151375
-0.195801
-0.231666
-0.256497
-0.268614
-0.269846
-0.263422
-0.254118
-0.244498
0.744717
0.689199
0.614567
0.527603
0.434094
0.339076
0.246261
0.157781
0.074328
-0.00442613
-0.0784149
-0.14709
-0.207566
-0.255762
-0.287409
-0.302195
-0.302817
-0.295686
-0.285604
1.03408
0.957805
0.862076
0.753949
0.639422
0.523706
0.410536
0.301898
0.198307
0.0990383
0.00353032
-0.0883956
-0.174288
-0.249188
-0.305915
-0.340364
-0.35229
-0.348614
-0.337237
1.25096
1.151
1.03474
0.909014
0.779679
0.651378
0.527082
0.407979
0.293935
0.183517
0.0752734
-0.0322827
-0.13823
-0.238335
-0.323521
-0.385014
-0.415966
-0.419826
-0.406191
1.45264
1.33256
1.19641
1.05368
0.910538
0.771041
0.637401
0.510075
0.388417
0.270458
0.154047
0.0362485
-0.0844427
-0.206763
-0.322859
-0.421587
-0.487266
-0.513006
-0.503956
1.63789
1.49152
1.33415
1.17536
1.02058
0.872738
0.73304
0.601152
0.476034
0.355451
0.237041
0.117062
-0.00819675
-0.141778
-0.281032
-0.419283
-0.536787
-0.612623
-0.626028
1.75599
1.56992
1.38055
1.19627
1.02103
0.856384
0.70247
0.558338
0.422668
0.293247
0.16775
0.0424893
-0.0871426
-0.227413
-0.382687
-0.557339
-0.742977
-0.922514
-1.06358
1.82733
1.62468
1.43331
1.25828
1.09975
0.95636
0.826042
0.706635
0.596216
0.492909
0.395326
0.301773
0.210288
0.117763
0.0198273
-0.0925211
-0.228033
-0.396723
-0.602337
1.87885
1.67015
1.48559
1.32287
1.17815
1.04814
0.929835
0.820902
0.719628
0.624568
0.534991
0.450415
0.370469
0.295157
0.224909
0.159293
0.0973993
0.035731
-0.0325056
1.7753
1.53735
1.33573
1.1624
1.01126
0.877955
0.758884
0.65135
0.553332
0.463068
0.379551
0.302068
0.230025
0.163341
0.102607
0.0484984
0.00231305
-0.0343786
-0.0608484
1.55616
1.34031
1.16022
1.00738
0.875605
0.760458
0.65842
0.566852
0.483855
0.407836
0.337889
0.273395
0.213797
0.158879
0.108776
0.0634765
0.0231136
-0.0120398
-0.0421274
1.2913
1.11061
0.959425
0.831468
0.721714
0.626322
0.542243
0.467156
0.399406
0.337607
0.280945
0.228837
0.18071
0.136244
0.0953859
0.0579658
0.023973
-0.00637902
-0.0331732
0.971341
0.832258
0.717018
0.620367
0.538107
0.467043
0.404713
0.349255
0.299363
0.253949
0.21236
0.174125
0.138766
0.105999
0.0757541
0.0478954
0.0224338
-0.000414161
-0.0206598
0.61132
0.518602
0.444162
0.382935
0.331448
0.287303
0.248778
0.214613
0.183946
0.156067
0.130545
0.107064
0.0853048
0.0650676
0.0462949
0.028894
0.0128768
-0.00159264
-0.014483
0.234577
0.197086
0.168071
0.144533
0.124813
0.107904
0.0931407
0.0800524
0.0683205
0.0576819
0.0479687
0.0390514
0.0307964
0.023111
0.0159498
0.00925664
0.00301258
-0.0027395
-0.0079922
-0.234464
-0.196836
-0.167727
-0.144127
-0.124368
-0.10744
-0.0926714
-0.0795903
-0.0678759
-0.0572637
-0.0475843
-0.0387073
-0.0304982
-0.0228635
-0.015757
-0.00912136
-0.00293682
0.00275552
0.00794949
-0.611215
-0.51838
-0.44386
-0.382579
-0.331061
-0.286902
-0.248376
-0.214222
-0.183575
-0.155724
-0.130237
-0.106797
-0.0850841
-0.0648977
-0.0461792
-0.0288352
-0.0128761
0.00153548
0.01437
-0.971236
-0.832043
-0.716722
-0.620015
-0.537717
-0.466632
-0.404295
-0.348841
-0.298963
-0.253571
-0.212012
-0.173811
-0.138491
-0.105766
-0.0755646
-0.0477498
-0.0223311
0.000476503
0.0206852
-1.29122
-1.11046
-0.959221
-0.831225
-0.721446
-0.626041
-0.541961
-0.466882
-0.399149
-0.337374
-0.280741
-0.228667
-0.180579
-0.136152
-0.0953346
-0.057954
-0.0239987
0.00631891
0.0330825
-1.55611
-1.34021
-1.16008
-1.00721
-0.875411
-0.76025
-0.658209
-0.566647
-0.483663
-0.407664
-0.337743
-0.273281
-0.213718
-0.158837
-0.10877
-0.0635026
-0.0231668
0.0119679
0.0420475
-1.7753
-1.53733
-1.33567
-1.16232
-1.01116
-0.877839
-0.758769
-0.651244
-0.553244
-0.463006
-0.379522
-0.302078
-0.230081
-0.163446
-0.102761
-0.0486946
-0.00253211
0.0341697
0.0606882
-1.87885
-1.66999
-1.48523
-1.32229
-1.17736
-1.04715
-0.928667
-0.819586
-0.718191
-0.623033
-0.533379
-0.448742
-0.368743
-0.293386
-0.223105
-0.157501
-0.0957262
-0.0344035
0.0331136
-1.82766
-1.62555
-1.43475
-1.26026
-1.10224
-0.959308
-0.829402
-0.710354
-0.600248
-0.497219
-0.399895
-0.306608
-0.215428
-0.123301
-0.0259082
0.0856825
0.220235
0.387895
0.592729
-1.75585
-1.56955
-1.37991
-1.19537
-1.01988
-0.855005
-0.700902
-0.556618
-0.420833
-0.291333
-0.165791
-0.0405195
0.0890901
0.229314
0.384558
0.559283
0.745262
0.9256
1.06808
-1.638
-1.49179
-1.33455
-1.17586
-1.02116
-0.873383
-0.733727
-0.601868
-0.47677
-0.356203
-0.23781
-0.117851
0.00739223
0.140987
0.28033
0.418814
0.536718
0.613055
0.62682
-1.45271
-1.33272
-1.19666
-1.054
-0.910907
-0.771448
-0.637835
-0.510528
-0.388883
-0.270934
-0.154529
-0.0367263
0.0839935
0.206395
0.322652
0.421633
0.487608
0.513593
0.504666
-1.25103
-1.15117
-1.03499
-0.909342
-0.780063
-0.6518
-0.527529
-0.408437
-0.294396
-0.183969
-0.0757055
0.0318895
0.137909
0.238134
0.323492
0.385187
0.416322
0.420294
0.406688
-1.03415
-0.957973
-0.862337
-0.754288
-0.63982
-0.524145
-0.410996
-0.302363
-0.198761
-0.0994663
-0.00391625
0.0880739
0.17406
0.249087
0.305964
0.340558
0.352592
0.348973
0.337615
-0.744778
-0.689357
-0.614816
-0.527928
-0.434477
-0.339496
-0.246697
-0.158212
-0.0747373
0.00405558
0.0781003
0.146851
0.207424
0.255735
0.287497
0.302383
0.303071
0.295975
0.285911
-0.464504
-0.425787
-0.36988
-0.302575
-0.229447
-0.155363
-0.0838719
-0.0170942
0.0442949
0.100476
0.151106
0.195615
0.231575
0.256506
0.268714
0.270018
0.263641
0.254364
0.244764
-0.153528
-0.125247
-0.084553
-0.0366204
0.0136125
0.062062
0.106152
0.144518
0.177204
0.204838
0.227349
0.244747
0.25548
0.258612
0.254098
0.244422
0.232118
0.220302
0.210063
0.158463
0.181156
0.210393
0.240623
0.267706
0.288735
0.302678
0.309497
0.310499
0.307213
0.300319
0.290701
0.277744
0.261614
0.242996
0.224038
0.206151
0.190962
0.178406
0.470172
0.52176
0.575834
0.622341
0.65442
0.668019
0.66254
0.639723
0.603437
0.558092
0.507613
0.455556
0.403985
0.35494
0.309955
0.270023
0.234425
0.200602
0.162214
0.703256
0.692812
0.668184
0.629828
0.580418
0.523692
0.463945
0.405009
0.350143
0.301244
0.25902
0.223149
0.192508
0.165869
0.142065
0.119695
0.0966897
0.0692982
0.030959
0.961905
0.98096
0.980937
0.960118
0.919008
0.860264
0.788032
0.707334
0.623444
0.540562
0.462353
0.39085
0.326869
0.270333
0.220488
0.175347
0.132019
0.0863998
0.033333
1.18977
1.20349
1.19048
1.1518
1.08987
1.00899
0.914587
0.812741
0.709348
0.608943
0.515463
0.43085
0.355792
0.289824
0.231727
0.179069
0.129102
0.0789514
0.0267795
1.39396
1.39663
1.36761
1.31025
1.22837
1.12766
1.01455
0.895822
0.777661
0.664579
0.560421
0.466799
0.384084
0.311411
0.24726
0.189042
0.134303
0.0808688
0.0273911
1.58831
1.57367
1.52524
1.44734
1.34498
1.22518
1.09528
0.962496
0.83295
0.710794
0.59946
0.499997
0.412311
0.335098
0.266583
0.204039
0.145123
0.0877283
0.0301073
1.76224
1.72565
1.65575
1.55631
1.43389
1.29691
1.15335
1.0104
0.873712
0.746684
0.632045
0.530091
0.440171
0.360523
0.289125
0.22307
0.159977
0.0976102
0.0339053
1.85965
1.80664
1.71856
1.60204
1.46596
1.31966
1.17103
1.02652
0.890708
0.765921
0.653979
0.55437
0.465926
0.386509
0.313943
0.245188
0.177868
0.109694
0.0385161
1.97586
1.90237
1.79044
1.6527
1.50048
1.34374
1.18988
1.04427
0.910172
0.788585
0.68028
0.583821
0.497435
0.418532
0.344717
0.27274
0.200187
0.124734
0.0442127
2.0735
1.96823
1.82933
1.6714
1.50663
1.34445
1.19094
1.04969
0.922214
0.80799
0.706661
0.615861
0.533256
0.455854
0.381104
0.305569
0.226877
0.142737
0.0510371
2.12096
1.98248
1.81915
1.64654
1.47673
1.31741
1.17228
1.04255
0.9277
0.82559
0.734821
0.652191
0.574944
0.499792
0.424145
0.344453
0.258481
0.164047
0.0591299
2.12078
1.95145
1.76806
1.58803
1.42186
1.27394
1.14473
1.03267
0.93517
0.848567
0.770645
0.697522
0.626181
0.553156
0.47593
0.390895
0.296027
0.189286
0.0687153
2.10377
1.90032
1.70058
1.52016
1.36502
1.2349
1.12643
1.03533
0.957167
0.887016
0.822137
0.75812
0.691829
0.619688
0.539319
0.447046
0.341072
0.219453
0.0801886
2.04574
1.8109
1.60621
1.43783
1.30458
1.20072
1.11896
1.0527
0.996099
0.943383
0.891662
0.836209
0.773939
0.701252
0.615981
0.514374
0.394843
0.255466
0.0940234
1.84119
1.60771
1.42748
1.29725
1.20739
1.1465
1.10373
1.07105
1.04195
1.01048
0.974108
0.928177
0.869945
0.796023
0.704637
0.592065
0.456969
0.297375
0.110511
1.64132
1.42604
1.28513
1.20348
1.16195
1.14463
1.13872
1.13605
1.13036
1.11597
1.09099
1.05095
0.993429
0.915193
0.814745
0.688199
0.534152
0.350112
0.131876
1.39691
1.2254
1.15008
1.13409
1.1498
1.17974
1.21143
1.23799
1.2542
1.25514
1.23968
1.20375
1.14526
1.06105
0.949748
0.807077
0.63105
0.417932
0.160754
0.990239
0.938984
0.975003
1.05071
1.13872
1.22492
1.30003
1.3596
1.40019
1.41822
1.41331
1.38227
1.32329
1.23343
1.11127
0.951974
0.752252
0.506055
0.201303
0.597201
0.716379
0.877945
1.04487
1.19996
1.33605
1.4488
1.53648
1.59767
1.63026
1.63424
1.6076
1.54846
1.45384
1.32169
1.14596
0.920346
0.634127
0.265475
0.221703
0.537482
0.828446
1.0842
1.30362
1.48738
1.63682
1.75252
1.83518
1.88444
1.90023
1.88219
1.82806
1.73467
1.59851
1.41138
1.16132
0.82891
0.374806
-0.0607612
0.43602
0.839974
1.17309
1.4502
1.67801
1.86312
2.00767
2.11448
2.18533
2.21965
2.21948
2.18187
2.10335
1.9779
1.79369
1.52884
1.14812
0.581185
-0.196336
0.420178
0.906242
1.30116
1.62863
1.89751
2.11859
2.2949
2.43157
2.53319
2.59876
2.6338
2.63499
2.59905
2.51657
2.37051
2.12298
1.71136
1.01227
-0.173023
0.479977
1.01268
1.45356
1.82445
2.13211
2.39031
2.60285
2.77781
2.924
3.04099
3.13973
3.21883
3.27786
3.30507
3.27911
3.14026
2.78311
1.99957
-0.0313042
0.589503
1.14037
1.61464
2.02284
2.36693
2.66278
2.91611
3.13889
3.34714
3.54347
3.74801
3.9689
4.21771
4.48883
4.77041
4.98732
4.98518
4.43555
0.141344
0.709047
1.26852
1.77067
2.2113
2.58851
2.91976
3.21637
3.49419
3.78338
4.09308
4.45972
4.92562
5.55128
6.40729
7.66916
9.60653
12.8012
18.4565
)
;

boundaryField
{
    up
    {
        type            calculated;
        value           nonuniform List<scalar> 
84
(
-18.4565
-4.43555
-1.99957
-1.01227
-0.581187
-0.374807
-0.265475
-0.201303
-0.160752
-0.131875
-0.11051
-0.0940228
-0.0801883
-0.0687154
-0.0591303
-0.0510376
-0.0442133
-0.0385166
-0.0339058
-0.0301079
-0.0273918
-0.0267805
-0.0333358
-0.0310132
-0.13771
-0.166065
-0.197327
-0.230511
-0.269254
-0.317416
-0.380425
-0.464265
-0.564023
-1.04894
-0.621723
-0.0336239
-0.0607014
-0.0420102
-0.0331066
-0.0206361
-0.0144752
-0.00799325
0.00795055
0.0143623
0.0206617
0.0330164
0.041931
0.0605416
0.0342159
0.611872
1.05425
0.564734
0.464881
0.380883
0.317774
0.269549
0.230771
0.197578
0.166287
0.138388
0.030959
0.033333
0.0267795
0.0273911
0.0301073
0.0339053
0.0385161
0.0442127
0.0510371
0.0591299
0.0687153
0.0801886
0.0940234
0.110511
0.131876
0.160754
0.201303
0.265475
0.374806
0.581185
1.01227
1.99957
4.43555
18.4565
)
;
    }
    low
    {
        type            calculated;
        value           nonuniform List<scalar> 
84
(
-0.127355
0.0524791
0.207241
0.233562
0.0841872
-0.226033
-0.632923
-1.05029
-1.46641
-1.69843
-1.89125
-2.08587
-2.1206
-2.12324
-2.11436
-2.05367
-1.94474
-1.82558
-1.72111
-1.5342
-1.33358
-1.12823
-0.901838
-0.650818
-0.429091
-0.143818
0.136638
0.422586
0.69101
0.980348
1.2069
1.4168
1.614
1.74768
1.83144
1.89763
1.80954
1.593
1.32429
0.997669
0.628792
0.241892
-0.241779
-0.628683
-0.997557
-1.3242
-1.59294
-1.80952
-1.89761
-1.83172
-1.74755
-1.61409
-1.41686
-1.20697
-0.980417
-0.691073
-0.422656
-0.136697
0.143686
0.429182
0.650723
0.901887
1.12824
1.33359
1.5342
1.72112
1.82559
1.94474
2.05367
2.11436
2.12324
2.1206
2.08587
1.89126
1.69844
1.46642
1.0503
0.632933
0.22604
-0.0841838
-0.233563
-0.207245
-0.0524812
0.127356
)
;
    }
    left
    {
        type            calculated;
        value           nonuniform List<scalar> 
19
(
-0.125516
-0.680895
-1.25186
-1.77148
-2.23113
-2.62597
-2.97476
-3.2907
-3.58955
-3.90902
-4.25799
-4.67733
-5.2221
-5.97303
-7.0187
-8.60575
-11.1083
-15.3393
-16.0077
)
;
    }
    right
    {
        type            calculated;
        value           nonuniform List<scalar> 
19
(
0.125517
0.680897
1.25186
1.77148
2.23113
2.62597
2.97476
3.2907
3.58955
3.90902
4.25799
4.67732
5.22209
5.97302
7.01869
8.60574
11.1083
15.3393
16.0077
)
;
    }
    frontAndBackPlanes
    {
        type            empty;
    }
}


// ************************************************************************* //
