/*--------------------------------*- C++ -*----------------------------------*\
  =========                 |
  \\      /  F ield         | OpenFOAM: The Open Source CFD Toolbox
   \\    /   O peration     | Website:  https://openfoam.org
    \\  /    A nd           | Version:  7
     \\/     M anipulation  |
\*---------------------------------------------------------------------------*/
FoamFile
{
    version     2.0;
    format      ascii;
    class       volScalarField;
    location    "0.21";
    object      gradTz;
}
// * * * * * * * * * * * * * * * * * * * * * * * * * * * * * * * * * * * * * //

dimensions      [0 -1 0 1 0 0 0];

internalField   nonuniform List<scalar> 
1596
(
-4.84083e-16
-2.34838e-16
2.39184e-16
5.70645e-18
-4.54154e-16
0
-2.11152e-16
-2.08221e-16
-1.45921e-17
-1.10117e-16
-9.51691e-19
-1.0971e-16
4.83954e-16
-1.08683e-16
5.07515e-16
4.38213e-16
2.60725e-16
3.29456e-16
0
4.83062e-16
0
6.76992e-16
-5.11841e-18
-2.05931e-16
2.03983e-16
4.22668e-16
1.39592e-17
1.99817e-16
-9.64932e-17
1.92693e-16
-2.76263e-18
-2.67561e-16
-1.6739e-16
-4.10249e-16
-4.00533e-16
-3.64575e-16
2.07659e-16
0
-2.35971e-16
0
-4.39718e-16
8.12009e-18
3.99675e-16
-1.13953e-16
9.61099e-18
-2.76067e-18
-2.72502e-18
-2.84481e-18
7.15041e-17
0
1.3877e-16
3.93002e-16
-3.87922e-17
3.13838e-17
7.37297e-17
1.1568e-16
0
3.71855e-16
-1.10495e-16
1.10091e-16
0
-1.05483e-16
-1.09691e-16
1.83892e-16
-1.58438e-16
0
0
-5.96373e-17
3.7361e-17
0
-1.15375e-16
-1.46242e-16
1.01628e-16
-1.05538e-16
-5.42383e-18
0
6.50996e-17
1.70886e-16
-1.52265e-16
0
-4.43538e-17
-1.35418e-16
0
2.00998e-16
-1.98897e-17
-1.80188e-17
-1.94384e-17
1.03824e-16
1.28562e-16
1.34975e-17
6.06967e-18
-1.09875e-16
5.52422e-18
5.09807e-17
-2.20696e-17
-1.69053e-17
-2.34289e-16
2.20784e-16
-1.90282e-16
-4.39037e-19
-1.65219e-16
4.63845e-18
-4.65385e-18
-1.28506e-16
0
-1.62099e-17
-1.22956e-16
-1.16072e-16
9.33783e-17
9.92001e-17
-1.34838e-18
-5.9521e-17
-5.1709e-17
3.96464e-17
1.41281e-16
-2.38152e-16
2.63757e-16
1.46219e-16
0
1.27118e-16
7.37094e-17
-3.53639e-17
1.62744e-16
-3.03654e-17
-1.29542e-16
1.11566e-18
-7.59932e-17
-9.38051e-17
-7.25347e-17
6.23266e-17
6.00449e-17
-8.05367e-19
-1.64782e-17
1.53508e-17
3.79063e-16
-4.39907e-16
0
0
-1.55078e-16
0
0
0
1.0321e-16
0
0
6.99323e-17
2.45216e-18
2.04392e-17
-5.46138e-17
0
2.90621e-17
1.15085e-17
0
-2.43993e-16
4.68016e-16
0
0
1.59709e-16
0
-5.91246e-17
5.90649e-17
-1.05053e-16
4.32705e-17
-4.3587e-17
0
6.27925e-17
6.30962e-17
0
-3.63686e-17
-2.96887e-17
-1.00777e-17
5.98202e-16
-2.78562e-16
0
-1.90071e-16
1.87944e-16
0
1.3394e-16
0
0
0
3.9285e-17
-3.94734e-17
0
-4.86164e-17
-1.37644e-17
0
4.71629e-18
2.04969e-17
0
-1.51861e-16
0
0
1.90529e-16
-3.52942e-16
2.03229e-17
7.76311e-18
-5.38231e-17
6.66081e-18
2.57674e-18
-4.09127e-17
-6.45761e-17
0
4.86428e-17
-9.93277e-18
1.00818e-17
2.72034e-17
-1.61605e-17
-7.34039e-18
1.23254e-16
-1.49569e-17
1.18485e-16
3.978e-16
-2.4044e-17
-1.63316e-16
0
0
0
8.42862e-17
3.30466e-17
1.18443e-16
-2.85537e-17
-4.77726e-17
-2.77497e-17
-1.54947e-17
6.93749e-18
-1.51963e-17
6.96406e-18
-1.38279e-16
1.35601e-16
-2.48966e-16
-3.93028e-16
3.61068e-16
1.38617e-16
-2.54102e-16
2.15659e-16
-1.8287e-16
4.78322e-17
3.55398e-17
-3.20321e-17
1.97978e-17
-1.81907e-17
5.37024e-17
0
-4.0981e-18
3.04624e-17
-4.545e-18
-9.05367e-16
4.12885e-16
3.28226e-19
-8.66667e-17
1.26915e-17
1.3453e-16
-2.54185e-16
-1.01961e-16
8.51431e-17
-7.07551e-17
-5.90988e-17
0
-6.57302e-17
-1.944e-17
-3.42048e-17
-2.0305e-17
1.59438e-18
-1.85942e-17
5.5959e-19
1.47969e-16
-1.30398e-16
2.32841e-19
-9.75365e-17
-2.37791e-16
2.22731e-16
1.10595e-18
9.93612e-17
-8.28981e-17
1.35308e-16
3.18015e-17
2.55151e-17
7.66196e-17
0
6.23988e-17
2.86627e-17
0
9.96395e-18
4.6002e-19
0
1.26502e-16
9.66453e-17
-2.02717e-16
2.30242e-16
-3.41233e-16
2.37621e-16
8.61147e-17
-1.4415e-17
-1.34223e-16
2.3575e-17
-2.34587e-17
-6.89772e-17
2.67436e-17
-1.35994e-17
-2.81477e-17
1.19223e-17
-7.44642e-18
3.0618e-18
-1.37804e-16
4.59589e-16
-3.43213e-16
1.81949e-16
0
0
-4.53696e-17
9.77792e-17
-6.6156e-17
1.23299e-16
0
0
4.59597e-17
-3.96637e-17
-2.72451e-17
8.62867e-18
-9.31095e-18
4.95961e-18
0
1.27109e-17
1.28889e-16
-1.01337e-16
-8.7429e-17
-1.36871e-16
-4.09923e-17
6.08044e-17
0
-6.18074e-17
-4.85474e-17
4.29985e-17
-3.40755e-17
2.68744e-17
0
1.05031e-17
1.98014e-17
0
0
0
-1.22185e-17
2.00561e-16
7.33817e-17
-2.64614e-16
7.10821e-17
5.97606e-17
0
0
5.79754e-17
-3.03655e-17
-4.15889e-17
3.29572e-17
-2.59896e-17
0
-6.53478e-18
5.33141e-18
0
-4.55903e-18
-1.60467e-18
-1.0915e-16
3.20316e-16
-3.84331e-16
-1.4888e-16
7.87538e-17
-5.62464e-17
4.60017e-17
0
-2.95812e-17
2.41266e-17
0
0
9.90034e-18
-9.91174e-18
2.83619e-18
-3.96831e-18
6.37088e-18
8.95232e-19
1.20122e-18
5.68657e-17
-5.05866e-17
2.53394e-16
-1.63017e-16
-6.39965e-17
9.27782e-18
9.57261e-17
3.47683e-17
2.83047e-17
0
1.50592e-17
-1.38672e-17
1.06865e-17
-8.79667e-18
1.07774e-17
-1.83481e-17
-4.95932e-18
4.30166e-18
1.12206e-18
1.50838e-16
-1.53629e-16
0
1.33551e-16
-7.11123e-17
-5.06579e-17
3.28825e-17
-1.06934e-16
0
-1.94884e-18
-1.78403e-17
-1.22253e-17
1.70444e-17
-1.46367e-18
-1.04161e-17
7.53711e-18
0
2.613e-18
-1.08951e-18
2.61244e-16
-4.53228e-17
1.88098e-16
-1.47046e-16
7.69275e-17
5.59715e-18
-8.61394e-17
-2.76009e-17
4.89455e-17
-2.34557e-18
-2.62718e-17
2.16946e-17
-9.29444e-18
-1.15925e-17
0
0
0
-2.63664e-18
9.69112e-20
-2.30088e-16
2.2344e-16
1.6636e-19
3.26754e-17
2.74436e-17
-6.38299e-17
7.37845e-17
-5.86738e-17
4.86344e-17
-1.51088e-17
2.84993e-17
9.63983e-18
-3.99602e-18
1.93023e-19
-1.30004e-18
-2.28083e-18
0
0
0
0
0
1.05734e-16
-5.41628e-17
-1.57239e-16
0
0
-1.70755e-17
-2.64803e-17
2.14576e-17
0
-1.21576e-17
9.08991e-18
-2.90653e-17
3.31052e-17
-1.03331e-17
1.09713e-17
1.17508e-18
0
-4.45585e-17
4.5107e-17
0
-3.48105e-17
3.51927e-17
5.63135e-17
0
1.72385e-17
2.11056e-17
-9.62027e-17
0
-1.38087e-17
1.0396e-17
7.08576e-18
-5.10425e-18
7.32968e-18
0
-2.59779e-18
0
-2.29241e-17
-2.25142e-17
1.33212e-18
3.57669e-17
-9.40126e-17
0
-2.30277e-17
0
6.10735e-17
2.369e-17
0
5.47833e-17
-5.60246e-17
6.0308e-18
-1.11823e-17
3.69595e-18
1.41636e-17
5.16901e-18
-4.0974e-18
0
4.70811e-17
-4.0319e-17
4.98498e-17
5.81941e-17
0
4.66322e-17
-4.36057e-17
-3.28957e-17
4.75191e-17
-7.11247e-17
-3.31836e-17
0
0
6.54422e-18
0
0
1.77978e-18
0
-2.10243e-16
1.61729e-16
0
2.78978e-18
-3.37199e-17
-1.81692e-18
2.90911e-17
1.97703e-17
-2.55793e-17
-6.10351e-17
9.35986e-17
-2.55877e-17
0
-1.13061e-17
0
0
0
-6.90278e-18
5.52265e-18
-5.98157e-17
5.54082e-17
1.4543e-16
-1.41388e-16
4.27912e-17
2.65237e-18
-2.95364e-17
2.48625e-17
4.12218e-17
3.0567e-17
-6.02605e-17
0
2.89939e-17
3.1494e-18
-1.29463e-17
-2.7142e-17
2.22257e-17
-3.39455e-18
6.52174e-18
-2.0367e-16
2.86963e-16
-2.83825e-16
4.90213e-17
4.0711e-17
-3.83934e-17
3.1955e-17
-2.4637e-17
0
-2.01071e-17
3.1023e-17
1.34064e-17
2.11732e-17
2.5619e-17
-3.80672e-17
-8.88384e-19
0
-2.70511e-18
9.12126e-19
-2.20205e-16
-6.45161e-17
-1.11208e-16
5.95769e-17
-9.45889e-17
8.07454e-17
-4.77119e-17
3.93635e-17
-3.08075e-18
-3.04963e-18
-3.31897e-17
1.99055e-17
-1.02285e-17
3.15656e-17
-3.3886e-17
3.83089e-18
3.46962e-18
0
-1.60021e-18
2.3809e-16
-6.96797e-17
0
0
-9.73232e-17
1.88345e-16
-4.35329e-17
-8.09992e-18
6.58017e-17
-1.74509e-18
0
0
-1.41285e-17
0
-2.99085e-17
7.16713e-17
-4.9412e-17
0
6.51549e-19
8.0978e-17
1.49936e-16
0
-6.26589e-17
-4.99243e-17
-4.32267e-17
-4.54061e-17
1.83669e-17
-5.08708e-17
-2.72088e-17
0
0
1.96814e-17
0
0
-4.11974e-17
6.80888e-17
0
0
5.55833e-16
-6.78543e-17
-3.32104e-16
-1.77216e-16
2.40708e-16
7.53609e-17
4.40268e-17
0
-1.57622e-17
1.49328e-17
3.72472e-17
-1.19184e-17
-1.72706e-17
2.66686e-17
-2.83673e-17
-8.49788e-18
0
0
0
4.45115e-17
-3.47411e-16
3.40265e-16
-3.2231e-17
-2.45734e-16
3.82659e-16
-1.91109e-16
0
0
9.79658e-17
-8.0088e-17
0
-2.3546e-17
4.11994e-17
-4.49526e-18
1.19045e-17
3.59793e-18
4.2248e-20
7.75643e-19
0
0
0
2.82041e-16
-1.89359e-16
1.95234e-16
-3.03546e-16
8.59098e-17
0
-3.02417e-17
4.78216e-17
-4.88765e-17
-9.4272e-18
-5.73032e-20
-6.38236e-18
-9.03386e-19
-5.09597e-18
-1.43958e-18
-7.81323e-19
3.71684e-16
-6.60501e-16
3.11914e-16
0
8.19636e-17
-1.11795e-16
1.10287e-16
-8.74503e-17
0
-4.16168e-17
5.8346e-17
0
0
-3.00174e-20
0
-6.7334e-18
4.59378e-18
8.13668e-19
1.25075e-18
3.63237e-16
0
-1.41789e-16
1.58317e-16
-9.79226e-17
2.13375e-16
-1.0047e-16
-7.74774e-17
7.82866e-17
-7.89651e-18
0
0
4.98506e-18
-8.31619e-18
-5.83224e-18
1.10339e-17
-2.3883e-18
1.21082e-18
0
2.06151e-16
1.59245e-16
-6.40824e-18
-1.51125e-16
-1.50976e-17
-1.07879e-16
1.22946e-17
9.00227e-17
-4.61253e-18
8.04479e-18
0
0
-5.10687e-18
0
5.98528e-18
-6.40282e-18
0
8.18922e-19
-2.26469e-19
-1.09404e-16
-7.99253e-17
7.48608e-17
-8.48866e-18
-3.78494e-18
1.01524e-17
0
-2.64899e-18
3.93237e-17
-3.31158e-17
0
1.10585e-17
-2.2036e-18
-9.7287e-18
-8.87429e-19
-6.90862e-19
0
-6.40653e-19
0
4.44587e-17
-8.43201e-17
-8.76589e-19
3.59172e-17
3.24741e-17
-3.22377e-17
-2.25764e-17
2.55448e-17
-8.67157e-18
6.79148e-18
-6.53053e-18
6.73195e-18
0
1.7058e-20
-6.5475e-19
2.35049e-18
-8.03457e-21
0
0
4.44602e-17
-4.42936e-17
-3.57285e-17
3.16663e-17
5.73475e-17
-5.7686e-17
-1.12886e-17
1.13157e-17
-8.74514e-18
8.83683e-18
-6.53079e-18
1.23023e-17
-3.45058e-18
-2.47125e-18
-7.55131e-19
2.51127e-19
5.96553e-19
1.57578e-19
-1.1816e-19
0
-1.05148e-17
6.21854e-17
-6.7448e-17
5.72078e-17
-5.07412e-17
0
3.96016e-17
-3.54459e-17
0
1.29771e-17
-1.64176e-17
-9.28378e-18
9.73e-18
1.77839e-18
0
0
-6.40779e-19
2.3272e-19
1.7688e-16
-3.2483e-16
3.29406e-16
-2.87377e-16
1.12674e-16
-9.44301e-17
8.96713e-17
1.05288e-17
-3.89259e-17
3.47628e-17
0
-2.48248e-17
2.26232e-17
-4.26046e-18
-1.74193e-18
2.71714e-18
1.99426e-18
6.22073e-19
-2.24861e-19
4.09418e-16
0
-1.6047e-16
1.24757e-16
1.49241e-17
-1.135e-16
2.00555e-16
-1.76768e-16
6.91888e-17
-2.91867e-17
2.98752e-17
5.88309e-18
9.9916e-18
4.14974e-18
-3.40267e-18
-4.6024e-19
-4.31258e-18
0
4.35977e-19
3.2612e-16
-3.67098e-16
0
3.3127e-17
1.41352e-16
-1.38212e-16
2.32902e-17
2.04737e-17
8.91585e-18
1.55131e-17
0
0
-1.73587e-17
3.22962e-17
-1.17652e-17
-4.1973e-18
4.59534e-18
3.66758e-19
-8.27048e-19
3.22633e-17
3.22522e-16
-3.68551e-17
-2.49111e-16
2.188e-16
2.58744e-17
-2.27937e-17
-1.99967e-17
6.49432e-17
-8.05418e-17
4.78388e-17
-4.88934e-17
7.47679e-18
-9.67047e-18
1.72974e-17
-1.15547e-17
0
0
8.13974e-19
0
8.05002e-17
-2.38965e-16
2.73259e-16
-2.17215e-16
2.16697e-16
0
7.30748e-17
-7.34096e-17
-5.4233e-17
8.01525e-17
0
3.261e-17
-4.1233e-17
-6.08149e-18
0
-6.71261e-19
-1.30592e-18
-4.1876e-20
-7.701e-16
3.65864e-16
0
-2.4067e-16
2.40646e-16
1.44854e-16
-9.51209e-17
3.84189e-17
0
-1.69047e-18
1.21727e-17
-1.19032e-17
-1.72498e-17
2.66333e-17
-2.83201e-17
0
5.95204e-18
-1.23712e-18
-8.10404e-19
4.72647e-16
-4.63798e-16
0
6.24137e-17
5.61469e-17
-5.09511e-17
0
-4.02634e-17
-3.39555e-17
0
-1.8425e-18
0
1.96924e-17
0
0
8.39761e-18
3.13911e-17
-4.07418e-17
0
5.15812e-20
6.9714e-17
-6.36826e-17
5.08517e-17
-2.59008e-16
9.84934e-17
0
8.1063e-18
2.28962e-17
0
-2.29186e-17
6.48563e-17
-6.81353e-17
1.11134e-17
0
-1.44037e-18
0
0
0
5.45798e-20
0
5.88586e-17
0
-8.83434e-17
8.97478e-17
0
3.08461e-17
-2.426e-17
8.706e-17
-4.17958e-17
1.46016e-17
-2.31203e-17
2.1534e-17
-3.39333e-17
-5.36241e-18
0
-3.31848e-18
0
1.83109e-16
-3.09831e-16
0
-4.89181e-17
4.32833e-17
0
0
-5.61383e-17
0
-2.01237e-17
-3.10505e-17
-1.34203e-17
2.11977e-17
0
1.07054e-17
0
0
7.18762e-18
-7.86077e-18
0
2.6595e-16
-2.12668e-16
4.5287e-17
-4.00806e-17
-1.60345e-17
4.58453e-17
5.04766e-17
-6.01302e-17
1.93317e-17
1.72158e-18
-1.69145e-17
6.88105e-17
-2.13334e-17
-4.78516e-17
1.62916e-17
-4.04789e-18
2.43765e-18
-7.14724e-19
-4.37605e-16
1.61738e-16
0
0
1.69101e-17
-1.71956e-17
1.17346e-17
7.24749e-18
5.38988e-17
2.68175e-17
-2.62794e-17
-1.30664e-18
-1.40031e-17
1.13182e-17
0
5.26568e-18
3.71019e-18
1.92897e-18
6.46009e-19
0
1.38951e-16
-1.28416e-16
4.09271e-17
4.12471e-17
-7.91468e-18
-2.48881e-17
-2.08186e-17
-6.71705e-17
2.63187e-17
-1.52669e-17
2.1482e-17
1.30946e-17
-1.56887e-17
1.66526e-17
1.00753e-17
-1.32545e-17
-1.78169e-18
0
-2.49364e-17
-1.10641e-16
3.90695e-17
3.57769e-17
-1.20797e-16
8.57693e-17
4.11234e-17
-4.20345e-17
3.12216e-17
-2.49778e-17
0
0
-1.89235e-17
3.36224e-17
-1.46207e-17
1.31343e-17
-1.43907e-17
2.31218e-18
-4.10185e-18
4.66217e-17
4.31487e-17
-3.87688e-17
2.94061e-17
-3.48831e-17
-5.13259e-17
0
0
0
0
0
0
9.65133e-18
-2.4683e-17
2.61049e-17
-8.13428e-18
1.00465e-17
4.61571e-18
-3.90164e-18
9.69186e-17
-1.62065e-16
2.02499e-16
-9.197e-17
1.27552e-16
-8.95155e-17
1.65358e-16
-9.18609e-17
-4.69514e-17
4.80292e-17
0
1.21505e-17
-9.42885e-18
2.21528e-17
-7.77011e-18
-9.50486e-18
-1.92388e-17
1.47553e-18
3.30135e-18
1.51016e-16
4.28736e-17
0
-6.51357e-17
-5.01298e-17
1.13718e-16
1.04748e-17
-4.39417e-17
2.57668e-17
-1.75804e-17
0
-9.6185e-18
0
-7.40291e-18
5.91244e-18
-5.20501e-18
-1.70635e-18
1.18171e-18
0
2.10675e-16
-4.53221e-17
1.88034e-16
-1.47037e-16
-2.88696e-17
1.10764e-16
-6.64129e-17
3.60259e-18
2.90941e-18
-1.71246e-17
1.6419e-17
0
0
9.11495e-18
-3.16569e-18
2.0098e-18
6.17969e-18
-2.15095e-18
0
4.40245e-20
0
-4.18865e-17
2.41655e-16
-1.62551e-16
-1.67737e-16
9.1566e-17
-9.16657e-17
8.43102e-17
4.03931e-17
-2.96361e-17
1.17959e-17
-1.03686e-17
1.90782e-18
1.62171e-17
4.78692e-19
-5.91876e-18
5.84857e-18
-1.2112e-18
5.10503e-16
-1.62342e-16
7.69596e-17
-2.38917e-16
6.39962e-17
-9.78203e-17
5.29909e-17
0
0
-2.0088e-18
-2.79321e-18
-8.24106e-19
0
-1.44758e-17
-1.07777e-17
7.78828e-18
-5.69227e-19
1.08887e-18
2.42696e-18
0
-1.60352e-16
2.67685e-16
5.71551e-17
-2.14384e-16
5.62463e-17
-8.4181e-17
1.55148e-17
6.70977e-17
0
0
1.21853e-18
1.28401e-17
0
-1.09693e-17
-4.88988e-18
7.2246e-19
-2.47831e-18
-2.89756e-18
0
-9.99516e-17
2.45246e-17
1.80477e-16
1.31273e-16
-2.39012e-16
1.07657e-16
-7.23403e-17
3.90059e-17
-5.20969e-17
0
0
0
-2.03463e-17
5.06255e-18
-6.56686e-18
0
-4.04456e-19
2.01622e-18
-3.82865e-16
3.61906e-16
3.80167e-16
-4.60911e-16
2.10702e-16
-1.97293e-16
0
7.64929e-17
-1.03802e-16
5.91702e-17
-4.50186e-17
3.6098e-17
2.88315e-17
2.10426e-17
1.63411e-17
0
0
0
0
4.25868e-16
-2.43101e-16
0
0
-7.73976e-17
1.8472e-16
-1.18035e-16
-8.1238e-17
8.03223e-17
5.79238e-17
9.5605e-17
-3.74551e-17
1.60495e-17
1.18708e-17
8.5843e-18
7.15542e-18
1.14741e-17
-5.61109e-19
5.7154e-19
-4.30462e-16
3.93495e-16
2.06519e-16
-1.0798e-16
2.30098e-16
-1.474e-16
-1.1399e-16
-9.47499e-17
0
-1.22028e-16
6.64058e-18
4.357e-17
-3.32816e-17
-2.67436e-17
-9.85046e-18
-1.01826e-17
-8.16609e-18
0
0
-1.48089e-16
0
1.13015e-16
-1.26303e-19
0
0
1.17584e-16
9.77685e-17
0
6.64771e-17
0
-6.61733e-17
-1.85922e-17
3.27686e-17
0
2.11064e-17
-2.96722e-18
3.02696e-18
0
3.16324e-16
0
2.16493e-16
-3.99677e-16
3.53407e-16
2.79797e-16
-9.61095e-18
0
7.94796e-18
7.86076e-17
0
-7.56778e-17
8.3592e-17
-7.42926e-17
-1.61647e-17
-1.68841e-17
-5.07615e-18
-9.25357e-19
-3.41474e-18
-2.92097e-16
4.202e-16
-1.17578e-16
-3.04546e-16
-1.74181e-16
-1.48661e-16
-2.53117e-16
-9.95155e-17
8.86648e-18
3.56067e-17
-3.55398e-17
1.11708e-16
-4.94109e-17
9.83685e-17
-1.84164e-17
0
2.1608e-17
-1.29032e-17
3.41907e-18
6.50536e-16
-1.51254e-17
-4.87255e-16
3.97802e-16
-3.5442e-16
3.05292e-16
-1.06831e-17
-1.13163e-16
9.76846e-17
3.8245e-17
-5.18861e-18
-9.22203e-17
2.62875e-17
2.91723e-17
-8.62514e-18
8.72352e-18
-2.23806e-17
-2.78232e-18
-5.62086e-18
3.19355e-16
1.33676e-16
2.33124e-16
-2.02972e-16
-1.6496e-16
9.59037e-18
-1.23954e-16
2.99482e-16
1.11029e-17
1.36447e-16
7.95187e-17
-7.02981e-17
0
-4.86426e-17
0
0
3.28955e-17
1.4304e-17
6.53755e-18
2.98564e-16
0
2.30177e-16
2.01661e-16
-1.77529e-16
1.5359e-16
0
-1.17218e-16
-1.61889e-16
-1.40017e-16
-8.02225e-17
7.1093e-17
0
0
0
0
-3.08626e-17
-2.37809e-17
0
-5.84945e-16
0
-1.24315e-17
-1.1e-17
2.7096e-16
-1.50784e-16
-6.88942e-17
-6.92839e-17
1.65556e-16
0
4.32702e-17
-4.53069e-18
3.9914e-17
0
0
5.33117e-17
-3.98802e-18
2.8569e-17
-1.12365e-17
4.1083e-16
1.17313e-16
-1.16102e-16
-1.01627e-16
-3.49032e-16
2.38226e-16
2.85864e-16
-8.82768e-18
-1.13675e-16
1.13502e-16
2.3704e-17
-1.21338e-16
-9.8515e-17
-6.1493e-17
-6.53855e-17
-6.15023e-17
5.25797e-17
-2.47083e-18
1.15085e-17
-1.25871e-16
5.68306e-17
-2.73119e-16
4.62256e-17
-4.60574e-17
0
-1.42554e-16
-1.13455e-17
-1.32503e-16
1.28298e-17
1.29541e-16
9.45563e-17
-2.35476e-17
8.41806e-18
6.20822e-17
0
-1.10352e-16
-4.11263e-17
-8.51598e-19
2.57415e-16
-6.93715e-18
4.29727e-16
-2.03767e-16
4.39036e-19
5.36041e-18
1.60721e-16
-1.40655e-17
1.28506e-16
-1.20277e-16
-1.13316e-16
0
1.16071e-16
9.19219e-17
1.30217e-18
-1.89677e-18
6.00982e-17
4.17999e-17
0
-1.82716e-16
0
-4.27367e-17
1.94528e-16
2.95893e-18
4.44131e-17
-1.55415e-16
1.46599e-16
1.56777e-16
1.50414e-16
1.4498e-16
0
-1.12761e-16
0
6.11343e-18
-6.34934e-18
0
-6.15641e-19
3.04346e-17
1.27253e-16
7.17166e-18
-9.8964e-17
3.06294e-16
-9.8053e-17
0
0
-1.77901e-16
-1.51901e-16
-1.45718e-16
-2.66856e-16
-3.7361e-17
0
0
0
-1.26706e-17
1.34087e-17
8.6345e-17
-3.09013e-17
7.46496e-18
0
-2.14974e-16
-1.95352e-16
2.05553e-16
-2.04225e-16
-2.91985e-16
3.56372e-16
1.00314e-16
0
1.58163e-16
1.81439e-16
-3.91758e-17
2.13596e-16
-3.50445e-17
3.64728e-17
1.42401e-16
-8.20515e-17
0
-2.42842e-16
0
-2.31896e-16
2.27e-16
0
4.07109e-16
1.90727e-16
-4.02346e-16
3.23314e-16
-1.98655e-18
-9.74813e-17
-1.7567e-16
0
2.45245e-16
-4.10248e-16
4.40565e-16
-5.61517e-16
0
0
2.41961e-16
-1.72886e-18
-4.25147e-18
-4.58505e-16
4.63359e-16
-2.2359e-16
2.22678e-16
2.19486e-16
-1.92647e-16
0
0
3.67278e-16
-3.73606e-16
-3.98123e-16
3.9506e-16
-3.85157e-16
4.16818e-16
-6.53151e-16
0
)
;

boundaryField
{
    up
    {
        type            calculated;
        value           nonuniform List<scalar> 
84
(
0
0
0
0
-2.20696e-17
3.96464e-17
-1.64782e-17
1.15085e-17
-1.00777e-17
0
-7.34039e-18
6.96406e-18
-4.545e-18
5.5959e-19
4.6002e-19
3.0618e-18
0
0
-1.60467e-18
1.20122e-18
1.12206e-18
-1.08951e-18
9.69112e-20
0
4.36571e-19
2.18957e-19
-3.87309e-18
0
5.52265e-18
6.87785e-18
9.12126e-19
-1.60021e-18
6.51549e-19
0
-3.17594e-19
7.98987e-19
-7.7801e-19
1.24731e-18
0
-2.25766e-19
0
0
-1.18184e-19
2.3272e-19
-2.24861e-19
4.35977e-19
-8.27048e-19
8.13974e-19
-4.1876e-20
-8.10404e-19
0
0
0
-7.86077e-18
-1.07119e-18
6.46009e-19
0
-4.10185e-18
-3.90164e-18
2.86618e-18
0
0
-1.2112e-18
2.42696e-18
-2.89756e-18
2.01622e-18
0
5.7154e-19
0
0
-3.41474e-18
3.41907e-18
-5.62086e-18
6.53755e-18
0
-1.12365e-17
1.15085e-17
-8.51598e-19
0
3.04346e-17
-3.09013e-17
0
0
0
)
;
    }
    low
    {
        type            calculated;
        value           nonuniform List<scalar> 
84
(
-4.84461e-16
4.83062e-16
-2.35278e-16
3.72415e-16
6.54774e-17
-1.70165e-17
1.42212e-16
1.6239e-17
0
5.99236e-16
-1.51861e-16
1.22677e-16
-1.38279e-16
-9.054e-16
1.47969e-16
0
-1.37804e-16
1.27109e-17
-1.22185e-17
-1.0915e-16
5.68657e-17
1.50838e-16
2.60206e-16
-2.30088e-16
0
-4.45585e-17
-2.29241e-17
0
-2.10243e-16
-5.98157e-17
-2.03015e-16
-2.19697e-16
2.3776e-16
8.0978e-17
5.55892e-16
4.45115e-17
0
3.71684e-16
3.64074e-16
2.06605e-16
-1.09646e-16
4.44587e-17
4.44602e-17
0
1.7688e-16
4.10255e-16
3.2612e-16
3.28443e-17
0
-7.70159e-16
4.72647e-16
5.15812e-20
5.45798e-20
1.83109e-16
0
-4.3653e-16
0
-2.49364e-17
4.66217e-17
9.62755e-17
1.49895e-16
2.09637e-16
4.40245e-20
5.09658e-16
0
0
-3.82865e-16
4.25477e-16
-4.30213e-16
-1.48089e-16
3.16357e-16
-2.92097e-16
6.5169e-16
3.20162e-16
2.98564e-16
-5.84945e-16
4.09942e-16
-1.2494e-16
2.57415e-16
-1.82338e-16
1.27253e-16
8.15745e-18
-2.42842e-16
2.4215e-16
)
;
    }
    left
    {
        type            calculated;
        value           nonuniform List<scalar> 
19
(
-4.84083e-16
-2.35036e-16
2.39184e-16
5.71214e-18
-4.54296e-16
0
-2.11152e-16
-2.08221e-16
-1.53039e-17
-1.10117e-16
-9.51691e-19
-1.0971e-16
4.88806e-16
-1.08683e-16
5.07515e-16
4.38213e-16
2.60725e-16
3.82605e-16
0
)
;
    }
    right
    {
        type            calculated;
        value           nonuniform List<scalar> 
19
(
2.41961e-16
-1.53071e-18
-4.25147e-18
-4.58511e-16
4.635e-16
-2.2359e-16
2.22678e-16
2.19486e-16
-1.91936e-16
0
0
3.70737e-16
-3.78458e-16
-3.98123e-16
3.9506e-16
-3.85157e-16
4.16818e-16
-7.063e-16
0
)
;
    }
    frontAndBackPlanes
    {
        type            empty;
    }
}


// ************************************************************************* //
