/*--------------------------------*- C++ -*----------------------------------*\
  =========                 |
  \\      /  F ield         | OpenFOAM: The Open Source CFD Toolbox
   \\    /   O peration     | Website:  https://openfoam.org
    \\  /    A nd           | Version:  7
     \\/     M anipulation  |
\*---------------------------------------------------------------------------*/
FoamFile
{
    version     2.0;
    format      ascii;
    class       volScalarField;
    location    "0.25";
    object      gradTy;
}
// * * * * * * * * * * * * * * * * * * * * * * * * * * * * * * * * * * * * * //

dimensions      [0 -1 0 1 0 0 0];

internalField   nonuniform List<scalar> 
1596
(
-0.440205
-0.818263
-1.12943
-1.43027
-1.7215
-2.04099
-2.37346
-2.76239
-3.22555
-3.77596
-4.5309
-5.49124
-6.81917
-8.70708
-11.6354
-16.196
-24.335
-39.3415
-92.9373
-1.34124
-1.65554
-1.87194
-2.07479
-2.27435
-2.51249
-2.77655
-3.10627
-3.51834
-4.01635
-4.69779
-5.55268
-6.68931
-8.19502
-10.316
-13.1774
-17.428
-23.6738
-41.4
-2.40102
-2.50859
-2.5764
-2.65987
-2.7577
-2.90563
-3.08881
-3.34173
-3.67652
-4.09025
-4.66262
-5.37312
-6.29625
-7.47209
-9.04958
-11.0483
-13.8206
-17.6213
-25.7797
-3.51282
-3.3402
-3.2304
-3.18197
-3.1721
-3.22408
-3.31928
-3.48544
-3.73009
-4.04607
-4.49807
-5.06003
-5.7842
-6.68654
-7.8611
-9.28676
-11.1701
-13.6161
-17.8092
-4.53964
-4.10332
-3.8204
-3.64142
-3.52486
-3.48036
-3.48612
-3.56278
-3.71418
-3.93096
-4.2654
-4.69039
-5.24344
-5.92872
-6.80833
-7.84804
-9.17713
-10.833
-13.25
-5.35721
-4.75222
-4.33369
-4.04084
-3.82674
-3.69097
-3.61095
-3.60086
-3.66215
-3.78486
-4.01097
-4.31528
-4.72522
-5.23955
-5.90082
-6.67323
-7.64162
-8.81254
-10.3518
-5.89755
-5.25082
-4.7572
-4.38104
-4.08668
-3.87043
-3.7125
-3.62228
-3.60019
-3.63691
-3.76596
-3.96559
-4.25615
-4.63421
-5.12973
-5.70984
-6.432
-7.28912
-8.34637
-6.15915
-5.57682
-5.07475
-4.65516
-4.30493
-4.02433
-3.80015
-3.63939
-3.54291
-3.50303
-3.54648
-3.65567
-3.84587
-4.11312
-4.47895
-4.9149
-5.46065
-6.10376
-6.86918
-6.19328
-5.75409
-5.30105
-4.87721
-4.49657
-4.16899
-3.89077
-3.66927
-3.50716
-3.39926
-3.36717
-3.39757
-3.50211
-3.67709
-3.93821
-4.26143
-4.67435
-5.16292
-5.73491
-6.04351
-5.75912
-5.39343
-5.00342
-4.62243
-4.27121
-3.95655
-3.68864
-3.47316
-3.30808
-3.21168
-3.17466
-3.20639
-3.30391
-3.47908
-3.71201
-4.02224
-4.39607
-4.83353
-5.8523
-5.6787
-5.40138
-5.06303
-4.70184
-4.3453
-4.00912
-3.70737
-3.44942
-3.23685
-3.08605
-2.99152
-2.96124
-2.99324
-3.09675
-3.25546
-3.48333
-3.76766
-4.10496
-5.61226
-5.55278
-5.36168
-5.08137
-4.7511
-4.40159
-4.05502
-3.72932
-3.43768
-3.18542
-2.98825
-2.84412
-2.76038
-2.73615
-2.77888
-2.87534
-3.03552
-3.24804
-3.50793
-5.31226
-5.35494
-5.24849
-5.03144
-4.74178
-4.41161
-4.06694
-3.72907
-3.41458
-3.13233
-2.89829
-2.71347
-2.58528
-2.51399
-2.50608
-2.55095
-2.656
-2.81128
-3.01128
-5.04398
-5.14546
-5.10598
-4.94679
-4.69896
-4.39335
-4.05748
-3.71505
-3.38544
-3.08056
-2.81721
-2.59909
-2.43401
-2.32341
-2.27325
-2.27515
-2.33472
-2.44338
-2.59563
-4.7942
-4.94222
-4.95439
-4.84409
-4.63503
-4.35502
-4.03138
-3.68923
-3.34999
-3.02817
-2.74163
-2.49636
-2.30081
-2.15754
-2.07226
-2.03844
-2.06054
-2.13117
-2.24514
-4.5484
-4.74071
-4.79659
-4.7278
-4.55337
-4.29814
-3.98833
-3.64968
-3.30508
-2.97108
-2.66662
-2.39969
-2.17943
-2.00943
-1.89537
-1.83225
-1.82377
-1.86363
-1.94704
-4.32476
-4.54744
-4.63883
-4.60481
-4.46025
-4.22745
-3.93128
-3.59769
-3.25051
-2.90792
-2.58986
-2.30592
-2.06598
-1.87448
-1.73719
-1.65034
-1.61718
-1.63232
-1.6914
-4.12797
-4.3716
-4.4909
-4.48537
-4.36577
-4.15201
-3.86781
-3.5391
-3.19044
-2.84134
-2.51257
-2.2151
-1.9594
-1.75062
-1.59457
-1.48853
-1.43545
-1.43075
-1.47045
-3.93052
-4.21127
-4.35978
-4.38008
-4.28205
-4.08414
-3.80952
-3.48419
-3.13351
-2.77824
-2.43992
-2.13076
-1.86169
-1.63837
-1.4666
-1.3445
-1.27485
-1.25386
-1.27792
-3.72728
-4.05025
-4.23162
-4.27817
-4.20058
-4.01708
-3.75087
-3.42838
-3.07585
-2.71526
-2.36892
-2.05011
-1.77012
-1.53493
-1.35016
-1.2145
-1.13079
-1.0962
-1.10771
-3.55294
-3.90429
-4.11606
-4.18796
-4.1294
-3.95855
-3.69906
-3.37815
-3.02309
-2.65716
-2.30344
-1.97617
-1.68693
-1.44177
-1.24586
-1.09802
-1.00115
-0.953768
-0.954353
-3.39843
-3.77615
-4.01585
-4.11183
-4.07123
-3.91177
-3.65774
-3.33733
-2.97906
-2.60756
-2.24672
-1.91173
-1.6144
-1.3607
-1.15503
-0.995544
-0.884618
-0.822294
-0.810803
-3.25621
-3.66359
-3.931
-4.05024
-4.02672
-3.87777
-3.62835
-3.30783
-2.94604
-2.56896
-2.20129
-1.85917
-1.55467
-1.29372
-1.07975
-0.909301
-0.782386
-0.698233
-0.665747
-3.13005
-3.56731
-3.86047
-3.99928
-3.98856
-3.84535
-3.59635
-3.27194
-2.90368
-2.51926
-2.14314
-1.79342
-1.48215
-1.2155
-0.995679
-0.817816
-0.67643
-0.562808
-0.470663
-3.02836
-3.49331
-3.81663
-3.98514
-4.00329
-3.88617
-3.66042
-3.35489
-3.00066
-2.6259
-2.25298
-1.90196
-1.58465
-1.30946
-1.07936
-0.891796
-0.738449
-0.60706
-0.478217
-2.95834
-3.43964
-3.77975
-3.9678
-4.00783
-3.91346
-3.71002
-3.42455
-3.08659
-2.72355
-2.35563
-2.00336
-1.67873
-1.39188
-1.14792
-0.948705
-0.788384
-0.659782
-0.550452
-2.95725
-3.44131
-3.78743
-3.9861
-4.04093
-3.96522
-3.78243
-3.51827
-3.2002
-2.8537
-2.49725
-2.14945
-1.82166
-1.52482
-1.26661
-1.05243
-0.879915
-0.744364
-0.635175
-3.033
-3.50546
-3.84357
-4.03977
-4.0981
-4.03214
-3.86399
-3.61802
-3.31964
-2.99207
-2.65141
-2.31346
-1.9874
-1.68346
-1.41102
-1.17935
-0.990404
-0.842589
-0.726488
-3.17772
-3.63051
-3.94881
-4.1311
-4.18312
-4.11907
-3.96011
-3.72931
-3.45006
-3.14336
-2.82267
-2.50052
-2.1825
-1.87608
-1.59041
-1.33836
-1.12748
-0.961284
-0.832196
-3.38757
-3.80588
-4.09309
-4.25221
-4.29035
-4.22231
-4.06855
-3.85079
-3.59052
-3.30681
-3.01063
-2.71157
-2.41074
-2.11059
-1.81657
-1.54303
-1.30359
-1.11055
-0.961001
-3.65956
-4.02906
-4.2779
-4.40771
-4.42674
-4.35037
-4.19861
-3.99175
-3.74955
-3.48962
-3.22113
-2.95195
-2.67919
-2.39898
-2.10848
-1.81791
-1.54337
-1.30982
-1.12658
-3.9554
-4.28286
-4.49181
-4.58897
-4.58572
-4.49839
-4.34659
-4.14905
-3.92387
-3.68766
-3.44859
-3.21489
-2.98212
-2.7417
-2.47961
-2.1938
-1.88949
-1.59836
-1.35461
-4.29408
-4.57331
-4.73669
-4.79664
-4.76765
-4.6667
-4.51262
-4.32229
-4.11193
-3.89717
-3.68567
-3.48788
-3.3017
-3.11989
-2.92175
-2.69183
-2.40609
-2.07207
-1.70362
-4.69052
-4.91058
-5.0225
-5.04246
-4.98712
-4.87344
-4.71864
-4.53741
-4.34376
-4.15181
-3.96919
-3.80823
-3.67229
-3.56316
-3.46824
-3.37692
-3.25135
-3.06993
-2.80736
-5.1326
-5.28352
-5.3307
-5.29763
-5.20281
-5.06287
-4.89231
-4.70367
-4.50822
-4.3167
-4.13625
-3.97646
-3.84279
-3.74197
-3.6757
-3.65136
-3.65918
-3.68992
-3.72342
-5.63328
-5.68955
-5.65757
-5.56289
-5.42262
-5.25163
-5.06129
-4.86225
-4.66356
-4.47293
-4.29754
-4.14322
-4.01451
-3.91515
-3.8482
-3.81731
-3.8259
-3.87858
-3.98102
-6.18666
-6.12593
-6.00987
-5.85483
-5.6724
-5.47358
-5.26671
-5.06017
-4.86108
-4.67523
-4.5087
-4.36507
-4.24707
-4.15555
-4.09037
-4.04803
-4.02538
-4.01635
-4.01554
-6.69748
-6.52464
-6.32898
-6.11654
-5.89343
-5.66655
-5.44157
-5.2244
-5.02027
-4.83331
-4.66777
-4.52595
-4.40901
-4.31659
-4.24755
-4.1985
-4.1664
-4.14696
-4.13627
-7.11639
-6.86107
-6.60255
-6.34337
-6.08664
-5.83638
-5.59613
-5.36976
-5.16096
-4.9725
-4.80734
-4.66698
-4.55171
-4.46073
-4.39259
-4.3442
-4.31253
-4.29374
-4.28404
-7.45246
-7.13136
-6.82282
-6.52651
-6.24312
-5.97428
-5.72183
-5.48799
-5.27525
-5.08537
-4.92042
-4.78135
-4.66792
-4.57907
-4.51314
-4.46716
-4.43796
-4.42191
-4.41524
-7.6971
-7.32625
-6.9799
-6.65617
-6.35354
-6.07154
-5.81055
-5.57153
-5.3561
-5.16537
-5.00075
-4.86292
-4.75126
-4.66454
-4.60091
-4.55736
-4.5305
-4.51664
-4.51187
-7.85378
-7.43682
-7.06373
-6.72335
-6.41
-6.12104
-5.85571
-5.61415
-5.39749
-5.20648
-5.04223
-4.90527
-4.79484
-4.70966
-4.64784
-4.60646
-4.58211
-4.57115
-4.56961
-7.85382
-7.43689
-7.06382
-6.72345
-6.41011
-6.12115
-5.85581
-5.61426
-5.3976
-5.20659
-5.04235
-4.90539
-4.79497
-4.70979
-4.64797
-4.60661
-4.58226
-4.5713
-4.56976
-7.69716
-7.3264
-6.9801
-6.65641
-6.35379
-6.07181
-5.81083
-5.57183
-5.35641
-5.16568
-5.00107
-4.86326
-4.75161
-4.66491
-4.6013
-4.55779
-4.53097
-4.51715
-4.51243
-7.45256
-7.13159
-6.82314
-6.52688
-6.24352
-5.97471
-5.72229
-5.48847
-5.27573
-5.08588
-4.92094
-4.7819
-4.66849
-4.57967
-4.51378
-4.46784
-4.43869
-4.42269
-4.41607
-7.11652
-6.86136
-6.60295
-6.34384
-6.08716
-5.83693
-5.59671
-5.37037
-5.16159
-4.97315
-4.80802
-4.66768
-4.55243
-4.46148
-4.39337
-4.34502
-4.31338
-4.29462
-4.28497
-6.69762
-6.52497
-6.32943
-6.11708
-5.89403
-5.6672
-5.44225
-5.22512
-5.02103
-4.83409
-4.66858
-4.52679
-4.40987
-4.31748
-4.24845
-4.19942
-4.16735
-4.14793
-4.13726
-6.18682
-6.12628
-6.01036
-5.85541
-5.67306
-5.4743
-5.26747
-5.06098
-4.86193
-4.67611
-4.50961
-4.36601
-4.24802
-4.15651
-4.09131
-4.04893
-4.02623
-4.01712
-4.01624
-5.63346
-5.68995
-5.65817
-5.56366
-5.42353
-5.25267
-5.06246
-4.86354
-4.66497
-4.47447
-4.29922
-4.14505
-4.01649
-3.91728
-3.85047
-3.8196
-3.82801
-3.88013
-3.98149
-5.13271
-5.2836
-5.33079
-5.29775
-5.20296
-5.06303
-4.89248
-4.70382
-4.50833
-4.31673
-4.13617
-3.97618
-3.84227
-3.7411
-3.67446
-3.64982
-3.65778
-3.68948
-3.72528
-4.69058
-4.9108
-5.02289
-5.04305
-4.98792
-4.87447
-4.71989
-4.53889
-4.34545
-4.15369
-3.97128
-3.81052
-3.67484
-3.56612
-3.47188
-3.38164
-3.25769
-3.07834
-2.81811
-4.2941
-4.57334
-4.73681
-4.79688
-4.76804
-4.66724
-4.51333
-4.32315
-4.11293
-3.89831
-3.68695
-3.48932
-3.30337
-3.12192
-2.92426
-2.69491
-2.4096
-2.07556
-1.70624
-3.9554
-4.28286
-4.49188
-4.58916
-4.58606
-4.49891
-4.34728
-4.14991
-3.9249
-3.68884
-3.44994
-3.21642
-2.98389
-2.74376
-2.48196
-2.19633
-1.89194
-1.60047
-1.35628
-3.65955
-4.02904
-4.27792
-4.40784
-4.42702
-4.35082
-4.19924
-3.99255
-3.75052
-3.49075
-3.22242
-2.95342
-2.68085
-2.40081
-2.11041
-1.81981
-1.54508
-1.31125
-1.12776
-3.38756
-3.80584
-4.09308
-4.25229
-4.29057
-4.2227
-4.06912
-3.85153
-3.59143
-3.30787
-3.01184
-2.71293
-2.41222
-2.11214
-1.81812
-1.54447
-1.30485
-1.11162
-0.961922
-3.1777
-3.63044
-3.94876
-4.13114
-4.18329
-4.1194
-3.96061
-3.72998
-3.45089
-3.14434
-2.82377
-2.50173
-2.18378
-1.87738
-1.59165
-1.33949
-1.12846
-0.962134
-0.832956
-3.03298
-3.50539
-3.8435
-4.03977
-4.09823
-4.03242
-3.86443
-3.61862
-3.32039
-2.99295
-2.65239
-2.31451
-1.98849
-1.68453
-1.41203
-1.18025
-0.991196
-0.843294
-0.727152
-2.95722
-3.44123
-3.78736
-3.98609
-4.04103
-3.96545
-3.78282
-3.5188
-3.20086
-2.85448
-2.49811
-2.15036
-1.82258
-1.52571
-1.26743
-1.05317
-0.880575
-0.744979
-0.6358
-2.95831
-3.43955
-3.77965
-3.96774
-4.00784
-3.91357
-3.71024
-3.42489
-3.08703
-2.72407
-2.35621
-2.00397
-1.67933
-1.39244
-1.14842
-0.949153
-0.788795
-0.660214
-0.551022
-3.02842
-3.49335
-3.81668
-3.98522
-4.00342
-3.88635
-3.66067
-3.35522
-3.00107
-2.62637
-2.2535
-1.90252
-1.58523
-1.31004
-1.07992
-0.892338
-0.738957
-0.60752
-0.47859
-3.13013
-3.56738
-3.86052
-3.99929
-3.98853
-3.84526
-3.59621
-3.27176
-2.90346
-2.51903
-2.1429
-1.79318
-1.48192
-1.21528
-0.995468
-0.817611
-0.676221
-0.562583
-0.470391
-3.25626
-3.66363
-3.93103
-4.05027
-4.02674
-3.87778
-3.62836
-3.30782
-2.94603
-2.56895
-2.20129
-1.85916
-1.55467
-1.29373
-1.07976
-0.909318
-0.78241
-0.698266
-0.665782
-3.39847
-3.77618
-4.01587
-4.11184
-4.07122
-3.91176
-3.65772
-3.3373
-2.97903
-2.60754
-2.24669
-1.91171
-1.61439
-1.3607
-1.15503
-0.995555
-0.884635
-0.822316
-0.810825
-3.55297
-3.90431
-4.11608
-4.18796
-4.12939
-3.95854
-3.69904
-3.37813
-3.02307
-2.65714
-2.30342
-1.97616
-1.68693
-1.44177
-1.24587
-1.09803
-1.00116
-0.953784
-0.954367
-3.7273
-4.05026
-4.23162
-4.27817
-4.20058
-4.01707
-3.75085
-3.42836
-3.07583
-2.71525
-2.36891
-2.0501
-1.77012
-1.53493
-1.35017
-1.21451
-1.1308
-1.09621
-1.10772
-3.93053
-4.21128
-4.35978
-4.38008
-4.28204
-4.08413
-3.8095
-3.48417
-3.13349
-2.77823
-2.43991
-2.13076
-1.86169
-1.63837
-1.46661
-1.34451
-1.27486
-1.25387
-1.27793
-4.12798
-4.3716
-4.4909
-4.48537
-4.36576
-4.152
-3.8678
-3.53909
-3.19044
-2.84133
-2.51256
-2.2151
-1.9594
-1.75062
-1.59457
-1.48854
-1.43545
-1.43076
-1.47045
-4.32476
-4.54744
-4.63883
-4.60481
-4.46024
-4.22744
-3.93127
-3.59768
-3.25051
-2.90791
-2.58985
-2.30592
-2.06598
-1.87448
-1.73719
-1.65034
-1.61718
-1.63232
-1.69139
-4.5484
-4.74071
-4.79658
-4.7278
-4.55337
-4.29814
-3.98833
-3.64968
-3.30507
-2.97108
-2.66662
-2.39969
-2.17943
-2.00943
-1.89537
-1.83225
-1.82376
-1.86362
-1.94704
-4.7942
-4.94221
-4.95439
-4.84408
-4.63503
-4.35502
-4.03138
-3.68922
-3.34999
-3.02817
-2.74163
-2.49636
-2.30081
-2.15754
-2.07226
-2.03844
-2.06053
-2.13116
-2.24514
-5.04397
-5.14546
-5.10597
-4.94679
-4.69897
-4.39335
-4.05748
-3.71505
-3.38544
-3.08056
-2.81721
-2.59909
-2.43401
-2.32341
-2.27325
-2.27514
-2.33471
-2.44337
-2.59562
-5.31225
-5.35493
-5.24849
-5.03144
-4.74178
-4.41161
-4.06695
-3.72907
-3.41459
-3.13233
-2.89829
-2.71347
-2.58527
-2.51399
-2.50607
-2.55095
-2.65599
-2.81127
-3.01127
-5.61224
-5.55277
-5.36168
-5.08138
-4.7511
-4.4016
-4.05503
-3.72932
-3.43768
-3.18542
-2.98825
-2.84412
-2.76037
-2.73614
-2.77887
-2.87533
-3.0355
-3.24803
-3.50792
-5.85228
-5.67869
-5.40139
-5.06304
-4.70184
-4.34531
-4.00913
-3.70737
-3.44942
-3.23685
-3.08605
-2.99151
-2.96123
-2.99324
-3.09674
-3.25545
-3.48331
-3.76764
-4.10495
-6.0435
-5.75912
-5.39344
-5.00343
-4.62244
-4.27121
-3.95655
-3.68865
-3.47316
-3.30809
-3.21168
-3.17466
-3.20638
-3.30391
-3.47907
-3.712
-4.02223
-4.39606
-4.83353
-6.19328
-5.7541
-5.30106
-4.87722
-4.49658
-4.169
-3.89078
-3.66927
-3.50716
-3.39926
-3.36717
-3.39757
-3.5021
-3.67708
-3.9382
-4.26142
-4.67433
-5.16291
-5.73491
-6.15917
-5.57683
-5.07476
-4.65517
-4.30494
-4.02434
-3.80016
-3.6394
-3.54291
-3.50303
-3.54648
-3.65566
-3.84587
-4.11311
-4.47894
-4.91489
-5.46064
-6.10376
-6.86919
-5.89757
-5.25084
-4.75721
-4.38105
-4.08668
-3.87043
-3.7125
-3.62228
-3.60019
-3.63691
-3.76596
-3.96558
-4.25615
-4.6342
-5.12973
-5.70984
-6.43199
-7.28912
-8.34638
-5.35723
-4.75223
-4.3337
-4.04085
-3.82675
-3.69098
-3.61095
-3.60086
-3.66215
-3.78486
-4.01097
-4.31527
-4.72522
-5.23954
-5.90081
-6.67322
-7.64162
-8.81255
-10.3518
-4.53966
-4.10334
-3.82041
-3.64144
-3.52487
-3.48037
-3.48613
-3.56279
-3.71419
-3.93096
-4.2654
-4.69039
-5.24344
-5.92871
-6.80832
-7.84804
-9.17713
-10.833
-13.25
-3.51284
-3.34021
-3.23041
-3.18198
-3.17211
-3.22409
-3.31929
-3.48545
-3.7301
-4.04607
-4.49807
-5.06003
-5.7842
-6.68654
-7.86109
-9.28676
-11.1701
-13.6161
-17.8092
-2.40103
-2.50859
-2.57641
-2.65988
-2.75771
-2.90563
-3.08882
-3.34173
-3.67652
-4.09025
-4.66262
-5.37312
-6.29625
-7.47208
-9.04958
-11.0483
-13.8206
-17.6213
-25.7797
-1.34125
-1.65554
-1.87194
-2.07479
-2.27436
-2.5125
-2.77655
-3.10627
-3.51834
-4.01635
-4.69778
-5.55268
-6.6893
-8.19501
-10.316
-13.1774
-17.428
-23.6738
-41.4
-0.440208
-0.818264
-1.12943
-1.43028
-1.7215
-2.04099
-2.37346
-2.76239
-3.22555
-3.77596
-4.53089
-5.49123
-6.81916
-8.70707
-11.6354
-16.196
-24.335
-39.3415
-92.9373
)
;

boundaryField
{
    up
    {
        type            calculated;
        value           nonuniform List<scalar> 
84
(
-84.2192
-45.6127
-27.9958
-19.1029
-14.0803
-10.9255
-8.76445
-7.18534
-5.97894
-5.02529
-4.25625
-3.62725
-3.10566
-2.66988
-2.30318
-1.9921
-1.72606
-1.49681
-1.29763
-1.12225
-0.964794
-0.81699
-0.659793
-0.422834
-0.409615
-0.518568
-0.603854
-0.692627
-0.793894
-0.915955
-1.06947
-1.2679
-1.56953
-2.78792
-3.83523
-4.05035
-4.01196
-4.13084
-4.27998
-4.41319
-4.51109
-4.57077
-4.57093
-4.51167
-4.41405
-4.28093
-4.13186
-4.01265
-4.04991
-3.83727
-2.80049
-1.57197
-1.26937
-1.07058
-0.916841
-0.794637
-0.693287
-0.604488
-0.519336
-0.410104
-0.422542
-0.659825
-0.81701
-0.964808
-1.12226
-1.29763
-1.49681
-1.72606
-1.99209
-2.30317
-2.66987
-3.10565
-3.62724
-4.25625
-5.0253
-5.97895
-7.18536
-8.76446
-10.9255
-14.0803
-19.1029
-27.9958
-45.6127
-84.2192
)
;
    }
    low
    {
        type            calculated;
        value           nonuniform List<scalar> 
84
(
-0.472227
-1.40089
-2.53099
-3.73249
-4.84458
-5.71997
-6.27482
-6.51238
-6.47726
-6.23727
-5.99803
-5.71109
-5.34719
-5.04336
-4.77291
-4.49924
-4.25144
-4.04746
-3.83553
-3.59948
-3.40006
-3.22635
-3.06074
-2.91269
-2.77218
-2.68549
-2.68777
-2.7909
-2.97098
-3.22566
-3.53745
-3.8598
-4.22971
-4.66304
-5.136
-5.67831
-6.2901
-6.83899
-7.28152
-7.63774
-7.89866
-8.07727
-8.0773
-7.89869
-7.63779
-7.28158
-6.83906
-6.29019
-5.67841
-5.13597
-4.6631
-4.22967
-3.85979
-3.53743
-3.22565
-2.97097
-2.7909
-2.68778
-2.68552
-2.77222
-2.91278
-3.06077
-3.22639
-3.40009
-3.5995
-3.83554
-4.04748
-4.25145
-4.49924
-4.7729
-5.04335
-5.34718
-5.71107
-5.99801
-6.23725
-6.47725
-6.51239
-6.27485
-5.72
-4.84461
-3.73252
-2.53101
-1.4009
-0.472231
)
;
    }
    left
    {
        type            calculated;
        value           nonuniform List<scalar> 
19
(
-0.431741
-0.802737
-1.11974
-1.4302
-1.73316
-2.06529
-2.41216
-2.81953
-3.30587
-3.89106
-4.69804
-5.73326
-7.18098
-9.27154
-12.544
-17.7242
-27.0773
-44.5276
-87.3532
)
;
    }
    right
    {
        type            calculated;
        value           nonuniform List<scalar> 
19
(
-0.431744
-0.802739
-1.11974
-1.4302
-1.73316
-2.06529
-2.41216
-2.81953
-3.30587
-3.89106
-4.69803
-5.73325
-7.18097
-9.27153
-12.544
-17.7242
-27.0773
-44.5276
-87.3532
)
;
    }
    frontAndBackPlanes
    {
        type            empty;
    }
}


// ************************************************************************* //
