/*--------------------------------*- C++ -*----------------------------------*\
  =========                 |
  \\      /  F ield         | OpenFOAM: The Open Source CFD Toolbox
   \\    /   O peration     | Website:  https://openfoam.org
    \\  /    A nd           | Version:  7
     \\/     M anipulation  |
\*---------------------------------------------------------------------------*/
FoamFile
{
    version     2.0;
    format      ascii;
    class       volScalarField;
    location    "0.319";
    object      gradTx;
}
// * * * * * * * * * * * * * * * * * * * * * * * * * * * * * * * * * * * * * //

dimensions      [0 -1 0 1 0 0 0];

internalField   nonuniform List<scalar> 
1596
(
-0.2595
-1.30481
-2.34666
-3.30407
-4.17705
-4.96757
-5.7117
-6.43218
-7.1584
-7.94795
-8.81411
-9.82588
-11.0675
-12.6669
-14.7796
-17.8083
-22.382
-29.8627
-43.0661
0.0569702
-1.08683
-2.11007
-3.00826
-3.80696
-4.51367
-5.16048
-5.75843
-6.32906
-6.90112
-7.47441
-8.08419
-8.73969
-9.45702
-10.2138
-10.9741
-11.5578
-11.603
-10.3461
0.316164
-0.891099
-1.88071
-2.71198
-3.43008
-4.05038
-4.60025
-5.0867
-5.52377
-5.92611
-6.28834
-6.62755
-6.93387
-7.1979
-7.38421
-7.43456
-7.20321
-6.43899
-4.65467
0.356717
-0.79064
-1.69712
-2.44142
-3.07133
-3.60542
-4.06501
-4.45562
-4.78597
-5.06306
-5.28164
-5.44895
-5.55292
-5.57992
-5.50154
-5.27079
-4.79251
-3.91387
-2.34261
0.1026
-0.832282
-1.59259
-2.22397
-2.75693
-3.20558
-3.5831
-3.89353
-4.14159
-4.32953
-4.45428
-4.51744
-4.5096
-4.41889
-4.2266
-3.89948
-3.38037
-2.58019
-1.32907
-0.425793
-1.03285
-1.59088
-2.08323
-2.50954
-2.87219
-3.17418
-3.41677
-3.60101
-3.72574
-3.78992
-3.7917
-3.72473
-3.57987
-3.34597
-3.00013
-2.5095
-1.82254
-0.841555
-1.12963
-1.37563
-1.70019
-2.03374
-2.34424
-2.61849
-2.84843
-3.03091
-3.16317
-3.24121
-3.26494
-3.23026
-3.13305
-2.96634
-2.72394
-2.38995
-1.9461
-1.36245
-0.582718
-1.86778
-1.79669
-1.8927
-2.06299
-2.25431
-2.43921
-2.59957
-2.72686
-2.81448
-2.85584
-2.85068
-2.79337
-2.68104
-2.50817
-2.27155
-1.95992
-1.56351
-1.06488
-0.431567
-2.63162
-2.33387
-2.22569
-2.23162
-2.29563
-2.3823
-2.46644
-2.5342
-2.57528
-2.58056
-2.54849
-2.47232
-2.34938
-2.17485
-1.94697
-1.65742
-1.30108
-0.867671
-0.338077
-3.08817
-2.70508
-2.4751
-2.36253
-2.32568
-2.3306
-2.35029
-2.36764
-2.36984
-2.34603
-2.29319
-2.20397
-2.07558
-1.90375
-1.68749
-1.42063
-1.10081
-0.722222
-0.273639
-3.45704
-3.03678
-2.73324
-2.53311
-2.41174
-2.34233
-2.30041
-2.26805
-2.23128
-2.17817
-2.10426
-2.00181
-1.8676
-1.69757
-1.4909
-1.2428
-0.95235
-0.616399
-0.228547
-3.82924
-3.4047
-3.05556
-2.78716
-2.59049
-2.4484
-2.34197
-2.25491
-2.17355
-2.08567
-1.98569
-1.86551
-1.72134
-1.54897
-1.34734
-1.11238
-0.843746
-0.539691
-0.196512
-3.92047
-3.55288
-3.21197
-2.92211
-2.68818
-2.50283
-2.35378
-2.2281
-2.11386
-1.99967
-1.87968
-1.74603
-1.59465
-1.42145
-1.22526
-1.00262
-0.753502
-0.477076
-0.171214
-3.93094
-3.62607
-3.3149
-3.02647
-2.77487
-2.5614
-2.38044
-2.22329
-2.08067
-1.94274
-1.804
-1.65712
-1.498
-1.32268
-1.12987
-0.916545
-0.682781
-0.428252
-0.151799
-3.90697
-3.65923
-3.38514
-3.11129
-2.85551
-2.62533
-2.42094
-2.23817
-2.07082
-1.91114
-1.75452
-1.59437
-1.42677
-1.24791
-1.05645
-0.849659
-0.627593
-0.390179
-0.136774
-3.79323
-3.60643
-3.37709
-3.13078
-2.88617
-2.65432
-2.43972
-2.24212
-2.0585
-1.88338
-1.71344
-1.54311
-1.36885
-1.18718
-0.996785
-0.795265
-0.582747
-0.359352
-0.124719
-3.58835
-3.45876
-3.27794
-3.06839
-2.84779
-2.62851
-2.41754
-2.21758
-2.02828
-1.84636
-1.66993
-1.49457
-1.31728
-1.135
-0.946575
-0.749996
-0.545623
-0.333927
-0.114867
-3.35285
-3.25943
-3.12089
-2.94929
-2.75842
-2.55995
-2.36189
-2.16874
-1.98218
-1.8008
-1.62401
-1.44849
-1.27184
-1.09135
-0.905975
-0.714035
-0.516241
-0.313682
-0.106965
-3.15534
-3.09152
-2.9859
-2.84559
-2.68053
-2.501
-2.31537
-2.12942
-1.94647
-1.76674
-1.59077
-1.41625
-1.24117
-1.06299
-0.880438
-0.691767
-0.497804
-0.30041
-0.101401
-2.82515
-2.79927
-2.7306
-2.62766
-2.49808
-2.35008
-2.19114
-2.02712
-1.86204
-1.69708
-1.53358
-1.37003
-1.20483
-1.03561
-0.860726
-0.678
-0.487916
-0.293114
-0.0977334
-2.46545
-2.4697
-2.43438
-2.36673
-2.27273
-2.15881
-2.03118
-1.89519
-1.75493
-1.61199
-1.46803
-1.32204
-1.1727
-1.01772
-0.854951
-0.681097
-0.494966
-0.298413
-0.0982406
-2.09484
-2.11916
-2.11197
-2.07675
-2.01736
-1.93842
-1.84485
-1.74119
-1.63119
-1.5164
-1.39834
-1.27613
-1.14854
-1.01343
-0.868326
-0.708632
-0.529805
-0.328711
-0.109401
-1.68828
-1.72341
-1.73946
-1.7352
-1.71155
-1.67095
-1.61674
-1.55229
-1.48064
-1.40281
-1.31952
-1.22959
-1.13149
-1.02344
-0.903451
-0.766824
-0.605918
-0.408641
-0.159502
-1.23306
-1.21911
-1.19031
-1.14732
-1.09412
-1.03588
-0.978421
-0.926268
-0.882391
-0.846859
-0.816977
-0.788062
-0.75476
-0.712409
-0.657455
-0.58596
-0.491358
-0.359065
-0.161034
-0.825684
-0.926538
-1.04621
-1.17064
-1.28962
-1.39535
-1.48377
-1.55261
-1.60152
-1.63027
-1.63719
-1.6211
-1.58042
-1.51676
-1.43342
-1.33419
-1.21819
-1.07654
-0.883431
-0.282048
-0.335989
-0.409345
-0.493502
-0.582176
-0.670784
-0.757558
-0.841467
-0.922592
-1.00002
-1.06916
-1.12508
-1.16
-1.16972
-1.15402
-1.11954
-1.07268
-1.02132
-0.967803
0.263235
0.194484
0.0983627
-0.0166297
-0.142773
-0.274033
-0.407076
-0.540209
-0.673176
-0.805251
-0.93184
-1.04645
-1.13838
-1.19893
-1.22405
-1.21961
-1.19431
-1.15961
-1.12103
0.810299
0.717804
0.591053
0.44019
0.274279
0.100541
-0.0766381
-0.255375
-0.435698
-0.617843
-0.798511
-0.970955
-1.12234
-1.2388
-1.30998
-1.33783
-1.33194
-1.30767
-1.27441
1.30966
1.18205
1.01743
0.828318
0.624577
0.413942
0.200886
-0.0132772
-0.229667
-0.450383
-0.674695
-0.897655
-1.10627
-1.28215
-1.40651
-1.47303
-1.48837
-1.4717
-1.43889
1.83483
1.66566
1.45956
1.23008
0.987724
0.740727
0.493492
0.246743
-0.00173894
-0.256076
-0.518737
-0.788585
-1.05551
-1.29954
-1.49314
-1.61689
-1.66673
-1.66168
-1.62668
2.24187
2.02397
1.77495
1.50872
1.23604
0.96459
0.697605
0.434441
0.171415
-0.0977312
-0.378866
-0.676198
-0.986182
-1.29313
-1.56534
-1.76878
-1.87758
-1.89752
-1.85754
2.63421
2.37328
2.08236
1.78078
1.48019
1.18744
0.904565
0.629755
0.358454
0.0831827
-0.204211
-0.513053
-0.848644
-1.20665
-1.562
-1.87492
-2.09212
-2.1843
-2.1636
3.01075
2.69433
2.35831
2.02279
1.69815
1.3893
1.09656
0.816972
0.545665
0.275072
-0.00324301
-0.301031
-0.630822
-1.00302
-1.4118
-1.83493
-2.21001
-2.4636
-2.52106
3.27578
2.87505
2.46988
2.0781
1.70685
1.35813
1.03009
0.718755
0.419108
0.124305
-0.173017
-0.483731
-0.822159
-1.20814
-1.65843
-2.18886
-2.77889
-3.37557
-3.8755
3.46364
3.02077
2.60508
2.22826
1.89053
1.58877
1.31759
1.07163
0.845741
0.634996
0.435719
0.243311
0.0525102
-0.145575
-0.36511
-0.634605
-0.985953
-1.45697
-2.06895
3.62209
3.15878
2.75302
2.40104
2.09436
1.82547
1.58663
1.3719
1.17639
0.995944
0.828519
0.672447
0.527199
0.393272
0.272406
0.164257
0.0665295
-0.0320002
-0.153237
3.47777
2.94665
2.50048
2.12205
1.7971
1.51521
1.26728
1.04663
0.848124
0.66743
0.502488
0.351683
0.214389
0.0911336
-0.0158696
-0.104248
-0.170013
-0.20927
-0.220141
3.09339
2.59983
2.19381
1.85524
1.56893
1.32383
1.11096
0.923765
0.75742
0.608054
0.473695
0.35284
0.244556
0.148525
0.0650567
-0.00608999
-0.065023
-0.112149
-0.148527
2.60046
2.1785
1.83264
1.5463
1.30621
1.10239
0.926867
0.773747
0.638787
0.518578
0.411188
0.315101
0.229061
0.152231
0.0842009
0.0242023
-0.0282922
-0.0736094
-0.11244
1.9767
1.64726
1.38077
1.16272
0.981781
0.829472
0.699301
0.586476
0.487603
0.399959
0.321894
0.252116
0.189454
0.133087
0.0825556
0.0372448
-0.00318691
-0.0387718
-0.0698259
1.25337
1.03313
0.860245
0.721507
0.607838
0.512967
0.432388
0.362857
0.302126
0.248406
0.200572
0.15775
0.11912
0.0840966
0.052341
0.0234581
-0.0027443
-0.0261821
-0.0469284
0.483678
0.396075
0.329591
0.276917
0.233877
0.197876
0.167175
0.140559
0.117196
0.096425
0.0778172
0.0610355
0.0457571
0.0317402
0.018826
0.00683929
-0.00432566
-0.0146567
-0.0241751
-0.483446
-0.395575
-0.328925
-0.276153
-0.233062
-0.197045
-0.166356
-0.139771
-0.116455
-0.095745
-0.0772082
-0.0605058
-0.0453137
-0.031389
-0.0185712
-0.0066843
0.00437872
0.014608
0.0240262
-1.25316
-1.0327
-0.859674
-0.720857
-0.607152
-0.512277
-0.43172
-0.36223
-0.301555
-0.247904
-0.200148
-0.157412
-0.118874
-0.0839469
-0.0522907
-0.023509
0.00259204
0.0259308
0.0465827
-1.97649
-1.64686
-1.38022
-1.16209
-0.981092
-0.828761
-0.698592
-0.585789
-0.486954
-0.399362
-0.321358
-0.251646
-0.189056
-0.132762
-0.0823013
-0.0370574
0.00331357
0.0388458
0.0698559
-2.60032
-2.17825
-1.8323
-1.5459
-1.30579
-1.10197
-0.926459
-0.773374
-0.638464
-0.518318
-0.410999
-0.31499
-0.22903
-0.152278
-0.0843213
-0.024387
0.028054
0.0733296
0.11213
-3.09332
-2.5997
-2.19362
-1.855
-1.56866
-1.32356
-1.1107
-0.92353
-0.757229
-0.607921
-0.473632
-0.352856
-0.244655
-0.148705
-0.0653082
0.00578341
0.0646858
0.111811
0.148224
-3.47781
-2.94667
-2.50046
-2.122
-1.79702
-1.51512
-1.2672
-1.04659
-0.848144
-0.667529
-0.502686
-0.351999
-0.21484
-0.0917301
0.0151321
0.103398
0.169122
0.208458
0.219546
-3.62213
-3.15855
-2.75241
-2.39999
-2.09285
-1.82351
-1.58423
-1.36909
-1.17319
-0.992389
-0.824627
-0.668239
-0.522683
-0.388458
-0.267332
-0.15906
-0.0615539
0.0360152
0.155062
-3.46432
-3.02254
-2.60802
-2.23236
-1.89576
-1.59512
-1.32502
-1.08012
-0.855268
-0.645572
-0.447388
-0.256174
-0.0667585
0.129592
0.346857
0.613308
0.960824
1.4276
2.03591
-3.27555
-2.87439
-2.4687
-2.07635
-1.70453
-1.35526
-1.02668
-0.714869
-0.414794
-0.119627
0.177983
0.488892
0.827403
1.21336
1.66364
2.19434
2.78546
3.38467
3.88911
-3.011
-2.6949
-2.35915
-2.02385
-1.69938
-1.39067
-1.09803
-0.818547
-0.547336
-0.276851
0.0013281
0.298946
0.628556
1.00065
1.40955
1.83328
2.20953
2.46464
2.52316
-2.63436
-2.37364
-2.08289
-1.78144
-1.48095
-1.18828
-0.905466
-0.630716
-0.359478
-0.0842829
0.203023
0.511786
0.847361
1.20551
1.56128
1.87492
2.09303
2.18597
2.16568
-2.24203
-2.02432
-1.77547
-1.50938
-1.23681
-0.965435
-0.69851
-0.435393
-0.172409
0.0967022
0.377818
0.675179
0.985294
1.29254
1.56524
1.76928
1.87864
1.89893
1.85906
-1.83497
-1.666
-1.46007
-1.23074
-0.988495
-0.741582
-0.494404
-0.247691
0.000773755
0.255116
0.517821
0.787779
1.05492
1.29929
1.49332
1.61751
1.66769
1.66283
1.6279
-1.30978
-1.18235
-1.0179
-0.828929
-0.625299
-0.414742
-0.201732
0.0124118
0.22881
0.449567
0.673968
0.897085
1.10594
1.28214
1.40685
1.47368
1.48923
1.47269
1.43996
-0.810425
-0.718112
-0.591531
-0.440813
-0.275014
-0.101352
0.075788
0.254521
0.434877
0.617096
0.797889
0.97052
1.12216
1.23889
1.31036
1.33845
1.33273
1.30858
1.27541
-0.26334
-0.194767
-0.098815
0.0160336
0.142068
0.273259
0.406274
0.53942
0.67244
0.804615
0.93135
1.04616
1.13832
1.19912
1.22448
1.22023
1.19508
1.16051
1.12206
0.281811
0.335267
0.408099
0.491739
0.579945
0.668167
0.754661
0.838407
0.919489
0.996997
1.06632
1.12253
1.1578
1.1679
1.15256
1.11846
1.07199
1.02114
0.968425
0.825856
0.927193
1.04749
1.17263
1.29233
1.39876
1.48781
1.55715
1.60644
1.63542
1.64246
1.62637
1.58561
1.5218
1.43829
1.33887
1.22269
1.08085
0.887485
1.23289
1.21849
1.1892
1.14575
1.09215
1.0336
0.975948
0.923707
0.87984
0.844409
0.814695
0.785994
0.752933
0.710836
0.656132
0.584881
0.490519
0.35848
0.16077
1.6884
1.72363
1.7398
1.73564
1.71207
1.67152
1.61733
1.55286
1.48116
1.40327
1.3199
1.22989
1.13172
1.02361
0.903556
0.766875
0.605923
0.408615
0.15948
2.09488
2.1192
2.11202
2.07682
2.01743
1.9385
1.84493
1.74126
1.63125
1.51646
1.39838
1.27615
1.14854
1.01342
0.868308
0.708605
0.529774
0.328685
0.109392
2.46548
2.46973
2.43443
2.36679
2.2728
2.15887
2.03124
1.89525
1.75498
1.61202
1.46805
1.32205
1.1727
1.01771
0.854934
0.681077
0.494946
0.2984
0.098237
2.82518
2.7993
2.73064
2.6277
2.49812
2.35012
2.19118
2.02716
1.86207
1.6971
1.53359
1.37003
1.20483
1.03559
0.86071
0.677984
0.487902
0.293106
0.0977312
3.15536
3.09156
2.98594
2.84563
2.68057
2.50104
2.3154
2.12945
1.94649
1.76675
1.59077
1.41624
1.24116
1.06298
0.880424
0.691755
0.497794
0.300405
0.1014
3.35287
3.25946
3.12092
2.94932
2.75845
2.55998
2.36191
2.16876
1.98219
1.8008
1.624
1.44849
1.27183
1.09134
0.905963
0.714024
0.516234
0.313678
0.106963
3.58837
3.45878
3.27796
3.06842
2.84781
2.62853
2.41755
2.21759
2.02828
1.84636
1.66992
1.49456
1.31727
1.13499
0.946564
0.749987
0.545617
0.333923
0.114866
3.79325
3.60645
3.37712
3.1308
2.88619
2.65434
2.43973
2.24212
2.05849
1.88337
1.71343
1.5431
1.36884
1.18717
0.996776
0.795257
0.582742
0.35935
0.124719
3.90698
3.65925
3.38516
3.1113
2.85552
2.62533
2.42094
2.23816
2.07081
1.91113
1.75451
1.59436
1.42675
1.2479
1.05645
0.849652
0.627589
0.390177
0.136774
3.93096
3.62608
3.31492
3.02648
2.77488
2.56141
2.38044
2.22329
2.08066
1.94273
1.80399
1.65711
1.49799
1.32267
1.12986
0.916541
0.682778
0.428251
0.1518
3.92049
3.5529
3.21199
2.92212
2.68819
2.50283
2.35378
2.2281
2.11386
1.99967
1.87967
1.74602
1.59465
1.42145
1.22526
1.00262
0.753502
0.477077
0.171215
3.82924
3.4047
3.05556
2.78716
2.59048
2.44839
2.34196
2.2549
2.17354
2.08566
1.98568
1.8655
1.72133
1.54896
1.34734
1.11238
0.843745
0.539692
0.196513
3.45706
3.0368
2.73325
2.53312
2.41175
2.34234
2.3004
2.26805
2.23127
2.17816
2.10426
2.0018
1.8676
1.69757
1.4909
1.2428
0.952353
0.616403
0.228548
3.08821
2.70511
2.47512
2.36254
2.32568
2.3306
2.35029
2.36764
2.36984
2.34603
2.29319
2.20397
2.07558
1.90376
1.68749
1.42063
1.10082
0.722226
0.27364
2.63165
2.33389
2.2257
2.23163
2.29563
2.3823
2.46644
2.5342
2.57528
2.58056
2.54849
2.47233
2.34938
2.17485
1.94698
1.65743
1.30109
0.867676
0.338078
1.86781
1.7967
1.89271
2.063
2.25431
2.43921
2.59957
2.72685
2.81448
2.85584
2.85068
2.79337
2.68104
2.50817
2.27156
1.95993
1.56351
1.06488
0.431567
1.12965
1.37564
1.7002
2.03375
2.34425
2.61849
2.84843
3.03091
3.16317
3.24121
3.26494
3.23026
3.13306
2.96634
2.72394
2.38996
1.9461
1.36245
0.582718
0.425806
1.03286
1.59089
2.08323
2.50955
2.87219
3.17418
3.41677
3.60101
3.72574
3.78992
3.7917
3.72473
3.57988
3.34598
3.00013
2.5095
1.82254
0.841554
-0.102592
0.832289
1.59259
2.22397
2.75693
3.20558
3.5831
3.89353
4.14159
4.32953
4.45428
4.51744
4.5096
4.41889
4.2266
3.89948
3.38037
2.58018
1.32907
-0.356716
0.790644
1.69712
2.44143
3.07134
3.60542
4.06501
4.45562
4.78597
5.06306
5.28164
5.44895
5.55292
5.57992
5.50154
5.27078
4.79251
3.91387
2.34261
-0.316166
0.891099
1.88071
2.71198
3.43007
4.05038
4.60025
5.0867
5.52377
5.92611
6.28834
6.62755
6.93386
7.1979
7.3842
7.43455
7.2032
6.43898
4.65467
-0.056971
1.08683
2.11007
3.00826
3.80696
4.51367
5.16048
5.75843
6.32906
6.90112
7.47441
8.08419
8.73969
9.45701
10.2138
10.9741
11.5577
11.603
10.3461
0.259501
1.30481
2.34666
3.30407
4.17705
4.96757
5.7117
6.43218
7.1584
7.94795
8.81411
9.82588
11.0675
12.6669
14.7796
17.8082
22.382
29.8627
43.0661
)
;

boundaryField
{
    up
    {
        type            calculated;
        value           nonuniform List<scalar> 
84
(
-43.0661
-10.3461
-4.65467
-2.34261
-1.32907
-0.841555
-0.582718
-0.431567
-0.338077
-0.273639
-0.228547
-0.196512
-0.171214
-0.151799
-0.136774
-0.124719
-0.114867
-0.106965
-0.101401
-0.0977334
-0.0982406
-0.109401
-0.159502
-0.161034
-0.760291
-0.913085
-1.0702
-1.22198
-1.38193
-1.56188
-1.77727
-2.04248
-2.33448
-3.86971
-2.15108
-0.157792
-0.220231
-0.148451
-0.112386
-0.0698143
-0.0469301
-0.0241866
0.0240376
0.0465846
0.0698446
0.112076
0.148148
0.219634
0.15956
2.11692
3.88599
2.33632
2.04428
1.7787
1.56307
1.38299
1.223
1.07127
0.914088
0.764011
0.16077
0.15948
0.109392
0.098237
0.0977312
0.1014
0.106963
0.114866
0.124719
0.136774
0.1518
0.171215
0.196513
0.228548
0.27364
0.338078
0.431567
0.582718
0.841554
1.32907
2.34261
4.65467
10.3461
43.0661
)
;
    }
    low
    {
        type            calculated;
        value           nonuniform List<scalar> 
84
(
-0.234299
0.0944124
0.377188
0.423666
0.145035
-0.433701
-1.19512
-1.97823
-2.75917
-3.19161
-3.54565
-3.89677
-3.94197
-3.92332
-3.8805
-3.74117
-3.51539
-3.27497
-3.06562
-2.71421
-2.34594
-1.97601
-1.57485
-1.13526
-0.750464
-0.255091
0.232479
0.732975
1.20844
1.7302
2.15168
2.55645
2.95325
3.2469
3.45875
3.64677
3.53557
3.15999
2.66257
2.02779
1.28797
0.498344
-0.498111
-1.28775
-2.02757
-2.6624
-3.15988
-3.53555
-3.64676
-3.45932
-3.24668
-2.95345
-2.55659
-2.15182
-1.73034
-1.20856
-0.733107
-0.232586
0.254861
0.750633
1.1351
1.57495
1.97604
2.34597
2.71423
3.06565
3.275
3.5154
3.74119
3.88051
3.92333
3.94198
3.89676
3.54566
3.19165
2.7592
1.97825
1.19514
0.433716
-0.145027
-0.423666
-0.377192
-0.0944151
0.2343
)
;
    }
    left
    {
        type            calculated;
        value           nonuniform List<scalar> 
19
(
-0.229865
-1.25127
-2.3132
-3.30259
-4.21222
-5.03908
-5.82244
-6.58903
-7.36832
-8.23386
-9.19793
-10.3396
-11.7708
-13.6659
-16.2219
-20.0078
-25.8968
-35.7909
-37.3543
)
;
    }
    right
    {
        type            calculated;
        value           nonuniform List<scalar> 
19
(
0.229866
1.25127
2.31321
3.30259
4.21222
5.03908
5.82244
6.58903
7.36832
8.23386
9.19792
10.3396
11.7708
13.6659
16.2219
20.0078
25.8968
35.7909
37.3543
)
;
    }
    frontAndBackPlanes
    {
        type            empty;
    }
}


// ************************************************************************* //
