/*--------------------------------*- C++ -*----------------------------------*\
  =========                 |
  \\      /  F ield         | OpenFOAM: The Open Source CFD Toolbox
   \\    /   O peration     | Website:  https://openfoam.org
    \\  /    A nd           | Version:  7
     \\/     M anipulation  |
\*---------------------------------------------------------------------------*/
FoamFile
{
    version     2.0;
    format      ascii;
    class       volScalarField;
    location    "0.402";
    object      T;
}
// * * * * * * * * * * * * * * * * * * * * * * * * * * * * * * * * * * * * * //

dimensions      [0 0 0 1 0 0 0];

internalField   nonuniform List<scalar> 
1596
(
5.9874
5.95108
5.9134
5.87679
5.84162
5.80724
5.77282
5.7367
5.69771
5.65318
5.60103
5.53849
5.45881
5.35227
5.20329
4.97662
4.60611
3.9594
2.77142
5.94541
5.83215
5.72368
5.62124
5.52395
5.42972
5.33621
5.24001
5.13831
5.02625
4.89989
4.75448
4.58053
4.36589
4.09497
3.73699
3.24346
2.5303
1.43822
5.89568
5.70499
5.53087
5.36993
5.21887
5.07405
4.93192
4.78807
4.63881
4.4786
4.30299
4.10698
3.88156
3.61609
3.29846
2.90638
2.4082
1.75423
0.851333
5.84649
5.58327
5.34996
5.13781
4.94085
4.75397
4.57269
4.39204
4.20792
4.01472
3.80812
3.58348
3.33306
3.04835
2.72069
2.33464
1.8702
1.29869
0.565907
5.80563
5.47969
5.19477
4.93832
4.70229
4.48047
4.26767
4.05865
3.84913
3.63364
3.40816
3.16849
2.90811
2.6203
2.29888
1.93314
1.51036
1.01395
0.411936
5.77818
5.40297
5.07478
4.78037
4.51085
4.25948
4.0207
3.78913
3.56046
3.32943
3.09225
2.84512
2.58239
2.29862
1.9893
1.64671
1.26252
0.827039
0.320855
5.76491
5.35563
4.99303
4.66655
4.36805
4.09102
3.82991
3.57941
3.33527
3.09241
2.84725
2.59624
2.33434
2.05696
1.76057
1.43934
1.08759
0.69951
0.262885
5.76292
5.33421
4.94626
4.59343
4.26985
3.97005
3.68897
3.42162
3.16391
2.91098
2.65943
2.40583
2.14556
1.87454
1.58983
1.28676
0.961193
0.609564
0.223841
5.76933
5.33382
4.92905
4.55536
4.2102
3.88993
3.59044
3.30735
3.03688
2.77447
2.51685
2.26072
2.0017
1.73601
1.46101
1.17273
0.867956
0.544381
0.196431
5.77801
5.3441
4.93
4.54093
4.1779
3.83955
3.52317
3.22525
2.94256
2.6709
2.40719
2.14823
1.88983
1.62835
1.36129
1.08506
0.796975
0.495419
0.176326
5.78527
5.35663
4.9386
4.53907
4.16195
3.80816
3.47664
3.16499
2.87071
2.59008
2.32029
2.05829
1.79999
1.54187
1.28142
1.01527
0.740972
0.457258
0.16096
5.79424
5.37333
4.95464
4.54802
4.15963
3.79248
3.4472
3.12262
2.81711
2.52756
2.2515
1.98606
1.72728
1.47164
1.21662
0.958883
0.696053
0.426976
0.148968
5.8029
5.39108
4.97396
4.56275
4.16541
3.78676
3.42904
3.09235
2.77605
2.47771
2.19531
1.92617
1.66648
1.41274
1.16231
0.911812
0.658822
0.402127
0.139289
5.80869
5.40504
4.99061
4.57675
4.17253
3.78421
3.41549
3.06777
2.74137
2.43467
2.14613
1.87336
1.61269
1.36064
1.11442
0.870566
0.626485
0.380798
0.131132
5.81379
5.41701
5.00528
4.58967
4.17984
3.78315
3.40454
3.0466
2.71068
2.39596
2.10145
1.82511
1.56345
1.31298
1.0708
0.833225
0.597474
0.361892
0.124034
5.81875
5.42811
5.01877
4.60168
4.18691
3.78263
3.39485
3.02725
2.68219
2.35967
2.0593
1.77943
1.51677
1.26788
1.02966
0.79824
0.570534
0.344545
0.117642
5.82249
5.43701
5.02964
4.61115
4.19182
3.78052
3.38415
3.00739
2.65355
2.32345
2.01737
1.73406
1.47049
1.22328
0.989174
0.764043
0.544441
0.327942
0.111642
5.82539
5.44403
5.03814
4.61811
4.19438
3.77634
3.3717
2.98607
2.62365
2.28609
1.97432
1.68758
1.42316
1.17774
0.94797
0.729428
0.518245
0.311467
0.105796
5.82982
5.45288
5.0482
4.62632
4.19794
3.77299
3.3599
2.96517
2.59386
2.24848
1.93063
1.64009
1.37449
1.13071
0.905317
0.693624
0.491283
0.29468
0.0999492
5.83489
5.46314
5.05979
4.63591
4.20264
3.77049
3.34863
2.94441
2.56377
2.21002
1.88551
1.59058
1.32331
1.08083
0.859741
0.655186
0.462342
0.276796
0.0938482
5.83876
5.47203
5.0701
4.64424
4.20603
3.76657
3.33577
2.92179
2.53143
2.16885
1.83711
1.53719
1.26767
1.02603
0.809077
0.611949
0.429518
0.256537
0.0870833
5.84248
5.48036
5.07973
4.65178
4.20848
3.76148
3.32142
2.89726
2.49662
2.12451
1.78474
1.47896
1.2063
0.964692
0.751271
0.561471
0.390249
0.231874
0.0789474
5.84651
5.48888
5.08927
4.65894
4.21021
3.75529
3.3055
2.87057
2.4589
2.07633
1.72747
1.41467
1.13767
0.894857
0.683811
0.500482
0.340516
0.198784
0.0675082
5.85058
5.4971
5.09795
4.66467
4.20997
3.74662
3.28654
2.84017
2.41665
2.0226
1.66344
1.34227
1.05949
0.813977
0.603658
0.424976
0.274607
0.149393
0.0452252
5.85676
5.51276
5.12075
4.69216
4.23964
3.7759
3.31297
2.86148
2.43091
2.02845
1.66028
1.33041
1.04011
0.788886
0.575104
0.395363
0.246659
0.126805
0.0340279
5.86343
5.53218
5.15257
4.73557
4.29319
3.83753
3.38011
2.93116
2.49999
2.09396
1.71969
1.38209
1.08346
0.8243
0.603589
0.418034
0.26415
0.138922
0.0393287
5.86646
5.54252
5.17122
4.76302
4.32934
3.88156
3.4305
2.98575
2.55612
2.14875
1.7704
1.42656
1.12051
0.853865
0.626497
0.435456
0.27701
0.147502
0.0429707
5.86584
5.54338
5.17593
4.77351
4.34685
3.90655
3.46254
3.02354
2.59761
2.1913
1.81113
1.46285
1.15054
0.876992
0.643291
0.447182
0.284963
0.152489
0.0450348
5.8627
5.5371
5.17003
4.77107
4.35025
3.91726
3.48102
3.04922
2.62895
2.22591
1.84605
1.49503
1.1774
0.897094
0.656737
0.455288
0.289507
0.154913
0.0460025
5.85718
5.52519
5.15633
4.75958
4.34415
3.91874
3.49116
3.06799
2.65522
2.25755
1.88012
1.52805
1.20595
0.918664
0.670519
0.462363
0.292205
0.155618
0.0461963
5.85009
5.51026
5.13879
4.74394
4.33407
3.91683
3.4989
3.08572
2.68216
2.29189
1.91902
1.56783
1.24244
0.947951
0.690226
0.472538
0.295394
0.155571
0.0458871
5.84379
5.49635
5.12237
4.72971
4.3259
3.91755
3.51023
3.10827
2.71552
2.33461
1.96867
1.62089
1.2943
0.993411
0.72461
0.493374
0.303882
0.156502
0.0451855
5.83732
5.48239
5.10645
4.7168
4.32007
3.92178
3.52641
3.13725
2.75726
2.38821
2.03233
1.69181
1.36829
1.06474
0.786465
0.539275
0.330259
0.165336
0.0443331
5.83057
5.46865
5.0918
4.7065
4.31829
3.93158
3.54974
3.17518
2.8101
2.45564
2.11344
1.78502
1.47093
1.17244
0.892565
0.634754
0.404956
0.211419
0.0594655
5.82266
5.45191
5.07215
4.68904
4.307
3.92936
3.55854
3.1962
2.84394
2.50249
2.17323
1.8574
1.55521
1.26717
0.994579
0.737927
0.498769
0.281067
0.0882698
5.81068
5.42358
5.03355
4.64504
4.26129
3.8846
3.51658
3.15823
2.8107
2.47433
2.15031
1.83978
1.54295
1.26041
0.993589
0.742751
0.508666
0.293072
0.095731
5.79559
5.38756
4.98324
4.58532
4.19571
3.81574
3.44625
3.08765
2.74068
2.4054
2.08286
1.77419
1.4797
1.20023
0.937693
0.693004
0.467835
0.264893
0.0846118
5.78216
5.3558
4.93913
4.53318
4.13869
3.75612
3.38566
3.02725
2.68133
2.34774
2.02747
1.72168
1.43073
1.15562
0.898459
0.660301
0.44292
0.249022
0.0789505
5.77175
5.33059
4.90377
4.49118
4.09265
3.70796
3.33679
2.97869
2.63389
2.30203
1.98407
1.68115
1.39363
1.12255
0.87006
0.637211
0.425753
0.238356
0.0752885
5.76353
5.3108
4.8761
4.4584
4.05682
3.6706
3.29902
2.94135
2.59761
2.26733
1.9514
1.65093
1.36627
1.09843
0.849571
0.620718
0.413596
0.230863
0.0727517
5.75754
5.29646
4.85622
4.43503
4.03144
3.6443
3.27257
2.91533
2.57247
2.24342
1.92902
1.63035
1.34774
1.08217
0.835801
0.609644
0.405423
0.225811
0.0710356
5.7532
5.28714
4.84399
4.42116
4.01677
3.62938
3.2578
2.901
2.5588
2.23058
1.91714
1.61957
1.33815
1.07386
0.828868
0.604149
0.401426
0.223376
0.0702284
5.7532
5.28715
4.84401
4.42119
4.0168
3.62941
3.25783
2.90103
2.55883
2.2306
1.91717
1.61959
1.33817
1.07388
0.828881
0.604159
0.401433
0.22338
0.0702298
5.75756
5.29651
4.85629
4.43511
4.03153
3.64439
3.27266
2.91542
2.57255
2.2435
1.92909
1.63042
1.34779
1.08222
0.835843
0.609678
0.405448
0.225826
0.0710409
5.76356
5.31088
4.87621
4.45853
4.05696
3.67074
3.29916
2.94148
2.59774
2.26745
1.95151
1.65103
1.36635
1.0985
0.849632
0.620765
0.413629
0.230883
0.0727583
5.77179
5.3307
4.90392
4.49135
4.09283
3.70814
3.33697
2.97887
2.63406
2.30219
1.98421
1.68127
1.39373
1.12263
0.870129
0.637263
0.425789
0.238377
0.0752953
5.78222
5.35593
4.93931
4.53338
4.13891
3.75634
3.38589
3.02747
2.68153
2.34792
2.02764
1.72182
1.43085
1.15571
0.898531
0.660353
0.442953
0.24904
0.0789555
5.79564
5.3877
4.98344
4.58555
4.19597
3.816
3.44651
3.08789
2.7409
2.4056
2.08303
1.77434
1.47981
1.20031
0.937744
0.693031
0.467844
0.264891
0.0846073
5.81075
5.42374
5.03377
4.6453
4.26156
3.88488
3.51686
3.1585
2.81094
2.47453
2.15047
1.8399
1.54302
1.26043
0.99356
0.742681
0.508574
0.292989
0.0956905
5.82274
5.45214
5.07251
4.68951
4.30757
3.93001
3.55926
3.19696
2.84475
2.50333
2.1741
1.85829
1.55612
1.26809
0.995507
0.738841
0.499614
0.281729
0.0885658
5.83065
5.46892
5.09223
4.70708
4.31901
3.93241
3.55069
3.17623
2.81123
2.45683
2.1147
1.78632
1.47226
1.17378
0.893855
0.635931
0.40592
0.212062
0.0597023
5.83739
5.48261
5.10681
4.71729
4.32068
3.92251
3.52722
3.13815
2.75822
2.38922
2.03338
1.69287
1.36934
1.06573
0.787345
0.539981
0.330737
0.165573
0.0443768
5.84386
5.49654
5.1227
4.73017
4.32647
3.91823
3.51099
3.10911
2.71641
2.33554
1.96961
1.62182
1.29519
0.994204
0.725265
0.493856
0.304183
0.156648
0.0452235
5.85014
5.51043
5.13909
4.74436
4.3346
3.91746
3.49961
3.08649
2.68299
2.29274
1.91986
1.56865
1.24318
0.948597
0.690738
0.472903
0.295622
0.155689
0.0459217
5.85722
5.52535
5.1566
4.75997
4.34464
3.91932
3.49182
3.06871
2.65597
2.25832
1.88088
1.52877
1.2066
0.919206
0.670943
0.462665
0.2924
0.155724
0.0462292
5.86274
5.53724
5.17027
4.77141
4.35069
3.91779
3.48162
3.04988
2.62964
2.2266
1.84673
1.49567
1.17796
0.897562
0.657102
0.455553
0.289683
0.155013
0.0460351
5.86588
5.54349
5.17614
4.77381
4.34725
3.90703
3.46309
3.02414
2.59824
2.19193
1.81173
1.46342
1.15103
0.877405
0.643616
0.447424
0.285129
0.152588
0.045069
5.86648
5.54262
5.1714
4.76329
4.32969
3.882
3.43099
2.98629
2.55669
2.14932
1.77094
1.42706
1.12095
0.854237
0.626797
0.435686
0.277175
0.147605
0.0430092
5.86345
5.53227
5.15273
4.7358
4.2935
3.83792
3.38055
2.93164
2.5005
2.09446
1.72018
1.38254
1.08386
0.824642
0.603872
0.418261
0.264321
0.139036
0.0393757
5.85676
5.51277
5.12077
4.69221
4.23971
3.77599
3.31307
2.86158
2.43101
2.02854
1.66035
1.33047
1.04014
0.788892
0.57509
0.395335
0.246624
0.126774
0.0340136
5.85056
5.49706
5.09789
4.6646
4.20988
3.74651
3.28641
2.84004
2.4165
2.02244
1.66328
1.34211
1.05934
0.813832
0.603523
0.424856
0.274508
0.149324
0.0451964
5.84651
5.48887
5.08925
4.65891
4.21018
3.75526
3.30546
2.87053
2.45886
2.0763
1.72745
1.41465
1.13765
0.894852
0.683812
0.500487
0.340524
0.198792
0.0675113
5.84248
5.48035
5.07972
4.65176
4.20846
3.76146
3.32139
2.89724
2.4966
2.12449
1.78472
1.47894
1.20629
0.96469
0.751272
0.561474
0.390254
0.231878
0.0789486
5.83876
5.47202
5.07009
4.64422
4.20601
3.76655
3.33575
2.92177
2.53141
2.16883
1.8371
1.53718
1.26767
1.02603
0.809078
0.611952
0.429521
0.256539
0.0870838
5.83488
5.46314
5.05978
4.63589
4.20263
3.77047
3.34862
2.9444
2.56375
2.21001
1.8855
1.59058
1.32331
1.08083
0.859743
0.655188
0.462344
0.276797
0.0938485
5.82982
5.45288
5.0482
4.62631
4.19793
3.77298
3.35989
2.96516
2.59385
2.24847
1.93063
1.64009
1.37449
1.13071
0.905318
0.693625
0.491284
0.29468
0.0999493
5.82539
5.44402
5.03813
4.6181
4.19437
3.77634
3.3717
2.98607
2.62364
2.28609
1.97432
1.68758
1.42316
1.17774
0.947971
0.729428
0.518245
0.311467
0.105796
5.82249
5.437
5.02964
4.61114
4.19182
3.78052
3.38414
3.00738
2.65355
2.32345
2.01737
1.73406
1.47049
1.22328
0.989174
0.764043
0.544441
0.327942
0.111642
5.81875
5.42811
5.01876
4.60168
4.1869
3.78262
3.39484
3.02725
2.68219
2.35967
2.0593
1.77943
1.51678
1.26788
1.02966
0.798241
0.570534
0.344545
0.117642
5.81379
5.41701
5.00528
4.58967
4.17984
3.78315
3.40454
3.04659
2.71068
2.39595
2.10145
1.82511
1.56345
1.31298
1.0708
0.833226
0.597474
0.361892
0.124034
5.80869
5.40504
4.99061
4.57675
4.17252
3.78421
3.41549
3.06776
2.74137
2.43467
2.14613
1.87336
1.61269
1.36064
1.11442
0.870566
0.626485
0.380798
0.131132
5.8029
5.39108
4.97396
4.56275
4.16541
3.78676
3.42903
3.09235
2.77605
2.47771
2.19531
1.92617
1.66648
1.41274
1.16231
0.911812
0.658822
0.402127
0.139289
5.79424
5.37333
4.95464
4.54802
4.15963
3.79248
3.4472
3.12262
2.81711
2.52756
2.2515
1.98606
1.72728
1.47164
1.21662
0.958883
0.696054
0.426976
0.148968
5.78527
5.35663
4.9386
4.53907
4.16195
3.80816
3.47664
3.16499
2.87071
2.59008
2.32029
2.05829
1.79999
1.54187
1.28142
1.01527
0.740973
0.457259
0.16096
5.77801
5.3441
4.93
4.54093
4.1779
3.83955
3.52317
3.22525
2.94256
2.6709
2.40719
2.14823
1.88983
1.62835
1.36129
1.08507
0.796976
0.49542
0.176326
5.76933
5.33382
4.92905
4.55536
4.2102
3.88993
3.59044
3.30734
3.03688
2.77447
2.51685
2.26072
2.0017
1.73601
1.46101
1.17273
0.867957
0.544381
0.196432
5.76292
5.33421
4.94626
4.59343
4.26984
3.97005
3.68897
3.42162
3.16391
2.91098
2.65943
2.40583
2.14556
1.87454
1.58983
1.28676
0.961193
0.609565
0.223841
5.76491
5.35562
4.99303
4.66654
4.36804
4.09102
3.8299
3.57941
3.33526
3.0924
2.84725
2.59624
2.33434
2.05696
1.76057
1.43934
1.08759
0.699511
0.262885
5.77818
5.40297
5.07478
4.78037
4.51084
4.25948
4.02069
3.78913
3.56046
3.32942
3.09225
2.84511
2.58239
2.29862
1.9893
1.64671
1.26252
0.82704
0.320855
5.80563
5.47969
5.19477
4.93832
4.70228
4.48046
4.26767
4.05865
3.84912
3.63364
3.40816
3.16849
2.90811
2.62029
2.29888
1.93313
1.51036
1.01395
0.411936
5.84649
5.58327
5.34996
5.13781
4.94084
4.75397
4.57269
4.39204
4.20792
4.01472
3.80812
3.58347
3.33305
3.04835
2.72069
2.33464
1.8702
1.29869
0.565907
5.89568
5.70499
5.53087
5.36992
5.21887
5.07405
4.93192
4.78807
4.63881
4.47859
4.30299
4.10697
3.88156
3.61609
3.29846
2.90638
2.40819
1.75423
0.851333
5.94541
5.83215
5.72368
5.62124
5.52395
5.42971
5.33621
5.24001
5.1383
5.02625
4.89989
4.75448
4.58053
4.36589
4.09497
3.73699
3.24346
2.5303
1.43822
5.9874
5.95108
5.9134
5.87678
5.84162
5.80724
5.77282
5.73669
5.69771
5.65318
5.60103
5.53849
5.45881
5.35227
5.20329
4.97662
4.60611
3.9594
2.77142
)
;

boundaryField
{
    up
    {
        type            fixedValue;
        value           uniform 0;
    }
    low
    {
        type            fixedValue;
        value           uniform 6;
    }
    left
    {
        type            fixedValue;
        value           uniform 6;
    }
    right
    {
        type            fixedValue;
        value           uniform 6;
    }
    frontAndBackPlanes
    {
        type            empty;
    }
}


// ************************************************************************* //
