/*--------------------------------*- C++ -*----------------------------------*\
  =========                 |
  \\      /  F ield         | OpenFOAM: The Open Source CFD Toolbox
   \\    /   O peration     | Website:  https://openfoam.org
    \\  /    A nd           | Version:  7
     \\/     M anipulation  |
\*---------------------------------------------------------------------------*/
FoamFile
{
    version     2.0;
    format      ascii;
    class       volScalarField;
    location    "0.26";
    object      gradTz;
}
// * * * * * * * * * * * * * * * * * * * * * * * * * * * * * * * * * * * * * //

dimensions      [0 -1 0 1 0 0 0];

internalField   nonuniform List<scalar> 
1596
(
-1.61368e-16
-7.85006e-17
7.97075e-17
1.6808e-18
-1.51985e-16
0
-7.1053e-17
-7.00617e-17
-4.57629e-18
-3.68707e-17
-3.41859e-19
-3.6671e-17
1.61318e-16
-3.62591e-17
1.69452e-16
1.46206e-16
8.69592e-17
1.09807e-16
0
1.61282e-16
0
2.27573e-16
-1.54776e-18
-6.98385e-17
6.92431e-17
1.42579e-16
4.35362e-18
6.7578e-17
-3.25562e-17
6.49551e-17
-9.93868e-19
-9.00898e-17
-5.62643e-17
-1.37007e-16
-1.33648e-16
-1.21578e-16
6.91961e-17
0
-7.91379e-17
0
-1.48575e-16
2.45844e-18
1.36428e-16
-3.8221e-17
2.89106e-18
-9.49888e-19
-9.68604e-19
-1.0336e-18
2.46741e-17
0
4.67346e-17
1.32597e-16
-1.30664e-17
1.05105e-17
2.47234e-17
3.85931e-17
0
1.24253e-16
-3.74303e-17
3.72936e-17
0
-3.58984e-17
-3.712e-17
6.33385e-17
-5.53987e-17
0
0
-1.97988e-17
1.28808e-17
0
-3.90715e-17
-4.98233e-17
3.44538e-17
-3.53735e-17
-1.82032e-18
0
2.16999e-17
5.78564e-17
-5.2295e-17
0
-1.54662e-17
-4.70478e-17
0
7.03856e-17
-7.01222e-18
-6.34924e-18
-6.006e-18
3.66647e-17
4.50278e-17
4.64684e-18
1.5713e-18
-3.72543e-17
1.87782e-18
1.72511e-17
-7.41886e-18
-5.63511e-18
-7.94133e-17
7.56521e-17
-6.61732e-17
-1.35553e-19
-5.86751e-17
1.65509e-18
-1.66059e-18
-4.64327e-17
0
-4.97199e-18
-4.33479e-17
-4.06806e-17
3.3102e-17
3.42749e-17
-4.68017e-19
-2.05496e-17
-1.74976e-17
1.33768e-17
4.70936e-17
-8.09196e-17
9.09385e-17
5.09466e-17
0
4.50325e-17
2.65281e-17
-1.2782e-17
5.89056e-17
-1.10742e-17
-4.67956e-17
4.27169e-19
-2.7771e-17
-3.32601e-17
-2.60284e-17
2.21361e-17
2.07305e-17
-2.76746e-19
-5.5821e-18
4.56596e-18
1.285e-16
-1.51561e-16
0
0
-5.58696e-17
0
0
0
3.86583e-17
0
0
2.5466e-17
9.56737e-19
6.88934e-18
-1.93483e-17
0
1.02982e-17
4.01652e-18
0
-8.34587e-17
1.60676e-16
0
0
5.75379e-17
0
-2.20499e-17
2.20276e-17
-3.93485e-17
1.6409e-17
-1.6529e-17
0
2.38683e-17
2.31777e-17
0
-1.33808e-17
-1.0523e-17
-3.50814e-18
2.00513e-16
-9.39482e-17
0
-6.70673e-17
6.63167e-17
0
4.94146e-17
0
0
0
1.51871e-17
-1.52599e-17
0
-1.84308e-17
-5.28206e-18
0
1.41753e-18
7.63698e-18
0
-5.08946e-17
0
0
6.72295e-17
-1.25593e-16
6.34151e-18
2.4429e-18
-2.04112e-17
2.25082e-18
7.82225e-19
-1.59547e-17
-2.57179e-17
0
1.94464e-17
-3.88356e-18
3.94185e-18
1.02787e-17
-5.99158e-18
-2.76071e-18
4.24588e-17
-4.46354e-18
4.07636e-17
1.3969e-16
-7.38749e-18
-5.86875e-17
0
0
0
3.28647e-17
1.32062e-17
4.7657e-17
-1.15086e-17
-1.90985e-17
-1.1399e-17
-6.20702e-18
2.76469e-18
-6.0141e-18
2.62706e-18
-4.68933e-17
4.59433e-17
-8.50065e-17
-1.37991e-16
1.27915e-16
5.08416e-17
-9.41294e-17
8.16201e-17
-7.0696e-17
1.843e-17
1.41633e-17
-1.28367e-17
8.38293e-18
-7.54029e-18
2.20568e-17
0
-1.66516e-18
1.22708e-17
-1.82364e-18
-3.03364e-16
1.39418e-16
1.15039e-19
-3.0855e-17
3.88728e-18
4.93867e-17
-9.3875e-17
-3.88029e-17
3.3192e-17
-2.82475e-17
-2.4128e-17
0
-2.75215e-17
-8.19516e-18
-1.46793e-17
-8.7325e-18
6.87477e-19
-7.7158e-18
1.71284e-19
4.9582e-17
-4.42303e-17
9.29851e-20
-3.41022e-17
-8.5266e-17
8.04204e-17
3.31585e-19
3.78134e-17
-3.23168e-17
5.41836e-17
1.28302e-17
1.05694e-17
3.26611e-17
0
2.71551e-17
1.24841e-17
0
4.21474e-18
1.44602e-19
0
4.29085e-17
3.38281e-17
-7.03143e-17
8.26224e-17
-1.24164e-16
8.79673e-17
3.33117e-17
-4.84531e-18
-5.3601e-17
9.86157e-18
-9.81291e-18
-2.9851e-17
1.18816e-17
-5.92615e-18
-1.24863e-17
5.40988e-18
-3.35917e-18
1.31598e-18
-4.61877e-17
1.57057e-16
-1.16988e-16
6.37873e-17
0
0
-1.7367e-17
3.69873e-17
-2.64182e-17
4.96756e-17
0
0
2.01418e-17
-1.76091e-17
-1.25053e-17
3.94485e-18
-4.21173e-18
2.21805e-18
0
3.74317e-18
4.31929e-17
-3.49173e-17
-3.06045e-17
-4.94975e-17
-1.61028e-17
2.22865e-17
0
-2.48333e-17
-2.02266e-17
1.81766e-17
-1.48483e-17
1.20493e-17
0
4.77286e-18
9.36028e-18
0
0
0
-3.58325e-18
6.92153e-17
2.64691e-17
-9.23474e-17
2.55294e-17
2.19059e-17
0
0
2.34517e-17
-1.22201e-17
-1.75807e-17
1.4361e-17
-1.16526e-17
0
-3.12019e-18
2.66387e-18
0
-2.24749e-18
-7.85214e-19
-3.70865e-17
1.0883e-16
-1.3214e-16
-5.29219e-17
2.77442e-17
-2.07558e-17
1.74431e-17
0
-1.1923e-17
9.96706e-18
0
0
4.59255e-18
-4.59784e-18
1.38235e-18
-1.83564e-18
3.21146e-18
3.91496e-19
5.84244e-19
1.90631e-17
-1.71959e-17
8.80936e-17
-5.68633e-17
-2.30967e-17
2.96763e-18
3.59163e-17
1.36615e-17
1.14085e-17
0
6.62902e-18
-6.13936e-18
4.88903e-18
-4.14176e-18
5.35171e-18
-9.22534e-18
-2.50039e-18
2.18185e-18
5.81187e-19
5.10256e-17
-5.17295e-17
0
4.76553e-17
-2.51272e-17
-1.87596e-17
1.30042e-17
-4.16108e-17
0
-7.35368e-19
-7.65758e-18
-5.51936e-18
8.04629e-18
-6.21393e-19
-5.17234e-18
3.82794e-18
0
1.38737e-18
-5.64328e-19
8.71759e-17
-1.54097e-17
6.5599e-17
-5.13867e-17
2.83306e-17
3.11689e-18
-3.25003e-17
-1.11148e-17
2.00248e-17
-8.50052e-19
-1.17402e-17
9.91715e-18
-4.33996e-18
-5.71428e-18
0
0
0
-1.4005e-18
5.20387e-20
-7.7539e-17
7.55125e-17
5.3911e-20
1.15499e-17
9.94401e-18
-2.40215e-17
2.83326e-17
-2.3297e-17
1.98675e-17
-6.59523e-18
1.25436e-17
4.46369e-18
-1.89608e-18
9.67012e-20
-6.84897e-19
-1.20281e-18
0
0
0
0
0
3.70646e-17
-1.8045e-17
-5.63222e-17
0
0
-6.76705e-18
-1.09272e-17
9.14145e-18
0
-5.62953e-18
4.3702e-18
-1.45673e-17
1.67482e-17
-5.46626e-18
5.82005e-18
6.36729e-19
0
-1.50239e-17
1.52089e-17
0
-1.22556e-17
1.24341e-17
2.05857e-17
0
6.83166e-18
9.01864e-18
-4.03488e-17
0
-6.26015e-18
4.88388e-18
3.49688e-18
-2.59902e-18
3.80435e-18
0
-1.39998e-18
0
-7.72636e-18
-7.69137e-18
4.55492e-19
1.25923e-17
-3.38464e-17
0
-8.72514e-18
0
2.47415e-17
9.99028e-18
0
2.48247e-17
-2.60449e-17
2.63757e-18
-5.77175e-18
1.64052e-18
7.31077e-18
2.76695e-18
-2.19184e-18
0
1.59708e-17
-1.40128e-17
1.73882e-17
2.0912e-17
0
1.77576e-17
-1.67886e-17
-1.32647e-17
1.99875e-17
-3.00101e-17
-1.46797e-17
0
0
3.22108e-18
0
0
9.21824e-19
0
-7.08311e-17
5.43809e-17
0
8.31701e-19
-1.22092e-17
-6.72777e-19
1.08749e-17
7.80689e-18
-9.75669e-18
-2.48871e-17
3.95898e-17
-1.07295e-17
0
-5.15253e-18
0
0
0
-3.56119e-18
2.84481e-18
-2.00347e-17
1.87823e-17
5.02561e-17
-4.91578e-17
1.51173e-17
8.44239e-19
-1.10484e-17
9.54617e-18
1.62679e-17
1.24777e-17
-2.46645e-17
0
1.2849e-17
1.81152e-18
-5.89856e-18
-1.29419e-17
1.06693e-17
-1.73007e-18
3.27159e-18
-6.77861e-17
9.77219e-17
-9.69327e-17
1.70833e-17
1.45364e-17
-1.38463e-17
1.16619e-17
-9.28836e-18
0
-7.91997e-18
1.27349e-17
5.52512e-18
8.92307e-18
1.13315e-17
-1.69751e-17
-2.82708e-19
0
-1.32676e-18
4.43979e-19
-7.32935e-17
-2.1852e-17
-3.84096e-17
2.04127e-17
-3.34621e-17
2.91641e-17
-1.74018e-17
1.47739e-17
-1.01763e-18
-1.01581e-18
-1.33802e-17
7.89376e-18
-4.44667e-18
1.35399e-17
-1.45352e-17
1.81674e-18
1.54008e-18
0
-7.69072e-19
7.92463e-17
-2.35668e-17
0
0
-3.44673e-17
6.71033e-17
-1.5712e-17
-3.02946e-18
2.49848e-17
-6.44693e-19
0
0
-5.80478e-18
0
-1.26554e-17
3.07336e-17
-2.13325e-17
0
3.05659e-19
2.71079e-17
5.06892e-17
0
-2.16524e-17
-1.772e-17
-1.57281e-17
-1.63418e-17
6.79063e-18
-1.89986e-17
-1.042e-17
0
0
7.72669e-18
0
0
-1.7137e-17
2.82439e-17
0
0
1.86032e-16
-2.19253e-17
-1.12778e-16
-6.15926e-17
8.35327e-17
2.66907e-17
1.58454e-17
0
-5.84608e-18
5.67454e-18
1.40688e-17
-4.5402e-18
-6.78023e-18
1.05217e-17
-1.11918e-17
-3.4571e-18
0
0
0
1.48976e-17
-1.17742e-16
1.15445e-16
-1.10866e-17
-8.59381e-17
1.34644e-16
-6.76752e-17
0
0
3.63406e-17
-2.98688e-17
0
-9.05829e-18
1.57736e-17
-1.77795e-18
4.61284e-18
1.4082e-18
1.52478e-20
3.07222e-19
0
0
0
9.73494e-17
-6.52802e-17
6.88499e-17
-1.07403e-16
3.06264e-17
0
-1.10771e-17
1.77573e-17
-1.81491e-17
-3.57128e-18
-6.52381e-20
-2.45462e-18
-3.62294e-19
-1.95696e-18
-5.4881e-19
-2.99885e-19
1.24775e-16
-2.22631e-16
1.05577e-16
0
2.85453e-17
-3.88886e-17
3.91023e-17
-3.1021e-17
0
-1.51774e-17
2.12791e-17
0
0
-4.76358e-20
0
-2.53472e-18
1.7342e-18
3.19692e-19
4.78196e-19
1.21052e-16
0
-4.83385e-17
5.39942e-17
-3.39967e-17
7.43346e-17
-3.51684e-17
-2.76052e-17
2.78935e-17
-2.84204e-18
0
0
1.82802e-18
-3.09187e-18
-2.16791e-18
4.11136e-18
-8.90084e-19
4.55788e-19
0
6.87291e-17
5.38096e-17
-1.78293e-18
-5.14767e-17
-5.21009e-18
-3.7645e-17
4.03034e-18
3.16869e-17
-1.64113e-18
2.89541e-18
0
0
-1.87268e-18
0
2.20515e-18
-2.35898e-18
0
3.02216e-19
-8.38027e-20
-3.64802e-17
-2.69924e-17
2.52746e-17
-2.90101e-18
-1.30268e-18
3.52517e-18
0
-9.33489e-19
1.40127e-17
-1.18009e-17
0
4.01086e-18
-7.85259e-19
-3.54321e-18
-3.24304e-19
-2.52962e-19
0
-2.36225e-19
0
1.49103e-17
-2.83692e-17
-3.90069e-19
1.22147e-17
1.12103e-17
-1.11385e-17
-7.91877e-18
8.96447e-18
-3.08571e-18
2.41343e-18
-2.35183e-18
2.42437e-18
0
6.20859e-21
-2.38933e-19
8.59107e-19
-2.94096e-21
0
0
1.49108e-17
-1.48549e-17
-1.21507e-17
1.0763e-17
1.98046e-17
-1.99215e-17
-3.95952e-18
3.96891e-18
-3.11179e-18
3.14446e-18
-2.35191e-18
4.44004e-18
-1.24528e-18
-8.97776e-19
-2.75795e-19
9.1393e-20
2.18196e-19
5.77116e-20
-4.32823e-20
0
-3.53973e-18
2.1167e-17
-2.29415e-17
1.97713e-17
-1.75244e-17
0
1.40133e-17
-1.25337e-17
0
4.68312e-18
-5.93035e-18
-3.3811e-18
3.54361e-18
6.52644e-19
0
0
-2.36261e-19
8.58596e-20
5.93443e-17
-1.09353e-16
1.11718e-16
-9.82338e-17
3.8649e-17
-3.29631e-17
3.12754e-17
3.7292e-18
-1.39103e-17
1.24299e-17
0
-9.05238e-18
8.24312e-18
-1.56919e-18
-6.39264e-19
1.00698e-18
7.40521e-19
2.29364e-19
-8.29599e-20
1.365e-16
0
-5.46786e-17
4.24921e-17
5.15017e-18
-3.97032e-17
7.04924e-17
-6.2683e-17
2.46271e-17
-1.05681e-17
1.08173e-17
2.14571e-18
3.69508e-18
1.5284e-18
-1.27044e-18
-1.66099e-19
-1.60456e-18
0
1.64406e-19
1.09534e-16
-1.23295e-16
0
1.13532e-17
4.91355e-17
-4.81402e-17
8.24194e-18
7.32042e-18
3.2003e-18
5.65782e-18
0
0
-6.42849e-18
1.20614e-17
-4.41076e-18
-1.58438e-18
1.73464e-18
1.39109e-19
-3.12791e-19
9.85869e-18
1.08306e-16
-1.25517e-17
-8.60212e-17
7.55138e-17
9.06238e-18
-8.06624e-18
-7.14987e-18
2.36494e-17
-2.93381e-17
1.77626e-17
-1.81542e-17
2.85394e-18
-3.61383e-18
6.62367e-18
-4.41365e-18
0
0
3.19723e-19
0
2.71734e-17
-8.18954e-17
9.35718e-17
-7.60223e-17
7.58413e-17
0
2.65082e-17
-2.66296e-17
-2.01436e-17
2.98907e-17
0
1.24909e-17
-1.57849e-17
-2.33866e-18
0
-2.64482e-19
-5.30555e-19
-7.47627e-21
-2.57756e-16
1.23075e-16
0
-8.35176e-17
8.35093e-17
5.15016e-17
-3.38579e-17
1.40321e-17
0
-6.35516e-19
4.77237e-18
-4.53398e-18
-6.77128e-18
1.05062e-17
-1.11716e-17
0
2.44744e-18
-5.4609e-19
-3.28496e-19
1.58726e-16
-1.5626e-16
0
2.16297e-17
1.97347e-17
-1.80763e-17
0
-1.47058e-17
-1.27394e-17
0
-5.45606e-19
0
7.73006e-18
0
0
3.51776e-18
1.32496e-17
-1.71298e-17
0
2.16507e-20
2.35782e-17
-2.18243e-17
1.79468e-17
-9.11601e-17
3.49625e-17
0
3.03163e-18
8.60013e-18
0
-8.89697e-18
2.60816e-17
-2.74003e-17
4.65087e-18
0
-5.09073e-19
0
0
0
2.11215e-20
0
2.01711e-17
0
-3.15196e-17
3.20207e-17
0
1.1616e-17
-9.37395e-18
3.41371e-17
-1.64964e-17
6.01693e-18
-9.74222e-18
9.33976e-18
-1.45529e-17
-2.33071e-18
0
-1.57125e-18
0
6.17901e-17
-1.04472e-16
0
-1.70866e-17
1.5401e-17
0
0
-2.12448e-17
0
-7.92576e-18
-1.27448e-17
-5.53011e-18
8.93205e-18
0
4.87196e-18
0
0
3.44388e-18
-3.81959e-18
0
9.06251e-17
-7.25746e-17
1.58183e-17
-1.42614e-17
-5.90313e-18
1.70521e-17
1.9288e-17
-2.37777e-17
7.67931e-18
5.07731e-19
-7.31434e-18
3.00135e-17
-9.34427e-18
-2.19753e-17
7.61981e-18
-1.99958e-18
1.1953e-18
-3.69367e-19
-1.46618e-16
5.43781e-17
0
0
6.11255e-18
-6.21577e-18
4.52968e-18
3.04694e-18
2.15118e-17
1.11179e-17
-1.10552e-17
-4.06603e-19
-6.33892e-18
5.15716e-18
0
2.60525e-18
1.83276e-18
9.98908e-19
3.33856e-19
0
4.72383e-17
-4.42409e-17
1.42239e-17
1.48461e-17
-2.87174e-18
-9.37101e-18
-8.06347e-18
-2.69414e-17
1.09715e-17
-6.8522e-18
9.27032e-18
5.92768e-18
-7.51187e-18
7.97339e-18
5.15272e-18
-6.67015e-18
-9.2264e-19
0
-8.30659e-18
-3.74855e-17
1.34693e-17
1.25956e-17
-4.37175e-17
3.13931e-17
1.5852e-17
-1.62032e-17
1.25887e-17
-1.04125e-17
0
0
-8.94941e-18
1.61158e-17
-7.14239e-18
6.77833e-18
-7.40417e-18
1.23478e-18
-2.19386e-18
1.56179e-17
1.46449e-17
-1.33977e-17
1.06318e-17
-1.23114e-17
-1.90369e-17
0
0
0
0
0
0
4.59987e-18
-1.22611e-17
1.29675e-17
-4.26892e-18
5.25945e-18
2.49093e-18
-2.11342e-18
3.23062e-17
-5.55336e-17
6.95019e-17
-3.30034e-17
4.55877e-17
-3.38571e-17
6.34055e-17
-3.59821e-17
-1.96816e-17
2.01334e-17
0
5.62607e-18
-4.49384e-18
1.11548e-17
-3.68413e-18
-4.81609e-18
-1.02757e-17
7.68469e-19
1.80005e-18
5.02497e-17
1.4577e-17
0
-2.30252e-17
-1.84162e-17
4.23533e-17
4.4827e-18
-1.74341e-17
1.04315e-17
-7.51596e-18
0
-4.45367e-18
0
-3.69391e-18
3.01342e-18
-2.73252e-18
-9.06375e-19
6.44514e-19
0
7.02239e-17
-1.54095e-17
6.55714e-17
-5.13719e-17
-1.04421e-17
4.16531e-17
-2.49797e-17
1.21897e-18
1.01451e-18
-7.34884e-18
7.11193e-18
0
0
4.47517e-18
-1.6541e-18
1.08647e-18
3.27918e-18
-1.14104e-18
0
1.43068e-20
0
-1.44909e-17
8.58026e-17
-5.81038e-17
-6.26624e-17
3.43532e-17
-3.65218e-17
3.39668e-17
1.70548e-17
-1.30402e-17
5.34212e-18
-4.78467e-18
8.17181e-19
8.03175e-18
3.17237e-19
-3.10022e-18
3.06867e-18
-6.28325e-19
1.71165e-16
-5.46597e-17
2.71394e-17
-8.3635e-17
2.30966e-17
-3.65533e-17
1.95551e-17
0
0
-7.52664e-19
-1.01293e-18
-2.98637e-19
0
-6.98835e-18
-5.35181e-18
3.95546e-18
-2.91295e-19
5.13149e-19
1.23876e-18
0
-5.44819e-17
9.29909e-17
2.12235e-17
-7.64562e-17
2.07558e-17
-3.22674e-17
5.16369e-18
2.6495e-17
0
0
4.94928e-19
5.77569e-18
0
-5.22394e-18
-2.39901e-18
3.52181e-19
-1.26529e-18
-1.43754e-18
0
-3.44806e-17
7.32705e-18
6.27606e-17
4.76594e-17
-8.76335e-17
3.99909e-17
-2.83917e-17
1.51414e-17
-2.1353e-17
0
0
0
-9.35544e-18
2.56224e-18
-3.1355e-18
0
-1.96365e-19
9.8502e-19
-1.28846e-16
1.22308e-16
1.32138e-16
-1.60511e-16
7.59525e-17
-7.15886e-17
0
2.98565e-17
-4.09789e-17
2.39237e-17
-1.88596e-17
1.55544e-17
1.27491e-17
9.67559e-18
7.668e-18
0
0
0
0
1.42209e-16
-8.25023e-17
0
0
-2.7623e-17
6.79393e-17
-4.35596e-17
-3.15543e-17
3.11986e-17
2.35693e-17
3.98765e-17
-1.61392e-17
6.91569e-18
5.28656e-18
3.92456e-18
3.21271e-18
5.2065e-18
-2.56446e-19
2.61213e-19
-1.44254e-16
1.32916e-16
7.16332e-17
-3.7174e-17
8.26077e-17
-5.3086e-17
-4.245e-17
-3.61594e-17
0
-4.93724e-17
2.32684e-18
1.83603e-17
-1.45118e-17
-1.18816e-17
-4.40044e-18
-4.66376e-18
-3.72737e-18
0
0
-4.96247e-17
0
3.88733e-17
-6.15878e-20
0
0
4.37885e-17
3.73114e-17
0
2.67044e-17
0
-2.79093e-17
-7.87713e-18
1.40179e-17
0
9.07759e-18
-1.28476e-18
1.31063e-18
0
1.05441e-16
0
7.50298e-17
-1.39647e-16
1.252e-16
1.0216e-16
-3.02802e-18
0
2.68597e-18
3.09054e-17
0
-3.12314e-17
3.51857e-17
-3.13845e-17
-6.86004e-18
-7.29593e-18
-2.1482e-18
-3.83415e-19
-1.35774e-18
-9.84338e-17
1.41899e-16
-4.04403e-17
-1.06485e-16
-6.20175e-17
-5.40059e-17
-9.38845e-17
-3.81014e-17
2.92175e-18
1.419e-17
-1.41633e-17
4.55588e-17
-2.01693e-17
4.07305e-17
-7.63386e-18
0
8.68262e-18
-5.10602e-18
1.37242e-18
2.16845e-16
-4.54403e-18
-1.67047e-16
1.39691e-16
-1.26108e-16
1.10717e-16
-3.37275e-18
-4.26718e-17
3.74967e-17
1.50917e-17
-1.88155e-18
-3.71674e-17
1.08173e-17
1.13626e-17
-3.46902e-18
3.50859e-18
-8.99308e-18
-8.91494e-19
-2.10596e-18
1.06452e-16
4.53568e-17
8.0246e-17
-7.10405e-17
-5.9263e-17
2.95067e-18
-4.62007e-17
1.12053e-16
3.64411e-18
5.25849e-17
3.09318e-17
-2.74802e-17
0
-1.94464e-17
0
0
1.24517e-17
5.49592e-18
2.45869e-18
1.001e-16
0
7.93171e-17
7.05819e-17
-6.31633e-17
5.56717e-17
0
-4.39757e-17
-6.12226e-17
-5.37605e-17
-3.12056e-17
2.77909e-17
0
0
0
0
-1.16728e-17
-8.62603e-18
0
-1.96142e-16
0
-3.72591e-18
-3.28951e-18
9.60807e-17
-5.47436e-17
-2.52559e-17
-2.53576e-17
6.21241e-17
0
1.64089e-17
-1.73975e-18
1.46993e-17
0
0
1.93685e-17
-1.44131e-18
1.03573e-17
-3.92159e-18
1.38093e-16
4.01324e-17
-3.97181e-17
-3.53489e-17
-1.23805e-16
8.55453e-17
1.03899e-16
-2.69639e-18
-4.23356e-17
4.17895e-17
8.808e-18
-4.46447e-17
-3.66818e-17
-2.21562e-17
-2.34442e-17
-2.23282e-17
1.84786e-17
-8.73013e-19
4.01653e-18
-4.2515e-17
1.94274e-17
-9.37756e-17
1.62123e-17
-1.61533e-17
0
-5.15968e-17
-3.45181e-18
-4.78767e-17
3.90706e-18
4.67954e-17
3.46882e-17
-8.5027e-18
3.6828e-18
2.22989e-17
0
-3.8406e-17
-1.40733e-17
-2.92632e-19
8.6301e-17
-2.36707e-18
1.47449e-16
-7.05214e-17
1.35553e-19
1.88721e-18
5.68405e-17
-4.27292e-18
4.64326e-17
-4.34908e-17
-4.08992e-17
0
4.06805e-17
3.25924e-17
4.51979e-19
-6.5683e-19
2.07484e-17
1.4305e-17
0
-6.1383e-17
0
-1.50281e-17
6.71626e-17
9.1549e-19
1.54869e-17
-5.49639e-17
5.20301e-17
5.48237e-17
5.25174e-17
5.04664e-17
0
-3.95204e-17
0
2.09107e-18
-2.17176e-18
0
-2.0711e-19
1.01809e-17
4.23917e-17
2.11833e-18
-3.39864e-17
1.04662e-16
-3.36621e-17
0
0
-6.13218e-17
-5.31186e-17
-5.08777e-17
-9.21744e-17
-1.28808e-17
0
0
0
-4.26811e-18
4.51672e-18
2.88692e-17
-1.0336e-17
2.19262e-18
0
-7.28351e-17
-6.69152e-17
6.99351e-17
-6.94068e-17
-9.95391e-17
1.22411e-16
3.39001e-17
0
5.42429e-17
6.13198e-17
-1.32406e-17
7.18697e-17
-1.17675e-17
1.22471e-17
4.75634e-17
-2.74333e-17
0
-8.10254e-17
0
-7.76977e-17
7.61889e-17
0
1.38015e-16
6.49193e-17
-1.36096e-16
1.08575e-16
-7.18178e-19
-3.28896e-17
-5.93701e-17
0
8.16914e-17
-1.37007e-16
1.47012e-16
-1.87343e-16
0
0
8.06602e-17
-5.06109e-19
-1.24663e-18
-1.53407e-16
1.5473e-16
-7.48645e-17
7.45593e-17
7.34799e-17
-6.51463e-17
0
0
1.22351e-16
-1.24459e-16
-1.33104e-16
1.31934e-16
-1.28517e-16
1.38994e-16
-2.17718e-16
0
)
;

boundaryField
{
    up
    {
        type            calculated;
        value           nonuniform List<scalar> 
84
(
0
0
0
0
-7.41886e-18
1.33768e-17
-5.5821e-18
4.01652e-18
-3.50814e-18
0
-2.76071e-18
2.62706e-18
-1.82364e-18
1.71284e-19
1.44602e-19
1.31598e-18
0
0
-7.85214e-19
5.84244e-19
5.81187e-19
-5.64328e-19
5.20387e-20
0
2.30721e-19
1.06899e-19
-2.08781e-18
0
2.84481e-18
3.41814e-18
4.43979e-19
-7.69072e-19
3.05659e-19
0
-1.50465e-19
3.18043e-19
-2.99488e-19
4.77472e-19
0
-8.36686e-20
0
0
-4.33065e-20
8.58596e-20
-8.29599e-20
1.64406e-19
-3.12791e-19
3.19723e-19
-7.47627e-21
-3.28496e-19
0
0
0
-3.81959e-18
-5.16023e-19
3.33856e-19
0
-2.19386e-18
-2.11342e-18
1.57012e-18
0
0
-6.28325e-19
1.23876e-18
-1.43754e-18
9.8502e-19
0
2.61213e-19
0
0
-1.35774e-18
1.37242e-18
-2.10596e-18
2.45869e-18
0
-3.92159e-18
4.01653e-18
-2.92632e-19
0
1.01809e-17
-1.0336e-17
0
0
0
)
;
    }
    low
    {
        type            calculated;
        value           nonuniform List<scalar> 
84
(
-1.61477e-16
1.61282e-16
-7.89379e-17
1.24416e-16
2.18101e-17
-5.66769e-18
4.73676e-17
4.82822e-18
0
2.00817e-16
-5.08946e-17
4.22947e-17
-4.68933e-17
-3.03361e-16
4.9582e-17
0
-4.61877e-17
3.74317e-18
-3.58325e-18
-3.70865e-17
1.90631e-17
5.10256e-17
8.68645e-17
-7.7539e-17
0
-1.50239e-17
-7.72636e-18
0
-7.08311e-17
-2.00347e-17
-6.75821e-17
-7.31302e-17
7.91341e-17
2.71079e-17
1.86035e-16
1.48976e-17
0
1.24775e-16
1.213e-16
6.88661e-17
-3.65538e-17
1.49103e-17
1.49108e-17
0
5.93443e-17
1.36748e-16
1.09534e-16
1.00223e-17
0
-2.57759e-16
1.58726e-16
2.16507e-20
2.11215e-20
6.17901e-17
0
-1.46298e-16
0
-8.30659e-18
1.56179e-17
3.21167e-17
4.99163e-17
6.99125e-17
1.43068e-20
1.70905e-16
0
0
-1.28846e-16
1.42076e-16
-1.44163e-16
-4.96247e-17
1.05438e-16
-9.84338e-17
2.17174e-16
1.06687e-16
1.001e-16
-1.96142e-16
1.37831e-16
-4.22411e-17
8.6301e-17
-6.12728e-17
4.23917e-17
2.39268e-18
-8.10254e-17
8.0715e-17
)
;
    }
    left
    {
        type            calculated;
        value           nonuniform List<scalar> 
19
(
-1.61368e-16
-7.856e-17
7.97075e-17
1.68022e-18
-1.52025e-16
0
-7.1053e-17
-7.00617e-17
-4.80518e-18
-3.68707e-17
-3.41859e-19
-3.6671e-17
1.6295e-16
-3.62591e-17
1.69452e-16
1.46206e-16
8.69592e-17
1.27534e-16
0
)
;
    }
    right
    {
        type            calculated;
        value           nonuniform List<scalar> 
19
(
8.06602e-17
-4.46796e-19
-1.24663e-18
-1.53406e-16
1.5477e-16
-7.48645e-17
7.45593e-17
7.34799e-17
-6.49175e-17
0
0
1.23511e-16
-1.26091e-16
-1.33104e-16
1.31934e-16
-1.28517e-16
1.38994e-16
-2.35445e-16
0
)
;
    }
    frontAndBackPlanes
    {
        type            empty;
    }
}


// ************************************************************************* //
