/*--------------------------------*- C++ -*----------------------------------*\
  =========                 |
  \\      /  F ield         | OpenFOAM: The Open Source CFD Toolbox
   \\    /   O peration     | Website:  https://openfoam.org
    \\  /    A nd           | Version:  7
     \\/     M anipulation  |
\*---------------------------------------------------------------------------*/
FoamFile
{
    version     2.0;
    format      ascii;
    class       volScalarField;
    location    "0.358";
    object      gradTz;
}
// * * * * * * * * * * * * * * * * * * * * * * * * * * * * * * * * * * * * * //

dimensions      [0 -1 0 1 0 0 0];

internalField   nonuniform List<scalar> 
1596
(
-1.61375e-16
-7.8739e-17
7.9684e-17
1.44303e-18
-1.52629e-16
0
-7.17657e-17
-7.07565e-17
-4.27417e-18
-3.70447e-17
-3.68242e-19
-3.67757e-17
1.61318e-16
-3.6291e-17
1.69737e-16
1.46342e-16
8.70098e-17
1.09796e-16
0
1.61566e-16
0
2.29639e-16
-1.37952e-18
-7.11217e-17
7.05904e-17
1.44383e-16
4.03696e-18
6.86087e-17
-3.29673e-17
6.57131e-17
-1.07178e-18
-9.10262e-17
-5.67458e-17
-1.37268e-16
-1.33786e-16
-1.2163e-16
6.91724e-17
0
-7.96669e-17
0
-1.5075e-16
2.19305e-18
1.39911e-16
-3.84555e-17
2.53978e-18
-9.85377e-19
-1.03684e-18
-1.12821e-18
2.55683e-17
0
4.72304e-17
1.3425e-16
-1.32062e-17
1.05605e-17
2.48724e-17
3.86262e-17
0
1.24587e-16
-3.8092e-17
3.79529e-17
0
-3.66985e-17
-3.76944e-17
6.55487e-17
-5.82263e-17
0
0
-1.96849e-17
1.33353e-17
0
-3.97087e-17
-5.09459e-17
3.50518e-17
-3.55705e-17
-1.83288e-18
0
2.16999e-17
5.88838e-17
-5.40481e-17
0
-1.62241e-17
-4.91446e-17
0
7.40918e-17
-7.43403e-18
-6.72406e-18
-5.44938e-18
3.89027e-17
4.73699e-17
4.8026e-18
1.07953e-18
-3.79058e-17
1.91556e-18
1.75162e-17
-7.48219e-18
-5.63511e-18
-8.09173e-17
7.79894e-17
-6.9344e-17
-1.23742e-19
-6.27964e-17
1.77757e-18
-1.78347e-18
-5.0495e-17
0
-4.43216e-18
-4.59148e-17
-4.2826e-17
3.5253e-17
3.55545e-17
-4.87732e-19
-2.12987e-17
-1.77665e-17
1.35421e-17
4.70936e-17
-8.27577e-17
9.45132e-17
5.34845e-17
0
4.80676e-17
2.87821e-17
-1.39238e-17
6.41729e-17
-1.21573e-17
-5.08324e-17
4.92331e-19
-3.05142e-17
-3.54288e-17
-2.80652e-17
2.36174e-17
2.14862e-17
-2.85438e-19
-5.674e-18
3.89631e-18
1.31078e-16
-1.5748e-16
0
0
-6.08725e-17
0
0
0
4.3665e-17
0
0
2.78813e-17
1.12053e-18
6.92595e-18
-2.05896e-17
0
1.09613e-17
4.20906e-18
0
-8.60835e-17
1.66394e-16
0
0
6.26902e-17
0
-2.48589e-17
2.48338e-17
-4.44446e-17
1.87506e-17
-1.88877e-17
0
2.73054e-17
2.55961e-17
0
-1.47994e-17
-1.12035e-17
-3.66642e-18
2.01925e-16
-9.5337e-17
0
-7.16934e-17
7.0891e-17
0
5.53812e-17
0
0
0
1.77227e-17
-1.78077e-17
0
-2.10282e-17
-6.10058e-18
0
1.19907e-18
8.55597e-18
0
-5.12518e-17
0
0
7.19637e-17
-1.35693e-16
5.80376e-18
2.33406e-18
-2.35285e-17
2.29805e-18
6.00709e-19
-1.88592e-17
-3.10095e-17
0
2.34602e-17
-4.57145e-18
4.64006e-18
1.16816e-17
-6.6781e-18
-3.12256e-18
4.42486e-17
-3.77909e-18
4.24182e-17
1.48903e-16
-6.57835e-18
-6.41878e-17
0
0
0
3.89396e-17
1.60184e-17
5.81185e-17
-1.40495e-17
-2.30405e-17
-1.41438e-17
-7.4927e-18
3.31838e-18
-7.16699e-18
2.98078e-18
-4.79418e-17
4.69233e-17
-8.76383e-17
-1.47128e-16
1.37874e-16
5.69538e-17
-1.06574e-16
9.44914e-17
-8.35906e-17
2.17239e-17
1.72308e-17
-1.56126e-17
1.07967e-17
-9.4558e-18
2.73735e-17
0
-2.03884e-18
1.48963e-17
-2.20417e-18
-3.05423e-16
1.41763e-16
1.26303e-19
-3.34639e-17
3.44928e-18
5.54698e-17
-1.06178e-16
-4.53504e-17
3.977e-17
-3.46511e-17
-3.02274e-17
0
-3.51312e-17
-1.05127e-17
-1.91187e-17
-1.13724e-17
8.97905e-19
-9.66246e-18
1.3774e-19
4.99185e-17
-4.52254e-17
1.101e-19
-3.62085e-17
-9.33225e-17
8.87391e-17
2.11783e-19
4.41939e-17
-3.87213e-17
6.67889e-17
1.58619e-17
1.34522e-17
4.26099e-17
0
3.59452e-17
1.64949e-17
0
5.38381e-18
1.17447e-19
0
4.38739e-17
3.59636e-17
-7.39333e-17
9.0531e-17
-1.38298e-16
9.99299e-17
3.97417e-17
-4.83803e-18
-6.60612e-17
1.2729e-17
-1.26662e-17
-3.97173e-17
1.62158e-17
-7.86552e-18
-1.68567e-17
7.47009e-18
-4.60113e-18
1.70947e-18
-4.65062e-17
1.62059e-16
-1.20336e-16
6.79125e-17
0
0
-2.05082e-17
4.30969e-17
-3.26637e-17
6.20228e-17
0
0
2.72111e-17
-2.40501e-17
-1.76318e-17
5.52543e-18
-5.79599e-18
3.00684e-18
0
3.11088e-18
4.34861e-17
-3.63918e-17
-3.25439e-17
-5.47082e-17
-1.95012e-17
2.50267e-17
0
-3.09503e-17
-2.61658e-17
2.39066e-17
-2.01303e-17
1.6785e-17
0
6.66453e-18
1.36194e-17
0
0
0
-2.96417e-18
7.22067e-17
2.90685e-17
-9.77049e-17
2.79436e-17
2.45921e-17
0
0
2.94577e-17
-1.52752e-17
-2.31229e-17
1.94696e-17
-1.62324e-17
0
-4.60423e-18
4.13976e-18
0
-3.4028e-18
-1.1774e-18
-3.79561e-17
1.11394e-16
-1.372e-16
-5.71951e-17
2.96479e-17
-2.34294e-17
2.03238e-17
0
-1.48928e-17
1.28053e-17
0
0
6.64129e-18
-6.64894e-18
2.08914e-18
-2.60075e-18
5.00033e-18
5.05936e-19
8.69709e-19
1.91926e-17
-1.7602e-17
9.26485e-17
-6.00356e-17
-2.5367e-17
2.72835e-18
4.12775e-17
1.65473e-17
1.42502e-17
0
9.10433e-18
-8.48998e-18
6.98663e-18
-6.0861e-18
8.26867e-18
-1.4382e-17
-3.88999e-18
3.41086e-18
9.27875e-19
5.19258e-17
-5.23528e-17
0
5.163e-17
-2.68957e-17
-2.12299e-17
1.58254e-17
-4.98195e-17
0
-8.16849e-19
-1.02177e-17
-7.77428e-18
1.18537e-17
-8.1433e-19
-7.99152e-18
6.03254e-18
0
2.27573e-18
-9.00959e-19
8.72872e-17
-1.57697e-17
6.91475e-17
-5.42968e-17
3.17943e-17
4.85731e-18
-3.74812e-17
-1.37877e-17
2.52856e-17
-8.98461e-19
-1.62823e-17
1.41032e-17
-6.30691e-18
-8.76276e-18
0
0
0
-2.29817e-18
8.62995e-20
-7.85362e-17
7.67368e-17
4.65663e-20
1.23508e-17
1.09447e-17
-2.75808e-17
3.32662e-17
-2.83824e-17
2.49405e-17
-8.89786e-18
1.7087e-17
6.39114e-18
-2.77804e-18
1.5592e-19
-1.11142e-18
-1.96065e-18
0
0
0
0
0
3.92569e-17
-1.79774e-17
-6.11138e-17
0
0
-8.1962e-18
-1.38543e-17
1.19589e-17
0
-8.06039e-18
6.5025e-18
-2.25618e-17
2.61902e-17
-8.92477e-18
9.53429e-18
1.06395e-18
0
-1.5224e-17
1.54114e-17
0
-1.30356e-17
1.3265e-17
2.28304e-17
0
8.27446e-18
1.18262e-17
-5.18668e-17
0
-8.71332e-18
7.0513e-18
5.32505e-18
-4.08372e-18
6.08431e-18
0
-2.32496e-18
0
-7.82538e-18
-7.90891e-18
4.68924e-19
1.33937e-17
-3.68928e-17
0
-1.00452e-17
0
3.0595e-17
1.28974e-17
0
3.44953e-17
-3.71719e-17
3.50113e-18
-9.13815e-18
2.18023e-18
1.16004e-17
4.55912e-18
-3.60845e-18
0
1.62936e-17
-1.46896e-17
1.83023e-17
2.27372e-17
0
2.05515e-17
-1.96489e-17
-1.63089e-17
2.56606e-17
-3.8641e-17
-1.98512e-17
0
0
4.86337e-18
0
0
1.46381e-18
0
-7.17025e-17
5.49283e-17
0
7.0774e-19
-1.33762e-17
-7.55254e-19
1.23276e-17
9.38056e-18
-1.12733e-17
-3.09029e-17
5.10532e-17
-1.36888e-17
0
-7.16361e-18
0
0
0
-5.62914e-18
4.48873e-18
-2.01461e-17
1.91461e-17
5.23441e-17
-5.15461e-17
1.61269e-17
7.92462e-19
-1.25325e-17
1.11289e-17
1.95132e-17
1.54899e-17
-3.0693e-17
0
1.73486e-17
3.04173e-18
-8.19606e-18
-1.88327e-17
1.56322e-17
-2.69503e-18
5.0155e-18
-6.76657e-17
1.00131e-16
-9.96443e-17
1.79557e-17
1.56859e-17
-1.51043e-17
1.28813e-17
-1.06107e-17
0
-9.46425e-18
1.58895e-17
6.91439e-18
1.14251e-17
1.52538e-17
-2.30501e-17
-2.12924e-19
0
-1.98649e-18
6.59046e-19
-7.31682e-17
-2.22547e-17
-3.99774e-17
2.10566e-17
-3.57451e-17
3.18495e-17
-1.92031e-17
1.67998e-17
-9.82501e-19
-9.8748e-19
-1.63644e-17
9.48352e-18
-5.87379e-18
1.76467e-17
-1.89439e-17
2.61742e-18
2.0797e-18
0
-1.12693e-18
7.91109e-17
-2.39606e-17
0
0
-3.68491e-17
7.21972e-17
-1.71397e-17
-3.4291e-18
2.87267e-17
-7.26356e-19
0
0
-7.23442e-18
0
-1.62536e-17
4.00281e-17
-2.79813e-17
0
4.36572e-19
2.72407e-17
5.15095e-17
0
-2.25381e-17
-1.898e-17
-1.72879e-17
-1.77576e-17
7.58952e-18
-2.14543e-17
-1.20678e-17
0
0
9.17189e-18
0
0
-2.16093e-17
3.55149e-17
0
0
1.86898e-16
-2.11316e-17
-1.15163e-16
-6.44961e-17
8.73337e-17
2.85151e-17
1.72182e-17
0
-6.54764e-18
6.52911e-18
1.60404e-17
-5.22358e-18
-8.0484e-18
1.25423e-17
-1.33412e-17
-4.25798e-18
0
0
0
1.49669e-17
-1.19948e-16
1.17749e-16
-1.14744e-17
-9.05337e-17
1.42753e-16
-7.22274e-17
0
0
4.06512e-17
-3.35968e-17
0
-1.05077e-17
1.8201e-17
-2.12229e-18
5.3863e-18
1.66198e-18
1.631e-20
3.67252e-19
0
0
0
1.01099e-16
-6.77066e-17
7.31006e-17
-1.14417e-16
3.28748e-17
0
-1.22144e-17
1.98424e-17
-2.02801e-17
-4.07425e-18
-1.30994e-19
-2.84296e-18
-4.39243e-19
-2.26071e-18
-6.28554e-19
-3.46096e-19
1.25751e-16
-2.25358e-16
1.07351e-16
0
2.98942e-17
-4.06825e-17
4.16998e-17
-3.30939e-17
0
-1.66284e-17
2.3322e-17
0
0
-1.00514e-19
0
-2.8631e-18
1.96505e-18
3.78435e-19
5.49476e-19
1.21022e-16
0
-4.95058e-17
5.53189e-17
-3.54692e-17
7.78174e-17
-3.699e-17
-2.95406e-17
2.98491e-17
-3.06871e-18
0
0
2.00848e-18
-3.44823e-18
-2.41456e-18
4.59116e-18
-9.93868e-19
5.14587e-19
0
6.87421e-17
5.45873e-17
-1.40713e-18
-5.26543e-17
-5.40113e-18
-3.94421e-17
3.95719e-18
3.34789e-17
-1.75105e-18
3.12633e-18
0
0
-2.05755e-18
0
2.4311e-18
-2.60069e-18
0
3.33547e-19
-9.27757e-20
-3.64932e-17
-2.73617e-17
2.56122e-17
-2.97674e-18
-1.34571e-18
3.67408e-18
0
-9.86441e-19
1.49664e-17
-1.2604e-17
0
4.35339e-18
-8.38601e-19
-3.86018e-18
-3.54266e-19
-2.76812e-19
0
-2.60459e-19
0
1.50052e-17
-2.86436e-17
-4.92394e-19
1.24679e-17
1.16133e-17
-1.15487e-17
-8.32964e-18
9.43425e-18
-3.28967e-18
2.56955e-18
-2.53479e-18
2.61297e-18
0
6.75535e-21
-2.60436e-19
9.3836e-19
-3.21602e-21
0
0
1.50057e-17
-1.49495e-17
-1.24027e-17
1.09798e-17
2.05241e-17
-2.06452e-17
-4.16494e-18
4.1747e-18
-3.31739e-18
3.35226e-18
-2.53486e-18
4.7948e-18
-1.34471e-18
-9.75211e-19
-3.01e-19
9.94313e-20
2.38445e-19
6.31403e-20
-4.73607e-20
0
-3.57666e-18
2.16283e-17
-2.34248e-17
2.051e-17
-1.81663e-17
0
1.48689e-17
-1.32892e-17
0
5.05992e-18
-6.41378e-18
-3.68348e-18
3.86052e-18
7.16434e-19
0
0
-2.60485e-19
9.47244e-20
5.97552e-17
-1.10502e-16
1.13765e-16
-1.0084e-16
3.98111e-17
-3.45459e-17
3.27505e-17
3.96579e-18
-1.49087e-17
1.333e-17
0
-9.88858e-18
8.99559e-18
-1.73113e-18
-7.01747e-19
1.11738e-18
8.23263e-19
2.52881e-19
-9.15253e-20
1.3653e-16
0
-5.59675e-17
4.34715e-17
5.33896e-18
-4.17307e-17
7.44438e-17
-6.67683e-17
2.63254e-17
-1.14836e-17
1.17545e-17
2.34574e-18
4.10014e-18
1.68614e-18
-1.42261e-18
-1.78746e-19
-1.7881e-18
0
1.85976e-19
1.1045e-16
-1.24324e-16
0
1.16936e-17
5.13692e-17
-5.04318e-17
8.77693e-18
7.87618e-18
3.45159e-18
6.20686e-18
0
0
-7.14076e-18
1.35232e-17
-4.96503e-18
-1.7951e-18
1.96534e-18
1.58401e-19
-3.5501e-19
8.85098e-18
1.09203e-16
-1.2853e-17
-8.9373e-17
7.84153e-17
9.55062e-18
-8.58983e-18
-7.69268e-18
2.59269e-17
-3.21675e-17
1.98469e-17
-2.02844e-17
3.27942e-18
-4.05783e-18
7.6325e-18
-5.07092e-18
0
0
3.78703e-19
0
2.75602e-17
-8.44472e-17
9.64003e-17
-8.01544e-17
7.99635e-17
0
2.89933e-17
-2.91262e-17
-2.25581e-17
3.36188e-17
0
1.44222e-17
-1.8212e-17
-2.70831e-18
0
-3.14357e-19
-6.52161e-19
3.32615e-21
-2.58969e-16
1.24364e-16
0
-8.73155e-17
8.73068e-17
5.52451e-17
-3.63582e-17
1.54809e-17
0
-7.21532e-19
5.66269e-18
-5.21584e-18
-8.03673e-18
1.25219e-17
-1.33149e-17
0
3.04895e-18
-7.30473e-19
-4.0291e-19
1.60086e-16
-1.58179e-16
0
2.25902e-17
2.0927e-17
-1.93505e-17
0
-1.62242e-17
-1.44591e-17
0
-4.28445e-19
0
9.17469e-18
0
0
4.47069e-18
1.69686e-17
-2.18499e-17
0
2.70398e-20
2.3972e-17
-2.25189e-17
1.91191e-17
-9.68258e-17
3.74756e-17
0
3.43129e-18
9.77085e-18
0
-1.0454e-17
3.17833e-17
-3.33901e-17
5.90735e-18
0
-5.15958e-19
0
0
0
2.45787e-20
0
2.08131e-17
0
-3.398e-17
3.45202e-17
0
1.32548e-17
-1.09797e-17
4.05959e-17
-1.97452e-17
7.52884e-18
-1.2472e-17
1.23091e-17
-1.89634e-17
-3.07933e-18
0
-2.26753e-18
0
6.26657e-17
-1.05861e-16
0
-1.8006e-17
1.65592e-17
0
0
-2.43743e-17
0
-9.4702e-18
-1.59e-17
-6.9197e-18
1.14348e-17
0
6.75639e-18
0
0
5.03008e-18
-5.6609e-18
0
9.29283e-17
-7.4541e-17
1.66695e-17
-1.53339e-17
-6.58368e-18
1.92277e-17
2.23669e-17
-2.85773e-17
9.27046e-18
3.58148e-19
-9.62394e-18
3.98783e-17
-1.24659e-17
-3.07749e-17
1.08715e-17
-3.01898e-18
1.78924e-18
-5.84629e-19
-1.4749e-16
5.49186e-17
0
0
6.68741e-18
-6.80034e-18
5.31616e-18
3.88715e-18
2.61164e-17
1.40402e-17
-1.41951e-17
-3.02932e-19
-8.76694e-18
7.16878e-18
0
3.9458e-18
2.76712e-18
1.5859e-18
5.28422e-19
0
4.8313e-17
-4.59291e-17
1.49107e-17
1.6173e-17
-3.1556e-18
-1.07095e-17
-9.49369e-18
-3.29199e-17
1.39655e-17
-9.40161e-18
1.223e-17
8.19818e-18
-1.10148e-17
1.16916e-17
8.08204e-18
-1.02855e-17
-1.46482e-18
0
-8.29992e-18
-3.81914e-17
1.39935e-17
1.3397e-17
-4.79255e-17
3.4845e-17
1.86004e-17
-1.90124e-17
1.54766e-17
-1.3254e-17
0
0
-1.29923e-17
2.37247e-17
-1.07172e-17
1.07537e-17
-1.17045e-17
2.02862e-18
-3.61115e-18
1.57079e-17
1.4951e-17
-1.39615e-17
1.16485e-17
-1.31365e-17
-2.14482e-17
0
0
0
0
0
0
6.76145e-18
-1.87689e-17
1.98502e-17
-6.9017e-18
8.48835e-18
4.14278e-18
-3.52926e-18
3.23062e-17
-5.73272e-17
7.18775e-17
-3.58829e-17
4.93479e-17
-3.90314e-17
7.41983e-17
-4.30937e-17
-2.53515e-17
2.59335e-17
0
8.05508e-18
-6.60559e-18
1.73633e-17
-5.374e-18
-7.53312e-18
-1.69464e-17
1.23452e-18
3.02802e-18
5.01446e-17
1.49176e-17
0
-2.46321e-17
-2.05774e-17
4.80551e-17
5.86811e-18
-2.12348e-17
1.29773e-17
-9.93288e-18
0
-6.37651e-18
0
-5.72327e-18
4.76492e-18
-4.44438e-18
-1.49099e-18
1.08442e-18
0
7.02217e-17
-1.57695e-17
6.91192e-17
-5.42771e-17
-1.14834e-17
4.78658e-17
-2.86795e-17
1.21462e-18
1.02413e-18
-9.81031e-18
9.55234e-18
0
0
6.83515e-18
-2.67642e-18
1.81317e-18
5.38295e-18
-1.86963e-18
0
1.27307e-20
0
-1.51367e-17
9.24263e-17
-6.3098e-17
-7.15922e-17
3.94746e-17
-4.48693e-17
4.22562e-17
2.23458e-17
-1.78774e-17
7.54173e-18
-6.88799e-18
1.07914e-18
1.23826e-17
6.17736e-19
-5.029e-18
4.97284e-18
-1.00489e-18
1.72379e-16
-5.53212e-17
2.90131e-17
-8.86603e-17
2.53668e-17
-4.18831e-17
2.2075e-17
0
0
-8.36644e-19
-1.09948e-18
-3.21952e-19
0
-1.05189e-17
-8.26871e-18
6.23344e-18
-4.60535e-19
7.35169e-19
1.94678e-18
0
-5.57623e-17
9.77542e-17
2.40928e-17
-8.29662e-17
2.34293e-17
-3.81092e-17
5.00691e-18
3.23731e-17
0
0
6.21801e-19
8.10789e-18
0
-7.71125e-18
-3.64464e-18
5.33431e-19
-1.98963e-18
-2.18952e-18
0
-3.59694e-17
6.19809e-18
6.61307e-17
5.28517e-17
-9.83916e-17
4.55918e-17
-3.44869e-17
1.8164e-17
-2.71935e-17
0
0
0
-1.33312e-17
4.02901e-18
-4.62679e-18
0
-2.92058e-19
1.47457e-18
-1.30394e-16
1.24434e-16
1.39185e-16
-1.69458e-16
8.36109e-17
-7.94478e-17
0
3.60484e-17
-5.01108e-17
3.00608e-17
-2.452e-17
2.07855e-17
1.74491e-17
1.37874e-17
1.11142e-17
0
0
0
0
1.42527e-16
-8.43888e-17
0
0
-3.00666e-17
7.66336e-17
-4.93325e-17
-3.78678e-17
3.74409e-17
2.97447e-17
5.15325e-17
-2.1567e-17
9.10919e-18
7.19744e-18
5.497e-18
4.37903e-18
7.18926e-18
-3.56233e-19
3.62856e-19
-1.45247e-16
1.3518e-16
7.532e-17
-3.8722e-17
9.05618e-17
-5.84189e-17
-4.85341e-17
-4.24718e-17
0
-6.16539e-17
2.40445e-18
2.37956e-17
-1.94987e-17
-1.62158e-17
-5.99588e-18
-6.5119e-18
-5.17798e-18
0
0
-4.9962e-17
0
4.04551e-17
-9.01096e-20
0
0
5.00645e-17
4.38249e-17
0
3.30802e-17
0
-3.61626e-17
-1.01477e-17
1.82578e-17
0
1.18269e-17
-1.68286e-18
1.71674e-18
0
1.05441e-16
0
7.88083e-17
-1.48156e-16
1.34992e-16
1.14013e-16
-2.82955e-18
0
2.65526e-18
3.72821e-17
0
-3.93081e-17
4.51809e-17
-4.03207e-17
-8.83519e-18
-9.55589e-18
-2.74755e-18
-4.79059e-19
-1.62506e-18
-9.98323e-17
1.44294e-16
-4.20793e-17
-1.12988e-16
-6.72472e-17
-5.99105e-17
-1.06432e-16
-4.46252e-17
2.79972e-18
1.72632e-17
-1.72308e-17
5.65428e-17
-2.49505e-17
5.10751e-17
-9.57315e-18
0
1.05121e-17
-6.08409e-18
1.65958e-18
2.16845e-16
-3.89787e-18
-1.73033e-16
1.48903e-16
-1.36425e-16
1.22305e-16
-3.06701e-18
-4.90035e-17
4.37985e-17
1.81115e-17
-2.08837e-18
-4.54878e-17
1.3518e-17
1.33084e-17
-4.20589e-18
4.25386e-18
-1.0888e-17
-8.13638e-19
-2.37249e-18
1.06452e-16
4.63897e-17
8.35173e-17
-7.53111e-17
-6.46921e-17
2.70601e-18
-5.2376e-17
1.27512e-16
3.42257e-18
6.14361e-17
3.63919e-17
-3.24416e-17
0
-2.34602e-17
0
0
1.41767e-17
6.35375e-18
2.78089e-18
1.00834e-16
0
8.25388e-17
7.4825e-17
-6.80702e-17
6.12857e-17
0
-5.00963e-17
-7.01532e-17
-6.25148e-17
-3.6714e-17
3.28084e-17
0
0
0
0
-1.32791e-17
-9.40314e-18
0
-1.97597e-16
0
-3.25883e-18
-2.88343e-18
1.03097e-16
-6.01048e-17
-2.79536e-17
-2.80201e-17
7.04355e-17
0
1.87505e-17
-2.02701e-18
1.62695e-17
0
0
2.11484e-17
-1.56516e-18
1.12841e-17
-4.10957e-18
1.39503e-16
4.13715e-17
-4.09445e-17
-3.71603e-17
-1.32724e-16
9.28714e-17
1.14057e-16
-2.28501e-18
-4.75922e-17
4.6332e-17
9.85025e-18
-4.94155e-17
-4.10903e-17
-2.39888e-17
-2.52584e-17
-2.4362e-17
1.95033e-17
-9.26417e-19
4.20906e-18
-4.31913e-17
1.99966e-17
-9.69585e-17
1.71476e-17
-1.70852e-17
0
-5.635e-17
-2.97166e-18
-5.20653e-17
3.39395e-18
5.08323e-17
3.82752e-17
-9.2278e-18
4.69797e-18
2.40673e-17
0
-4.01372e-17
-1.44541e-17
-3.01822e-19
8.6872e-17
-2.42993e-18
1.5228e-16
-7.34605e-17
1.23741e-19
2.00102e-18
6.04895e-17
-3.72784e-18
5.04948e-17
-4.73071e-17
-4.4389e-17
0
4.2826e-17
3.47176e-17
4.71019e-19
-6.82876e-19
2.15041e-17
1.46932e-17
0
-6.19326e-17
0
-1.59438e-17
6.97893e-17
8.39314e-19
1.62458e-17
-5.84924e-17
5.55489e-17
5.7615e-17
5.50932e-17
5.2769e-17
0
-4.16046e-17
0
2.14676e-18
-2.2296e-18
0
-2.09041e-19
1.02171e-17
4.23616e-17
1.81857e-18
-3.51046e-17
1.07471e-16
-3.47358e-17
0
0
-6.35021e-17
-5.58231e-17
-5.33731e-17
-9.5625e-17
-1.33352e-17
0
0
0
-4.31375e-18
4.56502e-18
2.89573e-17
-1.03718e-17
1.86582e-18
0
-7.41155e-17
-6.88761e-17
7.14722e-17
-7.08399e-17
-1.0191e-16
1.26303e-16
3.43865e-17
0
5.58593e-17
6.21975e-17
-1.34295e-17
7.25623e-17
-1.18554e-17
1.23386e-17
4.76602e-17
-2.75165e-17
0
-8.111e-17
0
-7.81283e-17
7.67509e-17
0
1.40495e-16
6.63558e-17
-1.38201e-16
1.09418e-16
-7.7949e-19
-3.33049e-17
-6.02199e-17
0
8.16298e-17
-1.37268e-16
1.47171e-16
-1.87514e-16
0
0
8.06677e-17
-4.30438e-19
-1.06153e-18
-1.54021e-16
1.55027e-16
-7.52206e-17
7.4914e-17
7.38155e-17
-6.6129e-17
0
0
1.22274e-16
-1.2438e-16
-1.33509e-16
1.32186e-16
-1.2865e-16
1.39049e-16
-2.17718e-16
0
)
;

boundaryField
{
    up
    {
        type            calculated;
        value           nonuniform List<scalar> 
84
(
0
0
0
0
-7.48219e-18
1.35421e-17
-5.674e-18
4.20906e-18
-3.66642e-18
0
-3.12256e-18
2.98078e-18
-2.20417e-18
1.3774e-19
1.17447e-19
1.70947e-18
0
0
-1.1774e-18
8.69709e-19
9.27875e-19
-9.00959e-19
8.62995e-20
0
3.76042e-19
1.5848e-19
-3.46468e-18
0
4.48873e-18
5.18982e-18
6.59046e-19
-1.12693e-18
4.36572e-19
0
-2.13885e-19
3.8224e-19
-3.46747e-19
5.49364e-19
0
-9.27678e-20
0
0
-4.74024e-20
9.47244e-20
-9.15253e-20
1.85976e-19
-3.5501e-19
3.78703e-19
3.32615e-21
-4.0291e-19
0
0
0
-5.6609e-18
-7.59036e-19
5.28422e-19
0
-3.61115e-18
-3.52926e-18
2.65332e-18
0
0
-1.00489e-18
1.94678e-18
-2.18952e-18
1.47457e-18
0
3.62856e-19
0
0
-1.62506e-18
1.65958e-18
-2.37249e-18
2.78089e-18
0
-4.10957e-18
4.20906e-18
-3.01822e-19
0
1.02171e-17
-1.03718e-17
0
0
0
)
;
    }
    low
    {
        type            calculated;
        value           nonuniform List<scalar> 
84
(
-1.61467e-16
1.61566e-16
-7.95016e-17
1.24722e-16
2.17917e-17
-5.66232e-18
4.73225e-17
4.11501e-18
0
2.02173e-16
-5.12518e-17
4.41233e-17
-4.79418e-17
-3.05404e-16
4.99185e-17
0
-4.65062e-17
3.11088e-18
-2.96417e-18
-3.79561e-17
1.91926e-17
5.19258e-17
8.70229e-17
-7.85362e-17
0
-1.5224e-17
-7.82538e-18
0
-7.17025e-17
-2.01461e-17
-6.748e-17
-7.30135e-17
7.89969e-17
2.72407e-17
1.86882e-16
1.49669e-17
0
1.25751e-16
1.21236e-16
6.88633e-17
-3.65594e-17
1.50052e-17
1.50057e-17
0
5.97552e-17
1.36744e-16
1.1045e-16
8.98008e-18
0
-2.58953e-16
1.60086e-16
2.70398e-20
2.45787e-20
6.26657e-17
0
-1.47215e-16
0
-8.29992e-18
1.57079e-17
3.21479e-17
4.9864e-17
6.99574e-17
1.27307e-20
1.72152e-16
0
0
-1.30394e-16
1.42399e-16
-1.45153e-16
-4.9962e-17
1.05422e-16
-9.98323e-17
2.17096e-16
1.06639e-16
1.00834e-16
-1.97597e-16
1.39285e-16
-4.29625e-17
8.6872e-17
-6.18408e-17
4.23616e-17
2.03119e-18
-8.111e-17
8.07135e-17
)
;
    }
    left
    {
        type            calculated;
        value           nonuniform List<scalar> 
19
(
-1.61375e-16
-7.87902e-17
7.9684e-17
1.44141e-18
-1.52664e-16
0
-7.17657e-17
-7.07565e-17
-4.49612e-18
-3.70447e-17
-3.68242e-19
-3.67757e-17
1.62968e-16
-3.6291e-17
1.69737e-16
1.46342e-16
8.70098e-17
1.27534e-16
0
)
;
    }
    right
    {
        type            calculated;
        value           nonuniform List<scalar> 
19
(
8.06677e-17
-3.79231e-19
-1.06153e-18
-1.54019e-16
1.55061e-16
-7.52206e-17
7.4914e-17
7.38155e-17
-6.59071e-17
0
0
1.23444e-16
-1.2603e-16
-1.33509e-16
1.32186e-16
-1.2865e-16
1.39049e-16
-2.35456e-16
0
)
;
    }
    frontAndBackPlanes
    {
        type            empty;
    }
}


// ************************************************************************* //
