/*--------------------------------*- C++ -*----------------------------------*\
  =========                 |
  \\      /  F ield         | OpenFOAM: The Open Source CFD Toolbox
   \\    /   O peration     | Website:  https://openfoam.org
    \\  /    A nd           | Version:  7
     \\/     M anipulation  |
\*---------------------------------------------------------------------------*/
FoamFile
{
    version     2.0;
    format      ascii;
    class       volScalarField;
    location    "0.08";
    object      gradTz;
}
// * * * * * * * * * * * * * * * * * * * * * * * * * * * * * * * * * * * * * //

dimensions      [0 -1 0 1 0 0 0];

internalField   nonuniform List<scalar> 
1596
(
-1.6131e-16
-7.6369e-17
7.98716e-17
3.78902e-18
-1.46431e-16
0
-6.50112e-17
-6.41735e-17
-7.22922e-18
-3.53735e-17
-1.39328e-19
-3.5691e-17
1.61318e-16
-3.59097e-17
1.66356e-16
1.44636e-16
8.6337e-17
1.09966e-16
0
1.58819e-16
0
2.09694e-16
-2.93759e-18
-5.88602e-17
5.79794e-17
1.273e-16
7.02975e-18
5.88495e-17
-2.89489e-17
5.82066e-17
-3.886e-19
-8.13032e-17
-5.15321e-17
-1.34167e-16
-1.32056e-16
-1.20928e-16
6.94699e-17
0
-7.47308e-17
0
-1.30161e-16
4.5733e-18
1.07957e-16
-3.5675e-17
5.22255e-18
-6.75832e-19
-4.81014e-19
-3.71253e-19
1.74587e-17
0
4.20966e-17
1.16903e-16
-1.16896e-17
9.96384e-18
2.3109e-17
3.81817e-17
0
1.2153e-16
-3.21265e-17
3.20092e-17
0
-2.92026e-17
-3.14921e-17
4.58617e-17
-3.43803e-17
0
0
-1.95833e-17
9.18624e-18
0
-3.31606e-17
-3.96293e-17
2.87436e-17
-3.32323e-17
-1.6846e-18
0
2.16999e-17
5.05905e-17
-3.97487e-17
0
-9.88703e-18
-3.11208e-17
0
4.30043e-17
-3.98061e-18
-3.6284e-18
-8.60121e-18
2.04793e-17
2.72766e-17
3.32329e-18
4.99039e-18
-3.1037e-17
1.52125e-18
1.46346e-17
-6.74175e-18
-5.63511e-18
-6.85879e-17
5.87894e-17
-4.49428e-17
-2.09448e-19
-3.16253e-17
8.3224e-19
-8.35002e-19
-2.04833e-17
0
-6.70169e-18
-2.46403e-17
-2.44743e-17
1.76827e-17
2.36444e-17
-3.07244e-19
-1.42268e-17
-1.48437e-17
1.17033e-17
4.70936e-17
-6.95329e-17
6.84387e-17
3.37808e-17
0
2.48346e-17
1.24491e-17
-5.69253e-18
2.55199e-17
-4.4177e-18
-2.06763e-17
8.25334e-20
-1.08677e-17
-1.77294e-17
-1.22595e-17
1.1555e-17
1.43521e-17
-2.00396e-19
-4.67573e-18
8.53964e-18
1.12702e-16
-1.15818e-16
0
0
-2.75304e-17
0
0
0
1.18257e-17
0
0
1.03412e-17
1.32802e-19
5.16035e-18
-1.03419e-17
0
5.49969e-18
2.49456e-18
0
-6.86501e-17
1.27809e-16
0
0
2.83525e-17
0
-7.37705e-18
7.36959e-18
-1.20368e-17
4.34786e-18
-4.37966e-18
0
6.17699e-18
8.59106e-18
0
-4.89264e-18
-5.60503e-18
-2.23013e-18
1.93e-16
-8.65576e-17
0
-4.26234e-17
4.21464e-17
0
2.03953e-17
0
0
0
3.34289e-18
-3.35891e-18
0
-4.90599e-18
-1.22787e-18
0
1.57259e-18
2.46395e-18
0
-4.90748e-17
0
0
4.34008e-17
-7.53664e-17
8.19964e-18
3.41577e-18
-6.35214e-18
1.67612e-18
5.2534e-19
-3.45904e-18
-4.31904e-18
0
2.97664e-18
-7.41947e-19
7.53082e-19
2.85906e-18
-2.02537e-18
-8.12143e-19
3.33903e-17
-7.87903e-18
3.2548e-17
9.49795e-17
-1.05596e-17
-3.27657e-17
0
0
0
7.49116e-18
2.25525e-18
7.30594e-18
-1.7117e-18
-2.92339e-18
-1.3121e-18
-9.19061e-19
4.3263e-19
-1.03516e-18
7.52144e-19
-4.16443e-17
4.12029e-17
-7.18656e-17
-9.42549e-17
8.14942e-17
2.40587e-17
-4.07926e-17
2.88034e-17
-2.00237e-17
5.32075e-18
2.80876e-18
-2.10276e-18
7.7666e-19
-8.04798e-19
2.5641e-18
0
-2.12907e-19
1.76618e-18
-2.73324e-19
-2.92872e-16
1.27587e-16
6.23747e-20
-1.89397e-17
5.73297e-18
2.3538e-17
-4.25765e-17
-1.34738e-17
9.1581e-18
-6.10043e-18
-4.04989e-18
0
-3.09328e-18
-8.25313e-19
-1.13891e-18
-6.3316e-19
4.67036e-20
-8.14707e-19
9.83143e-20
4.78303e-17
-3.9113e-17
-5.6323e-20
-2.41255e-17
-4.96112e-17
4.42984e-17
2.52056e-19
1.31302e-17
-8.91662e-18
1.16222e-17
2.36042e-18
1.56813e-18
3.29564e-18
0
1.90063e-18
8.16381e-19
0
3.56523e-19
5.85372e-20
0
3.79441e-17
2.36333e-17
-5.27643e-17
4.77919e-17
-6.44343e-17
3.95457e-17
1.03225e-17
-3.36112e-18
-1.22669e-17
1.41933e-18
-1.41232e-18
-2.81771e-18
8.3725e-19
-4.19791e-19
-7.15265e-19
2.38919e-19
-1.50536e-19
9.48921e-20
-4.4383e-17
1.31195e-16
-9.96303e-17
4.37893e-17
0
0
-5.94823e-18
1.39713e-17
-6.26069e-18
1.09068e-17
0
0
1.76398e-18
-1.29281e-18
-6.21717e-19
1.92377e-19
-1.91391e-19
1.05541e-19
0
7.12209e-18
4.15857e-17
-2.73397e-17
-2.13967e-17
-2.66815e-17
-3.51938e-18
1.07683e-17
0
-5.63928e-18
-3.16355e-18
2.61006e-18
-1.59166e-18
9.57803e-19
0
2.64211e-19
3.58043e-19
0
0
0
-6.99967e-18
5.28193e-17
1.34217e-17
-6.51739e-17
1.42514e-17
1.05256e-17
0
0
5.03049e-18
-2.76017e-18
-2.52449e-18
1.53943e-18
-9.26268e-19
0
-1.18903e-19
7.89577e-20
0
-5.05652e-20
-1.78153e-20
-3.19521e-17
9.41103e-17
-1.03907e-16
-3.19774e-17
1.78845e-17
-9.17394e-18
6.18386e-18
0
-2.56205e-18
1.76715e-18
0
0
2.78452e-19
-2.78773e-19
4.6282e-20
-7.92608e-20
6.8395e-20
1.60467e-20
1.36925e-20
1.82197e-17
-1.46836e-17
6.30215e-17
-3.95451e-17
-1.20093e-17
2.75031e-18
1.36695e-17
3.51779e-18
2.45149e-18
0
6.69198e-19
-6.03214e-19
3.52237e-19
-2.22033e-19
1.61826e-19
-2.26099e-19
-5.14712e-20
4.04801e-20
8.64444e-21
4.5305e-17
-4.76848e-17
0
2.7124e-17
-1.53832e-17
-7.88022e-18
3.0121e-18
-1.15485e-17
0
-1.60811e-19
-9.31291e-19
-4.35464e-19
4.19898e-19
-6.33225e-20
-1.56402e-19
8.68855e-20
0
1.77074e-20
-8.39367e-21
8.64098e-17
-1.30379e-17
4.47579e-17
-3.44814e-17
1.2131e-17
-2.36143e-18
-1.12575e-17
-2.20757e-18
3.51039e-18
-2.56823e-19
-9.3123e-19
6.66789e-19
-2.38439e-19
-1.85647e-19
0
0
0
-1.78016e-20
5.89338e-22
-7.07973e-17
6.73076e-17
3.05754e-21
6.87261e-18
4.80534e-18
-8.28756e-18
8.21232e-18
-5.02763e-18
3.25748e-18
-6.10037e-19
1.09591e-18
2.29502e-19
-7.39044e-20
4.65726e-21
-7.94528e-21
-1.71191e-20
0
0
0
0
0
2.37587e-17
-1.67374e-17
-2.9669e-17
0
0
-1.37926e-18
-1.59794e-18
9.49592e-19
0
-2.89444e-19
1.58243e-19
-3.38044e-19
3.57748e-19
-7.17634e-20
7.60017e-20
6.3993e-21
0
-1.36278e-17
1.37955e-17
0
-7.48554e-18
7.13316e-18
8.91168e-18
0
1.39243e-18
8.82722e-19
-4.79377e-18
0
-3.38619e-19
1.86189e-19
9.00963e-20
-4.91282e-20
5.63203e-20
0
-1.44052e-20
0
-7.03186e-18
-6.18575e-18
3.6483e-19
7.6912e-18
-1.677e-17
0
-2.65254e-18
0
3.95398e-18
1.09246e-18
0
1.32007e-18
-1.08973e-18
1.56448e-19
-7.12598e-20
6.50257e-20
1.04841e-19
2.90714e-20
-2.30275e-20
0
1.37241e-17
-9.69577e-18
1.16602e-17
1.05572e-17
0
5.16629e-18
-4.39864e-18
-2.1973e-18
2.17455e-18
-3.15171e-18
-9.50435e-19
0
0
7.05622e-20
0
0
1.11691e-20
0
-6.48005e-17
5.05622e-17
0
1.37585e-18
-5.69549e-18
-2.58779e-19
3.81618e-18
1.55701e-18
-2.66312e-18
-3.72256e-18
4.04658e-18
-1.14908e-18
0
-2.33157e-19
0
0
0
-4.36355e-20
3.50092e-20
-1.92665e-17
1.62982e-17
3.69699e-17
-3.41892e-17
9.01202e-18
9.28842e-19
-3.85206e-18
2.57854e-18
3.34132e-18
1.82432e-18
-3.49771e-18
0
7.8186e-19
-1.29878e-19
-2.65884e-19
-3.47997e-19
2.6348e-19
-2.10943e-20
4.85559e-20
-6.86168e-17
8.19584e-17
-7.92632e-17
1.17279e-17
8.08451e-18
-7.04331e-18
5.22918e-18
-3.0447e-18
0
-1.66567e-18
1.7447e-18
7.20047e-19
9.1585e-19
6.94442e-19
-9.61794e-19
-6.81459e-20
0
-2.47835e-20
8.41911e-21
-7.41287e-17
-1.91841e-17
-2.86307e-17
1.6303e-17
-2.01252e-17
1.45388e-17
-7.92218e-18
5.07925e-18
-7.3262e-19
-6.57289e-19
-2.19628e-18
1.49903e-18
-2.98459e-19
1.14128e-18
-1.22518e-18
3.34766e-20
9.0561e-20
0
-1.70396e-20
8.01494e-17
-2.10106e-17
0
0
-2.06839e-17
3.80713e-17
-7.89643e-18
-1.07628e-18
7.62914e-18
-2.78254e-19
0
0
-7.69249e-19
0
-1.21527e-18
2.57902e-18
-1.66929e-18
0
8.66438e-21
2.62386e-17
4.53651e-17
0
-1.61229e-17
-1.03979e-17
-7.0891e-18
-8.37292e-18
2.68364e-18
-6.78875e-18
-2.82081e-18
0
0
1.58204e-18
0
0
-1.92753e-18
3.28537e-18
0
0
1.80401e-16
-2.69823e-17
-9.73907e-17
-4.35982e-17
5.9935e-17
1.58926e-17
8.11859e-18
0
-2.19529e-18
1.73556e-18
4.28174e-18
-1.27305e-18
-1.38825e-18
1.98504e-18
-2.11147e-18
-4.84356e-19
0
0
0
1.44426e-17
-1.03269e-16
1.00354e-16
-8.54382e-18
-5.71506e-17
8.4622e-17
-3.99714e-17
0
0
1.32093e-17
-1.02712e-17
0
-2.15962e-18
3.92039e-18
-3.1216e-19
9.84491e-19
2.72145e-19
5.05056e-21
5.27935e-20
0
0
0
7.25515e-17
-4.91771e-17
4.17346e-17
-6.294e-17
1.66114e-17
0
-4.45101e-18
6.05058e-18
-6.18405e-18
-9.81849e-19
6.88271e-20
-5.61265e-19
-5.82982e-20
-4.37915e-19
-1.27993e-19
-6.62913e-20
1.17917e-16
-2.03476e-16
9.31088e-17
0
1.92804e-17
-2.66304e-17
2.20231e-17
-1.7339e-17
0
-6.08708e-18
8.60511e-18
0
0
6.46553e-20
0
-6.65535e-19
4.44101e-19
5.70419e-20
1.09083e-19
1.21266e-16
0
-3.97944e-17
4.42751e-17
-2.34546e-17
4.94777e-17
-2.22497e-17
-1.4303e-17
1.44524e-17
-1.28036e-18
0
0
6.36172e-19
-9.40558e-19
-6.36547e-19
1.17852e-18
-2.51861e-19
1.1764e-19
0
6.86275e-17
4.78374e-17
-4.64426e-18
-4.25069e-17
-3.7975e-18
-2.42534e-17
4.40614e-18
1.85213e-17
-8.34289e-19
1.3044e-18
0
0
-6.51715e-19
0
6.92815e-19
-7.41147e-19
0
9.10533e-20
-2.46961e-20
-3.63781e-17
-2.40534e-17
2.25773e-17
-2.31301e-18
-9.62065e-19
2.37957e-18
0
-5.27614e-19
6.92046e-18
-5.8206e-18
0
1.54052e-18
-3.8243e-19
-1.2762e-18
-1.09264e-19
-8.25057e-20
0
-7.1666e-20
0
1.41381e-17
-2.61396e-17
4.28163e-19
1.01693e-17
8.00668e-18
-7.8807e-18
-4.71833e-18
5.3118e-18
-1.53251e-18
1.2179e-18
-9.87078e-19
1.01752e-18
0
2.20845e-21
-7.99265e-20
2.86056e-19
-9.50755e-22
0
0
1.41386e-17
-1.40857e-17
-1.01146e-17
9.00801e-18
1.40815e-17
-1.41647e-17
-2.3593e-18
2.36573e-18
-1.54605e-18
1.56201e-18
-9.87154e-19
1.80434e-18
-5.06041e-19
-3.2926e-19
-9.26114e-20
3.25387e-20
7.14594e-20
1.84795e-20
-1.38195e-20
0
-3.25072e-18
1.75052e-17
-1.91144e-17
1.40086e-17
-1.24988e-17
0
7.56108e-18
-6.8145e-18
0
1.93869e-18
-2.42912e-18
-1.21801e-18
1.27655e-18
2.13006e-19
0
0
-7.1701e-20
2.58656e-20
5.61872e-17
-1.00526e-16
9.60488e-17
-7.83966e-17
2.97797e-17
-2.11367e-17
2.02446e-17
2.04746e-18
-6.75243e-18
5.99556e-18
0
-3.35601e-18
3.06624e-18
-5.11569e-19
-2.0864e-19
2.99333e-19
2.14113e-19
6.9608e-20
-2.49921e-20
1.36285e-16
0
-4.52212e-17
3.52335e-17
3.7541e-18
-2.52764e-17
4.264e-17
-3.43284e-17
1.28817e-17
-4.48093e-18
4.58663e-18
8.06948e-19
1.21031e-18
4.98274e-19
-3.64108e-19
-6.08215e-20
-4.58574e-19
0
4.17333e-20
1.031e-16
-1.16074e-16
0
8.92705e-18
3.39187e-17
-3.25904e-17
4.77485e-18
3.79755e-18
1.54181e-18
2.3394e-18
0
0
-2.05098e-18
3.56877e-18
-1.24961e-18
-4.06012e-19
4.44516e-19
3.37552e-20
-7.76346e-20
1.66796e-17
1.02207e-16
-1.05509e-17
-6.3828e-17
5.63466e-17
5.83448e-18
-4.67306e-18
-3.70907e-18
1.01596e-17
-1.25148e-17
6.0553e-18
-6.1888e-18
7.07051e-19
-1.09126e-18
1.55505e-18
-1.05162e-18
0
0
5.88823e-20
0
2.46162e-17
-6.53815e-17
7.52187e-17
-5.02184e-17
5.00988e-17
0
1.22647e-17
-1.23209e-17
-7.19525e-18
1.02847e-17
0
3.10549e-18
-3.92618e-18
-5.35185e-19
0
-4.77208e-20
-7.35619e-20
-1.34011e-20
-2.49851e-16
1.14699e-16
0
-5.99369e-17
5.99309e-17
2.95997e-17
-1.92376e-17
6.22086e-18
0
-2.06259e-19
1.00465e-18
-1.27248e-18
-1.38797e-18
1.98459e-18
-2.11028e-18
0
3.09287e-19
-2.64182e-20
-4.68613e-20
1.49875e-16
-1.43802e-16
0
1.57021e-17
1.26406e-17
-1.06136e-17
0
-6.51951e-18
-4.35483e-18
0
-5.30943e-19
0
1.5845e-18
0
0
3.75408e-19
1.2958e-18
-1.74718e-18
0
-2.50399e-20
2.10221e-17
-1.74013e-17
1.10429e-17
-5.78049e-17
2.05005e-17
0
1.07779e-18
2.89738e-18
0
-2.12466e-18
4.30334e-18
-4.52091e-18
5.06926e-19
0
-1.40525e-19
0
0
0
-1.60844e-20
0
1.60831e-17
0
-1.75867e-17
1.78663e-17
0
3.85301e-18
-2.40656e-18
7.55373e-18
-3.39325e-18
7.85203e-19
-1.00156e-18
6.85545e-19
-1.22932e-18
-1.71583e-19
0
-4.3276e-20
0
5.59198e-17
-9.51464e-17
0
-1.14235e-17
8.69854e-18
0
0
-6.70234e-18
0
-1.66849e-18
-1.7481e-18
-7.21674e-19
9.18273e-19
0
2.2059e-19
0
0
8.1483e-20
-7.6857e-20
0
7.53532e-17
-5.95703e-17
1.05755e-17
-8.0549e-18
-2.42123e-18
6.31619e-18
5.49216e-18
-4.79874e-18
1.48747e-18
3.28741e-19
-5.786e-19
2.18913e-18
-6.35931e-19
-9.09987e-19
2.54937e-19
-3.65302e-20
2.23999e-20
-4.28129e-21
-1.40588e-16
5.06347e-17
0
0
2.95423e-18
-3.00412e-18
1.10081e-18
1.34489e-19
3.91336e-18
1.38854e-18
-1.21123e-18
-1.51829e-19
-3.16118e-19
2.3386e-19
0
4.99506e-20
3.34826e-20
1.21103e-20
3.86968e-21
0
3.98674e-17
-3.31691e-17
9.84317e-18
7.38574e-18
-1.3306e-18
-3.03922e-18
-1.9843e-18
-4.701e-18
1.30666e-18
-3.5536e-19
7.83079e-19
2.95609e-19
-2.12692e-19
2.2576e-19
7.34719e-20
-1.09854e-19
-1.11857e-20
0
-8.34063e-18
-3.25676e-17
9.99729e-18
7.69431e-18
-2.06869e-17
1.33775e-17
4.12062e-18
-4.21191e-18
2.08671e-18
-1.24009e-18
0
0
-3.09803e-19
4.92522e-19
-1.77968e-19
9.72887e-20
-1.07324e-19
1.29671e-20
-2.30461e-20
1.49747e-17
1.25174e-17
-9.73881e-18
5.05723e-18
-7.37667e-18
-7.15599e-18
0
0
0
0
0
0
1.66002e-19
-2.85247e-19
3.0168e-19
-5.6498e-20
7.3326e-20
2.53916e-20
-2.10984e-20
3.23062e-17
-4.37453e-17
5.39339e-17
-1.70795e-17
2.45323e-17
-1.0901e-17
1.81032e-17
-8.40086e-18
-2.46582e-18
2.52242e-18
0
2.89274e-19
-1.62176e-19
2.5023e-19
-1.28591e-19
-9.6518e-20
-1.24925e-19
1.15422e-20
1.72673e-20
5.09727e-17
1.23333e-17
0
-1.3769e-17
-7.84092e-18
1.59967e-17
1.39099e-19
-3.8381e-18
1.87677e-18
-8.5795e-19
0
-2.28993e-19
0
-1.02271e-19
6.65531e-20
-4.36899e-20
-1.26126e-20
6.12339e-21
0
7.02198e-17
-1.30377e-17
4.48471e-17
-3.463e-17
-5.22762e-18
1.48888e-17
-8.77238e-18
7.01536e-19
4.23075e-19
-9.13674e-19
7.57799e-19
0
0
1.50586e-19
-2.61388e-20
1.1254e-20
4.46666e-20
-1.45567e-20
0
8.83728e-22
0
-1.06186e-17
5.09294e-17
-3.27421e-17
-2.43251e-17
1.29981e-17
-8.21704e-18
6.99515e-18
2.36216e-18
-1.2929e-18
4.12413e-19
-3.07782e-19
7.4614e-20
2.52413e-19
-7.71872e-21
-4.95353e-20
4.34555e-20
-9.26849e-21
1.63638e-16
-5.05076e-17
1.71162e-17
-5.63858e-17
1.20093e-17
-1.47177e-17
8.60628e-18
0
0
-1.92707e-19
-3.44627e-19
-8.58292e-20
0
-2.88904e-19
-1.61823e-19
8.97768e-20
-5.35245e-21
1.48185e-20
2.06707e-20
0
-4.701e-17
6.73214e-17
8.14809e-18
-4.50773e-17
9.17393e-18
-1.06527e-17
3.60417e-18
6.86561e-18
0
0
8.14498e-20
4.78056e-19
0
-2.17221e-19
-7.29462e-20
1.20699e-20
-2.12264e-20
-2.96301e-20
0
-2.66078e-17
1.23841e-17
4.56498e-17
2.4485e-17
-4.2112e-17
1.72603e-17
-7.84499e-18
4.56387e-18
-4.05516e-18
0
0
0
-5.53234e-19
5.99158e-20
-1.19493e-19
0
-4.84327e-21
2.27459e-20
-1.20217e-16
1.10642e-16
9.67596e-17
-1.15747e-16
4.18931e-17
-3.7608e-17
0
8.68285e-18
-1.0922e-17
5.22107e-18
-2.87121e-18
1.77989e-18
1.09244e-18
5.72166e-19
3.43863e-19
0
0
0
0
1.40404e-16
-7.24454e-17
0
0
-1.66072e-17
3.21898e-17
-2.01225e-17
-9.53795e-18
9.43044e-18
4.72003e-18
6.20693e-18
-1.84681e-18
6.30717e-19
3.20596e-19
1.91412e-19
1.50363e-19
2.30003e-19
-1.01213e-20
1.03095e-20
-1.39075e-16
1.2103e-16
5.3754e-17
-2.94402e-17
4.75663e-17
-2.98484e-17
-1.80938e-17
-1.24737e-17
0
-9.93422e-18
1.0557e-18
2.30696e-18
-1.32642e-18
-8.373e-19
-2.47038e-19
-1.91156e-19
-1.54024e-19
0
0
-4.78266e-17
0
3.11022e-17
8.10924e-20
0
0
1.86643e-17
1.28711e-17
0
5.68767e-18
0
-3.41318e-18
-7.2618e-19
1.21381e-18
0
6.62426e-19
-8.48006e-20
8.6508e-20
0
1.05441e-16
0
5.68492e-17
-9.95856e-17
7.99172e-17
5.0813e-17
-3.68835e-18
0
1.60097e-18
7.68802e-18
0
-4.16062e-18
3.81355e-18
-3.03996e-18
-6.0299e-19
-5.09941e-19
-1.79678e-19
-4.00697e-20
-2.21296e-19
-9.13926e-17
1.29837e-16
-3.23862e-17
-7.50727e-17
-3.79244e-17
-2.79123e-17
-3.99117e-17
-1.19179e-17
2.18652e-18
2.81406e-18
-2.80878e-18
6.56435e-18
-2.63772e-18
4.50381e-18
-8.14896e-19
0
1.26018e-18
-8.79374e-19
2.05888e-19
2.16845e-16
-7.68948e-18
-1.36798e-16
9.49801e-17
-7.68423e-17
5.7043e-17
-3.67222e-18
-1.45464e-17
1.04108e-17
3.08637e-18
-8.30263e-19
-5.83974e-18
1.35134e-18
2.13728e-18
-4.91262e-19
4.96866e-19
-1.30524e-18
-5.92711e-19
-6.4208e-19
1.06452e-16
4.00797e-17
6.36434e-17
-4.88112e-17
-3.25459e-17
4.58076e-18
-1.75079e-17
4.05855e-17
2.33817e-18
1.29951e-17
6.58892e-18
-5.40998e-18
0
-2.9769e-18
0
0
3.39922e-18
1.29411e-18
7.24247e-19
9.61671e-17
0
6.15724e-17
4.84961e-17
-3.66439e-17
2.76198e-17
0
-1.50272e-17
-1.83456e-17
-1.35627e-17
-6.64724e-18
5.47115e-18
0
0
0
0
-3.21382e-18
-3.64927e-18
0
-1.88136e-16
0
-6.79996e-18
-6.2798e-18
5.68074e-17
-2.46783e-17
-9.86121e-18
-1.01116e-17
1.92092e-17
0
4.34793e-18
-4.2162e-19
5.23917e-18
0
0
8.04086e-18
-6.28899e-19
4.40163e-18
-2.43554e-18
1.29869e-16
3.26838e-17
-3.23465e-17
-2.51527e-17
-7.16261e-17
4.34676e-17
4.52691e-17
-2.71935e-18
-1.39714e-17
1.5151e-17
2.87751e-18
-1.62679e-17
-1.1796e-17
-9.99598e-18
-1.11356e-17
-9.33317e-18
1.07096e-17
-4.78103e-19
2.49451e-18
-3.84405e-17
1.57499e-17
-7.25445e-17
1.0195e-17
-1.01579e-17
0
-2.30918e-17
-4.15997e-18
-2.11203e-17
4.76843e-18
2.06762e-17
1.30427e-17
-3.75138e-18
-1.52362e-18
1.04045e-17
0
-2.46224e-17
-1.0646e-17
-2.11895e-19
8.22641e-17
-1.92903e-18
1.1384e-16
-4.94074e-17
2.09447e-19
1.1068e-18
3.13852e-17
-5.89415e-18
2.04832e-17
-1.90246e-17
-1.82369e-17
0
2.44738e-17
1.7373e-17
2.96706e-19
-4.41453e-19
1.43676e-17
1.08123e-17
0
-5.74966e-17
0
-9.18871e-18
4.82653e-17
1.42635e-18
9.90025e-18
-3.0349e-17
2.76476e-17
3.40277e-17
3.31188e-17
3.27726e-17
0
-2.37758e-17
0
1.59277e-18
-1.65423e-18
0
-1.86703e-19
9.7616e-18
4.25779e-17
4.52312e-18
-2.55298e-17
8.20511e-17
-2.51633e-17
0
0
-4.41288e-17
-3.29693e-17
-3.20848e-17
-6.4967e-17
-9.18614e-18
0
0
0
-3.8013e-18
4.02272e-18
2.7853e-17
-9.92069e-18
4.86312e-18
0
-6.208e-17
-5.10145e-17
5.71373e-17
-5.74934e-17
-8.00727e-17
9.12602e-17
2.97344e-17
0
4.09584e-17
5.34466e-17
-1.14685e-17
6.51488e-17
-1.08558e-17
1.12982e-17
4.64416e-17
-2.64725e-17
0
-8.02764e-17
0
-7.39146e-17
7.12931e-17
0
1.17233e-16
5.30923e-17
-1.18308e-16
1.01104e-16
-2.73119e-19
-2.92453e-17
-5.17473e-17
0
8.21034e-17
-1.34167e-16
1.45183e-16
-1.85315e-16
0
0
8.06029e-17
-1.18478e-18
-2.85362e-18
-1.48073e-16
1.52123e-16
-7.1795e-17
7.15023e-17
7.0579e-17
-5.6713e-17
0
0
1.23108e-16
-1.25229e-16
-1.28935e-16
1.292e-16
-1.26986e-16
1.38317e-16
-2.1771e-16
0
)
;

boundaryField
{
    up
    {
        type            calculated;
        value           nonuniform List<scalar> 
84
(
0
0
0
0
-6.74175e-18
1.17033e-17
-4.67573e-18
2.49456e-18
-2.23013e-18
0
-8.12143e-19
7.52144e-19
-2.73324e-19
9.83143e-20
5.85372e-20
9.48921e-20
0
0
-1.78153e-20
1.36925e-20
8.64444e-21
-8.39367e-21
5.89338e-22
0
2.96517e-21
2.04805e-21
-2.06993e-20
0
3.50092e-20
5.63619e-20
8.41911e-21
-1.70396e-20
8.66438e-21
0
4.43722e-21
5.22013e-20
-6.44248e-20
1.07448e-19
0
-2.41804e-20
0
0
-1.37412e-20
2.58656e-20
-2.49921e-20
4.17333e-20
-7.76346e-20
5.88823e-20
-1.34011e-20
-4.68613e-20
0
0
0
-7.6857e-20
-1.22057e-20
3.86968e-21
0
-2.30461e-20
-2.10984e-20
1.43066e-20
0
0
-9.26849e-21
2.06707e-20
-2.96301e-20
2.27459e-20
0
1.03095e-20
0
0
-2.21296e-19
2.05888e-19
-6.4208e-19
7.24247e-19
0
-2.43554e-18
2.49451e-18
-2.11895e-19
0
9.7616e-18
-9.92069e-18
0
0
0
)
;
    }
    low
    {
        type            calculated;
        value           nonuniform List<scalar> 
84
(
-1.6158e-16
1.58819e-16
-7.42439e-17
1.21907e-16
2.19432e-17
-5.70346e-18
4.76405e-17
9.04181e-18
0
1.9358e-16
-4.90748e-17
3.30065e-17
-4.16443e-17
-2.93027e-16
4.78303e-17
0
-4.4383e-17
7.12209e-18
-6.99967e-18
-3.19521e-17
1.82197e-17
4.5305e-17
8.59544e-17
-7.07973e-17
0
-1.36278e-17
-7.03186e-18
0
-6.48005e-17
-1.92665e-17
-6.83787e-17
-7.3988e-17
8.01133e-17
2.62386e-17
1.80563e-16
1.44426e-17
0
1.17917e-16
1.21765e-16
6.88875e-17
-3.65126e-17
1.41381e-17
1.41386e-17
0
5.61872e-17
1.36785e-16
1.031e-16
1.70868e-17
0
-2.50013e-16
1.49875e-16
-2.50399e-20
-1.60844e-20
5.59198e-17
0
-1.40047e-16
0
-8.34063e-18
1.49747e-17
3.197e-17
5.04362e-17
6.97643e-17
8.83728e-22
1.63351e-16
0
0
-1.20217e-16
1.40391e-16
-1.39125e-16
-4.78266e-17
1.05596e-16
-9.13926e-17
2.17613e-16
1.06929e-16
9.61671e-17
-1.88136e-16
1.29367e-16
-3.78936e-17
8.22641e-17
-5.72532e-17
4.25779e-17
5.35007e-18
-8.02764e-17
8.07376e-17
)
;
    }
    left
    {
        type            calculated;
        value           nonuniform List<scalar> 
19
(
-1.6131e-16
-7.64684e-17
7.98716e-17
3.86094e-18
-1.46594e-16
0
-6.50112e-17
-6.41735e-17
-7.59884e-18
-3.53735e-17
-1.39328e-19
-3.5691e-17
1.629e-16
-3.59097e-17
1.66356e-16
1.44636e-16
8.6337e-17
1.27568e-16
0
)
;
    }
    right
    {
        type            calculated;
        value           nonuniform List<scalar> 
19
(
8.06029e-17
-1.08533e-18
-2.85362e-18
-1.48145e-16
1.52285e-16
-7.1795e-17
7.15023e-17
7.0579e-17
-5.63434e-17
0
0
1.24316e-16
-1.26811e-16
-1.28935e-16
1.292e-16
-1.26986e-16
1.38317e-16
-2.35312e-16
0
)
;
    }
    frontAndBackPlanes
    {
        type            empty;
    }
}


// ************************************************************************* //
