/*--------------------------------*- C++ -*----------------------------------*\
  =========                 |
  \\      /  F ield         | OpenFOAM: The Open Source CFD Toolbox
   \\    /   O peration     | Website:  https://openfoam.org
    \\  /    A nd           | Version:  7
     \\/     M anipulation  |
\*---------------------------------------------------------------------------*/
FoamFile
{
    version     2.0;
    format      ascii;
    class       volScalarField;
    location    "0.21";
    object      T;
}
// * * * * * * * * * * * * * * * * * * * * * * * * * * * * * * * * * * * * * //

dimensions      [0 0 0 1 0 0 0];

internalField   nonuniform List<scalar> 
1596
(
0.997038
0.988561
0.979941
0.971876
0.964574
0.957978
0.95196
0.946199
0.940454
0.934161
0.926876
0.917994
0.906219
0.889785
0.866001
0.828931
0.767567
0.659923
0.461923
0.98721
0.960853
0.936156
0.913731
0.893647
0.875624
0.859263
0.843878
0.828857
0.813134
0.795791
0.775707
0.750908
0.71902
0.67716
0.620001
0.5394
0.421425
0.239717
0.975621
0.931362
0.89183
0.856702
0.825571
0.797858
0.772913
0.749828
0.727764
0.705442
0.681754
0.655405
0.624367
0.586364
0.538949
0.478068
0.398273
0.291292
0.141776
0.964233
0.903287
0.850415
0.804141
0.763496
0.727596
0.695581
0.666403
0.639099
0.612319
0.584901
0.555529
0.522298
0.483189
0.436208
0.378326
0.305916
0.21409
0.0939192
0.954852
0.879557
0.81505
0.759049
0.710145
0.667222
0.629266
0.595151
0.563849
0.534006
0.504461
0.473925
0.440642
0.402823
0.358806
0.306244
0.242609
0.164907
0.0678063
0.948624
0.862129
0.787847
0.723396
0.667216
0.618089
0.574924
0.536571
0.501978
0.469814
0.438942
0.408109
0.375682
0.340044
0.299743
0.252855
0.197484
0.131657
0.0520216
0.94567
0.851487
0.769414
0.697722
0.635062
0.580295
0.532351
0.490107
0.452526
0.418317
0.386375
0.35548
0.324097
0.290725
0.254039
0.212369
0.164172
0.108015
0.0416248
0.94527
0.846742
0.758914
0.681201
0.612798
0.552839
0.500384
0.4544
0.413905
0.377663
0.344608
0.313552
0.283036
0.25164
0.218111
0.180936
0.138766
0.0904414
0.0342815
0.94673
0.846687
0.755016
0.672482
0.599057
0.534308
0.477544
0.427885
0.384442
0.346056
0.311708
0.280245
0.250267
0.220414
0.189476
0.156034
0.118848
0.076893
0.0288084
0.948628
0.848894
0.755047
0.668927
0.591312
0.522298
0.461531
0.408345
0.361986
0.321394
0.285609
0.253517
0.223771
0.195057
0.166193
0.135821
0.102765
0.0660595
0.0245265
0.950122
0.851427
0.756591
0.668013
0.587102
0.514477
0.450153
0.393724
0.344606
0.301857
0.264589
0.231736
0.202
0.174109
0.1469
0.119063
0.0894565
0.0571441
0.0210503
0.951942
0.85472
0.759558
0.669256
0.58571
0.509994
0.442496
0.38308
0.331354
0.286507
0.247735
0.214021
0.184115
0.156778
0.130866
0.1051
0.0783652
0.0497317
0.0181829
0.953631
0.858059
0.762972
0.671465
0.585815
0.507484
0.437201
0.375098
0.320978
0.274171
0.233957
0.199371
0.169206
0.142253
0.117379
0.0933319
0.069011
0.0434871
0.0157801
0.954615
0.860362
0.765504
0.673176
0.585897
0.505432
0.432806
0.368399
0.312202
0.263679
0.222196
0.186838
0.156435
0.129803
0.105818
0.0832484
0.0610041
0.0381525
0.0137378
0.955408
0.862066
0.76733
0.674311
0.585671
0.503405
0.428781
0.362398
0.304418
0.254429
0.211873
0.175878
0.145304
0.118985
0.0958014
0.0745352
0.0541043
0.0335702
0.0119929
0.956158
0.86347
0.768669
0.674925
0.585024
0.501146
0.424765
0.356668
0.297162
0.245943
0.202515
0.166039
0.135394
0.109421
0.0870017
0.0669228
0.0481061
0.0296063
0.0104939
0.95662
0.864294
0.769241
0.674695
0.583571
0.498215
0.420276
0.350701
0.289923
0.237722
0.193649
0.15688
0.126303
0.100756
0.0791114
0.0601584
0.042818
0.0261372
0.00919381
0.956902
0.864661
0.769166
0.673709
0.581336
0.494559
0.415191
0.344321
0.282482
0.229521
0.185014
0.148139
0.117774
0.0927466
0.0719128
0.0540568
0.0380956
0.0230674
0.00805543
0.957593
0.865516
0.769454
0.672924
0.579165
0.490882
0.41006
0.337926
0.275104
0.221491
0.17667
0.139803
0.109745
0.0852983
0.065294
0.048506
0.0338424
0.0203299
0.00705191
0.958495
0.866802
0.770177
0.672471
0.577201
0.487306
0.404968
0.331559
0.267787
0.213587
0.168536
0.131763
0.102085
0.0782677
0.0591092
0.0433691
0.0299445
0.0178473
0.00615447
0.959171
0.8679
0.770772
0.671896
0.575087
0.483553
0.399694
0.325035
0.26037
0.205663
0.160471
0.123877
0.0946492
0.0715049
0.0532067
0.0384999
0.0262756
0.015533
0.00533209
0.959882
0.869063
0.771485
0.671465
0.573109
0.479914
0.394513
0.318601
0.253053
0.197866
0.152565
0.11618
0.0874215
0.0649503
0.0474888
0.0337728
0.0227012
0.0132791
0.00454527
0.960751
0.870516
0.77256
0.671438
0.571546
0.476677
0.389712
0.312518
0.246063
0.190367
0.144929
0.108721
0.08039
0.0585368
0.0418379
0.0290209
0.0190139
0.0108792
0.00369446
0.96171
0.872176
0.773924
0.671763
0.570388
0.473881
0.385368
0.30689
0.239499
0.183245
0.137601
0.101484
0.0734861
0.0521448
0.0360834
0.0240116
0.0148946
0.00791136
0.00238338
0.963291
0.876031
0.779325
0.678017
0.576874
0.480088
0.39091
0.311507
0.243049
0.185687
0.138986
0.101938
0.0731847
0.0512877
0.0348707
0.022623
0.0135058
0.00674042
0.00177909
0.965061
0.881134
0.787479
0.688733
0.589484
0.493812
0.404951
0.325125
0.255627
0.196775
0.148314
0.109433
0.0789413
0.0555253
0.0378743
0.0246798
0.0148514
0.00753345
0.00207694
0.965976
0.884301
0.7931
0.696737
0.599541
0.505384
0.417373
0.337694
0.267677
0.20775
0.157808
0.117225
0.0850026
0.0599952
0.0410067
0.0267655
0.0161535
0.00824978
0.00231966
0.966047
0.885449
0.796008
0.701768
0.606725
0.514449
0.42782
0.348884
0.278926
0.21841
0.16734
0.125255
0.0913557
0.0647017
0.0442698
0.0288769
0.01741
0.0088942
0.00251523
0.965583
0.885199
0.796999
0.704694
0.611896
0.521803
0.436993
0.359299
0.289889
0.229213
0.177331
0.133918
0.0983622
0.0699527
0.0478976
0.0311731
0.0187219
0.00952912
0.00269149
0.964651
0.883953
0.796739
0.706326
0.615901
0.528255
0.445617
0.369566
0.301112
0.240643
0.188238
0.143665
0.106465
0.0761529
0.0522121
0.0338659
0.0202027
0.010207
0.00286689
0.963491
0.882377
0.796148
0.707698
0.619785
0.534788
0.454578
0.380459
0.313269
0.253308
0.200644
0.155088
0.116283
0.083918
0.0577538
0.0373399
0.0220532
0.0109976
0.00305695
0.96268
0.881423
0.796324
0.709946
0.624647
0.542413
0.464772
0.392764
0.327055
0.267849
0.215184
0.168881
0.128609
0.0941418
0.0654344
0.0423646
0.0247449
0.0120557
0.00326392
0.961979
0.880795
0.797023
0.712892
0.630371
0.551067
0.476181
0.406508
0.342555
0.284435
0.232154
0.185527
0.144201
0.107921
0.0766743
0.0504967
0.0295993
0.0140834
0.00350063
0.961355
0.880494
0.798303
0.716647
0.637105
0.560921
0.488997
0.421903
0.36001
0.303359
0.251938
0.205574
0.163896
0.12658
0.0934926
0.0645481
0.0399643
0.020201
0.00543057
0.9606
0.879783
0.798801
0.719199
0.642207
0.56875
0.499471
0.43475
0.37484
0.319721
0.269376
0.223654
0.182206
0.144697
0.110884
0.0804415
0.0532147
0.0293489
0.0089712
0.959072
0.876823
0.795602
0.716621
0.640793
0.568783
0.501021
0.437732
0.379058
0.32491
0.275245
0.229914
0.188592
0.15098
0.116885
0.0859782
0.0580392
0.0329998
0.0106207
0.956991
0.872413
0.790115
0.71091
0.635413
0.564055
0.497089
0.434601
0.376638
0.323042
0.27374
0.22858
0.187251
0.149501
0.115216
0.0841643
0.0562601
0.0315833
0.00999726
0.955312
0.868881
0.78575
0.706398
0.631195
0.560384
0.494073
0.432241
0.374862
0.321728
0.272751
0.227781
0.186528
0.148774
0.114458
0.0833978
0.0555561
0.0310589
0.00979214
0.954188
0.866434
0.782681
0.703208
0.628211
0.557799
0.491968
0.430617
0.373667
0.320875
0.27214
0.22732
0.186134
0.148391
0.114061
0.0829923
0.0551772
0.030775
0.0096882
0.953357
0.864622
0.780408
0.700844
0.625998
0.555875
0.490395
0.429395
0.37276
0.320219
0.271665
0.226961
0.185832
0.148103
0.113769
0.0826965
0.0549013
0.0305687
0.0096149
0.952748
0.863291
0.778742
0.699112
0.624371
0.554451
0.489214
0.428458
0.372041
0.319676
0.271252
0.226633
0.18555
0.147838
0.113508
0.0824408
0.0546682
0.0303962
0.00955249
0.952199
0.862244
0.777515
0.69788
0.623234
0.553458
0.488384
0.427788
0.371514
0.319269
0.270938
0.226388
0.185351
0.147667
0.113357
0.0823054
0.0545527
0.0303148
0.0095254
0.952201
0.862248
0.77752
0.697886
0.623241
0.553466
0.488392
0.427795
0.371522
0.319276
0.270945
0.226394
0.185357
0.147672
0.113361
0.0823085
0.054555
0.0303162
0.00952586
0.952752
0.863302
0.778758
0.699131
0.624392
0.554474
0.489237
0.428481
0.372063
0.319697
0.271272
0.226652
0.185567
0.147853
0.113521
0.082451
0.0546756
0.0304007
0.00955406
0.953364
0.864639
0.780433
0.700873
0.626031
0.555911
0.490432
0.429432
0.372796
0.320254
0.271698
0.226991
0.185859
0.148126
0.113789
0.0827122
0.0549126
0.0305755
0.00961724
0.954197
0.866457
0.782714
0.703248
0.628256
0.557846
0.492017
0.430666
0.373715
0.320921
0.272183
0.22736
0.18617
0.148422
0.114087
0.0830127
0.0551918
0.0307837
0.0096912
0.955323
0.868909
0.78579
0.706447
0.63125
0.560443
0.494134
0.432301
0.374921
0.321785
0.272804
0.22783
0.186572
0.148812
0.114489
0.0834222
0.0555735
0.0310693
0.00979565
0.957004
0.872445
0.790161
0.710967
0.635477
0.564123
0.497159
0.434671
0.376706
0.323108
0.273801
0.228636
0.187301
0.149543
0.11525
0.0841903
0.056278
0.0315935
0.0100005
0.959086
0.876858
0.795654
0.716684
0.640865
0.56886
0.501101
0.437811
0.379135
0.324983
0.275313
0.229974
0.188643
0.151022
0.116917
0.0859994
0.058051
0.0330046
0.0106214
0.960617
0.879835
0.798883
0.719307
0.642336
0.568896
0.499628
0.434916
0.37501
0.319892
0.269545
0.223819
0.182366
0.14485
0.11103
0.0805754
0.0533308
0.0294348
0.00900768
0.961376
0.880555
0.798401
0.716776
0.637262
0.5611
0.489192
0.42211
0.360223
0.303574
0.252152
0.205783
0.164097
0.12677
0.0936667
0.0646994
0.0400833
0.0202779
0.00545811
0.961996
0.880847
0.797108
0.713006
0.63051
0.551225
0.476352
0.406688
0.342738
0.284617
0.232331
0.185695
0.144357
0.108061
0.0767928
0.0505883
0.02966
0.0141134
0.0035066
0.962695
0.881471
0.796404
0.710053
0.624778
0.542563
0.464933
0.392932
0.327224
0.268015
0.215342
0.169028
0.128741
0.0942539
0.0655234
0.0424283
0.0247839
0.0120744
0.00326866
0.963505
0.882421
0.796221
0.707799
0.619909
0.534928
0.454729
0.380615
0.313426
0.25346
0.200785
0.155216
0.116394
0.084009
0.0578231
0.0373878
0.0220823
0.0110121
0.00306094
0.964663
0.883993
0.796807
0.70642
0.616016
0.528386
0.445759
0.369711
0.301256
0.24078
0.188364
0.143776
0.106559
0.0762281
0.0522682
0.0339042
0.0202262
0.0102191
0.00287037
0.965593
0.885235
0.79706
0.704779
0.612001
0.521924
0.437123
0.359431
0.290019
0.229335
0.177442
0.134015
0.0984426
0.0700158
0.0479442
0.031205
0.0187418
0.00953963
0.00269463
0.966056
0.88548
0.796063
0.701844
0.606821
0.514559
0.427938
0.349004
0.279042
0.218519
0.167437
0.125339
0.0914245
0.0647554
0.0443094
0.0289043
0.0174274
0.00890366
0.00251818
0.965983
0.884327
0.793148
0.696805
0.599626
0.505481
0.417478
0.337801
0.267781
0.207846
0.157893
0.117298
0.0850619
0.0600414
0.0410411
0.0267896
0.0161693
0.0082587
0.00232262
0.965067
0.881157
0.78752
0.688792
0.589559
0.493898
0.405043
0.325219
0.255717
0.196859
0.148389
0.109496
0.0789928
0.0555657
0.0379048
0.0247018
0.0148663
0.0075423
0.00208016
0.963291
0.876036
0.779335
0.678032
0.576895
0.480112
0.390937
0.311535
0.243077
0.185712
0.139008
0.101957
0.0731995
0.0512985
0.0348778
0.022627
0.0135073
0.0067403
0.00177853
0.961707
0.872169
0.773914
0.671749
0.570371
0.473863
0.385351
0.306873
0.239483
0.18323
0.137588
0.101473
0.0734769
0.0521368
0.0360766
0.0240057
0.0148896
0.00790767
0.00238157
0.960751
0.870514
0.772558
0.671435
0.571544
0.476675
0.389711
0.312518
0.246063
0.190368
0.144931
0.108723
0.0803925
0.0585392
0.0418401
0.0290227
0.0190153
0.0108799
0.00369464
0.959881
0.869062
0.771483
0.671463
0.573108
0.479912
0.394512
0.318601
0.253054
0.197867
0.152567
0.116182
0.0874235
0.0649522
0.0474904
0.0337741
0.0227021
0.0132796
0.0045454
0.959171
0.867899
0.770771
0.671895
0.575086
0.483553
0.399693
0.325036
0.260371
0.205664
0.160473
0.123878
0.0946508
0.0715064
0.0532079
0.0385009
0.0262763
0.0155333
0.00533219
0.958495
0.866801
0.770176
0.672471
0.577201
0.487306
0.404968
0.331559
0.267788
0.213588
0.168538
0.131764
0.102087
0.0782688
0.0591101
0.0433698
0.029945
0.0178475
0.00615455
0.957593
0.865515
0.769454
0.672923
0.579165
0.490882
0.41006
0.337927
0.275105
0.221492
0.176671
0.139804
0.109746
0.0852991
0.0652947
0.0485066
0.0338428
0.0203301
0.00705197
0.956901
0.864661
0.769166
0.673709
0.581336
0.494559
0.415192
0.344322
0.282483
0.229522
0.185015
0.14814
0.117775
0.0927473
0.0719133
0.0540572
0.0380958
0.0230676
0.00805547
0.95662
0.864293
0.769241
0.674695
0.583572
0.498215
0.420276
0.350702
0.289924
0.237723
0.193649
0.156881
0.126303
0.100756
0.0791118
0.0601587
0.0428182
0.0261373
0.00919383
0.956158
0.86347
0.768669
0.674925
0.585024
0.501147
0.424766
0.356668
0.297162
0.245943
0.202515
0.16604
0.135394
0.109422
0.0870019
0.0669229
0.0481061
0.0296064
0.0104939
0.955408
0.862067
0.767331
0.674312
0.585672
0.503405
0.428781
0.362398
0.304419
0.25443
0.211873
0.175879
0.145304
0.118985
0.0958015
0.0745352
0.0541042
0.0335702
0.0119929
0.954615
0.860362
0.765505
0.673177
0.585898
0.505433
0.432806
0.368399
0.312202
0.263679
0.222196
0.186839
0.156435
0.129803
0.105818
0.0832482
0.0610039
0.0381524
0.0137378
0.953632
0.85806
0.762973
0.671465
0.585816
0.507485
0.437201
0.375098
0.320978
0.274171
0.233957
0.199371
0.169206
0.142253
0.117379
0.0933315
0.0690106
0.0434869
0.0157801
0.951942
0.85472
0.759559
0.669257
0.585711
0.509995
0.442496
0.38308
0.331353
0.286507
0.247735
0.214021
0.184115
0.156777
0.130865
0.1051
0.0783647
0.0497315
0.0181829
0.950123
0.851427
0.756592
0.668014
0.587103
0.514477
0.450153
0.393724
0.344606
0.301856
0.264588
0.231735
0.202
0.174108
0.146899
0.119062
0.089456
0.0571439
0.0210503
0.948629
0.848895
0.755047
0.668927
0.591311
0.522298
0.461531
0.408345
0.361986
0.321393
0.285608
0.253516
0.22377
0.195056
0.166192
0.135821
0.102764
0.0660594
0.0245266
0.94673
0.846687
0.755016
0.672482
0.599056
0.534307
0.477543
0.427884
0.384441
0.346055
0.311707
0.280244
0.250266
0.220413
0.189475
0.156033
0.118848
0.076893
0.0288085
0.94527
0.846742
0.758913
0.6812
0.612798
0.552838
0.500383
0.454399
0.413904
0.377662
0.344606
0.313551
0.283035
0.251639
0.218111
0.180936
0.138766
0.0904415
0.0342817
0.945669
0.851487
0.769414
0.697721
0.635061
0.580294
0.53235
0.490105
0.452525
0.418316
0.386374
0.355479
0.324096
0.290724
0.254038
0.212368
0.164172
0.108015
0.041625
0.948624
0.862129
0.787846
0.723395
0.667215
0.618088
0.574923
0.536569
0.501977
0.469812
0.438941
0.408107
0.375681
0.340043
0.299742
0.252855
0.197484
0.131657
0.0520217
0.954852
0.879556
0.815049
0.759048
0.710144
0.667221
0.629264
0.595149
0.563848
0.534005
0.50446
0.473924
0.440641
0.402823
0.358806
0.306244
0.242609
0.164907
0.0678064
0.964233
0.903287
0.850415
0.804141
0.763495
0.727595
0.69558
0.666402
0.639098
0.612318
0.5849
0.555528
0.522297
0.483188
0.436208
0.378326
0.305916
0.21409
0.0939192
0.97562
0.931362
0.89183
0.856701
0.82557
0.797857
0.772912
0.749828
0.727763
0.705441
0.681753
0.655405
0.624366
0.586363
0.53895
0.478068
0.398273
0.291292
0.141776
0.98721
0.960853
0.936156
0.913731
0.893647
0.875623
0.859262
0.843878
0.828857
0.813133
0.795791
0.775707
0.750908
0.719021
0.67716
0.620001
0.5394
0.421425
0.239717
0.997038
0.988561
0.97994
0.971876
0.964574
0.957978
0.95196
0.946199
0.940454
0.934161
0.926876
0.917994
0.906219
0.889785
0.866001
0.828931
0.767567
0.659923
0.461923
)
;

boundaryField
{
    up
    {
        type            fixedValue;
        value           uniform 0;
    }
    low
    {
        type            fixedValue;
        value           uniform 1;
    }
    left
    {
        type            fixedValue;
        value           uniform 1;
    }
    right
    {
        type            fixedValue;
        value           uniform 1;
    }
    frontAndBackPlanes
    {
        type            empty;
    }
}


// ************************************************************************* //
