/*--------------------------------*- C++ -*----------------------------------*\
  =========                 |
  \\      /  F ield         | OpenFOAM: The Open Source CFD Toolbox
   \\    /   O peration     | Website:  https://openfoam.org
    \\  /    A nd           | Version:  7
     \\/     M anipulation  |
\*---------------------------------------------------------------------------*/
FoamFile
{
    version     2.0;
    format      ascii;
    class       volScalarField;
    location    "0.098";
    object      gradTz;
}
// * * * * * * * * * * * * * * * * * * * * * * * * * * * * * * * * * * * * * //

dimensions      [0 -1 0 1 0 0 0];

internalField   nonuniform List<scalar> 
1596
(
-8.06622e-16
-3.84656e-16
3.99171e-16
1.6207e-17
-7.39123e-16
0
-3.32385e-16
-3.27958e-16
-3.28754e-17
-1.78681e-16
-9.12019e-19
-1.79731e-16
8.06589e-16
-1.80063e-16
8.3632e-16
7.2558e-16
4.32674e-16
5.49559e-16
0
7.97304e-16
0
1.07142e-15
-1.30743e-17
-3.07989e-16
3.03702e-16
6.5508e-16
3.195e-17
3.04734e-16
-1.49195e-16
2.99467e-16
-2.59721e-18
-4.18021e-16
-2.64097e-16
-6.74998e-16
-6.62709e-16
-6.05677e-16
3.46931e-16
0
-3.79269e-16
0
-6.7408e-16
2.04855e-17
5.74391e-16
-1.81863e-16
2.37917e-17
-3.74268e-18
-2.93639e-18
-2.52369e-18
9.56349e-17
0
2.16542e-16
6.05316e-16
-6.03254e-17
5.06243e-17
1.17905e-16
1.91566e-16
0
6.11079e-16
-1.67166e-16
1.66556e-16
0
-1.54328e-16
-1.64929e-16
2.49518e-16
-1.94915e-16
0
0
-9.92022e-17
5.02295e-17
0
-1.73495e-16
-2.11221e-16
1.51339e-16
-1.69299e-16
-8.6209e-18
0
1.08499e-16
2.6136e-16
-2.13152e-16
0
-5.57093e-17
-1.73713e-16
0
2.44837e-16
-2.31437e-17
-2.10342e-17
-4.15763e-17
1.19481e-16
1.55934e-16
1.82247e-17
2.15546e-17
-1.63479e-16
8.07816e-18
7.67505e-17
-3.46867e-17
-2.81755e-17
-3.55559e-16
3.13418e-16
-2.47882e-16
-9.86277e-19
-1.86174e-16
5.00317e-18
-5.01978e-18
-1.27444e-16
0
-3.34481e-17
-1.43089e-16
-1.40173e-16
1.04629e-16
1.30927e-16
-1.72542e-18
-7.88045e-17
-7.78469e-17
6.0844e-17
2.35468e-16
-3.59934e-16
3.66275e-16
1.87696e-16
0
1.45369e-16
7.60691e-17
-3.53222e-17
1.5956e-16
-2.82684e-17
-1.28428e-16
6.81875e-19
-6.97798e-17
-1.04965e-16
-7.5052e-17
6.8906e-17
7.94982e-17
-1.09746e-18
-2.46141e-17
3.84957e-17
5.80456e-16
-6.16692e-16
0
0
-1.64567e-16
0
0
0
8.12137e-17
0
0
6.57384e-17
1.25175e-18
2.87858e-17
-6.13122e-17
0
3.26104e-17
1.42196e-17
0
-3.5844e-16
6.72934e-16
0
0
1.69481e-16
0
-4.91649e-17
4.91152e-17
-8.26638e-17
3.10846e-17
-3.1312e-17
0
4.4349e-17
5.60181e-17
0
-3.20176e-17
-3.32578e-17
-1.26414e-17
9.72659e-16
-4.40322e-16
0
-2.36591e-16
2.33944e-16
0
1.26647e-16
0
0
0
2.50895e-17
-2.52098e-17
0
-3.49561e-17
-9.08895e-18
0
8.66736e-18
1.66459e-17
0
-2.47237e-16
0
0
2.39562e-16
-4.23329e-16
4.05919e-17
1.65899e-17
-4.25097e-17
9.43642e-18
3.30978e-18
-2.57794e-17
-3.46665e-17
0
2.46467e-17
-5.78858e-18
5.87546e-18
2.01e-17
-1.3529e-17
-5.61408e-18
1.76181e-16
-3.59385e-17
1.70894e-16
5.17383e-16
-5.09207e-17
-1.87108e-16
0
0
0
5.4703e-17
1.78711e-17
5.99614e-17
-1.41829e-17
-2.42058e-17
-1.17345e-17
-7.67991e-18
3.55908e-18
-8.2542e-18
5.23199e-18
-2.13553e-16
2.10678e-16
-3.72478e-16
-5.12809e-16
4.50606e-16
1.4287e-16
-2.47397e-16
1.83999e-16
-1.35515e-16
3.59936e-17
2.10094e-17
-1.69006e-17
7.28352e-18
-7.32973e-18
2.28382e-17
0
-1.84719e-18
1.47513e-17
-2.25671e-18
-1.47518e-15
6.50045e-16
3.97179e-19
-1.05648e-16
2.73978e-17
1.39395e-16
-2.55185e-16
-8.62659e-17
6.21345e-17
-4.41146e-17
-3.13573e-17
0
-2.71519e-17
-7.49481e-18
-1.12231e-17
-6.39383e-18
4.85846e-19
-7.39306e-18
6.69797e-19
2.40979e-16
-2.00844e-16
-9.67196e-20
-1.30252e-16
-2.80239e-16
2.53444e-16
1.40885e-18
8.40661e-17
-6.04962e-17
8.40129e-17
1.79253e-17
1.24909e-17
2.94226e-17
0
1.91249e-17
8.43987e-18
0
3.45144e-18
4.38923e-19
0
1.94842e-16
1.28062e-16
-2.81109e-16
2.70385e-16
-3.73791e-16
2.37471e-16
6.7776e-17
-1.93332e-17
-8.68799e-17
1.13137e-17
-1.12579e-17
-2.53026e-17
8.13808e-18
-4.19621e-18
-7.59277e-18
2.73043e-18
-1.72512e-18
9.56911e-19
-2.23853e-16
6.8245e-16
-5.15993e-16
2.38379e-16
0
0
-3.81152e-17
8.7462e-17
-4.38573e-17
7.78351e-17
0
0
1.60386e-17
-1.23721e-17
-6.6351e-18
2.08037e-18
-2.17216e-18
1.19534e-18
0
3.21052e-17
2.09636e-16
-1.44386e-16
-1.15905e-16
-1.53663e-16
-2.69104e-17
6.36749e-17
0
-3.99033e-17
-2.4801e-17
2.06817e-17
-1.3565e-17
8.81432e-18
0
2.74241e-18
4.06958e-18
0
0
0
-3.14181e-17
2.81196e-16
7.98371e-17
-3.52752e-16
8.16e-17
6.23597e-17
0
0
3.60981e-17
-1.95418e-17
-2.00037e-17
1.31198e-17
-8.52411e-18
0
-1.33496e-18
9.15085e-19
0
-6.72918e-19
-2.39281e-19
-1.65321e-16
4.86195e-16
-5.49013e-16
-1.79715e-16
9.90757e-17
-5.56256e-17
3.95138e-17
0
-1.84415e-17
1.33002e-17
0
0
2.72465e-18
-2.72779e-18
5.32186e-19
-8.83804e-19
8.98659e-19
1.9639e-19
1.83163e-19
9.20626e-17
-7.61973e-17
3.4076e-16
-2.15301e-16
-7.02306e-17
1.48453e-17
8.59701e-17
2.43326e-17
1.76457e-17
0
5.76703e-18
-5.21283e-18
3.28555e-18
-2.23551e-18
1.89137e-18
-2.81751e-18
-6.85764e-19
5.5826e-19
1.2663e-19
2.32944e-16
-2.43016e-16
0
1.55253e-16
-8.66319e-17
-4.85057e-17
2.15621e-17
-7.84913e-17
0
-1.22834e-18
-7.69939e-18
-3.99383e-18
4.25514e-18
-5.7638e-19
-1.82798e-18
1.10063e-18
0
2.65253e-19
-1.22957e-19
4.3295e-16
-6.78976e-17
2.45635e-16
-1.89981e-16
7.45962e-17
-9.24045e-18
-7.29505e-17
-1.63509e-17
2.67294e-17
-1.8213e-18
-8.6069e-18
6.37215e-18
-2.3973e-18
-2.12734e-18
0
0
0
-2.66942e-19
9.11249e-21
-3.61808e-16
3.46003e-16
1.22814e-19
3.9164e-17
2.87916e-17
-5.39905e-17
5.57885e-17
-3.67067e-17
2.55306e-17
-5.47542e-18
9.94992e-18
2.39348e-18
-8.30369e-19
4.78251e-20
-1.2723e-19
-2.46527e-19
0
0
0
0
0
1.32839e-16
-8.65733e-17
-1.74395e-16
0
0
-1.03489e-17
-1.29377e-17
8.43173e-18
0
-3.01862e-18
1.79697e-18
-4.31077e-18
4.64945e-18
-1.06244e-18
1.12262e-18
1.01999e-19
0
-6.97837e-17
7.06426e-17
0
-4.24424e-17
4.1352e-17
5.516e-17
0
1.04477e-17
8.00717e-18
-4.12188e-17
0
-3.57536e-18
2.1484e-18
1.12862e-18
-6.65153e-19
8.19249e-19
0
-2.29382e-19
0
-3.59778e-17
-3.26802e-17
1.92769e-18
4.36085e-17
-1.00381e-16
0
-1.80199e-17
0
3.17068e-17
9.64455e-18
0
1.40432e-17
-1.22916e-17
1.68269e-18
-1.15001e-18
8.00715e-19
1.56254e-18
4.63918e-19
-3.67893e-19
0
7.12473e-17
-5.31566e-17
6.44133e-17
6.28442e-17
0
3.5455e-17
-3.09839e-17
-1.74745e-17
1.92714e-17
-2.82011e-17
-9.67062e-18
0
0
9.5449e-19
0
0
1.79376e-19
0
-3.30996e-16
2.57272e-16
0
6.50682e-18
-3.4662e-17
-1.64692e-18
2.48625e-17
1.18493e-17
-1.87039e-17
-3.02421e-17
3.64121e-17
-1.02879e-17
0
-2.6295e-18
0
0
0
-7.03607e-19
5.65378e-19
-9.72185e-17
8.43357e-17
1.99121e-16
-1.86815e-16
5.12944e-17
4.77598e-18
-2.51393e-17
1.79783e-17
2.5025e-17
1.49175e-17
-2.8841e-17
0
8.12496e-18
-7.26452e-19
-3.00414e-18
-4.56825e-18
3.55329e-18
-3.52387e-19
7.63545e-19
-3.42126e-16
4.27125e-16
-4.15679e-16
6.41768e-17
4.65177e-17
-4.14232e-17
3.18596e-17
-2.00926e-17
0
-1.2353e-17
1.45261e-17
6.07985e-18
8.25758e-18
7.21655e-18
-1.01961e-17
-6.05117e-19
0
-3.66747e-19
1.26787e-19
-3.69712e-16
-9.88846e-17
-1.53408e-16
8.59095e-17
-1.13728e-16
8.60364e-17
-4.79622e-17
3.30813e-17
-4.23558e-18
-3.92064e-18
-1.74178e-17
1.14863e-17
-3.10283e-18
1.08819e-17
-1.16819e-17
5.66144e-19
9.53183e-19
0
-2.44541e-19
3.99739e-16
-1.07823e-16
0
0
-1.16706e-16
2.17899e-16
-4.66058e-17
-6.94536e-18
5.12266e-17
-1.70039e-18
0
0
-6.4835e-18
0
-1.12172e-17
2.46727e-17
-1.62747e-17
0
1.16389e-19
1.32139e-16
2.32575e-16
0
-8.63222e-17
-5.90017e-17
-4.33465e-17
-4.92116e-17
1.68584e-17
-4.37767e-17
-1.9669e-17
0
0
1.19339e-17
0
0
-1.71198e-17
2.88866e-17
0
0
9.08051e-16
-1.29639e-16
-5.03313e-16
-2.36263e-16
3.23731e-16
8.99292e-17
4.77168e-17
0
-1.40143e-17
1.16225e-17
2.90212e-17
-8.81333e-18
-1.0472e-17
1.54017e-17
-1.63827e-17
-4.06172e-18
0
0
0
7.27055e-17
-5.31795e-16
5.17856e-16
-4.53891e-17
-3.14745e-16
4.72619e-16
-2.26865e-16
0
0
8.54549e-17
-6.74453e-17
0
-1.57929e-17
2.83838e-17
-2.49387e-18
7.47441e-18
2.12216e-18
3.55211e-20
4.24917e-19
0
0
0
3.88701e-16
-2.6278e-16
2.35718e-16
-3.58645e-16
9.6634e-17
0
-2.8153e-17
4.01719e-17
-4.1058e-17
-6.92452e-18
3.63985e-19
-4.18699e-18
-4.70864e-19
-3.30976e-18
-9.62474e-19
-5.04536e-19
5.97109e-16
-1.03832e-15
4.79147e-16
0
1.06076e-16
-1.45957e-16
1.27132e-16
-1.00327e-16
0
-3.87834e-17
5.4635e-17
0
0
3.37749e-19
0
-4.84994e-18
3.25669e-18
4.58569e-19
8.24255e-19
6.06093e-16
0
-2.08353e-16
2.32051e-16
-1.28482e-16
2.73615e-16
-1.2475e-16
-8.47973e-17
8.56829e-17
-7.92548e-18
0
0
4.27335e-18
-6.55301e-18
-4.5091e-18
8.40403e-18
-1.80622e-18
8.64279e-19
0
3.43253e-16
2.45901e-16
-2.00829e-17
-2.22516e-16
-2.05203e-17
-1.35547e-16
2.19042e-17
1.06356e-16
-4.99457e-18
8.0743e-18
0
0
-4.37776e-18
0
4.83441e-18
-5.17167e-18
0
6.45882e-19
-1.76112e-19
-1.82007e-16
-1.23609e-16
1.15957e-16
-1.22212e-17
-5.18881e-18
1.31425e-17
0
-3.066e-18
4.18316e-17
-3.52004e-17
0
1.00886e-17
-2.3301e-18
-8.54034e-18
-7.49224e-19
-5.72256e-19
0
-5.07525e-19
0
7.15784e-17
-1.33253e-16
1.22579e-18
5.31666e-17
4.35776e-17
-4.30012e-17
-2.70114e-17
3.0456e-17
-9.26046e-18
7.32532e-18
-6.29032e-18
6.48433e-18
0
1.4879e-20
-5.51257e-19
1.97155e-18
-6.62536e-21
0
0
7.15809e-17
-7.13127e-17
-5.28827e-17
4.70333e-17
7.67358e-17
-7.71888e-17
-1.35064e-17
1.35418e-17
-9.34125e-18
9.43817e-18
-6.29074e-18
1.162e-17
-3.25979e-18
-2.19501e-18
-6.36672e-19
2.192e-19
4.95658e-19
1.29218e-19
-9.67327e-20
0
-1.65817e-17
9.16547e-17
-9.98875e-17
7.63728e-17
-6.80262e-17
0
4.45139e-17
-4.00348e-17
0
1.23878e-17
-1.55693e-17
-8.15062e-18
8.54237e-18
1.47092e-18
0
0
-5.07734e-19
1.83581e-19
2.84502e-16
-5.12567e-16
4.97772e-16
-4.13941e-16
1.58689e-16
-1.18295e-16
1.13009e-16
1.1956e-17
-4.09412e-17
3.6417e-17
0
-2.21266e-17
2.02122e-17
-3.51192e-18
-1.44077e-18
2.11999e-18
1.53056e-18
4.92912e-19
-1.77381e-19
6.81664e-16
0
-2.36504e-16
1.84178e-16
2.02854e-17
-1.41493e-16
2.42008e-16
-2.00315e-16
7.61846e-17
-2.81949e-17
2.886e-17
5.28547e-18
8.23271e-18
3.42064e-18
-2.58703e-18
-4.10541e-19
-3.28367e-18
0
3.07971e-19
5.22553e-16
-5.88285e-16
0
4.72633e-17
1.85494e-16
-1.79124e-16
2.73295e-17
2.23991e-17
9.31937e-18
1.47161e-17
0
0
-1.40807e-17
2.49762e-17
-8.85861e-18
-2.97693e-18
3.25924e-18
2.51599e-19
-5.75742e-19
7.60068e-17
5.17655e-16
-5.48896e-17
-3.4235e-16
3.01777e-16
3.24739e-17
-2.67469e-17
-2.18773e-17
6.30406e-17
-7.78492e-17
4.01988e-17
-4.10851e-17
5.15711e-18
-7.56009e-18
1.15553e-17
-7.79781e-18
0
0
4.66555e-19
0
1.25833e-16
-3.44242e-16
3.95392e-16
-2.77019e-16
2.76359e-16
0
7.42449e-17
-7.45851e-17
-4.67965e-17
6.75248e-17
0
2.24608e-17
-2.8421e-17
-3.99174e-18
0
-3.79311e-19
-6.22055e-19
-8.71586e-20
-1.25777e-15
5.82511e-16
0
-3.23724e-16
3.23692e-16
1.68959e-16
-1.10133e-16
3.796e-17
0
-1.37057e-18
7.51809e-18
-8.80738e-18
-1.04669e-17
1.53936e-17
-1.63685e-17
0
2.66393e-18
-3.15631e-19
-3.92883e-19
7.58975e-16
-7.32481e-16
0
8.46114e-17
7.02336e-17
-6.02584e-17
0
-3.97824e-17
-2.84167e-17
0
-3.05588e-18
0
1.1949e-17
0
0
3.36733e-18
1.19258e-17
-1.58918e-17
0
-5.93385e-20
1.0788e-16
-9.17271e-17
6.20314e-17
-3.21849e-16
1.16409e-16
0
6.95385e-18
1.89874e-17
0
-1.52742e-17
3.42027e-17
-3.5932e-17
4.50847e-18
0
-1.08414e-18
0
0
0
-2.26588e-20
0
8.47788e-17
0
-1.012e-16
1.02809e-16
0
2.53471e-17
-1.6912e-17
5.51931e-17
-2.53054e-17
6.62746e-18
-9.02603e-18
6.82369e-18
-1.17133e-17
-1.69688e-18
0
-5.72598e-19
0
2.86199e-16
-4.86235e-16
0
-6.30104e-17
5.00579e-17
0
0
-4.46999e-17
0
-1.23708e-17
-1.45497e-17
-6.09125e-18
8.27542e-18
0
2.492e-18
0
0
1.13203e-18
-1.12159e-18
0
3.93794e-16
-3.12319e-16
5.83333e-17
-4.63539e-17
-1.51181e-17
4.0523e-17
3.77072e-17
-3.60767e-17
1.12855e-17
2.18101e-18
-5.58695e-18
2.15913e-17
-6.42847e-18
-1.05219e-17
3.13974e-18
-5.35901e-19
3.31165e-19
-7.08838e-20
-7.09932e-16
2.57515e-16
0
0
1.77301e-17
-1.80295e-17
8.02039e-18
2.18718e-18
3.03402e-17
1.1859e-17
-1.06881e-17
-1.1648e-18
-3.46025e-18
2.63565e-18
0
7.12049e-19
4.91193e-19
1.94602e-19
6.40689e-20
0
2.0784e-16
-1.78148e-16
5.39628e-17
4.41322e-17
-8.0881e-18
-2.02653e-17
-1.4215e-17
-3.6851e-17
1.13231e-17
-3.9178e-18
7.41578e-18
3.23576e-18
-2.70162e-18
2.8676e-18
1.12018e-18
-1.62072e-18
-1.79743e-19
0
-4.16764e-17
-1.68603e-16
5.38802e-17
4.36246e-17
-1.2521e-16
8.31683e-17
2.91095e-17
-2.97543e-17
1.65922e-17
-1.07462e-17
0
0
-3.68183e-18
6.03079e-18
-2.30313e-18
1.45016e-18
-1.60222e-18
2.07877e-19
-3.68454e-19
7.56445e-17
6.50805e-17
-5.27694e-17
3.06166e-17
-4.20133e-17
-4.59892e-17
0
0
0
0
0
0
1.91312e-18
-3.68761e-18
3.90005e-18
-8.44837e-19
1.07688e-18
4.04902e-19
-3.3733e-19
1.61531e-16
-2.32033e-16
2.87188e-16
-1.00872e-16
1.43391e-16
-7.25353e-17
1.23997e-16
-6.06104e-17
-2.07611e-17
2.12377e-17
0
3.01702e-18
-1.86902e-18
3.21093e-18
-1.51502e-18
-1.28546e-18
-1.88096e-18
1.6557e-19
2.78255e-19
2.54013e-16
6.42284e-17
0
-7.82891e-17
-4.85105e-17
1.01906e-16
2.85916e-18
-2.78206e-17
1.43539e-17
-7.29702e-18
0
-2.38831e-18
0
-1.22478e-18
8.45648e-19
-6.0516e-19
-1.82126e-19
9.90961e-20
0
3.51116e-16
-6.78964e-17
2.45898e-16
-1.90507e-16
-3.09462e-17
9.56993e-17
-5.67515e-17
4.30004e-18
2.78269e-18
-7.48537e-18
6.50633e-18
0
0
1.71191e-18
-3.69343e-19
1.78894e-19
6.50738e-19
-2.18472e-19
0
3.43852e-20
0
-5.72432e-17
2.88569e-16
-1.87752e-16
-1.52675e-16
8.19987e-17
-5.88141e-17
5.10737e-17
1.89694e-17
-1.12119e-17
3.78156e-18
-2.96391e-18
7.01237e-19
2.91579e-18
-5.48151e-20
-6.89754e-19
6.35486e-19
-1.35901e-19
8.26547e-16
-2.57174e-16
9.55447e-17
-3.09364e-16
7.02304e-17
-9.1071e-17
5.22953e-17
0
0
-1.40208e-18
-2.38059e-18
-6.37583e-19
0
-3.11023e-18
-1.89139e-18
1.13729e-18
-7.30359e-20
1.8965e-19
2.95422e-19
0
-2.43104e-16
3.62704e-16
5.24045e-17
-2.54775e-16
5.56256e-17
-6.90682e-17
2.07087e-17
4.71484e-17
0
0
6.51423e-19
4.32448e-18
0
-2.3702e-18
-8.62583e-19
1.38225e-19
-3.02763e-19
-4.05454e-19
0
-1.41068e-16
5.74273e-17
2.45286e-16
1.42905e-16
-2.49238e-16
1.04861e-16
-5.2985e-17
3.02142e-17
-3.00091e-17
0
0
0
-5.51282e-18
7.59966e-19
-1.34157e-18
0
-6.35395e-20
3.03955e-19
-6.10251e-16
5.65512e-16
5.18904e-16
-6.22975e-16
2.40047e-16
-2.17899e-16
0
5.78895e-17
-7.42054e-17
3.72471e-17
-2.24602e-17
1.49727e-17
9.92083e-18
5.70147e-18
3.7102e-18
0
0
0
0
7.03959e-16
-3.72722e-16
0
0
-9.31861e-17
1.91015e-16
-1.2009e-16
-6.29857e-17
6.22758e-17
3.44954e-17
4.83558e-17
-1.55357e-17
5.74689e-18
3.31015e-18
2.06983e-18
1.70706e-18
2.62817e-18
-1.19895e-19
1.22124e-19
-7.00743e-16
6.17511e-16
2.86382e-16
-1.54993e-16
2.6945e-16
-1.69994e-16
-1.10111e-16
-7.99031e-17
0
-7.26996e-17
6.74797e-18
1.91901e-17
-1.19448e-17
-8.13842e-18
-2.61334e-18
-2.22709e-18
-1.7943e-18
0
0
-2.41024e-16
0
1.63279e-16
2.41459e-19
0
0
1.13583e-16
8.24487e-17
0
4.1098e-17
0
-2.86446e-17
-6.81108e-18
1.14791e-17
0
6.672e-18
-8.80579e-19
8.98309e-19
0
5.27207e-16
0
3.01994e-16
-5.36295e-16
4.41688e-16
2.97957e-16
-1.85655e-17
0
9.62266e-18
5.36184e-17
0
-3.47776e-17
3.36664e-17
-2.79855e-17
-5.73884e-18
-5.19273e-18
-1.75204e-18
-3.66455e-19
-1.79064e-18
-4.64151e-16
6.61466e-16
-1.69949e-16
-4.0557e-16
-2.11793e-16
-1.62268e-16
-2.43652e-16
-7.86296e-17
1.23856e-17
2.10491e-17
-2.10095e-17
5.41185e-17
-2.2612e-17
4.04817e-17
-7.42119e-18
0
1.05483e-17
-7.01192e-18
1.69736e-18
1.08423e-15
-3.54509e-17
-7.14115e-16
5.17386e-16
-4.29427e-16
3.32071e-16
-1.89204e-17
-9.46419e-17
7.17539e-17
2.31333e-17
-5.2559e-18
-4.72887e-17
1.16603e-17
1.69255e-17
-4.15891e-18
4.20634e-18
-1.09255e-17
-3.68488e-18
-4.40015e-18
5.32259e-16
2.05742e-16
3.34699e-16
-2.6567e-16
-1.86971e-16
2.17423e-17
-1.10883e-16
2.60477e-16
1.41255e-17
9.3409e-17
4.96778e-17
-4.18065e-17
0
-2.46476e-17
0
0
2.40159e-17
9.48939e-18
5.00358e-18
4.84876e-16
0
3.25823e-16
2.63956e-16
-2.08593e-16
1.63235e-16
0
-9.83766e-17
-1.25349e-16
-9.72216e-17
-5.01175e-17
4.22792e-17
0
0
0
0
-2.26547e-17
-2.29829e-17
0
-9.4897e-16
0
-3.09624e-17
-2.82564e-17
3.22467e-16
-1.51394e-16
-6.33656e-17
-6.45097e-17
1.31086e-16
0
3.10847e-17
-3.09388e-18
3.45715e-17
0
0
5.09072e-17
-3.93408e-18
2.76933e-17
-1.38834e-17
6.58043e-16
1.71264e-16
-1.69496e-16
-1.36101e-16
-4.09859e-16
2.57769e-16
2.81145e-16
-1.50263e-17
-9.38474e-17
9.94063e-17
1.94319e-17
-1.06478e-16
-7.98625e-17
-6.18845e-17
-6.80155e-17
-5.8988e-17
6.21662e-17
-2.81871e-18
1.42195e-17
-1.96567e-16
8.27619e-17
-3.86215e-16
5.73201e-17
-5.71116e-17
0
-1.42728e-16
-2.16809e-17
-1.31407e-16
2.48246e-17
1.28427e-16
8.46323e-17
-2.33512e-17
-3.95722e-18
6.38514e-17
0
-1.39074e-16
-5.76027e-17
-1.16045e-18
4.1601e-16
-1.0143e-17
6.07258e-16
-2.71017e-16
9.86272e-19
6.3727e-18
1.83904e-16
-2.93323e-17
1.27443e-16
-1.18543e-16
-1.12991e-16
0
1.4017e-16
1.02856e-16
1.66626e-18
-2.46379e-18
7.95804e-17
5.85157e-17
0
-2.91997e-16
0
-5.21012e-17
2.62893e-16
6.68256e-18
5.57837e-17
-1.77832e-16
1.63585e-16
1.92768e-16
1.86798e-16
1.83511e-16
0
-1.36173e-16
0
8.59577e-18
-8.92747e-18
0
-9.62792e-19
4.9447e-17
2.12713e-16
1.96759e-17
-1.37658e-16
4.37689e-16
-1.35973e-16
0
0
-2.403e-16
-1.86773e-16
-1.80966e-16
-3.55708e-16
-5.02291e-17
0
0
0
-1.96616e-17
2.08069e-17
1.40813e-16
-5.0238e-17
2.09517e-17
0
-3.23896e-16
-2.74331e-16
3.01474e-16
-3.01884e-16
-4.23428e-16
4.9232e-16
1.53687e-16
0
2.20371e-16
2.77159e-16
-5.96663e-17
3.34796e-16
-5.55714e-17
5.78362e-17
2.33924e-16
-1.33827e-16
0
-4.0237e-16
0
-3.74484e-16
3.62723e-16
0
6.11387e-16
2.79426e-16
-6.12939e-16
5.14787e-16
-1.82234e-18
-1.50722e-16
-2.68347e-16
0
4.10161e-16
-6.74997e-16
7.2871e-16
-9.29723e-16
0
0
4.03085e-16
-5.0238e-18
-1.21832e-17
-7.47134e-16
7.63943e-16
-3.6276e-16
3.61281e-16
3.56432e-16
-2.93785e-16
0
0
6.14516e-16
-6.25102e-16
-6.50543e-16
6.50007e-16
-6.37269e-16
6.92666e-16
-1.08856e-15
0
)
;

boundaryField
{
    up
    {
        type            calculated;
        value           nonuniform List<scalar> 
84
(
0
0
0
0
-3.46867e-17
6.0844e-17
-2.46141e-17
1.42196e-17
-1.26414e-17
0
-5.61408e-18
5.23199e-18
-2.25671e-18
6.69797e-19
4.38923e-19
9.56911e-19
0
0
-2.39281e-19
1.83163e-19
1.2663e-19
-1.22957e-19
9.11249e-21
0
4.43826e-20
2.92254e-20
-3.3415e-19
0
5.65378e-19
8.59129e-19
1.26787e-19
-2.44541e-19
1.16389e-19
0
-1.20814e-20
4.25098e-19
-4.9384e-19
8.15156e-19
0
-1.7353e-19
0
0
-9.64014e-20
1.83581e-19
-1.77381e-19
3.07971e-19
-5.75742e-19
4.66555e-19
-8.71586e-20
-3.92883e-19
0
0
0
-1.12159e-18
-1.67157e-19
6.40689e-20
0
-3.68454e-19
-3.3733e-19
2.33954e-19
0
0
-1.35901e-19
2.95422e-19
-4.05454e-19
3.03955e-19
0
1.22124e-19
0
0
-1.79064e-18
1.69736e-18
-4.40015e-18
5.00358e-18
0
-1.38834e-17
1.42195e-17
-1.16045e-18
0
4.9447e-17
-5.0238e-17
0
0
0
)
;
    }
    low
    {
        type            calculated;
        value           nonuniform List<scalar> 
84
(
-8.07752e-16
7.97304e-16
-3.77217e-16
6.12688e-16
1.09551e-16
-2.84747e-17
2.3789e-16
4.07395e-17
0
9.75239e-16
-2.47237e-16
1.74545e-16
-2.13553e-16
-1.47572e-15
2.40979e-16
0
-2.23853e-16
3.21052e-17
-3.14181e-17
-1.65321e-16
9.20626e-17
2.32944e-16
4.30701e-16
-3.61808e-16
0
-6.97837e-17
-3.59778e-17
0
-3.30996e-16
-9.72185e-17
-3.40882e-16
-3.68901e-16
3.99406e-16
1.32139e-16
9.08646e-16
7.27055e-17
0
5.97109e-16
6.08292e-16
3.44405e-16
-1.82605e-16
7.15784e-17
7.15809e-17
0
2.84502e-16
6.83862e-16
5.22553e-16
7.77521e-17
0
-1.25837e-15
7.58975e-16
-5.93385e-20
-2.26588e-20
2.86199e-16
0
-7.07385e-16
0
-4.16764e-17
7.56445e-17
1.5996e-16
2.51432e-16
3.48866e-16
3.43852e-20
8.25011e-16
0
0
-6.10251e-16
7.03676e-16
-7.00766e-16
-2.41024e-16
5.27748e-16
-4.64151e-16
1.0875e-15
5.34347e-16
4.84876e-16
-9.4897e-16
6.558e-16
-1.94145e-16
4.1601e-16
-2.90946e-16
2.12713e-16
2.3004e-17
-4.0237e-16
4.0365e-16
)
;
    }
    left
    {
        type            calculated;
        value           nonuniform List<scalar> 
19
(
-8.06622e-16
-3.85127e-16
3.99171e-16
1.64214e-17
-7.39722e-16
0
-3.32385e-16
-3.27958e-16
-3.44793e-17
-1.78681e-16
-9.12019e-19
-1.79731e-16
8.14443e-16
-1.80063e-16
8.3632e-16
7.2558e-16
4.32674e-16
6.3776e-16
0
)
;
    }
    right
    {
        type            calculated;
        value           nonuniform List<scalar> 
19
(
4.03085e-16
-4.55369e-18
-1.21832e-17
-7.47348e-16
7.64542e-16
-3.6276e-16
3.61281e-16
3.56432e-16
-2.92181e-16
0
0
6.2035e-16
-6.32956e-16
-6.50543e-16
6.50007e-16
-6.37269e-16
6.92666e-16
-1.17676e-15
0
)
;
    }
    frontAndBackPlanes
    {
        type            empty;
    }
}


// ************************************************************************* //
