/*--------------------------------*- C++ -*----------------------------------*\
  =========                 |
  \\      /  F ield         | OpenFOAM: The Open Source CFD Toolbox
   \\    /   O peration     | Website:  https://openfoam.org
    \\  /    A nd           | Version:  7
     \\/     M anipulation  |
\*---------------------------------------------------------------------------*/
FoamFile
{
    version     2.0;
    format      ascii;
    class       volScalarField;
    location    "0.11";
    object      gradTz;
}
// * * * * * * * * * * * * * * * * * * * * * * * * * * * * * * * * * * * * * //

dimensions      [0 -1 0 1 0 0 0];

internalField   nonuniform List<scalar> 
1596
(
-4.83995e-16
-2.31617e-16
2.39444e-16
8.91452e-18
-4.4558e-16
0
-2.01695e-16
-1.98975e-16
-1.87241e-17
-1.07769e-16
-6.19587e-19
-1.08217e-16
4.83954e-16
-1.0818e-16
5.03044e-16
4.35994e-16
2.59864e-16
3.29667e-16
0
4.79326e-16
0
6.49674e-16
-7.33087e-18
-1.88945e-16
1.86447e-16
3.98777e-16
1.81738e-17
1.86098e-16
-9.08773e-17
1.82238e-16
-1.7755e-18
-2.54205e-16
-1.60314e-16
-4.06147e-16
-3.9828e-16
-3.63678e-16
2.08046e-16
0
-2.29231e-16
0
-4.11425e-16
1.15205e-17
3.55256e-16
-1.10135e-16
1.34802e-17
-2.35155e-18
-1.93644e-18
-1.74466e-18
6.00186e-17
0
1.31714e-16
3.69275e-16
-3.67357e-17
3.05961e-17
7.13953e-17
1.15112e-16
0
3.67673e-16
-1.0228e-16
1.01907e-16
0
-9.51189e-17
-1.01165e-16
1.56105e-16
-1.2444e-16
0
0
-5.97577e-17
3.14924e-17
0
-1.06371e-16
-1.30628e-16
9.30234e-17
-1.02445e-16
-5.22733e-18
0
6.50996e-17
1.59431e-16
-1.32405e-16
0
-3.54289e-17
-1.09993e-16
0
1.56635e-16
-1.49536e-17
-1.35767e-17
-2.42523e-17
7.7345e-17
9.98871e-17
1.14285e-17
1.1764e-17
-1.00504e-16
4.98503e-18
4.70785e-17
-2.10846e-17
-1.69053e-17
-2.1725e-16
1.94135e-16
-1.56169e-16
-5.68168e-19
-1.20999e-16
3.28444e-18
-3.29535e-18
-8.51211e-17
0
-1.97752e-17
-9.24131e-17
-8.98714e-17
6.81414e-17
8.24879e-17
-1.09429e-18
-4.96361e-17
-4.77511e-17
3.71692e-17
1.41281e-16
-2.19884e-16
2.27521e-16
1.18649e-16
0
9.42059e-17
5.03519e-17
-2.35509e-17
1.06827e-16
-1.9137e-17
-8.5751e-17
5.1319e-19
-4.73408e-17
-6.83792e-17
-4.96925e-17
4.50183e-17
5.0073e-17
-6.87314e-19
-1.51245e-17
2.17464e-17
3.53699e-16
-3.82183e-16
0
0
-1.07953e-16
0
0
0
5.69161e-17
0
0
4.43818e-17
9.87973e-19
1.80889e-17
-3.99368e-17
0
2.12422e-17
9.08359e-18
0
-2.20004e-16
4.1478e-16
0
0
1.11177e-16
0
-3.39851e-17
3.39507e-17
-5.79324e-17
2.22157e-17
-2.23782e-17
0
3.17827e-17
3.82728e-17
0
-2.19092e-17
-2.16712e-17
-8.05214e-18
5.86071e-16
-2.66629e-16
0
-1.49831e-16
1.48154e-16
0
8.47895e-17
0
0
0
1.83653e-17
-1.84534e-17
0
-2.49578e-17
-6.60904e-18
0
5.34276e-18
1.15762e-17
0
-1.48939e-16
0
0
1.51308e-16
-2.69789e-16
2.39901e-17
9.67658e-18
-2.95347e-17
5.94207e-18
2.19713e-18
-1.88458e-17
-2.62551e-17
0
1.89379e-17
-4.31982e-18
4.38465e-18
1.42568e-17
-9.35305e-18
-3.95102e-18
1.08673e-16
-2.04511e-17
1.05188e-16
3.24569e-16
-2.97381e-17
-1.20245e-16
0
0
0
3.96413e-17
1.34735e-17
4.59317e-17
-1.09139e-17
-1.85991e-17
-9.36421e-18
-5.92868e-18
2.72703e-18
-6.23728e-18
3.69456e-18
-1.29843e-16
1.27926e-16
-2.27745e-16
-3.21482e-16
2.84822e-16
9.36572e-17
-1.63954e-16
1.2518e-16
-9.48942e-17
2.51633e-17
1.54466e-17
-1.28202e-17
5.95648e-18
-5.90352e-18
1.81941e-17
0
-1.45367e-18
1.14116e-17
-1.7364e-18
-8.88561e-16
3.93904e-16
2.60695e-19
-6.70718e-17
1.59339e-17
9.12432e-17
-1.68046e-16
-5.87293e-17
4.35584e-17
-3.19324e-17
-2.34818e-17
0
-2.15697e-17
-6.05139e-18
-9.41141e-18
-5.42071e-18
4.16258e-19
-5.95971e-18
4.57348e-19
1.45169e-16
-1.22195e-16
-4.33037e-22
-8.1315e-17
-1.79035e-16
1.62976e-16
9.06101e-19
5.72316e-17
-4.24099e-17
6.0808e-17
1.32815e-17
9.49496e-18
2.36247e-17
0
1.62271e-17
7.24467e-18
0
2.86864e-18
3.1441e-19
0
1.18543e-16
8.00856e-17
-1.74302e-16
1.72865e-16
-2.42064e-16
1.56489e-16
4.67376e-17
-1.23283e-17
-6.22619e-17
8.60885e-18
-8.56637e-18
-2.04135e-17
6.8294e-18
-3.55077e-18
-6.61592e-18
2.46537e-18
-1.55788e-18
8.12144e-19
-1.34926e-16
4.17991e-16
-3.15326e-16
1.49422e-16
0
0
-2.59544e-17
5.88568e-17
-3.125e-17
5.59839e-17
0
0
1.30349e-17
-1.03107e-17
-5.83334e-18
1.83876e-18
-1.95425e-18
1.07235e-18
0
1.81381e-17
1.26324e-16
-8.91179e-17
-7.24721e-17
-9.91201e-17
-1.95841e-17
4.16207e-17
0
-2.85721e-17
-1.86486e-17
1.56805e-17
-1.06745e-17
7.21291e-18
0
2.37679e-18
3.69636e-18
0
0
0
-1.77027e-17
1.74213e-16
5.21093e-17
-2.20471e-16
5.24684e-17
4.07979e-17
0
0
2.60293e-17
-1.39977e-17
-1.51664e-17
1.03242e-17
-6.97543e-18
0
-1.20743e-18
8.46171e-19
0
-6.58649e-19
-2.34714e-19
-1.00958e-16
2.96722e-16
-3.38905e-16
-1.14481e-16
6.26467e-17
-3.68137e-17
2.68546e-17
0
-1.33139e-17
9.82202e-18
0
0
2.30195e-18
-2.3046e-18
4.87714e-19
-7.93559e-19
8.78452e-19
1.82465e-19
1.79153e-19
5.55372e-17
-4.65949e-17
2.12813e-16
-1.34929e-16
-4.56202e-17
9.17424e-18
5.79706e-17
1.72122e-17
1.27394e-17
0
4.56587e-18
-4.1357e-18
2.71065e-18
-1.91677e-18
1.74918e-18
-2.68876e-18
-6.74404e-19
5.57748e-19
1.30278e-19
1.4178e-16
-1.47243e-16
0
9.97621e-17
-5.51998e-17
-3.23363e-17
1.54932e-17
-5.50355e-17
0
-9.07811e-19
-5.96774e-18
-3.26326e-18
3.66111e-18
-4.63957e-19
-1.69056e-18
1.05953e-18
0
2.76976e-19
-1.26499e-19
2.60047e-16
-4.15825e-17
1.54464e-16
-1.19708e-16
4.96818e-17
-4.32976e-18
-4.98836e-17
-1.19701e-17
1.98574e-17
-1.2949e-18
-7.05812e-18
5.32263e-18
-2.05443e-18
-1.94931e-18
0
0
0
-2.78888e-19
9.66673e-21
-2.19505e-16
2.10539e-16
1.01861e-19
2.50754e-17
1.891e-17
-3.69863e-17
3.90478e-17
-2.66513e-17
1.92042e-17
-4.41811e-18
8.07869e-18
2.08384e-18
-7.50544e-19
4.07932e-20
-1.35626e-19
-2.53239e-19
0
0
0
0
0
8.4259e-17
-5.26543e-17
-1.13397e-16
0
0
-7.59641e-18
-9.88416e-18
6.74157e-18
0
-2.62811e-18
1.63515e-18
-4.16119e-18
4.53399e-18
-1.10578e-18
1.16778e-18
1.10048e-19
0
-4.23758e-17
4.28973e-17
0
-2.70972e-17
2.66535e-17
3.67856e-17
0
7.66895e-18
6.46147e-18
-3.24157e-17
0
-3.11615e-18
1.95908e-18
1.07756e-18
-6.60986e-19
8.4268e-19
0
-2.47164e-19
0
-2.18382e-17
-2.01499e-17
1.18895e-18
2.78417e-17
-6.58226e-17
0
-1.25805e-17
0
2.40443e-17
7.67706e-18
0
1.22782e-17
-1.10788e-17
1.46788e-18
-1.22531e-18
7.44539e-19
1.62126e-18
4.99826e-19
-3.96522e-19
0
4.35589e-17
-3.33931e-17
4.06212e-17
4.11043e-17
0
2.48865e-17
-2.20399e-17
-1.3195e-17
1.53675e-17
-2.25956e-17
-8.257e-18
0
0
9.39474e-19
0
0
1.91517e-19
0
-2.00763e-16
1.5574e-16
0
3.75166e-18
-2.29082e-17
-1.1145e-18
1.70237e-17
8.74239e-18
-1.32646e-17
-2.31219e-17
2.92759e-17
-8.23682e-18
0
-2.35857e-18
0
0
0
-7.51134e-19
6.03539e-19
-5.86059e-17
5.14874e-17
1.24057e-16
-1.17221e-16
3.28315e-17
2.87861e-18
-1.72277e-17
1.2733e-17
1.83664e-17
1.14432e-17
-2.2215e-17
0
7.00538e-18
-3.51595e-19
-2.69676e-18
-4.39926e-18
3.46308e-18
-3.78612e-19
7.9787e-19
-2.04978e-16
2.61773e-16
-2.55561e-16
4.03146e-17
2.99856e-17
-2.70006e-17
2.11198e-17
-1.3864e-17
0
-9.03255e-18
1.12415e-17
4.73738e-18
6.64253e-18
6.21875e-18
-8.87554e-18
-4.69307e-19
0
-3.71697e-19
1.28498e-19
-2.21534e-16
-6.02658e-17
-9.53688e-17
5.29555e-17
-7.26183e-17
5.62382e-17
-3.17132e-17
2.2682e-17
-2.70185e-18
-2.53848e-18
-1.31625e-17
8.52459e-18
-2.65221e-18
8.98926e-18
-9.65006e-18
5.80115e-19
8.25855e-19
0
-2.42515e-19
2.39527e-16
-6.5576e-17
0
0
-7.45004e-17
1.40092e-16
-3.04284e-17
-4.7413e-18
3.5667e-17
-1.12898e-18
0
0
-5.04383e-18
0
-9.11203e-18
2.03988e-17
-1.35798e-17
0
1.11738e-19
7.9584e-17
1.41379e-16
0
-5.36544e-17
-3.77716e-17
-2.87413e-17
-3.20587e-17
1.13541e-17
-2.98718e-17
-1.39331e-17
0
0
8.78046e-18
0
0
-1.36318e-17
2.28945e-17
0
0
5.46763e-16
-7.60731e-17
-3.07244e-16
-1.47766e-16
2.02132e-16
5.74795e-17
3.10849e-17
0
-9.50973e-18
8.08598e-18
2.02668e-17
-6.21992e-18
-7.70492e-18
1.14721e-17
-1.22028e-17
-3.14353e-18
0
0
0
4.37801e-17
-3.24035e-16
3.15879e-16
-2.80991e-17
-1.98442e-16
3.00104e-16
-1.45209e-16
0
0
5.83195e-17
-4.63665e-17
0
-1.14202e-17
2.04206e-17
-1.87945e-18
5.49427e-18
1.5802e-18
2.49669e-20
3.21252e-19
0
0
0
2.41663e-16
-1.63158e-16
1.50469e-16
-2.2995e-16
6.25908e-17
0
-1.89876e-17
2.77214e-17
-2.83329e-17
-4.91782e-18
2.09973e-19
-3.05112e-18
-3.57983e-19
-2.42309e-18
-7.01935e-19
-3.70285e-19
3.60658e-16
-6.29664e-16
2.9183e-16
0
6.68188e-17
-9.17691e-17
8.20058e-17
-6.47868e-17
0
-2.62209e-17
3.68829e-17
0
0
1.94521e-19
0
-3.48403e-18
2.34676e-18
3.45732e-19
6.02676e-19
3.63581e-16
0
-1.28013e-16
1.42646e-16
-8.07466e-17
1.7277e-16
-7.93036e-17
-5.53828e-17
5.59612e-17
-5.28142e-18
0
0
2.95577e-18
-4.61244e-18
-3.19439e-18
5.97243e-18
-1.28647e-18
6.22793e-19
0
2.05988e-16
1.49669e-16
-1.10378e-17
-1.36693e-16
-1.28077e-17
-8.60128e-17
1.30443e-17
6.83835e-17
-3.27522e-18
5.3806e-18
0
0
-3.02799e-18
0
3.39806e-18
-3.63511e-18
0
4.57042e-19
-1.24953e-19
-1.09241e-16
-7.52218e-17
7.05452e-17
-7.54231e-18
-3.23498e-18
8.29053e-18
0
-1.98199e-18
2.7553e-17
-2.31902e-17
0
6.89204e-18
-1.5385e-18
-5.89022e-18
-5.22104e-19
-4.00734e-19
0
-3.58839e-19
0
4.32264e-17
-8.07576e-17
4.42186e-19
3.26369e-17
2.72908e-17
-2.69636e-17
-1.73366e-17
1.95621e-17
-6.09746e-18
4.81267e-18
-4.24394e-18
4.37483e-18
0
1.02881e-20
-3.84902e-19
1.37669e-18
-4.64761e-21
0
0
4.3228e-17
-4.3066e-17
-3.24632e-17
2.88527e-17
4.80856e-17
-4.83694e-17
-8.66871e-18
8.69103e-18
-6.15033e-18
6.21429e-18
-4.2442e-18
7.87702e-18
-2.20981e-18
-1.5108e-18
-4.44059e-19
1.51548e-19
3.47017e-19
9.07758e-20
-6.79844e-20
0
-1.00526e-17
5.63062e-17
-6.13046e-17
4.78714e-17
-4.26037e-17
0
2.89574e-17
-2.60172e-17
0
8.37011e-18
-1.0535e-17
-5.62132e-18
5.8915e-18
1.0288e-18
0
0
-3.58973e-19
1.29926e-19
1.71828e-16
-3.10687e-16
3.04237e-16
-2.55396e-16
9.83564e-17
-7.51165e-17
7.16687e-17
7.75045e-18
-2.70132e-17
2.40487e-17
0
-1.51728e-17
1.38569e-17
-2.45254e-18
-1.00771e-18
1.50073e-18
1.08784e-18
3.48494e-19
-1.25538e-19
4.09074e-16
0
-1.45227e-16
1.13065e-16
1.2661e-17
-8.98754e-17
1.5477e-16
-1.29841e-16
4.96974e-17
-1.89387e-17
1.93854e-17
3.61472e-18
5.73303e-18
2.3888e-18
-1.83675e-18
-2.83538e-19
-2.3365e-18
0
2.22394e-19
3.15775e-16
-3.55488e-16
0
2.92032e-17
1.16502e-16
-1.12783e-16
1.75568e-17
1.46024e-17
6.14438e-18
9.89504e-18
0
0
-9.84523e-18
1.7629e-17
-6.28987e-18
-2.145e-18
2.34842e-18
1.82644e-19
-4.16844e-19
4.32467e-17
3.12703e-16
-3.36199e-17
-2.12966e-16
1.8759e-16
2.05757e-17
-1.71825e-17
-1.42622e-17
4.21311e-17
-5.20862e-17
2.77384e-17
-2.835e-17
3.71795e-18
-5.31492e-18
8.39866e-18
-5.65955e-18
0
0
3.49815e-19
0
7.63795e-17
-2.12157e-16
2.43478e-16
-1.74801e-16
1.74385e-16
0
4.906e-17
-4.92848e-17
-3.20166e-17
4.6418e-17
0
1.61546e-17
-2.04455e-17
-2.90856e-18
0
-2.85011e-19
-4.82665e-19
-5.73642e-20
-7.57382e-16
3.52385e-16
0
-2.02123e-16
2.02103e-16
1.08473e-16
-7.08099e-17
2.51948e-17
0
-9.48347e-19
5.50752e-18
-6.215e-18
-7.70003e-18
1.14643e-17
-1.21904e-17
0
2.08918e-18
-2.83382e-19
-3.03634e-19
4.5844e-16
-4.43782e-16
0
5.27595e-17
4.44786e-17
-3.85804e-17
0
-2.64044e-17
-1.95023e-17
0
-1.92991e-18
0
8.79032e-18
0
0
2.69735e-18
9.66747e-18
-1.28102e-17
0
-1.66316e-20
6.56105e-17
-5.65528e-17
3.94913e-17
-2.04064e-16
7.45381e-17
0
4.74668e-18
1.30573e-17
0
-1.09928e-17
2.58521e-17
-2.71591e-17
3.59974e-18
0
-7.92964e-19
0
0
0
2.41921e-21
0
5.22689e-17
0
-6.52214e-17
6.62582e-17
0
1.74625e-17
-1.2044e-17
4.00776e-17
-1.85569e-17
5.16315e-18
-7.25907e-18
5.74712e-18
-9.67314e-18
-1.4268e-18
0
-5.50613e-19
0
1.73791e-16
-2.95035e-16
0
-3.97277e-17
3.22377e-17
0
0
-3.10008e-17
0
-9.04439e-18
-1.1258e-17
-4.74541e-18
6.6554e-18
0
2.236e-18
0
0
1.11208e-18
-1.12651e-18
0
2.41647e-16
-1.9196e-16
3.67788e-17
-2.98523e-17
-1.01409e-17
2.75459e-17
2.65145e-17
-2.65338e-17
8.34221e-18
1.47245e-18
-4.65058e-18
1.81617e-17
-5.46423e-18
-9.55178e-18
2.93505e-18
-5.43673e-19
3.35465e-19
-7.63427e-20
-4.28124e-16
1.55853e-16
0
0
1.16533e-17
-1.18501e-17
5.77576e-18
1.9883e-18
2.26345e-17
9.28905e-18
-8.51141e-18
-8.45183e-19
-3.06088e-18
2.36337e-18
0
7.15843e-19
4.98316e-19
2.07757e-19
6.9003e-20
0
1.27345e-16
-1.10783e-16
3.3899e-17
2.89196e-17
-5.347e-18
-1.40258e-17
-1.01955e-17
-2.7637e-17
8.92442e-18
-3.45604e-18
6.11138e-18
2.8623e-18
-2.57376e-18
2.73189e-18
1.16893e-18
-1.66086e-18
-1.91894e-19
0
-2.49955e-17
-1.02938e-16
3.35553e-17
2.78515e-17
-8.25732e-17
5.55834e-17
2.0728e-17
-2.11872e-17
1.25277e-17
-8.46972e-18
0
0
-3.4045e-18
5.66494e-18
-2.22337e-18
1.50452e-18
-1.6619e-18
2.24274e-19
-3.97162e-19
4.56216e-17
3.98168e-17
-3.295e-17
2.01835e-17
-2.68852e-17
-3.12358e-17
0
0
0
0
0
0
1.74942e-18
-3.57432e-18
3.78023e-18
-8.81796e-19
1.11479e-18
4.36704e-19
-3.64472e-19
9.69186e-17
-1.43397e-16
1.77821e-16
-6.57408e-17
9.29804e-17
-5.01822e-17
8.70707e-17
-4.36709e-17
-1.61802e-17
1.65516e-17
0
2.62674e-18
-1.7091e-18
3.11104e-18
-1.39743e-18
-1.2671e-18
-1.97514e-18
1.69504e-19
3.01749e-19
1.52146e-16
3.93354e-17
0
-5.00811e-17
-3.2376e-17
6.90306e-17
2.68396e-18
-2.01355e-17
1.06661e-17
-5.72914e-18
0
-2.07936e-18
0
-1.14779e-18
8.16531e-19
-6.10055e-19
-1.87153e-19
1.07637e-19
0
2.10673e-16
-4.15818e-17
1.5457e-16
-1.19956e-16
-2.02156e-17
6.51758e-17
-3.87658e-17
2.82361e-18
1.9023e-18
-5.77932e-18
5.13933e-18
0
0
1.56195e-18
-3.74006e-19
1.92162e-19
6.7164e-19
-2.28254e-19
0
2.81134e-20
0
-3.56764e-17
1.84476e-16
-1.20766e-16
-1.02793e-16
5.53537e-17
-4.23314e-17
3.71469e-17
1.44802e-17
-8.90558e-18
3.09625e-18
-2.48447e-18
5.73119e-19
2.68157e-18
-3.0527e-20
-6.96318e-19
6.55227e-19
-1.39914e-19
4.98558e-16
-1.5576e-16
6.06188e-17
-1.94629e-16
4.56201e-17
-6.09223e-17
3.46365e-17
0
0
-1.01153e-18
-1.66258e-18
-4.59225e-19
0
-2.75881e-18
-1.74922e-18
1.09484e-18
-7.27642e-20
1.81349e-19
2.99909e-19
0
-1.48422e-16
2.26128e-16
3.54511e-17
-1.6276e-16
3.68136e-17
-4.7304e-17
1.32185e-17
3.32469e-17
0
0
4.91861e-19
3.50963e-18
0
-2.11362e-18
-8.01621e-19
1.26167e-19
-3.07019e-19
-4.01903e-19
0
-8.72429e-17
3.29129e-17
1.52739e-16
9.27906e-17
-1.63033e-16
6.94926e-17
-3.70486e-17
2.09102e-17
-2.19733e-17
0
0
0
-4.6962e-18
7.28782e-19
-1.2134e-18
0
-6.16343e-20
2.97443e-19
-3.69069e-16
3.43232e-16
3.22814e-16
-3.88271e-16
1.54438e-16
-1.40983e-16
0
4.02157e-17
-5.20739e-17
2.67843e-17
-1.69207e-17
1.17049e-17
8.06171e-18
4.85691e-18
3.28737e-18
0
0
0
0
4.2299e-16
-2.26987e-16
0
0
-5.93183e-17
1.25095e-16
-7.8878e-17
-4.35516e-17
4.30607e-17
2.51028e-17
3.63558e-17
-1.2145e-17
4.67181e-18
2.84965e-18
1.82941e-18
1.53304e-18
2.37291e-18
-1.10073e-19
1.1212e-19
-4.22162e-16
3.74454e-16
1.77572e-16
-9.55145e-17
1.72371e-16
-1.0905e-16
-7.30456e-17
-5.44031e-17
0
-5.29692e-17
4.5424e-18
1.49034e-17
-9.65792e-18
-6.82962e-18
-2.2777e-18
-2.02881e-18
-1.63486e-18
0
0
-1.45216e-16
0
1.00481e-16
9.39528e-20
0
0
7.53489e-17
5.61363e-17
0
2.9744e-17
0
-2.23423e-17
-5.57299e-18
9.45476e-18
0
5.65008e-18
-7.5669e-19
7.71925e-19
0
3.16324e-16
0
1.87e-16
-3.3443e-16
2.79104e-16
1.94048e-16
-1.10536e-17
0
6.27631e-18
3.81226e-17
0
-2.69895e-17
2.68499e-17
-2.27301e-17
-4.73191e-18
-4.42152e-18
-1.45907e-18
-2.96179e-19
-1.36324e-18
-2.80793e-16
4.00821e-16
-1.04569e-16
-2.53316e-16
-1.34538e-16
-1.05207e-16
-1.61931e-16
-5.43513e-17
7.8467e-18
1.54757e-17
-1.54466e-17
4.1651e-17
-1.7696e-17
3.24179e-17
-5.97703e-18
0
8.15863e-18
-5.29828e-18
1.30552e-18
6.50536e-16
-2.02744e-17
-4.3827e-16
3.24571e-16
-2.72984e-16
2.1553e-16
-1.14359e-17
-6.48814e-17
5.05844e-17
1.69933e-17
-3.51524e-18
-3.60392e-17
9.16536e-18
1.26932e-17
-3.23025e-18
3.26709e-18
-8.45035e-18
-2.41544e-18
-3.0827e-18
3.19355e-16
1.25169e-16
2.06197e-16
-1.66578e-16
-1.20504e-16
1.25521e-17
-7.50069e-17
1.77301e-16
9.20564e-18
6.70918e-17
3.6472e-17
-3.1051e-17
0
-1.89383e-17
0
0
1.70766e-17
6.87758e-18
3.52058e-18
2.92227e-16
0
2.01362e-16
1.65503e-16
-1.33725e-16
1.06664e-16
0
-6.75677e-17
-8.77856e-17
-6.96955e-17
-3.67948e-17
3.14021e-17
0
0
0
0
-1.60905e-17
-1.54291e-17
0
-5.7205e-16
0
-1.75402e-17
-1.59057e-17
2.06355e-16
-1.00525e-16
-4.29623e-17
-4.36094e-17
9.16208e-17
0
2.22156e-17
-2.23544e-18
2.37592e-17
0
0
3.42658e-17
-2.63127e-18
1.85812e-17
-8.86886e-18
3.97614e-16
1.05293e-16
-1.04206e-16
-8.50465e-17
-2.63231e-16
1.6843e-16
1.87706e-16
-9.32816e-18
-6.50686e-17
6.81406e-17
1.35087e-17
-7.29327e-17
-5.56107e-17
-4.12099e-17
-4.49836e-17
-3.96706e-17
4.00691e-17
-1.83047e-18
9.08359e-18
-1.19335e-16
5.09382e-17
-2.39197e-16
3.64642e-17
-3.63315e-17
0
-9.50226e-17
-1.30893e-17
-8.77682e-17
1.49625e-17
8.57503e-17
5.77262e-17
-1.55969e-17
-8.77038e-19
4.23278e-17
0
-8.846e-17
-3.58676e-17
-7.26764e-19
2.5106e-16
-6.24226e-18
3.7634e-16
-1.70186e-16
5.68166e-19
4.09685e-18
1.19238e-16
-1.73261e-17
8.51207e-17
-7.92627e-17
-7.53519e-17
0
8.98703e-17
6.70056e-17
1.05678e-18
-1.5578e-18
5.01234e-17
3.64401e-17
0
-1.76599e-16
0
-3.32712e-17
1.64527e-16
3.84083e-18
3.54762e-17
-1.15301e-16
1.06606e-16
1.23055e-16
1.1899e-16
1.16454e-16
0
-8.73073e-17
0
5.34689e-18
-5.55322e-18
0
-5.85864e-19
2.98407e-17
1.27565e-16
1.09094e-17
-8.56905e-17
2.71026e-16
-8.47249e-17
0
0
-1.50444e-16
-1.19228e-16
-1.15275e-16
-2.23286e-16
-3.14922e-17
0
0
0
-1.19825e-17
1.26804e-17
8.49059e-17
-3.03139e-17
1.15652e-17
0
-1.98401e-16
-1.70519e-16
1.85691e-16
-1.8558e-16
-2.61268e-16
3.06803e-16
9.37687e-17
0
1.37114e-16
1.69288e-16
-3.64842e-17
2.03503e-16
-3.37066e-17
3.50803e-17
1.40816e-16
-8.06912e-17
0
-2.41711e-16
0
-2.26141e-16
2.19502e-16
0
3.74609e-16
1.72034e-16
-3.74406e-16
3.11703e-16
-1.25004e-18
-9.18078e-17
-1.63905e-16
0
2.45959e-16
-4.06147e-16
4.37978e-16
-5.58673e-16
0
0
2.41873e-16
-2.75188e-18
-6.6947e-18
-4.50311e-16
4.59362e-16
-2.18814e-16
2.17922e-16
2.1495e-16
-1.79431e-16
0
0
3.68413e-16
-3.7476e-16
-3.91984e-16
3.9111e-16
-3.82991e-16
4.15883e-16
-6.53141e-16
0
)
;

boundaryField
{
    up
    {
        type            calculated;
        value           nonuniform List<scalar> 
84
(
0
0
0
0
-2.10846e-17
3.71692e-17
-1.51245e-17
9.08359e-18
-8.05214e-18
0
-3.95102e-18
3.69456e-18
-1.7364e-18
4.57348e-19
3.1441e-19
8.12144e-19
0
0
-2.34714e-19
1.79153e-19
1.30278e-19
-1.26499e-19
9.66673e-21
0
4.63935e-20
2.95766e-20
-3.62505e-19
0
6.03539e-19
8.85002e-19
1.28498e-19
-2.42515e-19
1.11738e-19
0
-2.95177e-20
3.23255e-19
-3.6369e-19
5.97114e-19
0
-1.23463e-19
0
0
-6.78156e-20
1.29926e-19
-1.25538e-19
2.22394e-19
-4.16844e-19
3.49815e-19
-5.73642e-20
-3.03634e-19
0
0
0
-1.12651e-18
-1.63902e-19
6.9003e-20
0
-3.97162e-19
-3.64472e-19
2.55452e-19
0
0
-1.39914e-19
2.99909e-19
-4.01903e-19
2.97443e-19
0
1.1212e-19
0
0
-1.36324e-18
1.30552e-18
-3.0827e-18
3.52058e-18
0
-8.86886e-18
9.08359e-18
-7.26764e-19
0
2.98407e-17
-3.03139e-17
0
0
0
)
;
    }
    low
    {
        type            calculated;
        value           nonuniform List<scalar> 
84
(
-4.8461e-16
4.79326e-16
-2.28109e-16
3.68558e-16
6.56814e-17
-1.7072e-17
1.42639e-16
2.30108e-17
0
5.87525e-16
-1.48939e-16
1.07772e-16
-1.29843e-16
-8.88821e-16
1.45169e-16
0
-1.34926e-16
1.81381e-17
-1.77027e-17
-1.00958e-16
5.55372e-17
1.4178e-16
2.58727e-16
-2.19505e-16
0
-4.23758e-17
-2.18382e-17
0
-2.00763e-16
-5.86059e-17
-2.0423e-16
-2.21026e-16
2.39289e-16
7.9584e-17
5.47059e-16
4.37801e-17
0
3.60658e-16
3.6481e-16
2.06635e-16
-1.09577e-16
4.32264e-17
4.3228e-17
0
1.71828e-16
4.10302e-16
3.15775e-16
4.42062e-17
0
-7.57676e-16
4.5844e-16
-1.66316e-20
2.41921e-21
1.73791e-16
0
-4.26661e-16
0
-2.49955e-17
4.56216e-17
9.60195e-17
1.5065e-16
2.09352e-16
2.81134e-20
4.97622e-16
0
0
-3.69069e-16
4.22762e-16
-4.22113e-16
-1.45216e-16
3.16585e-16
-2.80793e-16
6.52339e-16
3.20523e-16
2.92227e-16
-5.7205e-16
3.9635e-16
-1.17977e-16
2.5106e-16
-1.76017e-16
1.27565e-16
1.26868e-17
-2.41711e-16
2.4218e-16
)
;
    }
    left
    {
        type            calculated;
        value           nonuniform List<scalar> 
19
(
-4.83995e-16
-2.31887e-16
2.39444e-16
9.00804e-18
-4.45884e-16
0
-2.01695e-16
-1.98975e-16
-1.96231e-17
-1.07769e-16
-6.19587e-19
-1.08217e-16
4.8867e-16
-1.0818e-16
5.03044e-16
4.35994e-16
2.59864e-16
3.82639e-16
0
)
;
    }
    right
    {
        type            calculated;
        value           nonuniform List<scalar> 
19
(
2.41873e-16
-2.48174e-18
-6.6947e-18
-4.50405e-16
4.59666e-16
-2.18814e-16
2.17922e-16
2.1495e-16
-1.78532e-16
0
0
3.71877e-16
-3.79476e-16
-3.91984e-16
3.9111e-16
-3.82991e-16
4.15883e-16
-7.06113e-16
0
)
;
    }
    frontAndBackPlanes
    {
        type            empty;
    }
}


// ************************************************************************* //
