/*--------------------------------*- C++ -*----------------------------------*\
  =========                 |
  \\      /  F ield         | OpenFOAM: The Open Source CFD Toolbox
   \\    /   O peration     | Website:  https://openfoam.org
    \\  /    A nd           | Version:  7
     \\/     M anipulation  |
\*---------------------------------------------------------------------------*/
FoamFile
{
    version     2.0;
    format      ascii;
    class       volScalarField;
    location    "0.11";
    object      T;
}
// * * * * * * * * * * * * * * * * * * * * * * * * * * * * * * * * * * * * * //

dimensions      [0 0 0 1 0 0 0];

internalField   nonuniform List<scalar> 
1596
(
2.9858
2.94543
2.90517
2.86901
2.83845
2.81356
2.79387
2.77802
2.76496
2.75234
2.73844
2.72077
2.69454
2.65363
2.58922
2.48297
2.30173
1.9799
1.38592
2.93914
2.81455
2.70027
2.6008
2.51763
2.45011
2.39661
2.35406
2.31959
2.28859
2.25716
2.22046
2.17066
2.09874
1.99424
1.83954
1.60936
1.26195
0.719223
2.88547
2.67863
2.4977
2.3435
2.21568
2.11235
2.03064
1.9663
1.91523
1.87165
1.83055
1.7861
1.72982
1.65242
1.54404
1.39008
1.1725
0.865769
0.424399
2.83497
2.55439
2.31556
2.11466
1.94904
1.81548
1.71004
1.62765
1.5634
1.51094
1.4648
1.41879
1.36469
1.29375
1.19716
1.06292
0.877719
0.625335
0.278733
2.79617
2.45564
2.16854
1.92817
1.73025
1.57056
1.44441
1.34623
1.27061
1.21096
1.1616
1.11635
1.06747
1.00696
0.926978
0.81739
0.667761
0.466772
0.197304
2.77337
2.38973
2.06438
1.79103
1.56511
1.38214
1.23709
1.12418
1.0377
0.971034
0.918425
0.873766
0.82987
0.779473
0.715517
0.629253
0.511982
0.354931
0.14615
2.7656
2.35603
2.0025
1.70223
1.45201
1.24793
1.08512
0.957864
0.860405
0.786144
0.729329
0.683953
0.643314
0.600783
0.549986
0.483247
0.393037
0.271973
0.110824
2.76833
2.34775
1.97565
1.65442
1.3835
1.16037
0.980837
0.839587
0.730961
0.648473
0.586387
0.538782
0.499347
0.46198
0.420895
0.369314
0.300615
0.208311
0.0847215
2.77773
2.35749
1.97511
1.63845
1.35032
1.11024
0.915171
0.760433
0.64067
0.549569
0.481421
0.430362
0.39036
0.355728
0.321168
0.280676
0.228418
0.15862
0.0646478
2.78757
2.37388
1.98775
1.64096
1.33956
1.08529
0.876561
0.709564
0.579393
0.479974
0.405647
0.35058
0.308928
0.27531
0.244821
0.212118
0.172076
0.119586
0.0488853
2.79454
2.38871
2.00293
1.65055
1.33988
1.07469
0.854838
0.677503
0.538329
0.431539
0.351554
0.292565
0.248847
0.21523
0.187116
0.159716
0.128535
0.0891086
0.0364791
2.80184
2.40389
2.01998
1.66444
1.34715
1.07346
0.844591
0.658635
0.51183
0.398707
0.313779
0.251247
0.205436
0.171303
0.144461
0.120556
0.0956288
0.0658055
0.0268768
2.8078
2.41674
2.03499
1.67762
1.3556
1.0755
0.839611
0.646864
0.494014
0.375873
0.287034
0.221686
0.174157
0.139463
0.113352
0.0917888
0.071244
0.0483601
0.0196003
2.81023
2.42328
2.0431
1.68464
1.3595
1.07501
0.834278
0.636829
0.479829
0.358303
0.266892
0.199754
0.151194
0.116248
0.0907423
0.07088
0.0534618
0.0355595
0.014211
2.8114
2.42564
2.04539
1.68551
1.35787
1.0703
0.826361
0.625978
0.46654
0.343174
0.250507
0.182634
0.133812
0.0990654
0.0742669
0.055788
0.0406807
0.0263567
0.0103196
2.81204
2.4253
2.04308
1.68074
1.3505
1.06048
0.814509
0.612624
0.452248
0.328462
0.235789
0.168209
0.119904
0.0858719
0.0620082
0.0448102
0.031521
0.0198164
0.00756392
2.8112
2.42136
2.0354
1.66947
1.3363
1.04428
0.79727
0.595224
0.435369
0.312573
0.221141
0.154885
0.10789
0.075118
0.0524876
0.0366027
0.0248627
0.015154
0.00562694
2.80944
2.4146
2.0232
1.65246
1.31579
1.0219
0.774575
0.573468
0.415402
0.294854
0.205793
0.141794
0.0968242
0.0658123
0.044707
0.0302174
0.0198841
0.011772
0.00425624
2.80945
2.40934
2.01109
1.63396
1.29261
0.996244
0.748575
0.548842
0.393272
0.275778
0.18986
0.128778
0.0863468
0.0574536
0.0380822
0.0250495
0.0160304
0.00924876
0.00326644
2.81052
2.40568
1.9998
1.61501
1.2678
0.968221
0.719992
0.521857
0.369291
0.255483
0.173326
0.11569
0.0762029
0.0497038
0.0322218
0.0206906
0.0129223
0.00729212
0.00252656
2.81087
2.40143
1.9877
1.59464
1.24093
0.937739
0.688926
0.492696
0.34365
0.234113
0.156266
0.102522
0.0663017
0.0424018
0.0269124
0.0169005
0.010326
0.00571629
0.00195146
2.81177
2.39816
1.97662
1.57495
1.21419
0.906916
0.657268
0.462936
0.317581
0.21257
0.139287
0.0896406
0.0568224
0.0355884
0.0221001
0.0135689
0.00811024
0.00440773
0.00148803
2.81392
2.39736
1.96854
1.55821
1.19003
0.878161
0.627205
0.434419
0.292531
0.191914
0.123111
0.0774911
0.0480031
0.0293546
0.0177783
0.010629
0.00617905
0.00327242
0.0010893
2.81706
2.3992
1.96417
1.54573
1.17019
0.853431
0.600673
0.408872
0.2699
0.173186
0.108444
0.0665052
0.0400675
0.0237809
0.0139354
0.00801206
0.00442625
0.00217973
0.000641463
2.8238
2.41339
1.98106
1.56174
1.18318
0.862587
0.606214
0.411571
0.270687
0.172875
0.107631
0.0655574
0.0391786
0.0230281
0.0133285
0.00752573
0.00402976
0.00186782
0.00047414
2.83204
2.43566
2.01387
1.60057
1.2234
0.900356
0.638968
0.438128
0.290992
0.187623
0.117851
0.0723444
0.0435123
0.0257003
0.0149304
0.00846429
0.0045619
0.00214188
0.0005629
2.83677
2.45154
2.04028
1.63483
1.26168
0.938665
0.674097
0.468047
0.314885
0.205639
0.130731
0.0810966
0.0491667
0.0291734
0.0169639
0.00960129
0.00516448
0.00242661
0.000644447
2.83803
2.46043
2.05911
1.663
1.29645
0.97628
0.710885
0.501183
0.342706
0.227588
0.147076
0.092605
0.056812
0.0339442
0.01975
0.0111154
0.00592056
0.00275194
0.000724156
2.83733
2.46498
2.07312
1.68746
1.32955
1.01456
0.750425
0.538561
0.375531
0.254619
0.168061
0.107987
0.0674208
0.0407775
0.0238226
0.0133321
0.00700131
0.00319232
0.000820366
2.83505
2.46677
2.08446
1.71019
1.36249
1.05451
0.793384
0.580734
0.413977
0.287509
0.194621
0.128268
0.0820084
0.0505653
0.0298647
0.0166952
0.00864509
0.00385033
0.000958123
2.83236
2.46854
2.09632
1.73418
1.39767
1.09789
0.841014
0.628651
0.458906
0.327181
0.227816
0.154639
0.101823
0.0644961
0.0388691
0.0218981
0.0112319
0.00487795
0.00117149
2.83181
2.47412
2.11266
1.76299
1.43801
1.14694
0.894965
0.683573
0.511402
0.374727
0.268863
0.188498
0.128425
0.0842015
0.0523663
0.0301541
0.0154972
0.00655292
0.00149464
2.83214
2.48171
2.13167
1.79494
1.48202
1.20038
0.95422
0.744812
0.571174
0.430307
0.31841
0.230992
0.163449
0.11174
0.0726804
0.0437381
0.0232208
0.00978435
0.00197626
2.83305
2.49085
2.15289
1.82963
1.52936
1.25793
1.01859
0.81232
0.638399
0.494417
0.377354
0.283508
0.20887
0.149787
0.103265
0.0668053
0.0388057
0.0183228
0.00446248
2.83354
2.49826
2.1707
1.85932
1.57057
1.30887
1.0766
0.874352
0.701508
0.556037
0.435502
0.336836
0.256572
0.191458
0.138676
0.095631
0.0604255
0.0319032
0.00924814
2.83085
2.49631
2.17337
1.86877
1.58746
1.3327
1.10611
0.907882
0.737257
0.592281
0.47077
0.369962
0.286704
0.218029
0.161368
0.114219
0.0746569
0.0413045
0.0129287
2.82589
2.48809
2.16607
1.86483
1.58804
1.33803
1.11575
0.920975
0.752752
0.609044
0.487732
0.386186
0.301399
0.230591
0.171415
0.121576
0.079393
0.0437583
0.0136166
2.82238
2.48257
2.16169
1.86341
1.59041
1.3443
1.12554
0.933567
0.767257
0.624518
0.503285
0.401038
0.3149
0.242246
0.180915
0.128767
0.0842808
0.0465134
0.0145073
2.82068
2.4801
2.16037
1.86442
1.59431
1.35114
1.13498
0.945053
0.780098
0.637978
0.516668
0.413738
0.326404
0.252163
0.189002
0.134898
0.0884586
0.0488786
0.0152827
2.81957
2.47859
2.1598
1.86562
1.59766
1.35667
1.14244
0.954016
0.790048
0.648363
0.526966
0.423488
0.335219
0.259748
0.195169
0.139557
0.0916168
0.0506561
0.0158655
2.81868
2.47724
2.15901
1.86603
1.59955
1.36006
1.14718
0.959799
0.796532
0.655171
0.533741
0.429914
0.341029
0.264735
0.199207
0.142584
0.0936448
0.0517792
0.0162286
2.81733
2.47518
2.15722
1.86497
1.59942
1.36088
1.14884
0.962147
0.799365
0.658277
0.536918
0.432987
0.343847
0.267181
0.201206
0.144096
0.0946665
0.0523509
0.0164173
2.81734
2.47519
2.15724
1.865
1.59945
1.36091
1.14887
0.962177
0.799393
0.658303
0.536942
0.433009
0.343866
0.267198
0.201219
0.144106
0.0946742
0.0523555
0.0164189
2.8187
2.47729
2.15908
1.86611
1.59964
1.36015
1.14727
0.959888
0.796618
0.655252
0.533815
0.429981
0.341088
0.264786
0.199249
0.142617
0.0936688
0.0517937
0.0162337
2.81959
2.47866
2.1599
1.86575
1.5978
1.35681
1.14259
0.95416
0.790186
0.648492
0.527085
0.423595
0.335314
0.259828
0.195236
0.139609
0.0916544
0.0506787
0.0158733
2.82071
2.48019
2.1605
1.86459
1.59449
1.35133
1.13518
0.945247
0.780284
0.638152
0.516828
0.41388
0.326529
0.25227
0.18909
0.134967
0.0885079
0.0489083
0.015293
2.82243
2.48269
2.16186
1.86361
1.59064
1.34454
1.12579
0.933808
0.767487
0.624733
0.50348
0.401213
0.315053
0.242376
0.181022
0.12885
0.0843398
0.0465489
0.0145195
2.82594
2.48822
2.16627
1.86507
1.58831
1.33831
1.11603
0.921258
0.75302
0.609293
0.487958
0.386386
0.301573
0.230737
0.171534
0.121667
0.0794572
0.0437963
0.0136294
2.83091
2.49646
2.1736
1.86905
1.58777
1.33303
1.10644
0.908205
0.737562
0.592562
0.471023
0.370184
0.286893
0.218186
0.161492
0.114312
0.07472
0.0413405
0.0129406
2.83361
2.49848
2.17105
1.85977
1.5711
1.30944
1.07718
0.87493
0.702063
0.556553
0.435973
0.337256
0.256943
0.19178
0.138953
0.0958628
0.0606101
0.0320303
0.00929909
2.83314
2.49112
2.1533
1.83016
1.52998
1.25859
1.01927
0.812989
0.639032
0.494999
0.377876
0.283967
0.209266
0.150124
0.103547
0.0670308
0.0389724
0.0184259
0.00449814
2.83221
2.48194
2.13203
1.79541
1.48257
1.20096
0.95481
0.74538
0.5717
0.430778
0.318819
0.23134
0.163738
0.111974
0.0728627
0.0438706
0.023305
0.00982527
0.00198453
2.83188
2.47434
2.11301
1.76345
1.43854
1.1475
0.895515
0.684094
0.511874
0.375138
0.26921
0.188784
0.128654
0.0843786
0.0524968
0.0302425
0.0155488
0.00657586
0.00149938
2.83243
2.46874
2.09665
1.73461
1.39816
1.09841
0.841522
0.629123
0.459324
0.327536
0.228108
0.154872
0.102002
0.0646296
0.038963
0.0219586
0.0112657
0.00489261
0.00117445
2.83511
2.46696
2.08476
1.71059
1.36294
1.05498
0.793847
0.581157
0.414343
0.287812
0.194864
0.128455
0.0821481
0.0506654
0.0299324
0.0167372
0.00866793
0.00386012
0.000960093
2.83738
2.46515
2.0734
1.68782
1.32997
1.01499
0.750839
0.538933
0.375846
0.254874
0.16826
0.108135
0.0675286
0.0408523
0.0238715
0.0133616
0.00701707
0.00319909
0.000821769
2.83807
2.46058
2.05936
1.66333
1.29682
0.976663
0.711247
0.501502
0.342971
0.227798
0.147236
0.0927222
0.0568948
0.0340001
0.0197857
0.0111365
0.00593185
0.00275691
0.000725277
2.83681
2.45167
2.0405
1.63512
1.262
0.938995
0.674405
0.468314
0.315105
0.205811
0.130859
0.0811888
0.0492306
0.0292158
0.0169907
0.00961716
0.00517313
0.00243065
0.000645493
2.83207
2.43577
2.01405
1.60081
1.22368
0.900632
0.639224
0.438348
0.291172
0.187762
0.117953
0.0724177
0.0435627
0.0257335
0.0149515
0.00847698
0.0045691
0.0021455
0.000564001
2.8238
2.41341
1.98111
1.56181
1.18325
0.862665
0.606288
0.411638
0.270743
0.17292
0.107665
0.0655824
0.039196
0.0230397
0.0133357
0.00752972
0.0040316
0.00186827
0.000473914
2.81705
2.39918
1.96413
1.54568
1.17013
0.853375
0.600623
0.40883
0.269867
0.173162
0.108426
0.0664925
0.0400586
0.0237746
0.0139309
0.00800876
0.00442386
0.00217804
0.000640568
2.81391
2.39736
1.96853
1.5582
1.19003
0.878162
0.627208
0.434424
0.292536
0.191919
0.123115
0.0774944
0.0480053
0.029356
0.017779
0.0106294
0.00617917
0.00327238
0.00108919
2.81177
2.39815
1.97662
1.57494
1.21419
0.906917
0.657271
0.46294
0.317585
0.212574
0.13929
0.0896425
0.0568237
0.0355892
0.0221006
0.0135692
0.00811044
0.00440782
0.00148803
2.81087
2.40142
1.98769
1.59464
1.24093
0.93774
0.688928
0.492698
0.343653
0.234116
0.156268
0.102524
0.0663026
0.0424025
0.026913
0.016901
0.0103264
0.00571658
0.00195153
2.81052
2.40568
1.9998
1.61501
1.2678
0.968222
0.719993
0.521858
0.369293
0.255484
0.173327
0.115691
0.0762037
0.0497047
0.0322227
0.0206914
0.0129231
0.00729266
0.00252672
2.80945
2.40934
2.01108
1.63396
1.29261
0.996245
0.748576
0.548843
0.393272
0.275779
0.18986
0.128779
0.0863478
0.0574547
0.0380835
0.0250508
0.0160317
0.0092496
0.00326668
2.80944
2.4146
2.0232
1.65246
1.31579
1.0219
0.774576
0.573468
0.415402
0.294854
0.205793
0.141795
0.0968254
0.0658139
0.0447089
0.0302194
0.0198859
0.0117732
0.00425659
2.8112
2.42136
2.0354
1.66947
1.3363
1.04428
0.79727
0.595224
0.435369
0.312573
0.221142
0.154887
0.107892
0.0751203
0.0524902
0.0366054
0.024865
0.0151556
0.00562735
2.81204
2.4253
2.04308
1.68074
1.3505
1.06048
0.814509
0.612623
0.452247
0.328462
0.235789
0.168211
0.119907
0.085875
0.0620117
0.0448138
0.031524
0.0198182
0.00756435
2.8114
2.42564
2.04539
1.68551
1.35787
1.0703
0.826361
0.625977
0.46654
0.343174
0.250508
0.182636
0.133815
0.0990694
0.0742713
0.0557922
0.040684
0.0263585
0.0103199
2.81023
2.42328
2.0431
1.68465
1.3595
1.07501
0.834277
0.636829
0.479829
0.358304
0.266893
0.199757
0.151198
0.116253
0.0907472
0.0708843
0.0534649
0.0355609
0.0142112
2.8078
2.41674
2.03499
1.67762
1.3556
1.0755
0.83961
0.646863
0.494013
0.375874
0.287037
0.22169
0.174162
0.139469
0.113356
0.0917926
0.0712462
0.0483607
0.0196001
2.80184
2.40389
2.01998
1.66444
1.34715
1.07346
0.84459
0.658634
0.51183
0.398708
0.313782
0.251251
0.20544
0.171307
0.144465
0.120558
0.0956293
0.0658049
0.0268763
2.79454
2.38871
2.00294
1.65055
1.33988
1.07468
0.854838
0.677503
0.53833
0.431541
0.351557
0.292569
0.248851
0.215233
0.187118
0.159715
0.128533
0.0891066
0.0364783
2.78758
2.37388
1.98775
1.64096
1.33956
1.08529
0.876559
0.709564
0.579394
0.479976
0.405649
0.350582
0.30893
0.27531
0.244819
0.212115
0.172072
0.119582
0.0488847
2.77773
2.35749
1.97511
1.63844
1.35032
1.11024
0.915169
0.760432
0.640671
0.54957
0.481422
0.430362
0.390358
0.355725
0.321163
0.280669
0.228412
0.158616
0.0646475
2.76833
2.34774
1.97565
1.65442
1.3835
1.16036
0.980836
0.839586
0.730961
0.648473
0.586385
0.538779
0.499342
0.461973
0.420886
0.369305
0.300608
0.208308
0.0847218
2.7656
2.35603
2.0025
1.70223
1.45201
1.24793
1.08511
0.957863
0.860403
0.786141
0.729324
0.683946
0.643306
0.600773
0.549976
0.483238
0.393031
0.271971
0.110825
2.77337
2.38973
2.06438
1.79102
1.56511
1.38214
1.23709
1.12418
1.0377
0.971029
0.918418
0.873756
0.829859
0.779461
0.715507
0.629245
0.511978
0.354931
0.146151
2.79617
2.45564
2.16854
1.92817
1.73024
1.57055
1.44441
1.34623
1.2706
1.21095
1.1616
1.11634
1.06745
1.00695
0.92697
0.817385
0.667761
0.466774
0.197306
2.83497
2.55439
2.31556
2.11466
1.94904
1.81548
1.71003
1.62764
1.56339
1.51093
1.46479
1.41878
1.36468
1.29374
1.19716
1.06291
0.877722
0.625338
0.278734
2.88547
2.67863
2.4977
2.3435
2.21568
2.11235
2.03064
1.9663
1.91523
1.87164
1.83055
1.78609
1.72981
1.65241
1.54403
1.39008
1.1725
0.865772
0.424399
2.93914
2.81455
2.70027
2.6008
2.51763
2.45011
2.39661
2.35405
2.31959
2.28858
2.25715
2.22045
2.17066
2.09874
1.99424
1.83954
1.60936
1.26195
0.719222
2.9858
2.94543
2.90517
2.86901
2.83845
2.81356
2.79387
2.77802
2.76496
2.75234
2.73844
2.72077
2.69454
2.65363
2.58923
2.48297
2.30173
1.9799
1.38592
)
;

boundaryField
{
    up
    {
        type            fixedValue;
        value           uniform 0;
    }
    low
    {
        type            fixedValue;
        value           uniform 3;
    }
    left
    {
        type            fixedValue;
        value           uniform 3;
    }
    right
    {
        type            fixedValue;
        value           uniform 3;
    }
    frontAndBackPlanes
    {
        type            empty;
    }
}


// ************************************************************************* //
