/*--------------------------------*- C++ -*----------------------------------*\
  =========                 |
  \\      /  F ield         | OpenFOAM: The Open Source CFD Toolbox
   \\    /   O peration     | Website:  https://openfoam.org
    \\  /    A nd           | Version:  7
     \\/     M anipulation  |
\*---------------------------------------------------------------------------*/
FoamFile
{
    version     2.0;
    format      ascii;
    class       volScalarField;
    location    "0.146";
    object      gradTx;
}
// * * * * * * * * * * * * * * * * * * * * * * * * * * * * * * * * * * * * * //

dimensions      [0 -1 0 1 0 0 0];

internalField   nonuniform List<scalar> 
1596
(
-0.181365
-0.909025
-1.61966
-2.2447
-2.77408
-3.20247
-3.55044
-3.83184
-4.06705
-4.29329
-4.52364
-4.80283
-5.18084
-5.72548
-6.51308
-7.72371
-9.62797
-12.8058
-18.456
0.0424907
-0.749321
-1.44773
-2.03945
-2.53418
-2.93223
-3.25265
-3.50287
-3.69881
-3.86128
-3.99602
-4.12906
-4.27325
-4.44568
-4.64578
-4.86683
-5.03701
-5.00379
-4.43794
0.227467
-0.596107
-1.2662
-1.81451
-2.26555
-2.62626
-2.9133
-3.13191
-3.29319
-3.40921
-3.48173
-3.52566
-3.54236
-3.5351
-3.49594
-3.40804
-3.21571
-2.81728
-2.00661
0.261604
-0.501862
-1.10421
-1.59025
-1.98697
-2.30417
-2.55488
-2.74327
-2.87663
-2.96157
-2.99851
-2.99529
-2.94992
-2.86114
-2.72198
-2.51874
-2.21718
-1.759
-1.02429
0.095529
-0.502016
-0.990235
-1.39185
-1.72284
-1.99039
-2.20233
-2.36157
-2.4722
-2.53705
-2.55637
-2.5332
-2.46482
-2.34839
-2.17902
-1.94676
-1.63245
-1.20478
-0.597334
-0.251932
-0.61127
-0.947482
-1.24424
-1.49829
-1.70954
-1.87942
-2.00872
-2.09869
-2.14923
-2.16057
-2.13239
-2.06184
-1.94526
-1.77913
-1.55568
-1.26449
-0.889035
-0.393528
-0.710297
-0.820099
-0.987148
-1.16537
-1.33321
-1.48148
-1.60495
-1.70152
-1.76973
-1.80712
-1.8136
-1.78648
-1.72274
-1.61811
-1.46956
-1.27022
-1.0141
-0.692068
-0.284907
-1.1855
-1.0863
-1.09368
-1.15251
-1.23098
-1.31244
-1.38621
-1.44706
-1.49108
-1.51393
-1.51482
-1.48949
-1.43461
-1.34541
-1.21884
-1.04824
-0.829529
-0.55689
-0.219639
-1.67377
-1.43287
-1.30254
-1.24394
-1.22736
-1.23357
-1.24903
-1.26591
-1.27836
-1.28051
-1.27047
-1.2429
-1.19392
-1.11826
-1.01242
-0.869635
-0.686187
-0.457355
-0.176264
-1.96537
-1.67785
-1.46932
-1.32856
-1.23782
-1.1812
-1.14575
-1.12273
-1.10535
-1.087
-1.06487
-1.03316
-0.987605
-0.922755
-0.83476
-0.716934
-0.565507
-0.376091
-0.143483
-2.2056
-1.90227
-1.64892
-1.44866
-1.29614
-1.1821
-1.09695
-1.03282
-0.983071
-0.941001
-0.903092
-0.863394
-0.81728
-0.759189
-0.684912
-0.587852
-0.463935
-0.308675
-0.117426
-2.45515
-2.15489
-1.87485
-1.62862
-1.42128
-1.25132
-1.11431
-1.00493
-0.917764
-0.846646
-0.78766
-0.734813
-0.683096
-0.626772
-0.561237
-0.479944
-0.378434
-0.251956
-0.0958549
-2.53377
-2.27475
-2.00359
-1.74402
-1.5094
-1.30522
-1.13239
-0.989089
-0.87206
-0.776467
-0.698701
-0.633172
-0.57485
-0.518097
-0.45817
-0.388792
-0.305363
-0.203084
-0.0773093
-2.56716
-2.35142
-2.10211
-1.84408
-1.59562
-1.36808
-1.16733
-0.995421
-0.851769
-0.73331
-0.637193
-0.558427
-0.492122
-0.43279
-0.375615
-0.314601
-0.245085
-0.162318
-0.0617281
-2.58365
-2.40628
-2.18242
-1.9339
-1.68046
-1.43748
-1.21504
-1.01903
-0.851734
-0.712124
-0.598434
-0.506388
-0.431334
-0.367946
-0.311356
-0.255797
-0.196594
-0.129098
-0.0488692
-2.54469
-2.40859
-2.21524
-1.98486
-1.73693
-1.48903
-1.25431
-1.04199
-0.85714
-0.700868
-0.572744
-0.469361
-0.386457
-0.318935
-0.261955
-0.209969
-0.158351
-0.102606
-0.0384884
-2.44487
-2.34894
-2.18957
-1.98431
-1.7513
-1.50882
-1.27186
-1.05219
-0.857291
-0.690326
-0.552305
-0.440806
-0.352098
-0.281413
-0.224031
-0.174637
-0.12871
-0.0819443
-0.0303273
-2.32078
-2.25147
-2.12268
-1.94418
-1.73087
-1.50031
-1.26826
-1.04817
-0.849469
-0.677083
-0.5334
-0.416988
-0.324707
-0.252165
-0.194818
-0.14758
-0.10606
-0.0661486
-0.0240694
-2.2178
-2.16959
-2.06383
-1.90649
-1.70951
-1.4894
-1.26223
-1.04266
-0.841626
-0.665521
-0.517853
-0.398012
-0.303318
-0.229653
-0.172581
-0.127153
-0.0890588
-0.0543291
-0.0193869
-2.01577
-1.9971
-1.92018
-1.79126
-1.62008
-1.42129
-1.21035
-1.00217
-0.808591
-0.637106
-0.492218
-0.374186
-0.280929
-0.208776
-0.153568
-0.110616
-0.0757783
-0.0452924
-0.0158464
-1.78256
-1.78747
-1.73719
-1.63625
-1.49249
-1.31863
-1.12895
-0.937895
-0.757593
-0.596146
-0.45873
-0.346336
-0.257452
-0.188909
-0.136911
-0.0970874
-0.0654965
-0.0385566
-0.0132409
-1.53135
-1.55116
-1.523
-1.44806
-1.33195
-1.18517
-1.02045
-0.851221
-0.689235
-0.542713
-0.417119
-0.313975
-0.23227
-0.16937
-0.121941
-0.0860333
-0.0579344
-0.0341302
-0.0116383
-1.2444
-1.27105
-1.26104
-1.21166
-1.12551
-1.01031
-0.876554
-0.735847
-0.598938
-0.47362
-0.365251
-0.275733
-0.204519
-0.149612
-0.10833
-0.077376
-0.0534371
-0.0330219
-0.0124291
-0.913027
-0.901501
-0.864303
-0.80256
-0.721268
-0.62756
-0.529221
-0.433241
-0.345305
-0.268814
-0.20536
-0.154771
-0.115599
-0.0859781
-0.0640004
-0.0477122
-0.0351213
-0.0238037
-0.0104339
-0.610336
-0.673581
-0.729851
-0.764403
-0.76903
-0.741751
-0.686542
-0.610995
-0.524774
-0.436787
-0.35397
-0.280951
-0.219338
-0.169461
-0.130603
-0.10151
-0.0802304
-0.0644067
-0.0505081
-0.204625
-0.229804
-0.260024
-0.287481
-0.306462
-0.313445
-0.307753
-0.290626
-0.265331
-0.235557
-0.204392
-0.17464
-0.147201
-0.122767
-0.101663
-0.0845278
-0.0713563
-0.0621952
-0.0562638
0.202373
0.173645
0.129231
0.0760573
0.0213175
-0.0287103
-0.0697357
-0.0995686
-0.118473
-0.128171
-0.130629
-0.128266
-0.122077
-0.113044
-0.102032
-0.0907715
-0.0805318
-0.072675
-0.0673303
0.605888
0.566971
0.503949
0.424211
0.335986
0.247304
0.164824
0.0930238
0.0338043
-0.0130184
-0.0484601
-0.0743932
-0.0915714
-0.100675
-0.102356
-0.0987979
-0.0923119
-0.085772
-0.0804881
0.965617
0.908252
0.823004
0.718192
0.602265
0.483707
0.369947
0.266291
0.175645
0.0986322
0.0348392
-0.0171551
-0.0576938
-0.0866711
-0.103581
-0.109979
-0.108419
-0.103308
-0.0976257
1.33081
1.24874
1.13732
1.00514
0.86102
0.713809
0.571279
0.438991
0.320244
0.215939
0.12584
0.0485319
-0.0163035
-0.0679406
-0.104206
-0.124819
-0.131038
-0.128197
-0.121563
1.59627
1.4867
1.35151
1.19881
1.03704
0.874147
0.716873
0.569822
0.435775
0.315312
0.208051
0.112269
0.0272356
-0.0462936
-0.104594
-0.144568
-0.163629
-0.165583
-0.15725
1.83521
1.70275
1.54463
1.3722
1.19429
1.018
0.848944
0.690682
0.545335
0.413017
0.293056
0.183125
0.0814108
-0.0126592
-0.0954655
-0.162099
-0.204263
-0.219832
-0.213522
2.04609
1.88345
1.70118
1.51079
1.32014
1.13479
0.958866
0.794637
0.64346
0.504962
0.378295
0.26075
0.149374
0.0412925
-0.0624035
-0.158913
-0.236452
-0.283923
-0.290532
2.16774
1.96023
1.74288
1.52598
1.31575
1.11601
0.929372
0.756978
0.599398
0.455813
0.324978
0.204014
0.0891966
-0.0245108
-0.140316
-0.261782
-0.383039
-0.493624
-0.573467
2.22783
2.0041
1.78704
1.58277
1.39268
1.2166
1.05397
0.903912
0.765805
0.638775
0.522139
0.41469
0.314678
0.219406
0.125533
0.0264647
-0.0831837
-0.209192
-0.352403
2.26134
2.03301
1.82494
1.63501
1.46018
1.29819
1.1474
1.00671
0.875647
0.753712
0.64076
0.536651
0.440786
0.352685
0.272048
0.197733
0.128422
0.0613546
-0.00825485
2.11158
1.85212
1.62688
1.42796
1.25006
1.0898
0.944685
0.812853
0.693029
0.583895
0.484536
0.394174
0.311715
0.236436
0.168122
0.1066
0.0522547
0.00599713
-0.0318918
1.83159
1.60025
1.40187
1.22856
1.0751
0.937944
0.814498
0.702788
0.601467
0.50924
0.425252
0.348817
0.27901
0.215203
0.157095
0.104294
0.0566401
0.0143526
-0.0227352
1.50606
1.31528
1.15053
1.00673
0.879926
0.767151
0.66611
0.575014
0.492619
0.417745
0.34962
0.28761
0.230903
0.178918
0.131358
0.0878349
0.0481864
0.0126112
-0.0189939
1.12472
0.979346
0.854797
0.746952
0.652502
0.568942
0.494363
0.427294
0.366718
0.311689
0.261602
0.215956
0.17413
0.135684
0.100405
0.0680174
0.0384342
0.0118544
-0.0117601
0.70425
0.607511
0.527372
0.459369
0.40053
0.348861
0.302963
0.261806
0.224697
0.191007
0.160338
0.132359
0.106671
0.0829905
0.0611827
0.0410757
0.0226262
0.005984
-0.00884286
0.269208
0.229563
0.19802
0.171675
0.149013
0.129168
0.111588
0.0958871
0.0818034
0.069098
0.0576085
0.0471922
0.0376794
0.0289392
0.0208919
0.0134467
0.00656073
0.000266923
-0.00543948
-0.269079
-0.22927
-0.197611
-0.171187
-0.148476
-0.128606
-0.111019
-0.095327
-0.0812653
-0.0685926
-0.0571443
-0.046776
-0.0373171
-0.0286355
-0.0206505
-0.0132703
-0.00645115
-0.000224115
0.00541682
-0.704127
-0.607247
-0.527008
-0.458937
-0.400056
-0.348367
-0.302466
-0.26132
-0.224234
-0.190577
-0.159948
-0.132015
-0.106379
-0.082755
-0.0610071
-0.0409626
-0.0225771
-0.00599852
0.00876658
-1.12459
-0.979087
-0.854437
-0.746521
-0.652024
-0.568439
-0.493853
-0.42679
-0.366234
-0.311235
-0.261184
-0.215581
-0.173802
-0.135405
-0.100178
-0.0678416
-0.0383092
-0.0117779
0.0117915
-1.50596
-1.31509
-1.15026
-1.00641
-0.87958
-0.766789
-0.665746
-0.574659
-0.492284
-0.417437
-0.349345
-0.287373
-0.230707
-0.178765
-0.131249
-0.0877694
-0.0481631
-0.0126278
0.0189405
-1.83152
-1.60011
-1.40168
-1.22833
-1.07483
-0.937664
-0.814215
-0.702513
-0.601209
-0.509005
-0.425046
-0.348644
-0.278873
-0.215101
-0.15703
-0.104263
-0.0566395
-0.0143766
0.0226944
-2.11156
-1.85206
-1.62677
-1.42782
-1.2499
-1.08963
-0.944513
-0.812693
-0.69289
-0.583783
-0.484455
-0.394127
-0.311703
-0.236461
-0.168183
-0.106692
-0.0523651
-0.00610632
0.0318061
-2.26132
-2.03279
-1.82447
-1.6343
-1.45925
-1.29707
-1.14613
-1.00534
-0.874222
-0.752266
-0.639321
-0.535237
-0.439403
-0.351336
-0.270735
-0.196475
-0.127279
-0.0604607
0.0086698
-2.2282
-2.0051
-1.78868
-1.58501
-1.39545
-1.21981
-1.05753
-0.907714
-0.769764
-0.642817
-0.526212
-0.418772
-0.318777
-0.223572
-0.129852
-0.0310671
0.0781881
0.203786
0.346789
-2.16755
-1.95976
-1.74211
-1.52493
-1.31446
-1.11454
-0.927774
-0.755305
-0.597695
-0.454117
-0.323317
-0.20241
-0.087664
0.0259672
0.14172
0.263207
0.384668
0.495763
0.576518
-2.04622
-1.88375
-1.70163
-1.51136
-1.32082
-1.13554
-0.959654
-0.795441
-0.64426
-0.505741
-0.379042
-0.26146
-0.15004
-0.0418954
0.0619085
0.158608
0.236432
0.284242
0.291104
-1.83528
-1.70294
-1.54491
-1.37258
-1.19474
-1.0185
-0.849472
-0.691224
-0.545873
-0.413536
-0.293544
-0.183569
-0.0817957
0.0123627
0.0953018
0.162119
0.204487
0.220217
0.213978
-1.59635
-1.4869
-1.35182
-1.1992
-1.0375
-0.874667
-0.717419
-0.57037
-0.436303
-0.315803
-0.20849
-0.112644
-0.0275296
0.0461032
0.104532
0.144648
0.163835
0.165866
0.157543
-1.33089
-1.24894
-1.13763
-1.00556
-0.861516
-0.714354
-0.571841
-0.439542
-0.32076
-0.2164
-0.126232
-0.0488461
0.016079
0.0678171
0.104189
0.124903
0.131197
0.128395
0.121766
-0.965689
-0.908445
-0.823315
-0.718603
-0.602749
-0.484232
-0.370479
-0.266799
-0.176105
-0.0990278
-0.0351601
0.0169149
0.0575384
0.0866021
0.103593
0.110059
0.108543
0.103453
0.0977749
-0.60597
-0.567181
-0.504283
-0.424647
-0.336491
-0.247839
-0.165351
-0.0935095
-0.0342265
0.0126729
0.048196
0.0742103
0.0914664
0.100642
0.102384
0.0988709
0.0924131
0.085887
0.0806065
-0.202445
-0.17385
-0.129561
-0.0764857
-0.0218052
0.0282066
0.0692564
0.0991443
0.118123
0.127902
0.130439
0.12815
0.122026
0.113046
0.102076
0.0908444
0.0806214
0.0727738
0.0674339
0.204449
0.229279
0.259157
0.286337
0.305142
0.312066
0.306423
0.289426
0.264309
0.234732
0.203757
0.174177
0.146882
0.122562
0.101542
0.0844669
0.0713372
0.0622118
0.0563269
0.61045
0.674018
0.73066
0.765561
0.770464
0.743353
0.688195
0.612594
0.52624
0.438073
0.355056
0.281843
0.220056
0.170033
0.13106
0.101881
0.0805402
0.0646747
0.0507433
0.91289
0.901032
0.863514
0.801517
0.720069
0.626308
0.528007
0.432133
0.344342
0.268014
0.204718
0.154273
0.115223
0.0857027
0.0638041
0.0475767
0.0350322
0.0237511
0.0104141
1.24447
1.27118
1.26124
1.2119
1.12578
1.01057
0.876777
0.736028
0.599072
0.473711
0.365306
0.275762
0.20453
0.149613
0.108327
0.0773722
0.0534337
0.0330201
0.0124294
1.53135
1.55117
1.52301
1.44807
1.33195
1.18517
1.02045
0.85121
0.689219
0.542694
0.4171
0.313957
0.232255
0.169358
0.121933
0.0860289
0.0579324
0.0341299
0.0116389
1.78257
1.78748
1.7372
1.63625
1.4925
1.31863
1.12894
0.937884
0.757579
0.596131
0.458716
0.346323
0.257443
0.188903
0.136907
0.0970866
0.065497
0.0385576
0.0132414
2.01577
1.99711
1.92019
1.79127
1.62008
1.42128
1.21035
1.00216
0.808579
0.637093
0.492207
0.374178
0.280923
0.208773
0.153568
0.110617
0.0757801
0.0452939
0.0158468
2.2178
2.1696
2.06384
1.90649
1.70952
1.4894
1.26223
1.04265
0.841617
0.665512
0.517846
0.398008
0.303316
0.229653
0.172583
0.127156
0.0890612
0.0543306
0.0193873
2.32079
2.25148
2.12269
1.94419
1.73087
1.50031
1.26826
1.04816
0.849462
0.677077
0.533396
0.416986
0.324707
0.252167
0.194821
0.147582
0.106063
0.0661497
0.0240695
2.44487
2.34894
2.18958
1.98432
1.7513
1.50882
1.27186
1.05218
0.857286
0.690321
0.552302
0.440806
0.3521
0.281415
0.224034
0.174639
0.128711
0.0819443
0.0303271
2.54469
2.4086
2.21525
1.98487
1.73693
1.48903
1.25431
1.04199
0.857137
0.700866
0.572743
0.469362
0.386459
0.318936
0.261956
0.209969
0.15835
0.102605
0.0384878
2.58365
2.40628
2.18242
1.93391
1.68047
1.43748
1.21504
1.01903
0.851731
0.712123
0.598433
0.506387
0.431334
0.367945
0.311354
0.255793
0.19659
0.129095
0.0488681
2.56717
2.35142
2.10212
1.84409
1.59563
1.36808
1.16733
0.99542
0.851767
0.733309
0.637192
0.558426
0.492119
0.432786
0.375609
0.314593
0.245077
0.162313
0.0617269
2.53377
2.27476
2.0036
1.74403
1.5094
1.30522
1.13239
0.989089
0.87206
0.776466
0.698699
0.633168
0.574844
0.518088
0.458159
0.388781
0.305353
0.203078
0.0773084
2.45515
2.15489
1.87485
1.62861
1.42127
1.25132
1.11431
1.00493
0.917759
0.84664
0.787653
0.734803
0.683084
0.626758
0.561222
0.479929
0.378422
0.25195
0.0958547
2.20561
1.90228
1.64893
1.44866
1.29615
1.1821
1.09695
1.03282
0.983068
0.940995
0.903083
0.863382
0.817265
0.759172
0.684895
0.587837
0.463925
0.308671
0.117427
1.96539
1.67787
1.46933
1.32856
1.23782
1.1812
1.14575
1.12273
1.10534
1.08699
1.06485
1.03314
0.987587
0.922737
0.834745
0.716923
0.565502
0.376091
0.143486
1.67379
1.43288
1.30254
1.24394
1.22736
1.23357
1.24903
1.26591
1.27836
1.2805
1.27046
1.24288
1.1939
1.11824
1.01241
0.869631
0.686189
0.45736
0.176267
1.18551
1.08631
1.09368
1.15251
1.23098
1.31244
1.38621
1.44705
1.49107
1.51392
1.51481
1.48948
1.43459
1.3454
1.21883
1.04825
0.829537
0.556898
0.219642
0.710307
0.820105
0.987154
1.16538
1.33322
1.48148
1.60495
1.70152
1.76972
1.80711
1.81359
1.78647
1.72273
1.61811
1.46956
1.27023
1.01411
0.692077
0.284908
0.251939
0.611277
0.947491
1.24425
1.49829
1.70954
1.87942
2.00872
2.09868
2.14922
2.16056
2.13239
2.06184
1.94527
1.77915
1.55569
1.26451
0.889043
0.393528
-0.095525
0.502024
0.990244
1.39186
1.72285
1.99039
2.20233
2.36156
2.4722
2.53705
2.55637
2.53321
2.46483
2.34841
2.17904
1.94678
1.63247
1.20479
0.597331
-0.261604
0.501868
1.10422
1.59025
1.98697
2.30417
2.55488
2.74327
2.87663
2.96157
2.99852
2.9953
2.94993
2.86116
2.72199
2.51876
2.21719
1.759
1.02428
-0.227468
0.596109
1.2662
1.81451
2.26555
2.62625
2.9133
3.13191
3.29319
3.40921
3.48174
3.52567
3.54237
3.53511
3.49594
3.40804
3.2157
2.81727
2.00661
-0.0424905
0.74932
1.44772
2.03945
2.53417
2.93222
3.25264
3.50287
3.69882
3.86129
3.99603
4.12908
4.27326
4.44569
4.64578
4.86682
5.037
5.00378
4.43794
0.181367
0.909024
1.61966
2.24469
2.77408
3.20247
3.55044
3.83185
4.06706
4.2933
4.52364
4.80284
5.18084
5.72547
6.51306
7.72369
9.62796
12.8058
18.456
)
;

boundaryField
{
    up
    {
        type            calculated;
        value           nonuniform List<scalar> 
84
(
-18.456
-4.43794
-2.00661
-1.02429
-0.597334
-0.393528
-0.284907
-0.219639
-0.176264
-0.143483
-0.117426
-0.0958549
-0.0773093
-0.0617281
-0.0488692
-0.0384884
-0.0303273
-0.0240694
-0.0193869
-0.0158464
-0.0132409
-0.0116383
-0.0124291
-0.0104339
-0.0425021
-0.0515238
-0.0620762
-0.0741432
-0.08957
-0.110892
-0.142124
-0.188548
-0.249488
-0.555144
-0.35993
-0.00870364
-0.031626
-0.0225609
-0.018894
-0.0117193
-0.00882574
-0.00543576
0.00541314
0.00874972
0.0117509
0.0188414
0.022521
0.0315413
0.00910954
0.354246
0.558706
0.250013
0.188931
0.142379
0.111071
0.0897045
0.0742521
0.0621742
0.0516063
0.0427088
0.0104141
0.0124294
0.0116389
0.0132414
0.0158468
0.0193873
0.0240695
0.0303271
0.0384878
0.0488681
0.0617269
0.0773084
0.0958547
0.117427
0.143486
0.176267
0.219642
0.284908
0.393528
0.597331
1.02428
2.00661
4.43794
18.456
)
;
    }
    low
    {
        type            calculated;
        value           nonuniform List<scalar> 
84
(
-0.163151
0.0703342
0.27198
0.309452
0.125262
-0.257366
-0.754476
-1.25888
-1.75804
-2.03465
-2.26728
-2.50664
-2.55933
-2.57758
-2.5851
-2.53153
-2.41864
-2.2911
-2.17913
-1.95952
-1.71654
-1.46167
-1.17431
-0.850265
-0.560286
-0.186373
0.181561
0.554617
0.901039
1.2683
1.54767
1.79811
2.02452
2.16519
2.23979
2.29003
2.15712
1.87842
1.54687
1.15664
0.725146
0.277879
-0.277749
-0.725021
-1.15651
-1.54675
-1.87834
-2.15708
-2.28999
-2.24011
-2.16502
-2.02461
-1.79818
-1.54774
-1.26837
-0.901113
-0.554703
-0.181635
0.186202
0.560398
0.850137
1.17437
1.46168
1.71654
1.95952
2.17913
2.29111
2.41864
2.53154
2.5851
2.57758
2.55934
2.50663
2.26729
2.03467
1.75805
1.2589
0.754486
0.257374
-0.125258
-0.309453
-0.271985
-0.0703377
0.163152
)
;
    }
    left
    {
        type            calculated;
        value           nonuniform List<scalar> 
19
(
-0.161808
-0.875213
-1.60194
-2.25003
-2.8033
-3.2523
-3.61885
-3.91898
-4.1728
-4.42602
-4.69166
-5.01904
-5.47206
-6.13937
-7.11554
-8.65185
-11.1233
-15.3399
-16.0058
)
;
    }
    right
    {
        type            calculated;
        value           nonuniform List<scalar> 
19
(
0.16181
0.875216
1.60194
2.25003
2.8033
3.2523
3.61885
3.91899
4.1728
4.42603
4.69166
5.01903
5.47205
6.13936
7.11552
8.65183
11.1233
15.3399
16.0058
)
;
    }
    frontAndBackPlanes
    {
        type            empty;
    }
}


// ************************************************************************* //
