/*--------------------------------*- C++ -*----------------------------------*\
  =========                 |
  \\      /  F ield         | OpenFOAM: The Open Source CFD Toolbox
   \\    /   O peration     | Website:  https://openfoam.org
    \\  /    A nd           | Version:  7
     \\/     M anipulation  |
\*---------------------------------------------------------------------------*/
FoamFile
{
    version     2.0;
    format      ascii;
    class       volScalarField;
    location    "0.246";
    object      gradTx;
}
// * * * * * * * * * * * * * * * * * * * * * * * * * * * * * * * * * * * * * //

dimensions      [0 -1 0 1 0 0 0];

internalField   nonuniform List<scalar> 
1596
(
-0.170891
-0.857882
-1.53772
-2.15335
-2.70167
-3.18179
-3.61586
-4.01807
-4.4077
-4.8218
-5.27059
-5.79867
-6.45885
-7.32844
-8.49917
-10.2032
-12.8001
-17.0665
-24.6089
0.0374623
-0.71441
-1.3835
-1.96369
-2.46932
-2.90377
-3.28699
-3.62607
-3.93539
-4.23419
-4.52445
-4.8301
-5.15963
-5.52574
-5.91861
-6.32029
-6.62933
-6.63939
-5.91314
0.208217
-0.584553
-1.23226
-1.77116
-2.22898
-2.61471
-2.94553
-3.22609
-3.46599
-3.67553
-3.85313
-4.01133
-4.14673
-4.25671
-4.32364
-4.31691
-4.15524
-3.69668
-2.66325
0.235428
-0.516202
-1.10898
-1.59226
-1.99591
-2.33127
-2.61182
-2.84123
-3.02558
-3.17009
-3.27281
-3.33976
-3.36557
-3.34449
-3.26244
-3.09493
-2.78972
-2.26155
-1.34471
0.0695078
-0.54033
-1.03581
-1.44515
-1.78728
-2.07082
-2.30407
-2.48968
-2.63097
-2.7299
-2.78536
-2.7994
-2.76759
-2.68453
-2.54116
-2.32038
-1.99152
-1.50584
-0.768016
-0.275793
-0.668516
-1.0293
-1.34644
-1.61911
-1.8485
-2.03638
-2.18354
-2.29078
-2.3576
-2.38377
-2.36868
-2.30921
-2.20087
-2.03843
-1.81015
-1.49894
-1.07736
-0.491413
-0.735593
-0.890417
-1.09602
-1.30722
-1.50311
-1.67502
-1.81768
-1.92903
-2.0073
-2.04996
-2.05706
-2.02616
-1.955
-1.83979
-1.67764
-1.46024
-1.17845
-0.816795
-0.344834
-1.21784
-1.16472
-1.21883
-1.32093
-1.43699
-1.54949
-1.64685
-1.72359
-1.77549
-1.79819
-1.79144
-1.75151
-1.67648
-1.56293
-1.40925
-1.2092
-0.958052
-0.647067
-0.259115
-1.71742
-1.51623
-1.43517
-1.42722
-1.45727
-1.50319
-1.54919
-1.58656
-1.60878
-1.60986
-1.58862
-1.54036
-1.46299
-1.35309
-1.20942
-1.02689
-0.802985
-0.532511
-0.205583
-2.01768
-1.76138
-1.60005
-1.51293
-1.47477
-1.46492
-1.4668
-1.4699
-1.46626
-1.44882
-1.41548
-1.36105
-1.28313
-1.17835
-1.04553
-0.880447
-0.681694
-0.446174
-0.168106
-2.26227
-1.98219
-1.77233
-1.62645
-1.53072
-1.46957
-1.42848
-1.39681
-1.36608
-1.32875
-1.28187
-1.21994
-1.14022
-1.03923
-0.915597
-0.765517
-0.588004
-0.381025
-0.141111
-2.51115
-2.22833
-1.98806
-1.79597
-1.64848
-1.53672
-1.45016
-1.37964
-1.31721
-1.2554
-1.19068
-1.11743
-1.03243
-0.931988
-0.814345
-0.675792
-0.515275
-0.331138
-0.121014
-2.57827
-2.33304
-2.09818
-1.89132
-1.71781
-1.57534
-1.45798
-1.35915
-1.27236
-1.191
-1.11158
-1.02875
-0.93919
-0.839214
-0.726835
-0.598508
-0.453057
-0.289008
-0.104542
-2.5937
-2.38971
-2.17435
-1.96785
-1.78138
-1.6183
-1.47723
-1.35468
-1.24624
-1.14661
-1.05279
-0.95999
-0.864948
-0.764073
-0.655208
-0.534916
-0.401819
-0.25445
-0.0912347
-2.58743
-2.4209
-2.22975
-2.03225
-1.84176
-1.66569
-1.50661
-1.36419
-1.2364
-1.11959
-1.01164
-0.908464
-0.807057
-0.703996
-0.597016
-0.482748
-0.35959
-0.225969
-0.0803401
-2.52227
-2.39601
-2.23435
-2.05464
-1.87055
-1.69173
-1.52358
-1.3686
-1.22705
-1.09712
-0.977803
-0.865948
-0.758981
-0.653789
-0.548129
-0.438758
-0.323919
-0.201935
-0.0711994
-2.39606
-2.30806
-2.17878
-2.02337
-1.8546
-1.68284
-1.51517
-1.35611
-1.20794
-1.07058
-0.944231
-0.826796
-0.716294
-0.610046
-0.505965
-0.401015
-0.2934
-0.181428
-0.0634518
-2.24805
-2.18447
-2.08365
-1.95359
-1.80428
-1.64543
-1.48473
-1.32799
-1.17897
-1.03908
-0.909681
-0.789699
-0.677801
-0.571789
-0.46978
-0.368972
-0.267621
-0.164128
-0.0569267
-2.12383
-2.07996
-2.00098
-1.89149
-1.75875
-1.61145
-1.45743
-1.30337
-1.15426
-1.01275
-0.881197
-0.759449
-0.646727
-0.541214
-0.441129
-0.343763
-0.247351
-0.150432
-0.0516771
-1.90856
-1.89062
-1.83692
-1.75283
-1.6439
-1.51722
-1.37994
-1.23875
-1.09917
-0.96469
-0.838405
-0.72099
-0.612245
-0.510813
-0.415078
-0.322404
-0.230968
-0.13952
-0.0473887
-1.67068
-1.6732
-1.64229
-1.58228
-1.49744
-1.39338
-1.27628
-1.15236
-1.02721
-0.904681
-0.788302
-0.679335
-0.578049
-0.483508
-0.394237
-0.307522
-0.221103
-0.133474
-0.044766
-1.4229
-1.43866
-1.42665
-1.38858
-1.32709
-1.24637
-1.15148
-1.04794
-0.941049
-0.834674
-0.732383
-0.635755
-0.545353
-0.460634
-0.380338
-0.301649
-0.221398
-0.136477
-0.0459928
-1.14849
-1.17083
-1.17418
-1.15696
-1.1197
-1.06479
-0.995971
-0.917687
-0.834605
-0.750225
-0.66771
-0.588648
-0.513635
-0.442525
-0.374557
-0.307299
-0.236868
-0.157331
-0.0610581
-0.839107
-0.827047
-0.800507
-0.759955
-0.708342
-0.649703
-0.588692
-0.529321
-0.474854
-0.42687
-0.385402
-0.349274
-0.316506
-0.285191
-0.253705
-0.220137
-0.181428
-0.131441
-0.0588773
-0.561001
-0.624206
-0.693934
-0.759128
-0.811992
-0.84733
-0.863429
-0.860802
-0.842173
-0.810885
-0.769737
-0.721557
-0.667981
-0.611419
-0.554237
-0.498427
-0.44344
-0.385452
-0.313858
-0.189972
-0.220021
-0.259561
-0.302224
-0.343303
-0.379438
-0.409397
-0.43288
-0.450913
-0.464498
-0.473125
-0.476467
-0.472351
-0.460103
-0.440351
-0.416463
-0.391047
-0.3672
-0.345337
0.181755
0.143852
0.0902108
0.02688
-0.0405191
-0.107461
-0.171248
-0.230492
-0.28522
-0.335792
-0.381078
-0.419622
-0.447737
-0.462752
-0.463763
-0.454202
-0.438092
-0.420563
-0.403716
0.553026
0.501275
0.428583
0.341878
0.247576
0.151037
0.055896
-0.0359001
-0.123948
-0.208515
-0.288559
-0.362062
-0.424089
-0.469469
-0.494483
-0.501109
-0.494109
-0.480856
-0.465539
0.889201
0.816074
0.719942
0.609062
0.490185
0.368895
0.248937
0.132083
0.018451
-0.0928113
-0.201495
-0.305996
-0.400935
-0.478763
-0.531695
-0.558076
-0.561551
-0.551688
-0.535946
1.23868
1.13957
1.01728
0.880503
0.736272
0.59041
0.446638
0.306454
0.16955
0.034273
-0.100421
-0.234373
-0.363185
-0.478191
-0.567214
-0.622524
-0.642946
-0.638432
-0.621004
1.50392
1.37487
1.22648
1.06733
0.904406
0.742947
0.585808
0.433533
0.28496
0.137359
-0.0118222
-0.164709
-0.319626
-0.469439
-0.599445
-0.694777
-0.743958
-0.75114
-0.730638
1.75396
1.59912
1.42538
1.24464
1.06432
0.889014
0.720704
0.559102
0.402441
0.24729
0.0899942
-0.0739155
-0.246745
-0.426325
-0.600399
-0.750828
-0.852726
-0.89393
-0.881378
1.98751
1.79916
1.59826
1.39696
1.20179
1.01601
0.840435
0.673907
0.514295
0.357943
0.200957
0.037645
-0.137753
-0.32991
-0.53513
-0.7428
-0.922592
-1.04093
-1.06415
2.14236
1.90322
1.66103
1.42646
1.20411
0.995478
0.800087
0.616089
0.441138
0.27179
0.104442
-0.0663552
-0.247516
-0.448496
-0.676425
-0.938217
-1.22212
-1.5021
-1.72837
2.24244
1.98053
1.73434
1.51047
1.30896
1.12787
0.964181
0.814792
0.676864
0.547669
0.425174
0.306926
0.190133
0.0702828
-0.0593131
-0.212323
-0.402889
-0.647461
-0.953589
2.31997
2.04867
1.81021
1.60179
1.41828
1.25523
1.10832
0.974235
0.850361
0.734514
0.625574
0.522747
0.425613
0.334313
0.249634
0.1712
0.0978124
0.0241624
-0.0601496
2.20498
1.895
1.6337
1.41064
1.21756
1.04852
0.898461
0.763621
0.641138
0.528566
0.424599
0.328299
0.23907
0.157009
0.0831542
0.0186572
-0.0344605
-0.0739757
-0.0988252
1.94314
1.65934
1.42426
1.22642
1.05733
0.910869
0.782083
0.667309
0.563878
0.469603
0.383293
0.304121
0.231454
0.165087
0.105255
0.0519539
0.00532483
-0.0344456
-0.0676735
1.62008
1.38058
1.1821
1.01578
0.874539
0.752954
0.646724
0.552608
0.468282
0.391843
0.322194
0.258536
0.200151
0.146627
0.0978741
0.0536272
0.0138025
-0.0214601
-0.0523569
1.22333
1.03795
0.886018
0.759983
0.653867
0.563149
0.484348
0.414855
0.352834
0.296785
0.245811
0.19925
0.156476
0.117101
0.0809969
0.047947
0.0179129
-0.00891023
-0.0325857
0.772018
0.648299
0.549983
0.469991
0.403463
0.347033
0.29828
0.255444
0.217313
0.182909
0.151631
0.123037
0.0966962
0.0723335
0.0498446
0.0290841
0.0100355
-0.00713398
-0.0224058
0.296855
0.247154
0.209031
0.178424
0.153047
0.131502
0.11285
0.0964367
0.0818128
0.0686173
0.0566188
0.0456403
0.0355063
0.0260937
0.0173368
0.00915718
0.00152185
-0.00552653
-0.0119834
-0.296712
-0.24684
-0.208605
-0.177925
-0.152506
-0.13094
-0.112286
-0.0958847
-0.0812848
-0.0681235
-0.0561677
-0.0452393
-0.0351619
-0.0258112
-0.0171206
-0.00901074
-0.00144728
0.00552903
0.011915
-0.771886
-0.648024
-0.549611
-0.469559
-0.402997
-0.346554
-0.297805
-0.254985
-0.216882
-0.182515
-0.151283
-0.122741
-0.0964589
-0.0721593
-0.0497371
-0.0290462
-0.0100683
0.00703115
0.0222356
-1.2232
-1.03769
-0.885658
-0.759556
-0.653398
-0.562657
-0.483849
-0.414364
-0.352362
-0.296341
-0.245404
-0.198886
-0.15616
-0.116834
-0.0807823
-0.0477836
-0.0177988
0.00897891
0.0326136
-1.61999
-1.3804
-1.18185
-1.0155
-0.874227
-0.752631
-0.646403
-0.552301
-0.467998
-0.391592
-0.321982
-0.258369
-0.200032
-0.146558
-0.0978553
-0.0536558
-0.0138745
0.0213496
0.0522136
-1.94308
-1.65923
-1.4241
-1.22622
-1.05712
-0.910639
-0.781851
-0.667086
-0.563675
-0.469429
-0.383156
-0.304026
-0.231405
-0.165086
-0.1053
-0.0520388
-0.00543984
0.0343139
0.0675414
-2.20498
-1.89499
-1.63365
-1.41055
-1.21746
-1.0484
-0.898348
-0.763523
-0.641066
-0.528532
-0.424613
-0.328371
-0.239208
-0.15722
-0.0834367
-0.0190002
0.0340884
0.0736275
0.0985629
-2.31998
-2.04849
-1.80978
-1.60108
-1.4173
-1.25398
-1.10684
-0.972532
-0.84847
-0.732458
-0.623376
-0.520425
-0.423176
-0.33177
-0.247006
-0.168555
-0.0953172
-0.0221693
0.0610591
-2.24285
-1.98162
-1.73615
-1.51298
-1.31214
-1.13167
-0.968559
-0.819703
-0.682268
-0.55354
-0.431508
-0.31375
-0.197522
-0.0783895
0.0502517
0.201962
0.390892
0.633684
0.938372
-2.1422
-1.90277
-1.66025
-1.42534
-1.20265
-0.993712
-0.798045
-0.613812
-0.438667
-0.26917
-0.101719
0.0691335
0.250296
0.451235
0.679137
0.941051
1.22548
1.50669
1.73511
-1.98765
-1.7995
-1.59876
-1.3976
-1.20253
-1.01683
-0.841314
-0.674832
-0.515257
-0.358943
-0.202003
-0.038747
0.136596
0.32874
0.534064
0.742058
0.922443
1.04154
1.06529
-1.75405
-1.59933
-1.4257
-1.24504
-1.06478
-0.889525
-0.72125
-0.559676
-0.403041
-0.247914
-0.0906439
0.0732507
0.2461
0.425779
0.60008
0.750881
0.853223
0.8948
0.88244
-1.50402
-1.37509
-1.2268
-1.06774
-0.904883
-0.743471
-0.586364
-0.43411
-0.285548
-0.137949
0.0112433
0.164168
0.319173
0.469152
0.599408
0.695043
0.744499
0.751851
0.731398
-1.23876
-1.13978
-1.01761
-0.880919
-0.736761
-0.59095
-0.447208
-0.307036
-0.170128
-0.0348294
0.0999077
0.233937
0.362875
0.478062
0.567305
0.622832
0.643417
0.638991
0.621598
-0.889276
-0.816268
-0.720246
-0.609459
-0.490652
-0.369408
-0.249473
-0.132621
-0.0189702
0.092332
0.201081
0.305679
0.400751
0.478745
0.531851
0.558382
0.56196
0.552152
0.536442
-0.553108
-0.501477
-0.428898
-0.342289
-0.248058
-0.151563
-0.0564383
0.0353679
0.12345
0.208076
0.288203
0.361816
0.423977
0.469503
0.494656
0.501393
0.494468
0.481264
0.465983
-0.181825
-0.144042
-0.0905141
-0.0272783
0.0400524
0.106956
0.170736
0.230002
0.284778
0.335422
0.3808
0.419455
0.447694
0.462832
0.463953
0.454478
0.438431
0.42095
0.40415
0.189811
0.219533
0.258728
0.301067
0.341873
0.37781
0.407659
0.431118
0.449206
0.462915
0.471717
0.47527
0.47138
0.459351
0.439796
0.416083
0.39083
0.367174
0.345601
0.561114
0.624639
0.694768
0.760398
0.813684
0.849391
0.865778
0.863342
0.844805
0.813521
0.772302
0.723998
0.670263
0.61353
0.556181
0.500224
0.445112
0.387016
0.31531
0.838987
0.826616
0.799755
0.75891
0.707062
0.648262
0.587171
0.527796
0.47339
0.425516
0.38419
0.348221
0.315615
0.284456
0.253113
0.219674
0.181083
0.131209
0.0587772
1.14856
1.17097
1.1744
1.15724
1.12001
1.06512
0.996302
0.917994
0.834873
0.750446
0.667882
0.588773
0.513721
0.442579
0.374585
0.307309
0.236863
0.157319
0.0610514
1.42291
1.43868
1.42668
1.38861
1.32712
1.2464
1.15151
1.04797
0.941064
0.83468
0.732381
0.635746
0.54534
0.460618
0.38032
0.301631
0.221383
0.136467
0.0459902
1.67069
1.67322
1.64231
1.58231
1.49746
1.39341
1.2763
1.15237
1.02721
0.90468
0.788296
0.679324
0.578036
0.483493
0.394223
0.307509
0.221093
0.133468
0.0447645
1.90857
1.89063
1.83694
1.75285
1.64392
1.51724
1.37996
1.23875
1.09918
0.964685
0.838396
0.720978
0.612233
0.5108
0.415066
0.322394
0.230961
0.139516
0.0473876
2.12384
2.07998
2.001
1.8915
1.75877
1.61146
1.45744
1.30338
1.15426
1.01274
0.881188
0.759439
0.646716
0.541203
0.44112
0.343755
0.247346
0.150429
0.0516762
2.24806
2.18448
2.08366
1.95361
1.80429
1.64544
1.48474
1.32799
1.17896
1.03907
0.909672
0.789689
0.67779
0.571779
0.469771
0.368965
0.267616
0.164125
0.0569259
2.39606
2.30807
2.17879
2.02338
1.85461
1.68285
1.51517
1.35611
1.20794
1.07057
0.944221
0.826786
0.716284
0.610037
0.505957
0.401008
0.293395
0.181425
0.0634511
2.52227
2.39602
2.23436
2.05465
1.87056
1.69173
1.52358
1.36859
1.22704
1.09711
0.977794
0.865939
0.758972
0.65378
0.548122
0.438752
0.323915
0.201933
0.0711989
2.58743
2.42091
2.22975
2.03225
1.84177
1.66569
1.5066
1.36419
1.23639
1.11959
1.01163
0.908454
0.807048
0.703987
0.597008
0.482742
0.359586
0.225967
0.0803398
2.59371
2.38972
2.17436
1.96786
1.78138
1.61829
1.47723
1.35468
1.24623
1.1466
1.05279
0.959981
0.86494
0.764065
0.655202
0.53491
0.401815
0.254449
0.0912348
2.57828
2.33305
2.09819
1.89132
1.71782
1.57534
1.45798
1.35914
1.27236
1.191
1.11157
1.02874
0.939184
0.839208
0.72683
0.598504
0.453055
0.289008
0.104543
2.51114
2.22833
1.98806
1.79596
1.64848
1.53671
1.45015
1.37963
1.3172
1.25539
1.19067
1.11742
1.03242
0.931982
0.81434
0.675789
0.515274
0.331139
0.121015
2.26228
1.9822
1.77234
1.62646
1.53072
1.46957
1.42848
1.39681
1.36608
1.32875
1.28186
1.21994
1.14022
1.03922
0.915596
0.765517
0.588006
0.381028
0.141112
2.0177
1.76139
1.60006
1.51293
1.47477
1.46492
1.4668
1.4699
1.46625
1.44881
1.41548
1.36105
1.28313
1.17835
1.04554
0.88045
0.681698
0.446178
0.168107
1.71744
1.51624
1.43517
1.42722
1.45727
1.50319
1.54918
1.58656
1.60878
1.60985
1.58862
1.54036
1.46299
1.35309
1.20942
1.0269
0.80299
0.532515
0.205584
1.21786
1.16473
1.21883
1.32093
1.43699
1.54949
1.64684
1.72359
1.77549
1.79819
1.79144
1.75151
1.67648
1.56294
1.40926
1.2092
0.958058
0.64707
0.259115
0.735604
0.890424
1.09602
1.30722
1.50311
1.67502
1.81768
1.92902
2.0073
2.04996
2.05706
2.02617
1.955
1.83979
1.67765
1.46025
1.17845
0.816798
0.344834
0.275801
0.668522
1.02931
1.34644
1.61912
1.8485
2.03638
2.18354
2.29078
2.35761
2.38377
2.36869
2.30921
2.20087
2.03843
1.81015
1.49894
1.07736
0.491412
-0.0695033
0.540336
1.03582
1.44516
1.78728
2.07082
2.30407
2.48969
2.63097
2.7299
2.78536
2.7994
2.76759
2.68453
2.54116
2.32038
1.99152
1.50584
0.768014
-0.235428
0.516206
1.10898
1.59226
1.99591
2.33127
2.61183
2.84123
3.02558
3.1701
3.27281
3.33976
3.36558
3.3445
3.26244
3.09493
2.78972
2.26155
1.34471
-0.208219
0.584554
1.23226
1.77116
2.22898
2.61471
2.94553
3.2261
3.46599
3.67554
3.85313
4.01133
4.14673
4.25671
4.32364
4.3169
4.15524
3.69667
2.66324
-0.0374626
0.714411
1.3835
1.96369
2.46932
2.90377
3.28699
3.62607
3.93539
4.2342
4.52445
4.8301
5.15963
5.52574
5.91861
6.32028
6.62932
6.63938
5.91314
0.170892
0.857883
1.53772
2.15335
2.70167
3.18179
3.61586
4.01808
4.4077
4.8218
5.27059
5.79867
6.45885
7.32843
8.49916
10.2032
12.8001
17.0665
24.6089
)
;

boundaryField
{
    up
    {
        type            calculated;
        value           nonuniform List<scalar> 
84
(
-24.6089
-5.91314
-2.66325
-1.34471
-0.768016
-0.491413
-0.344834
-0.259115
-0.205583
-0.168106
-0.141111
-0.121014
-0.104542
-0.0912347
-0.0803401
-0.0711994
-0.0634518
-0.0569267
-0.0516771
-0.0473887
-0.044766
-0.0459928
-0.0610581
-0.0588773
-0.26879
-0.323554
-0.382235
-0.44224
-0.509515
-0.58984
-0.691054
-0.821214
-0.971052
-1.71411
-0.987482
-0.0620729
-0.0987214
-0.0675599
-0.0522906
-0.0325642
-0.0224002
-0.0119871
0.0119186
0.0222302
0.0325924
0.0521477
0.0674284
0.0984591
0.062957
0.971821
1.72212
0.972065
0.822137
0.691762
0.590408
0.509999
0.44268
0.382674
0.323952
0.270111
0.0587772
0.0610514
0.0459902
0.0447645
0.0473876
0.0516762
0.0569259
0.0634511
0.0711989
0.0803398
0.0912348
0.104543
0.121015
0.141112
0.168107
0.205584
0.259115
0.344834
0.491412
0.768014
1.34471
2.66324
5.91314
24.6089
)
;
    }
    low
    {
        type            calculated;
        value           nonuniform List<scalar> 
84
(
-0.154094
0.0627369
0.249213
0.280198
0.0977819
-0.281047
-0.779027
-1.29106
-1.80224
-2.0872
-2.32276
-2.55879
-2.59659
-2.59367
-2.57564
-2.4939
-2.35379
-2.20226
-2.06969
-1.8393
-1.59461
-1.34623
-1.07444
-0.774738
-0.511119
-0.172042
0.161333
0.502045
0.823287
1.17189
1.44807
1.70745
1.95513
2.12892
2.24438
2.34036
2.24525
1.98753
1.66041
1.25586
0.793765
0.306002
-0.305859
-0.793628
-1.25572
-1.6603
-1.98745
-2.24523
-2.34034
-2.24473
-2.12876
-1.95525
-1.70753
-1.44815
-1.17198
-0.823366
-0.502131
-0.161404
0.171885
0.51123
0.774626
1.0745
1.34625
1.59462
1.83931
2.0697
2.20227
2.3538
2.49391
2.57564
2.59368
2.59659
2.55878
2.32277
2.08722
1.80226
1.29108
0.77904
0.281056
-0.0977774
-0.280199
-0.249216
-0.062739
0.154094
)
;
    }
    left
    {
        type            calculated;
        value           nonuniform List<scalar> 
19
(
-0.151561
-0.823238
-1.51663
-2.15328
-2.72498
-3.22738
-3.68438
-4.11263
-4.53133
-4.98718
-5.48997
-6.09012
-6.85694
-7.89447
-9.31834
-11.4556
-14.8052
-20.4521
-21.3444
)
;
    }
    right
    {
        type            calculated;
        value           nonuniform List<scalar> 
19
(
0.151563
0.823241
1.51663
2.15328
2.72498
3.22738
3.68439
4.11263
4.53133
4.98717
5.48996
6.09011
6.85693
7.89446
9.31833
11.4556
14.8052
20.4522
21.3444
)
;
    }
    frontAndBackPlanes
    {
        type            empty;
    }
}


// ************************************************************************* //
