/*--------------------------------*- C++ -*----------------------------------*\
  =========                 |
  \\      /  F ield         | OpenFOAM: The Open Source CFD Toolbox
   \\    /   O peration     | Website:  https://openfoam.org
    \\  /    A nd           | Version:  7
     \\/     M anipulation  |
\*---------------------------------------------------------------------------*/
FoamFile
{
    version     2.0;
    format      ascii;
    class       volScalarField;
    location    "0.132";
    object      gradTy;
}
// * * * * * * * * * * * * * * * * * * * * * * * * * * * * * * * * * * * * * //

dimensions      [0 -1 0 1 0 0 0];

internalField   nonuniform List<scalar> 
1596
(
-0.678208
-1.25086
-1.70272
-2.11285
-2.47614
-2.84291
-3.18517
-3.55796
-3.97702
-4.45228
-5.11996
-5.97078
-7.1829
-8.95717
-11.7879
-16.2709
-24.3619
-39.346
-92.9388
-2.05367
-2.50551
-2.7755
-2.98812
-3.15836
-3.34774
-3.53712
-3.78029
-4.09532
-4.48271
-5.06006
-5.80764
-6.84693
-8.26883
-10.3301
-13.151
-17.3883
-23.6393
-41.3838
-3.64123
-3.75441
-3.7641
-3.75398
-3.72694
-3.73926
-3.77306
-3.87754
-4.06774
-4.33791
-4.78703
-5.38503
-6.21785
-7.32673
-8.86993
-10.8577
-13.6495
-17.4883
-25.6968
-5.25965
-4.93677
-4.6537
-4.41407
-4.19411
-4.03481
-3.91657
-3.88101
-3.93924
-4.08143
-4.38959
-4.82858
-5.46036
-6.301
-7.45361
-8.8859
-10.8125
-13.3248
-17.5998
-6.69533
-5.98394
-5.43158
-4.97932
-4.58191
-4.26317
-4.00238
-3.83242
-3.76117
-3.77682
-3.94619
-4.23401
-4.68555
-5.30463
-6.16238
-7.21347
-8.59646
-10.3356
-12.8582
-7.77487
-6.83611
-6.08719
-5.46199
-4.9137
-4.45439
-4.06549
-3.77196
-3.57985
-3.47723
-3.51748
-3.66838
-3.96299
-4.39942
-5.02891
-5.80577
-6.8252
-8.08264
-9.73784
-8.42574
-7.45312
-6.60858
-5.86763
-5.20451
-4.62945
-4.13082
-3.7282
-3.4275
-3.21837
-3.14249
-3.17246
-3.33189
-3.61635
-4.0635
-4.63248
-5.39136
-6.32492
-7.49394
-8.67745
-7.81806
-6.97871
-6.18751
-5.45258
-4.79192
-4.20562
-3.71144
-3.31715
-3.01536
-2.83811
-2.76346
-2.80757
-2.96493
-3.26309
-3.66758
-4.22806
-4.92715
-5.78742
-8.62832
-7.97992
-7.22444
-6.44092
-5.67402
-4.95622
-4.30251
-3.7328
-3.25855
-2.87658
-2.61159
-2.44706
-2.3933
-2.44429
-2.61952
-2.89066
-3.29369
-3.81248
-4.45419
-8.35447
-7.91781
-7.29202
-6.56764
-5.8121
-5.07265
-4.37913
-3.75677
-3.22207
-2.77693
-2.44125
-2.20352
-2.06975
-2.03375
-2.10858
-2.27129
-2.54753
-2.92383
-3.40129
-8.05646
-7.75827
-7.25323
-6.60628
-5.88691
-5.15036
-4.43804
-3.7814
-3.2026
-2.70897
-2.31779
-2.02196
-1.82458
-1.71939
-1.71417
-1.79019
-1.96484
-2.22707
-2.57555
-7.72232
-7.56018
-7.16415
-6.59593
-5.92272
-5.20286
-4.48534
-3.80744
-3.19676
-2.66597
-2.23146
-1.88993
-1.64259
-1.48319
-1.41529
-1.42318
-1.5176
-1.68936
-1.93604
-7.33243
-7.28773
-6.9927
-6.5039
-5.88483
-5.19493
-4.48707
-3.8033
-3.17571
-2.62165
-2.15793
-1.78429
-1.50106
-1.30208
-1.18767
-1.14431
-1.17762
-1.27974
-1.44777
-7.0056
-7.01905
-6.79649
-6.37338
-5.80393
-5.14615
-4.45396
-3.77283
-3.13818
-2.57102
-2.08916
-1.69462
-1.38737
-1.16129
-1.01434
-0.934329
-0.922984
-0.973206
-1.08176
-6.71801
-6.77545
-6.60248
-6.22801
-5.69829
-5.06877
-4.39296
-3.71843
-3.0829
-2.51001
-2.01859
-1.61222
-1.29071
-1.04791
-0.879928
-0.775374
-0.733051
-0.746214
-0.811368
-6.44445
-6.54752
-6.41356
-6.07464
-5.57436
-4.96707
-4.30569
-3.63926
-3.00692
-2.43401
-1.94011
-1.5296
-1.20211
-0.95127
-0.771784
-0.652605
-0.590397
-0.578539
-0.613321
-6.20564
-6.34
-6.23526
-5.92091
-5.43987
-4.84721
-4.19615
-3.53705
-2.90997
-2.34112
-1.85032
-1.44206
-1.11549
-0.86384
-0.680579
-0.554719
-0.481362
-0.453877
-0.468396
-6.00457
-6.16211
-6.0783
-5.77908
-5.30765
-4.72109
-4.07434
-3.41946
-2.79731
-2.23446
-1.75037
-1.34895
-1.02854
-0.781596
-0.600439
-0.473908
-0.395927
-0.359785
-0.361501
-5.79862
-6.00929
-5.9519
-5.66439
-5.19553
-4.60682
-3.95703
-3.30085
-2.6805
-2.12274
-1.64621
-1.2538
-0.94252
-0.70374
-0.528552
-0.405409
-0.327268
-0.287289
-0.281392
-5.57714
-5.85568
-5.83506
-5.56196
-5.09343
-4.49801
-3.84035
-3.17907
-2.55834
-2.00525
-1.53728
-1.15584
-0.856256
-0.628463
-0.462224
-0.345461
-0.270327
-0.229854
-0.219906
-5.388
-5.71938
-5.73635
-5.47862
-5.00841
-4.40204
-3.73162
-3.06093
-2.43687
-1.88703
-1.4275
-1.05791
-0.771446
-0.556362
-0.400938
-0.292428
-0.222252
-0.183338
-0.171582
-5.21615
-5.60168
-5.65695
-5.41571
-4.94335
-4.32351
-3.63671
-2.95288
-2.32243
-1.77384
-1.32172
-0.963746
-0.690711
-0.488958
-0.34517
-0.245792
-0.181482
-0.145039
-0.132594
-5.04891
-5.49641
-5.59368
-5.37138
-4.89796
-4.26408
-3.55904
-2.85957
-2.22021
-1.67077
-1.22447
-0.877041
-0.616767
-0.428015
-0.29583
-0.205727
-0.14743
-0.113262
-0.0997966
-4.8908
-5.40084
-5.54008
-5.33566
-4.85988
-4.20988
-3.48469
-2.7676
-2.11782
-1.56685
-1.1258
-0.789036
-0.541954
-0.366899
-0.247158
-0.167463
-0.116166
-0.0842688
-0.0655964
-4.75543
-5.32552
-5.52116
-5.36094
-4.91556
-4.28096
-3.55987
-2.83819
-2.17918
-1.61796
-1.16624
-0.820588
-0.565984
-0.385175
-0.261082
-0.178602
-0.125005
-0.0904492
-0.0663356
-4.6544
-5.2652
-5.50497
-5.38996
-4.98502
-4.38029
-3.67631
-2.95882
-2.29353
-1.71957
-1.25121
-0.88852
-0.618008
-0.423513
-0.288313
-0.197784
-0.138806
-0.101629
-0.0780188
-4.64283
-5.26146
-5.5217
-5.4372
-5.06603
-4.49169
-3.80905
-3.10147
-2.43488
-1.85086
-1.36665
-0.985419
-0.6959
-0.483632
-0.333032
-0.23034
-0.162559
-0.119745
-0.0931148
-4.73238
-5.32481
-5.57639
-5.50064
-5.15015
-4.60114
-3.94101
-3.24815
-2.5863
-1.99772
-1.50153
-1.1037
-0.795109
-0.563218
-0.39404
-0.275472
-0.195336
-0.143961
-0.111885
-4.90899
-5.45479
-5.67467
-5.58912
-5.24722
-4.71787
-4.08002
-3.40527
-2.7533
-2.16545
-1.66157
-1.24992
-0.923156
-0.670466
-0.479439
-0.340326
-0.242752
-0.178436
-0.137534
-5.16381
-5.63704
-5.80689
-5.69834
-5.3565
-4.84272
-4.2272
-3.57373
-2.93667
-2.35528
-1.84903
-1.42807
-1.08625
-0.813874
-0.599282
-0.43506
-0.31352
-0.229805
-0.174963
-5.48899
-5.86932
-5.97998
-5.84113
-5.49357
-4.99155
-4.39704
-3.7658
-3.1464
-2.57533
-2.07108
-1.64543
-1.29311
-1.00486
-0.768073
-0.576047
-0.423035
-0.31009
-0.232609
-5.82467
-6.12777
-6.18198
-6.01167
-5.65645
-5.16467
-4.59085
-3.98298
-3.38377
-2.82667
-2.32886
-1.90387
-1.54772
-1.25175
-1.00079
-0.785744
-0.597761
-0.442644
-0.326458
-6.19756
-6.42117
-6.41629
-6.21177
-5.84627
-5.36279
-4.80883
-4.22491
-3.64785
-3.10783
-2.62031
-2.20083
-1.84767
-1.55469
-1.30523
-1.08671
-0.878821
-0.68003
-0.48998
-6.62751
-6.76403
-6.6974
-6.45787
-6.08227
-5.6083
-5.07623
-4.51951
-3.969
-3.45114
-2.97989
-2.57181
-2.22867
-1.94987
-1.72312
-1.53884
-1.36975
-1.20227
-1.01926
-7.09396
-7.13659
-6.99377
-6.70299
-6.30027
-5.81941
-5.2938
-4.75126
-4.21719
-3.71325
-3.25229
-2.84875
-2.5065
-2.22861
-2.01099
-1.85305
-1.73963
-1.65977
-1.59424
-7.61442
-7.53387
-7.29581
-6.93851
-6.49404
-5.99192
-5.45936
-4.92005
-4.39523
-3.9023
-3.45379
-3.06082
-2.72742
-2.4558
-2.24436
-2.092
-1.99268
-1.94354
-1.93953
-8.18606
-7.96107
-7.62354
-7.19892
-6.71118
-6.18414
-5.64001
-5.09895
-4.5792
-4.09547
-3.65938
-3.27997
-2.96052
-2.70186
-2.50146
-2.35446
-2.25237
-2.18682
-2.14764
-8.69308
-8.34042
-7.9148
-7.4296
-6.90202
-6.35081
-5.79441
-5.24978
-4.73266
-4.25556
-3.82862
-3.45949
-3.15044
-2.90147
-2.70957
-2.56942
-2.47268
-2.41134
-2.37582
-9.08707
-8.65035
-8.16085
-7.62964
-7.07106
-6.50086
-5.93483
-5.38753
-4.87276
-4.40131
-3.98221
-3.62203
-3.32236
-3.08263
-2.89969
-2.76785
-2.67898
-2.62494
-2.59622
-9.39476
-8.89518
-8.35737
-7.79109
-7.20875
-6.62397
-6.05052
-5.50118
-4.98828
-4.52132
-4.10853
-3.75562
-3.4637
-3.2318
-3.05663
-2.93219
-2.85046
-2.80321
-2.78097
-9.6175
-9.07125
-8.4972
-7.90518
-7.30581
-6.71079
-6.13225
-5.58163
-5.07022
-4.60659
-4.19844
-3.85092
-3.56477
-3.33874
-3.16943
-3.05057
-2.97414
-2.93172
-2.9138
-9.76862
-9.1733
-8.57172
-7.96336
-7.35427
-6.75384
-6.17285
-5.62186
-5.11156
-4.65
-4.24459
-3.90018
-3.61737
-3.39476
-3.22896
-3.11361
-3.04077
-3.002
-2.98777
-9.76867
-9.17339
-8.57183
-7.96348
-7.3544
-6.75398
-6.173
-5.62201
-5.11171
-4.65016
-4.24475
-3.90035
-3.61754
-3.39494
-3.22914
-3.1138
-3.04097
-3.00221
-2.988
-9.61756
-9.07141
-8.49744
-7.90547
-7.30614
-6.71116
-6.13265
-5.58205
-5.07065
-4.60704
-4.19891
-3.8514
-3.56527
-3.33926
-3.16998
-3.05115
-2.97476
-2.93238
-2.91453
-9.39486
-8.89544
-8.35774
-7.79155
-7.20928
-6.62456
-6.05116
-5.50185
-4.98899
-4.52205
-4.10928
-3.7564
-3.4645
-3.23263
-3.05749
-2.9331
-2.85143
-2.80425
-2.78209
-9.0872
-8.65067
-8.16133
-7.63023
-7.07174
-6.50163
-5.93566
-5.38841
-4.87368
-4.40226
-3.98319
-3.62304
-3.32338
-3.08369
-2.90078
-2.76899
-2.68018
-2.62621
-2.59758
-8.69322
-8.34079
-7.91534
-7.43029
-6.90282
-6.35172
-5.7954
-5.25084
-4.73377
-4.25671
-3.82979
-3.46069
-3.15167
-2.90272
-2.71086
-2.57075
-2.47407
-2.4128
-2.37736
-8.18623
-7.96148
-7.62414
-7.19968
-6.71209
-6.18516
-5.64112
-5.10014
-4.58046
-4.09677
-3.66071
-3.28132
-2.96187
-2.70323
-2.50285
-2.35587
-2.2538
-2.18828
-2.14914
-7.61461
-7.53435
-7.29656
-6.93951
-6.49527
-5.99336
-5.46096
-4.92179
-4.39707
-3.90422
-3.45577
-3.06285
-2.72949
-2.45792
-2.24653
-2.09419
-1.99482
-1.9455
-1.94111
-7.09408
-7.13669
-6.99396
-6.70333
-6.30079
-5.82013
-5.2947
-4.7523
-4.21834
-3.71442
-3.25346
-2.84983
-2.50744
-2.22938
-2.01157
-1.85352
-1.74023
-1.66095
-1.59668
-6.62757
-6.76438
-6.69809
-6.45897
-6.0838
-5.61025
-5.07857
-4.52215
-3.97187
-3.45415
-2.98294
-2.57485
-2.23167
-1.95286
-1.72621
-1.5422
-1.37363
-1.20693
-1.02487
-6.19757
-6.42126
-6.41661
-6.21239
-5.84725
-5.36412
-4.81047
-4.22678
-3.64988
-3.10993
-2.62241
-2.20286
-1.84963
-1.55661
-1.30717
-1.08873
-0.88088
-0.681966
-0.491448
-5.82465
-6.1278
-6.18222
-6.01223
-5.65737
-5.16595
-4.59244
-3.9848
-3.38571
-2.82866
-2.3308
-1.90573
-1.54948
-1.25342
-1.0024
-0.787278
-0.599155
-0.443787
-0.327292
-5.48895
-5.8693
-5.98015
-5.8416
-5.4944
-4.99273
-4.39852
-3.76749
-3.14819
-2.57712
-2.07281
-1.64704
-1.29459
-1.00622
-0.769303
-0.577136
-0.42395
-0.310806
-0.233123
-5.16377
-5.63698
-5.807
-5.69874
-5.35725
-4.8438
-4.22856
-3.57528
-2.93829
-2.35687
-1.85054
-1.42944
-1.08747
-0.814946
-0.600205
-0.435832
-0.314137
-0.230275
-0.175303
-4.90892
-5.4547
-5.67472
-5.58944
-5.24788
-4.71885
-4.08126
-3.40667
-2.75474
-2.16685
-1.66285
-1.25107
-0.924145
-0.671303
-0.480131
-0.34088
-0.24318
-0.178759
-0.137771
-4.73231
-5.3247
-5.57641
-5.50092
-5.15072
-4.60201
-3.94211
-3.24938
-2.58756
-1.99892
-1.50261
-1.10464
-0.795899
-0.563867
-0.394559
-0.275876
-0.195643
-0.144194
-0.112063
-4.64276
-5.26136
-5.52171
-5.43743
-5.06654
-4.49245
-3.81001
-3.10253
-2.43595
-1.85186
-1.36754
-0.986179
-0.696529
-0.484137
-0.333428
-0.230643
-0.162789
-0.119923
-0.0932612
-4.65433
-5.26509
-5.50494
-5.39011
-4.98538
-4.38085
-3.67702
-2.9596
-2.29432
-1.7203
-1.25186
-0.889066
-0.618453
-0.423865
-0.288584
-0.197989
-0.138961
-0.101754
-0.0781397
-4.7555
-5.32556
-5.52124
-5.36108
-4.91578
-4.28124
-3.56021
-2.83856
-2.17955
-1.61832
-1.16657
-0.820886
-0.566242
-0.385395
-0.261265
-0.178754
-0.12513
-0.0905493
-0.0664006
-4.89087
-5.4009
-5.54009
-5.33559
-4.85973
-4.20966
-3.48442
-2.76732
-2.11755
-1.56659
-1.12558
-0.788857
-0.541814
-0.366793
-0.247078
-0.167404
-0.116121
-0.0842292
-0.0655445
-5.04895
-5.49645
-5.5937
-5.37138
-4.89796
-4.26407
-3.55903
-2.85956
-2.22021
-1.67078
-1.22449
-0.877059
-0.616785
-0.428032
-0.295844
-0.205739
-0.147439
-0.11327
-0.0997997
-5.21618
-5.60171
-5.65695
-5.4157
-4.94332
-4.32348
-3.63668
-2.95286
-2.32242
-1.77384
-1.32173
-0.963752
-0.690718
-0.488966
-0.345177
-0.245799
-0.181489
-0.145045
-0.132598
-5.38802
-5.71939
-5.73635
-5.47861
-5.00839
-4.40202
-3.7316
-3.06092
-2.43686
-1.88703
-1.4275
-1.05791
-0.77145
-0.556366
-0.400943
-0.292433
-0.222259
-0.183345
-0.171589
-5.57716
-5.8557
-5.83506
-5.56195
-5.09341
-4.49799
-3.84033
-3.17906
-2.55834
-2.00525
-1.53728
-1.15584
-0.856257
-0.628464
-0.462227
-0.345466
-0.270334
-0.229863
-0.219916
-5.79863
-6.0093
-5.95189
-5.66438
-5.19552
-4.60681
-3.95703
-3.30085
-2.68049
-2.12273
-1.6462
-1.25379
-0.942517
-0.703739
-0.528554
-0.405414
-0.327277
-0.287303
-0.281405
-6.00458
-6.16212
-6.0783
-5.77907
-5.30764
-4.72109
-4.07434
-3.41945
-2.79731
-2.23446
-1.75036
-1.34894
-1.02854
-0.781593
-0.60044
-0.473915
-0.395939
-0.359802
-0.361517
-6.20565
-6.34
-6.23525
-5.9209
-5.43986
-4.84721
-4.19615
-3.53705
-2.90997
-2.34111
-1.85031
-1.44205
-1.11549
-0.863836
-0.680581
-0.554727
-0.481377
-0.453897
-0.468414
-6.44445
-6.54751
-6.41356
-6.07464
-5.57437
-4.96707
-4.30569
-3.63926
-3.00692
-2.434
-1.9401
-1.52959
-1.2021
-0.951265
-0.771787
-0.652615
-0.590415
-0.578561
-0.613338
-6.71801
-6.77544
-6.60248
-6.22801
-5.6983
-5.06878
-4.39296
-3.71843
-3.08289
-2.50999
-2.01858
-1.61221
-1.2907
-1.0479
-0.879932
-0.775386
-0.733069
-0.746233
-0.81138
-7.00559
-7.01904
-6.79649
-6.37339
-5.80395
-5.14616
-4.45397
-3.77283
-3.13817
-2.571
-2.08914
-1.6946
-1.38736
-1.16129
-1.01435
-0.934341
-0.923
-0.973217
-1.08177
-7.33241
-7.28772
-6.99271
-6.50391
-5.88485
-5.19495
-4.48708
-3.80329
-3.1757
-2.62164
-2.15791
-1.78428
-1.50106
-1.30208
-1.18768
-1.14432
-1.17763
-1.27974
-1.44776
-7.7223
-7.56017
-7.16415
-6.59594
-5.92273
-5.20286
-4.48533
-3.80743
-3.19675
-2.66595
-2.23145
-1.88991
-1.64258
-1.48319
-1.4153
-1.42319
-1.51759
-1.68934
-1.93602
-8.05643
-7.75826
-7.25324
-6.6063
-5.88693
-5.15037
-4.43804
-3.78139
-3.20258
-2.70895
-2.31777
-2.02195
-1.82458
-1.71939
-1.71417
-1.79019
-1.96481
-2.22703
-2.57552
-8.35445
-7.91782
-7.29204
-6.56766
-5.81212
-5.07265
-4.37913
-3.75676
-3.22206
-2.77692
-2.44125
-2.20352
-2.06975
-2.03376
-2.10858
-2.27127
-2.54749
-2.92377
-3.40125
-8.62831
-7.97994
-7.22446
-6.44094
-5.67402
-4.95622
-4.3025
-3.73279
-3.25855
-2.87657
-2.61159
-2.44707
-2.39331
-2.44429
-2.61952
-2.89063
-3.29363
-3.81242
-4.45417
-8.67746
-7.81809
-6.97873
-6.18752
-5.45258
-4.79192
-4.20561
-3.71144
-3.31715
-3.01536
-2.83812
-2.76347
-2.80758
-2.96493
-3.26308
-3.66754
-4.22801
-4.9271
-5.78742
-8.42577
-7.45315
-6.6086
-5.86764
-5.20451
-4.62945
-4.13082
-3.7282
-3.42751
-3.21838
-3.14251
-3.17247
-3.3319
-3.61635
-4.06348
-4.63244
-5.39131
-6.32488
-7.49395
-7.7749
-6.83613
-6.0872
-5.462
-4.91371
-4.4544
-4.0655
-3.77198
-3.57987
-3.47725
-3.5175
-3.66839
-3.963
-4.39941
-5.02888
-5.80573
-6.82516
-8.08263
-9.73787
-6.69536
-5.98395
-5.43159
-4.97933
-4.58193
-4.26319
-4.0024
-3.83244
-3.76119
-3.77684
-3.94621
-4.23402
-4.68554
-5.30461
-6.16235
-7.21344
-8.59645
-10.3357
-12.8583
-5.25968
-4.93677
-4.6537
-4.41408
-4.19412
-4.03483
-3.91659
-3.88103
-3.93926
-4.08146
-4.38961
-4.82859
-5.46035
-6.30098
-7.45358
-8.88588
-10.8125
-13.3248
-17.5999
-3.64125
-3.75441
-3.76409
-3.75398
-3.72695
-3.73928
-3.77308
-3.87756
-4.06777
-4.33793
-4.78704
-5.38504
-6.21784
-7.32671
-8.86991
-10.8577
-13.6495
-17.4884
-25.6968
-2.05367
-2.5055
-2.77549
-2.98811
-3.15836
-3.34775
-3.53713
-3.78031
-4.09534
-4.48273
-5.06007
-5.80764
-6.84692
-8.26881
-10.33
-13.151
-17.3883
-23.6393
-41.3838
-0.678212
-1.25086
-1.70271
-2.11284
-2.47614
-2.84291
-3.18517
-3.55797
-3.97703
-4.45229
-5.11997
-5.97078
-7.18289
-8.95715
-11.7879
-16.2709
-24.3619
-39.346
-92.9388
)
;

boundaryField
{
    up
    {
        type            calculated;
        value           nonuniform List<scalar> 
84
(
-84.2264
-45.617
-27.9505
-18.9457
-13.7497
-10.3748
-7.97026
-6.15117
-4.73188
-3.61154
-2.73121
-2.04811
-1.52625
-1.13482
-0.845875
-0.634815
-0.481079
-0.368416
-0.284641
-0.220939
-0.171329
-0.131531
-0.0972213
-0.0579078
-0.0555569
-0.0716144
-0.0858962
-0.102994
-0.125938
-0.159097
-0.209331
-0.286804
-0.423301
-0.985327
-1.61609
-1.95374
-2.13329
-2.36368
-2.58724
-2.775
-2.90986
-2.98572
-2.98595
-2.91061
-2.77615
-2.58863
-2.36527
-2.13482
-1.95497
-1.61869
-0.991771
-0.424697
-0.287511
-0.209772
-0.159391
-0.126147
-0.103153
-0.0860313
-0.0717583
-0.0556304
-0.0578453
-0.0972192
-0.131533
-0.171334
-0.220947
-0.284652
-0.368429
-0.481094
-0.634827
-0.845882
-1.13481
-1.52623
-2.04808
-2.73118
-3.61152
-4.73189
-6.1512
-7.97032
-10.3749
-13.7498
-18.9457
-27.9505
-45.617
-84.2264
)
;
    }
    low
    {
        type            calculated;
        value           nonuniform List<scalar> 
84
(
-0.728776
-2.14963
-3.84654
-5.59967
-7.15759
-8.31297
-8.97344
-9.18051
-9.02817
-8.62825
-8.26838
-7.87676
-7.40676
-7.03864
-6.7288
-6.42075
-6.15058
-5.9405
-5.71224
-5.43911
-5.20788
-5.00103
-4.79138
-4.59324
-4.39144
-4.25936
-4.25196
-4.38693
-4.62354
-4.95282
-5.34398
-5.72311
-6.14363
-6.62656
-7.13536
-7.71066
-8.35674
-8.90803
-9.32579
-9.65303
-9.89161
-10.0677
-10.0677
-9.89164
-9.65308
-9.32586
-8.9081
-8.35684
-7.71078
-7.1353
-6.62663
-6.14356
-5.72306
-5.34392
-4.95277
-4.62349
-4.3869
-4.25194
-4.25936
-4.39147
-4.59335
-4.79138
-5.00106
-5.2079
-5.43912
-5.71225
-5.94051
-6.15058
-6.42075
-6.7288
-7.03862
-7.40674
-7.87673
-8.26833
-8.62821
-9.02814
-9.18051
-8.97346
-8.31301
-7.15763
-5.59971
-3.84657
-2.14966
-0.728784
)
;
    }
    left
    {
        type            calculated;
        value           nonuniform List<scalar> 
19
(
-0.665988
-1.2295
-1.69189
-2.11772
-2.49853
-2.88226
-3.24112
-3.63268
-4.07266
-4.57858
-5.29252
-6.21024
-7.53398
-9.50396
-12.6742
-17.7757
-27.0841
-44.5186
-87.3493
)
;
    }
    right
    {
        type            calculated;
        value           nonuniform List<scalar> 
19
(
-0.665992
-1.2295
-1.69188
-2.11772
-2.49853
-2.88226
-3.24112
-3.63268
-4.07267
-4.57859
-5.29252
-6.21023
-7.53395
-9.50393
-12.6742
-17.7757
-27.0841
-44.5186
-87.3493
)
;
    }
    frontAndBackPlanes
    {
        type            empty;
    }
}


// ************************************************************************* //
