/*--------------------------------*- C++ -*----------------------------------*\
  =========                 |
  \\      /  F ield         | OpenFOAM: The Open Source CFD Toolbox
   \\    /   O peration     | Website:  https://openfoam.org
    \\  /    A nd           | Version:  7
     \\/     M anipulation  |
\*---------------------------------------------------------------------------*/
FoamFile
{
    version     2.0;
    format      ascii;
    class       volScalarField;
    location    "0.031";
    object      gradTy;
}
// * * * * * * * * * * * * * * * * * * * * * * * * * * * * * * * * * * * * * //

dimensions      [0 -1 0 1 0 0 0];

internalField   nonuniform List<scalar> 
1596
(
-3.28792
-5.73552
-7.18332
-8.08905
-8.62248
-9.12703
-9.55983
-10.0874
-10.6853
-11.2825
-12.112
-12.9789
-14.1283
-15.8148
-18.8413
-24.13
-34.6839
-55.2062
-130.132
-9.44301
-10.5938
-10.3438
-9.65404
-8.96961
-8.65373
-8.58933
-8.7993
-9.17971
-9.59384
-10.2197
-10.8894
-11.7797
-13.02
-15.1169
-18.3169
-23.7892
-32.4231
-57.4861
-15.4208
-14.4294
-12.3631
-10.2083
-8.46936
-7.43333
-6.91589
-6.81859
-6.97302
-7.20831
-7.63352
-8.10413
-8.73718
-9.60197
-11.0613
-13.2218
-16.834
-22.3137
-34.3147
-20.1575
-17.1712
-13.5895
-10.2674
-7.69601
-6.07219
-5.17353
-4.80879
-4.76285
-4.84696
-5.10045
-5.40307
-5.81997
-6.38308
-7.34172
-8.75375
-11.1435
-14.769
-21.3288
-23.1828
-18.9866
-14.4194
-10.2916
-7.11052
-5.02654
-3.81562
-3.22738
-3.01501
-2.97885
-3.09732
-3.26995
-3.52173
-3.86102
-4.4455
-5.31219
-6.82835
-9.19883
-13.1282
-24.6243
-20.0943
-15.089
-10.4961
-6.89764
-4.45868
-2.98856
-2.21135
-1.86127
-1.73
-1.74796
-1.82637
-1.96179
-2.14823
-2.47444
-2.96313
-3.85693
-5.3254
-7.73047
-24.9099
-20.6595
-15.6513
-10.8749
-7.01776
-4.30933
-2.62016
-1.67841
-1.21114
-1.0025
-0.947638
-0.961399
-1.02115
-1.11235
-1.27744
-1.52741
-2.00837
-2.8489
-4.27063
-24.4755
-20.7846
-16.0537
-11.3084
-7.32777
-4.42793
-2.55763
-1.47223
-0.903099
-0.629276
-0.521336
-0.492109
-0.505829
-0.542714
-0.617443
-0.732554
-0.966769
-1.4058
-2.19195
-23.6709
-20.656
-16.3401
-11.7524
-7.73766
-4.70204
-2.67776
-1.46229
-0.799986
-0.467389
-0.318046
-0.259347
-0.245767
-0.253596
-0.282316
-0.329407
-0.432164
-0.640412
-1.04094
-22.6333
-20.1916
-16.3312
-11.999
-8.05207
-4.96431
-2.84151
-1.52957
-0.79355
-0.413065
-0.232319
-0.153383
-0.123796
-0.116754
-0.123918
-0.140169
-0.180368
-0.2697
-0.456617
-21.7709
-19.6476
-16.1443
-12.068
-8.23675
-5.15625
-2.98442
-1.61056
-0.822305
-0.406089
-0.202455
-0.109642
-0.070537
-0.0559471
-0.053604
-0.0572092
-0.0708862
-0.105496
-0.185242
-20.9664
-19.1396
-15.9146
-12.0535
-8.33857
-5.28896
-3.09608
-1.68356
-0.859153
-0.416923
-0.196754
-0.0942876
-0.0493038
-0.0307608
-0.0243255
-0.0231171
-0.0266476
-0.038598
-0.0696577
-20.1149
-18.5352
-15.5426
-11.8745
-8.28789
-5.30413
-3.13047
-1.71365
-0.877377
-0.424108
-0.196181
-0.0889595
-0.0411312
-0.0208069
-0.0127559
-0.00987362
-0.00990893
-0.013396
-0.0244027
-19.4815
-17.9758
-15.1102
-11.5779
-8.10613
-5.20583
-3.08251
-1.69214
-0.867648
-0.418783
-0.192217
-0.085204
-0.0372296
-0.0166665
-0.00823904
-0.00491487
-0.00390615
-0.00455763
-0.00806332
-18.9857
-17.5014
-14.6753
-11.2152
-7.83223
-5.01914
-2.96591
-1.62488
-0.831157
-0.399725
-0.182381
-0.0798901
-0.0340204
-0.0143771
-0.006279
-0.0030267
-0.00181115
-0.0016289
-0.00258163
-18.5579
-17.0833
-14.2414
-10.802
-7.48305
-4.75796
-2.79033
-1.51766
-0.770791
-0.367926
-0.166502
-0.0721739
-0.0302544
-0.0124252
-0.00511218
-0.0021832
-0.00104502
-0.000681221
-0.000850107
-18.2547
-16.7228
-13.8044
-10.339
-7.06394
-4.42975
-2.56306
-1.37624
-0.690402
-0.32559
-0.14559
-0.062316
-0.0257475
-0.0103732
-0.00413614
-0.00166398
-0.000703481
-0.0003556
-0.000318268
-18.0866
-16.4422
-13.3842
-9.84761
-6.5979
-4.05617
-2.30175
-1.21317
-0.597916
-0.277223
-0.121953
-0.05136
-0.0208733
-0.00825917
-0.00322042
-0.00125293
-0.0004978
-0.000218231
-0.00014651
-17.9388
-16.2505
-13.027
-9.3812
-6.13436
-3.67754
-2.03565
-1.04749
-0.504561
-0.228863
-0.0985854
-0.0406795
-0.0162034
-0.00628217
-0.00239697
-0.000908836
-0.000347982
-0.000141801
-8.01273e-05
-17.7877
-16.0907
-12.6897
-8.91247
-5.65971
-3.29037
-1.76655
-0.882584
-0.413318
-0.182516
-0.0766406
-0.0308589
-0.0120038
-0.00454699
-0.00169495
-0.000627083
-0.000233321
-9.10224e-05
-4.7024e-05
-17.7594
-15.9994
-12.3771
-8.44005
-5.17515
-2.89921
-1.50021
-0.723377
-0.327552
-0.140129
-0.0571109
-0.0223539
-0.00846417
-0.00312409
-0.00113549
-0.000409648
-0.00014844
-5.60374e-05
-2.74978e-05
-17.7889
-15.9846
-12.1105
-7.98677
-4.70167
-2.52091
-1.24836
-0.577026
-0.2511
-0.103519
-0.0407643
-0.0154521
-0.00567749
-0.00203678
-0.000720464
-0.000253171
-8.93627e-05
-3.27644e-05
-1.54947e-05
-17.8055
-16.0258
-11.9047
-7.57944
-4.26382
-2.17256
-1.02089
-0.448371
-0.185963
-0.0733493
-0.0277424
-0.0101368
-0.00360153
-0.00125268
-0.000430551
-0.00014726
-5.06517e-05
-1.80735e-05
-8.27354e-06
-17.7713
-16.0863
-11.7569
-7.23585
-3.88112
-1.86638
-0.822938
-0.338467
-0.131647
-0.0488817
-0.0174852
-0.0060746
-0.00206194
-0.000687979
-0.000227513
-7.50929e-05
-2.49865e-05
-8.65355e-06
-3.71106e-06
-17.6996
-16.2501
-11.9049
-7.27463
-3.84339
-1.80731
-0.775228
-0.309275
-0.116772
-0.0422963
-0.0148728
-0.00513713
-0.00175443
-0.000596296
-0.000203043
-6.97903e-05
-2.4434e-05
-9.04114e-06
-3.90363e-06
-17.5884
-16.4407
-12.2405
-7.58888
-4.05665
-1.9211
-0.824898
-0.327115
-0.121935
-0.0434017
-0.0149763
-0.00509752
-0.00173237
-0.000594557
-0.000207946
-7.47177e-05
-2.78491e-05
-1.11993e-05
-5.33497e-06
-17.5299
-16.5622
-12.5672
-7.98184
-4.38122
-2.12928
-0.935054
-0.376701
-0.141259
-0.0499605
-0.0168912
-0.00556561
-0.0018193
-0.00060325
-0.00020745
-7.54394e-05
-2.96239e-05
-1.31872e-05
-7.1794e-06
-17.5631
-16.6255
-12.8636
-8.43014
-4.81155
-2.44187
-1.12105
-0.471125
-0.183196
-0.066498
-0.0226942
-0.00737652
-0.0023087
-0.000709985
-0.000221146
-7.3025e-05
-2.75262e-05
-1.34196e-05
-8.95783e-06
-17.6784
-16.6953
-13.1733
-8.94489
-5.34902
-2.86547
-1.39502
-0.623041
-0.25743
-0.0990318
-0.0355772
-0.0120194
-0.00381847
-0.00114277
-0.000321486
-8.46619e-05
-2.17231e-05
-8.96091e-06
-9.13271e-06
-17.8941
-16.8044
-13.5099
-9.51148
-5.97078
-3.38691
-1.75676
-0.839716
-0.372605
-0.154371
-0.0598431
-0.0218337
-0.00747586
-0.00239043
-0.000698147
-0.000172729
-2.37016e-05
5.36888e-06
-1.76562e-06
-18.2409
-17.0204
-13.9313
-10.1553
-6.68068
-4.00654
-2.21199
-1.13174
-0.540308
-0.242122
-0.102108
-0.0408061
-0.0154378
-0.00552124
-0.00183945
-0.000541732
-0.000100103
2.68333e-05
3.06465e-05
-18.5642
-17.3202
-14.4464
-10.8865
-7.48464
-4.73093
-2.77198
-1.51445
-0.776658
-0.376191
-0.172683
-0.075744
-0.0317944
-0.0128167
-0.00494539
-0.00180031
-0.000531494
-2.85745e-05
0.000112545
-18.9819
-17.7344
-15.0489
-11.6839
-8.35977
-5.54538
-3.43461
-1.99687
-1.09684
-0.572843
-0.285581
-0.137162
-0.0636771
-0.0287662
-0.0126933
-0.0055262
-0.002245
-0.000661265
0.000216851
-19.5773
-18.3094
-15.77
-12.5709
-9.32543
-6.46986
-4.22438
-2.60895
-1.53377
-0.864042
-0.468798
-0.24748
-0.127868
-0.0653296
-0.0333793
-0.0174795
-0.00944533
-0.00525989
-0.00269529
-20.2801
-18.9539
-16.4787
-13.3851
-10.2045
-7.33323
-4.99382
-3.23732
-2.0093
-1.20115
-0.695298
-0.393306
-0.218765
-0.120803
-0.0670014
-0.0382033
-0.0229487
-0.0151028
-0.0109243
-21.1464
-19.6383
-17.0974
-14.0038
-10.8299
-7.93765
-5.53861
-3.69486
-2.36916
-1.46802
-0.884033
-0.521698
-0.303644
-0.175897
-0.102646
-0.0616318
-0.0391875
-0.0277185
-0.0226371
-22.2083
-20.4267
-17.7352
-14.5603
-11.3325
-8.38925
-5.93083
-4.02063
-2.62738
-1.66368
-1.02693
-0.623
-0.373988
-0.224275
-0.136174
-0.085528
-0.0571932
-0.042426
-0.035716
-23.1694
-21.1472
-18.3115
-15.0513
-11.7676
-8.7772
-6.26959
-4.30598
-2.85812
-1.84279
-1.16117
-0.720901
-0.444056
-0.274066
-0.171926
-0.112039
-0.0780461
-0.0602538
-0.0523464
-23.9078
-21.7435
-18.8076
-15.4812
-12.1506
-9.11928
-6.5693
-4.56011
-3.06567
-2.00602
-1.2855
-0.813295
-0.51164
-0.323312
-0.208333
-0.139929
-0.100751
-0.0802751
-0.0714465
-24.4933
-22.2203
-19.2047
-15.824
-12.4544
-9.39033
-6.80739
-4.76327
-3.2332
-2.13938
-1.38856
-0.891183
-0.569715
-0.366561
-0.241112
-0.165735
-0.122355
-0.0997928
-0.0903899
-24.9265
-22.5664
-19.4849
-16.0601
-12.6609
-9.57375
-6.96892
-4.90207
-3.34878
-2.23247
-1.46147
-0.947094
-0.612087
-0.398694
-0.265971
-0.185739
-0.139468
-0.115527
-0.105827
-25.2411
-22.7679
-19.6268
-16.1706
-12.7546
-9.65698
-7.04345
-4.96757
-3.40459
-2.27842
-1.4982
-0.975804
-0.634248
-0.415808
-0.279457
-0.196794
-0.149096
-0.124523
-0.114768
-25.2412
-22.7682
-19.6272
-16.1711
-12.7551
-9.65746
-7.04389
-4.96795
-3.4049
-2.27866
-1.49838
-0.975937
-0.634345
-0.415879
-0.279509
-0.196835
-0.14913
-0.124553
-0.114799
-24.9267
-22.5669
-19.4858
-16.0613
-12.6623
-9.57513
-6.97019
-4.90317
-3.34968
-2.23318
-1.462
-0.947484
-0.61237
-0.3989
-0.266123
-0.185855
-0.139563
-0.115614
-0.105914
-24.4936
-22.2211
-19.2062
-15.8259
-12.4566
-9.39253
-6.80943
-4.76503
-3.23462
-2.14049
-1.38939
-0.891785
-0.570147
-0.366871
-0.241338
-0.165906
-0.122494
-0.0999162
-0.0905116
-23.9081
-21.7446
-18.8096
-15.4838
-12.1534
-9.1222
-6.57199
-4.56241
-3.06753
-2.00744
-1.28654
-0.814048
-0.512173
-0.323687
-0.2086
-0.140126
-0.100907
-0.0804106
-0.0715778
-23.1698
-21.1485
-18.3138
-15.0544
-11.7712
-8.78077
-6.27285
-4.30874
-2.86032
-1.84445
-1.16237
-0.721751
-0.444644
-0.27447
-0.172207
-0.11224
-0.0781999
-0.0603838
-0.0524696
-22.2087
-20.4282
-17.7379
-14.5639
-11.3367
-8.39336
-5.93455
-4.02374
-2.62981
-1.66548
-1.02821
-0.623881
-0.374582
-0.224672
-0.136441
-0.0857123
-0.0573291
-0.0425372
-0.0358195
-21.1468
-19.6401
-17.1007
-14.0083
-10.835
-7.94273
-5.54316
-3.69859
-2.37201
-1.47008
-0.885459
-0.522651
-0.304266
-0.176298
-0.102908
-0.0618066
-0.0393116
-0.0278164
-0.0227274
-20.2804
-18.955
-16.4814
-13.3896
-10.2101
-7.33913
-4.9993
-3.2419
-2.01282
-1.20367
-0.697
-0.394404
-0.219449
-0.121219
-0.0672515
-0.0383543
-0.0230454
-0.0151769
-0.0110031
-19.5777
-18.3117
-15.7748
-12.5776
-9.33323
-6.47754
-4.23109
-2.61425
-1.53763
-0.866675
-0.470498
-0.248535
-0.128505
-0.0657095
-0.033606
-0.0176191
-0.0095395
-0.00533252
-0.00275082
-18.9821
-17.7361
-15.0527
-11.6894
-8.36604
-5.55135
-3.43956
-2.00055
-1.09933
-0.574411
-0.286506
-0.137682
-0.0639583
-0.0289144
-0.0127702
-0.00556711
-0.00226846
-0.000674253
0.00022291
-18.5643
-17.3217
-14.4501
-10.8919
-7.49049
-4.73624
-2.77614
-1.51736
-0.778495
-0.377262
-0.173266
-0.0760452
-0.0319431
-0.0128878
-0.00497876
-0.00181611
-0.000537698
-2.77413e-05
0.000118038
-18.241
-17.0219
-13.9348
-10.1603
-6.68601
-4.01113
-2.21539
-1.13395
-0.541609
-0.242824
-0.10246
-0.040972
-0.0155118
-0.00555279
-0.00185252
-0.000547031
-0.000100986
2.96521e-05
3.33246e-05
-17.8941
-16.8058
-13.5133
-9.51621
-5.97555
-3.3908
-1.75946
-0.841354
-0.373499
-0.154817
-0.0600478
-0.0219215
-0.007511
-0.00240353
-0.0007027
-0.000174093
-2.34233e-05
6.92969e-06
-1.00782e-06
-17.6783
-16.6966
-13.1765
-8.94919
-5.35316
-2.86865
-1.39708
-0.624208
-0.25802
-0.0993033
-0.0356915
-0.0120639
-0.00383426
-0.00114779
-0.000322826
-8.4836e-05
-2.1429e-05
-8.39534e-06
-9.10803e-06
-17.563
-16.6266
-12.8666
-8.43394
-4.81503
-2.44438
-1.12257
-0.471924
-0.183571
-0.0666571
-0.0227557
-0.00739818
-0.00231551
-0.000711808
-0.000221494
-7.30005e-05
-2.74156e-05
-1.33027e-05
-9.08562e-06
-17.5298
-16.5632
-12.5698
-7.98506
-4.384
-2.13117
-0.936125
-0.377229
-0.14149
-0.0500522
-0.0169242
-0.00557634
-0.00182243
-0.000604046
-0.000207624
-7.54748e-05
-2.96401e-05
-1.3215e-05
-7.28525e-06
-17.5883
-16.4416
-12.2426
-7.59138
-4.05871
-1.92243
-0.825619
-0.327452
-0.122076
-0.0434546
-0.0149944
-0.00510329
-0.00173409
-0.000595074
-0.000208124
-7.48001e-05
-2.79023e-05
-1.12439e-05
-5.38751e-06
-17.6997
-16.2503
-11.9055
-7.27532
-3.84393
-1.80763
-0.775387
-0.309342
-0.116797
-0.0423045
-0.0148753
-0.00513795
-0.00175475
-0.00059646
-0.000203141
-6.98516e-05
-2.44737e-05
-9.06795e-06
-3.91952e-06
-17.7713
-16.086
-11.7564
-7.2352
-3.88051
-1.86593
-0.822649
-0.338307
-0.131567
-0.0488454
-0.0174697
-0.00606837
-0.00205953
-0.000687082
-0.000227187
-7.49771e-05
-2.49463e-05
-8.63942e-06
-3.70422e-06
-17.8055
-16.0258
-11.9048
-7.57948
-4.26384
-2.17257
-1.02089
-0.448376
-0.185966
-0.073351
-0.0277434
-0.0101372
-0.00360169
-0.00125273
-0.000430565
-0.000147262
-5.06512e-05
-1.80725e-05
-8.27221e-06
-17.7889
-15.9846
-12.1106
-7.98678
-4.70168
-2.5209
-1.24836
-0.577025
-0.2511
-0.10352
-0.0407648
-0.0154524
-0.00567765
-0.00203685
-0.000720489
-0.000253179
-8.93641e-05
-3.27639e-05
-1.54933e-05
-17.7594
-15.9994
-12.3771
-8.44006
-5.17516
-2.89921
-1.50021
-0.723374
-0.327551
-0.140129
-0.0571113
-0.0223543
-0.0084644
-0.00312422
-0.00113556
-0.000409676
-0.00014845
-5.60409e-05
-2.74985e-05
-17.7877
-16.0907
-12.6897
-8.91249
-5.65971
-3.29037
-1.76655
-0.882582
-0.413316
-0.182516
-0.0766409
-0.0308593
-0.0120041
-0.00454721
-0.00169508
-0.000627147
-0.000233346
-9.10318e-05
-4.70294e-05
-17.9388
-16.2505
-13.027
-9.38121
-6.13437
-3.67755
-2.03565
-1.04749
-0.504558
-0.228862
-0.0985855
-0.0406799
-0.0162039
-0.00628253
-0.00239719
-0.000908949
-0.000348016
-0.00014181
-8.0142e-05
-18.0866
-16.4422
-13.3842
-9.84762
-6.59791
-4.05617
-2.30175
-1.21316
-0.597913
-0.277221
-0.121953
-0.0513606
-0.020874
-0.00825971
-0.00322076
-0.00125309
-0.000497792
-0.000218212
-0.000146554
-18.2547
-16.7228
-13.8043
-10.339
-7.06396
-4.42976
-2.56306
-1.37624
-0.690399
-0.325589
-0.145591
-0.0623168
-0.0257485
-0.0103739
-0.00413661
-0.00166409
-0.000703243
-0.000355475
-0.00031845
-18.5579
-17.0832
-14.2414
-10.802
-7.48306
-4.75797
-2.79033
-1.51766
-0.770789
-0.367925
-0.166502
-0.072175
-0.0302556
-0.0124261
-0.00511269
-0.00218296
-0.00104402
-0.000680872
-0.000850887
-18.9857
-17.5014
-14.6753
-11.2152
-7.83224
-5.01915
-2.96591
-1.62488
-0.831157
-0.399725
-0.182382
-0.0798916
-0.0340218
-0.0143783
-0.00627938
-0.00302533
-0.00180821
-0.00162838
-0.00258453
-19.4814
-17.9758
-15.1102
-11.5779
-8.10614
-5.20584
-3.08252
-1.69215
-0.867652
-0.418786
-0.192219
-0.0852062
-0.0372316
-0.0166681
-0.00823875
-0.00491064
-0.00389919
-0.00455792
-0.00807223
-20.1149
-18.5352
-15.5426
-11.8745
-8.2879
-5.30414
-3.13048
-1.71366
-0.877384
-0.424114
-0.196185
-0.0889625
-0.0411341
-0.0208088
-0.0127536
-0.00986352
-0.00989557
-0.0134005
-0.0244251
-20.9664
-19.1395
-15.9146
-12.0535
-8.33857
-5.28897
-3.09609
-1.68358
-0.859163
-0.41693
-0.196759
-0.094292
-0.0493082
-0.0307626
-0.0243185
-0.0230975
-0.0266278
-0.0386143
-0.0697029
-21.7709
-19.6476
-16.1443
-12.068
-8.23677
-5.15627
-2.98444
-1.61058
-0.822319
-0.406099
-0.202462
-0.109648
-0.0705427
-0.0559463
-0.0535884
-0.0571793
-0.0708674
-0.105534
-0.185311
-22.6333
-20.1917
-16.3313
-11.999
-8.05208
-4.96433
-2.84153
-1.52959
-0.793564
-0.413075
-0.232328
-0.153391
-0.1238
-0.116745
-0.123889
-0.140136
-0.180369
-0.269761
-0.456686
-23.6709
-20.656
-16.3401
-11.7524
-7.73767
-4.70205
-2.67778
-1.46231
-0.799997
-0.467397
-0.318053
-0.259351
-0.245761
-0.25357
-0.282276
-0.32939
-0.43221
-0.640475
-1.04095
-24.4754
-20.7846
-16.0537
-11.3084
-7.32778
-4.42794
-2.55764
-1.47224
-0.903105
-0.629281
-0.521339
-0.492103
-0.505803
-0.542667
-0.617403
-0.732581
-0.966873
-1.40581
-2.19182
-24.9099
-20.6595
-15.6513
-10.8749
-7.01777
-4.30933
-2.62017
-1.67841
-1.21114
-1.00249
-0.947629
-0.961373
-1.02109
-1.11229
-1.27743
-1.5275
-2.00851
-2.84881
-4.27035
-24.6243
-20.0943
-15.089
-10.4962
-6.89765
-4.45868
-2.98855
-2.21134
-1.86126
-1.72998
-1.74793
-1.82632
-1.96173
-2.14819
-2.47448
-2.96326
-3.85703
-5.32522
-7.73015
-23.1829
-18.9866
-14.4194
-10.2916
-7.11052
-5.02653
-3.81561
-3.22737
-3.01499
-2.97882
-3.09727
-3.26989
-3.52168
-3.86103
-4.4456
-5.31231
-6.82834
-9.19864
-13.128
-20.1576
-17.1712
-13.5895
-10.2674
-7.69601
-6.07218
-5.17352
-4.80877
-4.76283
-4.84692
-5.1004
-5.40302
-5.81996
-6.38315
-7.34185
-8.75381
-11.1433
-14.7689
-21.3289
-15.4208
-14.4294
-12.3632
-10.2083
-8.46935
-7.43332
-6.91587
-6.81857
-6.97299
-7.20828
-7.63349
-8.10411
-8.73722
-9.60206
-11.0614
-13.2218
-16.8339
-22.3138
-34.3149
-9.44304
-10.5938
-10.3438
-9.65404
-8.9696
-8.65372
-8.58932
-8.79929
-9.1797
-9.59383
-10.2197
-10.8894
-11.7797
-13.02
-15.1169
-18.3168
-23.789
-32.4232
-57.4863
-3.28793
-5.73552
-7.18333
-8.08905
-8.62248
-9.12703
-9.55983
-10.0874
-10.6853
-11.2825
-12.112
-12.979
-14.1284
-15.8149
-18.8413
-24.1299
-34.6838
-55.2061
-130.132
)
;

boundaryField
{
    up
    {
        type            calculated;
        value           nonuniform List<scalar> 
84
(
-118.061
-63.7363
-37.8879
-23.5752
-14.5732
-8.62528
-4.78636
-2.46439
-1.17192
-0.514063
-0.208115
-0.0779529
-0.0271563
-0.00888918
-0.00279637
-0.000888808
-0.000312683
-0.000133475
-6.87826e-05
-3.8931e-05
-2.22638e-05
-1.23424e-05
-6.46695e-06
-2.65841e-06
-2.68615e-06
-4.15141e-06
-6.02546e-06
-8.50536e-06
-1.12298e-05
-9.81322e-06
1.90362e-05
0.000165268
0.000546247
-0.00198797
-0.0100687
-0.0214265
-0.0339665
-0.0503666
-0.0693477
-0.0882797
-0.103761
-0.112775
-0.112806
-0.103849
-0.088403
-0.0694799
-0.0504897
-0.0340693
-0.0215164
-0.0101531
-0.00204127
0.000564555
0.000174771
2.07193e-05
-1.04539e-05
-1.20144e-05
-8.98389e-06
-6.25821e-06
-4.24003e-06
-2.70516e-06
-2.65233e-06
-6.46542e-06
-1.23405e-05
-2.22632e-05
-3.89347e-05
-6.87973e-05
-0.000133532
-0.000312932
-0.000889839
-0.00280005
-0.00890013
-0.0271829
-0.0780039
-0.208186
-0.514117
-1.17188
-2.46418
-4.78599
-8.62497
-14.5732
-23.5755
-37.8884
-63.7363
-118.061
)
;
    }
    low
    {
        type            calculated;
        value           nonuniform List<scalar> 
84
(
-3.57692
-10.0431
-16.5619
-21.8232
-25.1918
-26.7271
-26.8855
-26.2146
-25.0769
-23.694
-22.6909
-21.7594
-20.7157
-19.9982
-19.4707
-18.9775
-18.6245
-18.4817
-18.3187
-18.0618
-17.9597
-17.9283
-17.8405
-17.6892
-17.3532
-17.0522
-16.9413
-17.096
-17.3967
-17.8387
-18.3725
-18.7823
-19.2872
-19.9819
-20.758
-21.7411
-22.9788
-24.0337
-24.8132
-25.4347
-25.8997
-26.2758
-26.2759
-25.8997
-25.4347
-24.8133
-24.0338
-22.9789
-21.7413
-20.7576
-19.9821
-19.2869
-18.782
-18.3722
-17.8383
-17.3963
-17.0956
-16.9409
-17.052
-17.3531
-17.6894
-17.8404
-17.9282
-17.9597
-18.0618
-18.3187
-18.4817
-18.6245
-18.9775
-19.4707
-19.9982
-20.7156
-21.7594
-22.6908
-23.6939
-25.0768
-26.2146
-26.8855
-26.7271
-25.1918
-21.8233
-16.562
-10.0432
-3.57692
)
;
    }
    left
    {
        type            calculated;
        value           nonuniform List<scalar> 
19
(
-3.26431
-5.73991
-7.29426
-8.3055
-8.92121
-9.48722
-9.9642
-10.5358
-11.1738
-11.8186
-12.7086
-13.6324
-14.8678
-16.7223
-20.0885
-26.1094
-38.2854
-62.2422
-122.194
)
;
    }
    right
    {
        type            calculated;
        value           nonuniform List<scalar> 
19
(
-3.26432
-5.73992
-7.29426
-8.3055
-8.92121
-9.48722
-9.9642
-10.5358
-11.1738
-11.8186
-12.7086
-13.6324
-14.8679
-16.7224
-20.0885
-26.1092
-38.2851
-62.2422
-122.194
)
;
    }
    frontAndBackPlanes
    {
        type            empty;
    }
}


// ************************************************************************* //
