/*--------------------------------*- C++ -*----------------------------------*\
  =========                 |
  \\      /  F ield         | OpenFOAM: The Open Source CFD Toolbox
   \\    /   O peration     | Website:  https://openfoam.org
    \\  /    A nd           | Version:  7
     \\/     M anipulation  |
\*---------------------------------------------------------------------------*/
FoamFile
{
    version     2.0;
    format      ascii;
    class       volScalarField;
    location    "0.21";
    object      gradTy;
}
// * * * * * * * * * * * * * * * * * * * * * * * * * * * * * * * * * * * * * //

dimensions      [0 -1 0 1 0 0 0];

internalField   nonuniform List<scalar> 
1596
(
-0.0980048
-0.181794
-0.24997
-0.314803
-0.376168
-0.442127
-0.509051
-0.586098
-0.676732
-0.783459
-0.930578
-1.11789
-1.37855
-1.75141
-2.33309
-3.24212
-4.86802
-7.86848
-18.5875
-0.298257
-0.367029
-0.412724
-0.453905
-0.492765
-0.538441
-0.588075
-0.65021
-0.728277
-0.822928
-0.95459
-1.1209
-1.34411
-1.64181
-2.06363
-2.63436
-3.48402
-4.73342
-8.27941
-0.533087
-0.555069
-0.566456
-0.579526
-0.594085
-0.618071
-0.64831
-0.692347
-0.752789
-0.829021
-0.937927
-1.07505
-1.2558
-1.48823
-1.80245
-2.20191
-2.75729
-3.51904
-5.15275
-0.77837
-0.737614
-0.708608
-0.691214
-0.68064
-0.682202
-0.692021
-0.71628
-0.756708
-0.811865
-0.895613
-1.0024
-1.14316
-1.32107
-1.55524
-1.84088
-2.21956
-2.71163
-3.55364
-1.00354
-0.904309
-0.836418
-0.789353
-0.754365
-0.733861
-0.723373
-0.727604
-0.747576
-0.781423
-0.840471
-0.919
-1.02496
-1.15917
-1.33437
-1.54309
-1.81151
-2.14641
-2.63434
-1.18131
-1.04521
-0.947267
-0.874719
-0.817798
-0.776783
-0.74713
-0.732186
-0.732516
-0.746154
-0.782298
-0.835659
-0.912146
-1.01149
-1.14256
-1.2976
-1.49393
-1.73221
-2.04527
-1.29728
-1.15261
-1.03839
-0.947532
-0.872872
-0.814061
-0.767241
-0.73476
-0.717003
-0.712171
-0.727676
-0.758994
-0.810574
-0.881725
-0.978822
-1.09474
-1.24138
-1.41673
-1.63353
-1.35188
-1.22192
-1.10631
-1.00621
-0.919479
-0.846683
-0.785474
-0.737716
-0.703927
-0.682683
-0.679945
-0.692097
-0.722521
-0.770442
-0.84054
-0.926659
-1.03716
-1.16908
-1.32712
-1.35705
-1.25876
-1.15433
-1.05371
-0.960648
-0.877832
-0.80504
-0.744251
-0.696407
-0.660641
-0.641808
-0.637216
-0.649468
-0.677861
-0.725878
-0.788344
-0.87119
-0.971232
-1.0898
-1.32279
-1.25828
-1.17324
-1.08043
-0.987691
-0.900098
-0.819719
-0.749178
-0.690088
-0.642284
-0.609874
-0.591045
-0.587878
-0.59983
-0.629562
-0.672831
-0.733914
-0.80981
-0.900376
-1.28041
-1.23967
-1.17392
-1.09261
-1.00451
-0.916124
-0.831443
-0.75395
-0.686069
-0.628422
-0.584686
-0.553856
-0.537681
-0.535807
-0.550304
-0.577732
-0.621184
-0.677965
-0.747289
-1.2283
-1.21183
-1.16461
-1.09594
-1.01473
-0.928132
-0.84152
-0.759224
-0.684494
-0.618765
-0.565538
-0.524531
-0.497313
-0.483729
-0.485424
-0.499629
-0.528567
-0.569889
-0.622557
-1.16391
-1.16903
-1.1398
-1.08471
-1.01231
-0.930067
-0.844139
-0.759594
-0.680415
-0.608789
-0.548244
-0.499129
-0.462966
-0.439804
-0.431007
-0.434377
-0.451531
-0.480469
-0.520087
-1.10707
-1.12431
-1.10907
-1.06615
-1.00261
-0.925651
-0.841762
-0.756546
-0.674571
-0.598678
-0.532544
-0.477041
-0.433726
-0.402836
-0.385547
-0.380109
-0.38771
-0.406652
-0.435864
-1.0547
-1.08149
-1.07684
-1.04396
-0.988391
-0.916741
-0.835464
-0.7505
-0.666864
-0.587935
-0.517586
-0.457128
-0.408187
-0.371169
-0.347113
-0.334624
-0.334573
-0.345522
-0.366475
-1.00343
-1.03948
-1.04373
-1.01918
-0.970514
-0.90379
-0.825285
-0.741132
-0.656664
-0.575693
-0.502297
-0.43814
-0.384933
-0.343216
-0.313929
-0.295945
-0.289903
-0.294575
-0.309056
-0.957077
-0.999551
-1.01098
-0.99327
-0.950334
-0.887847
-0.811894
-0.72873
-0.643927
-0.561634
-0.486118
-0.419318
-0.36302
-0.317856
-0.284683
-0.262563
-0.251958
-0.251806
-0.261282
-0.916548
-0.963573
-0.980642
-0.968397
-0.930036
-0.870895
-0.796956
-0.714579
-0.62955
-0.546305
-0.469267
-0.400592
-0.342113
-0.29451
-0.258547
-0.233411
-0.219418
-0.215625
-0.221274
-0.875635
-0.931046
-0.954207
-0.946901
-0.912323
-0.855696
-0.783069
-0.700969
-0.615435
-0.531197
-0.45282
-0.382651
-0.322535
-0.273163
-0.23518
-0.207841
-0.191327
-0.184788
-0.187516
-0.833094
-0.898278
-0.92855
-0.926399
-0.895374
-0.840876
-0.769182
-0.687086
-0.600935
-0.515764
-0.436288
-0.365017
-0.303789
-0.253257
-0.213923
-0.18505
-0.166702
-0.158117
-0.158653
-0.796548
-0.86859
-0.905593
-0.908506
-0.880763
-0.827968
-0.756739
-0.674241
-0.58719
-0.500962
-0.420432
-0.348257
-0.286247
-0.234979
-0.194767
-0.1648
-0.145019
-0.134774
-0.13358
-0.763941
-0.842504
-0.885825
-0.893641
-0.869007
-0.817634
-0.746528
-0.663289
-0.575066
-0.487613
-0.405979
-0.332974
-0.27037
-0.218644
-0.177874
-0.147068
-0.125953
-0.113988
-0.111109
-0.733565
-0.819432
-0.869125
-0.881775
-0.860147
-0.810038
-0.738856
-0.654673
-0.565111
-0.476318
-0.393532
-0.319718
-0.256622
-0.204626
-0.163555
-0.132108
-0.109562
-0.0951538
-0.0895831
-0.706246
-0.799417
-0.855087
-0.871853
-0.852425
-0.802692
-0.730668
-0.644867
-0.553464
-0.46308
-0.378937
-0.30434
-0.240933
-0.189033
-0.148168
-0.11676
-0.0932136
-0.0756059
-0.0624575
-0.683913
-0.783867
-0.846692
-0.870179
-0.856869
-0.812195
-0.744226
-0.661262
-0.571549
-0.481963
-0.397487
-0.321912
-0.256884
-0.20313
-0.160302
-0.127187
-0.101754
-0.0815915
-0.0634061
-0.668217
-0.772285
-0.839467
-0.867917
-0.859917
-0.820421
-0.75712
-0.677916
-0.59081
-0.502677
-0.418257
-0.341614
-0.27455
-0.218161
-0.172477
-0.136951
-0.109867
-0.0894777
-0.0733824
-0.667454
-0.772139
-0.840924
-0.872165
-0.867887
-0.832764
-0.773929
-0.698883
-0.615195
-0.529445
-0.44617
-0.369288
-0.300647
-0.24161
-0.192697
-0.153982
-0.124267
-0.102157
-0.0854564
-0.683356
-0.784987
-0.851887
-0.882804
-0.879722
-0.847151
-0.791727
-0.720483
-0.640463
-0.557802
-0.476657
-0.400593
-0.331237
-0.269982
-0.217737
-0.175294
-0.142158
-0.117425
-0.0990251
-0.714037
-0.810482
-0.872616
-0.900523
-0.89644
-0.864799
-0.811797
-0.743959
-0.667746
-0.588786
-0.510724
-0.436654
-0.367707
-0.304969
-0.249442
-0.202641
-0.165026
-0.136553
-0.115406
-0.758469
-0.846245
-0.900997
-0.923801
-0.917084
-0.885188
-0.833913
-0.769245
-0.697045
-0.622423
-0.548487
-0.477853
-0.410967
-0.348214
-0.29012
-0.238605
-0.195219
-0.161433
-0.136178
-0.815782
-0.891681
-0.93746
-0.953853
-0.943413
-0.910399
-0.860272
-0.798468
-0.730267
-0.66032
-0.591269
-0.525419
-0.462561
-0.402121
-0.343362
-0.287701
-0.237216
-0.19561
-0.163856
-0.877262
-0.942951
-0.979597
-0.989002
-0.974278
-0.939695
-0.890408
-0.831289
-0.767059
-0.701981
-0.638356
-0.578491
-0.521893
-0.467245
-0.412005
-0.355704
-0.29874
-0.246143
-0.203132
-0.946982
-1.00132
-1.02782
-1.02943
-1.00982
-0.973215
-0.92442
-0.867702
-0.807204
-0.746814
-0.68857
-0.635083
-0.586207
-0.54085
-0.495329
-0.447022
-0.391477
-0.329929
-0.264416
-1.02806
-1.06897
-1.0843
-1.07771
-1.05321
-1.01485
-0.966933
-0.913085
-0.856819
-0.801571
-0.749224
-0.702625
-0.662515
-0.629317
-0.600664
-0.574702
-0.544517
-0.506438
-0.455945
-1.1176
-1.14324
-1.14473
-1.12726
-1.09511
-1.05219
-1.0021
-0.947914
-0.892481
-0.838475
-0.787626
-0.742211
-0.703354
-0.672348
-0.649319
-0.635465
-0.628538
-0.626661
-0.62581
-1.21831
-1.22344
-1.2081
-1.17782
-1.13654
-1.08772
-1.03423
-0.97869
-0.923426
-0.870442
-0.821444
-0.777953
-0.740936
-0.71118
-0.689145
-0.675449
-0.670314
-0.674346
-0.688118
-1.32908
-1.30938
-1.27638
-1.23358
-1.18373
-1.12945
-1.07293
-1.0163
-0.961455
-0.909972
-0.863346
-0.822634
-0.788477
-0.761141
-0.74055
-0.72604
-0.716742
-0.711386
-0.708663
-1.42996
-1.38711
-1.33777
-1.28333
-1.22539
-1.16573
-1.10598
-1.04775
-0.992518
-0.941517
-0.895886
-0.856398
-0.823395
-0.796897
-0.776637
-0.761917
-0.751889
-0.745544
-0.741827
-1.5113
-1.45199
-1.3901
-1.32642
-1.26196
-1.19794
-1.13554
-1.07597
-1.0204
-0.969738
-0.924882
-0.886413
-0.854494
-0.829032
-0.809696
-0.795793
-0.786483
-0.780819
-0.777769
-1.57596
-1.50379
-1.43211
-1.3612
-1.29165
-1.22423
-1.15976
-1.09913
-1.04325
-0.992831
-0.948568
-0.910915
-0.879919
-0.855414
-0.837025
-0.824048
-0.815636
-0.810858
-0.808696
-1.62288
-1.54108
-1.46204
-1.38583
-1.31263
-1.24281
-1.17692
-1.11557
-1.0595
-1.00926
-0.965449
-0.928417
-0.898139
-0.874401
-0.856788
-0.844574
-0.836876
-0.832747
-0.831152
-1.6534
-1.56236
-1.47801
-1.39856
-1.32332
-1.25224
-1.18562
-1.12394
-1.06781
-1.01771
-0.974167
-0.937503
-0.907655
-0.884392
-0.867292
-0.855636
-0.848542
-0.845071
-0.844179
-1.6534
-1.56237
-1.47803
-1.39858
-1.32334
-1.25226
-1.18565
-1.12396
-1.06783
-1.01774
-0.974193
-0.93753
-0.907683
-0.884421
-0.867323
-0.855668
-0.848576
-0.845107
-0.844216
-1.6229
-1.54111
-1.46208
-1.38588
-1.31268
-1.24287
-1.17698
-1.11563
-1.05957
-1.00933
-0.965522
-0.928493
-0.898219
-0.874486
-0.856879
-0.844671
-0.836982
-0.832863
-0.831279
-1.57598
-1.50384
-1.43217
-1.36128
-1.29174
-1.22432
-1.15986
-1.09924
-1.04336
-0.992944
-0.948686
-0.911038
-0.880049
-0.855551
-0.837171
-0.824204
-0.815803
-0.811037
-0.808889
-1.51133
-1.45205
-1.39018
-1.32652
-1.26207
-1.19805
-1.13567
-1.07611
-1.02054
-0.969883
-0.925033
-0.886571
-0.854659
-0.829204
-0.809877
-0.795983
-0.786684
-0.78103
-0.777992
-1.42999
-1.38718
-1.33786
-1.28344
-1.22552
-1.16587
-1.10613
-1.0479
-0.992684
-0.941691
-0.896067
-0.856587
-0.823591
-0.797101
-0.776849
-0.762137
-0.752118
-0.745783
-0.742076
-1.32911
-1.30946
-1.27648
-1.2337
-1.18387
-1.1296
-1.07309
-1.01648
-0.96164
-0.910167
-0.863549
-0.822844
-0.788694
-0.761363
-0.740775
-0.726264
-0.716963
-0.711602
-0.708873
-1.21834
-1.22352
-1.20822
-1.17798
-1.13673
-1.08794
-1.03448
-0.978964
-0.923725
-0.870765
-0.821794
-0.778331
-0.741344
-0.711617
-0.68961
-0.675922
-0.670763
-0.67471
-0.688308
-1.11762
-1.14325
-1.14475
-1.12729
-1.09515
-1.05225
-1.00216
-0.94798
-0.892547
-0.838533
-0.787669
-0.742227
-0.70333
-0.672269
-0.649185
-0.635289
-0.628397
-0.626701
-0.62626
-1.02807
-1.06902
-1.08439
-1.07785
-1.0534
-1.0151
-0.967231
-0.913433
-0.857213
-0.802006
-0.749695
-0.703131
-0.663065
-0.62993
-0.601386
-0.5756
-0.545679
-0.507943
-0.457837
-0.946984
-1.00133
-1.02785
-1.02949
-1.00992
-0.973356
-0.924601
-0.86792
-0.807454
-0.747093
-0.688873
-0.635412
-0.586571
-0.541266
-0.495819
-0.447599
-0.392117
-0.330556
-0.26489
-0.877261
-0.942951
-0.979616
-0.989053
-0.974368
-0.939828
-0.890584
-0.831504
-0.767309
-0.702261
-0.638664
-0.578826
-0.522262
-0.467653
-0.41245
-0.35617
-0.299186
-0.246523
-0.203429
-0.815779
-0.891674
-0.937468
-0.95389
-0.943488
-0.910517
-0.860433
-0.798668
-0.730502
-0.660585
-0.591559
-0.525733
-0.462898
-0.402477
-0.343724
-0.288048
-0.237524
-0.195866
-0.164063
-0.758466
-0.846234
-0.900997
-0.923828
-0.917147
-0.885293
-0.83406
-0.76943
-0.697263
-0.622669
-0.548754
-0.478137
-0.411262
-0.348513
-0.290407
-0.238866
-0.195444
-0.16162
-0.136334
-0.71403
-0.810466
-0.872608
-0.900539
-0.89649
-0.86489
-0.811928
-0.744127
-0.667945
-0.589009
-0.510964
-0.436905
-0.367959
-0.305215
-0.24967
-0.202842
-0.165198
-0.136697
-0.11553
-0.683349
-0.784969
-0.851876
-0.882814
-0.879763
-0.84723
-0.791843
-0.720633
-0.640641
-0.558001
-0.476868
-0.400809
-0.33145
-0.270184
-0.217919
-0.175452
-0.142294
-0.117541
-0.0991306
-0.667447
-0.772121
-0.84091
-0.87217
-0.867921
-0.832831
-0.774031
-0.699015
-0.615352
-0.529618
-0.446353
-0.369472
-0.300825
-0.241775
-0.192844
-0.154109
-0.124378
-0.102256
-0.0855522
-0.668209
-0.772266
-0.839448
-0.86791
-0.859931
-0.820461
-0.757186
-0.678006
-0.590919
-0.502799
-0.418384
-0.341741
-0.274671
-0.218271
-0.172572
-0.137033
-0.109939
-0.0895478
-0.0734673
-0.683926
-0.783874
-0.846702
-0.870196
-0.856896
-0.812236
-0.744281
-0.661331
-0.571629
-0.482053
-0.397584
-0.322011
-0.256983
-0.203226
-0.160393
-0.127272
-0.101832
-0.0816601
-0.0634595
-0.70626
-0.79943
-0.855095
-0.871851
-0.852413
-0.802667
-0.730633
-0.644824
-0.553416
-0.463029
-0.378886
-0.304293
-0.24089
-0.188995
-0.148134
-0.11673
-0.0931848
-0.0755759
-0.0624201
-0.733574
-0.81944
-0.869132
-0.88178
-0.86015
-0.810038
-0.738855
-0.654671
-0.565108
-0.476316
-0.393531
-0.319719
-0.256624
-0.204628
-0.163559
-0.132112
-0.109567
-0.0951596
-0.0895883
-0.763948
-0.84251
-0.885828
-0.893641
-0.869005
-0.817629
-0.746522
-0.663283
-0.575061
-0.487608
-0.405976
-0.332972
-0.27037
-0.218645
-0.177876
-0.147071
-0.125957
-0.113992
-0.111112
-0.796554
-0.868594
-0.905595
-0.908506
-0.880761
-0.827964
-0.756734
-0.674236
-0.587186
-0.500959
-0.420429
-0.348256
-0.286247
-0.234979
-0.194768
-0.164802
-0.145022
-0.134777
-0.133583
-0.833097
-0.898281
-0.928551
-0.926397
-0.895372
-0.840873
-0.769178
-0.687083
-0.600932
-0.515762
-0.436287
-0.365017
-0.303789
-0.253257
-0.213925
-0.185052
-0.166704
-0.158119
-0.158655
-0.875638
-0.931048
-0.954207
-0.9469
-0.91232
-0.855693
-0.783066
-0.700966
-0.615433
-0.531196
-0.452819
-0.382651
-0.322536
-0.273163
-0.235181
-0.207842
-0.191329
-0.184789
-0.187518
-0.91655
-0.963574
-0.980641
-0.968396
-0.930034
-0.870893
-0.796954
-0.714577
-0.629548
-0.546304
-0.469266
-0.400592
-0.342113
-0.294511
-0.258547
-0.233412
-0.219419
-0.215626
-0.221275
-0.957078
-0.999551
-1.01098
-0.993269
-0.950332
-0.887846
-0.811893
-0.728729
-0.643927
-0.561634
-0.486118
-0.419317
-0.363019
-0.317856
-0.284683
-0.262563
-0.251959
-0.251807
-0.261282
-1.00343
-1.03948
-1.04372
-1.01918
-0.970513
-0.903789
-0.825285
-0.741131
-0.656664
-0.575693
-0.502297
-0.438139
-0.384933
-0.343216
-0.313929
-0.295945
-0.289903
-0.294575
-0.309055
-1.0547
-1.08149
-1.07684
-1.04396
-0.988391
-0.916741
-0.835464
-0.7505
-0.666863
-0.587935
-0.517585
-0.457127
-0.408187
-0.371169
-0.347113
-0.334623
-0.334572
-0.345521
-0.366473
-1.10706
-1.12431
-1.10907
-1.06614
-1.00261
-0.925652
-0.841762
-0.756546
-0.674571
-0.598678
-0.532543
-0.477041
-0.433725
-0.402836
-0.385546
-0.380108
-0.387708
-0.40665
-0.435862
-1.16391
-1.16902
-1.1398
-1.08471
-1.01231
-0.930068
-0.84414
-0.759595
-0.680415
-0.608788
-0.548244
-0.499129
-0.462965
-0.439803
-0.431006
-0.434375
-0.451529
-0.480466
-0.520084
-1.2283
-1.21183
-1.16461
-1.09594
-1.01473
-0.928133
-0.84152
-0.759224
-0.684494
-0.618765
-0.565538
-0.524531
-0.497313
-0.483729
-0.485422
-0.499626
-0.528563
-0.569885
-0.622554
-1.28041
-1.23967
-1.17392
-1.09261
-1.00451
-0.916125
-0.831444
-0.753951
-0.686069
-0.628422
-0.584686
-0.553856
-0.53768
-0.535806
-0.550302
-0.577729
-0.621179
-0.67796
-0.747287
-1.32278
-1.25828
-1.17325
-1.08043
-0.987693
-0.900099
-0.81972
-0.749179
-0.690089
-0.642284
-0.609874
-0.591045
-0.587878
-0.599829
-0.629559
-0.672827
-0.73391
-0.809806
-0.900375
-1.35705
-1.25876
-1.15433
-1.05371
-0.96065
-0.877834
-0.805041
-0.744252
-0.696407
-0.660642
-0.641808
-0.637216
-0.649467
-0.677859
-0.725875
-0.78834
-0.871186
-0.971229
-1.0898
-1.35188
-1.22193
-1.10631
-1.00621
-0.91948
-0.846684
-0.785475
-0.737717
-0.703928
-0.682684
-0.679945
-0.692097
-0.72252
-0.77044
-0.840538
-0.926656
-1.03716
-1.16907
-1.32712
-1.29728
-1.15261
-1.03839
-0.947534
-0.872874
-0.814063
-0.767243
-0.734761
-0.717004
-0.712172
-0.727677
-0.758994
-0.810573
-0.881723
-0.97882
-1.09474
-1.24138
-1.41673
-1.63353
-1.18132
-1.04521
-0.94727
-0.874721
-0.8178
-0.776785
-0.747131
-0.732188
-0.732517
-0.746155
-0.782298
-0.835658
-0.912145
-1.01149
-1.14256
-1.29759
-1.49393
-1.73222
-2.04528
-1.00354
-0.904313
-0.836421
-0.789355
-0.754367
-0.733863
-0.723375
-0.727606
-0.747577
-0.781423
-0.840471
-0.918999
-1.02496
-1.15916
-1.33436
-1.54309
-1.81151
-2.14642
-2.63435
-0.778375
-0.737617
-0.70861
-0.691216
-0.680642
-0.682205
-0.692023
-0.716281
-0.756709
-0.811866
-0.895613
-1.0024
-1.14316
-1.32107
-1.55524
-1.84088
-2.21956
-2.71163
-3.55364
-0.53309
-0.55507
-0.566457
-0.579528
-0.594087
-0.618073
-0.648312
-0.692348
-0.75279
-0.829022
-0.937927
-1.07505
-1.2558
-1.48823
-1.80245
-2.20191
-2.75729
-3.51905
-5.15275
-0.298259
-0.367029
-0.412724
-0.453906
-0.492766
-0.538442
-0.588076
-0.650211
-0.728278
-0.822928
-0.95459
-1.1209
-1.34411
-1.64181
-2.06363
-2.63436
-3.48402
-4.73342
-8.27941
-0.0980054
-0.181794
-0.24997
-0.314803
-0.376168
-0.442127
-0.509052
-0.586098
-0.676732
-0.783459
-0.930578
-1.11789
-1.37855
-1.7514
-2.33309
-3.24212
-4.86802
-7.86848
-18.5875
)
;

boundaryField
{
    up
    {
        type            calculated;
        value           nonuniform List<scalar> 
84
(
-16.8441
-9.12275
-5.59749
-3.81453
-2.80304
-2.16289
-1.71999
-1.39293
-1.14074
-0.940301
-0.778527
-0.646837
-0.538881
-0.45024
-0.377329
-0.317142
-0.267212
-0.225538
-0.190496
-0.160673
-0.134877
-0.111735
-0.0885649
-0.0559523
-0.0540704
-0.0687499
-0.0807106
-0.0937084
-0.109191
-0.128644
-0.154063
-0.188045
-0.240847
-0.45038
-0.642456
-0.698627
-0.707172
-0.740275
-0.776642
-0.808064
-0.830836
-0.844264
-0.844301
-0.830969
-0.808263
-0.776871
-0.74053
-0.707382
-0.698668
-0.642943
-0.45258
-0.24129
-0.188306
-0.154254
-0.128792
-0.109311
-0.0938118
-0.0808064
-0.0688609
-0.0541379
-0.0559109
-0.0885691
-0.111738
-0.134879
-0.160675
-0.190497
-0.225539
-0.267212
-0.317141
-0.377328
-0.450239
-0.538879
-0.646836
-0.778527
-0.940303
-1.14075
-1.39293
-1.71999
-2.16289
-2.80304
-3.81453
-5.59749
-9.12275
-16.8441
)
;
    }
    low
    {
        type            calculated;
        value           nonuniform List<scalar> 
84
(
-0.105189
-0.31173
-0.562326
-0.827579
-1.07158
-1.26193
-1.38082
-1.42986
-1.41968
-1.36565
-1.31291
-1.25078
-1.17266
-1.10828
-1.05158
-0.994309
-0.942692
-0.900572
-0.85635
-0.806339
-0.763989
-0.726846
-0.690975
-0.658517
-0.627251
-0.607659
-0.607659
-0.629869
-0.668738
-0.723484
-0.789964
-0.857561
-0.934336
-1.0236
-1.11991
-1.22961
-1.35282
-1.4616
-1.54764
-1.61624
-1.66635
-1.70135
-1.70135
-1.66636
-1.61625
-1.54765
-1.46161
-1.35284
-1.22963
-1.1199
-1.02361
-0.934327
-0.857556
-0.789959
-0.72348
-0.668733
-0.629868
-0.60766
-0.607663
-0.627258
-0.658537
-0.690978
-0.726852
-0.763994
-0.806342
-0.856353
-0.900574
-0.942693
-0.994309
-1.05158
-1.10828
-1.17265
-1.25077
-1.31291
-1.36565
-1.41968
-1.42986
-1.38083
-1.26194
-1.07158
-0.827586
-0.562331
-0.311733
-0.10519
)
;
    }
    left
    {
        type            calculated;
        value           nonuniform List<scalar> 
19
(
-0.0961404
-0.178402
-0.247919
-0.314906
-0.378841
-0.447498
-0.517385
-0.598123
-0.693293
-0.806801
-0.964087
-1.16606
-1.45036
-1.86349
-2.51386
-3.54678
-5.41569
-8.90516
-17.4705
)
;
    }
    right
    {
        type            calculated;
        value           nonuniform List<scalar> 
19
(
-0.0961411
-0.178403
-0.247919
-0.314906
-0.378842
-0.447498
-0.517385
-0.598123
-0.693293
-0.8068
-0.964086
-1.16606
-1.45036
-1.86349
-2.51386
-3.54678
-5.41569
-8.90516
-17.4705
)
;
    }
    frontAndBackPlanes
    {
        type            empty;
    }
}


// ************************************************************************* //
