/*--------------------------------*- C++ -*----------------------------------*\
  =========                 |
  \\      /  F ield         | OpenFOAM: The Open Source CFD Toolbox
   \\    /   O peration     | Website:  https://openfoam.org
    \\  /    A nd           | Version:  7
     \\/     M anipulation  |
\*---------------------------------------------------------------------------*/
FoamFile
{
    version     2.0;
    format      ascii;
    class       volScalarField;
    location    "0.276";
    object      T;
}
// * * * * * * * * * * * * * * * * * * * * * * * * * * * * * * * * * * * * * //

dimensions      [0 0 0 1 0 0 0];

internalField   nonuniform List<scalar> 
1596
(
5.98493
5.94168
5.89734
5.85516
5.81595
5.77918
5.74404
5.70873
5.67196
5.63068
5.58255
5.52436
5.44891
5.34606
5.19997
4.97524
4.60579
3.95946
2.77147
5.93482
5.80012
5.67277
5.55514
5.44697
5.34633
5.25084
5.15672
5.06072
4.95723
4.84153
4.70793
4.54582
4.34207
4.08031
3.72925
3.24026
2.52951
1.43826
5.87549
5.64887
5.44461
5.26001
5.09215
4.93742
4.79206
4.65114
4.51027
4.36287
4.2034
4.02551
3.81866
3.57081
3.26865
2.88899
2.39974
1.75129
0.851028
5.81682
5.50403
5.23034
4.9869
4.76774
4.56762
4.38166
4.20423
4.03036
3.85319
3.6671
3.46582
3.23982
2.97887
2.67277
2.30482
1.85429
1.29224
0.564822
5.76799
5.38054
5.04604
4.75125
4.48785
4.2493
4.02993
3.8237
3.62537
3.42812
3.22643
3.01436
2.78337
2.5248
2.23067
1.8887
1.48509
1.00269
0.409609
5.73503
5.28868
4.90281
4.56345
4.26137
3.98945
3.74157
3.51156
3.29407
3.08243
2.8713
2.65499
2.42575
2.17603
1.89928
1.58595
1.22635
0.809857
0.316843
5.71882
5.23138
4.80423
4.42664
4.09034
3.78853
3.51516
3.26417
3.03026
2.80696
2.58912
2.37122
2.14607
1.90683
1.64777
1.36105
1.03929
0.675459
0.256792
5.71591
5.20455
4.74655
4.33702
3.97045
3.64136
3.34434
3.07375
2.82452
2.59046
2.36658
2.14751
1.92645
1.69698
1.45384
1.19015
0.899876
0.577901
0.215332
5.72291
5.20243
4.72344
4.28813
3.895
3.54079
3.22132
2.9317
2.66733
2.42238
2.19205
1.97111
1.75301
1.53162
1.30187
1.05746
0.793067
0.504564
0.185239
5.73252
5.21272
4.72145
4.2667
3.85119
3.47444
3.134
2.82606
2.54673
2.29066
2.05333
1.82965
1.61329
1.39827
1.17961
0.951291
0.708369
0.447185
0.162282
5.74035
5.22543
4.72822
4.25983
3.82641
3.43024
3.07084
2.7458
2.4521
2.18502
1.94042
1.71339
1.49779
1.28777
1.07835
0.863665
0.638917
0.400615
0.144
5.75017
5.2429
4.7435
4.26538
3.81738
3.40428
3.02762
2.68645
2.37883
2.10076
1.84853
1.61752
1.40174
1.19544
0.993604
0.790416
0.581095
0.362133
0.129105
5.75957
5.2614
4.76229
4.27735
3.81754
3.3898
2.99758
2.64144
2.32058
2.03181
1.77194
1.53661
1.32005
1.11657
0.921093
0.727791
0.531814
0.329522
0.116633
5.7655
5.27518
4.77758
4.28806
3.81896
3.37894
2.97314
2.60361
2.27067
1.97199
1.70493
1.46546
1.248
1.04693
0.857116
0.67266
0.4886
0.301099
0.105883
5.77058
5.28643
4.79022
4.29712
3.82026
3.36963
2.95183
2.57025
2.2263
1.9185
1.64479
1.40146
1.18315
0.984299
0.799675
0.623308
0.45008
0.275915
0.0964557
5.77553
5.29658
4.80122
4.30475
3.82089
3.3607
2.93201
2.5394
2.18535
1.86917
1.58936
1.34254
1.12354
0.926858
0.747162
0.578368
0.415173
0.253234
0.0880525
5.77904
5.30407
4.80898
4.3091
3.81872
3.34975
2.9111
2.50846
2.14522
1.82149
1.53626
1.28648
1.06715
0.872804
0.698008
0.536536
0.382877
0.232397
0.0804143
5.78162
5.3094
4.81391
4.31041
3.81365
3.33635
2.8884
2.47647
2.10482
1.77424
1.48423
1.23201
1.01274
0.820972
0.651155
0.496909
0.352487
0.212938
0.073358
5.78622
5.31724
4.821
4.31341
3.80991
3.32408
2.86677
2.44562
2.0657
1.72848
1.43386
1.17935
0.960238
0.771064
0.606174
0.459021
0.323593
0.194576
0.0667739
5.79177
5.32716
4.83037
4.31848
3.80791
3.31327
2.8464
2.41592
2.02769
1.68382
1.38464
1.12785
0.908859
0.722219
0.562167
0.42201
0.295478
0.176842
0.0605049
5.79602
5.33583
4.83881
4.3228
3.80523
3.30181
2.82546
2.38575
1.98934
1.63895
1.33529
1.07627
0.857396
0.673209
0.517885
0.38466
0.267087
0.159029
0.0543204
5.80027
5.34439
4.84731
4.32731
3.80281
3.29061
2.80475
2.35577
1.95112
1.59411
1.28583
1.02438
0.805336
0.623254
0.472275
0.345678
0.237045
0.140043
0.0478382
5.80512
5.35385
4.85681
4.33289
3.80147
3.28046
2.78498
2.32658
1.91344
1.54949
1.23616
0.971772
0.751986
0.571335
0.423945
0.303225
0.203089
0.117616
0.0399683
5.81021
5.36367
4.86663
4.33876
3.80042
3.27061
2.76552
2.2976
1.87573
1.50442
1.18547
0.917411
0.696052
0.515894
0.370989
0.25482
0.161787
0.0871301
0.0263267
5.81819
5.38369
4.89552
4.37333
3.83756
3.30743
2.79948
2.32658
1.89817
1.51931
1.19253
0.917092
0.6894
0.504384
0.356316
0.238692
0.146026
0.0740853
0.0197291
5.82692
5.40919
4.93698
4.42909
3.90504
3.38328
2.87989
2.40758
1.97597
1.59068
1.25503
0.969396
0.731318
0.536725
0.380517
0.256352
0.158438
0.081963
0.0229171
5.83124
5.42417
4.96392
4.46825
3.95558
3.4433
2.94661
2.47765
2.04577
1.65674
1.31435
1.01989
0.772053
0.567949
0.40339
0.272429
0.169168
0.0883554
0.0253117
5.83119
5.42823
4.97549
4.4896
3.98765
3.48569
2.99769
2.53479
2.10566
1.7158
1.36915
1.06761
0.810952
0.597572
0.424529
0.286605
0.178031
0.0932343
0.0269748
5.82825
5.42445
4.97583
4.4979
4.00626
3.51538
3.03771
2.58314
2.15935
1.77122
1.42251
1.11546
0.850663
0.627875
0.44571
0.300139
0.185889
0.0971817
0.0281855
5.8227
5.41483
4.96844
4.49764
4.0164
3.53745
3.0716
2.62725
2.21096
1.82679
1.47805
1.16696
0.894635
0.661994
0.469436
0.314704
0.193669
0.100657
0.0291182
5.81569
5.4027
4.95811
4.49449
4.02412
3.55795
3.10508
2.67246
2.26543
1.88713
1.54026
1.2267
0.947605
0.70464
0.499861
0.333284
0.202961
0.104238
0.0299131
5.81013
5.39297
4.95071
4.49472
4.03574
3.58299
3.14395
2.72411
2.3277
1.95696
1.61389
1.29984
1.0155
0.762515
0.543871
0.361752
0.217408
0.109144
0.0305963
5.80483
5.38425
4.94518
4.49778
4.05115
3.61284
3.18875
2.78307
2.39898
2.03797
1.70141
1.39006
1.10385
0.843616
0.61195
0.411777
0.24707
0.120804
0.031291
5.79963
5.37668
4.94213
4.50465
4.07166
3.64904
3.24122
2.85121
2.48134
2.13249
1.80564
1.50117
1.21841
0.957122
0.718469
0.503907
0.316972
0.162979
0.0448762
5.7935
5.36647
4.93433
4.50443
4.08257
3.67314
3.27929
2.90304
2.54606
2.20875
1.89188
1.59575
1.31953
1.06255
0.824808
0.605581
0.405193
0.226012
0.0700697
5.78305
5.34381
4.90612
4.4757
4.05683
3.65261
3.26513
2.89561
2.54509
2.21359
1.90165
1.6095
1.33636
1.08169
0.845668
0.627474
0.426831
0.244382
0.0792594
5.76943
5.31307
4.86532
4.42984
4.00935
3.60576
3.22025
2.85329
2.50546
2.17636
1.8664
1.57574
1.30369
1.04998
0.815255
0.599313
0.402737
0.227112
0.0722279
5.75788
5.28714
4.83101
4.39136
3.96958
3.56658
3.18278
2.81808
2.47268
2.14593
1.83811
1.54944
1.27927
1.02754
0.795146
0.582113
0.389237
0.218261
0.0690124
5.74949
5.2677
4.80491
4.36181
3.93884
3.53615
3.15359
2.79062
2.44715
2.12232
1.81637
1.52951
1.26115
1.01129
0.780976
0.57032
0.380212
0.212493
0.0670118
5.74305
5.2528
4.7849
4.33916
3.91526
3.51281
3.13119
2.76955
2.42759
2.10431
1.79989
1.51453
1.24766
0.999323
0.770654
0.56181
0.373746
0.208386
0.0656103
5.73835
5.24195
4.77044
4.32287
3.89838
3.49615
3.11523
2.75457
2.41372
2.09156
1.78826
1.504
1.23822
0.990978
0.763463
0.555872
0.369214
0.205489
0.0646139
5.73461
5.23433
4.76089
4.31255
3.88799
3.48609
3.10577
2.74581
2.40572
2.08433
1.78177
1.49823
1.23315
0.986588
0.759764
0.552887
0.366986
0.204096
0.0641512
5.73462
5.23435
4.76092
4.31259
3.88802
3.48613
3.1058
2.74585
2.40576
2.08436
1.7818
1.49826
1.23317
0.986611
0.759784
0.552903
0.366997
0.204102
0.0641534
5.73838
5.24201
4.77052
4.32297
3.89849
3.49626
3.11535
2.75469
2.41383
2.09167
1.78836
1.5041
1.23831
0.991052
0.763525
0.555922
0.36925
0.205512
0.0646216
5.74309
5.25289
4.78503
4.33931
3.91543
3.51299
3.13137
2.76973
2.42777
2.10448
1.80004
1.51468
1.24779
0.999437
0.770748
0.561884
0.373799
0.208418
0.0656212
5.74954
5.26782
4.80508
4.36201
3.93906
3.53639
3.15383
2.79086
2.44738
2.12255
1.81658
1.5297
1.26132
1.01143
0.781095
0.570414
0.380279
0.212532
0.0670251
5.75794
5.28728
4.83122
4.39161
3.96986
3.56687
3.18308
2.81838
2.47297
2.1462
1.83836
1.54966
1.27948
1.02771
0.795286
0.582221
0.389312
0.218305
0.0690268
5.7695
5.31324
4.86556
4.43013
4.00967
3.6061
3.22059
2.85363
2.50579
2.17667
1.86668
1.576
1.30391
1.05016
0.815397
0.599416
0.402804
0.227148
0.0722374
5.78312
5.344
4.90639
4.47602
4.05719
3.65299
3.26552
2.89599
2.54546
2.21392
1.90196
1.60976
1.33657
1.08184
0.845768
0.62752
0.426835
0.244363
0.079245
5.79359
5.36673
4.93476
4.50499
4.08324
3.6739
3.28013
2.90393
2.54699
2.2097
1.89285
1.59672
1.32049
1.0635
0.825729
0.606458
0.405976
0.226608
0.070329
5.79974
5.377
4.94263
4.50533
4.07249
3.65
3.24229
2.85236
2.48256
2.13376
1.80693
1.50247
1.2197
0.958377
0.719651
0.50496
0.317818
0.163534
0.045078
5.80491
5.38451
4.94562
4.49837
4.05188
3.61368
3.18969
2.78407
2.40003
2.03904
1.70249
1.39112
1.10487
0.844548
0.612759
0.412415
0.247498
0.121017
0.0313323
5.81021
5.39322
4.95111
4.49528
4.03642
3.58379
3.14483
2.72505
2.32867
1.95795
1.61487
1.30077
1.01636
0.763266
0.544481
0.362195
0.217682
0.109277
0.0306306
5.81576
5.40292
4.95849
4.49501
4.02476
3.55869
3.10591
2.67334
2.26633
1.88803
1.54113
1.22751
0.948334
0.705255
0.500339
0.333621
0.203169
0.104344
0.0299433
5.82276
5.41502
4.96878
4.49811
4.017
3.53815
3.07236
2.62806
2.21179
1.82762
1.47884
1.16768
0.895262
0.662509
0.469829
0.314979
0.193842
0.100749
0.0291457
5.8283
5.42463
4.97614
4.49833
4.0068
3.51601
3.03842
2.58389
2.16011
1.77196
1.42321
1.11609
0.851206
0.628315
0.446044
0.300375
0.186041
0.0972649
0.0282115
5.83123
5.42838
4.97576
4.48999
3.98815
3.48627
2.99833
2.53547
2.10635
1.71647
1.36977
1.06817
0.811426
0.597955
0.424822
0.286815
0.17817
0.0933125
0.0270005
5.83128
5.4243
4.96416
4.4686
3.95602
3.44382
2.94719
2.47826
2.04639
1.65733
1.3149
1.02038
0.772471
0.568288
0.403651
0.272621
0.169299
0.0884327
0.025339
5.82695
5.4093
4.93718
4.42939
3.90542
3.38374
2.8804
2.40812
1.97652
1.59121
1.25552
0.969831
0.731689
0.537029
0.380756
0.256533
0.158567
0.0820439
0.0229484
5.81819
5.38371
4.89556
4.3734
3.83766
3.30756
2.79962
2.32673
1.89832
1.51945
1.19266
0.917197
0.68948
0.504438
0.356346
0.238702
0.146023
0.074075
0.0197218
5.81019
5.36364
4.86657
4.33868
3.80033
3.27051
2.76541
2.29748
1.87562
1.50431
1.18536
0.917314
0.695961
0.515811
0.370913
0.254754
0.161732
0.0870903
0.0263085
5.80512
5.35384
4.85679
4.33288
3.80145
3.28044
2.78497
2.32656
1.91343
1.54949
1.23616
0.971777
0.751995
0.571346
0.423956
0.303236
0.203099
0.117623
0.0399703
5.80027
5.34438
4.8473
4.3273
3.8028
3.2906
2.80474
2.35576
1.95111
1.59411
1.28583
1.02438
0.805345
0.623263
0.472285
0.345686
0.237052
0.140047
0.0478394
5.79602
5.33582
4.83881
4.32279
3.80522
3.3018
2.82545
2.38575
1.98934
1.63895
1.33529
1.07628
0.857404
0.673217
0.517893
0.384666
0.267091
0.159032
0.0543212
5.79177
5.32715
4.83036
4.31847
3.80791
3.31326
2.8464
2.41592
2.0277
1.68383
1.38464
1.12785
0.908866
0.722226
0.562173
0.422014
0.295482
0.176844
0.0605054
5.78621
5.31724
4.82099
4.31341
3.8099
3.32408
2.86677
2.44562
2.0657
1.72848
1.43387
1.17936
0.960243
0.771069
0.606179
0.459024
0.323596
0.194577
0.0667742
5.78162
5.3094
4.81391
4.31041
3.81364
3.33635
2.8884
2.47647
2.10482
1.77425
1.48423
1.23202
1.01275
0.820975
0.651157
0.496911
0.352489
0.212939
0.0733582
5.77904
5.30407
4.80898
4.3091
3.81872
3.34975
2.9111
2.50846
2.14523
1.82149
1.53626
1.28648
1.06715
0.872807
0.69801
0.536537
0.382877
0.232397
0.0804144
5.77553
5.29658
4.80122
4.30475
3.8209
3.36071
2.93201
2.53941
2.18535
1.86918
1.58936
1.34254
1.12354
0.926859
0.747163
0.578368
0.415173
0.253234
0.0880525
5.77058
5.28643
4.79022
4.29712
3.82026
3.36964
2.95184
2.57025
2.2263
1.91851
1.64479
1.40146
1.18315
0.984299
0.799675
0.623308
0.45008
0.275915
0.0964557
5.7655
5.27518
4.77758
4.28807
3.81896
3.37894
2.97314
2.60361
2.27067
1.97199
1.70493
1.46546
1.248
1.04693
0.857115
0.672659
0.488599
0.301098
0.105883
5.75957
5.2614
4.76229
4.27735
3.81754
3.38981
2.99758
2.64144
2.32058
2.03181
1.77193
1.53661
1.32005
1.11657
0.921091
0.727789
0.531813
0.329521
0.116633
5.75017
5.2429
4.7435
4.26538
3.81738
3.40429
3.02762
2.68645
2.37883
2.10075
1.84853
1.61752
1.40174
1.19544
0.993601
0.790414
0.581094
0.362132
0.129106
5.74035
5.22543
4.72822
4.25983
3.82641
3.43024
3.07084
2.7458
2.4521
2.18502
1.94041
1.71339
1.49779
1.28777
1.07835
0.863664
0.638916
0.400615
0.144
5.73252
5.21272
4.72145
4.2667
3.85119
3.47444
3.13399
2.82606
2.54673
2.29066
2.05332
1.82965
1.61329
1.39827
1.1796
0.951289
0.708368
0.447185
0.162282
5.72291
5.20243
4.72344
4.28813
3.89499
3.54079
3.22132
2.93169
2.66733
2.42237
2.19204
1.9711
1.75301
1.53162
1.30187
1.05746
0.793067
0.504565
0.185239
5.71591
5.20455
4.74655
4.33702
3.97044
3.64136
3.34434
3.07374
2.82451
2.59046
2.36658
2.14751
1.92644
1.69698
1.45383
1.19015
0.899876
0.577901
0.215332
5.71882
5.23137
4.80423
4.42664
4.09033
3.78852
3.51516
3.26416
3.03025
2.80696
2.58912
2.37121
2.14606
1.90682
1.64777
1.36104
1.03929
0.67546
0.256793
5.73503
5.28868
4.90281
4.56345
4.26136
3.98944
3.74156
3.51155
3.29406
3.08242
2.8713
2.65498
2.42575
2.17603
1.89928
1.58595
1.22635
0.809858
0.316844
5.76799
5.38054
5.04603
4.75125
4.48784
4.24929
4.02992
3.8237
3.62536
3.42811
3.22643
3.01435
2.78337
2.5248
2.23067
1.8887
1.48509
1.00269
0.409609
5.81682
5.50403
5.23033
4.98689
4.76774
4.56761
4.38165
4.20422
4.03035
3.85319
3.66709
3.46581
3.23981
2.97887
2.67277
2.30482
1.85429
1.29224
0.564822
5.87549
5.64887
5.44461
5.26001
5.09215
4.93741
4.79206
4.65114
4.51027
4.36287
4.2034
4.0255
3.81866
3.5708
3.26865
2.88899
2.39974
1.75129
0.851027
5.93482
5.80012
5.67277
5.55514
5.44697
5.34633
5.25084
5.15672
5.06071
4.95723
4.84153
4.70793
4.54582
4.34207
4.08031
3.72925
3.24026
2.52951
1.43826
5.98493
5.94168
5.89734
5.85516
5.81595
5.77918
5.74404
5.70873
5.67196
5.63068
5.58255
5.52436
5.44891
5.34606
5.19997
4.97524
4.60579
3.95946
2.77147
)
;

boundaryField
{
    up
    {
        type            fixedValue;
        value           uniform 0;
    }
    low
    {
        type            fixedValue;
        value           uniform 6;
    }
    left
    {
        type            fixedValue;
        value           uniform 6;
    }
    right
    {
        type            fixedValue;
        value           uniform 6;
    }
    frontAndBackPlanes
    {
        type            empty;
    }
}


// ************************************************************************* //
