/*--------------------------------*- C++ -*----------------------------------*\
  =========                 |
  \\      /  F ield         | OpenFOAM: The Open Source CFD Toolbox
   \\    /   O peration     | Website:  https://openfoam.org
    \\  /    A nd           | Version:  7
     \\/     M anipulation  |
\*---------------------------------------------------------------------------*/
FoamFile
{
    version     2.0;
    format      ascii;
    class       volScalarField;
    location    "0.135";
    object      gradTz;
}
// * * * * * * * * * * * * * * * * * * * * * * * * * * * * * * * * * * * * * //

dimensions      [0 -1 0 1 0 0 0];

internalField   nonuniform List<scalar> 
1596
(
-3.22685e-16
-1.55245e-16
1.59566e-16
5.11592e-18
-2.99239e-16
0
-1.36849e-16
-1.34978e-16
-1.1434e-17
-7.24388e-17
-4.93804e-19
-7.25306e-17
3.22636e-16
-7.2256e-17
3.36571e-16
2.91273e-16
1.73484e-16
2.19717e-16
0
3.20512e-16
0
4.4012e-16
-4.33534e-18
-1.30283e-16
1.28728e-16
2.71883e-16
1.10583e-17
1.27516e-16
-6.20093e-17
1.24155e-16
-1.42433e-18
-1.72926e-16
-1.08733e-16
-2.71873e-16
-2.66139e-16
-2.42703e-16
1.38591e-16
0
-1.54538e-16
0
-2.81493e-16
6.84157e-18
2.48006e-16
-7.4443e-17
8.07951e-18
-1.67392e-18
-1.48305e-18
-1.42541e-18
4.28515e-17
0
8.96335e-17
2.52346e-16
-2.50305e-17
2.06107e-17
4.82271e-17
7.69005e-17
0
2.46176e-16
-7.02541e-17
6.99975e-17
0
-6.604e-17
-6.96807e-17
1.10946e-16
-9.12014e-17
0
0
-3.99441e-17
2.24491e-17
0
-7.32366e-17
-9.10875e-17
6.4255e-17
-6.91325e-17
-3.53789e-18
0
4.33998e-17
1.09085e-16
-9.31192e-17
0
-2.57952e-17
-7.95669e-17
0
1.15155e-16
-1.11545e-17
-1.01164e-17
-1.51974e-17
5.78844e-17
7.3538e-17
8.13858e-18
6.50581e-18
-6.94411e-17
3.46323e-18
3.24112e-17
-1.43213e-17
-1.12702e-17
-1.49012e-16
1.35945e-16
-1.12274e-16
-3.49796e-19
-9.10911e-17
2.50874e-18
-2.51707e-18
-6.67606e-17
0
-1.2593e-17
-6.89183e-17
-6.62544e-17
5.14288e-17
5.91597e-17
-7.92518e-19
-3.55682e-17
-3.28743e-17
2.54352e-17
9.41873e-17
-1.50904e-16
1.60242e-16
8.57084e-17
0
7.05997e-17
3.89688e-17
-1.84205e-17
8.40873e-17
-1.53131e-17
-6.72591e-17
4.72389e-19
-3.80344e-17
-5.16303e-17
-3.84516e-17
3.41213e-17
3.58812e-17
-4.88161e-19
-1.04386e-17
1.30024e-17
2.41774e-16
-2.68297e-16
0
0
-8.26385e-17
0
0
0
4.79962e-17
0
0
3.53951e-17
9.65508e-19
1.27993e-17
-3.01269e-17
0
1.60255e-17
6.65068e-18
0
-1.52199e-16
2.88837e-16
0
0
8.51062e-17
0
-2.81187e-17
2.80902e-17
-4.88532e-17
1.92892e-17
-1.94303e-17
0
2.77377e-17
3.10717e-17
0
-1.783e-17
-1.63577e-17
-5.8684e-18
3.93485e-16
-1.80478e-16
0
-1.08933e-16
1.07714e-16
0
6.71317e-17
0
0
0
1.65388e-17
-1.6618e-17
0
-2.16588e-17
-5.89309e-18
0
3.57862e-18
9.66063e-18
0
-9.99575e-17
0
0
1.096e-16
-1.9823e-16
1.53583e-17
6.04723e-18
-2.47421e-17
4.20078e-18
1.65896e-18
-1.6996e-17
-2.49369e-17
0
1.83526e-17
-4.00658e-18
4.06671e-18
1.22587e-17
-7.73246e-18
-3.35946e-18
7.57586e-17
-1.23906e-17
7.31164e-17
2.32615e-16
-1.87144e-17
-8.9538e-17
0
0
0
3.53543e-17
1.27427e-17
4.44128e-17
-1.06216e-17
-1.80243e-17
-9.60793e-18
-5.78745e-18
2.63304e-18
-5.90917e-18
3.15863e-18
-8.84737e-17
8.70009e-17
-1.56617e-16
-2.30155e-16
2.06604e-16
7.19733e-17
-1.28194e-16
1.01952e-16
-8.07823e-17
2.13318e-17
1.41399e-17
-1.2225e-17
6.36174e-18
-6.14593e-18
1.86285e-17
0
-1.46207e-18
1.12086e-17
-1.69211e-18
-5.96209e-16
2.66919e-16
1.93511e-19
-4.8989e-17
9.96707e-18
6.99638e-17
-1.3008e-16
-4.78895e-17
3.71773e-17
-2.86325e-17
-2.21667e-17
0
-2.2149e-17
-6.36018e-18
-1.04369e-17
-6.10032e-18
4.73923e-19
-6.23003e-18
3.55306e-19
9.74223e-17
-8.33388e-17
6.01776e-20
-5.78127e-17
-1.3207e-16
1.21479e-16
6.77886e-19
4.66683e-17
-3.6197e-17
5.45451e-17
1.23168e-17
9.18314e-18
2.47482e-17
0
1.83569e-17
8.31828e-18
0
3.13484e-18
2.62727e-19
0
8.08483e-17
5.70815e-17
-1.22571e-16
1.27654e-16
-1.82467e-16
1.2125e-16
3.8909e-17
-8.89705e-18
-5.50512e-17
8.35538e-18
-8.31415e-18
-2.16177e-17
7.67649e-18
-4.00438e-18
-7.79234e-18
3.0605e-18
-1.9304e-18
9.16641e-19
-9.06242e-17
2.88163e-16
-2.16596e-16
1.06885e-16
0
0
-2.11782e-17
4.71345e-17
-2.73921e-17
4.9803e-17
0
0
1.39911e-17
-1.14843e-17
-7.0365e-18
2.2305e-18
-2.41225e-18
1.3138e-18
0
1.08425e-17
8.48118e-17
-6.21949e-17
-5.16446e-17
-7.42135e-17
-1.73626e-17
3.18171e-17
0
-2.52361e-17
-1.77219e-17
1.51484e-17
-1.09322e-17
7.85049e-18
0
2.80432e-18
4.69532e-18
0
0
0
-1.05302e-17
1.22238e-16
3.95245e-17
-1.56957e-16
3.90613e-17
3.12279e-17
0
0
2.32426e-17
-1.23721e-17
-1.46518e-17
1.05734e-17
-7.59202e-18
0
-1.53022e-18
1.12208e-18
0
-9.32129e-19
-3.32018e-19
-6.92375e-17
2.03334e-16
-2.36477e-16
-8.39764e-17
4.54066e-17
-2.8672e-17
2.18133e-17
0
-1.19002e-17
9.10221e-18
0
0
2.63841e-18
-2.64145e-18
6.32571e-19
-9.86864e-19
1.25179e-18
2.33556e-19
2.51958e-19
3.73463e-17
-3.20154e-17
1.51229e-16
-9.64068e-17
-3.44728e-17
6.3021e-18
4.64992e-17
1.48827e-17
1.13867e-17
0
4.72544e-18
-4.29951e-18
2.99741e-18
-2.24963e-18
2.30765e-18
-3.71223e-18
-9.68364e-19
8.18432e-19
1.99765e-19
9.66954e-17
-9.97041e-17
0
7.41043e-17
-4.04457e-17
-2.54553e-17
1.36932e-17
-4.69257e-17
0
-8.27958e-19
-5.96722e-18
-3.54748e-18
4.32094e-18
-4.8339e-19
-2.2303e-18
1.4843e-18
0
4.3712e-19
-1.9397e-19
1.73658e-16
-2.86276e-17
1.10842e-16
-8.61767e-17
3.90091e-17
-1.10543e-18
-4.08125e-17
-1.09085e-17
1.85369e-17
-1.10959e-18
-7.69819e-18
5.99043e-18
-2.4065e-18
-2.53663e-18
0
0
0
-4.40503e-19
1.56284e-20
-1.48918e-16
1.43498e-16
9.19264e-20
1.84836e-17
1.45097e-17
-3.03058e-17
3.31005e-17
-2.39317e-17
1.82084e-17
-4.68529e-18
8.65835e-18
2.48621e-18
-9.4797e-19
4.71437e-20
-2.17933e-19
-3.91314e-19
0
0
0
0
0
6.12217e-17
-3.56759e-17
-8.56011e-17
0
0
-6.90908e-18
-9.58894e-18
7.00638e-18
0
-3.13556e-18
2.09237e-18
-5.83181e-18
6.46028e-18
-1.73958e-18
1.83796e-18
1.82704e-19
0
-2.87865e-17
2.91408e-17
0
-1.98769e-17
1.97994e-17
2.88587e-17
0
6.97506e-18
6.79743e-18
-3.28182e-17
0
-3.69352e-18
2.49096e-18
1.4801e-18
-9.66515e-19
1.29562e-18
0
-4.08774e-19
0
-1.48255e-17
-1.40108e-17
8.27362e-19
2.0423e-17
-5.02981e-17
0
-1.05831e-17
0
2.29694e-17
7.9059e-18
0
1.46107e-17
-1.38319e-17
1.71846e-18
-1.951e-18
9.53e-19
2.51224e-18
8.24252e-19
-6.54019e-19
0
2.99015e-17
-2.39074e-17
2.92599e-17
3.12968e-17
0
2.11187e-17
-1.90978e-17
-1.25196e-17
1.58616e-17
-2.34905e-17
-9.455e-18
0
0
1.33665e-18
0
0
3.06836e-19
0
-1.36154e-16
1.05292e-16
0
2.30312e-18
-1.77136e-17
-8.95212e-19
1.39249e-17
7.99455e-18
-1.14139e-17
-2.24089e-17
3.06183e-17
-8.53926e-18
0
-2.90457e-18
0
0
0
-1.20042e-18
9.6362e-19
-3.93647e-17
3.52758e-17
8.77553e-17
-8.38314e-17
2.41982e-17
1.90133e-18
-1.41099e-17
1.09703e-17
1.67114e-17
1.11469e-17
-2.17748e-17
0
8.13322e-18
9.01802e-20
-3.32425e-18
-6.00907e-18
4.81013e-18
-6.04251e-19
1.22449e-18
-1.36334e-16
1.80517e-16
-1.771e-16
2.89006e-17
2.23975e-17
-2.05236e-17
1.64593e-17
-1.1497e-17
0
-8.18478e-18
1.10964e-17
4.72458e-18
6.9484e-18
7.21063e-18
-1.04536e-17
-4.39927e-19
0
-5.44671e-19
1.87113e-19
-1.47371e-16
-4.11937e-17
-6.72792e-17
3.68609e-17
-5.34183e-17
4.29207e-17
-2.46405e-17
1.86322e-17
-1.94339e-18
-1.86609e-18
-1.25359e-17
7.88736e-18
-3.01304e-18
9.7796e-18
-1.04985e-17
8.34137e-19
9.65101e-19
0
-3.42458e-19
1.5934e-16
-4.46869e-17
0
0
-5.48229e-17
1.04233e-16
-2.31863e-17
-3.87023e-18
3.00063e-17
-8.83394e-19
0
0
-5.01393e-18
0
-9.65668e-18
2.22059e-17
-1.49894e-17
0
1.50234e-19
5.33857e-17
9.62713e-17
0
-3.78567e-17
-2.79201e-17
-2.23745e-17
-2.43417e-17
9.0761e-18
-2.43637e-17
-1.20118e-17
0
0
8.00687e-18
0
0
-1.39973e-17
2.33519e-17
0
0
3.66642e-16
-4.88037e-17
-2.10655e-16
-1.05296e-16
1.43655e-16
4.23713e-17
2.36023e-17
0
-7.68337e-18
6.80002e-18
1.70827e-17
-5.32829e-18
-7.02609e-18
1.06353e-17
-1.13127e-17
-3.09024e-18
0
0
0
2.93593e-17
-2.21512e-16
2.16309e-16
-1.96985e-17
-1.43179e-16
2.18954e-16
-1.07251e-16
0
0
4.74603e-17
-3.81525e-17
0
-1.01119e-17
1.79354e-17
-1.76756e-18
4.97378e-18
1.45857e-18
2.08567e-20
3.03404e-19
0
0
0
1.70548e-16
-1.14903e-16
1.10619e-16
-1.70197e-16
4.70462e-17
0
-1.51579e-17
2.28781e-17
-2.33827e-17
-4.23472e-18
1.09127e-19
-2.72523e-18
-3.42611e-19
-2.17423e-18
-6.24976e-19
-3.33085e-19
2.43064e-16
-4.27111e-16
1.99329e-16
0
4.81035e-17
-6.58805e-17
6.12123e-17
-4.84367e-17
0
-2.09647e-17
2.9435e-17
0
0
1.02743e-19
0
-3.03187e-18
2.05204e-18
3.24193e-19
5.3887e-19
2.42305e-16
0
-8.86402e-17
9.88507e-17
-5.79053e-17
1.24794e-16
-5.78672e-17
-4.20731e-17
4.25125e-17
-4.12876e-18
0
0
2.43439e-18
-3.89942e-18
-2.72077e-18
5.11066e-18
-1.10376e-18
5.43873e-19
0
1.37365e-16
1.02098e-16
-6.24404e-18
-9.46124e-17
-9.08631e-18
-6.25634e-17
8.54431e-18
5.07273e-17
-2.49983e-18
4.20629e-18
0
0
-2.49388e-18
0
2.85743e-18
-3.05677e-18
0
3.8758e-19
-1.06409e-19
-7.28667e-17
-5.12948e-17
4.80833e-17
-5.25739e-18
-2.29012e-18
5.97524e-18
0
-1.48103e-18
2.11588e-17
-1.78136e-17
0
5.56966e-18
-1.18418e-18
-4.82202e-18
-4.33221e-19
-3.34668e-19
0
-3.03902e-19
0
2.91196e-17
-5.47108e-17
-2.60724e-20
2.25591e-17
1.94516e-17
-1.92549e-17
-1.28181e-17
1.44798e-17
-4.6784e-18
3.68078e-18
-3.36957e-18
3.4735e-18
0
8.44552e-21
-3.19923e-19
1.14511e-18
-3.88868e-21
0
0
2.91207e-17
-2.90115e-17
-2.24397e-17
1.99227e-17
3.43045e-17
-3.4507e-17
-6.40935e-18
6.42539e-18
-4.7186e-18
4.76784e-18
-3.36975e-18
6.29523e-18
-1.76598e-18
-1.23265e-18
-3.68752e-19
1.24379e-19
2.89605e-19
7.60967e-20
-5.70231e-20
0
-6.81414e-18
3.89684e-17
-4.23645e-17
3.41707e-17
-3.03709e-17
0
2.18414e-17
-1.9594e-17
0
6.66244e-18
-8.40324e-18
-4.60175e-18
4.82293e-18
8.58785e-19
0
0
-3.03996e-19
1.10186e-19
1.15776e-16
-2.1055e-16
2.08911e-16
-1.77975e-16
6.90229e-17
-5.46917e-17
5.2082e-17
5.82085e-18
-2.08084e-17
1.85483e-17
0
-1.23417e-17
1.12651e-17
-2.04653e-18
-8.4118e-19
1.27548e-18
9.29626e-19
2.95122e-19
-1.06464e-19
2.72798e-16
0
-1.0047e-16
7.81836e-17
8.98211e-18
-6.55007e-17
1.13961e-16
-9.75419e-17
3.76837e-17
-1.49835e-17
1.53369e-17
2.931e-18
4.77572e-18
1.99334e-18
-1.57133e-18
-2.31645e-19
-2.00096e-18
0
1.94835e-19
2.12979e-16
-2.39755e-16
0
2.04022e-17
8.34992e-17
-8.11468e-17
1.30277e-17
1.10779e-17
4.735e-18
7.85762e-18
0
0
-8.24561e-18
1.49808e-17
-5.39084e-18
-1.87538e-18
2.05322e-18
1.61393e-19
-3.66757e-19
2.62347e-17
2.10792e-16
-2.31736e-17
-1.50427e-16
1.32353e-16
1.49499e-17
-1.27499e-17
-1.08198e-17
3.31855e-17
-4.10887e-17
2.289e-17
-2.33947e-17
3.26863e-18
-4.49631e-18
7.46443e-18
-5.01614e-18
0
0
3.2594e-19
0
5.18903e-17
-1.47695e-16
1.69275e-16
-1.26286e-16
1.25985e-16
0
3.80416e-17
-3.82159e-17
-2.61485e-17
3.81906e-17
0
1.41868e-17
-1.79548e-17
-2.59749e-18
0
-2.66632e-19
-4.75419e-19
-4.07016e-20
-5.07917e-16
2.38097e-16
0
-1.43643e-16
1.43628e-16
8.05202e-17
-5.26838e-17
1.96876e-17
0
-7.88936e-19
4.99018e-18
-5.3231e-18
-7.0201e-18
1.06255e-17
-1.12985e-17
0
2.09597e-18
-3.41528e-19
-2.97367e-19
3.08983e-16
-3.00578e-16
0
3.7409e-17
3.23166e-17
-2.85161e-17
0
-2.06327e-17
-1.60446e-17
0
-1.34349e-18
0
8.01412e-18
0
0
2.79886e-18
1.02061e-17
-1.34114e-17
0
7.48494e-21
4.47099e-17
-3.93781e-17
2.8919e-17
-1.48555e-16
5.51009e-17
0
3.87411e-18
1.07741e-17
0
-9.71684e-18
2.46013e-17
-2.5845e-17
3.72042e-18
0
-6.95498e-19
0
0
0
1.66488e-20
0
3.63952e-17
0
-4.86864e-17
4.94604e-17
0
1.4447e-17
-1.04879e-17
3.59525e-17
-1.68925e-17
5.14782e-18
-7.59089e-18
6.42586e-18
-1.05192e-17
-1.59443e-18
0
-7.4721e-19
0
1.18101e-16
-2.0025e-16
0
-2.86297e-17
2.40102e-17
0
0
-2.59031e-17
0
-8.19394e-18
-1.11101e-17
-4.73133e-18
6.95963e-18
0
2.75394e-18
0
0
1.55467e-18
-1.62545e-18
0
1.66927e-16
-1.32936e-16
2.65046e-17
-2.22336e-17
-8.0433e-18
2.22927e-17
2.26077e-17
-2.42288e-17
7.68125e-18
1.12739e-18
-5.12514e-18
2.03359e-17
-6.20306e-18
-1.19759e-17
3.83926e-18
-8.01454e-19
4.91236e-19
-1.23197e-19
-2.87728e-16
1.05336e-16
0
0
8.94903e-18
-9.10015e-18
5.07521e-18
2.2918e-18
2.10947e-17
9.33353e-18
-8.77438e-18
-7.22451e-19
-3.69474e-18
2.90927e-18
0
1.04601e-18
7.34591e-19
3.32755e-19
1.11353e-19
0
8.77221e-17
-7.80853e-17
2.4269e-17
2.20824e-17
-4.14023e-18
-1.16516e-17
-8.94579e-18
-2.59597e-17
9.04305e-18
-4.12907e-18
6.63285e-18
3.45504e-18
-3.47901e-18
3.69276e-18
1.81399e-18
-2.50321e-18
-3.07348e-19
0
-1.66509e-17
-7.05133e-17
2.36982e-17
2.04296e-17
-6.3669e-17
4.37468e-17
1.79815e-17
-1.83798e-17
1.18849e-17
-8.5823e-18
0
0
-4.41636e-18
7.53496e-18
-3.08169e-18
2.33078e-18
-2.57007e-18
3.7004e-19
-6.55011e-19
3.06617e-17
2.73611e-17
-2.33643e-17
1.55449e-17
-1.97935e-17
-2.51923e-17
0
0
0
0
0
0
2.24536e-18
-5.01674e-18
5.30575e-18
-1.38737e-18
1.73466e-18
7.23573e-19
-6.06158e-19
6.46124e-17
-1.00104e-16
1.24497e-16
-4.97989e-17
6.98963e-17
-4.1702e-17
7.40798e-17
-3.86525e-17
-1.61912e-17
1.65628e-17
0
3.13392e-18
-2.1936e-18
4.38899e-18
-1.80964e-18
-1.83072e-18
-3.15338e-18
2.59741e-19
5.05128e-19
1.01154e-16
2.70806e-17
0
-3.68761e-17
-2.54661e-17
5.55792e-17
3.18601e-18
-1.80047e-17
9.92629e-18
-5.82341e-18
0
-2.48085e-18
0
-1.54534e-18
1.15104e-18
-9.18361e-19
-2.89569e-19
1.80516e-19
0
1.40451e-16
-2.86272e-17
1.10861e-16
-8.62714e-17
-1.53976e-17
5.29951e-17
-3.16484e-17
2.12252e-18
1.53074e-18
-5.75094e-18
5.28641e-18
0
0
2.01837e-18
-5.63617e-19
3.16298e-19
1.04518e-18
-3.60314e-19
0
2.4868e-20
0
-2.52484e-17
1.35926e-16
-8.98623e-17
-8.21822e-17
4.44515e-17
-3.76021e-17
3.35633e-17
1.41228e-17
-9.26049e-18
3.38462e-18
-2.81366e-18
6.10556e-19
3.50929e-18
8.18295e-21
-1.04852e-18
1.01309e-18
-2.1486e-19
3.35224e-16
-1.05417e-16
4.41387e-17
-1.39901e-16
3.44727e-17
-4.8292e-17
2.69987e-17
0
0
-8.90714e-19
-1.37995e-18
-3.95826e-19
0
-3.41286e-18
-2.30772e-18
1.53377e-18
-1.06781e-19
2.45749e-19
4.49778e-19
0
-1.01754e-16
1.60287e-16
2.83469e-17
-1.19939e-16
2.8672e-17
-3.89221e-17
9.57071e-18
2.86489e-17
0
0
4.65201e-19
3.77727e-18
0
-2.62505e-18
-1.06141e-18
1.62439e-19
-4.59741e-19
-5.78897e-19
0
-6.10721e-17
2.01263e-17
1.08105e-16
7.0169e-17
-1.24804e-16
5.42948e-17
-3.15106e-17
1.74929e-17
-2.00935e-17
0
0
0
-5.43481e-18
1.01183e-18
-1.53776e-18
0
-8.57613e-20
4.19292e-19
-2.4926e-16
2.33154e-16
2.2816e-16
-2.75225e-16
1.15143e-16
-1.06067e-16
0
3.38615e-17
-4.45843e-17
2.38242e-17
-1.61807e-17
1.1857e-17
8.66675e-18
5.6208e-18
4.03289e-18
0
0
0
0
2.82667e-16
-1.55038e-16
0
0
-4.34913e-17
9.59509e-17
-6.0789e-17
-3.6407e-17
3.59966e-17
2.27343e-17
3.46467e-17
-1.23028e-17
5.00023e-18
3.3083e-18
2.21909e-18
1.88232e-18
2.94555e-18
-1.39874e-19
1.42474e-19
-2.83345e-16
2.54011e-16
1.2487e-16
-6.6499e-17
1.27403e-16
-8.09614e-17
-5.71852e-17
-4.4374e-17
0
-4.80561e-17
3.57164e-18
1.48944e-17
-1.02794e-17
-7.67663e-18
-2.69139e-18
-2.55283e-18
-2.05656e-18
0
0
-9.74737e-17
0
6.98108e-17
8.83666e-21
0
0
5.89884e-17
4.57877e-17
0
2.66913e-17
0
-2.2467e-17
-5.9597e-18
1.02412e-17
0
6.34905e-18
-8.68435e-19
8.8592e-19
0
2.10883e-16
0
1.31248e-16
-2.37402e-16
2.02355e-16
1.47593e-16
-7.14813e-18
0
4.68899e-18
3.32533e-17
0
-2.67798e-17
2.77729e-17
-2.40804e-17
-5.11717e-18
-5.0106e-18
-1.59664e-18
-3.10309e-19
-1.30628e-18
-1.89763e-16
2.71612e-16
-7.26384e-17
-1.80266e-16
-9.83525e-17
-7.94426e-17
-1.27095e-16
-4.53481e-17
5.60899e-18
1.41665e-17
-1.41399e-17
4.07149e-17
-1.76698e-17
3.34952e-17
-6.22228e-18
0
7.99844e-18
-5.01893e-18
1.27205e-18
4.33691e-16
-1.23736e-17
-3.0323e-16
2.32616e-16
-1.99843e-16
1.63038e-16
-7.60303e-18
-5.33192e-17
4.33344e-17
1.54862e-17
-2.7395e-18
-3.46531e-17
9.22916e-18
1.18163e-17
-3.18124e-18
3.21752e-18
-8.28444e-18
-1.78366e-18
-2.60241e-18
2.12904e-16
8.5376e-17
1.43537e-16
-1.19243e-16
-9.00952e-17
7.72561e-18
-6.03832e-17
1.44031e-16
6.82355e-18
5.89298e-17
3.30345e-17
-2.85932e-17
0
-1.83527e-17
0
0
1.4739e-17
6.11603e-18
2.9927e-18
1.9627e-16
0
1.40841e-16
1.18473e-16
-9.90202e-17
8.14027e-17
0
-5.55707e-17
-7.4185e-17
-6.0985e-17
-3.33269e-17
2.89165e-17
0
0
0
0
-1.38641e-17
-1.21942e-17
0
-3.84336e-16
0
-1.05053e-17
-9.4302e-18
1.52278e-16
-7.83275e-17
-3.44653e-17
-3.48462e-17
7.70247e-17
0
1.9289e-17
-1.97002e-18
1.94517e-17
0
0
2.7188e-17
-2.0668e-18
1.46721e-17
-6.49349e-18
2.68159e-16
7.30073e-17
-7.22536e-17
-6.0507e-17
-1.95198e-16
1.28163e-16
1.47336e-16
-6.37045e-18
-5.40148e-17
5.55754e-17
1.12523e-17
-5.94459e-17
-4.64698e-17
-3.21702e-17
-3.47497e-17
-3.14337e-17
2.97419e-17
-1.37406e-18
6.6507e-18
-8.10926e-17
3.5362e-17
-1.67603e-16
2.66139e-17
-2.65171e-17
0
-7.42132e-17
-8.58685e-18
-6.88367e-17
9.77667e-18
6.72586e-17
4.67573e-17
-1.22333e-17
1.36336e-18
3.28141e-17
0
-6.43602e-17
-2.52561e-17
-5.16182e-19
1.68927e-16
-4.33021e-18
2.6384e-16
-1.21639e-16
3.49795e-19
3.03334e-18
8.93978e-17
-1.1019e-17
6.67602e-17
-6.22887e-17
-5.89951e-17
0
6.62538e-17
5.05934e-17
7.65356e-19
-1.12294e-18
3.59158e-17
2.56634e-17
0
-1.19228e-16
0
-2.4415e-17
1.17004e-16
2.35805e-18
2.58296e-17
-8.64462e-17
8.05663e-17
9.01965e-17
8.69417e-17
8.45838e-17
0
-6.43644e-17
0
3.7602e-18
-3.9053e-18
0
-3.98558e-19
2.00571e-17
8.49714e-17
6.33385e-18
-6.04134e-17
1.89532e-16
-5.98087e-17
0
0
-1.07067e-16
-8.73912e-17
-8.42271e-17
-1.59556e-16
-2.2449e-17
0
0
0
-8.17105e-18
8.64701e-18
5.69993e-17
-2.0371e-17
6.67049e-18
0
-1.36479e-16
-1.19913e-16
1.28817e-16
-1.28412e-16
-1.81857e-16
2.16813e-16
6.41598e-17
0
9.66431e-17
1.1596e-16
-2.50194e-17
1.38307e-16
-2.28278e-17
2.37582e-17
9.43135e-17
-5.41679e-17
0
-1.61433e-16
0
-1.52243e-16
1.48257e-16
0
2.57931e-16
1.19359e-16
-2.56634e-16
2.10759e-16
-1.01047e-18
-6.26442e-17
-1.12273e-16
0
1.63808e-16
-2.71873e-16
2.92696e-16
-3.73236e-16
0
0
1.6127e-16
-1.56921e-18
-3.83492e-18
-3.02304e-16
3.07266e-16
-1.47088e-16
1.46489e-16
1.44447e-16
-1.22955e-16
0
0
2.45311e-16
-2.49537e-16
-2.62955e-16
2.61807e-16
-2.55922e-16
2.77518e-16
-4.3543e-16
0
)
;

boundaryField
{
    up
    {
        type            calculated;
        value           nonuniform List<scalar> 
84
(
0
0
0
0
-1.43213e-17
2.54352e-17
-1.04386e-17
6.65068e-18
-5.8684e-18
0
-3.35946e-18
3.15863e-18
-1.69211e-18
3.55306e-19
2.62727e-19
9.16641e-19
0
0
-3.32018e-19
2.51958e-19
1.99765e-19
-1.9397e-19
1.56284e-20
0
7.33427e-20
4.36936e-20
-6.04939e-19
0
9.6362e-19
1.33044e-18
1.87113e-19
-3.42458e-19
1.50234e-19
0
-6.11021e-20
3.0804e-19
-3.28881e-19
5.35308e-19
0
-1.05541e-19
0
0
-5.69518e-20
1.10186e-19
-1.06464e-19
1.94835e-19
-3.66757e-19
3.2594e-19
-4.07016e-20
-2.97367e-19
0
0
0
-1.62545e-18
-2.29432e-19
1.11353e-19
0
-6.55011e-19
-6.06158e-19
4.31971e-19
0
0
-2.1486e-19
4.49778e-19
-5.78897e-19
4.19292e-19
0
1.42474e-19
0
0
-1.30628e-18
1.27205e-18
-2.60241e-18
2.9927e-18
0
-6.49349e-18
6.6507e-18
-5.16182e-19
0
2.00571e-17
-2.0371e-17
0
0
0
)
;
    }
    low
    {
        type            calculated;
        value           nonuniform List<scalar> 
84
(
-3.23034e-16
3.20512e-16
-1.53901e-16
2.46683e-16
4.37368e-17
-1.13678e-17
9.49905e-17
1.37571e-17
0
3.94356e-16
-9.99575e-17
7.5238e-17
-8.84737e-17
-5.9632e-16
9.74223e-17
0
-9.06242e-17
1.08425e-17
-1.05302e-17
-6.92375e-17
3.73463e-17
9.66954e-17
1.72828e-16
-1.48918e-16
0
-2.87865e-17
-1.48255e-17
0
-1.36154e-16
-3.93647e-17
-1.35845e-16
-1.47021e-16
1.5915e-16
5.33857e-17
3.66777e-16
2.93593e-17
0
2.43064e-16
2.43029e-16
1.37749e-16
-7.30677e-17
2.91196e-17
2.91207e-17
0
1.15776e-16
2.73522e-16
2.12979e-16
2.6782e-17
0
-5.08052e-16
3.08983e-16
7.48494e-21
1.66488e-20
1.18101e-16
0
-2.86834e-16
0
-1.66509e-17
3.06617e-17
6.40677e-17
1.0023e-16
1.3962e-16
2.4868e-20
3.34603e-16
0
0
-2.4926e-16
2.82462e-16
-2.83253e-16
-9.74737e-17
2.10994e-16
-1.89763e-16
4.34732e-16
2.13596e-16
1.9627e-16
-3.84336e-16
2.67404e-16
-8.02894e-17
1.68927e-16
-1.18891e-16
8.49714e-17
7.30778e-18
-1.61433e-16
1.61445e-16
)
;
    }
    left
    {
        type            calculated;
        value           nonuniform List<scalar> 
19
(
-3.22685e-16
-1.5541e-16
1.59566e-16
5.14911e-18
-2.99392e-16
0
-1.36849e-16
-1.34978e-16
-1.19769e-17
-7.24388e-17
-4.93804e-19
-7.25306e-17
3.25802e-16
-7.2256e-17
3.36571e-16
2.91273e-16
1.73484e-16
2.5508e-16
0
)
;
    }
    right
    {
        type            calculated;
        value           nonuniform List<scalar> 
19
(
1.6127e-16
-1.40453e-18
-3.83492e-18
-3.02337e-16
3.0742e-16
-1.47088e-16
1.46489e-16
1.44447e-16
-1.22412e-16
0
0
2.47603e-16
-2.52703e-16
-2.62955e-16
2.61807e-16
-2.55922e-16
2.77518e-16
-4.70794e-16
0
)
;
    }
    frontAndBackPlanes
    {
        type            empty;
    }
}


// ************************************************************************* //
