/*--------------------------------*- C++ -*----------------------------------*\
  =========                 |
  \\      /  F ield         | OpenFOAM: The Open Source CFD Toolbox
   \\    /   O peration     | Website:  https://openfoam.org
    \\  /    A nd           | Version:  7
     \\/     M anipulation  |
\*---------------------------------------------------------------------------*/
FoamFile
{
    version     2.0;
    format      ascii;
    class       volScalarField;
    location    "0.357";
    object      gradTy;
}
// * * * * * * * * * * * * * * * * * * * * * * * * * * * * * * * * * * * * * //

dimensions      [0 -1 0 1 0 0 0];

internalField   nonuniform List<scalar> 
1596
(
-0.366324
-0.683857
-0.951401
-1.21838
-1.48733
-1.79248
-2.12275
-2.51813
-2.99693
-3.57274
-4.35656
-5.3518
-6.71541
-8.63716
-11.5936
-16.176
-24.328
-39.3404
-92.9369
-1.11769
-1.3881
-1.58722
-1.78637
-1.99463
-2.24809
-2.53655
-2.89527
-3.34015
-3.87513
-4.59074
-5.47964
-6.64587
-8.17593
-10.3134
-13.1854
-17.4391
-23.6829
-41.4041
-2.00309
-2.1073
-2.19227
-2.30369
-2.43973
-2.63015
-2.86178
-3.16416
-3.54802
-4.0105
-4.62412
-5.37107
-6.32199
-7.517
-9.10298
-11.1032
-13.8684
-17.6574
-25.8015
-2.93376
-2.80933
-2.75408
-2.76475
-2.82043
-2.93949
-3.10474
-3.33903
-3.64814
-4.02486
-4.52662
-5.13007
-5.88372
-6.80397
-7.98285
-9.40389
-11.2721
-13.6972
-17.866
-3.79495
-3.45369
-3.25949
-3.16771
-3.14092
-3.18524
-3.28028
-3.44207
-3.67256
-3.96221
-4.35615
-4.82978
-5.41697
-6.12238
-7.00591
-8.03851
-9.34742
-10.9754
-13.3595
-4.48181
-4.00113
-3.69674
-3.51372
-3.4095
-3.38111
-3.40711
-3.49752
-3.65171
-3.85941
-4.15566
-4.51745
-4.96861
-5.50829
-6.17658
-6.94293
-7.88975
-9.02911
-10.5296
-4.93604
-4.42086
-4.05471
-3.80366
-3.63428
-3.54038
-3.50258
-3.52641
-3.61
-3.74351
-3.95381
-4.22088
-4.56154
-4.97254
-5.4811
-6.05943
-6.76214
-7.58748
-8.60335
-5.15496
-4.69385
-4.32036
-4.03292
-3.81708
-3.6697
-3.57675
-3.54142
-3.56193
-3.62981
-3.76544
-3.95244
-4.20264
-4.51199
-4.89908
-5.3401
-5.87161
-6.48608
-7.21105
-5.18052
-4.83986
-4.50678
-4.21495
-3.97306
-3.78594
-3.64748
-3.56092
-3.52582
-3.53577
-3.60639
-3.72493
-3.89974
-4.12674
-4.41859
-4.75532
-5.1613
-5.62685
-6.16215
-5.04889
-4.83905
-4.57858
-4.31383
-4.07029
-3.86207
-3.69192
-3.56532
-3.4843
-3.44506
-3.46025
-3.52053
-3.63213
-3.79147
-4.00736
-4.26325
-4.57556
-4.93418
-5.34124
-4.87975
-4.76478
-4.57868
-4.35654
-4.12848
-3.91451
-3.72497
-3.5686
-3.45049
-3.36988
-3.33785
-3.34827
-3.40618
-3.50877
-3.66236
-3.85326
-4.09249
-4.37024
-4.68474
-4.66716
-4.65012
-4.53739
-4.36404
-4.16148
-3.95258
-3.75324
-3.57543
-3.42749
-3.31182
-3.23904
-3.20597
-3.21725
-3.27101
-3.37204
-3.50904
-3.68936
-3.90384
-4.14894
-4.40258
-4.47305
-4.43265
-4.31303
-4.14459
-3.95139
-3.75265
-3.56314
-3.3941
-3.25093
-3.14471
-3.07496
-3.0466
-3.05888
-3.11594
-3.20853
-3.34176
-3.50726
-3.70057
-4.16337
-4.28491
-4.30249
-4.2329
-4.10058
-3.92835
-3.73663
-3.54215
-3.35851
-3.19372
-3.05983
-2.95878
-2.89622
-2.87262
-2.89203
-2.94695
-3.04118
-3.16711
-3.31997
-3.93922
-4.10087
-4.16374
-4.13735
-4.03952
-3.89015
-3.70922
-3.51444
-3.32109
-3.13935
-2.98243
-2.85447
-2.76207
-2.70704
-2.69369
-2.71615
-2.77749
-2.87092
-2.99167
-3.71877
-3.91759
-4.01879
-4.02976
-3.96371
-3.83745
-3.66958
-3.47797
-3.27891
-3.08428
-2.90843
-2.75743
-2.639
-2.55631
-2.51429
-2.50856
-2.54197
-2.60851
-2.70357
-3.51768
-3.74118
-3.87341
-3.91623
-3.87856
-3.77434
-3.62034
-3.43406
-3.23224
-3.02796
-2.83659
-2.66584
-2.52459
-2.41733
-2.34986
-2.31925
-2.32857
-2.37256
-2.4468
-3.34026
-3.57977
-3.73621
-3.80561
-3.7927
-3.70852
-3.56799
-3.38786
-3.18498
-2.97324
-2.76879
-2.58075
-2.41904
-2.28942
-2.19866
-2.14536
-2.13315
-2.15766
-2.21472
-3.16452
-3.43204
-3.61293
-3.70647
-3.71582
-3.64981
-3.52182
-3.34776
-3.1444
-2.92625
-2.71006
-2.50611
-2.32522
-2.1743
-2.06107
-1.98573
-1.95293
-1.95953
-2.00182
-2.98669
-3.28523
-3.49257
-3.61
-3.64056
-3.59192
-3.47627
-3.3088
-3.10609
-2.88305
-2.65689
-2.43882
-2.24038
-2.06932
-1.93422
-1.83675
-1.78317
-1.77235
-1.80169
-2.83508
-3.15294
-3.38414
-3.52431
-3.57488
-3.54251
-3.43852
-3.2775
-3.07584
-2.84875
-2.61375
-2.38281
-2.16799
-1.97753
-1.82042
-1.69928
-1.62229
-1.59153
-1.60764
-2.70245
-3.0378
-3.29047
-3.45202
-3.5216
-3.50471
-3.41186
-3.25721
-3.05696
-2.82649
-2.58362
-2.34088
-2.11077
-1.90172
-1.72247
-1.57536
-1.46957
-1.41125
-1.40903
-2.58278
-2.93841
-3.21223
-3.39425
-3.482
-3.47993
-3.39789
-3.24971
-3.05138
-2.81835
-2.56857
-2.31512
-2.07093
-1.8446
-1.64416
-1.46989
-1.3286
-1.22664
-1.1868
-2.4791
-2.85588
-3.14958
-3.34903
-3.45111
-3.45939
-3.38397
-3.23822
-3.03822
-2.7998
-2.53993
-2.27342
-2.01351
-1.76958
-1.54875
-1.34954
-1.17093
-1.00659
-0.854487
-2.39785
-2.79463
-3.11104
-3.33441
-3.46187
-3.49575
-3.44605
-3.3244
-3.14559
-2.92491
-2.67617
-2.41526
-2.15456
-1.90581
-1.67662
-1.4683
-1.27496
-1.08358
-0.869054
-2.34464
-2.75329
-3.08085
-3.31709
-3.45957
-3.51033
-3.47887
-3.37571
-3.2141
-3.0081
-2.76839
-2.51023
-2.24547
-1.98742
-1.74634
-1.52981
-1.33617
-1.1611
-0.991996
-2.34991
-2.76253
-3.09508
-3.33877
-3.49146
-3.55597
-3.54124
-3.45748
-3.31659
-3.13059
-2.90798
-2.66081
-2.39924
-2.13665
-1.88603
-1.6591
-1.4591
-1.28526
-1.1283
-2.42069
-2.8287
-3.15744
-3.3997
-3.55416
-3.62491
-3.62084
-3.55231
-3.43026
-3.26495
-3.06254
-2.83122
-2.57777
-2.3137
-2.05339
-1.81273
-1.60061
-1.42024
-1.26437
-2.55191
-2.951
-3.26818
-3.50088
-3.64953
-3.71976
-3.7209
-3.66363
-3.55838
-3.41416
-3.23501
-3.02516
-2.78655
-2.52629
-2.25758
-1.99977
-1.76867
-1.57374
-1.41047
-2.74207
-3.1216
-3.41877
-3.63458
-3.77099
-3.83515
-3.83706
-3.78781
-3.69766
-3.57506
-3.42254
-3.24123
-3.02755
-2.78154
-2.51074
-2.23492
-1.97704
-1.75713
-1.5769
-2.99074
-3.33921
-3.61021
-3.80365
-3.92286
-3.97654
-3.97554
-3.9313
-3.8541
-3.75258
-3.6288
-3.4827
-3.30619
-3.09103
-2.83342
-2.54626
-2.25444
-1.99307
-1.77951
-3.26841
-3.59037
-3.83265
-3.99954
-4.09759
-4.13729
-4.13036
-4.08836
-4.0216
-3.93937
-3.84441
-3.73819
-3.61164
-3.45082
-3.23753
-2.9676
-2.65057
-2.32794
-2.04815
-3.59231
-3.88095
-4.08785
-4.22256
-4.29492
-4.31694
-4.3008
-4.25763
-4.19745
-4.13009
-4.05939
-3.99072
-3.91905
-3.83293
-3.70644
-3.518
-3.23914
-2.87765
-2.45295
-3.97674
-4.22032
-4.38445
-4.4826
-4.52725
-4.53131
-4.50654
-4.46322
-4.41045
-4.35787
-4.31063
-4.27754
-4.26123
-4.26235
-4.26657
-4.25975
-4.19785
-4.05186
-3.79084
-4.41381
-4.60102
-4.70875
-4.75747
-4.76184
-4.73501
-4.68689
-4.62634
-4.56056
-4.49638
-4.43887
-4.39438
-4.36805
-4.36654
-4.39316
-4.457
-4.55097
-4.66566
-4.78112
-4.91601
-5.0219
-5.05919
-5.05082
-5.01065
-4.95059
-4.87807
-4.80059
-4.72361
-4.65143
-4.58933
-4.54006
-4.50755
-4.49482
-4.50592
-4.5447
-4.61832
-4.73349
-4.90062
-5.47712
-5.47737
-5.43731
-5.37201
-5.29057
-5.2014
-5.10936
-5.01991
-4.93687
-4.8629
-4.80212
-4.75521
-4.724
-4.70827
-4.70799
-4.71884
-4.73943
-4.7637
-4.78802
-6.00832
-5.90149
-5.78437
-5.66225
-5.53898
-5.41898
-5.30462
-5.19897
-5.10411
-5.02124
-4.95258
-4.89778
-4.85704
-4.8291
-4.81288
-4.80482
-4.80369
-4.80611
-4.81029
-6.45717
-6.26621
-6.08484
-5.91411
-5.7546
-5.60758
-5.47341
-5.35306
-5.24717
-5.15582
-5.07985
-5.0185
-4.97116
-4.93641
-4.913
-4.89818
-4.89065
-4.88783
-4.88801
-6.82318
-6.56238
-6.32803
-6.11738
-5.92819
-5.75904
-5.60856
-5.47602
-5.36094
-5.26257
-5.18083
-5.11474
-5.06325
-5.02489
-4.99827
-4.98108
-4.97176
-4.96809
-4.96826
-7.0911
-6.77661
-6.50169
-6.26119
-6.05027
-5.86519
-5.70309
-5.56195
-5.44047
-5.33736
-5.25191
-5.18306
-5.12947
-5.08962
-5.06193
-5.04428
-5.03471
-5.03104
-5.03123
-7.25854
-6.89704
-6.59428
-6.33592
-6.11295
-5.9194
-5.75128
-5.60577
-5.4811
-5.37568
-5.28852
-5.21852
-5.16423
-5.12415
-5.09668
-5.07988
-5.07171
-5.07007
-5.07281
-7.25858
-6.89711
-6.59437
-6.33601
-6.11304
-5.9195
-5.75138
-5.60587
-5.48119
-5.37578
-5.28861
-5.21861
-5.16432
-5.12424
-5.09678
-5.07998
-5.07181
-5.07017
-5.07291
-7.09117
-6.77676
-6.50189
-6.26142
-6.05051
-5.86544
-5.70334
-5.5622
-5.44073
-5.33761
-5.25216
-5.18332
-5.12973
-5.08989
-5.06222
-5.04458
-5.03504
-5.0314
-5.03162
-6.82328
-6.56261
-6.32834
-6.11774
-5.92857
-5.75945
-5.60897
-5.47643
-5.36135
-5.26299
-5.18125
-5.11516
-5.06368
-5.02533
-4.99872
-4.98155
-4.97225
-4.96861
-4.96881
-6.45731
-6.26651
-6.08524
-5.91457
-5.7551
-5.6081
-5.47393
-5.35359
-5.24771
-5.15636
-5.08039
-5.01903
-4.97169
-4.93693
-4.91352
-4.89869
-4.89115
-4.88833
-4.88851
-6.00848
-5.90182
-5.78481
-5.66277
-5.53955
-5.41958
-5.30524
-5.1996
-5.10475
-5.02189
-4.95322
-4.89841
-4.85766
-4.8297
-4.81345
-4.80536
-4.80419
-4.80657
-4.81072
-5.47729
-5.47773
-5.43779
-5.37258
-5.29119
-5.20207
-5.11005
-5.02063
-4.9376
-4.86363
-4.80285
-4.75593
-4.72469
-4.7089
-4.70853
-4.71926
-4.73969
-4.76379
-4.78794
-4.91619
-5.0223
-5.05976
-5.05154
-5.0115
-4.95155
-4.87915
-4.80177
-4.7249
-4.65284
-4.59087
-4.54175
-4.50939
-4.49679
-4.50799
-4.54671
-4.62
-4.73436
-4.89998
-4.41392
-4.60111
-4.70883
-4.75756
-4.76191
-4.73505
-4.68687
-4.62625
-4.56036
-4.49602
-4.4383
-4.39353
-4.36681
-4.36478
-4.39084
-4.45417
-4.54813
-4.6638
-4.78191
-3.9768
-4.22051
-4.38476
-4.48305
-4.52785
-4.53208
-4.50747
-4.46431
-4.4117
-4.35929
-4.31224
-4.27937
-4.26337
-4.265
-4.2701
-4.26469
-4.20489
-4.0616
-3.80364
-3.59234
-3.88098
-4.08793
-4.22271
-4.29516
-4.31728
-4.30123
-4.25816
-4.19808
-4.13082
-4.06025
-3.99176
-3.9204
-3.83475
-3.70892
-3.52127
-3.24304
-2.88161
-2.45587
-3.26843
-3.59038
-3.83269
-3.99966
-4.0978
-4.1376
-4.13079
-4.0889
-4.02227
-3.94018
-3.8454
-3.73942
-3.61321
-3.4528
-3.23995
-2.97032
-2.65328
-2.33029
-2.05002
-2.99075
-3.3392
-3.61022
-3.80372
-3.92302
-3.9768
-3.97592
-3.93181
-3.85475
-3.75339
-3.6298
-3.48394
-3.30772
-3.09284
-2.83544
-2.54831
-2.25633
-1.99469
-1.78088
-2.74208
-3.12157
-3.41875
-3.63462
-3.77111
-3.83537
-3.83739
-3.78828
-3.69827
-3.57584
-3.4235
-3.24241
-3.02893
-2.7831
-2.51236
-2.23649
-1.97845
-1.75836
-1.578
-2.5519
-2.95096
-3.26813
-3.50088
-3.6496
-3.71994
-3.72119
-3.66405
-3.55895
-3.41489
-3.23591
-3.02623
-2.78777
-2.5276
-2.25889
-2.001
-1.76979
-1.57475
-1.41142
-2.42069
-2.82865
-3.15739
-3.39968
-3.5542
-3.62505
-3.62109
-3.55269
-3.43078
-3.26562
-3.06336
-2.83217
-2.57882
-2.31478
-2.05445
-1.81373
-1.60154
-1.42111
-1.26526
-2.3499
-2.76248
-3.09502
-3.33873
-3.49148
-3.55608
-3.54145
-3.45782
-3.31706
-3.13119
-2.90869
-2.66163
-2.40012
-2.13756
-1.88691
-1.65993
-1.4599
-1.28606
-1.12919
-2.34463
-2.75324
-3.08077
-3.31701
-3.45953
-3.51034
-3.47896
-3.37588
-3.21436
-3.00846
-2.76881
-2.51071
-2.24597
-1.98791
-1.7468
-1.53024
-1.33661
-1.16164
-0.992851
-2.39793
-2.79468
-3.1111
-3.33449
-3.46199
-3.49593
-3.4463
-3.32473
-3.146
-2.92542
-2.67676
-2.41591
-2.15527
-1.90655
-1.67737
-1.46905
-1.2757
-1.08427
-0.869653
-2.47917
-2.85596
-3.14964
-3.34908
-3.45113
-3.45936
-3.3839
-3.23811
-3.03807
-2.79962
-2.53972
-2.27318
-2.01325
-1.7693
-1.54844
-1.3492
-1.17056
-1.00617
-0.854006
-2.58284
-2.93846
-3.21228
-3.3943
-3.48205
-3.47996
-3.39792
-3.24973
-3.05139
-2.81834
-2.56856
-2.31511
-2.07092
-1.84459
-1.64415
-1.46989
-1.3286
-1.22666
-1.18685
-2.7025
-3.03785
-3.2905
-3.45204
-3.52162
-3.50472
-3.41186
-3.2572
-3.05694
-2.82647
-2.58359
-2.34085
-2.11074
-1.90169
-1.72245
-1.57535
-1.46958
-1.41127
-1.40905
-2.83512
-3.15297
-3.38417
-3.52433
-3.57489
-3.54252
-3.43851
-3.27748
-3.07582
-2.84872
-2.61373
-2.38279
-2.16797
-1.97752
-1.82041
-1.69928
-1.6223
-1.59154
-1.60765
-2.98672
-3.28526
-3.49259
-3.61001
-3.64057
-3.59192
-3.47626
-3.30879
-3.10607
-2.88304
-2.65687
-2.4388
-2.24036
-2.06931
-1.93422
-1.83675
-1.78318
-1.77235
-1.8017
-3.16455
-3.43207
-3.61295
-3.70648
-3.71582
-3.64981
-3.52181
-3.34775
-3.14439
-2.92624
-2.71005
-2.5061
-2.32521
-2.17429
-2.06107
-1.98573
-1.95293
-1.95953
-2.00182
-3.34029
-3.57979
-3.73622
-3.80561
-3.7927
-3.70851
-3.56798
-3.38785
-3.18497
-2.97323
-2.76879
-2.58075
-2.41903
-2.28942
-2.19866
-2.14536
-2.13315
-2.15766
-2.21472
-3.51769
-3.74119
-3.87342
-3.91623
-3.87856
-3.77434
-3.62033
-3.43405
-3.23223
-3.02795
-2.83659
-2.66584
-2.52458
-2.41733
-2.34986
-2.31925
-2.32857
-2.37256
-2.4468
-3.71878
-3.9176
-4.01879
-4.02976
-3.96371
-3.83745
-3.66957
-3.47797
-3.27891
-3.08427
-2.90843
-2.75743
-2.639
-2.55631
-2.51429
-2.50856
-2.54197
-2.60851
-2.70356
-3.93922
-4.10087
-4.16374
-4.13735
-4.03952
-3.89014
-3.70922
-3.51444
-3.32108
-3.13934
-2.98243
-2.85447
-2.76207
-2.70703
-2.69369
-2.71615
-2.77749
-2.87091
-2.99166
-4.16337
-4.28491
-4.30249
-4.23291
-4.10058
-3.92835
-3.73663
-3.54215
-3.35851
-3.19372
-3.05983
-2.95878
-2.89621
-2.87262
-2.89203
-2.94695
-3.04117
-3.1671
-3.31997
-4.40258
-4.47305
-4.43265
-4.31303
-4.14459
-3.95139
-3.75265
-3.56314
-3.3941
-3.25093
-3.14471
-3.07496
-3.04659
-3.05888
-3.11594
-3.20853
-3.34176
-3.50725
-3.70056
-4.66716
-4.65012
-4.53739
-4.36405
-4.16148
-3.95257
-3.75324
-3.57543
-3.42749
-3.31181
-3.23903
-3.20597
-3.21725
-3.27101
-3.37204
-3.50903
-3.68935
-3.90383
-4.14894
-4.87974
-4.76478
-4.57869
-4.35654
-4.12848
-3.91451
-3.72497
-3.5686
-3.45049
-3.36988
-3.33785
-3.34826
-3.40617
-3.50876
-3.66235
-3.85326
-4.09248
-4.37023
-4.68474
-5.04889
-4.83906
-4.57859
-4.31384
-4.0703
-3.86207
-3.69192
-3.56532
-3.4843
-3.44506
-3.46025
-3.52053
-3.63213
-3.79146
-4.00735
-4.26325
-4.57555
-4.93417
-5.34124
-5.18053
-4.83987
-4.50679
-4.21496
-3.97307
-3.78594
-3.64748
-3.56092
-3.52582
-3.53576
-3.60639
-3.72493
-3.89973
-4.12674
-4.41859
-4.75531
-5.16129
-5.62685
-6.16215
-5.15498
-4.69386
-4.32037
-4.03293
-3.81709
-3.6697
-3.57676
-3.54142
-3.56193
-3.62981
-3.76544
-3.95244
-4.20264
-4.51199
-4.89907
-5.34009
-5.8716
-6.48608
-7.21105
-4.93606
-4.42088
-4.05472
-3.80367
-3.63428
-3.54038
-3.50259
-3.52641
-3.61
-3.74351
-3.9538
-4.22087
-4.56154
-4.97253
-5.48109
-6.05943
-6.76213
-7.58748
-8.60335
-4.48183
-4.00115
-3.69675
-3.51372
-3.4095
-3.38111
-3.40711
-3.49752
-3.65171
-3.85941
-4.15566
-4.51744
-4.96861
-5.50829
-6.17657
-6.94293
-7.88975
-9.02911
-10.5296
-3.79497
-3.4537
-3.2595
-3.16772
-3.14093
-3.18525
-3.28028
-3.44207
-3.67256
-3.96221
-4.35614
-4.82978
-5.41696
-6.12237
-7.00591
-8.0385
-9.34742
-10.9754
-13.3596
-2.93377
-2.80934
-2.75409
-2.76476
-2.82044
-2.93949
-3.10475
-3.33904
-3.64815
-4.02486
-4.52662
-5.13007
-5.88372
-6.80397
-7.98284
-9.40389
-11.2721
-13.6972
-17.866
-2.0031
-2.1073
-2.19227
-2.30369
-2.43974
-2.63015
-2.86179
-3.16416
-3.54802
-4.0105
-4.62412
-5.37107
-6.32198
-7.517
-9.10298
-11.1032
-13.8684
-17.6574
-25.8015
-1.11769
-1.3881
-1.58722
-1.78637
-1.99463
-2.2481
-2.53656
-2.89527
-3.34015
-3.87513
-4.59074
-5.47964
-6.64587
-8.17593
-10.3134
-13.1854
-17.4391
-23.6829
-41.4041
-0.366326
-0.683858
-0.951401
-1.21838
-1.48733
-1.79248
-2.12275
-2.51813
-2.99693
-3.57274
-4.35656
-5.3518
-6.7154
-8.63715
-11.5936
-16.176
-24.328
-39.3404
-92.9369
)
;

boundaryField
{
    up
    {
        type            calculated;
        value           nonuniform List<scalar> 
84
(
-84.2173
-45.6113
-28.0071
-19.1443
-14.1706
-11.0817
-8.99916
-7.50585
-6.38699
-5.51697
-4.82367
-4.25968
-3.79008
-3.39267
-3.05093
-2.7521
-2.48666
-2.2475
-2.02878
-1.82406
-1.62615
-1.42227
-1.17921
-0.77023
-0.748838
-0.941836
-1.08277
-1.21833
-1.36127
-1.52163
-1.71154
-1.94549
-2.2947
-3.79326
-4.94888
-5.00162
-4.79236
-4.8095
-4.88689
-4.96814
-5.03172
-5.07506
-5.07515
-5.03213
-4.96871
-4.8874
-4.80993
-4.79223
-4.99976
-4.94982
-3.80839
-2.29739
-1.94713
-1.71283
-1.52271
-1.36221
-1.21923
-1.08369
-0.943055
-0.749663
-0.769735
-1.17926
-1.42229
-1.62616
-1.82407
-2.02878
-2.24751
-2.48666
-2.75209
-3.05093
-3.39266
-3.79007
-4.25968
-4.82368
-5.51697
-6.38699
-7.50585
-8.99916
-11.0817
-14.1706
-19.1443
-28.0071
-45.6112
-84.2173
)
;
    }
    low
    {
        type            calculated;
        value           nonuniform List<scalar> 
84
(
-0.392486
-1.16554
-2.10798
-3.11203
-4.04342
-4.77818
-5.24455
-5.44343
-5.41094
-5.20339
-4.99321
-4.74054
-4.42191
-4.15243
-3.9107
-3.66725
-3.44662
-3.26382
-3.07723
-2.87413
-2.70365
-2.55699
-2.4199
-2.29973
-2.18836
-2.12222
-2.12958
-2.22074
-2.37823
-2.60231
-2.88096
-3.17842
-3.52677
-3.94137
-4.40438
-4.94285
-5.55646
-6.12384
-6.59697
-6.98428
-7.26948
-7.45841
-7.45844
-7.26951
-6.98433
-6.59704
-6.12392
-5.55655
-4.94296
-4.40436
-3.94143
-3.52675
-3.17842
-2.88097
-2.60232
-2.37823
-2.22076
-2.1296
-2.12226
-2.18841
-2.29983
-2.41994
-2.55703
-2.70369
-2.87416
-3.07726
-3.26384
-3.44663
-3.66726
-3.91071
-4.15242
-4.4219
-4.74053
-4.9932
-5.20338
-5.41094
-5.44344
-5.24457
-4.7782
-4.04344
-3.11205
-2.108
-1.16554
-0.392488
)
;
    }
    left
    {
        type            calculated;
        value           nonuniform List<scalar> 
19
(
-0.359216
-0.670695
-0.942948
-1.21794
-1.49706
-1.81372
-2.15785
-2.57166
-3.0744
-3.68624
-4.52378
-5.59611
-7.08163
-9.20767
-12.5093
-17.711
-27.076
-44.5301
-87.3542
)
;
    }
    right
    {
        type            calculated;
        value           nonuniform List<scalar> 
19
(
-0.359218
-0.670696
-0.942949
-1.21794
-1.49706
-1.81372
-2.15785
-2.57166
-3.0744
-3.68624
-4.52378
-5.5961
-7.08163
-9.20767
-12.5093
-17.711
-27.076
-44.5301
-87.3542
)
;
    }
    frontAndBackPlanes
    {
        type            empty;
    }
}


// ************************************************************************* //
