/*--------------------------------*- C++ -*----------------------------------*\
  =========                 |
  \\      /  F ield         | OpenFOAM: The Open Source CFD Toolbox
   \\    /   O peration     | Website:  https://openfoam.org
    \\  /    A nd           | Version:  7
     \\/     M anipulation  |
\*---------------------------------------------------------------------------*/
FoamFile
{
    version     2.0;
    format      ascii;
    class       volScalarField;
    location    "0.397";
    object      gradTy;
}
// * * * * * * * * * * * * * * * * * * * * * * * * * * * * * * * * * * * * * //

dimensions      [0 -1 0 1 0 0 0];

internalField   nonuniform List<scalar> 
1596
(
-0.420607
-0.786151
-1.09618
-1.40814
-1.72551
-2.08839
-2.48451
-2.96094
-3.53973
-4.2373
-5.18525
-6.38828
-8.03343
-10.3478
-13.9023
-19.4064
-29.1919
-47.2082
-111.524
-1.28357
-1.59687
-1.8317
-2.07013
-2.3227
-2.63117
-2.98388
-3.42195
-3.96429
-4.61566
-5.48296
-6.55805
-7.96474
-9.80668
-12.3756
-15.8245
-20.9295
-28.4217
-49.6859
-2.30019
-2.42457
-2.53145
-2.67291
-2.84651
-3.08634
-3.37705
-3.75274
-4.22595
-4.79328
-5.53992
-6.44523
-7.59305
-9.03159
-10.9367
-13.3371
-16.6535
-21.1974
-30.9669
-3.36791
-3.23169
-3.18032
-3.20917
-3.2936
-3.45428
-3.67101
-3.96989
-4.35742
-4.82494
-5.43953
-6.17392
-7.08542
-8.19388
-9.6093
-11.3132
-13.5511
-16.456
-21.4527
-4.35439
-3.97111
-3.76251
-3.67615
-3.66824
-3.74515
-3.88285
-4.09934
-4.39648
-4.76281
-5.25059
-5.83108
-6.54399
-7.39514
-8.45595
-9.69293
-11.2584
-13.2049
-16.0577
-5.139
-4.59749
-4.26418
-4.07486
-3.9798
-3.97472
-4.03434
-4.16951
-4.37899
-4.6504
-5.02389
-5.47257
-6.0241
-6.67766
-7.48081
-8.3984
-9.52873
-10.8878
-12.6785
-5.65503
-5.0755
-4.67262
-4.40646
-4.23781
-4.15862
-4.14592
-4.20524
-4.33378
-4.51966
-4.7932
-5.13103
-5.55236
-6.05345
-6.66634
-7.35917
-8.19681
-9.17868
-10.387
-5.89999
-5.38369
-4.97323
-4.66607
-4.4449
-4.30506
-4.22976
-4.22172
-4.27814
-4.38869
-4.57594
-4.82076
-5.13633
-5.51791
-5.98706
-6.51669
-7.1499
-7.87915
-8.73819
-5.92268
-5.54523
-5.18161
-4.86985
-4.6193
-4.43441
-4.3075
-4.24123
-4.23429
-4.2787
-4.39132
-4.55722
-4.78538
-5.07095
-5.4283
-5.83483
-6.31898
-6.87055
-7.50248
-5.76526
-5.538
-5.25772
-4.97707
-4.72476
-4.5159
-4.35295
-4.24112
-4.18186
-4.17019
-4.2194
-4.3185
-4.47391
-4.68124
-4.95022
-5.26223
-5.63609
-6.06098
-6.54015
-5.56518
-5.44669
-5.2516
-5.01976
-4.78522
-4.56989
-4.38493
-4.23924
-4.13777
-4.07899
-4.07435
-4.11648
-4.21039
-4.35253
-4.54959
-4.7862
-5.07471
-5.40451
-5.77413
-5.31587
-5.30927
-5.19808
-5.02209
-4.81679
-4.60739
-4.41139
-4.2414
-4.10604
-4.00738
-3.95634
-3.9489
-3.98958
-4.07586
-4.21258
-4.38705
-4.60727
-4.86325
-5.15132
-5.00784
-5.10082
-5.07209
-4.95741
-4.79111
-4.59969
-4.40445
-4.22116
-4.06176
-3.93173
-3.84252
-3.79321
-3.78864
-3.82758
-3.91408
-4.03772
-4.20387
-4.40328
-4.63113
-4.72947
-4.88029
-4.91755
-4.85998
-4.735
-4.56767
-4.38057
-4.19169
-4.01563
-3.86082
-3.73991
-3.6547
-3.61093
-3.60879
-3.65226
-3.73286
-3.85443
-4.00847
-4.1897
-4.46899
-4.66497
-4.75368
-4.74545
-4.66003
-4.51906
-4.34451
-4.15544
-3.9683
-3.79397
-3.6465
-3.53017
-3.45193
-3.41353
-3.41939
-3.46279
-3.54681
-3.66375
-3.80823
-4.21353
-4.4511
-4.58321
-4.61765
-4.56876
-4.45456
-4.29527
-4.11006
-3.91644
-3.72716
-3.55763
-3.41434
-3.30566
-3.23497
-3.20755
-3.21839
-3.27042
-3.35673
-3.47204
-3.98086
-4.24569
-4.41281
-4.48363
-4.46749
-4.37897
-4.23603
-4.05726
-3.86059
-3.66003
-3.4722
-3.30544
-3.16958
-3.06966
-3.01218
-2.99386
-3.01801
-3.07856
-3.17034
-3.77587
-4.05803
-4.25234
-4.35358
-4.36616
-4.3012
-4.17435
-4.00316
-3.8055
-3.59618
-3.39272
-3.20504
-3.0443
-2.91715
-2.83147
-2.78587
-2.78462
-2.82264
-2.895
-3.57363
-3.88656
-4.10825
-4.23714
-4.27569
-4.23236
-4.12079
-3.95734
-3.75958
-3.54285
-3.32528
-3.11808
-2.93356
-2.77979
-2.66612
-2.59318
-2.56688
-2.58368
-2.6392
-3.36987
-3.71684
-3.96804
-4.12422
-4.18759
-4.1651
-4.06876
-3.91386
-3.7175
-3.49524
-3.26563
-3.04085
-2.83408
-2.6545
-2.51271
-2.41136
-2.3588
-2.3542
-2.39469
-3.19661
-3.56441
-3.84222
-4.0244
-4.11129
-4.10856
-4.02688
-3.88064
-3.68638
-3.45972
-3.21947
-2.97849
-2.75058
-2.54551
-2.37459
-2.24182
-2.15847
-2.12822
-2.15264
-3.04562
-3.43231
-3.73405
-3.94077
-4.05017
-4.06642
-3.99905
-3.86162
-3.67012
-3.44006
-3.19039
-2.93447
-2.68655
-2.45658
-2.25568
-2.08753
-1.96515
-1.898
-1.89877
-2.91009
-3.31898
-3.64444
-3.87478
-4.00583
-4.04047
-3.98723
-3.85893
-3.67101
-3.43868
-3.18087
-2.91134
-2.6448
-2.39135
-2.16122
-1.95539
-1.78402
-1.6572
-1.60736
-2.79341
-3.22583
-3.57382
-3.82449
-3.97292
-4.02087
-3.97685
-3.85287
-3.66407
-3.42573
-3.15537
-2.86863
-2.58063
-2.30244
-2.0432
-1.80158
-1.57756
-1.36433
-1.16127
-2.70283
-3.15771
-3.53136
-3.80934
-3.98718
-4.06534
-4.05227
-3.95795
-3.79587
-3.58053
-3.32543
-3.04734
-2.76018
-2.47781
-2.2098
-1.95815
-1.7162
-1.46787
-1.18127
-2.64459
-3.11311
-3.49919
-3.79125
-3.98541
-4.08204
-4.08922
-4.01577
-3.87351
-3.67541
-3.43116
-3.15661
-2.8649
-2.57187
-2.2904
-2.03057
-1.79132
-1.56816
-1.34604
-2.6534
-3.12752
-3.51988
-3.82051
-4.02601
-4.13786
-4.16372
-4.11239
-3.99428
-3.82006
-3.59682
-3.3364
-3.04972
-2.75259
-2.46126
-2.19089
-1.94672
-1.72876
-1.52633
-2.73756
-3.20844
-3.59787
-3.89759
-4.10518
-4.2238
-4.26131
-4.22702
-4.13054
-3.98066
-3.78184
-3.54111
-3.2652
-2.96741
-2.6657
-2.38029
-2.12355
-1.90045
-1.70298
-2.89184
-3.35525
-3.73347
-4.02341
-4.22465
-4.34233
-4.38507
-4.36298
-4.28543
-4.16006
-3.98902
-3.77459
-3.51751
-3.22545
-2.91472
-2.60973
-2.3315
-2.09279
-1.8891
-3.11516
-3.5594
-3.91701
-4.18888
-4.37636
-4.48654
-4.52915
-4.51516
-4.45418
-4.35359
-4.2141
-4.03438
-3.80839
-3.5349
-3.22296
-2.89721
-2.58753
-2.31988
-2.09762
-3.40776
-3.81979
-4.14968
-4.39701
-4.56482
-4.66217
-4.7001
-4.69038
-4.64312
-4.56634
-4.46069
-4.32364
-4.14378
-3.9095
-3.61552
-3.27744
-2.92737
-2.60996
-2.34832
-3.73669
-4.12137
-4.42014
-4.63767
-4.78076
-4.86081
-4.89015
-4.88104
-4.84408
-4.78854
-4.71636
-4.62733
-4.50913
-4.34318
-4.10614
-3.79185
-3.41267
-3.02078
-2.67831
-4.12221
-4.47118
-4.73054
-4.91113
-5.02372
-5.08168
-5.09813
-5.08521
-5.05347
-5.01329
-4.96842
-4.92383
-4.87265
-4.79977
-4.67244
-4.4626
-4.13455
-3.6972
-3.17523
-4.5814
-4.88032
-5.09092
-5.22879
-5.30796
-5.34309
-5.34705
-5.33123
-5.30545
-5.28017
-5.26108
-5.25776
-5.2732
-5.30781
-5.34391
-5.36328
-5.31123
-5.15049
-4.84209
-5.10599
-5.34083
-5.48612
-5.56579
-5.59653
-5.59341
-5.56728
-5.528
-5.48325
-5.44027
-5.40473
-5.38335
-5.38222
-5.40927
-5.46892
-5.57242
-5.7121
-5.8765
-6.04184
-5.7109
-5.85175
-5.91485
-5.92721
-5.90473
-5.8611
-5.80435
-5.74279
-5.68215
-5.62675
-5.58252
-5.55192
-5.5395
-5.54863
-5.58441
-5.65139
-5.75916
-5.91623
-6.13642
-6.38858
-6.40556
-6.37749
-6.32229
-6.25036
-6.17128
-6.09006
-6.01265
-5.94284
-5.88308
-5.83785
-5.80719
-5.79307
-5.79487
-5.81256
-5.84062
-5.87782
-5.91681
-5.95367
-7.03398
-6.92347
-6.80334
-6.67986
-6.5572
-6.4401
-6.3307
-6.23204
-6.14586
-6.07291
-6.01535
-5.97208
-5.94309
-5.92658
-5.92125
-5.92272
-5.92996
-5.93909
-5.94853
-7.58301
-7.37073
-7.1728
-6.99019
-6.82305
-6.6723
-6.53762
-6.41954
-6.31809
-6.23272
-6.16394
-6.11023
-6.07068
-6.04337
-6.02683
-6.01781
-6.01519
-6.01616
-6.01918
-8.03232
-7.73475
-7.47212
-7.24058
-7.03675
-6.85825
-6.70265
-6.56842
-6.45427
-6.3587
-6.2811
-6.21981
-6.17338
-6.13992
-6.11782
-6.10445
-6.09834
-6.09716
-6.09921
-8.36161
-7.99823
-7.6859
-7.41766
-7.18689
-6.98834
-6.8178
-6.67215
-6.54914
-6.44665
-6.36333
-6.29749
-6.24732
-6.21094
-6.18652
-6.17169
-6.16448
-6.16262
-6.16411
-8.56629
-8.14604
-7.79985
-7.50971
-7.26401
-7.0548
-6.87649
-6.72502
-6.59756
-6.49168
-6.40565
-6.33779
-6.28619
-6.24898
-6.22433
-6.21012
-6.20424
-6.20453
-6.20886
-8.56634
-8.14612
-7.79995
-7.50982
-7.26413
-7.05491
-6.87661
-6.72513
-6.59767
-6.49178
-6.40575
-6.3379
-6.28629
-6.24909
-6.22443
-6.21022
-6.20434
-6.20463
-6.20895
-8.36169
-7.99841
-7.68614
-7.41794
-7.18718
-6.98864
-6.8181
-6.67245
-6.54944
-6.44695
-6.36362
-6.29777
-6.24761
-6.21123
-6.18682
-6.17201
-6.16482
-6.16299
-6.16452
-8.03245
-7.73504
-7.4725
-7.24102
-7.03721
-6.85873
-6.70313
-6.5689
-6.45475
-6.35918
-6.28157
-6.22028
-6.17385
-6.14039
-6.1183
-6.10495
-6.09885
-6.09769
-6.09978
-7.58318
-7.37109
-7.17328
-6.99074
-6.82364
-6.67291
-6.53824
-6.42016
-6.31871
-6.23333
-6.16454
-6.11082
-6.07125
-6.04392
-6.02736
-6.01833
-6.01568
-6.01664
-6.01965
-7.03416
-6.92387
-6.80388
-6.68049
-6.55788
-6.44082
-6.33144
-6.23278
-6.1466
-6.07365
-6.01607
-5.97278
-5.94376
-5.92721
-5.92183
-5.92324
-5.93042
-5.93949
-5.94886
-6.38879
-6.40599
-6.37807
-6.32297
-6.2511
-6.17207
-6.09088
-6.01349
-5.94369
-5.88393
-5.83868
-5.80799
-5.79381
-5.79553
-5.81308
-5.84096
-5.87795
-5.9167
-5.9533
-5.71112
-5.85223
-5.91554
-5.92807
-5.90574
-5.86225
-5.80563
-5.74419
-5.68368
-5.62842
-5.58434
-5.55391
-5.54165
-5.55094
-5.58681
-5.65369
-5.76101
-5.91704
-6.13528
-5.10613
-5.34094
-5.48623
-5.56589
-5.5966
-5.59344
-5.56722
-5.52783
-5.48293
-5.43974
-5.40393
-5.38216
-5.38052
-5.4069
-5.46581
-5.56862
-5.70822
-5.8738
-6.04241
-4.58148
-4.88054
-5.09128
-5.2293
-5.30864
-5.34395
-5.34808
-5.33244
-5.30684
-5.28175
-5.26288
-5.25982
-5.27564
-5.31088
-5.34807
-5.36921
-5.31983
-5.1625
-4.85799
-4.12225
-4.47122
-4.73063
-4.9113
-5.02398
-5.08204
-5.09859
-5.08576
-5.05412
-5.01406
-4.96933
-4.92496
-4.87415
-4.80185
-4.67537
-4.46654
-4.1393
-3.70204
-3.17879
-3.73672
-4.12139
-4.42019
-4.6378
-4.78099
-4.86115
-4.8906
-4.88162
-4.84479
-4.78942
-4.71745
-4.62872
-4.51092
-4.34551
-4.10903
-3.79514
-3.41597
-3.02364
-2.68058
-3.40778
-3.81978
-4.14968
-4.39708
-4.56498
-4.66244
-4.7005
-4.69092
-4.64381
-4.56723
-4.4618
-4.32505
-4.14555
-3.91164
-3.61793
-3.27991
-2.92966
-2.61192
-2.34998
-3.11517
-3.55937
-3.91699
-4.18891
-4.37648
-4.48677
-4.5295
-4.51566
-4.45484
-4.35444
-4.21518
-4.03573
-3.81001
-3.53674
-3.2249
-2.89909
-2.58923
-2.32138
-2.09897
-2.89184
-3.35521
-3.73342
-4.0234
-4.22472
-4.3425
-4.38537
-4.36343
-4.28604
-4.16087
-3.99003
-3.77582
-3.51893
-3.22699
-2.91628
-2.61121
-2.33285
-2.09403
-1.89028
-2.73757
-3.20839
-3.59781
-3.89756
-4.10522
-4.22393
-4.26157
-4.22742
-4.1311
-3.9814
-3.78275
-3.54219
-3.26642
-2.9687
-2.66697
-2.38149
-2.12468
-1.90154
-1.7041
-2.6534
-3.12747
-3.51981
-3.82047
-4.02602
-4.13797
-4.16394
-4.11275
-3.99479
-3.82072
-3.59763
-3.33734
-3.05075
-2.75365
-2.4623
-2.1919
-1.9477
-1.72977
-1.52747
-2.64459
-3.11305
-3.4991
-3.79116
-3.98536
-4.08204
-4.08929
-4.01593
-3.87377
-3.67578
-3.43161
-3.15713
-2.86545
-2.57242
-2.29091
-2.03106
-1.79183
-1.56884
-1.34716
-2.70292
-3.15777
-3.53144
-3.80944
-3.98733
-4.06556
-4.05257
-3.95835
-3.79638
-3.58115
-3.32615
-3.04815
-2.76105
-2.47873
-2.21075
-1.95911
-1.71715
-1.46878
-1.18206
-2.79351
-3.22592
-3.5739
-3.82456
-3.97295
-4.02086
-3.9768
-3.85277
-3.66392
-3.42553
-3.15512
-2.86835
-2.58031
-2.30208
-2.04281
-1.80113
-1.57705
-1.36376
-1.16062
-2.91016
-3.31905
-3.64451
-3.87485
-4.00589
-4.04052
-3.98726
-3.85895
-3.67103
-3.43868
-3.18087
-2.91133
-2.64478
-2.39133
-2.1612
-1.95537
-1.78401
-1.65723
-1.60741
-3.04568
-3.43236
-3.7341
-3.94081
-4.05019
-4.06644
-3.99906
-3.86161
-3.6701
-3.44003
-3.19035
-2.93443
-2.68651
-2.45654
-2.25565
-2.08751
-1.96515
-1.89801
-1.89879
-3.19666
-3.56446
-3.84226
-4.02443
-4.11131
-4.10857
-4.02688
-3.88063
-3.68636
-3.45969
-3.21944
-2.97846
-2.75055
-2.54549
-2.37458
-2.24181
-2.15847
-2.12822
-2.15266
-3.36991
-3.71687
-3.96807
-4.12424
-4.1876
-4.1651
-4.06876
-3.91385
-3.71749
-3.49522
-3.2656
-3.04083
-2.83406
-2.65448
-2.5127
-2.41135
-2.3588
-2.35421
-2.39469
-3.57367
-3.88659
-4.10827
-4.23715
-4.2757
-4.23237
-4.12078
-3.95733
-3.75957
-3.54283
-3.32526
-3.11807
-2.93354
-2.77978
-2.66611
-2.59318
-2.56688
-2.58368
-2.6392
-3.7759
-4.05805
-4.25236
-4.35359
-4.36617
-4.3012
-4.17434
-4.00315
-3.80549
-3.59617
-3.39271
-3.20503
-3.04429
-2.91714
-2.83147
-2.78587
-2.78462
-2.82264
-2.895
-3.98088
-4.24571
-4.41282
-4.48364
-4.46749
-4.37897
-4.23602
-4.05726
-3.86059
-3.66002
-3.47219
-3.30543
-3.16957
-3.06966
-3.01218
-2.99385
-3.01801
-3.07855
-3.17033
-4.21355
-4.45112
-4.58321
-4.61765
-4.56876
-4.45455
-4.29526
-4.11005
-3.91643
-3.72715
-3.55763
-3.41434
-3.30566
-3.23496
-3.20755
-3.21839
-3.27042
-3.35673
-3.47203
-4.469
-4.66498
-4.75369
-4.74546
-4.66003
-4.51906
-4.34451
-4.15544
-3.96829
-3.79397
-3.64649
-3.53016
-3.45193
-3.41352
-3.41939
-3.46279
-3.5468
-3.66374
-3.80823
-4.72948
-4.88029
-4.91755
-4.85999
-4.735
-4.56767
-4.38056
-4.19169
-4.01562
-3.86082
-3.7399
-3.65469
-3.61093
-3.60878
-3.65226
-3.73286
-3.85442
-4.00847
-4.1897
-5.00785
-5.10083
-5.0721
-4.95742
-4.79111
-4.59969
-4.40445
-4.22116
-4.06176
-3.93173
-3.84252
-3.79321
-3.78864
-3.82757
-3.91407
-4.03772
-4.20386
-4.40328
-4.63113
-5.31587
-5.30927
-5.19809
-5.02209
-4.81679
-4.60739
-4.41139
-4.2414
-4.10604
-4.00738
-3.95634
-3.9489
-3.98958
-4.07585
-4.21258
-4.38704
-4.60726
-4.86324
-5.15132
-5.56517
-5.44669
-5.25161
-5.01976
-4.78523
-4.56989
-4.38493
-4.23924
-4.13777
-4.07899
-4.07435
-4.11647
-4.21039
-4.35252
-4.54959
-4.78619
-5.0747
-5.4045
-5.77413
-5.76526
-5.53801
-5.25773
-4.97708
-4.72477
-4.5159
-4.35295
-4.24112
-4.18186
-4.17019
-4.2194
-4.3185
-4.4739
-4.68124
-4.95022
-5.26223
-5.63609
-6.06098
-6.54015
-5.92269
-5.54524
-5.18162
-4.86985
-4.6193
-4.43441
-4.3075
-4.24123
-4.23429
-4.2787
-4.39132
-4.55721
-4.78538
-5.07095
-5.42829
-5.83482
-6.31898
-6.87055
-7.50248
-5.9
-5.3837
-4.97325
-4.66608
-4.4449
-4.30506
-4.22977
-4.22172
-4.27813
-4.38869
-4.57594
-4.82075
-5.13633
-5.5179
-5.98705
-6.51668
-7.1499
-7.87915
-8.73819
-5.65505
-5.07552
-4.67264
-4.40647
-4.23782
-4.15862
-4.14592
-4.20524
-4.33378
-4.51966
-4.79319
-5.13102
-5.55236
-6.05345
-6.66633
-7.35917
-8.19681
-9.17868
-10.387
-5.13902
-4.59751
-4.26419
-4.07487
-3.9798
-3.97472
-4.03434
-4.16951
-4.37899
-4.6504
-5.02389
-5.47256
-6.0241
-6.67766
-7.48081
-8.3984
-9.52873
-10.8878
-12.6785
-4.35442
-3.97113
-3.76252
-3.67616
-3.66825
-3.74516
-3.88285
-4.09934
-4.39648
-4.76281
-5.25058
-5.83108
-6.54399
-7.39514
-8.45595
-9.69293
-11.2584
-13.2049
-16.0577
-3.36793
-3.2317
-3.18033
-3.20918
-3.29361
-3.45429
-3.67102
-3.96989
-4.35742
-4.82494
-5.43953
-6.17392
-7.08541
-8.19387
-9.60929
-11.3132
-13.5511
-16.456
-21.4527
-2.3002
-2.42458
-2.53146
-2.67291
-2.84652
-3.08635
-3.37705
-3.75274
-4.22595
-4.79328
-5.53991
-6.44523
-7.59305
-9.03159
-10.9367
-13.3371
-16.6535
-21.1974
-30.9669
-1.28358
-1.59687
-1.8317
-2.07013
-2.3227
-2.63117
-2.98388
-3.42195
-3.96429
-4.61566
-5.48296
-6.55805
-7.96474
-9.80668
-12.3756
-15.8245
-20.9295
-28.4217
-49.6859
-0.420608
-0.786152
-1.09618
-1.40814
-1.72551
-2.08839
-2.48451
-2.96094
-3.53973
-4.2373
-5.18524
-6.38828
-8.03343
-10.3478
-13.9023
-19.4064
-29.1919
-47.2082
-111.524
)
;

boundaryField
{
    up
    {
        type            calculated;
        value           nonuniform List<scalar> 
84
(
-101.06
-54.7331
-33.6112
-22.983
-17.0263
-13.3356
-10.8561
-9.08614
-7.76676
-6.74606
-5.9366
-5.28076
-4.73596
-4.2752
-3.87842
-3.53009
-3.21866
-2.93545
-2.67319
-2.42366
-2.17733
-1.91702
-1.59771
-1.04737
-1.01903
-1.27994
-1.4675
-1.6445
-1.82748
-2.02914
-2.26454
-2.55154
-2.97948
-4.85284
-6.26036
-6.26709
-5.96135
-5.949
-6.01871
-6.09961
-6.16503
-6.21182
-6.21191
-6.16546
-6.1002
-6.01918
-5.94932
-5.96092
-6.26439
-6.26109
-4.87167
-2.98275
-2.55353
-2.26611
-2.03046
-1.82866
-1.64563
-1.46869
-1.28155
-1.02013
-1.04671
-1.59777
-1.91704
-2.17734
-2.42367
-2.6732
-2.93545
-3.21866
-3.53009
-3.87842
-4.2752
-4.73596
-5.28076
-5.9366
-6.74606
-7.76677
-9.08614
-10.8561
-13.3356
-17.0263
-22.983
-33.6112
-54.7331
-101.06
)
;
    }
    low
    {
        type            calculated;
        value           nonuniform List<scalar> 
84
(
-0.450471
-1.33786
-2.41935
-3.5706
-4.63696
-5.47588
-6.00526
-6.22676
-6.18262
-5.93809
-5.69089
-5.39575
-5.02617
-4.71343
-4.43314
-4.1518
-3.89725
-3.68644
-3.47227
-3.24033
-3.0461
-2.87958
-2.72464
-2.58949
-2.46494
-2.39202
-2.40283
-2.50942
-2.69264
-2.95363
-3.27948
-3.63027
-4.04326
-4.5368
-5.09118
-5.7382
-6.47736
-7.16577
-7.74425
-8.21955
-8.56994
-8.80039
-8.80042
-8.56998
-8.21962
-7.74435
-7.16587
-6.47748
-5.73833
-5.09117
-4.53688
-4.04325
-3.63028
-3.27949
-2.95364
-2.69265
-2.50944
-2.40287
-2.39207
-2.46501
-2.58961
-2.72469
-2.87964
-3.04615
-3.24037
-3.4723
-3.68647
-3.89727
-4.15182
-4.43315
-4.71343
-5.02617
-5.39575
-5.69088
-5.93809
-6.18262
-6.22677
-6.00529
-5.4759
-4.63698
-3.57063
-2.41936
-1.33786
-0.450473
)
;
    }
    left
    {
        type            calculated;
        value           nonuniform List<scalar> 
19
(
-0.412444
-0.771017
-1.08643
-1.40762
-1.73682
-2.11325
-2.52588
-3.02443
-3.63214
-4.37325
-5.38607
-6.68213
-8.47407
-11.034
-15.0029
-21.2501
-32.4909
-53.4368
-104.825
)
;
    }
    right
    {
        type            calculated;
        value           nonuniform List<scalar> 
19
(
-0.412446
-0.771018
-1.08644
-1.40763
-1.73682
-2.11325
-2.52588
-3.02443
-3.63214
-4.37325
-5.38607
-6.68212
-8.47407
-11.034
-15.0029
-21.2501
-32.4909
-53.4368
-104.825
)
;
    }
    frontAndBackPlanes
    {
        type            empty;
    }
}


// ************************************************************************* //
