/*--------------------------------*- C++ -*----------------------------------*\
  =========                 |
  \\      /  F ield         | OpenFOAM: The Open Source CFD Toolbox
   \\    /   O peration     | Website:  https://openfoam.org
    \\  /    A nd           | Version:  7
     \\/     M anipulation  |
\*---------------------------------------------------------------------------*/
FoamFile
{
    version     2.0;
    format      ascii;
    class       volScalarField;
    location    "0.1";
    object      gradTz;
}
// * * * * * * * * * * * * * * * * * * * * * * * * * * * * * * * * * * * * * //

dimensions      [0 -1 0 1 0 0 0];

internalField   nonuniform List<scalar> 
1596
(
-3.22652e-16
-1.53963e-16
1.59662e-16
6.38429e-18
-2.95904e-16
0
-1.33226e-16
-1.31448e-16
-1.30294e-17
-7.15397e-17
-3.73334e-19
-7.19386e-17
3.22636e-16
-7.20429e-17
3.34683e-16
2.90313e-16
1.73102e-16
2.19815e-16
0
3.19037e-16
0
4.29396e-16
-5.16836e-18
-1.23698e-16
1.2199e-16
2.62722e-16
1.26604e-17
1.22285e-16
-5.9842e-17
1.20096e-16
-1.06454e-18
-1.67622e-16
-1.05866e-16
-2.70141e-16
-2.65165e-16
-2.42305e-16
1.38758e-16
0
-1.5191e-16
0
-2.70478e-16
8.10251e-18
2.31036e-16
-7.28695e-17
9.4236e-18
-1.51003e-18
-1.19524e-18
-1.03644e-18
3.85693e-17
0
8.68345e-17
2.42869e-16
-2.41964e-17
2.02772e-17
4.72428e-17
7.66481e-17
0
2.44556e-16
-6.71059e-17
6.68608e-17
0
-6.20359e-17
-6.62405e-17
1.00571e-16
-7.88546e-17
0
0
-3.97146e-17
2.02539e-17
0
-6.96749e-17
-8.49616e-17
6.08069e-17
-6.78268e-17
-3.45515e-18
0
4.33998e-17
1.04858e-16
-8.58015e-17
0
-2.25225e-17
-7.01733e-17
0
9.90887e-17
-9.38372e-18
-8.52664e-18
-1.65557e-17
4.84602e-17
6.31251e-17
7.34935e-18
8.48509e-18
-6.5687e-17
3.24812e-18
3.08263e-17
-1.39084e-17
-1.12702e-17
-1.42694e-16
1.26096e-16
-1.00038e-16
-3.91826e-19
-7.55662e-17
2.03451e-18
-2.04126e-18
-5.19873e-17
0
-1.33536e-17
-5.80107e-17
-5.67539e-17
4.24848e-17
5.28434e-17
-6.9725e-19
-3.18054e-17
-3.12667e-17
2.44191e-17
9.41873e-17
-1.44441e-16
1.47431e-16
7.57959e-17
0
5.89731e-17
3.09793e-17
-1.44044e-17
6.51168e-17
-1.156e-17
-5.23844e-17
2.84546e-19
-2.85459e-17
-4.26234e-17
-3.05674e-17
2.79964e-17
3.20854e-17
-4.42475e-19
-9.88929e-18
1.52378e-17
2.32828e-16
-2.4812e-16
0
0
-6.69036e-17
0
0
0
3.34223e-17
0
0
2.68686e-17
5.27244e-19
1.16166e-17
-2.48975e-17
0
1.32425e-17
5.75382e-18
0
-1.43961e-16
2.70478e-16
0
0
6.89014e-17
0
-2.01811e-17
2.01607e-17
-3.40191e-17
1.28385e-17
-1.29324e-17
0
1.83255e-17
2.29462e-17
0
-1.31189e-17
-1.35062e-17
-5.11257e-18
3.89357e-16
-1.76417e-16
0
-9.5561e-17
9.44915e-17
0
5.16748e-17
0
0
0
1.04078e-17
-1.04577e-17
0
-1.44343e-17
-3.76574e-18
0
3.48822e-18
6.8405e-18
0
-9.89659e-17
0
0
9.67128e-17
-1.71178e-16
1.62013e-17
6.6068e-18
-1.74627e-17
3.81008e-18
1.3497e-18
-1.06902e-17
-1.44697e-17
0
1.03152e-17
-2.40972e-18
2.44589e-18
8.28972e-18
-5.55369e-18
-2.31202e-18
7.08243e-17
-1.42435e-17
6.86714e-17
2.08615e-16
-2.02787e-17
-7.57738e-17
0
0
0
2.26463e-17
7.45243e-18
2.50792e-17
-5.93707e-18
-1.01306e-17
-4.94528e-18
-3.21692e-18
1.48875e-18
-3.44368e-18
2.15597e-18
-8.56242e-17
8.44506e-17
-1.49495e-16
-2.06746e-16
1.81938e-16
5.80666e-17
-1.00747e-16
7.52873e-17
-5.57411e-17
1.48018e-17
8.71939e-18
-7.05592e-18
3.08302e-18
-3.09414e-18
9.62154e-18
0
-7.76441e-19
6.18059e-18
-9.44587e-19
-5.90482e-16
2.60479e-16
1.61705e-19
-4.26909e-17
1.09024e-17
5.6639e-17
-1.03801e-16
-3.53023e-17
2.55626e-17
-1.82551e-17
-1.30566e-17
0
-1.14302e-17
-3.1646e-18
-4.77238e-18
-2.72445e-18
2.07459e-19
-3.12098e-18
2.74695e-19
9.64609e-17
-8.05384e-17
-3.1764e-20
-5.24739e-17
-1.1337e-16
1.02651e-16
5.70359e-19
3.44021e-17
-2.48886e-17
3.47645e-17
7.44976e-18
5.21499e-18
1.24087e-17
0
8.1493e-18
3.60428e-18
0
1.46529e-18
1.81588e-19
0
7.81316e-17
5.1608e-17
-1.1311e-16
1.09398e-16
-1.51587e-16
9.66084e-17
2.78001e-17
-7.8233e-18
-3.58852e-17
4.72414e-18
-4.70083e-18
-1.06792e-17
3.45956e-18
-1.7871e-18
-3.25109e-18
1.17681e-18
-7.43595e-19
4.07796e-19
-8.96143e-17
2.73991e-16
-2.07078e-16
9.61056e-17
0
0
-1.55985e-17
3.57169e-17
-1.80962e-17
3.21707e-17
0
0
6.77785e-18
-5.25255e-18
-2.84468e-18
8.92856e-19
-9.35589e-19
5.14638e-19
0
1.27085e-17
8.3919e-17
-5.8049e-17
-4.67075e-17
-6.22729e-17
-1.11568e-17
2.58667e-17
0
-1.64794e-17
-1.0335e-17
8.63022e-18
-5.69874e-18
3.72929e-18
0
1.17272e-18
1.75504e-18
0
0
0
-1.24308e-17
1.13131e-16
3.24306e-17
-1.42142e-16
3.30504e-17
2.53367e-17
0
0
1.4927e-17
-8.07097e-18
-8.3473e-18
5.51172e-18
-3.6065e-18
0
-5.75202e-19
3.95734e-19
0
-2.94246e-19
-1.04685e-19
-6.6339e-17
1.95073e-16
-2.20732e-16
-7.26668e-17
4.00072e-17
-2.26482e-17
1.61657e-17
0
-7.62762e-18
5.52368e-18
0
0
1.15941e-18
-1.16075e-18
2.29837e-19
-3.80392e-19
3.92748e-19
8.51162e-20
8.00954e-20
3.6861e-17
-3.05836e-17
1.37293e-16
-8.67999e-17
-2.84989e-17
5.97306e-18
3.51217e-17
1.00274e-17
7.29849e-18
0
2.42537e-18
-2.19304e-18
1.39204e-18
-9.53802e-19
8.18127e-19
-1.22579e-18
-3.00051e-19
2.44986e-19
5.587e-20
9.34185e-17
-9.73783e-17
0
6.28767e-17
-3.50323e-17
-1.97758e-17
8.91172e-18
-3.22944e-17
0
-5.1044e-19
-3.22568e-18
-1.68926e-18
1.81662e-18
-2.43283e-19
-7.90706e-19
4.79588e-19
0
1.17324e-19
-5.42493e-20
1.73214e-16
-2.72602e-17
9.90937e-17
-7.66699e-17
3.04085e-17
-3.5658e-18
-2.98803e-17
-6.78038e-18
1.11132e-17
-7.51597e-19
-3.64301e-18
2.7059e-18
-1.02274e-18
-9.18625e-19
0
0
0
-1.18083e-19
4.04217e-21
-1.45014e-16
1.38754e-16
5.27005e-20
1.5852e-17
1.17075e-17
-2.21227e-17
2.29483e-17
-1.51996e-17
1.06401e-17
-2.31097e-18
4.20411e-18
1.02423e-18
-3.57767e-19
2.03984e-20
-5.6519e-20
-1.08699e-19
0
0
0
0
0
5.36758e-17
-3.4721e-17
-7.07868e-17
0
0
-4.29444e-18
-5.40737e-18
3.55352e-18
0
-1.29174e-18
7.7511e-19
-1.87945e-18
2.0308e-18
-4.696e-19
4.96131e-19
4.5382e-20
0
-2.79743e-17
2.83186e-17
0
-1.71704e-17
1.67595e-17
2.24932e-17
0
4.33545e-18
3.38052e-18
-1.73197e-17
0
-1.53071e-18
9.27358e-19
4.9114e-19
-2.91555e-19
3.61392e-19
0
-1.0204e-19
0
-1.44214e-17
-1.31372e-17
7.7495e-19
1.76421e-17
-4.08084e-17
0
-7.40994e-18
0
1.3236e-17
4.0617e-18
0
6.0159e-18
-5.29451e-18
7.20855e-19
-5.10958e-19
3.47118e-19
6.90502e-19
2.06385e-19
-1.63679e-19
0
2.85964e-17
-2.1441e-17
2.59996e-17
2.55362e-17
0
1.45935e-17
-1.27839e-17
-7.28909e-18
8.11867e-18
-1.18909e-17
-4.12521e-18
0
0
4.17846e-19
0
0
7.97155e-20
0
-1.32659e-16
1.03074e-16
0
2.58567e-18
-1.41117e-17
-6.73347e-19
1.01868e-17
4.92209e-18
-7.71357e-18
-1.26423e-17
1.53623e-17
-4.3375e-18
0
-1.1319e-18
0
0
0
-3.12708e-19
2.51281e-19
-3.89204e-17
3.38405e-17
8.01934e-17
-7.53349e-17
2.07603e-17
1.91298e-18
-1.03018e-17
7.41168e-18
1.03839e-17
6.2398e-18
-1.20729e-17
0
3.47218e-18
-2.85801e-19
-1.29337e-18
-1.9925e-18
1.5533e-18
-1.56873e-19
3.38147e-19
-1.36815e-16
1.71506e-16
-1.67005e-16
2.58847e-17
1.88497e-17
-1.68192e-17
1.29763e-17
-8.24346e-18
0
-5.12199e-18
6.08591e-18
2.55043e-18
3.48427e-18
3.08373e-18
-4.36493e-18
-2.54056e-19
0
-1.61516e-19
5.58549e-20
-1.4785e-16
-3.96655e-17
-6.17572e-17
3.45313e-17
-4.6006e-17
3.49519e-17
-1.95251e-17
1.35566e-17
-1.71428e-18
-1.59118e-18
-7.26569e-18
4.77586e-18
-1.32439e-18
4.61416e-18
-4.95335e-18
2.50293e-19
4.07723e-19
0
-1.07294e-19
1.59858e-16
-4.32341e-17
0
0
-4.72073e-17
8.82539e-17
-1.89292e-17
-2.84387e-18
2.1051e-17
-6.92745e-19
0
0
-2.71905e-18
0
-4.74191e-18
1.04637e-17
-6.91375e-18
0
5.07639e-20
5.28914e-17
9.32484e-17
0
-3.4749e-17
-2.38783e-17
-1.76568e-17
-1.99797e-17
6.88598e-18
-1.79236e-17
-8.10883e-18
0
0
4.95437e-18
0
0
-7.21116e-18
1.2157e-17
0
0
3.6345e-16
-5.16532e-17
-2.01949e-16
-9.52141e-17
1.30424e-16
3.63847e-17
1.93728e-17
0
-5.73227e-18
4.77534e-18
1.19335e-17
-3.63101e-18
-4.3475e-18
6.40896e-18
-6.81717e-18
-1.70202e-18
0
0
0
2.91009e-17
-2.13307e-16
2.07756e-16
-1.82582e-17
-1.27028e-16
1.90991e-16
-9.1812e-17
0
0
3.49918e-17
-2.76543e-17
0
-6.53647e-18
1.17368e-17
-1.04011e-18
3.10316e-18
8.83149e-19
1.4633e-20
1.77327e-19
0
0
0
1.5648e-16
-1.05762e-16
9.53497e-17
-1.45191e-16
3.91933e-17
0
-1.15036e-17
1.64844e-17
-1.6848e-17
-2.85657e-18
1.45195e-19
-1.73557e-18
-1.96664e-19
-1.37323e-18
-3.99083e-19
-2.09439e-19
2.39129e-16
-4.16121e-16
1.92175e-16
0
4.28053e-17
-5.88785e-17
5.15252e-17
-4.06695e-17
0
-1.58555e-17
2.23295e-17
0
0
1.34644e-19
0
-2.00542e-18
1.34739e-18
1.91294e-19
3.41928e-19
2.42428e-16
0
-8.36983e-17
9.32266e-17
-5.18258e-17
1.10463e-16
-5.04257e-17
-3.44469e-17
3.48067e-17
-3.2316e-18
0
0
1.75464e-18
-2.69933e-18
-1.85975e-18
3.46821e-18
-7.45724e-19
3.57593e-19
0
1.37306e-16
9.86144e-17
-7.91297e-18
-8.93855e-17
-8.26691e-18
-5.47727e-17
8.75177e-18
4.3081e-17
-2.03051e-18
3.29228e-18
0
0
-1.79751e-18
0
1.99112e-18
-2.13003e-18
0
2.6636e-19
-7.26632e-20
-7.2807e-17
-4.95696e-17
4.64989e-17
-4.91345e-18
-2.08999e-18
5.30502e-18
0
-1.24318e-18
1.70205e-17
-1.43229e-17
0
4.13299e-18
-9.48555e-19
-3.50502e-18
-3.08094e-19
-2.35541e-19
0
-2.09271e-19
0
2.86648e-17
-5.33974e-17
4.55417e-19
2.13545e-17
1.7567e-17
-1.73386e-17
-1.0938e-17
1.23345e-17
-3.76771e-18
2.97917e-18
-2.57095e-18
2.65025e-18
0
6.10952e-21
-2.26778e-19
8.1106e-19
-2.72795e-21
0
0
2.86658e-17
-2.85583e-17
-2.12406e-17
1.88888e-17
3.09371e-17
-3.11197e-17
-5.46927e-18
5.48357e-18
-3.80054e-18
3.83999e-18
-2.57112e-18
4.75351e-18
-1.33353e-18
-9.00519e-19
-2.61858e-19
9.00051e-20
2.04007e-19
5.32192e-20
-3.98433e-20
0
-6.64504e-18
3.68185e-17
-4.01186e-17
3.07922e-17
-2.74228e-17
0
1.80702e-17
-1.62489e-17
0
5.06442e-18
-6.3668e-18
-3.34506e-18
3.50584e-18
6.0527e-19
0
0
-2.09356e-19
7.57109e-20
1.13935e-16
-2.05402e-16
1.99773e-16
-1.66413e-16
6.38493e-17
-4.78076e-17
4.56606e-17
4.85022e-18
-1.66632e-17
1.48242e-17
0
-9.0706e-18
8.28552e-18
-1.4446e-18
-5.92861e-19
8.74289e-19
6.31687e-19
2.03244e-19
-7.31539e-20
2.72675e-16
0
-9.49972e-17
7.39757e-17
8.17228e-18
-5.71852e-17
9.79304e-17
-8.12597e-17
3.09414e-17
-1.15132e-17
1.17848e-17
2.1656e-18
3.38441e-18
1.40706e-18
-1.0674e-18
-1.68556e-19
-1.35548e-18
0
1.27472e-19
2.09288e-16
-2.35614e-16
0
1.90057e-17
7.48129e-17
-7.22768e-17
1.10679e-17
9.09566e-18
3.79233e-18
6.00996e-18
0
0
-5.79294e-18
1.02932e-17
-3.65483e-18
-1.23162e-18
1.34842e-18
1.04237e-19
-2.38416e-19
3.01222e-17
2.07313e-16
-2.20373e-17
-1.37834e-16
1.21483e-16
1.31182e-17
-1.0832e-17
-8.88376e-18
2.57157e-17
-3.17632e-17
1.64953e-17
-1.6859e-17
2.13347e-18
-3.11322e-18
4.78773e-18
-3.23011e-18
0
0
1.94414e-19
0
5.04379e-17
-1.38362e-16
1.58897e-16
-1.11819e-16
1.11553e-16
0
3.02221e-17
-3.03606e-17
-1.9171e-17
2.76865e-17
0
9.28702e-18
-1.1752e-17
-1.6546e-18
0
-1.58116e-19
-2.60807e-19
-3.55375e-20
-5.03433e-16
2.33347e-16
0
-1.30421e-16
1.30408e-16
6.84147e-17
-4.46066e-17
1.5464e-17
0
-5.62613e-19
3.11869e-18
-3.62848e-18
-4.34524e-18
6.40541e-18
-6.81107e-18
0
1.11899e-18
-1.36039e-19
-1.64601e-19
3.03954e-16
-2.93503e-16
0
3.40802e-17
2.83686e-17
-2.43876e-17
0
-1.62064e-17
-1.1647e-17
0
-1.23516e-18
0
4.96051e-18
0
0
1.41985e-18
5.0397e-18
-6.70874e-18
0
-2.14038e-20
4.32572e-17
-3.6871e-17
2.50798e-17
-1.30027e-16
4.71136e-17
0
2.8473e-18
7.78517e-18
0
-6.31504e-18
1.42685e-17
-1.49899e-17
1.89981e-18
0
-4.50034e-19
0
0
0
-7.07264e-21
0
3.40781e-17
0
-4.1007e-17
4.16589e-17
0
1.03963e-17
-6.97848e-18
2.28554e-17
-1.0498e-17
2.78005e-18
-3.80835e-18
2.90389e-18
-4.96641e-18
-7.2185e-19
0
-2.49732e-19
0
1.14727e-16
-1.94888e-16
0
-2.54316e-17
2.02819e-17
0
0
-1.83564e-17
0
-5.12923e-18
-6.09561e-18
-2.55512e-18
3.49165e-18
0
1.0728e-18
0
0
4.9571e-19
-4.93178e-19
0
1.58159e-16
-1.25473e-16
2.35439e-17
-1.87811e-17
-6.17095e-18
1.65811e-17
1.55243e-17
-1.49753e-17
4.68874e-18
8.92525e-19
-2.37214e-18
9.18491e-18
-2.74013e-18
-4.53927e-18
1.36192e-18
-2.36005e-19
1.45832e-19
-3.15596e-20
-2.84233e-16
1.03167e-16
0
0
7.21057e-18
-7.33234e-18
3.31731e-18
9.48313e-19
1.26275e-17
4.9796e-18
-4.50142e-18
-4.82977e-19
-1.48567e-18
1.13448e-18
0
3.1299e-19
2.16316e-19
8.64814e-20
2.85254e-20
0
8.34531e-17
-7.17241e-17
2.17661e-17
1.79389e-17
-3.29289e-18
-8.31984e-18
-5.87395e-18
-1.53522e-17
4.76016e-18
-1.68173e-18
3.14294e-18
1.38928e-18
-1.17574e-18
1.24797e-18
4.95673e-19
-7.14841e-19
-7.98784e-20
0
-1.66694e-17
-6.76549e-17
2.16988e-17
1.76485e-17
-5.09547e-17
3.39278e-17
1.2013e-17
-1.22791e-17
6.92093e-18
-4.51763e-18
0
0
-1.59337e-18
2.61731e-18
-1.00455e-18
6.40835e-19
-7.08036e-19
9.25068e-20
-1.63933e-19
3.02861e-17
2.61246e-17
-2.12616e-17
1.2459e-17
-1.70038e-17
-1.88165e-17
0
0
0
0
0
0
8.26072e-19
-1.60922e-18
1.70193e-18
-3.73661e-19
4.75557e-19
1.80148e-19
-1.50128e-19
6.46124e-17
-9.33131e-17
1.15534e-16
-4.09612e-17
5.8173e-17
-2.97759e-17
5.1038e-17
-2.50651e-17
-8.70858e-18
8.90848e-18
0
1.29106e-18
-8.0703e-19
1.40083e-18
-6.55297e-19
-5.62615e-19
-8.32701e-19
7.29647e-20
1.23918e-19
1.01574e-16
2.57871e-17
0
-3.16827e-17
-1.97834e-17
4.1671e-17
1.2487e-18
-1.15131e-17
5.96883e-18
-3.06456e-18
0
-1.02202e-18
0
-5.31048e-19
3.68658e-19
-2.65898e-19
-8.03099e-20
4.41457e-20
0
1.40447e-16
-2.72597e-17
9.91926e-17
-7.68723e-17
-1.25709e-17
3.91693e-17
-2.32411e-17
1.74959e-18
1.14026e-18
-3.13368e-18
2.73528e-18
0
0
7.3867e-19
-1.62457e-19
7.95399e-20
2.87182e-19
-9.6644e-20
0
1.47155e-20
0
-2.30555e-17
1.1676e-16
-7.6052e-17
-6.23574e-17
3.35067e-17
-2.43134e-17
2.11532e-17
7.92558e-18
-4.71805e-18
1.59992e-18
-1.25942e-18
2.96817e-19
1.25995e-18
-2.20891e-20
-3.03166e-19
2.80445e-19
-5.9967e-20
3.30933e-16
-1.03044e-16
3.8606e-17
-1.2481e-16
2.84988e-17
-3.71512e-17
2.12956e-17
0
0
-5.80063e-19
-9.7942e-19
-2.63874e-19
0
-1.3352e-18
-8.18137e-19
4.95563e-19
-3.203e-20
8.25953e-20
1.30033e-19
0
-9.75466e-17
1.46088e-16
2.1429e-17
-1.0307e-16
2.26482e-17
-2.82958e-17
8.38078e-18
1.94179e-17
0
0
2.7176e-19
1.82686e-18
0
-1.0186e-18
-3.73479e-19
5.96567e-20
-1.33238e-19
-1.77712e-19
0
-5.67356e-17
2.2791e-17
9.87723e-17
5.7983e-17
-1.0126e-16
4.27039e-17
-2.17883e-17
1.24016e-17
-1.24438e-17
0
0
0
-2.34955e-18
3.30972e-19
-5.78048e-19
0
-2.77412e-20
1.32921e-19
-2.44448e-16
2.26672e-16
2.08917e-16
-2.50901e-16
9.72347e-17
-8.83534e-17
0
2.3777e-17
-3.05334e-17
1.53942e-17
-9.36155e-18
6.28268e-18
4.19223e-18
2.42995e-18
1.59271e-18
0
0
0
0
2.81657e-16
-1.49487e-16
0
0
-3.76739e-17
7.76224e-17
-4.88265e-17
-2.58481e-17
2.55567e-17
1.4288e-17
2.01476e-17
-6.51888e-18
2.4289e-18
1.41407e-18
8.88331e-19
7.35092e-19
1.13272e-18
-5.18353e-20
5.27989e-20
-2.80501e-16
2.47474e-16
1.15231e-16
-6.22956e-17
1.09032e-16
-6.88218e-17
-4.48499e-17
-3.26992e-17
0
-3.01185e-17
2.75742e-18
8.04331e-18
-5.0432e-18
-3.4597e-18
-1.11893e-18
-9.61444e-19
-7.74637e-19
0
0
-9.64812e-17
0
6.56094e-17
9.04594e-20
0
0
4.62641e-17
3.3741e-17
0
1.70059e-17
0
-1.20156e-17
-2.88326e-18
4.86461e-18
0
2.84236e-18
-3.76154e-19
3.83727e-19
0
2.10883e-16
0
1.21483e-16
-2.16009e-16
1.78329e-16
1.20956e-16
-7.4203e-18
0
3.90984e-18
2.21155e-17
0
-1.45774e-17
1.4182e-17
-1.18299e-17
-2.43276e-18
-2.21438e-18
-7.44144e-19
-1.54782e-19
-7.48078e-19
-1.85934e-16
2.65054e-16
-6.82874e-17
-1.63403e-16
-8.55915e-17
-6.58197e-17
-9.92755e-17
-3.22666e-17
5.00577e-18
8.73585e-18
-8.71944e-18
2.26518e-17
-9.49474e-18
1.70701e-17
-3.13274e-18
0
4.41974e-18
-2.92537e-18
7.104e-19
4.33691e-16
-1.40632e-17
-2.86805e-16
2.08616e-16
-1.73564e-16
1.3472e-16
-7.58159e-18
-3.8782e-17
2.95544e-17
9.60033e-18
-2.1453e-18
-1.97587e-17
4.89976e-18
7.05317e-18
-1.74404e-18
1.76393e-18
-4.57777e-18
-1.49956e-18
-1.81062e-18
2.12904e-16
8.25012e-17
1.34515e-16
-1.07113e-16
-7.57587e-17
8.64208e-18
-4.53267e-17
1.06601e-16
5.73972e-18
3.86097e-17
2.0618e-17
-1.73885e-17
0
-1.03155e-17
0
0
9.90922e-18
3.92897e-18
2.06051e-18
1.94105e-16
0
1.31023e-16
1.06421e-16
-8.44415e-17
6.63084e-17
0
-4.03289e-17
-5.15736e-17
-4.01726e-17
-2.08005e-17
1.75852e-17
0
0
0
0
-9.34564e-18
-9.38424e-18
0
-3.79904e-16
0
-1.22635e-17
-1.1179e-17
1.30499e-16
-6.16865e-17
-2.592e-17
-2.63732e-17
5.39184e-17
0
1.28385e-17
-1.28049e-18
1.41766e-17
0
0
2.07962e-17
-1.60528e-18
1.13065e-17
-5.61778e-18
2.63549e-16
6.88064e-17
-6.80962e-17
-5.48404e-17
-1.65979e-16
1.04719e-16
1.14673e-16
-6.05331e-18
-3.85454e-17
4.07435e-17
7.98505e-18
-4.36348e-17
-3.28267e-17
-2.52308e-17
-2.76959e-17
-2.40935e-17
2.5196e-17
-1.144e-18
5.75379e-18
-7.87928e-17
3.32573e-17
-1.55376e-16
2.31734e-17
-2.30891e-17
0
-5.8187e-17
-8.68923e-18
-5.3604e-17
9.94675e-18
5.23839e-17
3.46558e-17
-9.52561e-18
-1.41555e-18
2.60114e-17
0
-5.62302e-17
-2.31996e-17
-4.6787e-19
1.66579e-16
-4.07592e-18
2.44336e-16
-1.09312e-16
3.91825e-19
2.58147e-18
7.46131e-17
-1.17082e-17
5.19871e-17
-4.83655e-17
-4.60775e-17
0
5.67531e-17
4.1767e-17
6.73345e-19
-9.95072e-19
3.21184e-17
2.35678e-17
0
-1.16967e-16
0
-2.10786e-17
1.05969e-16
2.65368e-18
2.25526e-17
-7.21497e-17
6.64303e-17
7.79835e-17
7.55388e-17
7.41587e-17
0
-5.51345e-17
0
3.46128e-18
-3.59484e-18
0
-3.86129e-19
1.98003e-17
8.50779e-17
7.76221e-18
-5.54353e-17
1.76089e-16
-5.47669e-17
0
0
-9.68674e-17
-7.55581e-17
-7.31802e-17
-1.43459e-16
-2.02537e-17
0
0
0
-7.8875e-18
8.34695e-18
5.63775e-17
-2.01166e-17
8.25868e-18
0
-1.30051e-16
-1.10446e-16
1.2117e-16
-1.21289e-16
-1.70236e-16
1.98292e-16
6.16619e-17
0
8.87342e-17
1.11226e-16
-2.39499e-17
1.3424e-16
-2.22734e-17
2.31812e-17
9.36272e-17
-5.35801e-17
0
-1.60983e-16
0
-1.4997e-16
1.45316e-16
0
2.45491e-16
1.12295e-16
-2.45974e-16
2.06257e-16
-7.47297e-19
-6.04547e-17
-1.07689e-16
0
1.64049e-16
-2.70141e-16
2.91578e-16
-3.71994e-16
0
0
1.61237e-16
-1.97748e-18
-4.79838e-18
-2.991e-16
3.05698e-16
-1.45244e-16
1.44652e-16
1.42704e-16
-1.17894e-16
0
0
2.4577e-16
-2.50004e-16
-2.60421e-16
2.6014e-16
-2.54986e-16
2.77102e-16
-4.35426e-16
0
)
;

boundaryField
{
    up
    {
        type            calculated;
        value           nonuniform List<scalar> 
84
(
0
0
0
0
-1.39084e-17
2.44191e-17
-9.88929e-18
5.75382e-18
-5.11257e-18
0
-2.31202e-18
2.15597e-18
-9.44587e-19
2.74695e-19
1.81588e-19
4.07796e-19
0
0
-1.04685e-19
8.00954e-20
5.587e-20
-5.42493e-20
4.04217e-21
0
1.96337e-20
1.28596e-20
-1.48833e-19
0
2.51281e-19
3.79468e-19
5.58549e-20
-1.07294e-19
5.07639e-20
0
-7.01867e-21
1.77589e-19
-2.05129e-19
3.38269e-19
0
-7.16355e-20
0
0
-3.9714e-20
7.57109e-20
-7.31539e-20
1.27472e-19
-2.38416e-19
1.94414e-19
-3.55375e-20
-1.64601e-19
0
0
0
-4.93178e-19
-7.31577e-20
2.85254e-20
0
-1.63933e-19
-1.50128e-19
1.04321e-19
0
0
-5.9967e-20
1.30033e-19
-1.77712e-19
1.32921e-19
0
5.27989e-20
0
0
-7.48078e-19
7.104e-19
-1.81062e-18
2.06051e-18
0
-5.61778e-18
5.75379e-18
-4.6787e-19
0
1.98003e-17
-2.01166e-17
0
0
0
)
;
    }
    low
    {
        type            calculated;
        value           nonuniform List<scalar> 
84
(
-3.23096e-16
3.19037e-16
-1.51103e-16
2.4519e-16
4.38144e-17
-1.13883e-17
9.51446e-17
1.61255e-17
0
3.90377e-16
-9.89659e-17
7.01797e-17
-8.56242e-17
-5.9069e-16
9.64609e-17
0
-8.96143e-17
1.27085e-17
-1.24308e-17
-6.6339e-17
3.6861e-17
9.34185e-17
1.72317e-16
-1.45014e-16
0
-2.79743e-17
-1.44214e-17
0
-1.32659e-16
-3.89204e-17
-1.36317e-16
-1.47522e-16
1.5972e-16
5.28914e-17
3.63681e-16
2.91009e-17
0
2.39129e-16
2.43297e-16
1.37761e-16
-7.30437e-17
2.86648e-17
2.86658e-17
0
1.13935e-16
2.73543e-16
2.09288e-16
3.08097e-17
0
-5.03662e-16
3.03954e-16
-2.14038e-20
-7.07264e-21
1.14727e-16
0
-2.83221e-16
0
-1.66694e-17
3.02861e-17
6.39888e-17
1.00547e-16
1.3955e-16
1.47155e-20
3.30316e-16
0
0
-2.44448e-16
2.81536e-16
-2.80503e-16
-9.64812e-17
2.11091e-16
-1.85934e-16
4.3498e-16
2.13729e-16
1.94105e-16
-3.79904e-16
2.62661e-16
-7.78355e-17
1.66579e-16
-1.16552e-16
8.50779e-17
9.06615e-18
-1.60983e-16
1.61459e-16
)
;
    }
    left
    {
        type            calculated;
        value           nonuniform List<scalar> 
19
(
-3.22652e-16
-1.5415e-16
1.59662e-16
6.46551e-18
-2.96137e-16
0
-1.33226e-16
-1.31448e-16
-1.3663e-17
-7.15397e-17
-3.73334e-19
-7.19386e-17
3.25777e-16
-7.20429e-17
3.34683e-16
2.90313e-16
1.73102e-16
2.55102e-16
0
)
;
    }
    right
    {
        type            calculated;
        value           nonuniform List<scalar> 
19
(
1.61237e-16
-1.79076e-18
-4.79838e-18
-2.99181e-16
3.0593e-16
-1.45244e-16
1.44652e-16
1.42704e-16
-1.1726e-16
0
0
2.48099e-16
-2.53145e-16
-2.60421e-16
2.6014e-16
-2.54986e-16
2.77102e-16
-4.70712e-16
0
)
;
    }
    frontAndBackPlanes
    {
        type            empty;
    }
}


// ************************************************************************* //
