/*--------------------------------*- C++ -*----------------------------------*\
  =========                 |
  \\      /  F ield         | OpenFOAM: The Open Source CFD Toolbox
   \\    /   O peration     | Website:  https://openfoam.org
    \\  /    A nd           | Version:  7
     \\/     M anipulation  |
\*---------------------------------------------------------------------------*/
FoamFile
{
    version     2.0;
    format      ascii;
    class       volScalarField;
    location    "0.3";
    object      T;
}
// * * * * * * * * * * * * * * * * * * * * * * * * * * * * * * * * * * * * * //

dimensions      [0 0 0 1 0 0 0];

internalField   nonuniform List<scalar> 
1596
(
4.98799
4.9535
4.91805
4.88416
4.8524
4.82231
4.79321
4.76362
4.73249
4.69737
4.65636
4.60688
4.54304
4.45648
4.33408
4.14636
3.83823
3.29954
2.30955
4.94805
4.84059
4.73869
4.6441
4.55643
4.47405
4.39497
4.31612
4.23488
4.14674
4.04795
3.93395
3.79617
3.62389
3.40365
3.1095
2.70096
2.10811
1.19854
4.90073
4.71988
4.55639
4.40788
4.27182
4.14517
4.02484
3.90684
3.78764
3.66199
3.52551
3.3732
3.19663
2.98608
2.73075
2.41151
2.00174
1.46009
0.70926
4.85389
4.6042
4.3851
4.18924
4.01164
3.84793
3.69412
3.54566
3.39859
3.24746
3.08786
2.91492
2.72112
2.4983
2.23832
1.92756
1.54892
1.07836
0.470937
4.81488
4.5055
4.2377
4.00058
3.78724
3.59229
3.41108
3.23877
3.07115
2.90285
2.72959
2.54678
2.34775
2.12573
1.87448
1.58411
1.24339
0.838174
0.34188
4.78851
4.43202
4.12309
3.85021
3.60575
3.38382
3.17944
2.98762
2.8041
2.62363
2.44208
2.2551
2.05671
1.84106
1.60316
1.33547
1.03024
0.678828
0.264961
4.7755
4.38611
4.04416
3.74068
3.46878
3.22285
2.99793
2.7891
2.59217
2.40202
2.21469
2.02598
1.83038
1.62266
1.39853
1.15191
0.877051
0.568372
0.215391
4.77315
4.36459
3.99795
3.66894
3.37286
3.10513
2.86129
2.63674
2.42747
2.22858
2.03624
1.84637
1.65375
1.45354
1.24185
1.01344
0.763712
0.488755
0.181382
4.77875
4.36288
3.97945
3.62988
3.31262
3.02488
2.76315
2.52345
2.30211
2.09451
1.89697
1.70551
1.51513
1.32119
1.12
0.906787
0.677597
0.429405
0.156894
4.78648
4.37117
3.97796
3.61288
3.2778
2.97211
2.6937
2.43945
2.20624
1.98982
1.78672
1.59308
1.40404
1.21509
1.0226
0.822072
0.609854
0.383363
0.138377
4.79282
4.3815
3.98358
3.60763
3.25827
2.93711
2.64361
2.37576
2.13113
1.90599
1.69715
1.50088
1.31247
1.12749
0.942308
0.752533
0.554661
0.346269
0.123751
4.80079
4.39574
3.99616
3.61248
3.2515
2.91682
2.60954
2.32882
2.0731
1.83922
1.62434
1.42495
1.23644
1.05446
0.875303
0.69463
0.508941
0.315807
0.111925
4.80846
4.41091
4.01171
3.62265
3.25225
2.90586
2.58611
2.29338
2.02705
1.78461
1.56363
1.36081
1.17172
0.992037
0.817982
0.645177
0.470055
0.290079
0.10207
4.81339
4.4224
4.02461
3.632
3.25419
2.89793
2.56723
2.26368
1.98757
1.73711
1.51032
1.30418
1.1144
0.936689
0.767211
0.601504
0.435884
0.267636
0.0935841
4.81765
4.43196
4.03553
3.64021
3.25623
2.89143
2.55098
2.23759
1.95246
1.69451
1.46226
1.25295
1.06247
0.886573
0.721326
0.562169
0.405261
0.247667
0.0861238
4.82182
4.44069
4.04528
3.64745
3.25795
2.88542
2.53607
2.2136
1.92007
1.65512
1.41773
1.20546
1.01436
0.840215
0.679001
0.52603
0.377275
0.229544
0.0794323
4.82484
4.44734
4.05252
3.65224
3.25761
2.87798
2.52045
2.1896
1.88833
1.61692
1.37483
1.15992
0.968407
0.796118
0.638923
0.491989
0.351075
0.212705
0.0732885
4.82711
4.45227
4.05756
3.65469
3.25509
2.86874
2.50351
2.16483
1.85633
1.57892
1.33253
1.11529
0.923597
0.75331
0.600201
0.45928
0.326063
0.196756
0.0675367
4.83096
4.45918
4.06432
3.65855
3.25374
2.86054
2.48757
2.14107
1.82537
1.54201
1.29134
1.07177
0.879875
0.711547
0.562473
0.427502
0.301884
0.181455
0.0620852
4.83554
4.46768
4.07287
3.66405
3.25382
2.85356
2.47269
2.11824
1.79525
1.50584
1.25079
1.02878
0.836555
0.670059
0.524924
0.395869
0.277883
0.166375
0.0567936
4.83905
4.47513
4.08059
3.66887
3.25328
2.846
2.45727
2.09492
1.76466
1.4692
1.20973
0.985196
0.792509
0.627695
0.486375
0.363223
0.253051
0.150843
0.0514448
4.84253
4.48238
4.0882
3.67367
3.25276
2.83845
2.44182
2.07149
1.73384
1.43215
1.16802
0.940673
0.747181
0.583662
0.445785
0.3283
0.226047
0.133791
0.0456675
4.84643
4.49021
4.0964
3.67906
3.2528
2.83139
2.42674
2.04823
1.70292
1.39465
1.12542
0.89472
0.699826
0.536938
0.401791
0.289309
0.194672
0.113016
0.0384029
4.85049
4.49819
4.10461
3.68431
3.2526
2.82402
2.41127
2.02445
1.6712
1.35591
1.08098
0.846235
0.649151
0.486013
0.352572
0.243888
0.155636
0.0840654
0.025415
4.85678
4.51406
4.12761
3.71199
3.28249
2.85378
2.43876
2.04784
1.68907
1.3673
1.08556
0.844323
0.64163
0.474177
0.33795
0.228052
0.140293
0.0714419
0.0190641
4.86363
4.53409
4.1603
3.75616
3.33626
2.91465
2.50379
2.11391
1.75309
1.42656
1.13794
0.888584
0.677492
0.502211
0.35927
0.243919
0.151692
0.0788348
0.0221171
4.86697
4.54565
4.18113
3.78656
3.37573
2.96185
2.55668
2.16992
1.80937
1.48028
1.18657
0.930318
0.711445
0.528487
0.378759
0.257848
0.161191
0.0846399
0.0243585
4.86681
4.54839
4.18941
3.80223
3.39968
2.99395
2.59585
2.21424
1.85632
1.52703
1.2303
0.968667
0.742873
0.552536
0.396017
0.269526
0.168608
0.088825
0.0258435
4.86433
4.54474
4.18844
3.807
3.4122
3.01504
2.62518
2.25044
1.89718
1.56976
1.27188
1.00622
0.774174
0.576434
0.412677
0.28013
0.17476
0.091949
0.0268403
4.85972
4.53626
4.18099
3.80452
3.41741
3.02939
2.64885
2.28244
1.93559
1.61189
1.31458
1.0462
0.808472
0.603029
0.431024
0.291201
0.180521
0.0944543
0.0275178
4.85387
4.52558
4.17091
3.79934
3.42023
3.04199
2.6717
2.31484
1.97583
1.65747
1.36236
1.09265
0.849996
0.636532
0.454782
0.305433
0.187342
0.0968832
0.028013
4.84909
4.51661
4.16287
3.79655
3.42587
3.05795
2.69861
2.35221
2.02221
1.71064
1.41944
1.15018
0.903993
0.682874
0.490056
0.328045
0.198479
0.100343
0.0283586
4.84443
4.50826
4.15611
3.7958
3.43435
3.07762
2.7302
2.39541
2.07589
1.77297
1.48802
1.22202
0.975311
0.749069
0.546057
0.369326
0.222835
0.109659
0.028676
4.83978
4.50067
4.15115
3.79796
3.44685
3.10238
2.76802
2.44616
2.13874
1.84656
1.5706
1.31148
1.06891
0.84305
0.635276
0.447242
0.282406
0.145806
0.0403795
4.83431
4.49081
4.1422
3.79421
3.45136
3.11706
2.79379
2.48315
2.18653
1.90435
1.63741
1.38618
1.15022
0.929227
0.723506
0.532727
0.357426
0.199919
0.0621959
4.8253
4.47078
4.11657
3.76715
3.42583
3.09501
2.77634
2.47077
2.17922
1.90178
1.63906
1.39145
1.15855
0.940153
0.736699
0.547741
0.373278
0.214083
0.0695659
4.81366
4.44411
4.08066
3.72613
3.38259
3.0515
2.73376
2.42977
2.14003
1.86434
1.60317
1.3569
1.12516
0.907994
0.706226
0.519928
0.349829
0.197493
0.0628816
4.80366
4.42133
4.05009
3.69128
3.34593
3.01468
2.69782
2.39529
2.1073
1.83343
1.57408
1.32965
1.09983
0.884798
0.685592
0.502454
0.336266
0.188694
0.0597067
4.79626
4.40396
4.02646
3.66412
3.31719
2.9857
2.66947
2.36809
2.08154
1.80924
1.55154
1.30884
1.08085
0.867822
0.670879
0.49032
0.327083
0.182887
0.0577002
4.79054
4.39055
4.00822
3.64318
3.29504
2.96337
2.64765
2.34719
2.06181
1.7908
1.53447
1.29322
1.06676
0.855353
0.660187
0.481586
0.320523
0.178767
0.0562984
4.78636
4.38081
3.99507
3.62816
3.27923
2.94751
2.6322
2.33243
2.04792
1.77788
1.52257
1.28237
1.05701
0.846763
0.652834
0.475575
0.315992
0.175906
0.0553187
4.78312
4.37411
3.98657
3.61884
3.26969
2.93813
2.62322
2.32399
2.04009
1.77069
1.51604
1.27653
1.05185
0.842294
0.649081
0.472566
0.313767
0.174528
0.0548614
4.78313
4.37413
3.98659
3.61887
3.26972
2.93816
2.62325
2.32402
2.04012
1.77072
1.51607
1.27655
1.05187
0.842312
0.649096
0.472578
0.313776
0.174533
0.0548631
4.78638
4.38085
3.99513
3.62824
3.27932
2.9476
2.63229
2.33252
2.04801
1.77796
1.52265
1.28245
1.05708
0.84682
0.652882
0.475613
0.31602
0.175923
0.0553246
4.79057
4.39063
4.00833
3.6433
3.29517
2.96352
2.64779
2.34733
2.06195
1.79093
1.5346
1.29333
1.06686
0.85544
0.660259
0.481643
0.320563
0.178792
0.0563067
4.7963
4.40406
4.02659
3.66429
3.31737
2.98589
2.66966
2.36828
2.08172
1.80941
1.5517
1.30898
1.08098
0.867931
0.670969
0.49039
0.327132
0.182916
0.0577101
4.80371
4.42145
4.05025
3.69148
3.34615
3.01491
2.69805
2.39552
2.10753
1.83364
1.57428
1.32982
1.09998
0.884926
0.685696
0.502533
0.336321
0.188726
0.0597169
4.81372
4.44425
4.08085
3.72635
3.38284
3.05176
2.73403
2.43003
2.14028
1.86457
1.60338
1.35709
1.12532
0.908126
0.706327
0.52
0.349874
0.197515
0.0628868
4.82536
4.47093
4.11678
3.7674
3.42611
3.09531
2.77664
2.47107
2.1795
1.90203
1.63928
1.39164
1.1587
0.940257
0.736758
0.547757
0.373263
0.214056
0.0695488
4.83438
4.49102
4.14254
3.79466
3.4519
3.11768
2.79447
2.48387
2.18728
1.90513
1.6382
1.38697
1.15101
0.930013
0.724279
0.533469
0.358095
0.200432
0.0624204
4.83987
4.50092
4.15156
3.79851
3.44751
3.10315
2.76889
2.4471
2.13974
1.8476
1.57168
1.31257
1.07
0.844116
0.636288
0.448149
0.283138
0.146289
0.0405557
4.8445
4.50847
4.15646
3.79627
3.43493
3.07829
2.73095
2.39623
2.07675
1.77386
1.48892
1.2229
0.976165
0.749862
0.54675
0.369875
0.223204
0.109843
0.0287114
4.84915
4.51681
4.16319
3.797
3.42642
3.05859
2.69932
2.35297
2.02301
1.71145
1.42024
1.15096
0.904718
0.683513
0.490577
0.328426
0.198716
0.100457
0.0283882
4.85393
4.52576
4.17121
3.79975
3.42074
3.04259
2.67237
2.31556
1.97657
1.65821
1.36308
1.09334
0.850613
0.637054
0.455191
0.305722
0.187521
0.0969749
0.0280393
4.85977
4.53642
4.18126
3.8049
3.41788
3.02995
2.64947
2.28311
1.93627
1.61257
1.31523
1.0468
0.809003
0.603467
0.431362
0.291439
0.180671
0.0945346
0.0275421
4.86437
4.54488
4.18868
3.80735
3.41264
3.01556
2.62575
2.25104
1.8978
1.57037
1.27247
1.00676
0.774635
0.576811
0.412966
0.280335
0.174893
0.0920224
0.0268635
4.86685
4.54851
4.18962
3.80254
3.40007
2.99442
2.59637
2.21479
1.85689
1.52758
1.23083
0.969138
0.743277
0.552865
0.39627
0.269709
0.16873
0.0888949
0.0258668
4.86699
4.54575
4.18131
3.78683
3.37608
2.96226
2.55715
2.17042
1.80988
1.48077
1.18704
0.930735
0.711802
0.52878
0.378987
0.258017
0.161308
0.0847099
0.0243836
4.86365
4.53418
4.16046
3.7564
3.33657
2.91502
2.50421
2.11435
1.75354
1.427
1.13835
0.888955
0.677811
0.502475
0.35948
0.24408
0.151808
0.078909
0.0221464
4.85678
4.51407
4.12765
3.71205
3.28257
2.85387
2.43887
2.04795
1.68918
1.36741
1.08566
0.844403
0.641689
0.474215
0.337969
0.228055
0.140285
0.0714298
0.0190567
4.85048
4.49816
4.10456
3.68425
3.25252
2.82394
2.41117
2.02435
1.6711
1.35581
1.08088
0.846144
0.649065
0.485933
0.352498
0.243823
0.155583
0.0840269
0.0253977
4.84643
4.4902
4.09639
3.67904
3.25278
2.83137
2.42672
2.04822
1.70291
1.39465
1.12541
0.894721
0.69983
0.536945
0.401799
0.289318
0.19468
0.113022
0.0384047
4.84252
4.48237
4.08819
3.67366
3.25275
2.83844
2.44181
2.07148
1.73383
1.43215
1.16802
0.940676
0.747186
0.583669
0.445792
0.328306
0.226053
0.133794
0.0456684
4.83905
4.47512
4.08058
3.66886
3.25327
2.84599
2.45727
2.09491
1.76466
1.4692
1.20973
0.9852
0.792514
0.627701
0.486381
0.363228
0.253054
0.150845
0.0514454
4.83554
4.46768
4.07286
3.66404
3.25382
2.85355
2.47269
2.11824
1.79525
1.50584
1.25079
1.02879
0.836559
0.670064
0.524929
0.395873
0.277885
0.166377
0.056794
4.83096
4.45917
4.06432
3.65854
3.25374
2.86053
2.48757
2.14107
1.82537
1.54201
1.29134
1.07178
0.879879
0.711551
0.562477
0.427505
0.301886
0.181456
0.0620855
4.82711
4.45227
4.05755
3.65468
3.25509
2.86874
2.50351
2.16483
1.85633
1.57892
1.33253
1.11529
0.9236
0.753313
0.600203
0.459281
0.326064
0.196757
0.0675369
4.82484
4.44733
4.05252
3.65224
3.25761
2.87798
2.52045
2.1896
1.88833
1.61692
1.37483
1.15992
0.96841
0.79612
0.638924
0.49199
0.351076
0.212705
0.0732886
4.82182
4.44069
4.04528
3.64745
3.25795
2.88542
2.53607
2.2136
1.92008
1.65512
1.41773
1.20546
1.01436
0.840216
0.679001
0.52603
0.377275
0.229544
0.0794324
4.81765
4.43196
4.03553
3.64021
3.25624
2.89143
2.55098
2.23759
1.95246
1.69451
1.46226
1.25295
1.06247
0.886573
0.721326
0.562169
0.405261
0.247666
0.0861238
4.81339
4.42241
4.02461
3.632
3.25419
2.89793
2.56723
2.26368
1.98757
1.73711
1.51032
1.30418
1.1144
0.936689
0.76721
0.601503
0.435884
0.267636
0.0935841
4.80846
4.41091
4.01171
3.62265
3.25225
2.90586
2.58611
2.29338
2.02705
1.78461
1.56362
1.36081
1.17172
0.992035
0.817981
0.645176
0.470055
0.290079
0.10207
4.80079
4.39574
3.99616
3.61248
3.2515
2.91682
2.60954
2.32882
2.0731
1.83922
1.62434
1.42495
1.23644
1.05445
0.875301
0.694629
0.508941
0.315807
0.111925
4.79282
4.3815
3.98359
3.60763
3.25827
2.93711
2.64361
2.37576
2.13113
1.90599
1.69714
1.50088
1.31247
1.12749
0.942306
0.752532
0.554661
0.346269
0.123751
4.78648
4.37117
3.97796
3.61288
3.27779
2.97211
2.6937
2.43945
2.20623
1.98981
1.78672
1.59308
1.40403
1.21509
1.0226
0.822071
0.609854
0.383363
0.138377
4.77875
4.36288
3.97945
3.62987
3.31262
3.02487
2.76315
2.52344
2.3021
2.09451
1.89696
1.70551
1.51513
1.32119
1.12
0.906786
0.677597
0.429406
0.156895
4.77315
4.36459
3.99795
3.66894
3.37286
3.10513
2.86128
2.63673
2.42746
2.22858
2.03623
1.84636
1.65375
1.45354
1.24185
1.01344
0.763712
0.488756
0.181382
4.7755
4.38611
4.04415
3.74067
3.46878
3.22285
2.99793
2.7891
2.59216
2.40202
2.21468
2.02598
1.83038
1.62266
1.39853
1.15191
0.877051
0.568373
0.215391
4.7885
4.43201
4.12308
3.85021
3.60574
3.38382
3.17944
2.98761
2.8041
2.62362
2.44207
2.2551
2.0567
1.84106
1.60316
1.33547
1.03024
0.678829
0.264961
4.81488
4.5055
4.2377
4.00058
3.78723
3.59228
3.41108
3.23876
3.07115
2.90285
2.72959
2.54678
2.34775
2.12573
1.87448
1.58411
1.24339
0.838174
0.34188
4.85389
4.6042
4.3851
4.18924
4.01163
3.84792
3.69412
3.54566
3.39859
3.24746
3.08786
2.91492
2.72111
2.4983
2.23832
1.92756
1.54892
1.07836
0.470937
4.90073
4.71987
4.55639
4.40788
4.27181
4.14516
4.02484
3.90684
3.78764
3.66199
3.52551
3.3732
3.19663
2.98608
2.73075
2.41151
2.00174
1.46009
0.70926
4.94805
4.84059
4.73869
4.6441
4.55643
4.47405
4.39497
4.31612
4.23488
4.14674
4.04795
3.93395
3.79616
3.62389
3.40365
3.1095
2.70096
2.10811
1.19854
4.98799
4.9535
4.91805
4.88416
4.8524
4.82231
4.79321
4.76362
4.73249
4.69737
4.65636
4.60688
4.54304
4.45648
4.33408
4.14636
3.83823
3.29954
2.30955
)
;

boundaryField
{
    up
    {
        type            fixedValue;
        value           uniform 0;
    }
    low
    {
        type            fixedValue;
        value           uniform 5;
    }
    left
    {
        type            fixedValue;
        value           uniform 5;
    }
    right
    {
        type            fixedValue;
        value           uniform 5;
    }
    frontAndBackPlanes
    {
        type            empty;
    }
}


// ************************************************************************* //
