/*--------------------------------*- C++ -*----------------------------------*\
  =========                 |
  \\      /  F ield         | OpenFOAM: The Open Source CFD Toolbox
   \\    /   O peration     | Website:  https://openfoam.org
    \\  /    A nd           | Version:  7
     \\/     M anipulation  |
\*---------------------------------------------------------------------------*/
FoamFile
{
    version     2.0;
    format      ascii;
    class       volScalarField;
    location    "0.22";
    object      gradTy;
}
// * * * * * * * * * * * * * * * * * * * * * * * * * * * * * * * * * * * * * //

dimensions      [0 -1 0 1 0 0 0];

internalField   nonuniform List<scalar> 
1596
(
-0.380601
-0.706385
-0.972275
-1.22625
-1.46813
-1.72959
-1.99678
-2.30578
-2.67058
-3.1013
-3.69419
-4.44889
-5.49719
-6.99405
-9.32537
-12.9651
-19.4709
-31.4737
-74.35
-1.15868
-1.42701
-1.60702
-1.77105
-1.92769
-2.11263
-2.31478
-2.56766
-2.88487
-3.26911
-3.80104
-4.47163
-5.3692
-6.56398
-8.254
-10.5387
-13.9379
-18.9352
-33.1183
-2.07197
-2.15939
-2.20743
-2.26387
-2.32784
-2.43019
-2.55845
-2.74205
-2.99122
-3.30356
-3.74552
-4.29969
-5.02715
-5.96004
-7.21841
-8.8166
-11.0371
-14.0822
-20.6147
-3.02727
-2.87135
-2.76337
-2.70261
-2.67015
-2.6865
-2.73628
-2.84351
-3.01487
-3.24461
-3.58714
-4.02066
-4.58837
-5.30294
-6.24053
-7.38254
-8.89498
-10.86
-14.2241
-3.90595
-3.52256
-3.26384
-3.08843
-2.9618
-2.89301
-2.86429
-2.8938
-2.98534
-3.13146
-3.3765
-3.69793
-4.12707
-4.66715
-5.36882
-6.20288
-7.27362
-8.609
-10.5555
-4.60161
-4.07412
-3.69843
-3.42412
-3.21247
-3.06417
-2.96102
-2.91585
-2.9306
-2.9974
-3.15217
-3.37405
-3.68621
-4.08759
-4.61328
-5.23286
-6.01524
-6.96376
-8.21008
-5.0574
-4.49571
-4.05623
-3.71046
-3.42971
-3.21209
-3.04202
-2.92834
-2.87227
-2.86655
-2.94008
-3.07496
-3.28861
-3.57825
-3.96897
-4.43285
-5.01701
-5.71406
-6.57523
-5.27404
-4.76901
-4.32351
-3.94134
-3.61325
-3.34089
-3.11448
-2.94095
-2.82197
-2.75174
-2.75347
-2.81282
-2.94298
-3.14086
-3.42477
-3.77055
-4.21118
-4.73525
-5.36193
-5.29727
-4.91545
-4.51308
-4.12838
-3.77518
-3.46338
-3.19144
-2.9667
-2.79246
-2.66507
-2.60343
-2.5968
-2.65535
-2.77625
-2.97307
-3.22547
-3.55674
-3.95448
-4.42425
-5.16556
-4.91577
-4.58878
-4.23408
-3.88169
-3.55078
-3.24877
-2.98547
-2.7668
-2.59184
-2.47657
-2.41372
-2.41144
-2.46753
-2.59236
-2.76922
-3.01481
-3.31736
-3.67643
-5.00101
-4.84458
-4.59298
-4.28297
-3.94833
-3.61391
-3.29463
-3.00366
-2.75007
-2.53601
-2.37583
-2.26539
-2.21162
-2.21309
-2.27789
-2.39243
-2.56877
-2.79625
-3.07177
-4.79731
-4.73647
-4.55763
-4.29707
-3.98919
-3.66146
-3.33425
-3.02402
-2.74309
-2.49676
-2.29873
-2.14773
-2.05004
-2.00504
-2.01923
-2.08164
-2.20095
-2.3678
-2.57804
-4.54464
-4.56901
-4.46107
-4.25384
-3.98049
-3.66961
-3.34477
-3.02529
-2.72635
-2.45623
-2.22875
-2.04516
-1.91159
-1.82832
-1.8008
-1.82032
-1.89325
-2.01156
-2.17079
-4.32071
-4.39332
-4.34079
-4.18165
-3.94322
-3.65311
-3.3361
-3.01363
-2.70318
-2.41562
-2.16537
-1.9558
-1.79323
-1.67875
-1.61715
-1.60154
-1.63665
-1.71564
-1.83416
-4.11373
-4.22441
-4.21407
-4.09491
-3.8882
-3.61913
-3.31239
-2.99068
-2.67323
-2.37306
-2.10537
-1.87534
-1.68962
-1.55003
-1.46093
-1.41687
-1.42141
-1.46876
-1.55486
-3.91075
-4.05813
-4.08332
-3.9976
-3.8186
-3.56933
-3.27368
-2.95507
-2.63398
-2.32513
-2.04456
-1.79892
-1.59527
-1.43604
-1.3253
-1.25872
-1.23904
-1.26131
-1.32183
-3.72686
-3.89963
-3.95358
-3.89545
-3.73976
-3.50778
-3.22256
-2.90791
-2.58524
-2.27059
-1.98079
-1.72364
-1.50659
-1.33252
-1.20528
-1.12137
-1.08291
-1.08564
-1.1262
-3.56575
-3.75638
-3.83294
-3.79705
-3.66023
-3.44222
-3.16552
-2.85422
-2.53052
-2.21161
-1.91495
-1.6493
-1.42236
-1.23733
-1.09778
-1.00081
-0.948043
-0.935754
-0.960869
-3.40337
-3.62651
-3.72725
-3.7115
-3.59052
-3.38339
-3.11265
-2.8029
-2.47725
-2.15402
-1.8513
-1.57865
-1.34395
-1.15052
-1.0016
-0.894655
-0.830867
-0.806956
-0.820081
-3.235
-3.49578
-3.62443
-3.62951
-3.52347
-3.3258
-3.05967
-2.75057
-2.42268
-2.09551
-1.78774
-1.50969
-1.2693
-1.06986
-0.914139
-0.799747
-0.727525
-0.694648
-0.698589
-3.09041
-3.37728
-3.53219
-3.55763
-3.46542
-3.27558
-3.01236
-2.70245
-2.37136
-2.03986
-1.72732
-1.44472
-1.19997
-0.99618
-0.835475
-0.715267
-0.636025
-0.595529
-0.592019
-2.96163
-3.27316
-3.45255
-3.4976
-3.41847
-3.23538
-2.97379
-2.66186
-2.32662
-1.99027
-1.67287
-1.38608
-1.13778
-0.930786
-0.766358
-0.641237
-0.555136
-0.506444
-0.495409
-2.84207
-3.18122
-3.38519
-3.44944
-3.38289
-3.20587
-2.94515
-2.63047
-2.29053
-1.949
-1.62667
-1.33589
-1.08455
-0.875185
-0.708124
-0.578852
-0.48525
-0.424865
-0.40154
-2.73496
-3.10178
-3.32872
-3.40924
-3.35196
-3.17737
-2.91435
-2.59413
-2.24739
-1.89956
-1.57136
-1.27659
-1.02286
-0.812571
-0.644926
-0.514305
-0.414848
-0.339031
-0.281103
-2.64773
-3.04021
-3.29447
-3.401
-3.36784
-3.21374
-2.96768
-2.65994
-2.32124
-1.97787
-1.64939
-1.35144
-1.0916
-0.873976
-0.698298
-0.560526
-0.45294
-0.365849
-0.285446
-2.58676
-2.99468
-3.26516
-3.3903
-3.37733
-3.24328
-3.01575
-2.72346
-2.39605
-2.05961
-1.73249
-1.43124
-1.16391
-0.936058
-0.748994
-0.601582
-0.487545
-0.400212
-0.329855
-2.58428
-2.99454
-3.27091
-3.40639
-3.4074
-3.29012
-3.08014
-2.80469
-2.49171
-2.16596
-1.84481
-1.54392
-1.27134
-1.03359
-0.833956
-0.673905
-0.549429
-0.455422
-0.383152
-2.64705
-3.04588
-3.31497
-3.44887
-3.45403
-3.34623
-3.14936
-2.889
-2.59109
-2.27861
-1.96724
-1.671
-1.39678
-1.15105
-0.938592
-0.763808
-0.625691
-0.521249
-0.442379
-2.76785
-3.14734
-3.39819
-3.52022
-3.52097
-3.4162
-3.22833
-2.98121
-2.69866
-2.40163
-2.10374
-1.81689
-1.54572
-1.29518
-1.07029
-0.878339
-0.722327
-0.602889
-0.513064
-2.94287
-3.28966
-3.51222
-3.61426
-3.6042
-3.4977
-3.31593
-3.08088
-2.81421
-2.53495
-2.25459
-1.98293
-1.72164
-1.47251
-1.23835
-1.02798
-0.848889
-0.708054
-0.601704
-3.16891
-3.47054
-3.6586
-3.7355
-3.71031
-3.59864
-3.42057
-3.19622
-2.9452
-2.68486
-2.42492
-2.17387
-1.93058
-1.69264
-1.45737
-1.23122
-1.02378
-0.851295
-0.718599
-3.41229
-3.67506
-3.8278
-3.87715
-3.83452
-3.71579
-3.54009
-3.32558
-3.0899
-2.84902
-2.61146
-2.38575
-2.16958
-1.9573
-1.73855
-1.5116
-1.27879
-1.06172
-0.883004
-3.68898
-3.90821
-4.02142
-4.03988
-3.97732
-3.84964
-3.67482
-3.46887
-3.24733
-3.02491
-2.80918
-2.61007
-2.42671
-2.25442
-2.07801
-1.88656
-1.66193
-1.4094
-1.13797
-4.01127
-4.17851
-4.24796
-4.23376
-4.15112
-4.01549
-3.84301
-3.6474
-3.44188
-3.23951
-3.04741
-2.87657
-2.72991
-2.60906
-2.50441
-2.40831
-2.29241
-2.14137
-1.93656
-4.36808
-4.4758
-4.49084
-4.43334
-4.31978
-4.16508
-3.98279
-3.78457
-3.58112
-3.38254
-3.19539
-3.02842
-2.8861
-2.77367
-2.69189
-2.64588
-2.62698
-2.62771
-2.63197
-4.77012
-4.79752
-4.74629
-4.63808
-4.48799
-4.30931
-4.11281
-3.90839
-3.70475
-3.5094
-3.32884
-3.16878
-3.03303
-2.92472
-2.84587
-2.7991
-2.78582
-2.80881
-2.87099
-5.21283
-5.14251
-5.02156
-4.86376
-4.67953
-4.4789
-4.26999
-4.06079
-3.85833
-3.66846
-3.49682
-3.34729
-3.22232
-3.12289
-3.04877
-2.99727
-2.96519
-2.94754
-2.93933
-5.61746
-5.45535
-5.26954
-5.06537
-4.84876
-4.62637
-4.40413
-4.18797
-3.98336
-3.7947
-3.62626
-3.48077
-3.35948
-3.2624
-3.18849
-3.13501
-3.09883
-3.0761
-3.06291
-5.9452
-5.71723
-5.48124
-5.24
-4.99711
-4.75696
-4.52374
-4.30173
-4.09513
-3.9072
-3.74116
-3.59902
-3.48132
-3.38764
-3.31668
-3.26578
-3.23184
-3.21127
-3.20027
-6.20634
-5.92668
-5.65131
-5.38099
-5.1175
-4.86342
-4.62155
-4.39487
-4.18656
-3.99906
-3.83483
-3.6954
-3.58084
-3.49045
-3.42277
-3.37513
-3.34437
-3.32701
-3.31927
-6.39601
-6.07751
-5.77251
-5.48082
-5.20254
-4.93866
-4.69078
-4.4609
-4.25148
-4.06436
-3.90155
-3.76422
-3.65217
-3.5645
-3.49961
-3.45473
-3.42658
-3.4116
-3.40594
-6.51882
-6.16343
-5.8372
-5.53244
-5.24591
-4.97684
-4.72594
-4.49454
-4.28469
-4.09793
-3.936
-3.79995
-3.68943
-3.60349
-3.5405
-3.49774
-3.4719
-3.45947
-3.45657
-6.51886
-6.16349
-5.83727
-5.53252
-5.24599
-4.97693
-4.72603
-4.49463
-4.28479
-4.09803
-3.9361
-3.80006
-3.68954
-3.60361
-3.54062
-3.49786
-3.47203
-3.45961
-3.45671
-6.39606
-6.07763
-5.77267
-5.48101
-5.20275
-4.93888
-4.69102
-4.46115
-4.25174
-4.06463
-3.90183
-3.76452
-3.65248
-3.56483
-3.49996
-3.45511
-3.42699
-3.41205
-3.40643
-6.20641
-5.92686
-5.65157
-5.3813
-5.11784
-4.86379
-4.62194
-4.39527
-4.18698
-3.9995
-3.83529
-3.69588
-3.58134
-3.49098
-3.42334
-3.37573
-3.34502
-3.3277
-3.32002
-5.9453
-5.71746
-5.48157
-5.24039
-4.99754
-4.75742
-4.52423
-4.30225
-4.09567
-3.90776
-3.74174
-3.59963
-3.48196
-3.3883
-3.31738
-3.26651
-3.23261
-3.21208
-3.20113
-5.61757
-5.45562
-5.26991
-5.06581
-4.84926
-4.62692
-4.40471
-4.18859
-3.984
-3.79538
-3.62696
-3.4815
-3.36024
-3.26319
-3.18931
-3.13585
-3.09971
-3.07701
-3.06385
-5.21296
-5.1428
-5.02196
-4.86424
-4.68008
-4.4795
-4.27064
-4.06148
-3.85906
-3.66922
-3.49761
-3.34811
-3.22316
-3.12375
-3.04963
-2.99812
-2.96603
-2.94835
-2.9401
-4.77026
-4.79785
-4.74679
-4.63872
-4.48875
-4.31018
-4.11378
-3.90946
-3.70593
-3.51067
-3.33022
-3.17028
-3.03465
-2.92646
-2.84772
-2.80098
-2.78759
-2.81022
-2.87166
-4.36817
-4.47585
-4.49091
-4.43345
-4.31993
-4.16526
-3.983
-3.78479
-3.58133
-3.38271
-3.1955
-3.02841
-2.88592
-2.77325
-2.69123
-2.64504
-2.62627
-2.62774
-2.6337
-4.01131
-4.1787
-4.2483
-4.23429
-4.15184
-4.01642
-3.84414
-3.64873
-3.44339
-3.24118
-3.04923
-2.87855
-2.73206
-2.61149
-2.50731
-2.41196
-2.29718
-2.14759
-1.94441
-3.68899
-3.90824
-4.02153
-4.04011
-3.97769
-3.85017
-3.67549
-3.46969
-3.24828
-3.02596
-2.81034
-2.61134
-2.42814
-2.25608
-2.07999
-1.88892
-1.66456
-1.412
-1.13992
-3.41229
-3.67506
-3.82787
-3.87734
-3.83486
-3.71629
-3.54075
-3.32639
-3.09084
-2.8501
-2.61265
-2.38707
-2.17104
-1.95894
-1.74036
-1.51351
-1.28063
-1.06329
-0.884235
-3.1689
-3.47051
-3.65863
-3.73563
-3.71059
-3.59908
-3.42117
-3.19698
-2.94609
-2.68588
-2.42605
-2.17511
-1.93193
-1.69408
-1.45885
-1.23265
-1.02506
-0.852354
-0.71946
-2.94286
-3.28961
-3.51222
-3.61435
-3.60443
-3.49809
-3.31647
-3.08158
-2.81504
-2.5359
-2.25563
-1.98405
-1.72282
-1.47372
-1.23953
-1.02906
-0.84982
-0.708832
-0.60236
-2.76783
-3.14727
-3.39816
-3.52027
-3.52115
-3.41654
-3.22882
-2.98185
-2.69942
-2.40249
-2.10468
-1.81788
-1.54674
-1.29619
-1.07123
-0.879174
-0.723042
-0.603495
-0.513593
-2.64702
-3.04582
-3.31492
-3.4489
-3.45417
-3.34652
-3.14979
-2.88956
-2.59178
-2.27938
-1.96807
-1.67186
-1.39764
-1.15187
-0.939343
-0.764468
-0.626259
-0.521743
-0.442831
-2.58426
-2.99447
-3.27085
-3.4064
-3.40752
-3.29037
-3.08052
-2.80519
-2.49231
-2.16663
-1.84553
-1.54465
-1.27206
-1.03426
-0.834565
-0.674439
-0.549895
-0.455845
-0.383567
-2.58674
-2.9946
-3.26508
-3.39026
-3.37737
-3.24342
-3.016
-2.72379
-2.39646
-2.06008
-1.73299
-1.43175
-1.16439
-0.936503
-0.749385
-0.60192
-0.487845
-0.400511
-0.330225
-2.64779
-3.04025
-3.29451
-3.40106
-3.36795
-3.2139
-2.9679
-2.66021
-2.32156
-1.97823
-1.64978
-1.35185
-1.09202
-0.874383
-0.698685
-0.560891
-0.453276
-0.366148
-0.285681
-2.73502
-3.10183
-3.32875
-3.40923
-3.35191
-3.17728
-2.91421
-2.59397
-2.2472
-1.89936
-1.57116
-1.2764
-1.02268
-0.812412
-0.644782
-0.514173
-0.41472
-0.338896
-0.280936
-2.84211
-3.18126
-3.38522
-3.44946
-3.3829
-3.20587
-2.94514
-2.63046
-2.29052
-1.94899
-1.62666
-1.33589
-1.08455
-0.875195
-0.708138
-0.578869
-0.48527
-0.42489
-0.401563
-2.96166
-3.27318
-3.45256
-3.4976
-3.41847
-3.23536
-2.97376
-2.66183
-2.32659
-1.99025
-1.67285
-1.38607
-1.13778
-0.930788
-0.766365
-0.641248
-0.55515
-0.50646
-0.495424
-3.09043
-3.37729
-3.5322
-3.55763
-3.46541
-3.27557
-3.01234
-2.70243
-2.37134
-2.03985
-1.72731
-1.44471
-1.19997
-0.996183
-0.835481
-0.715276
-0.636037
-0.595541
-0.592031
-3.23502
-3.49579
-3.62444
-3.62951
-3.52346
-3.32578
-3.05966
-2.75056
-2.42267
-2.0955
-1.78773
-1.50969
-1.2693
-1.06986
-0.914144
-0.799755
-0.727533
-0.694657
-0.698597
-3.40338
-3.62652
-3.72726
-3.71149
-3.59051
-3.38338
-3.11264
-2.80289
-2.47724
-2.15402
-1.85129
-1.57865
-1.34395
-1.15052
-1.00161
-0.894661
-0.830873
-0.806962
-0.820086
-3.56576
-3.75638
-3.83294
-3.79704
-3.66022
-3.44221
-3.16551
-2.85422
-2.53052
-2.2116
-1.91495
-1.6493
-1.42236
-1.23733
-1.09778
-1.00082
-0.948047
-0.935757
-0.960871
-3.72687
-3.89963
-3.95358
-3.89545
-3.73975
-3.50777
-3.22255
-2.90791
-2.58524
-2.27059
-1.98079
-1.72364
-1.50659
-1.33252
-1.20528
-1.12137
-1.08291
-1.08564
-1.1262
-3.91075
-4.05813
-4.08332
-3.9976
-3.8186
-3.56933
-3.27368
-2.95506
-2.63398
-2.32513
-2.04456
-1.79892
-1.59527
-1.43604
-1.3253
-1.25872
-1.23904
-1.2613
-1.32183
-4.11373
-4.2244
-4.21407
-4.09491
-3.8882
-3.61913
-3.31239
-2.99068
-2.67323
-2.37306
-2.10537
-1.87534
-1.68962
-1.55003
-1.46093
-1.41686
-1.42141
-1.46876
-1.55485
-4.3207
-4.39331
-4.34078
-4.18165
-3.94323
-3.65311
-3.3361
-3.01363
-2.70318
-2.41562
-2.16537
-1.9558
-1.79323
-1.67875
-1.61715
-1.60153
-1.63664
-1.71563
-1.83415
-4.54463
-4.56901
-4.46107
-4.25384
-3.98049
-3.66962
-3.34478
-3.0253
-2.72635
-2.45623
-2.22875
-2.04516
-1.91159
-1.82832
-1.80079
-1.82031
-1.89324
-2.01154
-2.17078
-4.79729
-4.73646
-4.55762
-4.29707
-3.98919
-3.66147
-3.33425
-3.02403
-2.74309
-2.49676
-2.29872
-2.14773
-2.05004
-2.00504
-2.01922
-2.08163
-2.20094
-2.36779
-2.57803
-5.001
-4.84458
-4.59298
-4.28298
-3.94834
-3.61391
-3.29463
-3.00366
-2.75008
-2.53601
-2.37583
-2.26539
-2.21162
-2.21309
-2.27789
-2.39242
-2.56876
-2.79623
-3.07176
-5.16555
-4.91577
-4.58879
-4.23409
-3.88169
-3.55079
-3.24877
-2.98548
-2.76681
-2.59184
-2.47657
-2.41372
-2.41143
-2.46753
-2.59235
-2.76921
-3.0148
-3.31735
-3.67643
-5.29727
-4.91546
-4.5131
-4.12839
-3.77519
-3.46339
-3.19144
-2.9667
-2.79246
-2.66508
-2.60343
-2.5968
-2.65535
-2.77624
-2.97306
-3.22546
-3.55672
-3.95447
-4.42425
-5.27405
-4.76903
-4.32352
-3.94135
-3.61325
-3.3409
-3.11448
-2.94095
-2.82197
-2.75174
-2.75347
-2.81281
-2.94298
-3.14085
-3.42476
-3.77054
-4.21117
-4.73525
-5.36193
-5.05742
-4.49573
-4.05624
-3.71047
-3.42972
-3.2121
-3.04202
-2.92834
-2.87228
-2.86655
-2.94008
-3.07496
-3.2886
-3.57825
-3.96897
-4.43284
-5.017
-5.71406
-6.57524
-4.60164
-4.07414
-3.69845
-3.42413
-3.21248
-3.06417
-2.96102
-2.91585
-2.9306
-2.9974
-3.15217
-3.37404
-3.6862
-4.08758
-4.61327
-5.23285
-6.01524
-6.96377
-8.21009
-3.90598
-3.52257
-3.26385
-3.08844
-2.96181
-2.89302
-2.8643
-2.89381
-2.98535
-3.13146
-3.3765
-3.69793
-4.12707
-4.66715
-5.36882
-6.20288
-7.27363
-8.60901
-10.5555
-3.02729
-2.87136
-2.76338
-2.70262
-2.67016
-2.68651
-2.73628
-2.84352
-3.01487
-3.24461
-3.58714
-4.02066
-4.58836
-5.30293
-6.24052
-7.38253
-8.89498
-10.86
-14.2241
-2.07199
-2.15939
-2.20744
-2.26387
-2.32785
-2.4302
-2.55846
-2.74205
-2.99123
-3.30356
-3.74552
-4.29968
-5.02715
-5.96003
-7.21841
-8.8166
-11.0371
-14.0822
-20.6147
-1.15869
-1.42701
-1.60702
-1.77105
-1.9277
-2.11263
-2.31478
-2.56766
-2.88487
-3.26911
-3.80103
-4.47163
-5.36919
-6.56397
-8.254
-10.5387
-13.9379
-18.9352
-33.1183
-0.380603
-0.706386
-0.972275
-1.22625
-1.46813
-1.72959
-1.99678
-2.30579
-2.67058
-3.1013
-3.69419
-4.44888
-5.49718
-6.99404
-9.32536
-12.9651
-19.4709
-31.4737
-74.35
)
;

boundaryField
{
    up
    {
        type            calculated;
        value           nonuniform List<scalar> 
84
(
-67.3762
-36.4908
-22.3919
-15.2652
-11.2273
-8.67727
-6.91788
-5.62232
-4.62572
-3.83452
-3.1958
-2.67489
-2.24625
-1.89238
-1.59926
-1.35531
-1.15111
-0.979074
-0.83306
-0.707617
-0.59802
-0.498519
-0.397279
-0.25204
-0.243733
-0.309526
-0.362557
-0.419527
-0.486594
-0.569894
-0.677559
-0.820089
-1.04002
-1.91588
-2.70457
-2.9166
-2.93417
-3.05719
-3.1961
-3.31698
-3.40486
-3.45708
-3.45722
-3.40537
-3.31775
-3.19698
-3.05815
-2.93494
-2.91663
-2.70645
-1.92503
-1.04185
-0.821172
-0.678362
-0.57052
-0.487107
-0.419971
-0.362973
-0.310014
-0.244033
-0.251858
-0.397298
-0.498533
-0.59803
-0.707624
-0.833064
-0.979077
-1.15111
-1.35531
-1.59926
-1.89237
-2.24624
-2.67489
-3.1958
-3.83452
-4.62573
-5.62234
-6.9179
-8.67729
-11.2273
-15.2652
-22.3919
-36.4908
-67.3761
)
;
    }
    low
    {
        type            calculated;
        value           nonuniform List<scalar> 
84
(
-0.408445
-1.21081
-2.18524
-3.21814
-4.17017
-4.91508
-5.3826
-5.57792
-5.54145
-5.33258
-5.1274
-4.88426
-4.57767
-4.32404
-4.0999
-3.87335
-3.66885
-3.50153
-3.32636
-3.12913
-2.96221
-2.81608
-2.67548
-2.54869
-2.42707
-2.35117
-2.35165
-2.43872
-2.59102
-2.80579
-3.06714
-3.33409
-3.6381
-3.99224
-4.37549
-4.81274
-5.30438
-5.74025
-6.08679
-6.3638
-6.56628
-6.7069
-6.70693
-6.5663
-6.36384
-6.08684
-5.74031
-5.30445
-4.81282
-4.37546
-3.99229
-3.63806
-3.33407
-3.06712
-2.80577
-2.59101
-2.43872
-2.35166
-2.35118
-2.4271
-2.54877
-2.67549
-2.8161
-2.96223
-3.12915
-3.32637
-3.50154
-3.66886
-3.87335
-4.0999
-4.32403
-4.57766
-4.88424
-5.12738
-5.33256
-5.54144
-5.57792
-5.38262
-4.9151
-4.1702
-3.21816
-2.18526
-1.21082
-0.408449
)
;
    }
    left
    {
        type            calculated;
        value           nonuniform List<scalar> 
19
(
-0.373336
-0.693138
-0.964184
-1.22651
-1.4784
-1.75046
-2.0294
-2.35316
-2.73622
-3.19427
-3.8281
-4.6418
-5.78503
-7.4433
-10.0496
-14.1848
-21.6625
-35.621
-69.8821
)
;
    }
    right
    {
        type            calculated;
        value           nonuniform List<scalar> 
19
(
-0.373339
-0.693139
-0.964185
-1.22651
-1.47841
-1.75046
-2.0294
-2.35317
-2.73622
-3.19427
-3.8281
-4.64179
-5.78502
-7.44329
-10.0495
-14.1848
-21.6625
-35.621
-69.8821
)
;
    }
    frontAndBackPlanes
    {
        type            empty;
    }
}


// ************************************************************************* //
