/*--------------------------------*- C++ -*----------------------------------*\
  =========                 |
  \\      /  F ield         | OpenFOAM: The Open Source CFD Toolbox
   \\    /   O peration     | Website:  https://openfoam.org
    \\  /    A nd           | Version:  7
     \\/     M anipulation  |
\*---------------------------------------------------------------------------*/
FoamFile
{
    version     2.0;
    format      ascii;
    class       volScalarField;
    location    "0.01";
    object      T;
}
// * * * * * * * * * * * * * * * * * * * * * * * * * * * * * * * * * * * * * //

dimensions      [0 0 0 1 0 0 0];

internalField   nonuniform List<scalar> 
1596
(
0.941703
0.825914
0.763675
0.738432
0.729122
0.725139
0.722966
0.721438
0.720863
0.720774
0.722127
0.725281
0.729882
0.735819
0.742392
0.742912
0.722296
0.647824
0.464425
0.809877
0.529766
0.394732
0.34357
0.326069
0.319555
0.316513
0.314749
0.314252
0.314591
0.316802
0.321289
0.328024
0.337447
0.350663
0.364675
0.370759
0.34198
0.227462
0.733118
0.372724
0.204525
0.142447
0.122415
0.116049
0.113731
0.112707
0.112541
0.112914
0.114397
0.11721
0.121428
0.127417
0.136351
0.147917
0.159891
0.158489
0.108646
0.706643
0.316361
0.133221
0.0652644
0.0436906
0.0374091
0.0355619
0.034971
0.0349028
0.0350936
0.0357536
0.0369639
0.0387727
0.0413373
0.0452736
0.0508974
0.0584914
0.0634117
0.0476292
0.706649
0.308309
0.115971
0.0426569
0.0189946
0.0122014
0.0103718
0.00988859
0.00980574
0.00985892
0.0100809
0.0104893
0.0111
0.0119559
0.0132772
0.0152681
0.0184665
0.0219962
0.0186968
0.717821
0.319908
0.119322
0.0397223
0.0131397
0.00533657
0.00324558
0.00271877
0.00260317
0.0025953
0.00265228
0.00276681
0.00294079
0.00318059
0.00354434
0.00409676
0.00511809
0.00667708
0.0065415
0.73297
0.339303
0.130497
0.0435524
0.0132455
0.00402382
0.00149023
0.000846159
0.000693925
0.000662249
0.000668953
0.000695558
0.000738897
0.00079807
0.000884361
0.00100796
0.00126511
0.00178898
0.00204584
0.748348
0.361106
0.14473
0.0499356
0.0153209
0.0043497
0.0012307
0.000417416
0.000219399
0.000173607
0.000166017
0.000169761
0.000179084
0.000192295
0.000210718
0.000233092
0.000283562
0.000425803
0.000574545
0.763119
0.383476
0.160478
0.0576972
0.018317
0.00527462
0.0014187
0.00037911
0.000118699
5.68606e-05
4.32275e-05
4.1202e-05
4.24815e-05
4.50811e-05
4.87442e-05
5.19526e-05
5.89522e-05
9.06035e-05
0.000145538
0.773413
0.400768
0.17369
0.064738
0.0212747
0.00631091
0.0017227
0.000443581
0.000113451
3.31369e-05
1.45921e-05
1.05778e-05
9.99715e-06
1.03109e-05
1.09835e-05
1.13325e-05
1.16859e-05
1.73562e-05
3.34059e-05
0.778917
0.411677
0.18283
0.0699809
0.0236278
0.00719415
0.00200895
0.000523342
0.000129961
3.20303e-05
8.90517e-06
3.64392e-06
2.51368e-06
2.3372e-06
2.41338e-06
2.43346e-06
2.28238e-06
3.03406e-06
6.97331e-06
0.783673
0.420202
0.190001
0.0741944
0.025575
0.00794851
0.00226323
0.00059949
0.000150034
3.60381e-05
8.65622e-06
2.3149e-06
8.86249e-07
5.77171e-07
5.28842e-07
5.16611e-07
4.52475e-07
4.99221e-07
1.33386e-06
0.785573
0.423749
0.193294
0.0763228
0.0266416
0.00839009
0.0024207
0.00064926
0.000164198
3.95766e-05
9.28081e-06
2.18687e-06
5.68443e-07
2.05537e-07
1.27629e-07
1.10152e-07
9.18819e-08
8.10501e-08
2.36141e-07
0.783274
0.420742
0.19156
0.0757021
0.0265085
0.00838837
0.00243419
0.000656894
0.000167115
4.04623e-05
9.47859e-06
2.18088e-06
5.06968e-07
1.29286e-07
4.51237e-08
2.62272e-08
1.93959e-08
1.37861e-08
3.91262e-08
0.779133
0.413672
0.186318
0.0730094
0.0254142
0.0080119
0.00231997
0.000625385
0.000159012
3.84791e-05
8.9998e-06
2.05787e-06
4.66178e-07
1.07388e-07
2.72444e-08
9.2136e-09
4.75176e-09
2.66749e-09
6.18439e-09
0.77338
0.403243
0.178244
0.0686699
0.0235602
0.00733855
0.00210387
0.000562361
0.000141932
3.41128e-05
7.92523e-06
1.79857e-06
4.02734e-07
9.01458e-08
2.07724e-08
5.25758e-09
1.71114e-09
6.84324e-10
9.73749e-10
0.76476
0.388419
0.166991
0.0626813
0.0210128
0.00641422
0.00180683
0.000475555
0.000118368
2.80878e-05
6.44679e-06
1.4457e-06
3.19672e-07
7.04052e-08
1.57179e-08
3.62668e-09
9.23106e-10
2.69751e-10
1.73884e-10
0.753882
0.370218
0.153471
0.0556162
0.0180548
0.00535585
0.00147103
0.000378576
9.23417e-05
2.15087e-05
4.85148e-06
1.06994e-06
2.32739e-07
5.03999e-08
1.10268e-08
2.4574e-09
5.73364e-10
1.43451e-10
4.56189e-11
0.743457
0.352115
0.140125
0.0487367
0.0152149
0.0043534
0.0011571
0.000289061
6.86209e-05
1.55885e-05
3.43449e-06
7.40654e-07
1.57653e-07
3.34177e-08
7.15322e-09
1.55464e-09
3.48907e-10
8.18132e-11
1.87053e-11
0.731413
0.332225
0.12618
0.0418732
0.0124935
0.00342547
0.000875167
0.000210824
4.84023e-05
1.06611e-05
2.28207e-06
4.78869e-07
9.92974e-08
2.05208e-08
4.28413e-09
9.0774e-10
1.97973e-10
4.47739e-11
9.19185e-12
0.716121
0.309179
0.111105
0.0349128
0.00989016
0.00258296
0.000630733
0.000145716
3.21872e-05
6.84124e-06
1.41665e-06
2.8817e-07
5.80216e-08
1.1658e-08
2.36843e-09
4.88603e-10
1.03715e-10
2.2794e-11
4.49335e-12
0.699679
0.285035
0.0960337
0.0283169
0.00755521
0.00186671
0.000433135
9.54727e-05
2.01959e-05
4.1248e-06
8.23217e-07
1.61806e-07
3.15481e-08
6.14928e-09
1.21362e-09
2.4348e-10
5.02936e-11
1.07597e-11
2.06927e-12
0.683574
0.26149
0.0818517
0.0223942
0.00556483
0.00128805
0.000281722
5.88734e-05
1.18669e-05
2.31969e-06
4.44774e-07
8.42615e-08
1.58795e-08
2.9988e-09
5.74542e-10
1.12079e-10
2.25399e-11
4.70015e-12
8.86838e-13
0.669541
0.240184
0.069134
0.0172232
0.00389154
0.000822918
0.000165789
3.22098e-05
6.08856e-06
1.12436e-06
2.04897e-07
3.70617e-08
6.69143e-09
1.21362e-09
2.23768e-10
4.20516e-11
8.15494e-12
1.63507e-12
2.89034e-13
0.666263
0.232905
0.0644994
0.0153032
0.00327411
0.000656124
0.000126306
2.3787e-05
4.43618e-06
8.22688e-07
1.52873e-07
2.85245e-08
5.35183e-09
1.012e-09
1.94541e-10
3.79857e-11
7.58899e-12
1.52284e-12
2.20994e-13
0.672385
0.237855
0.066313
0.0156855
0.00330135
0.00064127
0.000118288
2.1281e-05
3.82777e-06
7.00489e-07
1.32506e-07
2.59988e-08
5.27263e-09
1.09947e-09
2.36072e-10
5.19659e-11
1.17548e-11
2.66286e-12
4.3428e-13
0.683319
0.250434
0.07254
0.0177604
0.00382862
0.000747428
0.000134787
2.28982e-05
3.75734e-06
6.16198e-07
1.06514e-07
2.03694e-08
4.39079e-09
1.0462e-09
2.6799e-10
7.20053e-11
2.00799e-11
5.60024e-12
1.15983e-12
0.698403
0.271188
0.0841805
0.0221805
0.00513823
0.00106925
0.0002021
3.48889e-05
5.51224e-06
7.97832e-07
1.08356e-07
1.51753e-08
2.79221e-09
7.88345e-10
2.82775e-10
1.07041e-10
4.05202e-11
1.4687e-11
3.82639e-12
0.71643
0.298453
0.100876
0.0291458
0.00742494
0.0016993
0.000352477
6.63951e-05
1.12885e-05
1.69606e-06
2.15489e-07
2.05154e-08
1.04643e-09
1.64151e-10
2.33008e-10
1.70652e-10
9.5399e-11
4.58309e-11
1.48607e-11
0.734499
0.328533
0.120999
0.0383583
0.0107604
0.00271861
0.000624328
0.000130756
2.48772e-05
4.22145e-06
6.11922e-07
6.53488e-08
1.43885e-09
-1.43111e-09
-2.38351e-10
1.77326e-10
2.01161e-10
1.37079e-10
5.72259e-11
0.75088
0.358586
0.143056
0.0494801
0.0152095
0.0042263
0.00107236
0.000249798
5.34059e-05
1.03575e-05
1.77159e-06
2.42591e-07
1.58632e-08
-4.99302e-09
-2.61408e-09
-5.84571e-10
1.30821e-10
2.8478e-10
1.82406e-10
0.767869
0.390254
0.167883
0.0630531
0.0211454
0.00644005
0.00180131
0.000466216
0.000112035
2.48678e-05
5.02912e-06
8.7969e-07
1.09162e-07
-4.13786e-09
-9.84585e-09
-4.86155e-09
-1.64227e-09
-1.36015e-10
3.24712e-10
0.783416
0.421078
0.19407
0.0787118
0.0286824
0.0095512
0.00294235
0.000846587
0.000229058
5.83304e-05
1.39641e-05
3.08428e-06
5.91725e-07
7.57682e-08
-9.95256e-09
-1.47124e-08
-8.87982e-09
-4.0047e-09
-8.28424e-10
0.796843
0.449818
0.220695
0.0962082
0.0379908
0.0138216
0.00469441
0.00150559
0.000460601
0.000135295
3.85148e-05
1.06705e-05
2.87523e-06
7.4574e-07
1.80606e-07
3.52706e-08
1.03817e-09
-4.7225e-09
-2.74415e-09
0.807455
0.474437
0.245372
0.113848
0.0482338
0.0189648
0.00701097
0.00246578
0.000834215
0.000273752
8.81884e-05
2.81525e-05
8.98112e-06
2.88674e-06
9.45538e-07
3.15243e-07
1.05704e-07
3.24384e-08
4.93682e-09
0.81282
0.488404
0.26043
0.125359
0.0553795
0.0228084
0.00887057
0.00329629
0.00118356
0.000414132
0.000142983
4.91981e-05
1.70263e-05
5.98334e-06
2.16393e-06
8.08394e-07
3.11628e-07
1.16866e-07
2.81457e-08
0.813733
0.49281
0.266008
0.13007
0.0585541
0.0246521
0.00983194
0.00375905
0.00139361
0.000505292
0.000181503
6.52488e-05
2.36958e-05
8.7781e-06
3.36281e-06
1.33631e-06
5.49098e-07
2.1896e-07
5.61019e-08
0.814459
0.496316
0.270699
0.134257
0.0615188
0.0264502
0.0108063
0.00424477
0.00162142
0.000607388
0.000226052
8.44412e-05
3.19571e-05
1.23729e-05
4.96802e-06
2.07358e-06
8.94828e-07
3.7326e-07
9.98188e-08
0.815751
0.500068
0.27527
0.13821
0.0642928
0.0281376
0.0117303
0.00471274
0.00184542
0.000710222
0.000272172
0.000104929
4.10768e-05
1.64878e-05
6.87782e-06
2.98644e-06
1.33975e-06
5.78686e-07
1.5985e-07
0.816698
0.502857
0.278718
0.14124
0.066457
0.0294794
0.0124805
0.00510128
0.00203591
0.000799931
0.000313515
0.000123832
4.9752e-05
2.05296e-05
8.81732e-06
3.94519e-06
1.82208e-06
8.07468e-07
2.28324e-07
0.817182
0.504449
0.280797
0.143137
0.0678536
0.030368
0.0129892
0.00537087
0.00217111
0.000865076
0.000344248
0.000138227
5.65243e-05
2.37669e-05
1.04121e-05
4.75419e-06
2.23881e-06
1.00893e-06
2.8955e-07
0.816633
0.504264
0.28112
0.143673
0.0683489
0.0307252
0.0132108
0.00549522
0.0022363
0.000897643
0.000360095
0.000145858
6.02064e-05
2.55692e-05
1.13199e-05
5.22441e-06
2.48547e-06
1.12993e-06
3.26776e-07
0.81664
0.504277
0.281134
0.143683
0.0683555
0.0307289
0.0132128
0.00549616
0.00223673
0.000897838
0.000360183
0.000145897
6.0224e-05
2.55773e-05
1.13238e-05
5.22633e-06
2.48645e-06
1.13041e-06
3.2693e-07
0.817201
0.504488
0.280838
0.143168
0.0678729
0.0303789
0.0129949
0.00537359
0.00217237
0.000865643
0.000344499
0.000138338
5.65743e-05
2.37897e-05
1.04229e-05
4.75952e-06
2.24151e-06
1.01025e-06
2.89966e-07
0.816727
0.502919
0.278782
0.141288
0.0664877
0.0294966
0.0124892
0.00510546
0.00203782
0.00080078
0.000313887
0.000123994
4.98232e-05
2.05616e-05
8.8322e-06
3.95238e-06
1.82566e-06
8.09184e-07
2.28858e-07
0.81579
0.500152
0.275357
0.138275
0.0643333
0.0281599
0.0117415
0.00471804
0.0018478
0.000711257
0.000272615
0.000105117
4.11575e-05
1.6523e-05
6.89371e-06
2.99388e-06
1.34335e-06
5.80369e-07
1.60363e-07
0.814509
0.496422
0.270806
0.134337
0.0615675
0.0264766
0.0108194
0.00425081
0.00162407
0.000608512
0.000226518
8.46332e-05
3.20365e-05
1.24063e-05
4.98253e-06
2.08012e-06
8.97879e-07
3.74642e-07
1.00228e-07
0.813793
0.492937
0.266134
0.130161
0.0586093
0.0246814
0.00984602
0.00376535
0.00139628
0.00050638
0.000181935
6.54194e-05
2.37635e-05
8.80542e-06
3.37425e-06
1.34131e-06
5.51371e-07
2.19972e-07
5.64002e-08
0.812891
0.488552
0.260576
0.125462
0.0554404
0.0228396
0.00888501
0.00330246
0.00118606
0.000415103
0.000143354
4.93397e-05
1.70815e-05
6.00546e-06
2.17323e-06
8.12491e-07
3.13515e-07
1.17728e-07
2.84159e-08
0.80755
0.474656
0.245594
0.114009
0.0483289
0.0190131
0.00703293
0.00247493
0.000837798
0.000275096
8.8681e-05
2.83321e-05
9.04705e-06
2.91133e-06
9.54938e-07
3.18919e-07
1.07167e-07
3.29983e-08
5.07523e-09
0.79696
0.450061
0.220923
0.0963617
0.0380749
0.0138614
0.00471124
0.00151214
0.000463005
0.000136141
3.88049e-05
1.07678e-05
2.9068e-06
7.55257e-07
1.82946e-07
3.54165e-08
6.30671e-10
-5.15852e-09
-2.97185e-09
0.783527
0.421297
0.194262
0.0788311
0.0287422
0.00957687
0.00295214
0.000849995
0.000230163
5.86654e-05
1.40579e-05
3.10668e-06
5.94727e-07
7.44291e-08
-1.16803e-08
-1.6015e-08
-9.72986e-09
-4.50797e-09
-1.02501e-09
0.767981
0.390461
0.168051
0.0631498
0.0211898
0.00645741
0.00180731
0.000468092
0.000112574
2.50083e-05
5.06055e-06
8.84268e-07
1.08431e-07
-5.25059e-09
-1.05555e-08
-5.22661e-09
-1.79723e-09
-1.61294e-10
3.55691e-10
0.750992
0.358778
0.1432
0.049556
0.0152413
0.00423761
0.0010759
0.000250794
5.36596e-05
1.04144e-05
1.78185e-06
2.43525e-07
1.56044e-08
-5.11571e-09
-2.57508e-09
-4.86816e-10
2.34613e-10
3.84497e-10
2.49373e-10
0.73461
0.328708
0.121119
0.0384161
0.0107824
0.00272572
0.000626341
0.000131267
2.49926e-05
4.24366e-06
6.15146e-07
6.5611e-08
1.52643e-09
-1.26993e-09
-7.17293e-11
3.08998e-10
2.94504e-10
2.03551e-10
9.42753e-11
0.716536
0.298607
0.100972
0.0291876
0.00743936
0.00170352
0.000353562
6.66425e-05
1.13375e-05
1.70383e-06
2.16298e-07
2.06015e-08
1.17406e-09
3.06159e-10
3.44509e-10
2.45055e-10
1.41476e-10
7.43642e-11
2.91575e-11
0.698501
0.271316
0.0842537
0.0222094
0.00514722
0.00107163
0.000202653
3.50006e-05
5.53067e-06
7.99837e-07
1.08372e-07
1.51948e-08
2.87747e-09
8.68571e-10
3.37353e-10
1.39509e-10
5.86439e-11
2.4745e-11
8.42889e-12
0.683405
0.250537
0.0725935
0.0177796
0.00383411
0.000748759
0.000135065
2.29459e-05
3.76306e-06
6.16265e-07
1.0637e-07
2.03808e-08
4.44242e-09
1.08675e-09
2.91975e-10
8.47132e-11
2.64732e-11
8.79955e-12
2.50063e-12
0.672454
0.237934
0.0663515
0.0156985
0.00330486
0.000642054
0.000118431
2.12998e-05
3.82841e-06
6.9997e-07
1.32351e-07
2.60024e-08
5.29953e-09
1.1179e-09
2.4567e-10
5.65053e-11
1.38152e-11
3.59814e-12
7.95609e-13
0.66628
0.232923
0.0645065
0.0153051
0.00327446
0.000656133
0.000126279
2.37725e-05
4.43105e-06
8.21277e-07
1.52561e-07
2.84752e-08
5.35109e-09
1.01594e-09
1.97018e-10
3.91773e-11
8.1148e-12
1.75334e-12
3.09972e-13
0.669521
0.240159
0.0691183
0.0172167
0.00388939
0.000822281
0.000165611
3.21622e-05
6.07622e-06
1.12128e-06
2.0416e-07
3.68918e-08
6.65391e-09
1.20575e-09
2.22241e-10
4.18076e-11
8.13877e-12
1.64841e-12
2.99893e-13
0.683574
0.26149
0.0818524
0.0223946
0.00556506
0.00128813
0.000281739
5.88726e-05
1.18644e-05
2.31834e-06
4.44258e-07
8.40967e-08
1.58323e-08
2.98625e-09
5.71354e-10
1.11296e-10
2.23508e-11
4.65528e-12
8.78023e-13
0.699679
0.285035
0.0960337
0.0283169
0.0075553
0.00186678
0.000433163
9.54775e-05
2.01949e-05
4.12368e-06
8.22685e-07
1.61614e-07
3.14884e-08
6.13235e-09
1.20906e-09
2.42294e-10
4.99877e-11
1.06805e-11
2.05143e-12
0.716121
0.309179
0.111105
0.0349126
0.00989016
0.00258303
0.00063077
0.000145728
3.21889e-05
6.84095e-06
1.41634e-06
2.88026e-07
5.79709e-08
1.16424e-08
2.36398e-09
4.87386e-10
1.03385e-10
2.27023e-11
4.46987e-12
0.731413
0.332225
0.12618
0.0418729
0.0124934
0.00342551
0.000875206
0.000210842
4.84086e-05
1.06629e-05
2.28246e-06
4.78943e-07
9.93085e-08
2.05217e-08
4.28396e-09
9.07596e-10
1.97892e-10
4.4725e-11
9.16344e-12
0.743457
0.352115
0.140125
0.0487365
0.0152148
0.00435339
0.00115713
0.000289088
6.86342e-05
1.55937e-05
3.43629e-06
7.41207e-07
1.57811e-07
3.34613e-08
7.16488e-09
1.55763e-09
3.49498e-10
8.18153e-11
1.86216e-11
0.753882
0.370219
0.153471
0.0556159
0.0180546
0.00535579
0.00147107
0.000378618
9.23669e-05
2.15198e-05
4.8556e-06
1.0713e-06
2.33155e-07
5.05202e-08
1.10604e-08
2.46585e-09
5.74216e-10
1.42802e-10
4.52003e-11
0.764761
0.38842
0.166992
0.062681
0.0210125
0.00641412
0.00180688
0.000475619
0.000118408
2.8106e-05
6.45376e-06
1.44808e-06
3.20419e-07
7.06268e-08
1.57797e-08
3.63833e-09
9.16556e-10
2.6373e-10
1.72772e-10
0.773381
0.403244
0.178245
0.0686697
0.0235598
0.00733844
0.00210391
0.000562432
0.000141979
3.41351e-05
7.93408e-06
1.80167e-06
4.03734e-07
9.04481e-08
2.0848e-08
5.24098e-09
1.64692e-09
6.51791e-10
9.79346e-10
0.779133
0.413673
0.186318
0.0730093
0.025414
0.00801181
0.00232
0.000625448
0.000159055
3.85001e-05
9.00829e-06
2.0609e-06
4.67181e-07
1.07692e-07
2.72548e-08
8.98474e-09
4.3614e-09
2.54421e-09
6.28492e-09
0.783274
0.420743
0.191561
0.0757022
0.0265085
0.00838836
0.00243423
0.000656942
0.000167145
4.0476e-05
9.48396e-06
2.1828e-06
5.07661e-07
1.29468e-07
4.47213e-08
2.4846e-08
1.74273e-08
1.35336e-08
3.99564e-08
0.785573
0.42375
0.193294
0.0763231
0.0266418
0.0083902
0.00242074
0.000649273
0.000164199
3.95753e-05
9.27988e-06
2.18669e-06
5.68699e-07
2.0538e-07
1.25207e-07
1.03347e-07
8.33307e-08
8.18016e-08
2.41176e-07
0.783673
0.420202
0.190002
0.0741951
0.0255756
0.00794873
0.00226325
0.00059945
0.000149998
3.60189e-05
8.64837e-06
2.31311e-06
8.86825e-07
5.75753e-07
5.17458e-07
4.87728e-07
4.20901e-07
5.10554e-07
1.35828e-06
0.778917
0.411678
0.182831
0.0699821
0.0236286
0.00719444
0.00200896
0.000523275
0.000129906
3.20022e-05
8.89538e-06
3.64418e-06
2.51673e-06
2.3293e-06
2.36708e-06
2.32856e-06
2.18625e-06
3.10511e-06
7.07007e-06
0.773414
0.400769
0.173691
0.0647392
0.0212755
0.00631118
0.00172268
0.0004435
0.000113392
3.31097e-05
1.45877e-05
1.05863e-05
1.00033e-05
1.02732e-05
1.08227e-05
1.10145e-05
1.14595e-05
1.76697e-05
3.37175e-05
0.76312
0.383477
0.160479
0.0576983
0.0183176
0.00527476
0.00141863
0.000379012
0.000118642
5.68437e-05
4.32367e-05
4.12234e-05
4.24762e-05
4.4939e-05
4.82853e-05
5.11843e-05
5.86045e-05
9.16514e-05
0.000146332
0.748349
0.361107
0.144731
0.0499364
0.0153212
0.0043497
0.0012306
0.000417339
0.000219369
0.000173612
0.000166043
0.000169782
0.000179006
0.000191884
0.000209692
0.000231724
0.000283491
0.000428439
0.00057604
0.73297
0.339303
0.130498
0.0435528
0.0132455
0.00402374
0.00149016
0.000846128
0.000693925
0.000662267
0.00066897
0.000695516
0.000738612
0.000797198
0.000882732
0.00100657
0.00126647
0.00179361
0.00204755
0.717821
0.319909
0.119322
0.0397223
0.0131396
0.00533645
0.00324552
0.00271874
0.00260315
0.00259527
0.0026522
0.00276659
0.00294019
0.00317942
0.00354309
0.00409737
0.00512209
0.00668115
0.00654135
0.706649
0.308309
0.115971
0.0426566
0.0189943
0.0122012
0.0103716
0.00988847
0.00980561
0.00985874
0.0100807
0.0104889
0.0110993
0.0119555
0.0132787
0.015273
0.0184713
0.0219923
0.0186921
0.706643
0.316361
0.13322
0.0652637
0.04369
0.0374086
0.0355615
0.0349706
0.0349024
0.0350932
0.0357531
0.0369634
0.0387727
0.0413392
0.0452792
0.0509047
0.05849
0.0633942
0.0476214
0.733117
0.372723
0.204523
0.142446
0.122414
0.116048
0.11373
0.112706
0.112541
0.112913
0.114397
0.117209
0.121429
0.127421
0.136356
0.147918
0.15988
0.158472
0.108644
0.809876
0.529764
0.394731
0.343569
0.326068
0.319554
0.316512
0.314748
0.314252
0.31459
0.316802
0.321288
0.328024
0.337447
0.350661
0.364667
0.370753
0.34199
0.227469
0.941702
0.825914
0.763675
0.738432
0.729121
0.725139
0.722966
0.721438
0.720863
0.720774
0.722126
0.725281
0.729881
0.735817
0.742388
0.742908
0.722298
0.647835
0.464427
)
;

boundaryField
{
    up
    {
        type            fixedValue;
        value           uniform 0;
    }
    low
    {
        type            fixedValue;
        value           uniform 1;
    }
    left
    {
        type            fixedValue;
        value           uniform 1;
    }
    right
    {
        type            fixedValue;
        value           uniform 1;
    }
    frontAndBackPlanes
    {
        type            empty;
    }
}


// ************************************************************************* //
