/*--------------------------------*- C++ -*----------------------------------*\
  =========                 |
  \\      /  F ield         | OpenFOAM: The Open Source CFD Toolbox
   \\    /   O peration     | Website:  https://openfoam.org
    \\  /    A nd           | Version:  7
     \\/     M anipulation  |
\*---------------------------------------------------------------------------*/
FoamFile
{
    version     2.0;
    format      ascii;
    class       volScalarField;
    location    "0.086";
    object      gradTz;
}
// * * * * * * * * * * * * * * * * * * * * * * * * * * * * * * * * * * * * * //

dimensions      [0 -1 0 1 0 0 0];

internalField   nonuniform List<scalar> 
1596
(
-8.06578e-16
-3.82911e-16
3.99289e-16
1.79121e-17
-7.34759e-16
0
-3.27768e-16
-3.23487e-16
-3.49306e-17
-1.77538e-16
-7.73244e-19
-1.78936e-16
8.06589e-16
-1.79749e-16
8.33541e-16
7.24121e-16
4.32076e-16
5.49721e-16
0
7.9531e-16
0
1.05711e-15
-1.40994e-17
-2.99409e-16
2.95027e-16
6.43382e-16
3.39688e-17
2.9812e-16
-1.464e-16
2.9418e-16
-2.17714e-18
-4.10861e-16
-2.60114e-16
-6.7245e-16
-6.61231e-16
-6.05051e-16
3.47186e-16
0
-3.75769e-16
0
-6.59538e-16
2.20047e-17
5.52632e-16
-1.79696e-16
2.52934e-17
-3.5168e-18
-2.59606e-18
-2.09058e-18
9.03507e-17
0
2.1277e-16
5.92396e-16
-5.91641e-17
5.01319e-17
1.1646e-16
1.91169e-16
0
6.08937e-16
-1.63073e-16
1.62477e-16
0
-1.49115e-16
-1.60275e-16
2.36711e-16
-1.80226e-16
0
0
-9.84732e-17
4.75088e-17
0
-1.68704e-16
-2.03062e-16
1.4661e-16
-1.67378e-16
-8.49967e-18
0
1.08499e-16
2.5606e-16
-2.04051e-16
0
-5.1725e-17
-1.6222e-16
0
2.25794e-16
-2.10691e-17
-1.91811e-17
-4.26e-17
1.08533e-16
1.43477e-16
1.72135e-17
2.3756e-17
-1.58332e-16
7.78495e-18
7.45378e-17
-3.40865e-17
-2.81755e-17
-3.47609e-16
3.01127e-16
-2.33157e-16
-1.02712e-18
-1.682e-16
4.46173e-18
-4.47654e-18
-1.11228e-16
0
-3.36156e-17
-1.30356e-16
-1.28827e-16
9.42411e-17
1.22922e-16
-1.60596e-18
-7.39821e-17
-7.56027e-17
5.94077e-17
2.35468e-16
-3.5215e-16
3.50965e-16
1.75753e-16
0
1.31804e-16
6.71481e-17
-3.08856e-17
1.38835e-16
-2.42466e-17
-1.12186e-16
5.02307e-19
-5.97177e-17
-9.45102e-17
-6.61885e-17
6.17795e-17
7.46333e-17
-1.03766e-18
-2.38494e-17
4.11647e-17
5.69704e-16
-5.92764e-16
0
0
-1.47191e-16
0
0
0
6.66623e-17
0
0
5.66098e-17
8.55702e-19
2.69509e-17
-5.51738e-17
0
2.93432e-17
1.31133e-17
0
-3.48768e-16
6.51352e-16
0
0
1.51586e-16
0
-4.11064e-17
4.10648e-17
-6.78525e-17
2.48845e-17
-2.50665e-17
0
3.54032e-17
4.74931e-17
0
-2.70871e-17
-2.99129e-17
-1.1699e-17
9.67792e-16
-4.35534e-16
0
-2.21527e-16
2.19047e-16
0
1.10568e-16
0
0
0
1.94864e-17
-1.95798e-17
0
-2.80377e-17
-7.11998e-18
0
8.20452e-18
1.38037e-17
0
-2.46056e-16
0
0
2.25089e-16
-3.93408e-16
4.09601e-17
1.69607e-17
-3.54188e-17
8.79006e-18
2.87441e-18
-2.00976e-17
-2.58135e-17
0
1.80042e-17
-4.3883e-18
4.45417e-18
1.62586e-17
-1.12996e-17
-4.58845e-18
1.70327e-16
-3.8132e-17
1.65706e-16
4.90191e-16
-5.22127e-17
-1.72097e-16
0
0
0
4.31765e-17
1.3407e-17
4.40282e-17
-1.03527e-17
-1.76821e-17
-8.17011e-18
-5.57798e-18
2.61018e-18
-6.16974e-18
4.2591e-18
-2.10171e-16
2.07709e-16
-3.6412e-16
-4.86239e-16
4.22952e-16
1.28224e-16
-2.19109e-16
1.5774e-16
-1.12054e-16
2.97837e-17
1.63236e-17
-1.25708e-17
4.92233e-18
-5.04533e-18
1.594e-17
0
-1.31027e-18
1.07095e-17
-1.65003e-18
-1.46833e-15
6.42368e-16
3.45294e-19
-9.86226e-17
2.82486e-17
1.25327e-16
-2.27718e-16
-7.38648e-17
5.13036e-17
-3.49986e-17
-2.38373e-17
0
-1.91006e-17
-5.16232e-18
-7.35147e-18
-4.12604e-18
3.08203e-19
-5.09606e-18
5.5575e-19
2.39822e-16
-1.97498e-16
-2.13557e-19
-1.24111e-16
-2.59558e-16
2.32867e-16
1.30812e-18
7.19813e-17
-4.99508e-17
6.66676e-17
1.37964e-17
9.32622e-18
2.04669e-17
0
1.23598e-17
5.36591e-18
0
2.2859e-18
3.42972e-19
0
1.91596e-16
1.2175e-16
-2.701e-16
2.50191e-16
-3.40472e-16
2.11678e-16
5.7124e-17
-1.77578e-17
-6.98257e-17
8.44253e-18
-8.40087e-18
-1.75288e-17
5.36525e-18
-2.7227e-18
-4.74552e-18
1.63012e-18
-1.02851e-18
6.17648e-19
-2.22627e-16
6.65642e-16
-5.04672e-16
2.25974e-16
0
0
-3.26221e-17
7.59589e-17
-3.54949e-17
6.22657e-17
0
0
1.10217e-17
-8.23464e-18
-4.12591e-18
1.28339e-18
-1.30252e-18
7.18068e-19
0
3.43294e-17
2.08556e-16
-1.39499e-16
-1.10214e-16
-1.40613e-16
-2.07944e-17
5.73142e-17
0
-3.20942e-17
-1.87243e-17
1.54955e-17
-9.7086e-18
6.01118e-18
0
1.73552e-18
2.432e-18
0
0
0
-3.36899e-17
2.7034e-16
7.17002e-17
-3.356e-16
7.49465e-17
5.60639e-17
0
0
2.87804e-17
-1.57115e-17
-1.49875e-17
9.38998e-18
-5.81326e-18
0
-8.0358e-19
5.39131e-19
0
-3.64755e-19
-1.29046e-19
-1.61801e-16
4.76271e-16
-5.30283e-16
-1.66993e-16
9.28981e-17
-4.92902e-17
3.38821e-17
0
-1.46758e-17
1.02926e-17
0
0
1.78762e-18
-1.78968e-18
3.15517e-19
-5.3482e-19
4.90359e-19
1.12474e-19
9.90556e-20
9.14552e-17
-7.444e-17
3.24413e-16
-2.0409e-16
-6.36633e-17
1.41855e-17
7.44469e-17
1.98535e-17
1.40425e-17
0
4.09834e-18
-3.69738e-18
2.22109e-18
-1.44057e-18
1.10979e-18
-1.58831e-18
-3.71038e-19
2.95714e-19
6.46084e-20
2.2889e-16
-2.4012e-16
0
1.42638e-16
-8.04116e-17
-4.25809e-17
1.72272e-17
-6.47486e-17
0
-9.43176e-19
-5.61582e-18
-2.7295e-18
2.73074e-18
-3.96973e-19
-1.07259e-18
6.14045e-19
0
1.33321e-19
-6.27342e-20
4.32384e-16
-6.61899e-17
2.31723e-16
-1.78779e-16
6.55319e-17
-1.10437e-17
-6.20176e-17
-1.27813e-17
2.05307e-17
-1.4656e-18
-5.85335e-18
4.24198e-18
-1.54594e-18
-1.2635e-18
0
0
0
-1.34082e-19
4.49019e-21
-3.56884e-16
3.40041e-16
5.73524e-20
3.6096e-17
2.57144e-17
-4.57578e-17
4.60521e-17
-2.89599e-17
1.9269e-17
-3.79395e-18
6.84427e-18
1.50932e-18
-4.99709e-19
3.06009e-20
-6.16081e-20
-1.26873e-19
0
0
0
0
0
1.23891e-16
-8.48436e-17
-1.57651e-16
0
0
-8.03302e-18
-9.57017e-18
5.88814e-18
0
-1.90353e-18
1.07387e-18
-2.39476e-18
2.5519e-18
-5.37435e-19
5.68617e-19
4.92808e-20
0
-6.87501e-17
6.95962e-17
0
-3.92449e-17
3.77282e-17
4.82874e-17
0
8.10972e-18
5.51982e-18
-2.93731e-17
0
-2.24047e-18
1.27316e-18
6.34381e-19
-3.55987e-19
4.19344e-19
0
-1.10909e-19
0
-3.54634e-17
-3.15777e-17
1.86235e-18
4.03232e-17
-8.97377e-17
0
-1.48862e-17
0
2.36136e-17
6.76258e-18
0
8.76038e-18
-7.38914e-18
1.04474e-18
-5.54704e-19
4.5717e-19
7.88486e-19
2.24059e-19
-1.7756e-19
0
6.95948e-17
-5.01857e-17
6.05242e-17
5.63714e-17
0
2.91012e-17
-2.50178e-17
-1.30823e-17
1.34807e-17
-1.9609e-17
-6.20598e-18
0
0
5.12536e-19
0
0
8.66266e-20
0
-3.26593e-16
2.54466e-16
0
6.75957e-18
-3.06721e-17
-1.41655e-18
2.10738e-17
9.12235e-18
-1.51371e-17
-2.23281e-17
2.52241e-17
-7.15301e-18
0
-1.58331e-18
0
0
0
-3.39189e-19
2.72367e-19
-9.66604e-17
8.25422e-17
1.90055e-16
-1.76716e-16
4.73077e-17
4.70537e-18
-2.12857e-17
1.46063e-17
1.94422e-17
1.09689e-17
-2.10967e-17
0
5.14701e-18
-7.08638e-19
-1.80685e-18
-2.50554e-18
1.91725e-18
-1.66825e-19
3.75177e-19
-3.42729e-16
4.1615e-16
-4.03412e-16
6.06453e-17
4.25912e-17
-3.74094e-17
2.81509e-17
-1.68884e-17
0
-9.65304e-18
1.0562e-17
4.38228e-18
5.71428e-18
4.57253e-18
-6.38006e-18
-4.26062e-19
0
-1.87233e-19
6.42552e-20
-3.703e-16
-9.70103e-17
-1.46881e-16
8.31201e-17
-1.05324e-16
7.74072e-17
-4.25397e-17
2.80332e-17
-3.88042e-18
-3.52311e-18
-1.30539e-17
8.79814e-18
-1.97143e-18
7.27486e-18
-7.80963e-18
2.72605e-19
5.99393e-19
0
-1.27622e-19
4.00376e-16
-1.06068e-16
0
0
-1.0817e-16
2.00171e-16
-4.1999e-17
-5.91926e-18
4.25887e-17
-1.4998e-18
0
0
-4.67961e-18
0
-7.65437e-18
1.64649e-17
-1.07339e-17
0
6.32947e-20
1.3154e-16
2.28931e-16
0
-8.26854e-17
-5.44935e-17
-3.82366e-17
-4.44653e-17
1.46116e-17
-3.73266e-17
-1.5979e-17
0
0
9.23318e-18
0
0
-1.19697e-17
2.03219e-17
0
0
9.04218e-16
-1.32994e-16
-4.92928e-16
-2.24597e-16
3.08379e-16
8.32077e-17
4.31147e-17
0
-1.20268e-17
9.67732e-18
2.3998e-17
-7.19209e-18
-8.10219e-18
1.17144e-17
-1.24606e-17
-2.94339e-18
0
0
0
7.23936e-17
-5.2199e-16
5.07646e-16
-4.36902e-17
-2.96202e-16
4.40882e-16
-2.09517e-16
0
0
7.27468e-17
-5.68849e-17
0
-1.24649e-17
2.25435e-17
-1.86416e-18
5.76675e-18
1.61043e-18
2.88004e-20
3.16202e-19
0
0
0
3.72177e-16
-2.52023e-16
2.18373e-16
-3.30423e-16
8.78908e-17
0
-2.43101e-17
3.3665e-17
-3.44076e-17
-5.59034e-18
3.56926e-19
-3.26596e-18
-3.492e-19
-2.56217e-18
-7.47734e-19
-3.88999e-19
5.92345e-16
-1.02505e-15
4.70525e-16
0
9.98994e-17
-1.37784e-16
1.16196e-16
-9.15636e-17
0
-3.33476e-17
4.70772e-17
0
0
3.33468e-19
0
-3.84176e-18
2.56964e-18
3.41729e-19
6.38394e-19
6.06243e-16
0
-2.02402e-16
2.25278e-16
-1.21334e-16
2.56867e-16
-1.16114e-16
-7.62391e-17
7.70353e-17
-6.93876e-18
0
0
3.55865e-18
-5.33521e-18
-3.63525e-18
6.74762e-18
-1.44537e-18
6.81348e-19
0
3.4318e-16
2.41651e-16
-2.20787e-17
-2.16187e-16
-1.9545e-17
-1.26424e-16
2.20145e-17
9.7541e-17
-4.46424e-18
7.06905e-18
0
0
-3.6456e-18
0
3.93469e-18
-4.20918e-18
0
5.20553e-19
-1.41469e-19
-1.81933e-16
-1.21494e-16
1.14014e-16
-1.1805e-17
-4.94824e-18
1.23489e-17
0
-2.79147e-18
3.7169e-17
-3.12677e-17
0
8.53489e-18
-2.06123e-18
-7.13076e-18
-6.16456e-19
-4.67614e-19
0
-4.09464e-19
0
7.10173e-17
-1.31637e-16
1.80694e-18
5.16967e-17
4.13222e-17
-4.07111e-17
-2.48216e-17
2.79601e-17
-8.2303e-18
6.52915e-18
-5.41121e-18
5.5781e-18
0
1.2374e-20
-4.52054e-19
1.61726e-18
-5.39903e-21
0
0
7.10199e-17
-7.07537e-17
-5.14195e-17
4.57707e-17
7.27083e-17
-7.31375e-17
-1.24115e-17
1.24448e-17
-8.30269e-18
8.38856e-18
-5.41161e-18
9.93201e-18
-2.7859e-18
-1.83717e-18
-5.23074e-19
1.82313e-19
4.05043e-19
1.05083e-19
-7.86169e-20
0
-1.63742e-17
8.90382e-17
-9.71529e-17
7.23429e-17
-6.45052e-17
0
4.02017e-17
-3.62035e-17
0
1.06383e-17
-1.33452e-17
-6.80553e-18
7.13263e-18
1.2049e-18
0
0
-4.09652e-19
1.47912e-19
2.82247e-16
-5.06279e-16
4.86667e-16
-4.00004e-16
1.5247e-16
-1.10237e-16
1.05481e-16
1.08515e-17
-3.63064e-17
3.22588e-17
0
-1.86383e-17
1.70283e-17
-2.88617e-18
-1.1802e-18
1.70969e-18
1.22743e-18
3.97694e-19
-1.42916e-19
6.81514e-16
0
-2.29908e-16
1.79098e-16
1.93215e-17
-1.3183e-16
2.23551e-16
-1.81877e-16
6.86002e-17
-2.4435e-17
2.50113e-17
4.46974e-18
6.80133e-18
2.81116e-18
-2.08133e-18
-3.41241e-19
-2.63032e-18
0
2.42122e-19
5.18085e-16
-5.83273e-16
0
4.55939e-17
1.75348e-16
-1.68798e-16
2.5111e-17
2.01996e-17
8.27872e-18
1.27519e-17
0
0
-1.15674e-17
2.02743e-17
-7.1345e-18
-2.34912e-18
2.57189e-18
1.96557e-19
-4.51227e-19
8.06901e-17
5.13462e-16
-5.35341e-17
-3.27565e-16
2.89011e-16
3.03622e-17
-2.45757e-17
-1.9729e-17
5.50844e-17
-6.792e-17
3.36899e-17
-3.44326e-17
4.07908e-18
-6.17406e-18
9.03719e-18
-6.10727e-18
0
0
3.50652e-19
0
1.24088e-16
-3.33217e-16
3.83121e-16
-2.60432e-16
2.59812e-16
0
6.58667e-17
-6.61685e-17
-3.97068e-17
5.69568e-17
0
1.78495e-17
-2.25754e-17
-3.114e-18
0
-2.8447e-19
-4.48665e-19
-7.46884e-20
-1.25237e-15
5.76796e-16
0
-3.08383e-16
3.08352e-16
1.55477e-16
-1.01159e-16
3.35051e-17
0
-1.14725e-18
5.84706e-18
-7.18827e-18
-8.09966e-18
1.17105e-17
-1.24521e-17
0
1.89855e-18
-1.85334e-19
-2.84869e-19
7.52895e-16
-7.23946e-16
0
8.07221e-17
6.57312e-17
-5.5638e-17
0
-3.51136e-17
-2.40523e-17
0
-2.81279e-18
0
9.24654e-18
0
0
2.33908e-18
8.15452e-18
-1.09457e-17
0
-1.00184e-19
1.06125e-16
-8.87294e-17
5.76629e-17
-3.0081e-16
1.07471e-16
0
5.92714e-18
1.60289e-17
0
-1.21715e-17
2.56056e-17
-2.69001e-17
3.14739e-18
0
-8.30969e-19
0
0
0
-5.81725e-20
0
8.20081e-17
0
-9.26608e-17
9.41338e-17
0
2.13466e-17
-1.36661e-17
4.35263e-17
-1.97052e-17
4.77812e-18
-6.2479e-18
4.44393e-18
-7.83391e-18
-1.10901e-18
0
-3.13173e-19
0
2.82031e-16
-4.79603e-16
0
-5.92529e-17
4.58419e-17
0
0
-3.73258e-17
0
-9.66846e-18
-1.05812e-17
-4.39153e-18
5.72832e-18
0
1.49924e-18
0
0
6.01181e-19
-5.78103e-19
0
3.83026e-16
-3.03167e-16
5.48546e-17
-4.24499e-17
-1.31566e-17
3.46747e-17
3.09268e-17
-2.79601e-17
8.69527e-18
1.83902e-18
-3.70386e-18
1.41257e-17
-4.14385e-18
-6.23851e-18
1.79084e-18
-2.74511e-19
1.69173e-19
-3.36663e-20
-7.05529e-16
2.54782e-16
0
0
1.5819e-17
-1.60862e-17
6.35059e-18
1.14299e-18
2.30741e-17
8.48805e-18
-7.49469e-18
-8.96974e-19
-2.12209e-18
1.58766e-18
0
3.70639e-19
2.51609e-19
9.39611e-20
3.04295e-20
0
2.02482e-16
-1.70359e-16
5.0948e-17
3.94932e-17
-7.16027e-18
-1.69341e-17
-1.1358e-17
-2.78349e-17
8.03387e-18
-2.39738e-18
4.97697e-18
1.98441e-18
-1.50959e-18
1.60234e-18
5.58259e-19
-8.25045e-19
-8.6787e-20
0
-4.16943e-17
-1.64977e-16
5.14175e-17
4.03389e-17
-1.11154e-16
7.26064e-17
2.34649e-17
-2.39847e-17
1.24231e-17
-7.62454e-18
0
0
-2.14247e-18
3.44345e-18
-1.27037e-18
7.31766e-19
-8.07952e-19
1.00135e-19
-1.77769e-19
7.51609e-17
6.35124e-17
-5.01898e-17
2.71799e-17
-3.87386e-17
-3.93305e-17
0
0
0
0
0
0
1.13348e-18
-2.03255e-18
2.14964e-18
-4.24909e-19
5.47661e-19
1.95589e-19
-1.62665e-19
1.61531e-16
-2.23626e-16
2.76115e-16
-9.0919e-17
1.30079e-16
-6.06796e-17
1.01857e-16
-4.81997e-17
-1.49841e-17
1.53281e-17
0
1.90246e-18
-1.10735e-18
1.77652e-18
-8.85857e-19
-6.95087e-19
-9.4142e-19
8.54461e-20
1.33549e-19
2.54547e-16
6.2613e-17
0
-7.22518e-17
-4.24656e-17
8.7585e-17
1.36762e-18
-2.20457e-17
1.10005e-17
-5.23013e-18
0
-1.50602e-18
0
-7.07487e-19
4.70664e-19
-3.19107e-19
-9.36148e-20
4.74423e-20
0
3.51106e-16
-6.61888e-17
2.321e-16
-1.79444e-16
-2.78428e-17
8.17717e-17
-4.82992e-17
3.79823e-18
2.34826e-18
-5.48993e-18
4.63439e-18
0
0
1.02192e-18
-1.92705e-19
8.66821e-20
3.32613e-19
-1.09689e-19
0
1.63711e-20
0
-5.4608e-17
2.66813e-16
-1.72296e-16
-1.32397e-16
7.08812e-17
-4.69684e-17
4.02771e-17
1.40927e-17
-7.93609e-18
2.58295e-18
-1.96405e-18
4.73499e-19
1.72334e-18
-4.58465e-20
-3.62637e-19
3.24305e-19
-6.92929e-20
8.21266e-16
-2.54245e-16
8.91728e-17
-2.91846e-16
6.36631e-17
-7.96677e-17
4.62816e-17
0
0
-1.10995e-18
-1.95044e-18
-4.99888e-19
0
-1.92174e-18
-1.10978e-18
6.34487e-19
-3.89196e-20
1.05445e-19
1.53114e-19
0
-2.38003e-16
3.46075e-16
4.48763e-17
-2.35902e-16
4.92902e-17
-5.8681e-17
1.90255e-17
3.86402e-17
0
0
4.86412e-19
2.98098e-18
0
-1.45257e-18
-5.02495e-19
8.22175e-20
-1.57127e-19
-2.16062e-19
0
-1.35961e-16
6.03269e-17
2.34427e-16
1.29685e-16
-2.24193e-16
9.27973e-17
-4.38797e-17
2.53387e-17
-2.34702e-17
0
0
0
-3.57639e-18
4.24386e-19
-8.07565e-19
0
-3.47689e-20
1.6444e-19
-6.04445e-16
5.57716e-16
4.9653e-16
-5.94767e-16
2.20362e-16
-1.98644e-16
0
4.83315e-17
-6.12149e-17
2.98037e-17
-1.69632e-17
1.08035e-17
6.82242e-18
3.69878e-18
2.29012e-18
0
0
0
0
7.02733e-16
-3.6607e-16
0
0
-8.66763e-17
1.7155e-16
-1.07466e-16
-5.28996e-17
5.23033e-17
2.71897e-17
3.66136e-17
-1.12097e-17
3.94429e-18
2.10433e-18
1.27692e-18
1.02407e-18
1.5692e-18
-7.00152e-20
7.13167e-20
-6.9734e-16
6.0968e-16
2.75166e-16
-1.50041e-16
2.49131e-16
-1.56645e-16
-9.73381e-17
-6.83998e-17
0
-5.72419e-17
5.80031e-18
1.3946e-17
-8.25881e-18
-5.36554e-18
-1.63592e-18
-1.31413e-18
-1.05864e-18
0
0
-2.39827e-16
0
1.58342e-16
3.45006e-19
0
0
1.00407e-16
7.05789e-17
0
3.26207e-17
0
-2.07018e-17
-4.60196e-18
7.70939e-18
0
4.31236e-18
-5.58471e-19
5.69716e-19
0
5.27207e-16
0
2.90686e-16
-5.11798e-16
4.14706e-16
2.69557e-16
-1.8545e-17
0
8.59668e-18
4.35093e-17
0
-2.52172e-17
2.35907e-17
-1.91175e-17
-3.84124e-18
-3.33333e-18
-1.15578e-18
-2.51468e-19
-1.32612e-18
-4.59594e-16
6.53677e-16
-1.64851e-16
-3.86276e-16
-1.97565e-16
-1.476e-16
-2.14937e-16
-6.60658e-17
1.14813e-17
1.63544e-17
-1.63237e-17
3.95978e-17
-1.61586e-17
2.80889e-17
-5.10849e-18
0
7.65072e-18
-5.24129e-18
1.24207e-18
1.08423e-15
-3.73683e-17
-6.94944e-16
4.90194e-16
-4.00353e-16
3.01752e-16
-1.86073e-17
-8.02429e-17
5.86973e-17
1.79601e-17
-4.5482e-18
-3.49992e-17
8.2958e-18
1.2721e-17
-2.99648e-18
3.03066e-18
-7.92428e-18
-3.23403e-18
-3.61607e-18
5.32259e-16
2.02349e-16
3.24202e-16
-2.51839e-16
-1.71329e-16
2.25407e-17
-9.5605e-17
2.22758e-16
1.259e-17
7.44789e-17
3.84664e-17
-3.18825e-17
0
-1.80054e-17
0
0
1.93661e-17
7.47489e-18
4.09088e-18
4.82311e-16
0
3.14374e-16
2.50214e-16
-1.92277e-16
1.46967e-16
0
-8.31153e-17
-1.03166e-16
-7.76649e-17
-3.88069e-17
3.2243e-17
0
0
0
0
-1.82942e-17
-1.99152e-17
0
-9.43707e-16
0
-3.29244e-17
-3.02754e-17
2.978e-16
-1.33266e-16
-5.42236e-17
-5.54381e-17
1.08015e-16
0
2.48848e-17
-2.43845e-18
2.90917e-17
0
0
4.3967e-17
-3.42378e-18
2.40123e-17
-1.28031e-17
6.52525e-16
1.66275e-16
-1.64558e-16
-1.29505e-16
-3.76652e-16
2.317e-16
2.45631e-16
-1.41772e-17
-7.8101e-17
8.39395e-17
1.61168e-17
-9.00337e-17
-6.61259e-17
-5.41914e-17
-6.00683e-17
-5.10008e-17
5.66851e-17
-2.54557e-18
1.31131e-17
-1.93799e-16
8.02165e-17
-3.71325e-16
5.32704e-17
-5.30766e-17
0
-1.25089e-16
-2.12102e-17
-1.14688e-16
2.43103e-17
1.12186e-16
7.19482e-17
-2.03764e-17
-6.43703e-18
5.62249e-17
0
-1.2898e-16
-5.48719e-17
-1.09721e-18
4.13056e-16
-9.82833e-18
5.83189e-16
-2.55835e-16
1.02711e-18
5.83748e-18
1.66631e-16
-2.9527e-17
1.11228e-16
-1.03352e-16
-9.8856e-17
0
1.28825e-16
9.26108e-17
1.55089e-18
-2.30209e-18
7.47128e-17
5.57339e-17
0
-2.89154e-16
0
-4.81708e-17
2.49251e-16
6.98112e-18
5.17941e-17
-1.6113e-16
1.47308e-16
1.78311e-16
1.73261e-16
1.70996e-16
0
-1.25151e-16
0
8.20078e-18
-8.51724e-18
0
-9.44808e-19
4.9058e-17
2.12828e-16
2.15206e-17
-1.31355e-16
4.20447e-16
-1.29576e-16
0
0
-2.27821e-16
-1.72765e-16
-1.67851e-16
-3.361e-16
-4.75083e-17
0
0
0
-1.9258e-17
2.03798e-17
1.39871e-16
-4.98518e-17
2.30516e-17
0
-3.15454e-16
-2.62218e-16
2.91568e-16
-2.92805e-16
-4.08855e-16
4.69487e-16
1.50525e-16
0
2.10519e-16
2.70946e-16
-5.82205e-17
3.29186e-16
-5.47763e-17
5.70088e-17
2.3288e-16
-1.32936e-16
0
-4.01757e-16
0
-3.71427e-16
3.58817e-16
0
5.95508e-16
2.70597e-16
-5.99443e-16
5.08966e-16
-1.52641e-18
-1.47898e-16
-2.62332e-16
0
4.104e-16
-6.7245e-16
7.27011e-16
-9.27812e-16
0
0
4.03041e-16
-5.58213e-18
-1.34805e-17
-7.42902e-16
7.61863e-16
-3.60382e-16
3.58913e-16
3.54206e-16
-2.87346e-16
0
0
6.15151e-16
-6.25748e-16
-6.46931e-16
6.47554e-16
-6.35847e-16
6.92013e-16
-1.08855e-15
0
)
;

boundaryField
{
    up
    {
        type            calculated;
        value           nonuniform List<scalar> 
84
(
0
0
0
0
-3.40865e-17
5.94077e-17
-2.38494e-17
1.31133e-17
-1.1699e-17
0
-4.58845e-18
4.2591e-18
-1.65003e-18
5.5575e-19
3.42972e-19
6.17648e-19
0
0
-1.29046e-19
9.90556e-20
6.46084e-20
-6.27342e-20
4.49019e-21
0
2.23052e-20
1.51624e-20
-1.60165e-19
0
2.72367e-19
4.30256e-19
6.42552e-20
-1.27622e-19
6.32947e-20
0
1.38873e-20
3.14039e-19
-3.79074e-19
6.29806e-19
0
-1.38862e-19
0
0
-7.8242e-20
1.47912e-19
-1.42916e-19
2.42122e-19
-4.51227e-19
3.50652e-19
-7.46884e-20
-2.84869e-19
0
0
0
-5.78103e-19
-8.93806e-20
3.04295e-20
0
-1.77769e-19
-1.62665e-19
1.11279e-19
0
0
-6.92929e-20
1.53114e-19
-2.16062e-19
1.6444e-19
0
7.13167e-20
0
0
-1.32612e-18
1.24207e-18
-3.61607e-18
4.09088e-18
0
-1.28031e-17
1.31131e-17
-1.09721e-18
0
4.9058e-17
-4.98518e-17
0
0
0
)
;
    }
    low
    {
        type            calculated;
        value           nonuniform List<scalar> 
84
(
-8.07841e-16
7.9531e-16
-3.73481e-16
6.10718e-16
1.09654e-16
-2.85013e-17
2.38086e-16
4.35759e-17
0
9.7057e-16
-2.46056e-16
1.68516e-16
-2.10171e-16
-1.46901e-15
2.39822e-16
0
-2.22627e-16
3.43294e-17
-3.36899e-17
-1.61801e-16
9.14552e-17
2.2889e-16
4.30107e-16
-3.56884e-16
0
-6.87501e-17
-3.54634e-17
0
-3.26593e-16
-9.66604e-17
-3.41512e-16
-3.69551e-16
4.00134e-16
1.3154e-16
9.04946e-16
7.23936e-17
0
5.92345e-16
6.08628e-16
3.44425e-16
-1.82578e-16
7.10173e-17
7.10199e-17
0
2.82247e-16
6.83898e-16
5.18085e-16
8.26169e-17
0
-1.2531e-15
7.52895e-16
-1.00184e-19
-5.81725e-20
2.82031e-16
0
-7.02875e-16
0
-4.16943e-17
7.51609e-17
1.59886e-16
2.51892e-16
3.48828e-16
1.63711e-20
8.19786e-16
0
0
-6.04445e-16
7.02581e-16
-6.97503e-16
-2.39827e-16
5.27891e-16
-4.59594e-16
1.08785e-15
5.3453e-16
4.82311e-16
-9.43707e-16
6.50114e-16
-1.91181e-16
4.13056e-16
-2.87999e-16
2.12828e-16
2.53401e-17
-4.01757e-16
4.03673e-16
)
;
    }
    left
    {
        type            calculated;
        value           nonuniform List<scalar> 
19
(
-8.06578e-16
-3.834e-16
3.99289e-16
1.82126e-17
-7.35487e-16
0
-3.27768e-16
-3.23487e-16
-3.66819e-17
-1.77538e-16
-7.73244e-19
-1.78936e-16
8.14467e-16
-1.79749e-16
8.33541e-16
7.24121e-16
4.32076e-16
6.37806e-16
0
)
;
    }
    right
    {
        type            calculated;
        value           nonuniform List<scalar> 
19
(
4.03041e-16
-5.09301e-18
-1.34805e-17
-7.43202e-16
7.62591e-16
-3.60382e-16
3.58913e-16
3.54206e-16
-2.85595e-16
0
0
6.211e-16
-6.33625e-16
-6.46931e-16
6.47554e-16
-6.35847e-16
6.92013e-16
-1.17664e-15
0
)
;
    }
    frontAndBackPlanes
    {
        type            empty;
    }
}


// ************************************************************************* //
