/*--------------------------------*- C++ -*----------------------------------*\
  =========                 |
  \\      /  F ield         | OpenFOAM: The Open Source CFD Toolbox
   \\    /   O peration     | Website:  https://openfoam.org
    \\  /    A nd           | Version:  7
     \\/     M anipulation  |
\*---------------------------------------------------------------------------*/
FoamFile
{
    version     2.0;
    format      ascii;
    class       volScalarField;
    location    "0.21";
    object      gradTy;
}
// * * * * * * * * * * * * * * * * * * * * * * * * * * * * * * * * * * * * * //

dimensions      [0 -1 0 1 0 0 0];

internalField   nonuniform List<scalar> 
1596
(
-0.686033
-1.27256
-1.74979
-2.20362
-2.63317
-3.09489
-3.56336
-4.10268
-4.73713
-5.48421
-6.51405
-7.82526
-9.64988
-12.2598
-16.3316
-22.6948
-34.0762
-55.0793
-130.113
-2.0878
-2.5692
-2.88906
-3.17734
-3.44935
-3.76909
-4.11652
-4.55147
-5.09794
-5.7605
-6.68213
-7.84633
-9.40879
-11.4927
-14.4454
-18.4405
-24.3881
-33.1339
-57.9559
-3.73161
-3.88548
-3.96519
-4.05668
-4.1586
-4.3265
-4.53817
-4.84643
-5.26952
-5.80315
-6.56549
-7.52532
-8.79062
-10.4176
-12.6172
-15.4134
-19.301
-24.6333
-36.0692
-5.44859
-5.1633
-4.96026
-4.83849
-4.76448
-4.77542
-4.84414
-5.01396
-5.29695
-5.68306
-6.26929
-7.0168
-8.00214
-9.24747
-10.8867
-12.8862
-15.5369
-18.9814
-24.8755
-7.02477
-6.33017
-5.85493
-5.52547
-5.28056
-5.13703
-5.06361
-5.09323
-5.23303
-5.46996
-5.8833
-6.433
-7.17475
-8.11416
-9.34056
-10.8016
-12.6806
-15.0249
-18.4404
-8.26918
-7.31647
-6.63087
-6.12303
-5.72459
-5.43748
-5.22991
-5.12531
-5.12761
-5.22308
-5.47609
-5.84961
-6.38502
-7.08041
-7.99793
-9.08317
-10.4575
-12.1255
-14.3169
-9.08096
-8.06827
-7.26874
-6.63272
-6.11011
-5.69843
-5.37069
-5.14332
-5.01902
-4.9852
-5.09374
-5.31296
-5.67402
-6.17208
-6.85175
-7.66317
-8.68964
-9.91714
-11.4347
-9.46314
-8.55345
-7.74414
-7.04347
-6.43635
-5.92678
-5.49832
-5.16401
-4.92749
-4.77878
-4.75962
-4.84468
-5.05764
-5.39309
-5.88378
-6.48661
-7.26014
-8.18353
-9.28982
-9.49932
-8.81129
-8.0803
-7.37598
-6.72453
-6.14483
-5.63528
-5.20976
-4.87485
-4.62449
-4.49266
-4.46051
-4.54628
-4.74503
-5.08114
-5.51841
-6.09833
-6.79863
-7.62863
-9.2595
-8.80798
-8.2127
-7.563
-6.91383
-6.30068
-5.73803
-5.24425
-4.83062
-4.49599
-4.26912
-4.13731
-4.11515
-4.19881
-4.40693
-4.70981
-5.1374
-5.66867
-6.30263
-8.96288
-8.67771
-8.21746
-7.64827
-7.03157
-6.41287
-5.8201
-5.27765
-4.80248
-4.39895
-4.09281
-3.87699
-3.76377
-3.75065
-3.85212
-4.04412
-4.34829
-4.74575
-5.23102
-8.5981
-8.48281
-8.15227
-7.6716
-7.10309
-6.49692
-5.89064
-5.31457
-4.79146
-4.33136
-3.95877
-3.67172
-3.48119
-3.38611
-3.39796
-3.4974
-3.69997
-3.98923
-4.3579
-8.14737
-8.18318
-7.97862
-7.59296
-7.0862
-6.51047
-5.90897
-5.31716
-4.7629
-4.26152
-3.83771
-3.4939
-3.24076
-3.07863
-3.01705
-3.04064
-3.16072
-3.36329
-3.64061
-7.74947
-7.87015
-7.7635
-7.46302
-7.01824
-6.47956
-5.89233
-5.29582
-4.722
-4.19075
-3.72781
-3.33929
-3.03608
-2.81985
-2.69883
-2.66076
-2.71397
-2.84656
-3.05105
-7.38288
-7.57044
-7.53791
-7.30772
-6.91874
-6.41719
-5.84825
-5.2535
-4.66805
-4.11555
-3.6231
-3.19989
-2.85731
-2.59818
-2.42979
-2.34237
-2.34201
-2.41865
-2.56532
-7.02399
-7.27638
-7.30608
-7.13429
-6.7936
-6.32653
-5.777
-5.18792
-4.59665
-4.02985
-3.51608
-3.06698
-2.69453
-2.40251
-2.1975
-2.07161
-2.02932
-2.06203
-2.16339
-6.69954
-6.99685
-7.07686
-6.95289
-6.65233
-6.21493
-5.68326
-5.10111
-4.50749
-3.93144
-3.40283
-2.93522
-2.54114
-2.22499
-1.99278
-1.83794
-1.76371
-1.76264
-1.82897
-6.41584
-6.74501
-6.86449
-6.77878
-6.51025
-6.09626
-5.57869
-5.00205
-4.40685
-3.82414
-3.28487
-2.80415
-2.39479
-2.06157
-1.80983
-1.63388
-1.53592
-1.50937
-1.54892
-6.12945
-6.51732
-6.67945
-6.62831
-6.38626
-5.98987
-5.48148
-4.90678
-4.30805
-3.71838
-3.16974
-2.67856
-2.25775
-1.91214
-1.64626
-1.45489
-1.33929
-1.29351
-1.31261
-5.83166
-6.28795
-6.49985
-6.48479
-6.26762
-5.88613
-5.38427
-4.8096
-4.20654
-3.61035
-3.05402
-2.55512
-2.12652
-1.7728
-1.49746
-1.29535
-1.16691
-1.10682
-1.11057
-5.57584
-6.08013
-6.33915
-6.35954
-6.16534
-5.79578
-5.29717
-4.71969
-4.11033
-3.50674
-2.94302
-2.4378
-2.00373
-1.64485
-1.36337
-1.1536
-1.01513
-0.943417
-0.935061
-5.34759
-5.89753
-6.20077
-6.25548
-6.08305
-5.72343
-5.22569
-4.64302
-4.02546
-3.41329
-2.84186
-2.33082
-1.89259
-1.53051
-1.24512
-1.02948
-0.881674
-0.797915
-0.777762
-5.13495
-5.73602
-6.08388
-6.17243
-6.02103
-5.67027
-5.17199
-4.58271
-3.95577
-3.33423
-2.75473
-2.23803
-1.79635
-1.43238
-1.14489
-0.924754
-0.766931
-0.666076
-0.627082
-4.94372
-5.59592
-5.98561
-6.10297
-5.96698
-5.61884
-5.11467
-4.51407
-3.87425
-3.24156
-2.65256
-2.13038
-1.68653
-1.32323
-1.03718
-0.817323
-0.652495
-0.529241
-0.437202
-4.78739
-5.48707
-5.92684
-6.09125
-5.99808
-5.68537
-5.20958
-4.62883
-4.00084
-3.37374
-2.78241
-2.25338
-1.79819
-1.42191
-1.12211
-0.890308
-0.712276
-0.57114
-0.443843
-4.67752
-5.406
-5.87627
-6.07542
-6.01942
-5.74295
-5.29984
-4.74541
-4.13567
-3.51874
-2.9278
-2.3913
-1.92185
-1.52713
-1.20734
-0.958656
-0.76907
-0.626344
-0.513677
-4.67218
-5.40497
-5.88647
-6.10516
-6.07521
-5.82935
-5.4175
-4.89218
-4.30637
-3.70611
-3.12319
-2.58502
-2.10453
-1.69127
-1.34888
-1.07787
-0.869871
-0.715101
-0.598195
-4.78349
-5.49491
-5.96321
-6.17963
-6.15805
-5.93006
-5.54209
-5.04338
-4.48324
-3.90462
-3.3366
-2.80415
-2.31866
-1.88988
-1.52416
-1.22706
-0.995109
-0.821973
-0.693176
-4.99826
-5.67338
-6.10831
-6.30366
-6.27508
-6.0536
-5.68258
-5.20771
-4.67422
-4.1215
-3.57507
-3.05658
-2.57395
-2.13478
-1.74609
-1.41848
-1.15518
-0.95587
-0.807839
-5.30929
-5.92371
-6.30698
-6.46661
-6.41959
-6.19632
-5.83739
-5.38471
-4.87932
-4.35696
-3.83941
-3.34497
-2.87677
-2.4375
-2.03084
-1.67023
-1.36654
-1.13003
-0.953246
-5.71048
-6.24177
-6.56222
-6.67697
-6.60389
-6.37279
-6.02191
-5.58927
-5.11187
-4.62224
-4.13889
-3.67793
-3.23793
-2.81485
-2.40353
-2.0139
-1.66051
-1.36927
-1.147
-6.14083
-6.60065
-6.85718
-6.92301
-6.81994
-6.57786
-6.23285
-5.81902
-5.36942
-4.91387
-4.46849
-4.04943
-3.65325
-3.27072
-2.88403
-2.48993
-2.09118
-1.723
-1.42193
-6.62887
-7.00926
-7.19471
-7.20599
-7.06872
-6.81251
-6.47094
-6.07392
-5.65043
-5.2277
-4.81999
-4.44558
-4.10345
-3.78595
-3.4673
-3.12916
-2.74034
-2.3095
-1.85091
-7.19641
-7.48281
-7.59009
-7.54398
-7.37244
-7.10397
-6.76853
-6.39159
-5.99773
-5.611
-5.24456
-4.91837
-4.63761
-4.40522
-4.20465
-4.02292
-3.81162
-3.54507
-3.19162
-7.82317
-8.00265
-8.01312
-7.8908
-7.66578
-7.36535
-7.01471
-6.6354
-6.24737
-5.86933
-5.51338
-5.19548
-4.92348
-4.70643
-4.54523
-4.44825
-4.39976
-4.38663
-4.38067
-8.52815
-8.56406
-8.45668
-8.24473
-7.95575
-7.61403
-7.2396
-6.85083
-6.46398
-6.0931
-5.7501
-5.44567
-5.18655
-4.97826
-4.82402
-4.72814
-4.6922
-4.72042
-4.81682
-9.30353
-9.16569
-8.93463
-8.63506
-8.28608
-7.90613
-7.5105
-7.1141
-6.73018
-6.36981
-6.04342
-5.75844
-5.51934
-5.32799
-5.18385
-5.08228
-5.01719
-4.9797
-4.96064
-10.0097
-9.70977
-9.36437
-8.98332
-8.57773
-8.16014
-7.74187
-7.33422
-6.94763
-6.59062
-6.2712
-5.99479
-5.76376
-5.57828
-5.43646
-5.33342
-5.26322
-5.21881
-5.19279
-10.5791
-10.1639
-9.73072
-9.28493
-8.83369
-8.38555
-7.9488
-7.53182
-7.14278
-6.78816
-6.47418
-6.20489
-5.98146
-5.80322
-5.66787
-5.57055
-5.50538
-5.46573
-5.44438
-11.0317
-10.5265
-10.0248
-9.52843
-9.04155
-8.56958
-8.11835
-7.69394
-7.30278
-6.94982
-6.63998
-6.37641
-6.15943
-5.9879
-5.85917
-5.76834
-5.70945
-5.676
-5.66087
-11.3602
-10.7876
-10.2343
-9.70082
-9.18841
-8.69969
-8.23844
-7.80899
-7.41649
-7.06485
-6.75814
-6.49892
-6.28697
-6.12081
-5.99752
-5.91202
-5.85813
-5.82923
-5.81806
-11.5738
-10.9365
-10.3461
-9.78989
-9.26321
-8.76565
-8.29936
-7.86756
-7.47465
-7.12397
-6.81917
-6.56252
-6.35358
-6.19074
-6.07104
-5.98945
-5.9398
-5.9155
-5.90926
-11.5738
-10.9366
-10.3462
-9.79003
-9.26336
-8.76581
-8.29952
-7.86773
-7.47482
-7.12415
-6.81935
-6.56271
-6.35378
-6.19095
-6.07126
-5.98968
-5.94003
-5.91575
-5.90951
-11.3603
-10.7878
-10.2345
-9.70116
-9.18879
-8.70009
-8.23886
-7.80943
-7.41696
-7.06534
-6.75865
-6.49945
-6.28754
-6.1214
-5.99815
-5.9127
-5.85887
-5.83004
-5.81895
-11.0318
-10.5269
-10.0252
-9.52896
-9.04215
-8.57022
-8.11903
-7.69466
-7.30353
-6.95061
-6.6408
-6.37727
-6.16034
-5.98886
-5.86019
-5.76943
-5.71062
-5.67726
-5.66222
-10.5793
-10.1643
-9.73129
-9.28561
-8.83446
-8.38638
-7.94968
-7.53274
-7.14375
-6.78918
-6.47523
-6.206
-5.98261
-5.80443
-5.66914
-5.57188
-5.50679
-5.46721
-5.44594
-10.0099
-9.71024
-9.36503
-8.98411
-8.57862
-8.16111
-7.74291
-7.33532
-6.94879
-6.59184
-6.27247
-5.99611
-5.76514
-5.57971
-5.43794
-5.33496
-5.26482
-5.22048
-5.19453
-9.30376
-9.1662
-8.93534
-8.63592
-8.28706
-7.90721
-7.51166
-7.11533
-6.73148
-6.37117
-6.04484
-5.75991
-5.52086
-5.32954
-5.18542
-5.08385
-5.01874
-4.98122
-4.96211
-8.52839
-8.56465
-8.45755
-8.24586
-7.9571
-7.61558
-7.24134
-6.85275
-6.46607
-6.09536
-5.75256
-5.44831
-5.18941
-4.98132
-4.82727
-4.73145
-4.69534
-4.72297
-4.81815
-7.82333
-8.00275
-8.01326
-7.89101
-7.66607
-7.36572
-7.01513
-6.63586
-6.24783
-5.86973
-5.51368
-5.19559
-4.92331
-4.70589
-4.5443
-4.44703
-4.39878
-4.38691
-4.38382
-7.19648
-7.48315
-7.59072
-7.54494
-7.37377
-7.10568
-6.77062
-6.39403
-6.00049
-5.61404
-5.24786
-4.92192
-4.64145
-4.40951
-4.2097
-4.0292
-3.81975
-3.5556
-3.20486
-6.62889
-7.00932
-7.19492
-7.20643
-7.06942
-6.81349
-6.4722
-6.07544
-5.65218
-5.22965
-4.82211
-4.44788
-4.106
-3.78886
-3.47074
-3.13319
-2.74482
-2.31389
-1.85423
-6.14083
-6.60066
-6.85731
-6.92337
-6.82058
-6.5788
-6.23409
-5.82053
-5.37117
-4.91583
-4.47064
-4.05178
-3.65583
-3.27357
-2.88715
-2.49319
-2.0943
-1.72566
-1.424
-5.71045
-6.24172
-6.56228
-6.67723
-6.60441
-6.37362
-6.02303
-5.59068
-5.11351
-4.62409
-4.14092
-3.68013
-3.24029
-2.81734
-2.40607
-2.01634
-1.66267
-1.37106
-1.14844
-5.30926
-5.92364
-6.30698
-6.46679
-6.42003
-6.19705
-5.83842
-5.38601
-4.88084
-4.35868
-3.84128
-3.34696
-2.87884
-2.43959
-2.03285
-1.67206
-1.36811
-1.13134
-0.954338
-4.99821
-5.67326
-6.10826
-6.30377
-6.27543
-6.05423
-5.68349
-5.20889
-4.67562
-4.12306
-3.57675
-3.05833
-2.57572
-2.1365
-1.74769
-1.41989
-1.15638
-0.956879
-0.808712
-4.78345
-5.49479
-5.96313
-6.1797
-6.15834
-5.93061
-5.5429
-5.04443
-4.48449
-3.90601
-3.33808
-2.80566
-2.32015
-1.89128
-1.52544
-1.22817
-0.996056
-0.82279
-0.693914
-4.67213
-5.40484
-5.88637
-6.10519
-6.07545
-5.82982
-5.41822
-4.89311
-4.30746
-3.70733
-3.12447
-2.58631
-2.10577
-1.69242
-1.34991
-1.07876
-0.870645
-0.715794
-0.598866
-4.67746
-5.40586
-5.87614
-6.07537
-6.01952
-5.74323
-5.3003
-4.74604
-4.13643
-3.51959
-2.92869
-2.39218
-1.92269
-1.5279
-1.208
-0.959229
-0.769572
-0.626835
-0.514271
-4.78748
-5.48712
-5.92691
-6.09137
-5.99827
-5.68565
-5.20996
-4.62931
-4.0014
-3.37437
-2.78309
-2.25408
-1.79888
-1.42258
-1.12275
-0.890903
-0.712821
-0.571621
-0.444216
-4.94382
-5.59601
-5.98566
-6.10296
-5.96689
-5.61867
-5.11443
-4.51377
-3.87391
-3.2412
-2.6522
-2.13005
-1.68623
-1.32296
-1.03694
-0.817111
-0.652293
-0.529031
-0.43694
-5.13502
-5.73608
-6.08393
-6.17246
-6.02105
-5.67027
-5.17198
-4.5827
-3.95576
-3.33421
-2.75472
-2.23803
-1.79637
-1.4324
-1.14491
-0.924784
-0.766966
-0.666117
-0.627118
-5.34764
-5.89757
-6.20079
-6.25549
-6.08303
-5.7234
-5.22565
-4.64298
-4.02542
-3.41326
-2.84183
-2.33081
-1.89259
-1.53051
-1.24513
-1.0295
-0.881699
-0.797942
-0.777787
-5.57588
-6.08016
-6.33917
-6.35954
-6.16532
-5.79575
-5.29714
-4.71965
-4.1103
-3.50671
-2.94301
-2.43779
-2.00373
-1.64486
-1.36338
-1.15362
-1.01515
-0.943437
-0.93508
-5.83168
-6.28797
-6.49986
-6.48478
-6.2676
-5.88611
-5.38425
-4.80958
-4.20652
-3.61033
-3.05401
-2.55512
-2.12652
-1.7728
-1.49747
-1.29536
-1.16693
-1.10684
-1.11058
-6.12947
-6.51734
-6.67945
-6.6283
-6.38624
-5.98985
-5.48146
-4.90676
-4.30803
-3.71837
-3.16973
-2.67856
-2.25775
-1.91214
-1.64627
-1.4549
-1.3393
-1.29353
-1.31262
-6.41585
-6.74502
-6.86449
-6.77877
-6.51024
-6.09625
-5.57868
-5.00204
-4.40684
-3.82413
-3.28486
-2.80414
-2.39479
-2.06157
-1.80983
-1.63389
-1.53593
-1.50938
-1.54893
-6.69954
-6.99685
-7.07685
-6.95288
-6.65232
-6.21492
-5.68325
-5.10111
-4.50749
-3.93143
-3.40282
-2.93522
-2.54114
-2.22499
-1.99278
-1.83794
-1.76371
-1.76265
-1.82897
-7.02399
-7.27637
-7.30607
-7.13428
-6.79359
-6.32653
-5.77699
-5.18792
-4.59665
-4.02985
-3.51608
-3.06698
-2.69453
-2.40251
-2.19751
-2.07162
-2.02932
-2.06203
-2.16339
-7.38287
-7.57043
-7.5379
-7.30771
-6.91873
-6.41719
-5.84825
-5.2535
-4.66804
-4.11554
-3.6231
-3.19989
-2.85731
-2.59818
-2.42979
-2.34236
-2.342
-2.41864
-2.56531
-7.74945
-7.87014
-7.76349
-7.46301
-7.01825
-6.47956
-5.89234
-5.29582
-4.722
-4.19075
-3.7278
-3.33929
-3.03608
-2.81985
-2.69882
-2.66075
-2.71396
-2.84655
-3.05103
-8.14735
-8.18317
-7.97862
-7.59296
-7.0862
-6.51048
-5.90898
-5.31717
-4.7629
-4.26152
-3.83771
-3.4939
-3.24076
-3.07862
-3.01704
-3.04063
-3.1607
-3.36326
-3.64059
-8.59807
-8.48279
-8.15226
-7.6716
-7.1031
-6.49693
-5.89064
-5.31457
-4.79146
-4.33136
-3.95877
-3.67172
-3.48119
-3.3861
-3.39795
-3.49738
-3.69994
-3.98919
-4.35788
-8.96285
-8.67771
-8.21747
-7.64828
-7.03158
-6.41288
-5.82011
-5.27766
-4.80248
-4.39895
-4.0928
-3.87699
-3.76376
-3.75064
-3.85211
-4.0441
-4.34826
-4.74572
-5.23101
-9.25948
-8.80798
-8.21272
-7.56301
-6.91385
-6.3007
-5.73804
-5.24425
-4.83062
-4.49599
-4.26912
-4.13731
-4.11514
-4.1988
-4.40692
-4.70979
-5.13737
-5.66864
-6.30262
-9.49932
-8.81131
-8.08033
-7.376
-6.72455
-6.14484
-5.63529
-5.20976
-4.87485
-4.62449
-4.49266
-4.46051
-4.54627
-4.74501
-5.08113
-5.51838
-6.0983
-6.7986
-7.62863
-9.46316
-8.55348
-7.74416
-7.04349
-6.43636
-5.92679
-5.49832
-5.16402
-4.9275
-4.77879
-4.75962
-4.84468
-5.05764
-5.39308
-5.88377
-6.48659
-7.26012
-8.18351
-9.28984
-9.08099
-8.0683
-7.26876
-6.63274
-6.11012
-5.69844
-5.3707
-5.14333
-5.01903
-4.9852
-5.09374
-5.31296
-5.67401
-6.17206
-6.85174
-7.66315
-8.68963
-9.91714
-11.4347
-8.26922
-7.3165
-6.63089
-6.12305
-5.7246
-5.43749
-5.22992
-5.12532
-5.12762
-5.22309
-5.47609
-5.84961
-6.38501
-7.0804
-7.99791
-9.08316
-10.4575
-12.1255
-14.3169
-7.02481
-6.33019
-5.85495
-5.52549
-5.28057
-5.13704
-5.06362
-5.09324
-5.23304
-5.46996
-5.8833
-6.43299
-7.17474
-8.11415
-9.34055
-10.8016
-12.6806
-15.0249
-18.4404
-5.44863
-5.16332
-4.96027
-4.83851
-4.76449
-4.77543
-4.84416
-5.01397
-5.29696
-5.68306
-6.26929
-7.01679
-8.00212
-9.24746
-10.8867
-12.8862
-15.5369
-18.9814
-24.8755
-3.73163
-3.88549
-3.9652
-4.05669
-4.15861
-4.32651
-4.53818
-4.84644
-5.26953
-5.80315
-6.56549
-7.52532
-8.79061
-10.4176
-12.6172
-15.4134
-19.301
-24.6333
-36.0692
-2.08781
-2.56921
-2.88907
-3.17734
-3.44936
-3.7691
-4.11653
-4.55148
-5.09795
-5.7605
-6.68213
-7.84632
-9.40877
-11.4927
-14.4454
-18.4405
-24.3881
-33.1339
-57.9558
-0.686038
-1.27256
-1.74979
-2.20362
-2.63317
-3.09489
-3.56336
-4.10269
-4.73713
-5.48421
-6.51404
-7.82525
-9.64987
-12.2598
-16.3316
-22.6948
-34.0762
-55.0793
-130.113
)
;

boundaryField
{
    up
    {
        type            calculated;
        value           nonuniform List<scalar> 
84
(
-117.909
-63.8592
-39.1824
-26.7017
-19.6213
-15.1402
-12.0399
-9.75049
-7.9852
-6.58211
-5.44969
-4.52786
-3.77217
-3.15168
-2.6413
-2.21999
-1.87048
-1.57877
-1.33347
-1.12471
-0.944138
-0.782146
-0.619955
-0.391666
-0.378493
-0.481249
-0.564974
-0.655959
-0.764335
-0.900507
-1.07844
-1.31632
-1.68593
-3.15266
-4.49719
-4.89039
-4.9502
-5.18193
-5.4365
-5.65645
-5.81585
-5.90985
-5.91011
-5.81678
-5.65784
-5.4381
-5.18371
-4.95168
-4.89067
-4.5006
-3.16806
-1.68903
-1.31814
-1.07978
-0.901546
-0.765178
-0.656682
-0.565645
-0.482026
-0.378966
-0.391376
-0.619984
-0.782168
-0.944155
-1.12472
-1.33348
-1.57877
-1.87048
-2.21999
-2.64129
-3.15167
-3.77216
-4.52785
-5.44969
-6.58212
-7.98523
-9.75052
-12.04
-15.1402
-19.6213
-26.7017
-39.1824
-63.8592
-117.909
)
;
    }
    low
    {
        type            calculated;
        value           nonuniform List<scalar> 
84
(
-0.736322
-2.18211
-3.93628
-5.79305
-7.50103
-8.83353
-9.66576
-10.009
-9.93776
-9.55955
-9.1904
-8.75543
-8.20861
-7.75799
-7.36107
-6.96016
-6.59884
-6.304
-5.99445
-5.64437
-5.34792
-5.08792
-4.83682
-4.60962
-4.39076
-4.25362
-4.25361
-4.40908
-4.68116
-5.06439
-5.52975
-6.00293
-6.54035
-7.1652
-7.83937
-8.60724
-9.46977
-10.2312
-10.8335
-11.3137
-11.6645
-11.9094
-11.9095
-11.6645
-11.3138
-10.8335
-10.2313
-9.46989
-8.60739
-7.83932
-7.16529
-6.54029
-6.00289
-5.52971
-5.06436
-4.68113
-4.40908
-4.25362
-4.25364
-4.39081
-4.60976
-4.83685
-5.08797
-5.34796
-5.6444
-5.99447
-6.30402
-6.59885
-6.96017
-7.36106
-7.75797
-8.20858
-8.75539
-9.19036
-9.55952
-9.93774
-10.0091
-9.6658
-8.83358
-7.50108
-5.7931
-3.93632
-2.18213
-0.736329
)
;
    }
    left
    {
        type            calculated;
        value           nonuniform List<scalar> 
19
(
-0.672983
-1.24882
-1.73543
-2.20434
-2.65189
-3.13248
-3.62169
-4.18686
-4.85305
-5.64761
-6.74861
-8.16241
-10.1525
-13.0444
-17.597
-24.8274
-37.9098
-62.3361
-122.293
)
;
    }
    right
    {
        type            calculated;
        value           nonuniform List<scalar> 
19
(
-0.672987
-1.24882
-1.73543
-2.20434
-2.65189
-3.13249
-3.6217
-4.18686
-4.85305
-5.6476
-6.7486
-8.16239
-10.1525
-13.0444
-17.597
-24.8274
-37.9098
-62.3361
-122.293
)
;
    }
    frontAndBackPlanes
    {
        type            empty;
    }
}


// ************************************************************************* //
