/*--------------------------------*- C++ -*----------------------------------*\
  =========                 |
  \\      /  F ield         | OpenFOAM: The Open Source CFD Toolbox
   \\    /   O peration     | Website:  https://openfoam.org
    \\  /    A nd           | Version:  7
     \\/     M anipulation  |
\*---------------------------------------------------------------------------*/
FoamFile
{
    version     2.0;
    format      ascii;
    class       volScalarField;
    location    "0.21";
    object      T;
}
// * * * * * * * * * * * * * * * * * * * * * * * * * * * * * * * * * * * * * //

dimensions      [0 0 0 1 0 0 0];

internalField   nonuniform List<scalar> 
1596
(
6.97927
6.91993
6.85958
6.80313
6.75202
6.70585
6.66372
6.62339
6.58318
6.53913
6.48813
6.42596
6.34353
6.2285
6.062
5.80252
5.37297
4.61946
3.23346
6.91047
6.72597
6.55309
6.39612
6.25553
6.12937
6.01484
5.90715
5.802
5.69194
5.57054
5.42995
5.25636
5.03314
4.74012
4.34
3.7758
2.94998
1.67802
6.82934
6.51954
6.24281
5.99691
5.77899
5.585
5.41039
5.2488
5.09434
4.93809
4.77228
4.58784
4.37057
4.10454
3.77265
3.34647
2.78791
2.03905
0.992432
6.74963
6.32301
5.95291
5.62899
5.34447
5.09317
4.86906
4.66482
4.47369
4.28623
4.09431
3.88871
3.65609
3.38232
3.05346
2.64828
2.14141
1.49863
0.657435
6.68397
6.1569
5.70535
5.31334
4.97102
4.67056
4.40486
4.16605
3.94695
3.73804
3.53123
3.31748
3.0845
2.81976
2.51164
2.14371
1.69826
1.15435
0.474644
6.64037
6.0349
5.51493
5.06377
4.67051
4.32662
4.02447
3.75599
3.51385
3.2887
3.07259
2.85676
2.62977
2.38031
2.0982
1.76998
1.38239
0.921596
0.364151
6.61969
5.96041
5.3859
4.88405
4.44543
4.06207
3.72646
3.43075
3.16768
2.92822
2.70462
2.48836
2.26868
2.03508
1.77827
1.48658
1.14921
0.756103
0.291374
6.61689
5.92719
5.3124
4.76841
4.28959
3.86987
3.50269
3.1808
2.89733
2.64364
2.41225
2.19486
1.98125
1.76148
1.52678
1.26655
0.971362
0.63309
0.239971
6.62711
5.92681
5.28511
4.70738
4.1934
3.74015
3.34281
2.9952
2.69109
2.42239
2.18196
1.96172
1.75187
1.5429
1.32633
1.09224
0.831936
0.538251
0.201659
6.6404
5.94226
5.28533
4.68249
4.13918
3.65609
3.23072
2.85842
2.5339
2.24976
1.99926
1.77462
1.5664
1.3654
1.16335
0.95075
0.719354
0.462417
0.171686
6.65086
5.95999
5.29614
4.67609
4.10972
3.60134
3.15107
2.75607
2.41224
2.113
1.85212
1.62215
1.414
1.21876
1.0283
0.833439
0.626195
0.400009
0.147352
6.66359
5.98304
5.31691
4.68479
4.09997
3.56996
3.09747
2.68156
2.31948
2.00555
1.73414
1.49815
1.2888
1.09745
0.916059
0.735701
0.548556
0.348122
0.12728
6.67542
6.00641
5.3408
4.70025
4.10071
3.55239
3.0604
2.62568
2.24684
1.9192
1.6377
1.3956
1.18444
0.99577
0.821653
0.653323
0.483077
0.304409
0.110461
6.68231
6.02253
5.35853
4.71223
4.10128
3.53803
3.02964
2.57879
2.18541
1.84575
1.55537
1.30787
1.09505
0.90862
0.740728
0.582739
0.427029
0.267068
0.0961646
6.68785
6.03446
5.37131
4.72018
4.0997
3.52383
3.00146
2.53679
2.13093
1.78101
1.48311
1.23115
1.01713
0.832892
0.67061
0.521747
0.37873
0.234992
0.0839503
6.69311
6.04429
5.38068
4.72447
4.09517
3.50802
2.97336
2.49667
2.08013
1.7216
1.4176
1.16227
0.947758
0.765949
0.609012
0.468459
0.336743
0.207244
0.0734574
6.69634
6.05006
5.38468
4.72287
4.085
3.4875
2.94193
2.45491
2.02946
1.66406
1.35554
1.09816
0.884119
0.70529
0.553779
0.421109
0.299726
0.18296
0.0643567
6.69831
6.05263
5.38416
4.71596
4.06935
3.46191
2.90634
2.41025
1.97738
1.60665
1.2951
1.03697
0.824418
0.649226
0.503389
0.378397
0.266669
0.161472
0.056388
6.70315
6.05861
5.38618
4.71046
4.05415
3.43617
2.87042
2.36548
1.92573
1.55044
1.23669
0.978619
0.768215
0.597088
0.457058
0.339542
0.236897
0.142309
0.0493634
6.70947
6.06761
5.39124
4.7073
4.04041
3.41115
2.83478
2.32091
1.87451
1.49511
1.17975
0.92234
0.714597
0.547874
0.413764
0.303584
0.209612
0.124931
0.0430813
6.7142
6.0753
5.3954
4.70328
4.02561
3.38487
2.79785
2.27525
1.82259
1.43964
1.1233
0.867138
0.662545
0.500535
0.372447
0.269499
0.183929
0.108731
0.0373246
6.71917
6.08344
5.40039
4.70026
4.01177
3.35939
2.76159
2.2302
1.77137
1.38506
1.06796
0.813262
0.611951
0.454652
0.332422
0.23641
0.158908
0.0929537
0.0318169
6.72526
6.09361
5.40792
4.70006
4.00082
3.33674
2.72798
2.18763
1.72244
1.33257
1.0145
0.761045
0.56273
0.409758
0.292865
0.203146
0.133098
0.0761541
0.0258612
6.73197
6.10523
5.41747
4.70234
3.99271
3.31717
2.69758
2.14823
1.67649
1.28271
0.963204
0.710387
0.514403
0.365013
0.252584
0.168081
0.104262
0.0553795
0.0166836
6.74304
6.13222
5.45528
4.74612
4.03812
3.36062
2.73637
2.18055
1.70134
1.29981
0.9729
0.713564
0.512293
0.359014
0.244095
0.158361
0.0945407
0.047183
0.0124536
6.75543
6.16794
5.51235
4.82113
4.12639
3.45668
2.83466
2.27588
1.78939
1.37743
1.0382
0.766033
0.552589
0.388677
0.26512
0.172759
0.10396
0.0527342
0.0145386
6.76183
6.19011
5.5517
4.87716
4.19679
3.53769
2.92161
2.36386
1.87374
1.45425
1.10465
0.820575
0.595018
0.419966
0.287047
0.187358
0.113074
0.0577485
0.0162376
6.76233
6.19815
5.57206
4.91237
4.24708
3.60114
2.99474
2.44219
1.95248
1.52887
1.17138
0.876787
0.63949
0.452912
0.309889
0.202138
0.12187
0.0622594
0.0176066
6.75908
6.1964
5.57899
4.93286
4.28327
3.65262
3.05895
2.51509
2.02923
1.60449
1.24132
0.937427
0.688536
0.489669
0.335283
0.218211
0.131053
0.0667039
0.0188405
6.75256
6.18767
5.57718
4.94428
4.31131
3.69778
3.11932
2.58696
2.10779
1.6845
1.31767
1.00565
0.745257
0.53307
0.365485
0.237061
0.141419
0.0714492
0.0200682
6.74444
6.17664
5.57303
4.95389
4.3385
3.74352
3.18204
2.66321
2.19289
1.77316
1.40451
1.08562
0.813984
0.587426
0.404276
0.261379
0.154373
0.0769834
0.0213986
6.73876
6.16996
5.57427
4.96962
4.37253
3.79689
3.2534
2.74934
2.28938
1.87494
1.50629
1.18216
0.900266
0.658992
0.458041
0.296552
0.173214
0.0843896
0.0228474
6.73385
6.16556
5.57916
4.99024
4.4126
3.85747
3.33327
2.84556
2.39788
1.99105
1.62508
1.29869
1.0094
0.755449
0.53672
0.353477
0.207195
0.0985836
0.0245044
6.72948
6.16346
5.58812
5.01653
4.45973
3.92645
3.42298
2.95332
2.52007
2.12351
1.76357
1.43902
1.14727
0.886058
0.654448
0.451837
0.27975
0.141407
0.038014
6.7242
6.15848
5.5916
5.03439
4.49545
3.98125
3.49629
3.04325
2.62388
2.23805
1.88563
1.56558
1.27544
1.01288
0.776191
0.563091
0.372503
0.205442
0.0627984
6.7135
6.13776
5.56922
5.01635
4.48555
3.98148
3.50715
3.06412
2.65341
2.27437
1.92672
1.6094
1.32014
1.05686
0.818197
0.601848
0.406274
0.230998
0.0743447
6.69894
6.10689
5.53081
4.97637
4.44789
3.94839
3.47962
3.0422
2.63646
2.26129
1.91618
1.60006
1.31076
1.04651
0.806511
0.58915
0.393821
0.221083
0.0699808
6.68718
6.08217
5.50025
4.94479
4.41836
3.92269
3.45851
3.02569
2.62403
2.2521
1.90925
1.59447
1.3057
1.04142
0.801206
0.583785
0.388892
0.217412
0.068545
6.67932
6.06504
5.47877
4.92246
4.39748
3.90459
3.44378
3.01432
2.61567
2.24612
1.90498
1.59124
1.30294
1.03873
0.798428
0.580946
0.38624
0.215425
0.0678174
6.6735
6.05235
5.46286
4.9059
4.38198
3.89113
3.43277
3.00577
2.60932
2.24153
1.90166
1.58873
1.30083
1.03672
0.796382
0.578876
0.384309
0.213981
0.0673043
6.66924
6.04303
5.4512
4.89378
4.3706
3.88116
3.4245
2.9992
2.60428
2.23773
1.89876
1.58643
1.29885
1.03486
0.794556
0.577086
0.382677
0.212773
0.0668675
6.66539
6.03571
5.4426
4.88516
4.36264
3.87421
3.41869
2.99451
2.6006
2.23488
1.89657
1.58471
1.29746
1.03367
0.793497
0.576138
0.381869
0.212204
0.0666778
6.6654
6.03573
5.44264
4.8852
4.36269
3.87426
3.41874
2.99457
2.60065
2.23493
1.89661
1.58476
1.2975
1.03371
0.793526
0.57616
0.381885
0.212213
0.066681
6.66927
6.04311
5.4513
4.89391
4.37075
3.88131
3.42466
2.99937
2.60444
2.23788
1.89891
1.58656
1.29897
1.03497
0.794645
0.577157
0.382729
0.212805
0.0668785
6.67355
6.05247
5.46303
4.90611
4.38222
3.89137
3.43302
3.00602
2.60957
2.24178
1.90189
1.58894
1.30102
1.03688
0.796521
0.578986
0.384388
0.214029
0.0673207
6.67938
6.0652
5.479
4.92273
4.39779
3.90492
3.44412
3.01466
2.61601
2.24645
1.90528
1.59152
1.30319
1.03895
0.798609
0.581089
0.386343
0.215486
0.0678384
6.68726
6.08236
5.50053
4.94513
4.41875
3.9231
3.45894
3.02611
2.62445
2.2525
1.90963
1.59481
1.306
1.04168
0.801425
0.583956
0.389014
0.217485
0.0685695
6.69903
6.10711
5.53113
4.97677
4.44834
3.94886
3.48011
3.0427
2.63694
2.26175
1.91661
1.60045
1.3111
1.0468
0.806749
0.589332
0.393946
0.221155
0.0700033
6.7136
6.13801
5.56958
5.01679
4.48606
3.98202
3.5077
3.06468
2.65395
2.27488
1.92719
1.60982
1.3205
1.05716
0.818419
0.601996
0.406357
0.231032
0.0743498
6.72432
6.15884
5.59218
5.03515
4.49635
3.98227
3.4974
3.04441
2.62507
2.23925
1.88682
1.56673
1.27656
1.01395
0.777207
0.564028
0.373316
0.206043
0.0630538
6.72963
6.16388
5.5888
5.01743
4.46083
3.9277
3.42435
2.95477
2.52156
2.12502
1.76506
1.44048
1.14868
0.887388
0.655667
0.452896
0.280583
0.141945
0.0382067
6.73397
6.16593
5.57976
4.99104
4.41357
3.85857
3.33447
2.84681
2.39916
1.99232
1.62632
1.29987
1.0105
0.756429
0.537549
0.354118
0.20762
0.0987941
0.0245462
6.73887
6.1703
5.57483
4.97037
4.37345
3.79794
3.25453
2.75052
2.29057
1.87611
1.5074
1.18319
0.901187
0.659777
0.458664
0.296998
0.173488
0.0845206
0.0228806
6.74453
6.17695
5.57355
4.95459
4.33936
3.7445
3.1831
2.66431
2.19398
1.77422
1.4055
1.08651
0.81476
0.588063
0.404762
0.261715
0.154576
0.0770847
0.0214266
6.75264
6.18795
5.57765
4.94494
4.31211
3.6987
3.12031
2.58798
2.10879
1.68546
1.31855
1.00643
0.745916
0.533597
0.365877
0.23733
0.141583
0.0715338
0.0200926
6.75915
6.19664
5.57942
4.93346
4.28401
3.65347
3.05986
2.51602
2.03014
1.60535
1.24209
0.938104
0.689098
0.490111
0.335609
0.218435
0.131193
0.0667774
0.0188624
6.76239
6.19836
5.57244
4.91291
4.24774
3.60191
2.99556
2.44303
1.95329
1.52963
1.17206
0.877374
0.639972
0.453288
0.310166
0.20233
0.121992
0.0623256
0.0176273
6.76188
6.19029
5.55203
4.87763
4.19738
3.53837
2.92235
2.3646
1.87446
1.45492
1.10525
0.821084
0.595434
0.42029
0.287288
0.187527
0.113185
0.0578109
0.0162584
6.75547
6.1681
5.51264
4.82154
4.12691
3.45728
2.8353
2.27653
1.79002
1.37801
1.03872
0.766475
0.55295
0.38896
0.265334
0.172913
0.104064
0.0527961
0.0145611
6.74304
6.13225
5.45535
4.74623
4.03826
3.36079
2.73656
2.18074
1.70154
1.29999
0.973058
0.713696
0.512397
0.35909
0.244145
0.158389
0.0945511
0.0471821
0.0124497
6.73195
6.10518
5.4174
4.70225
3.9926
3.31704
2.69745
2.14811
1.67638
1.28261
0.963117
0.710312
0.514339
0.364958
0.252536
0.16804
0.104227
0.0553537
0.016671
6.72526
6.0936
5.40791
4.70005
4.00081
3.33672
2.72797
2.18762
1.72244
1.33258
1.01452
0.761062
0.562747
0.409774
0.29288
0.203159
0.133107
0.0761594
0.0258625
6.71917
6.08344
5.40038
4.70024
4.01175
3.35939
2.76159
2.2302
1.77138
1.38507
1.06797
0.813276
0.611965
0.454665
0.332433
0.236419
0.158915
0.0929572
0.0318178
6.71419
6.07529
5.39539
4.70327
4.0256
3.38487
2.79785
2.27525
1.82259
1.43965
1.12331
0.867149
0.662556
0.500545
0.372455
0.269506
0.183934
0.108733
0.0373253
6.70947
6.06761
5.39123
4.70729
4.04041
3.41114
2.83478
2.32092
1.87451
1.49512
1.17976
0.922349
0.714606
0.547882
0.413771
0.303589
0.209615
0.124933
0.0430818
6.70315
6.05861
5.38618
4.71046
4.05415
3.43617
2.87042
2.36549
1.92574
1.55045
1.2367
0.978626
0.768222
0.597094
0.457063
0.339546
0.2369
0.142311
0.0493638
6.69831
6.05263
5.38416
4.71596
4.06935
3.46192
2.90634
2.41025
1.97738
1.60665
1.2951
1.03698
0.824423
0.649231
0.503393
0.3784
0.266671
0.161473
0.0563883
6.69634
6.05005
5.38468
4.72287
4.085
3.48751
2.94193
2.45491
2.02947
1.66406
1.35554
1.09817
0.884124
0.705294
0.553782
0.421111
0.299727
0.182961
0.0643568
6.69311
6.04429
5.38068
4.72447
4.09517
3.50803
2.97336
2.49668
2.08014
1.7216
1.41761
1.16228
0.947761
0.765951
0.609013
0.46846
0.336743
0.207244
0.0734573
6.68785
6.03447
5.37132
4.72018
4.0997
3.52384
3.00147
2.53679
2.13093
1.78101
1.48311
1.23115
1.01713
0.832893
0.67061
0.521747
0.37873
0.234991
0.0839501
6.68231
6.02253
5.35853
4.71224
4.10128
3.53803
3.02965
2.57879
2.18541
1.84576
1.55537
1.30787
1.09505
0.908619
0.740727
0.582737
0.427027
0.267067
0.0961644
6.67542
6.00642
5.34081
4.70026
4.10071
3.55239
3.06041
2.62568
2.24685
1.9192
1.6377
1.3956
1.18444
0.995768
0.82165
0.65332
0.483074
0.304408
0.110461
6.66359
5.98304
5.31691
4.6848
4.09997
3.56996
3.09747
2.68156
2.31947
2.00555
1.73414
1.49815
1.2888
1.09744
0.916055
0.735698
0.548553
0.34812
0.12728
6.65086
5.95999
5.29614
4.6761
4.10972
3.60134
3.15107
2.75607
2.41224
2.11299
1.85212
1.62215
1.414
1.21876
1.02829
0.833435
0.626192
0.400008
0.147352
6.6404
5.94226
5.28533
4.68249
4.13918
3.65609
3.23072
2.85841
2.5339
2.24975
1.99926
1.77461
1.56639
1.36539
1.16334
0.950746
0.719351
0.462416
0.171686
6.62711
5.92681
5.28511
4.70737
4.19339
3.74015
3.3428
2.99519
2.69109
2.42239
2.18195
1.96171
1.75186
1.54289
1.32632
1.09223
0.831934
0.538251
0.20166
6.61689
5.92719
5.31239
4.7684
4.28958
3.86986
3.50268
3.18079
2.89733
2.64363
2.41224
2.19486
1.98124
1.76147
1.52677
1.26655
0.971361
0.63309
0.239972
6.61969
5.96041
5.3859
4.88405
4.44543
4.06206
3.72645
3.43074
3.16767
2.92821
2.70461
2.48835
2.26867
2.03507
1.77827
1.48658
1.14921
0.756104
0.291375
6.64037
6.0349
5.51492
5.06377
4.6705
4.32662
4.02446
3.75599
3.51384
3.28869
3.07258
2.85675
2.62977
2.3803
2.0982
1.76998
1.38239
0.921598
0.364152
6.68397
6.1569
5.70534
5.31333
4.97101
4.67055
4.40485
4.16605
3.94694
3.73803
3.53122
3.31747
3.08449
2.81976
2.51164
2.14371
1.69827
1.15435
0.474645
6.74963
6.32301
5.9529
5.62899
5.34447
5.09317
4.86906
4.66481
4.47368
4.28622
4.0943
3.8887
3.65608
3.38232
3.05346
2.64828
2.14141
1.49863
0.657434
6.82934
6.51953
6.24281
5.99691
5.77899
5.585
5.41039
5.24879
5.09434
4.93809
4.77227
4.58783
4.37056
4.10454
3.77265
3.34648
2.78791
2.03905
0.992431
6.91047
6.72597
6.55309
6.39612
6.25553
6.12936
6.01484
5.90714
5.802
5.69193
5.57054
5.42995
5.25636
5.03314
4.74012
4.34001
3.7758
2.94998
1.67802
6.97927
6.91993
6.85958
6.80313
6.75202
6.70585
6.66372
6.62339
6.58318
6.53913
6.48813
6.42596
6.34353
6.2285
6.06201
5.80252
5.37297
4.61946
3.23346
)
;

boundaryField
{
    up
    {
        type            fixedValue;
        value           uniform 0;
    }
    low
    {
        type            fixedValue;
        value           uniform 7;
    }
    left
    {
        type            fixedValue;
        value           uniform 7;
    }
    right
    {
        type            fixedValue;
        value           uniform 7;
    }
    frontAndBackPlanes
    {
        type            empty;
    }
}


// ************************************************************************* //
