/*--------------------------------*- C++ -*----------------------------------*\
  =========                 |
  \\      /  F ield         | OpenFOAM: The Open Source CFD Toolbox
   \\    /   O peration     | Website:  https://openfoam.org
    \\  /    A nd           | Version:  7
     \\/     M anipulation  |
\*---------------------------------------------------------------------------*/
FoamFile
{
    version     2.0;
    format      ascii;
    class       volScalarField;
    location    "0.07";
    object      gradTz;
}
// * * * * * * * * * * * * * * * * * * * * * * * * * * * * * * * * * * * * * //

dimensions      [0 -1 0 1 0 0 0];

internalField   nonuniform List<scalar> 
1596
(
-9.67732e-16
-4.52599e-16
4.79451e-16
2.78677e-17
-8.66947e-16
0
-3.78882e-16
-3.7435e-16
-4.86636e-17
-2.09444e-16
-6.31361e-19
-2.118e-16
9.67907e-16
-2.14211e-16
9.87302e-16
8.61517e-16
5.15193e-16
6.60708e-16
0
9.46602e-16
0
1.21628e-15
-1.95067e-17
-3.30589e-16
3.26249e-16
7.3528e-16
4.69383e-17
3.37349e-16
-1.66524e-16
3.35233e-16
-1.66764e-18
-4.66753e-16
-2.964e-16
-7.95093e-16
-7.85981e-16
-7.22578e-16
4.17855e-16
0
-4.37915e-16
0
-7.40238e-16
2.9932e-17
5.9414e-16
-2.0737e-16
3.315e-17
-3.46362e-18
-2.33307e-18
-1.68804e-18
9.3384e-17
0
2.41547e-16
6.6261e-16
-6.64064e-17
5.78763e-17
1.33221e-16
2.27209e-16
0
7.2295e-16
-1.81814e-16
1.8115e-16
0
-1.6172e-16
-1.75818e-16
2.47921e-16
-1.78967e-16
0
0
-1.12543e-16
4.91899e-17
0
-1.85255e-16
-2.15522e-16
1.58302e-16
-1.9211e-16
-9.65592e-18
0
1.30199e-16
2.90583e-16
-2.17503e-16
0
-5.12492e-17
-1.63165e-16
0
2.23077e-16
-2.02615e-17
-1.85573e-17
-4.97052e-17
1.03974e-16
1.39912e-16
1.75301e-17
3.22812e-17
-1.70834e-16
8.27345e-18
8.08615e-17
-3.83162e-17
-3.38107e-17
-3.92023e-16
3.24044e-16
-2.39399e-16
-1.2531e-18
-1.58867e-16
4.12833e-18
-4.14203e-18
-1.00284e-16
0
-3.67113e-17
-1.25472e-16
-1.25347e-16
8.8271e-17
1.23502e-16
-1.58076e-18
-7.39506e-17
-8.20167e-17
6.55648e-17
2.82562e-16
-3.99802e-16
3.78376e-16
1.7824e-16
0
1.25123e-16
6.12583e-17
-2.77744e-17
1.24678e-16
-2.1362e-17
-1.01593e-16
3.72455e-19
-5.25475e-17
-8.84759e-17
-5.99315e-17
5.70514e-17
7.46015e-17
-1.05231e-18
-2.57192e-17
5.71746e-17
6.52214e-16
-6.44575e-16
0
0
-1.38316e-16
0
0
0
5.6267e-17
0
0
5.01801e-17
6.00495e-19
2.59324e-17
-5.11908e-17
0
2.71909e-17
1.26823e-17
0
-3.91296e-16
7.21415e-16
0
0
1.42446e-16
0
-3.53424e-17
3.53067e-17
-5.72716e-17
2.0653e-17
-2.0804e-17
0
2.93893e-17
4.11456e-17
0
-2.33328e-17
-2.77017e-17
-1.13771e-17
1.147e-15
-5.08527e-16
0
-2.28232e-16
2.25678e-16
0
1.01043e-16
0
0
0
1.59305e-17
-1.60069e-17
0
-2.33407e-17
-5.84338e-18
0
7.58763e-18
1.17049e-17
0
-2.91637e-16
0
0
2.33515e-16
-3.99834e-16
4.64316e-17
1.92191e-17
-3.07309e-17
8.31684e-18
2.49677e-18
-1.65577e-17
-2.09381e-17
0
1.45683e-17
-3.56425e-18
3.61775e-18
1.35555e-17
-9.62365e-18
-3.85968e-18
1.86625e-16
-5.2341e-17
1.8389e-16
5.16656e-16
-6.26329e-17
-1.71265e-16
0
0
0
3.59052e-17
1.09404e-17
3.57015e-17
-8.39352e-18
-1.43077e-17
-6.6518e-18
-4.51768e-18
2.115e-18
-5.02604e-18
3.5771e-18
-2.41961e-16
2.40785e-16
-4.12418e-16
-5.13035e-16
4.3675e-16
1.22362e-16
-2.05342e-16
1.41858e-16
-9.72293e-17
2.5686e-17
1.358e-17
-1.02161e-17
4.04388e-18
-4.12166e-18
1.29786e-17
0
-1.06706e-18
8.73598e-18
-1.34511e-18
-1.74089e-15
7.4741e-16
2.03913e-19
-1.00604e-16
3.45799e-17
1.19762e-16
-2.1503e-16
-6.60386e-17
4.43182e-17
-2.94465e-17
-1.9722e-17
0
-1.56578e-17
-4.25089e-18
-6.15795e-18
-3.48488e-18
2.60129e-19
-4.20187e-18
4.43735e-19
2.84187e-16
-2.26811e-16
-5.90369e-19
-1.32078e-16
-2.60617e-16
2.30428e-16
1.41897e-18
6.43546e-17
-4.31497e-17
5.60895e-17
1.14251e-17
7.70567e-18
1.69057e-17
0
1.04642e-17
4.58285e-18
0
1.9107e-18
2.67289e-19
0
2.20033e-16
1.28807e-16
-2.93097e-16
2.50659e-16
-3.31879e-16
1.9917e-16
5.02311e-17
-1.66156e-17
-5.92101e-17
6.98064e-18
-6.94619e-18
-1.45494e-17
4.54384e-18
-2.30093e-18
-4.116e-18
1.47012e-18
-9.27707e-19
5.23906e-19
-2.63342e-16
7.49154e-16
-5.71863e-16
2.37633e-16
0
0
-2.91057e-17
6.89378e-17
-3.0189e-17
5.25871e-17
0
0
9.19221e-18
-6.95248e-18
-3.63376e-18
1.13518e-18
-1.16943e-18
6.42392e-19
0
4.78078e-17
2.46891e-16
-1.53285e-16
-1.16657e-16
-1.38009e-16
-1.43419e-17
5.4658e-17
0
-2.71672e-17
-1.52848e-17
1.27812e-17
-8.01832e-18
5.03302e-18
0
1.50644e-18
2.2236e-18
0
0
0
-4.71477e-17
2.92589e-16
6.46772e-17
-3.5612e-16
7.399e-17
5.33463e-17
0
0
2.42339e-17
-1.33022e-17
-1.23622e-17
7.75518e-18
-4.86731e-18
0
-7.32308e-19
5.07725e-19
0
-3.7029e-19
-1.31202e-19
-1.83481e-16
5.42297e-16
-5.82508e-16
-1.68741e-16
9.55316e-17
-4.59106e-17
3.02627e-17
0
-1.23353e-17
8.54584e-18
0
0
1.52811e-18
-1.52987e-18
2.92456e-19
-4.81469e-19
4.98034e-19
1.04728e-19
1.00173e-19
1.07786e-16
-8.39437e-17
3.44564e-16
-2.14717e-16
-6.13698e-17
1.4324e-17
6.74424e-17
1.69539e-17
1.1803e-17
0
3.3925e-18
-3.06678e-18
1.8719e-18
-1.24583e-18
1.04078e-18
-1.55588e-18
-3.8041e-19
3.11212e-19
7.17105e-20
2.62063e-16
-2.78993e-16
0
1.40854e-16
-8.08303e-17
-3.91337e-17
1.44225e-17
-5.58132e-17
0
-7.71213e-19
-4.63681e-18
-2.28384e-18
2.36831e-18
-3.23959e-19
-1.00589e-18
6.09479e-19
0
1.52295e-19
-6.96303e-20
5.16967e-16
-7.40545e-17
2.40358e-16
-1.84556e-16
6.02765e-17
-1.33561e-17
-5.48377e-17
-1.06679e-17
1.70671e-17
-1.21856e-18
-4.90795e-18
3.60165e-18
-1.33611e-18
-1.16983e-18
0
0
0
-1.53328e-19
5.29619e-21
-4.12342e-16
3.88969e-16
-1.90567e-19
3.55282e-17
2.40858e-17
-4.0206e-17
3.95953e-17
-2.42257e-17
1.58727e-17
-3.15413e-18
5.70683e-18
1.3185e-18
-4.53477e-19
2.61116e-20
-7.16438e-20
-1.39015e-19
0
0
0
0
0
1.24905e-16
-9.31537e-17
-1.50125e-16
0
0
-6.61415e-18
-7.84556e-18
4.847e-18
0
-1.66287e-18
9.83217e-19
-2.37034e-18
2.56498e-18
-6.0127e-19
6.36198e-19
5.93995e-20
0
-7.90909e-17
8.00643e-17
0
-3.87605e-17
3.60063e-17
4.37619e-17
0
6.67731e-18
4.54674e-18
-2.4055e-17
0
-1.94909e-18
1.16424e-18
6.17706e-19
-3.68125e-19
4.5883e-19
0
-1.33009e-19
0
-4.08564e-17
-3.43481e-17
2.03352e-18
3.98254e-17
-8.36028e-17
0
-1.26671e-17
0
1.92264e-17
5.53986e-18
0
7.63917e-18
-6.66414e-18
9.02958e-19
-6.44549e-19
4.26568e-19
8.74915e-19
2.68871e-19
-2.13485e-19
0
7.81416e-17
-5.19415e-17
6.20667e-17
5.285e-17
0
2.46762e-17
-2.10057e-17
-1.06527e-17
1.1045e-17
-1.60905e-17
-5.28624e-18
0
0
5.20822e-19
0
0
1.00716e-19
0
-3.77672e-16
2.96176e-16
0
8.17445e-18
-2.79926e-17
-1.26146e-18
1.84689e-17
7.42696e-18
-1.26538e-17
-1.82583e-17
2.07572e-17
-5.85461e-18
0
-1.41513e-18
0
0
0
-3.93817e-19
3.16068e-19
-1.14177e-16
9.33657e-17
2.02471e-16
-1.84407e-16
4.66897e-17
5.06208e-18
-1.86325e-17
1.23452e-17
1.60472e-17
8.96658e-18
-1.72397e-17
0
4.42147e-18
-4.42364e-19
-1.61562e-18
-2.45366e-18
1.90908e-18
-1.9294e-19
4.12686e-19
-4.13238e-16
4.66499e-16
-4.47711e-16
6.32747e-17
4.19283e-17
-3.60082e-17
2.6075e-17
-1.47435e-17
0
-8.01021e-18
8.62756e-18
3.57902e-18
4.69711e-18
3.92929e-18
-5.53702e-18
-3.33159e-19
0
-1.95467e-19
6.37979e-20
-4.46207e-16
-1.10648e-16
-1.58062e-16
9.15948e-17
-1.05566e-16
7.38512e-17
-3.97334e-17
2.47067e-17
-3.57904e-18
-3.15281e-18
-1.06895e-17
7.21486e-18
-1.65056e-18
6.0558e-18
-6.50096e-18
2.87868e-19
5.19734e-19
0
-1.22929e-19
4.82448e-16
-1.21973e-16
0
0
-1.08893e-16
1.9806e-16
-4.0189e-17
-5.25044e-18
3.68527e-17
-1.37714e-18
0
0
-3.8136e-18
0
-6.30792e-18
1.37253e-17
-9.00957e-18
0
5.84236e-20
1.56007e-16
2.63709e-16
0
-8.91127e-17
-5.44567e-17
-3.46691e-17
-4.26754e-17
1.32102e-17
-3.31215e-17
-1.34759e-17
0
0
7.57612e-18
0
0
-9.74999e-18
1.65397e-17
0
0
1.07349e-15
-1.69144e-16
-5.60803e-16
-2.38062e-16
3.28357e-16
8.33247e-17
4.13791e-17
0
-1.07219e-17
8.40456e-18
2.05422e-17
-6.09304e-18
-6.6481e-18
9.51403e-18
-1.012e-17
-2.37966e-18
0
0
0
8.59158e-17
-5.9719e-16
5.78871e-16
-4.76036e-17
-3.06941e-16
4.48917e-16
-2.08988e-16
0
0
6.40574e-17
-4.96022e-17
0
-1.02561e-17
1.86016e-17
-1.49638e-18
4.67028e-18
1.29686e-18
2.32635e-20
2.5362e-19
0
0
0
4.00547e-16
-2.72259e-16
2.18868e-16
-3.27755e-16
8.50863e-17
0
-2.17064e-17
2.90032e-17
-2.9643e-17
-4.65789e-18
3.12334e-19
-2.65584e-18
-2.8298e-19
-2.06643e-18
-6.01294e-19
-3.12312e-19
6.96199e-16
-1.18985e-15
5.38656e-16
0
1.03475e-16
-1.43479e-16
1.13325e-16
-8.90554e-17
0
-2.95137e-17
4.18028e-17
0
0
2.97535e-19
0
-3.1191e-18
2.08242e-18
2.72269e-19
5.13049e-19
7.27957e-16
0
-2.25346e-16
2.50408e-16
-1.26354e-16
2.64185e-16
-1.1722e-16
-7.20802e-17
7.2833e-17
-6.27634e-18
0
0
3.01224e-18
-4.42833e-18
-2.98067e-18
5.51648e-18
-1.17709e-18
5.50225e-19
0
4.11588e-16
2.77029e-16
-3.20724e-17
-2.40699e-16
-2.07358e-17
-1.28067e-16
2.54478e-17
9.55125e-17
-4.16801e-18
6.3942e-18
0
0
-3.08584e-18
0
3.24081e-18
-3.46689e-18
0
4.23954e-19
-1.15019e-19
-2.1809e-16
-1.39327e-16
1.30869e-16
-1.29482e-17
-5.26087e-18
1.2698e-17
0
-2.6916e-18
3.43563e-17
-2.88867e-17
0
7.337e-18
-1.8688e-18
-6.02842e-18
-5.1167e-19
-3.85097e-19
0
-3.33657e-19
0
8.34727e-17
-1.52986e-16
3.82144e-18
5.76555e-17
4.33741e-17
-4.25791e-17
-2.43712e-17
2.74017e-17
-7.60539e-18
6.06137e-18
-4.75419e-18
4.90082e-18
0
1.03937e-20
-3.73018e-19
1.33693e-18
-4.42837e-21
0
0
8.34758e-17
-8.3163e-17
-5.73433e-17
5.11527e-17
7.61845e-17
-7.66343e-17
-1.21863e-17
1.22206e-17
-7.67318e-18
7.75211e-18
-4.75457e-18
8.64954e-18
-2.42331e-18
-1.55565e-18
-4.33055e-19
1.53043e-19
3.33272e-19
8.59935e-20
-6.4291e-20
0
-1.90067e-17
9.90786e-17
-1.0844e-16
7.57675e-17
-6.77182e-17
0
3.82197e-17
-3.44956e-17
0
9.3333e-18
-1.16798e-17
-5.75357e-18
6.03011e-18
9.97563e-19
0
0
-3.33817e-19
1.20383e-19
3.31705e-16
-5.88264e-16
5.50684e-16
-4.39534e-16
1.65152e-16
-1.1146e-16
1.07009e-16
1.04203e-17
-3.34882e-17
2.97037e-17
0
-1.59784e-17
1.45943e-17
-2.40712e-18
-9.77113e-19
1.39874e-18
9.98979e-19
3.24072e-19
-1.16318e-19
8.17352e-16
0
-2.56413e-16
1.99884e-16
2.04991e-17
-1.33355e-16
2.22334e-16
-1.75055e-16
6.50166e-17
-2.18083e-17
2.23227e-17
3.85431e-18
5.72965e-18
2.34456e-18
-1.70837e-18
-2.84066e-19
-2.14152e-18
0
1.95233e-19
6.08009e-16
-6.84567e-16
0
4.98874e-17
1.83155e-16
-1.75119e-16
2.47367e-17
1.92359e-17
7.67496e-18
1.14216e-17
0
0
-9.68678e-18
1.68293e-17
-5.88345e-18
-1.90378e-18
2.08432e-18
1.58261e-19
-3.63581e-19
1.11101e-16
6.03359e-16
-6.02397e-17
-3.51949e-16
3.11207e-16
3.09691e-17
-2.42093e-17
-1.87878e-17
5.00111e-17
-6.15129e-17
2.90261e-17
-2.9666e-17
3.34052e-18
-5.16249e-18
7.34294e-18
-4.9598e-18
0
0
2.81251e-19
0
1.43627e-16
-3.68239e-16
4.24436e-16
-2.69299e-16
2.68657e-16
0
6.13054e-17
-6.15864e-17
-3.48273e-17
4.96685e-17
0
1.47435e-17
-1.86293e-17
-2.53246e-18
0
-2.28341e-19
-3.61671e-19
-5.825e-20
-1.48646e-15
6.74852e-16
0
-3.28384e-16
3.28351e-16
1.54159e-16
-9.99707e-17
3.1007e-17
0
-9.94916e-19
4.7829e-18
-6.09056e-18
-6.64677e-18
9.5118e-18
-1.01142e-17
0
1.53907e-18
-1.60593e-19
-2.30365e-19
8.84958e-16
-8.42883e-16
0
8.61863e-17
6.73439e-17
-5.55008e-17
0
-3.24956e-17
-2.11509e-17
0
-2.54598e-18
0
7.58793e-18
0
0
1.91484e-18
6.71176e-18
-8.9842e-18
0
-2.71176e-19
1.22043e-16
-9.77838e-17
5.81686e-17
-3.0777e-16
1.07289e-16
0
5.25809e-18
1.40483e-17
0
-1.01805e-17
2.09051e-17
-2.1962e-17
2.57667e-18
0
-6.48711e-19
0
0
0
-2.14243e-19
0
9.03767e-17
0
-9.10478e-17
9.24952e-17
0
1.86754e-17
-1.15656e-17
3.63333e-17
-1.63339e-17
3.90234e-18
-5.13526e-18
3.73661e-18
-6.51912e-18
-9.36105e-19
0
-3.02323e-19
0
3.25445e-16
-5.54805e-16
0
-6.1058e-17
4.48659e-17
0
0
-3.23788e-17
0
-8.02377e-18
-8.64344e-18
-3.58661e-18
4.70821e-18
0
1.34215e-18
0
0
5.93558e-19
-5.89817e-19
0
4.27014e-16
-3.36235e-16
5.65257e-17
-4.15461e-17
-1.19207e-17
3.07649e-17
2.63682e-17
-2.30748e-17
7.17278e-18
1.48937e-18
-3.10118e-18
1.19108e-17
-3.51154e-18
-5.65854e-18
1.68446e-18
-2.90797e-19
1.76687e-19
-3.95261e-20
-8.32395e-16
2.96871e-16
0
0
1.47906e-17
-1.50403e-17
5.15144e-18
5.98877e-19
1.88666e-17
6.93355e-18
-6.15091e-18
-6.97179e-19
-1.86766e-18
1.41851e-18
0
3.88698e-19
2.66536e-19
1.0931e-19
3.5726e-20
0
2.25989e-16
-1.81623e-16
5.27329e-17
3.68996e-17
-6.59922e-18
-1.45884e-17
-9.47119e-18
-2.27217e-17
6.55361e-18
-2.08219e-18
4.13643e-18
1.7465e-18
-1.45978e-18
1.54947e-18
6.24451e-19
-8.93845e-19
-1.00964e-19
0
-5.00237e-17
-1.86137e-16
5.43971e-17
3.98429e-17
-1.02629e-16
6.55571e-17
1.96513e-17
-2.00867e-17
1.01161e-17
-6.2197e-18
0
0
-1.99276e-18
3.272e-18
-1.25492e-18
8.12086e-19
-8.95824e-19
1.20877e-19
-2.13657e-19
8.85283e-17
7.11067e-17
-5.26813e-17
2.50053e-17
-3.80835e-17
-3.45855e-17
0
0
0
0
0
0
1.04227e-18
-2.02278e-18
2.13931e-18
-4.77201e-19
6.0634e-19
2.34712e-19
-1.96277e-19
1.93837e-16
-2.42915e-16
2.98095e-16
-8.61239e-17
1.24622e-16
-5.25025e-17
8.69525e-17
-4.02529e-17
-1.22985e-17
1.25808e-17
0
1.66187e-18
-1.01824e-18
1.76835e-18
-8.21516e-19
-7.08883e-19
-1.07321e-18
9.08255e-20
1.63932e-19
3.07244e-16
7.00525e-17
0
-7.14002e-17
-3.86931e-17
7.81443e-17
5.30094e-19
-1.85061e-17
9.09371e-18
-4.31425e-18
0
-1.31556e-18
0
-6.73762e-19
4.67692e-19
-3.40254e-19
-1.03907e-19
5.83382e-20
0
4.21262e-16
-7.40532e-17
2.41181e-16
-1.85668e-16
-2.64624e-17
7.27135e-17
-4.27496e-17
3.33684e-18
2.01338e-18
-4.53889e-18
3.83562e-18
0
0
9.4099e-19
-2.0627e-19
1.02968e-19
3.70857e-19
-1.25445e-19
0
-7.20727e-20
0
-5.8042e-17
2.66488e-16
-1.69802e-16
-1.19907e-16
6.39137e-17
-3.96069e-17
3.37907e-17
1.16259e-17
-6.57597e-18
2.17343e-18
-1.66974e-18
3.89148e-19
1.6048e-18
-2.60474e-20
-3.89073e-19
3.61598e-19
-7.70168e-20
9.69133e-16
-2.95974e-16
9.05587e-17
-3.03846e-16
6.13697e-17
-7.3094e-17
4.29537e-17
0
0
-9.15727e-19
-1.60816e-18
-3.98277e-19
0
-1.71511e-18
-1.04072e-18
6.29741e-19
-4.08056e-20
1.0288e-19
1.65668e-19
0
-2.7016e-16
3.69508e-16
3.68049e-17
-2.3671e-16
4.59106e-17
-5.19538e-17
1.7941e-17
3.31242e-17
0
0
3.92265e-19
2.48808e-18
0
-1.30244e-18
-4.74274e-19
7.56278e-20
-1.69631e-19
-2.23782e-19
0
-1.48597e-16
7.88435e-17
2.51277e-16
1.25445e-16
-2.14146e-16
8.6354e-17
-3.79103e-17
2.2117e-17
-1.95637e-17
0
0
0
-3.07202e-18
4.17191e-19
-7.35881e-19
0
-3.47425e-20
1.66577e-19
-7.07576e-16
6.45573e-16
5.33804e-16
-6.36154e-16
2.17476e-16
-1.93648e-16
0
4.20509e-17
-5.28505e-17
2.51664e-17
-1.40165e-17
8.91624e-18
5.69169e-18
3.17714e-18
2.03785e-18
0
0
0
0
8.3947e-16
-4.19116e-16
0
0
-8.76077e-17
1.63113e-16
-1.01648e-16
-4.63073e-17
4.57853e-17
2.27538e-17
3.02789e-17
-9.25145e-18
3.28718e-18
1.80349e-18
1.12935e-18
9.14452e-19
1.41493e-18
-6.44325e-20
6.56303e-20
-8.2646e-16
7.07736e-16
2.98595e-16
-1.6565e-16
2.49173e-16
-1.55732e-16
-9.04164e-17
-6.10549e-17
0
-4.80133e-17
5.00629e-18
1.14919e-17
-6.86875e-18
-4.54375e-18
-1.42188e-18
-1.19573e-18
-9.65158e-19
0
0
-2.84072e-16
0
1.75593e-16
6.94835e-19
0
0
9.32674e-17
6.30001e-17
0
2.74433e-17
0
-1.70632e-17
-3.78501e-18
6.40451e-18
0
3.63736e-18
-4.7756e-19
4.87175e-19
0
6.32649e-16
0
3.17006e-16
-5.47537e-16
4.28268e-16
2.60107e-16
-2.03492e-17
0
7.77247e-18
3.71719e-17
0
-2.065e-17
1.94097e-17
-1.57531e-17
-3.18326e-18
-2.82338e-18
-9.62835e-19
-2.06934e-19
-1.07897e-18
-5.37612e-16
7.60764e-16
-1.82994e-16
-4.11232e-16
-2.01261e-16
-1.43624e-16
-1.9968e-16
-5.80827e-17
1.09942e-17
1.36057e-17
-1.35801e-17
3.23055e-17
-1.31172e-17
2.29235e-17
-4.17282e-18
0
6.2164e-18
-4.26842e-18
1.01316e-18
1.30107e-15
-4.98856e-17
-7.78746e-16
5.1666e-16
-4.09092e-16
2.94441e-16
-2.01427e-17
-7.09252e-17
5.0103e-17
1.48628e-17
-3.91825e-18
-2.85127e-17
6.75485e-18
1.02524e-17
-2.42557e-18
2.45323e-18
-6.43868e-18
-2.72527e-18
-3.05058e-18
6.38711e-16
2.32691e-16
3.59168e-16
-2.65909e-16
-1.69442e-16
2.69167e-17
-8.62267e-17
1.98606e-16
1.12464e-17
6.20787e-17
3.14663e-17
-2.59326e-17
0
-1.45682e-17
0
0
1.61177e-17
6.16372e-18
3.44276e-18
5.71088e-16
0
3.45475e-16
2.64193e-16
-1.9166e-16
1.40734e-16
0
-7.28919e-17
-8.77347e-17
-6.46705e-17
-3.17448e-17
2.62259e-17
0
0
0
0
-1.52377e-17
-1.75773e-17
0
-1.11676e-15
0
-4.35133e-17
-4.07097e-17
2.97163e-16
-1.2168e-16
-4.72346e-17
-4.88185e-17
9.14738e-17
0
2.06533e-17
-1.98913e-18
2.50922e-17
0
0
3.87151e-17
-3.03125e-18
2.12032e-17
-1.23823e-17
7.66626e-16
1.8544e-16
-1.83526e-16
-1.37524e-16
-3.72027e-16
2.19559e-16
2.21622e-16
-1.34898e-17
-6.66436e-17
7.28248e-17
1.37461e-17
-7.83867e-17
-5.63621e-17
-4.87395e-17
-5.45047e-17
-4.49614e-17
5.36485e-17
-2.36849e-18
1.26821e-17
-2.24315e-16
8.89185e-17
-4.02479e-16
5.34682e-17
-5.32737e-17
0
-1.13039e-16
-2.17536e-17
-1.03404e-16
2.48382e-17
1.01592e-16
6.29894e-17
-1.83058e-17
-9.572e-18
5.08041e-17
0
-1.26077e-16
-5.6635e-17
-1.1127e-18
4.86226e-16
-1.08489e-17
6.28344e-16
-2.63341e-16
1.2531e-18
5.64621e-18
1.58321e-16
-3.2516e-17
1.00285e-16
-9.33074e-17
-8.97175e-17
0
1.25346e-16
8.66988e-17
1.52659e-18
-2.28277e-18
7.46895e-17
5.7506e-17
0
-3.37895e-16
0
-4.78311e-17
2.59276e-16
8.58976e-18
5.13177e-17
-1.53094e-16
1.39058e-16
1.77569e-16
1.73399e-16
1.72245e-16
0
-1.21771e-16
0
8.51714e-18
-8.8458e-18
0
-1.05662e-18
5.69567e-17
2.55481e-16
3.18658e-17
-1.37952e-16
4.49509e-16
-1.35799e-16
0
0
-2.38897e-16
-1.72047e-16
-1.67985e-16
-3.4928e-16
-4.91898e-17
0
0
0
-2.14373e-17
2.26861e-17
1.63182e-16
-5.79124e-17
3.52851e-17
0
-3.49409e-16
-2.76614e-16
3.17409e-16
-3.23164e-16
-4.4735e-16
4.98772e-16
1.70772e-16
0
2.23719e-16
3.04002e-16
-6.45801e-17
3.73299e-16
-6.23269e-17
6.48672e-17
2.74198e-16
-1.55113e-16
0
-4.79652e-16
0
-4.34218e-16
4.16632e-16
0
6.64945e-16
2.98682e-16
-6.77698e-16
5.91551e-16
-1.25922e-18
-1.68229e-16
-2.94337e-16
0
4.92225e-16
-7.9509e-16
8.63783e-16
-1.10337e-15
0
0
4.83487e-16
-8.94944e-18
-2.1091e-17
-8.76703e-16
9.06857e-16
-4.24737e-16
4.23006e-16
4.17934e-16
-3.24517e-16
0
0
7.40701e-16
-7.53461e-16
-7.60888e-16
7.65654e-16
-7.55805e-16
8.26754e-16
-1.3062e-15
0
)
;

boundaryField
{
    up
    {
        type            calculated;
        value           nonuniform List<scalar> 
84
(
0
0
0
0
-3.83162e-17
6.55648e-17
-2.57192e-17
1.26823e-17
-1.13771e-17
0
-3.85968e-18
3.5771e-18
-1.34511e-18
4.43735e-19
2.67289e-19
5.23906e-19
0
0
-1.31202e-19
1.00173e-19
7.17105e-20
-6.96303e-20
5.29619e-21
0
2.41897e-20
1.52941e-20
-1.98676e-19
0
3.16068e-19
4.675e-19
6.37979e-20
-1.22929e-19
5.84236e-20
0
-5.6991e-21
2.52039e-19
-3.03813e-19
5.05434e-19
0
-1.12513e-19
0
0
-6.38889e-20
1.20383e-19
-1.16318e-19
1.95233e-19
-3.63581e-19
2.81251e-19
-5.825e-20
-2.30365e-19
0
0
0
-5.89817e-19
-9.40605e-20
3.5726e-20
0
-2.13657e-19
-1.96277e-19
1.3965e-19
0
0
-7.70168e-20
1.65668e-19
-2.23782e-19
1.66577e-19
0
6.56303e-20
0
0
-1.07897e-18
1.01316e-18
-3.05058e-18
3.44276e-18
0
-1.23823e-17
1.26821e-17
-1.1127e-18
0
5.69567e-17
-5.79124e-17
0
0
0
)
;
    }
    low
    {
        type            calculated;
        value           nonuniform List<scalar> 
84
(
-9.69855e-16
9.46602e-16
-4.34101e-16
7.25809e-16
1.3199e-16
-3.43016e-17
2.86424e-16
6.06942e-17
0
1.1512e-15
-2.91637e-16
1.83664e-16
-2.41961e-16
-1.74238e-15
2.84187e-16
0
-2.63342e-16
4.78078e-17
-4.71477e-17
-1.83481e-16
1.07786e-16
2.62063e-16
5.14712e-16
-4.12342e-16
0
-7.90909e-17
-4.08564e-17
0
-3.77672e-16
-1.14177e-16
-4.1222e-16
-4.45802e-16
4.82689e-16
1.56007e-16
1.07494e-15
8.59158e-17
0
6.96199e-16
7.31523e-16
4.13432e-16
-2.1904e-16
8.34727e-17
8.34758e-17
0
3.31705e-16
8.20917e-16
6.08009e-16
1.14109e-16
0
-1.48791e-15
8.84958e-16
-2.71176e-19
-2.14243e-19
3.25445e-16
0
-8.29312e-16
0
-5.00237e-17
8.85283e-17
1.91923e-16
3.04419e-16
4.19006e-16
-7.20727e-20
9.67982e-16
0
0
-7.07576e-16
8.39939e-16
-8.27314e-16
-2.84072e-16
6.34136e-16
-5.37612e-16
1.30699e-15
6.42257e-16
5.71088e-16
-1.11676e-15
7.63106e-16
-2.20454e-16
4.86226e-16
-3.36104e-16
2.55481e-16
3.90994e-17
-4.79652e-16
4.84549e-16
)
;
    }
    left
    {
        type            calculated;
        value           nonuniform List<scalar> 
19
(
-9.67732e-16
-4.53104e-16
4.79451e-16
2.8822e-17
-8.68566e-16
0
-3.78882e-16
-3.7435e-16
-5.15783e-17
-2.09444e-16
-6.31361e-19
-2.118e-16
9.78169e-16
-2.14211e-16
9.87302e-16
8.61517e-16
5.15193e-16
7.65949e-16
0
)
;
    }
    right
    {
        type            calculated;
        value           nonuniform List<scalar> 
19
(
4.83487e-16
-8.4446e-18
-2.1091e-17
-8.77657e-16
9.08476e-16
-4.24737e-16
4.23006e-16
4.17934e-16
-3.21602e-16
0
0
7.49012e-16
-7.63723e-16
-7.60888e-16
7.65654e-16
-7.55805e-16
8.26754e-16
-1.41144e-15
0
)
;
    }
    frontAndBackPlanes
    {
        type            empty;
    }
}


// ************************************************************************* //
