/*--------------------------------*- C++ -*----------------------------------*\
  =========                 |
  \\      /  F ield         | OpenFOAM: The Open Source CFD Toolbox
   \\    /   O peration     | Website:  https://openfoam.org
    \\  /    A nd           | Version:  7
     \\/     M anipulation  |
\*---------------------------------------------------------------------------*/
FoamFile
{
    version     2.0;
    format      ascii;
    class       volScalarField;
    location    "0.476";
    object      gradTx;
}
// * * * * * * * * * * * * * * * * * * * * * * * * * * * * * * * * * * * * * //

dimensions      [0 -1 0 1 0 0 0];

internalField   nonuniform List<scalar> 
1596
(
-0.0630376
-0.31792
-0.574671
-0.815455
-1.04173
-1.25489
-1.46432
-1.67578
-1.89632
-2.14028
-2.41009
-2.72297
-3.10082
-3.57831
-4.1986
-5.07596
-6.39023
-8.53128
-12.3047
0.0142624
-0.263882
-0.514793
-0.73898
-0.943808
-1.13174
-1.311
-1.48423
-1.65641
-1.8343
-2.0167
-2.21181
-2.42069
-2.64631
-2.88095
-3.11319
-3.29108
-3.3111
-2.95553
0.0777554
-0.214864
-0.456216
-0.662047
-0.844198
-1.00684
-1.15688
-1.29587
-1.42689
-1.55306
-1.67198
-1.78706
-1.89431
-1.98968
-2.06181
-2.09286
-2.04037
-1.83197
-1.32838
0.0880815
-0.188879
-0.408812
-0.59177
-0.749937
-0.888107
-1.01158
-1.12153
-1.21978
-1.30752
-1.38262
-1.44604
-1.49344
-1.5198
-1.51595
-1.46732
-1.34579
-1.10687
-0.66659
0.02689
-0.197431
-0.38099
-0.535282
-0.66801
-0.782754
-0.882746
-0.968829
-1.04189
-1.10205
-1.14794
-1.17924
-1.19258
-1.18373
-1.1464
-1.07013
-0.937671
-0.722636
-0.375843
-0.100425
-0.244509
-0.378549
-0.498418
-0.604075
-0.696115
-0.775248
-0.841666
-0.895422
-0.935925
-0.962489
-0.974127
-0.968521
-0.94244
-0.891945
-0.809707
-0.68548
-0.503646
-0.235551
-0.26932
-0.325767
-0.403242
-0.484463
-0.561504
-0.631057
-0.691104
-0.740766
-0.779238
-0.805334
-0.818755
-0.818143
-0.801981
-0.767872
-0.713467
-0.633638
-0.522401
-0.3704
-0.160814
-0.445239
-0.425388
-0.447939
-0.48988
-0.538029
-0.585507
-0.62782
-0.662759
-0.688626
-0.703698
-0.707726
-0.699161
-0.676983
-0.639414
-0.585116
-0.510487
-0.412091
-0.284271
-0.117068
-0.62582
-0.552269
-0.526408
-0.52945
-0.547468
-0.571523
-0.595353
-0.615397
-0.629057
-0.634062
-0.629904
-0.61491
-0.588272
-0.548612
-0.495179
-0.425424
-0.337391
-0.227617
-0.090066
-0.731481
-0.638243
-0.583747
-0.558866
-0.553127
-0.557854
-0.566291
-0.574021
-0.577819
-0.575015
-0.564764
-0.545365
-0.516098
-0.475893
-0.424367
-0.359767
-0.281063
-0.186214
-0.071544
-0.815367
-0.714286
-0.643035
-0.597989
-0.572789
-0.560401
-0.55461
-0.55072
-0.545162
-0.535005
-0.519044
-0.495554
-0.463812
-0.422942
-0.372763
-0.312087
-0.240451
-0.156734
-0.0587648
-0.899123
-0.798301
-0.717374
-0.657239
-0.615289
-0.586733
-0.566598
-0.550468
-0.534757
-0.516417
-0.493939
-0.465556
-0.430472
-0.387908
-0.337783
-0.279286
-0.212297
-0.136277
-0.049969
-0.916044
-0.829489
-0.751295
-0.68691
-0.637051
-0.599225
-0.569973
-0.545577
-0.52277
-0.498613
-0.471478
-0.439638
-0.402277
-0.358726
-0.309004
-0.252616
-0.189701
-0.120127
-0.0432234
-0.914107
-0.843039
-0.772641
-0.709481
-0.656464
-0.613125
-0.577507
-0.546808
-0.518268
-0.489209
-0.458007
-0.423005
-0.383392
-0.33859
-0.288708
-0.233507
-0.173331
-0.108354
-0.0383233
-0.904308
-0.847302
-0.786418
-0.727652
-0.674788
-0.628803
-0.589047
-0.55368
-0.520556
-0.487356
-0.452565
-0.414608
-0.372698
-0.326331
-0.275698
-0.220782
-0.162115
-0.10012
-0.0348465
-0.874034
-0.831679
-0.781904
-0.730446
-0.681275
-0.636189
-0.59547
-0.558126
-0.522621
-0.487028
-0.450013
-0.410105
-0.36655
-0.318906
-0.267453
-0.212386
-0.15446
-0.0943488
-0.0323579
-0.823369
-0.79454
-0.756506
-0.714307
-0.671676
-0.630725
-0.592273
-0.555937
-0.520689
-0.484958
-0.447605
-0.407253
-0.363168
-0.31494
-0.262911
-0.207485
-0.149693
-0.0905412
-0.0306396
-0.766486
-0.74625
-0.71841
-0.685639
-0.65079
-0.615843
-0.581812
-0.548687
-0.515795
-0.48185
-0.44586
-0.406505
-0.363027
-0.314967
-0.262644
-0.206601
-0.148172
-0.0888309
-0.0296718
-0.719085
-0.706018
-0.686355
-0.661646
-0.633867
-0.604685
-0.575163
-0.545535
-0.515409
-0.483732
-0.449629
-0.411799
-0.369393
-0.321792
-0.26912
-0.211856
-0.151532
-0.0901834
-0.0297007
-0.642184
-0.637949
-0.62706
-0.611457
-0.592627
-0.571821
-0.549899
-0.527094
-0.503095
-0.47694
-0.447786
-0.414297
-0.375499
-0.330543
-0.279202
-0.22161
-0.159186
-0.0944681
-0.0306449
-0.559486
-0.562404
-0.559516
-0.552536
-0.54264
-0.530737
-0.51743
-0.502845
-0.486635
-0.467826
-0.445512
-0.418272
-0.38498
-0.344531
-0.296221
-0.239471
-0.174875
-0.104698
-0.0335604
-0.475067
-0.483018
-0.487078
-0.488172
-0.487044
-0.484281
-0.480229
-0.474871
-0.467765
-0.457849
-0.444066
-0.424856
-0.398934
-0.365017
-0.322
-0.268439
-0.203244
-0.126375
-0.0413693
-0.383078
-0.3941
-0.404084
-0.412941
-0.420815
-0.427885
-0.434223
-0.439615
-0.443481
-0.444596
-0.441606
-0.432738
-0.416496
-0.391561
-0.356805
-0.310418
-0.249633
-0.170147
-0.0666543
-0.280437
-0.281015
-0.281037
-0.280523
-0.280088
-0.280489
-0.282516
-0.286558
-0.292476
-0.299333
-0.305429
-0.30849
-0.306358
-0.297242
-0.279865
-0.252817
-0.213688
-0.156646
-0.0701851
-0.188757
-0.216665
-0.252551
-0.293813
-0.338469
-0.384743
-0.431289
-0.476723
-0.519571
-0.557973
-0.589375
-0.611198
-0.621205
-0.618464
-0.603099
-0.575704
-0.535619
-0.47904
-0.395432
-0.0658317
-0.0837129
-0.108755
-0.139148
-0.173502
-0.210716
-0.250205
-0.291393
-0.333678
-0.375903
-0.415617
-0.449961
-0.475442
-0.48981
-0.492499
-0.485523
-0.471302
-0.452871
-0.431437
0.0580681
0.0358045
0.00483556
-0.0329527
-0.0757989
-0.122301
-0.171649
-0.223354
-0.277067
-0.332044
-0.386167
-0.436315
-0.47815
-0.50793
-0.523723
-0.527067
-0.521049
-0.50971
-0.49525
0.18351
0.154761
0.115891
0.069279
0.0170645
-0.0390578
-0.0981094
-0.15972
-0.223884
-0.290441
-0.357979
-0.42357
-0.482345
-0.528889
-0.559131
-0.573072
-0.573945
-0.566865
-0.555201
0.299639
0.261651
0.212953
0.156632
0.0951176
0.0303032
-0.036824
-0.106107
-0.178
-0.253108
-0.331074
-0.409837
-0.484712
-0.548942
-0.595686
-0.622018
-0.630032
-0.625902
-0.615084
0.42405
0.375374
0.316103
0.249722
0.178908
0.105741
0.0311803
-0.0448085
-0.123097
-0.205048
-0.291521
-0.38196
-0.472901
-0.557305
-0.625575
-0.670299
-0.689801
-0.689916
-0.679027
0.523636
0.462109
0.391415
0.31533
0.23672
0.157627
0.0787741
-0.000193134
-0.0805605
-0.164379
-0.253697
-0.349899
-0.451963
-0.554624
-0.647248
-0.717639
-0.75673
-0.765565
-0.753648
0.622742
0.549477
0.467533
0.382164
0.296525
0.212518
0.130579
0.0500955
-0.0304381
-0.113424
-0.201664
-0.298305
-0.405425
-0.52186
-0.639669
-0.745127
-0.82017
-0.853757
-0.84931
0.721428
0.633132
0.539012
0.444666
0.35298
0.265391
0.181916
0.101694
0.0231921
-0.0559376
-0.138524
-0.228472
-0.330244
-0.447724
-0.579835
-0.719348
-0.845898
-0.933872
-0.956873
0.79625
0.68505
0.57208
0.462406
0.358031
0.259565
0.166398
0.0773761
-0.00904451
-0.0949423
-0.182681
-0.275767
-0.379068
-0.499432
-0.643325
-0.816777
-1.01451
-1.21948
-1.39738
0.854752
0.730619
0.61357
0.507196
0.411776
0.326703
0.250562
0.182011
0.119673
0.0622222
0.00867469
-0.0423097
-0.0923185
-0.144197
-0.20283
-0.277882
-0.38098
-0.526161
-0.722643
0.908001
0.776623
0.661325
0.561542
0.475139
0.400215
0.334626
0.276785
0.225316
0.179035
0.137406
0.0999079
0.0664646
0.0372766
0.0129055
-0.00669664
-0.0223096
-0.0378221
-0.0607297
0.88463
0.733573
0.606598
0.499216
0.407503
0.328609
0.25994
0.199665
0.146343
0.0987757
0.0564802
0.0189972
-0.0137453
-0.0415362
-0.0636957
-0.0795218
-0.0878259
-0.0876013
-0.0783731
0.797194
0.654432
0.537423
0.440489
0.359238
0.29051
0.231688
0.180921
0.136832
0.0983297
0.0648989
0.0360755
0.0116137
-0.0086214
-0.0246469
-0.0366859
-0.0449643
-0.0499177
-0.0520682
0.677831
0.554019
0.453394
0.370921
0.302593
0.245432
0.197069
0.15579
0.120355
0.0897768
0.0634978
0.041025
0.0219645
0.00598997
-0.00715704
-0.0178558
-0.0264392
-0.0332434
-0.0386152
0.519909
0.422346
0.344282
0.281181
0.229548
0.186811
0.151012
0.12073
0.0949519
0.0728716
0.0539859
0.0378622
0.0241148
0.0124249
0.00254223
-0.00582679
-0.0129087
-0.0188712
-0.0238941
0.331759
0.266432
0.215674
0.175437
0.142952
0.116316
0.0941676
0.0755364
0.0597448
0.046257
0.0347211
0.0248426
0.0163474
0.00901196
0.00266346
-0.00288086
-0.00775152
-0.0120131
-0.0157337
0.128636
0.102939
0.0836035
0.0684675
0.0562784
0.0462535
0.0378669
0.030753
0.0246598
0.0193901
0.0148103
0.01081
0.00728521
0.00414993
0.00133545
-0.00122915
-0.00359738
-0.00579321
-0.00783657
-0.128575
-0.102811
-0.0834382
-0.0682837
-0.0560891
-0.0460676
-0.0376906
-0.0305904
-0.0245139
-0.0192628
-0.0147027
-0.0107226
-0.00721812
-0.00410315
-0.00130879
0.00123587
0.00358431
0.00576063
0.00778478
-0.331704
-0.266325
-0.215536
-0.175286
-0.142799
-0.11617
-0.0940343
-0.0754199
-0.059648
-0.0461816
-0.0346683
-0.0248126
-0.01634
-0.00902679
-0.00269977
0.00282385
0.00767466
0.0119175
0.0156205
-0.519858
-0.422249
-0.344154
-0.281036
-0.229396
-0.18666
-0.150868
-0.120597
-0.0948327
-0.0727685
-0.0539
-0.0377936
-0.0240626
-0.0123876
-0.00251778
0.00584108
0.0129158
0.018874
0.0238952
-0.677801
-0.553966
-0.453325
-0.370845
-0.302516
-0.245361
-0.197009
-0.155746
-0.12033
-0.0897723
-0.0635154
-0.0410649
-0.0220254
-0.00606941
0.00706274
0.0177511
0.026329
0.0331322
0.038507
-0.797184
-0.654413
-0.537396
-0.440456
-0.359205
-0.290481
-0.231668
-0.180914
-0.136842
-0.0983615
-0.0649542
-0.0361556
-0.011718
0.00849547
0.0245046
0.0365349
0.0448147
0.0497811
0.0519567
-0.88465
-0.733597
-0.606619
-0.499232
-0.407518
-0.328628
-0.259968
-0.199709
-0.146409
-0.0988716
-0.0566112
-0.019169
0.0135279
0.0412711
0.0633863
0.0791802
0.0874795
0.0872936
0.0781544
-0.908025
-0.776588
-0.661196
-0.561302
-0.474777
-0.399728
-0.334015
-0.27605
-0.22446
-0.178059
-0.136314
-0.0986988
-0.065138
-0.0358318
-0.0113512
0.00831901
0.023888
0.0391109
0.0613131
-0.854937
-0.731091
-0.61435
-0.508291
-0.413189
-0.32844
-0.252628
-0.184414
-0.122425
-0.0653418
-0.0121908
0.0383514
0.087842
0.139075
0.196866
0.270796
0.372474
0.516056
0.711078
-0.796206
-0.684906
-0.571805
-0.461983
-0.35745
-0.258823
-0.165496
-0.0763199
0.0102461
0.096276
0.184127
0.277299
0.380647
0.501021
0.644916
0.818458
1.01655
1.22234
1.40174
-0.721498
-0.633289
-0.539243
-0.444957
-0.353321
-0.265773
-0.182335
-0.102147
-0.0236826
0.0554028
0.137933
0.227808
0.3295
0.446919
0.579044
0.718729
0.845645
0.934109
0.957447
-0.622788
-0.549578
-0.46768
-0.382347
-0.296737
-0.212753
-0.130834
-0.0503718
0.0301366
0.113091
0.201292
0.297893
0.40499
0.521454
0.639382
0.745067
0.820399
0.854234
0.849921
-0.52368
-0.462204
-0.391554
-0.315506
-0.236926
-0.157857
-0.0790233
-7.44612e-05
0.0802738
0.164073
0.253373
0.349571
0.451663
0.554408
0.647182
0.717765
0.757035
0.765982
0.754102
-0.424089
-0.375462
-0.316235
-0.249893
-0.17911
-0.105967
-0.0314255
0.0445478
0.122823
0.204767
0.291242
0.381705
0.472704
0.557211
0.625617
0.670481
0.690092
0.690268
0.679408
-0.299671
-0.261728
-0.213072
-0.156787
-0.0953017
-0.0305096
0.0366014
0.105874
0.177762
0.252873
0.330857
0.409661
0.484606
0.548934
0.595788
0.62222
0.630306
0.626222
0.615435
-0.183542
-0.154837
-0.116008
-0.0694327
-0.0172476
0.0388528
0.09789
0.159494
0.22366
0.290229
0.357798
0.423439
0.482288
0.528921
0.559255
0.573276
0.574209
0.567176
0.555552
-0.0580937
-0.0358724
-0.00494375
0.0328093
0.0756272
0.122109
0.171445
0.223147
0.276868
0.331865
0.386026
0.436229
0.478136
0.507996
0.523868
0.527282
0.521326
0.510041
0.495637
0.0657778
0.0835466
0.108464
0.138728
0.172955
0.210052
0.249439
0.290546
0.332776
0.374976
0.414699
0.449085
0.474637
0.489096
0.491889
0.485033
0.470963
0.45275
0.431666
0.188799
0.21682
0.252857
0.2943
0.339155
0.385636
0.432388
0.478016
0.52104
0.559594
0.591119
0.613038
0.623108
0.620405
0.605056
0.577659
0.537554
0.480931
0.397236
0.280403
0.280877
0.280786
0.280159
0.279619
0.27993
0.281887
0.285879
0.291772
0.298626
0.304739
0.307834
0.305751
0.296694
0.279384
0.252408
0.213358
0.156408
0.0700737
0.383108
0.394157
0.404169
0.413053
0.420951
0.428038
0.434386
0.439781
0.443643
0.444747
0.441742
0.432855
0.416592
0.391636
0.356858
0.310448
0.24964
0.170137
0.0666421
0.47508
0.483034
0.487098
0.488197
0.487073
0.484312
0.480262
0.474905
0.467798
0.45788
0.444093
0.424877
0.39895
0.365027
0.322003
0.268435
0.203234
0.126364
0.0413643
0.559499
0.562421
0.559536
0.55256
0.542666
0.530766
0.517459
0.502874
0.486662
0.467851
0.445533
0.418289
0.384992
0.344538
0.296222
0.239468
0.17487
0.104693
0.0335588
0.642195
0.637964
0.627079
0.611479
0.592651
0.571846
0.549925
0.527119
0.503118
0.47696
0.447802
0.41431
0.375508
0.330548
0.279203
0.221609
0.159183
0.0944661
0.0306443
0.719098
0.706034
0.686374
0.661667
0.633889
0.604708
0.575185
0.545557
0.515429
0.483749
0.449643
0.41181
0.369401
0.321797
0.269122
0.211856
0.151531
0.0901828
0.0297006
0.766497
0.746264
0.718425
0.685656
0.650809
0.615862
0.581831
0.548705
0.515811
0.481864
0.445871
0.406514
0.363033
0.314971
0.262646
0.206601
0.148172
0.088831
0.0296719
0.823377
0.794551
0.756519
0.714322
0.671692
0.630742
0.592288
0.555952
0.520702
0.48497
0.447614
0.40726
0.363173
0.314944
0.262914
0.207487
0.149694
0.0905416
0.0306398
0.874042
0.831689
0.781916
0.73046
0.681289
0.636203
0.595484
0.558139
0.522633
0.487038
0.450021
0.410112
0.366555
0.31891
0.267456
0.212388
0.154461
0.0943496
0.0323582
0.904313
0.847308
0.786426
0.727662
0.674799
0.628814
0.589057
0.553689
0.520565
0.487364
0.452571
0.414613
0.372702
0.326335
0.275701
0.220784
0.162117
0.100121
0.0348468
0.914112
0.843045
0.772649
0.709489
0.656473
0.613133
0.577515
0.546816
0.518275
0.489215
0.458013
0.423009
0.383396
0.338594
0.288711
0.233509
0.173332
0.108355
0.0383237
0.916051
0.829496
0.751302
0.686917
0.637059
0.599233
0.569981
0.545585
0.522776
0.498619
0.471483
0.439642
0.402282
0.35873
0.309007
0.252619
0.189703
0.120128
0.0432239
0.899125
0.798302
0.717376
0.657241
0.615291
0.586735
0.5666
0.55047
0.534759
0.516419
0.493941
0.465558
0.430474
0.38791
0.337784
0.279287
0.212298
0.136278
0.0499693
0.815374
0.714293
0.643041
0.597994
0.572793
0.560405
0.554613
0.550723
0.545165
0.535007
0.519046
0.495556
0.463814
0.422944
0.372765
0.312089
0.240452
0.156735
0.0587652
0.731491
0.638251
0.583753
0.558871
0.55313
0.557856
0.566293
0.574023
0.57782
0.575016
0.564765
0.545366
0.516099
0.475894
0.424368
0.359768
0.281064
0.186214
0.0715443
0.625829
0.552276
0.526413
0.529453
0.54747
0.571525
0.595354
0.615397
0.629057
0.634062
0.629904
0.61491
0.588272
0.548613
0.49518
0.425424
0.337391
0.227618
0.0900663
0.445246
0.425393
0.447942
0.489881
0.53803
0.585507
0.627819
0.662758
0.688625
0.703697
0.707725
0.69916
0.676982
0.639413
0.585115
0.510486
0.412091
0.28427
0.117068
0.269326
0.325771
0.403244
0.484465
0.561504
0.631056
0.691103
0.740765
0.779236
0.805332
0.818753
0.818141
0.80198
0.767871
0.713465
0.633636
0.5224
0.370399
0.160814
0.100429
0.244512
0.37855
0.498419
0.604075
0.696114
0.775247
0.841664
0.89542
0.935923
0.962487
0.974124
0.968519
0.942438
0.891943
0.809705
0.685479
0.503646
0.23555
-0.0268874
0.197433
0.380991
0.535282
0.66801
0.782753
0.882744
0.968827
1.04188
1.10205
1.14793
1.17924
1.19258
1.18373
1.1464
1.07013
0.93767
0.722635
0.375843
-0.0880803
0.18888
0.408812
0.59177
0.749936
0.888105
1.01158
1.12153
1.21978
1.30752
1.38262
1.44604
1.49344
1.5198
1.51595
1.46732
1.34579
1.10687
0.66659
-0.0777551
0.214864
0.456215
0.662046
0.844197
1.00684
1.15688
1.29586
1.42689
1.55306
1.67198
1.78706
1.89431
1.98968
2.06181
2.09286
2.04037
1.83197
1.32838
-0.0142623
0.263882
0.514792
0.738979
0.943807
1.13174
1.311
1.48423
1.65641
1.8343
2.0167
2.21181
2.42069
2.64631
2.88095
3.11319
3.29107
3.3111
2.95553
0.063037
0.317919
0.574669
0.815453
1.04173
1.25489
1.46432
1.67578
1.89632
2.14028
2.41009
2.72297
3.10082
3.57831
4.1986
5.07596
6.39023
8.53128
12.3047
)
;

boundaryField
{
    up
    {
        type            calculated;
        value           nonuniform List<scalar> 
84
(
-12.3047
-2.95553
-1.32838
-0.66659
-0.375843
-0.235551
-0.160814
-0.117068
-0.090066
-0.071544
-0.0587648
-0.049969
-0.0432234
-0.0383233
-0.0348465
-0.0323579
-0.0306396
-0.0296718
-0.0297007
-0.0306449
-0.0335604
-0.0413693
-0.0666543
-0.0701851
-0.341815
-0.409587
-0.476331
-0.536844
-0.596125
-0.65826
-0.728406
-0.810957
-0.89747
-1.40403
-0.754107
-0.0624322
-0.0784954
-0.0520887
-0.0386199
-0.0238987
-0.0157374
-0.00784115
0.00778932
0.0156242
0.0238999
0.0385117
0.051977
0.0782756
0.0629957
0.742096
1.4093
0.897955
0.811482
0.728836
0.658633
0.596477
0.537203
0.476735
0.409984
0.343481
0.0700737
0.0666421
0.0413643
0.0335588
0.0306443
0.0297006
0.0296719
0.0306398
0.0323582
0.0348468
0.0383237
0.0432239
0.0499693
0.0587652
0.0715443
0.0900663
0.117068
0.160814
0.23555
0.375843
0.66659
1.32838
2.95553
12.3047
)
;
    }
    low
    {
        type            calculated;
        value           nonuniform List<scalar> 
84
(
-0.0570365
0.0229863
0.0920488
0.103817
0.0368702
-0.102281
-0.284614
-0.470808
-0.654875
-0.754288
-0.83419
-0.912523
-0.918392
-0.909538
-0.89534
-0.859241
-0.803972
-0.746222
-0.696366
-0.614983
-0.530706
-0.446781
-0.35632
-0.257481
-0.171178
-0.0595304
0.050837
0.165104
0.275084
0.397942
0.500216
0.601664
0.70477
0.786402
0.850881
0.911803
0.89746
0.813066
0.693226
0.532924
0.34073
0.132478
-0.132417
-0.340673
-0.532869
-0.693187
-0.813045
-0.897464
-0.91181
-0.851037
-0.78636
-0.704828
-0.601706
-0.500257
-0.39798
-0.275117
-0.165138
-0.050863
0.0594779
0.17122
0.257449
0.356347
0.446794
0.530719
0.614994
0.696379
0.746233
0.80398
0.859249
0.895344
0.909544
0.918399
0.912525
0.834197
0.754298
0.654885
0.470815
0.28462
0.102285
-0.0368673
-0.103815
-0.0920483
-0.022986
0.0570362
)
;
    }
    left
    {
        type            calculated;
        value           nonuniform List<scalar> 
19
(
-0.0557988
-0.304799
-0.566399
-0.815083
-1.05072
-1.27358
-1.494
-1.71879
-1.95505
-2.22145
-2.52005
-2.87095
-3.30367
-3.86601
-4.61301
-5.70645
-7.39595
-10.2259
-10.6731
)
;
    }
    right
    {
        type            calculated;
        value           nonuniform List<scalar> 
19
(
0.055798
0.304797
0.566397
0.81508
1.05072
1.27358
1.494
1.71878
1.95505
2.22145
2.52005
2.87095
3.30367
3.86601
4.61301
5.70645
7.39595
10.2259
10.6731
)
;
    }
    frontAndBackPlanes
    {
        type            empty;
    }
}


// ************************************************************************* //
