/*--------------------------------*- C++ -*----------------------------------*\
  =========                 |
  \\      /  F ield         | OpenFOAM: The Open Source CFD Toolbox
   \\    /   O peration     | Website:  https://openfoam.org
    \\  /    A nd           | Version:  7
     \\/     M anipulation  |
\*---------------------------------------------------------------------------*/
FoamFile
{
    version     2.0;
    format      ascii;
    class       volScalarField;
    location    "0.281";
    object      T;
}
// * * * * * * * * * * * * * * * * * * * * * * * * * * * * * * * * * * * * * //

dimensions      [0 0 0 1 0 0 0];

internalField   nonuniform List<scalar> 
1596
(
1.99503
1.98075
1.9661
1.95216
1.93917
1.92696
1.91526
1.90348
1.89118
1.87736
1.86123
1.84175
1.81651
1.78215
1.73339
1.65844
1.53527
1.31982
0.923823
1.97849
1.93402
1.89194
1.85304
1.81721
1.7838
1.75201
1.7206
1.68849
1.65383
1.61505
1.57027
1.51599
1.44785
1.36041
1.24325
1.08015
0.843186
0.479418
1.9589
1.88408
1.81659
1.75554
1.69993
1.64856
1.60018
1.55316
1.50604
1.45666
1.40318
1.34351
1.27419
1.19121
1.09017
0.963359
0.80009
0.583826
0.283682
1.93953
1.83624
1.74582
1.6653
1.5927
1.52627
1.46439
1.40519
1.34704
1.28768
1.22524
1.15768
1.08186
0.994392
0.891918
0.768896
0.618429
0.430881
0.188297
1.9234
1.79545
1.68493
1.58743
1.50019
1.42102
1.34804
1.27926
1.21294
1.14684
1.07915
1.00792
0.930334
0.843557
0.744962
0.630486
0.495555
0.334465
0.136585
1.91251
1.7651
1.6376
1.52537
1.42533
1.33511
1.25268
1.176
1.10331
1.0324
0.961522
0.888819
0.811749
0.727835
0.634931
0.529897
0.409531
0.270309
0.105698
1.90714
1.74616
1.60502
1.48016
1.3688
1.2687
1.17784
1.09421
1.01606
0.941272
0.868144
0.794877
0.719117
0.638626
0.551538
0.455274
0.347418
0.225648
0.0857236
1.90618
1.73728
1.58595
1.45053
1.32918
1.22006
1.12139
1.03128
0.948066
0.869711
0.794575
0.720905
0.646471
0.569184
0.487328
0.398658
0.3012
0.193279
0.071952
1.90849
1.73657
1.5783
1.43437
1.30424
1.18684
1.08075
0.98436
0.89615
0.814196
0.736928
0.662635
0.589173
0.514539
0.437092
0.354774
0.265852
0.16899
0.0619736
1.91166
1.73997
1.57764
1.42729
1.28977
1.16493
1.05191
0.949482
0.856338
0.770718
0.691142
0.615948
0.543058
0.470524
0.396727
0.319712
0.237869
0.15002
0.0543756
1.91426
1.74418
1.57989
1.42503
1.2816
1.15033
1.03107
0.922987
0.825103
0.735854
0.653882
0.577587
0.504954
0.434073
0.363325
0.290804
0.214951
0.134646
0.0483351
1.91751
1.74997
1.58496
1.42689
1.27864
1.14178
1.01681
0.903403
0.80092
0.708044
0.623561
0.545956
0.47327
0.403623
0.335382
0.266654
0.195888
0.121957
0.0434214
1.92063
1.75611
1.59121
1.43089
1.27874
1.13704
1.00692
0.88856
0.781699
0.685287
0.598277
0.51925
0.446312
0.377602
0.311468
0.246007
0.179645
0.11121
0.0393102
1.9226
1.76071
1.59632
1.43449
1.27926
1.1335
0.998886
0.87609
0.765226
0.665529
0.576138
0.495741
0.422509
0.354604
0.290347
0.227815
0.165392
0.101839
0.0357667
1.9243
1.76448
1.60057
1.43756
1.27978
1.1305
0.991902
0.865102
0.750578
0.647849
0.556246
0.474568
0.401054
0.333885
0.271354
0.211506
0.15267
0.0935274
0.032657
1.92596
1.76789
1.60429
1.44018
1.28009
1.12764
0.985425
0.854957
0.737063
0.631535
0.537891
0.455044
0.381297
0.314847
0.253955
0.196624
0.141119
0.0860278
0.0298808
1.92714
1.77042
1.60694
1.44174
1.27949
1.12414
0.978607
0.844789
0.723822
0.615757
0.520288
0.436437
0.362568
0.29689
0.237628
0.182735
0.130403
0.0791201
0.0273514
1.92801
1.77224
1.60867
1.4423
1.27796
1.11984
0.971211
0.834284
0.710488
0.600114
0.503021
0.418328
0.344457
0.279626
0.222019
0.169537
0.120288
0.0726494
0.0250078
1.92954
1.77489
1.61112
1.44343
1.27687
1.11593
0.964187
0.82417
0.697587
0.584956
0.486288
0.400792
0.326942
0.262958
0.206988
0.156875
0.110637
0.0665214
0.0228135
1.93139
1.77822
1.61431
1.44523
1.27637
1.11251
0.957586
0.814441
0.685053
0.570158
0.469911
0.383607
0.309759
0.246595
0.19223
0.144458
0.101206
0.0605778
0.0207157
1.93281
1.78114
1.61719
1.44679
1.27563
1.10888
0.950791
0.804548
0.67239
0.555265
0.453464
0.366355
0.292496
0.230117
0.177318
0.131868
0.0916337
0.0545757
0.0186354
1.93422
1.78401
1.62008
1.4484
1.27497
1.10531
0.944057
0.7947
0.659745
0.540351
0.436936
0.348945
0.274971
0.213253
0.161886
0.118659
0.0814458
0.0481378
0.016441
1.93582
1.78716
1.62328
1.45033
1.27464
1.10206
0.937602
0.785075
0.647239
0.525457
0.42028
0.33123
0.256938
0.195648
0.145455
0.104195
0.069861
0.0404819
0.0137565
1.9375
1.79042
1.62656
1.45233
1.27435
1.09887
0.931194
0.775459
0.634656
0.51034
0.4032
0.312841
0.237948
0.176765
0.127368
0.087626
0.0556993
0.030017
0.00907096
1.94013
1.79702
1.6361
1.46376
1.28665
1.11107
0.942458
0.785071
0.642079
0.515232
0.405458
0.312606
0.235571
0.172743
0.122277
0.0820485
0.0502588
0.02552
0.00679921
1.94301
1.80541
1.64976
1.48215
1.30894
1.13616
0.969104
0.811965
0.667963
0.539027
0.426338
0.330117
0.249639
0.183628
0.130451
0.0880382
0.0544885
0.0282173
0.00789566
1.94442
1.81033
1.6586
1.49501
1.32556
1.15593
0.99112
0.83513
0.691085
0.56095
0.446061
0.346937
0.263234
0.194071
0.138121
0.0934492
0.0581164
0.0303905
0.00871511
1.9444
1.81162
1.66233
1.50194
1.33601
1.16979
1.00786
0.853902
0.710808
0.580442
0.464179
0.362741
0.276132
0.203905
0.145148
0.0981707
0.0610782
0.0320293
0.00927849
1.94341
1.81032
1.66234
1.50452
1.34195
1.17937
1.02086
0.869672
0.728378
0.598629
0.481732
0.378507
0.289231
0.213904
0.152135
0.102632
0.0636689
0.0333338
0.00968179
1.94157
1.80707
1.65976
1.50423
1.34505
1.18638
1.03176
0.883969
0.745193
0.616805
0.499951
0.395437
0.303702
0.225132
0.159933
0.107405
0.0662061
0.034462
0.00998507
1.93923
1.80298
1.65619
1.50296
1.34731
1.19282
1.04248
0.898585
0.762908
0.63652
0.520346
0.415074
0.321147
0.239186
0.169948
0.113499
0.0692303
0.0356111
0.0102367
1.93736
1.79966
1.65355
1.50277
1.35082
1.20073
1.05496
0.91531
0.783191
0.659368
0.544532
0.439172
0.34357
0.258327
0.184509
0.122902
0.0739741
0.0371956
0.0104462
1.93557
1.79665
1.65152
1.5035
1.35558
1.21023
1.06939
0.934448
0.806459
0.685929
0.573337
0.468965
0.372832
0.285254
0.207151
0.139551
0.083837
0.0410516
0.0106562
1.93381
1.79402
1.65029
1.50548
1.36201
1.22182
1.08636
0.956635
0.833412
0.716992
0.607716
0.505741
0.410867
0.32305
0.242709
0.170371
0.107261
0.0552019
0.0152195
1.93174
1.79049
1.64748
1.50509
1.36524
1.22938
1.09853
0.973373
0.854451
0.741913
0.636029
0.536919
0.444328
0.358059
0.278133
0.20434
0.136808
0.0763571
0.0236912
1.92823
1.78284
1.63789
1.49524
1.35631
1.2221
1.09332
0.970354
0.853562
0.742951
0.638722
0.540967
0.449445
0.364004
0.284727
0.211361
0.143835
0.0823841
0.0267308
1.92366
1.7725
1.62412
1.47971
1.34016
1.2061
1.07791
0.955748
0.839813
0.729983
0.626403
0.529154
0.438021
0.352935
0.274143
0.201596
0.135511
0.0764363
0.0243152
1.91978
1.76376
1.61251
1.46664
1.32659
1.19267
1.065
0.943563
0.828415
0.719354
0.616493
0.51992
0.429446
0.345063
0.267103
0.195589
0.130809
0.0733618
0.0232002
1.91695
1.75718
1.60365
1.45657
1.31607
1.18221
1.05492
0.934031
0.819511
0.711091
0.608861
0.512912
0.423067
0.339347
0.262125
0.191457
0.127656
0.0713517
0.0225037
1.91477
1.75212
1.59684
1.44884
1.308
1.17418
1.04718
0.926716
0.812692
0.704786
0.603074
0.507643
0.41832
0.33514
0.258502
0.188476
0.125398
0.0699218
0.0220161
1.91318
1.74845
1.59192
1.44328
1.30222
1.16845
1.04167
0.921524
0.807863
0.700336
0.599004
0.503953
0.415009
0.332215
0.255986
0.186404
0.123821
0.068917
0.0216708
1.91192
1.74587
1.58869
1.43978
1.29868
1.16502
1.03842
0.918504
0.805095
0.697823
0.596742
0.501938
0.413236
0.33068
0.254694
0.185363
0.123046
0.0684333
0.0215103
1.91193
1.74588
1.5887
1.43979
1.29869
1.16503
1.03843
0.918517
0.805108
0.697834
0.596753
0.501948
0.413245
0.330688
0.2547
0.185368
0.12305
0.0684355
0.021511
1.91319
1.74846
1.59195
1.44331
1.30225
1.16849
1.04171
0.921562
0.8079
0.700371
0.599037
0.503984
0.415037
0.332239
0.256006
0.18642
0.123833
0.0689243
0.0216733
1.91478
1.75215
1.59688
1.44889
1.30805
1.17424
1.04724
0.926776
0.81275
0.704842
0.603126
0.507691
0.418363
0.335177
0.258533
0.188501
0.125415
0.0699323
0.0220196
1.91696
1.75722
1.6037
1.45664
1.31615
1.18229
1.055
0.934111
0.819589
0.711164
0.608929
0.512974
0.423122
0.339394
0.262164
0.191487
0.127677
0.0713646
0.022508
1.9198
1.76381
1.61258
1.46672
1.32669
1.19277
1.0651
0.94366
0.82851
0.719444
0.616576
0.519995
0.429512
0.345119
0.267148
0.195624
0.130833
0.0733761
0.0232048
1.92369
1.77256
1.6242
1.4798
1.34026
1.20621
1.07802
0.95586
0.839921
0.730085
0.626496
0.529237
0.438092
0.352994
0.274189
0.201629
0.135532
0.0764475
0.0243181
1.92825
1.7829
1.63797
1.49535
1.35642
1.22223
1.09345
0.970479
0.853681
0.743062
0.638821
0.541052
0.449513
0.364054
0.284759
0.211375
0.143835
0.082377
0.0267256
1.93177
1.79058
1.64762
1.50528
1.36547
1.22963
1.09881
0.973668
0.854759
0.742229
0.636349
0.53724
0.444647
0.358374
0.278441
0.204633
0.13707
0.076557
0.0237784
1.93385
1.79412
1.65046
1.5057
1.36228
1.22214
1.08672
0.957018
0.833817
0.717412
0.608146
0.506175
0.411298
0.32347
0.243106
0.170725
0.107545
0.0553889
0.0152875
1.9356
1.79674
1.65167
1.5037
1.35582
1.21051
1.0697
0.93478
0.806808
0.686286
0.573696
0.469318
0.373171
0.285566
0.207422
0.139765
0.0839807
0.0411231
0.01067
1.93739
1.79974
1.65369
1.50296
1.35105
1.201
1.05525
0.915622
0.783515
0.659696
0.544856
0.439482
0.343856
0.258579
0.184713
0.12305
0.0740664
0.0372403
0.0104578
1.93925
1.80305
1.65631
1.50313
1.34752
1.19306
1.04275
0.898875
0.763208
0.63682
0.520637
0.415346
0.321391
0.239391
0.170109
0.113612
0.0693002
0.0356468
0.0102469
1.94159
1.80713
1.65987
1.50439
1.34525
1.1866
1.03201
0.884239
0.745469
0.617078
0.500212
0.395676
0.303912
0.225305
0.160065
0.107497
0.0662645
0.034493
0.00999437
1.94343
1.81038
1.66244
1.50466
1.34213
1.17958
1.02109
0.86992
0.72863
0.598877
0.481966
0.378718
0.289413
0.214051
0.152247
0.102712
0.0637202
0.0333619
0.00969059
1.94441
1.81167
1.66242
1.50207
1.33617
1.16998
1.00807
0.854127
0.711037
0.580665
0.464387
0.362928
0.276291
0.204034
0.145247
0.0982414
0.0611249
0.0320558
0.00928722
1.94444
1.81037
1.65867
1.49512
1.3257
1.15611
0.991312
0.835333
0.691291
0.561149
0.446246
0.347102
0.263374
0.194185
0.13821
0.0935139
0.0581607
0.0304167
0.00872441
1.94302
1.80545
1.64982
1.48224
1.30907
1.13632
0.969274
0.812145
0.668146
0.539204
0.426502
0.330263
0.249763
0.18373
0.130531
0.0880994
0.0545322
0.0282448
0.00790638
1.94013
1.79703
1.63611
1.46378
1.28669
1.11112
0.942505
0.785121
0.642129
0.515279
0.405499
0.31264
0.235597
0.17276
0.122287
0.0820515
0.0502572
0.0255163
0.00679665
1.9375
1.7904
1.62654
1.4523
1.27432
1.09884
0.931157
0.775421
0.634618
0.510303
0.403165
0.312808
0.237917
0.176736
0.127342
0.087603
0.0556803
0.0300033
0.00906473
1.93582
1.78715
1.62327
1.45032
1.27463
1.10206
0.937596
0.78507
0.647235
0.525455
0.42028
0.331231
0.256941
0.195652
0.145458
0.104199
0.0698643
0.0404842
0.0137571
1.93422
1.784
1.62008
1.44839
1.27496
1.10531
0.944053
0.794697
0.659744
0.54035
0.436937
0.348947
0.274974
0.213256
0.161889
0.118662
0.081448
0.0481391
0.0164414
1.93281
1.78114
1.61719
1.44679
1.27563
1.10888
0.950788
0.804547
0.67239
0.555266
0.453466
0.366358
0.292498
0.23012
0.17732
0.13187
0.0916352
0.0545765
0.0186357
1.93139
1.77822
1.61431
1.44523
1.27637
1.11251
0.957585
0.814441
0.685053
0.570159
0.469913
0.383609
0.309761
0.246597
0.192232
0.14446
0.101207
0.0605784
0.0207159
1.92954
1.77489
1.61112
1.44342
1.27687
1.11593
0.964186
0.82417
0.697588
0.584957
0.486289
0.400794
0.326943
0.262959
0.20699
0.156877
0.110638
0.0665218
0.0228137
1.92801
1.77224
1.60867
1.4423
1.27796
1.11984
0.971211
0.834284
0.710489
0.600115
0.503023
0.41833
0.344459
0.279627
0.22202
0.169538
0.120289
0.0726496
0.0250079
1.92714
1.77042
1.60694
1.44174
1.27949
1.12414
0.978607
0.84479
0.723823
0.615758
0.520289
0.436438
0.362569
0.296891
0.237628
0.182735
0.130403
0.0791202
0.0273514
1.92596
1.76789
1.60429
1.44018
1.28009
1.12764
0.985426
0.854958
0.737064
0.631536
0.537892
0.455044
0.381297
0.314847
0.253955
0.196624
0.141119
0.0860278
0.0298808
1.9243
1.76448
1.60057
1.43756
1.27978
1.1305
0.991903
0.865103
0.750579
0.64785
0.556246
0.474568
0.401054
0.333885
0.271354
0.211506
0.15267
0.0935273
0.032657
1.9226
1.76071
1.59632
1.43449
1.27927
1.1335
0.998886
0.876091
0.765227
0.665529
0.576138
0.495741
0.422509
0.354604
0.290347
0.227815
0.165392
0.101839
0.0357667
1.92063
1.75612
1.59121
1.43089
1.27874
1.13704
1.00692
0.888561
0.781699
0.685286
0.598277
0.51925
0.446312
0.377602
0.311468
0.246007
0.179645
0.11121
0.0393102
1.91751
1.74997
1.58496
1.42689
1.27864
1.14178
1.01681
0.903403
0.80092
0.708044
0.623561
0.545955
0.473269
0.403622
0.335381
0.266654
0.195888
0.121957
0.0434214
1.91426
1.74418
1.57989
1.42503
1.2816
1.15033
1.03107
0.922987
0.825102
0.735854
0.653881
0.577586
0.504953
0.434072
0.363325
0.290803
0.214951
0.134646
0.0483353
1.91167
1.73997
1.57764
1.42729
1.28977
1.16492
1.05191
0.949481
0.856337
0.770717
0.691141
0.615947
0.543057
0.470523
0.396727
0.319711
0.237868
0.15002
0.0543757
1.90849
1.73657
1.5783
1.43437
1.30424
1.18684
1.08075
0.984359
0.896149
0.814195
0.736927
0.662634
0.589171
0.514538
0.437092
0.354773
0.265852
0.16899
0.0619737
1.90618
1.73728
1.58595
1.45053
1.32918
1.22006
1.12139
1.03128
0.948064
0.869709
0.794573
0.720903
0.64647
0.569183
0.487327
0.398657
0.3012
0.193279
0.0719521
1.90714
1.74616
1.60502
1.48015
1.3688
1.2687
1.17784
1.09421
1.01606
0.94127
0.868143
0.794876
0.719116
0.638625
0.551537
0.455274
0.347419
0.225648
0.0857237
1.9125
1.7651
1.6376
1.52537
1.42533
1.33511
1.25268
1.176
1.1033
1.03239
0.96152
0.888817
0.811748
0.727834
0.63493
0.529897
0.409531
0.270309
0.105698
1.9234
1.79545
1.68493
1.58743
1.50018
1.42101
1.34804
1.27926
1.21294
1.14684
1.07915
1.00791
0.930333
0.843556
0.744962
0.630486
0.495555
0.334465
0.136585
1.93953
1.83624
1.74582
1.6653
1.5927
1.52627
1.46439
1.40519
1.34704
1.28768
1.22524
1.15768
1.08186
0.994392
0.891917
0.768896
0.618429
0.430881
0.188297
1.9589
1.88408
1.81659
1.75554
1.69993
1.64856
1.60018
1.55316
1.50604
1.45665
1.40318
1.34351
1.27419
1.19121
1.09017
0.963359
0.80009
0.583826
0.283682
1.97849
1.93402
1.89194
1.85304
1.81721
1.7838
1.75201
1.7206
1.68849
1.65383
1.61505
1.57027
1.51599
1.44785
1.36041
1.24325
1.08015
0.843186
0.479418
1.99503
1.98075
1.9661
1.95216
1.93917
1.92696
1.91526
1.90348
1.89118
1.87736
1.86123
1.84175
1.81651
1.78215
1.73339
1.65844
1.53527
1.31982
0.923823
)
;

boundaryField
{
    up
    {
        type            fixedValue;
        value           uniform 0;
    }
    low
    {
        type            fixedValue;
        value           uniform 2;
    }
    left
    {
        type            fixedValue;
        value           uniform 2;
    }
    right
    {
        type            fixedValue;
        value           uniform 2;
    }
    frontAndBackPlanes
    {
        type            empty;
    }
}


// ************************************************************************* //
