/*--------------------------------*- C++ -*----------------------------------*\
  =========                 |
  \\      /  F ield         | OpenFOAM: The Open Source CFD Toolbox
   \\    /   O peration     | Website:  https://openfoam.org
    \\  /    A nd           | Version:  7
     \\/     M anipulation  |
\*---------------------------------------------------------------------------*/
FoamFile
{
    version     2.0;
    format      ascii;
    class       volScalarField;
    location    "0.06";
    object      gradTx;
}
// * * * * * * * * * * * * * * * * * * * * * * * * * * * * * * * * * * * * * //

dimensions      [0 -1 0 1 0 0 0];

internalField   nonuniform List<scalar> 
1596
(
-0.122017
-0.610481
-1.07044
-1.44485
-1.72419
-1.91021
-2.02523
-2.08635
-2.11074
-2.11873
-2.11368
-2.11311
-2.13597
-2.21038
-2.36992
-2.68623
-3.25762
-4.2807
-6.15129
0.0378846
-0.477224
-0.919954
-1.27138
-1.5344
-1.71311
-1.827
-1.8891
-1.91522
-1.91955
-1.90534
-1.88315
-1.8561
-1.83064
-1.80925
-1.79661
-1.77698
-1.70827
-1.4855
0.172689
-0.329079
-0.731692
-1.04456
-1.2788
-1.44097
-1.54694
-1.60726
-1.63499
-1.64074
-1.62766
-1.60231
-1.56279
-1.50796
-1.43369
-1.33602
-1.20114
-1.00382
-0.684087
0.205889
-0.213991
-0.545101
-0.802618
-0.997432
-1.13578
-1.22889
-1.28489
-1.31369
-1.32304
-1.31636
-1.29771
-1.26421
-1.21201
-1.13482
-1.02547
-0.872885
-0.662868
-0.363738
0.11213
-0.16715
-0.400121
-0.588374
-0.735354
-0.843899
-0.9199
-0.968553
-0.996471
-1.00884
-1.0091
-0.999729
-0.978363
-0.94073
-0.880498
-0.789183
-0.657062
-0.474416
-0.224022
-0.0853773
-0.202393
-0.32418
-0.434763
-0.527998
-0.601695
-0.65647
-0.694178
-0.718125
-0.731031
-0.735798
-0.733806
-0.72351
-0.70125
-0.661636
-0.596176
-0.49592
-0.352191
-0.153638
-0.336326
-0.3099
-0.324249
-0.355898
-0.392547
-0.427609
-0.457407
-0.480462
-0.496955
-0.507246
-0.513098
-0.514951
-0.511836
-0.500991
-0.478326
-0.436315
-0.366948
-0.261689
-0.110999
-0.586581
-0.45786
-0.383246
-0.343271
-0.325327
-0.320838
-0.323566
-0.329308
-0.335575
-0.34059
-0.344573
-0.347039
-0.347176
-0.342983
-0.331602
-0.307014
-0.262522
-0.190078
-0.0807651
-0.836697
-0.650093
-0.507061
-0.402486
-0.329972
-0.282627
-0.253935
-0.238017
-0.230249
-0.226843
-0.226139
-0.226528
-0.226831
-0.225407
-0.220265
-0.206951
-0.180262
-0.133216
-0.0575968
-0.984232
-0.789313
-0.614236
-0.469482
-0.357799
-0.276704
-0.221493
-0.186159
-0.165056
-0.153104
-0.147101
-0.144456
-0.143446
-0.142501
-0.140138
-0.133241
-0.118066
-0.0891336
-0.0395056
-1.10784
-0.916161
-0.72583
-0.554022
-0.41129
-0.300671
-0.220585
-0.166057
-0.131186
-0.110035
-0.0980867
-0.0917856
-0.088702
-0.0870519
-0.0855059
-0.0818839
-0.0736147
-0.0567331
-0.025852
-1.24017
-1.05617
-0.856723
-0.663287
-0.492479
-0.353029
-0.247243
-0.172056
-0.121904
-0.0902653
-0.0714535
-0.0608685
-0.0552149
-0.0522374
-0.0504583
-0.0482035
-0.0437063
-0.0342713
-0.016042
-1.29154
-1.13172
-0.939574
-0.740687
-0.55601
-0.398961
-0.275514
-0.185
-0.122862
-0.0826296
-0.058029
-0.0437494
-0.0358249
-0.0315553
-0.0292291
-0.0274006
-0.0247935
-0.0196482
-0.00941264
-1.32393
-1.18654
-1.00529
-0.806141
-0.612946
-0.443038
-0.305654
-0.202505
-0.130194
-0.0825088
-0.0528396
-0.035316
-0.0254087
-0.0199942
-0.0170898
-0.0152904
-0.013564
-0.0107463
-0.00523279
-1.35148
-1.23228
-1.06114
-0.863138
-0.663824
-0.483699
-0.334818
-0.221059
-0.140125
-0.0860877
-0.0521124
-0.031854
-0.0203019
-0.0139505
-0.0105544
-0.00865136
-0.00730004
-0.00567133
-0.00277122
-1.35376
-1.25437
-1.09491
-0.90088
-0.699212
-0.512918
-0.356362
-0.235248
-0.148248
-0.0897209
-0.0527188
-0.0305589
-0.017885
-0.0109105
-0.0071925
-0.00519658
-0.0040036
-0.0029566
-0.00141814
-1.32593
-1.24693
-1.10119
-0.914279
-0.714304
-0.526299
-0.366436
-0.241814
-0.151844
-0.0911305
-0.0526942
-0.0296679
-0.0165108
-0.00928846
-0.00545692
-0.00344427
-0.00234207
-0.00158207
-0.000720868
-1.2854
-1.22064
-1.08752
-0.90868
-0.712621
-0.525859
-0.365934
-0.240894
-0.150589
-0.0897302
-0.051311
-0.0283792
-0.0153363
-0.00821748
-0.00446809
-0.00252763
-0.00151257
-0.000909628
-0.000379793
-1.25608
-1.2028
-1.0779
-0.903394
-0.708646
-0.521762
-0.361523
-0.236552
-0.146748
-0.0866234
-0.0489645
-0.026678
-0.0141187
-0.00733203
-0.00379666
-0.00199366
-0.00107776
-0.000578647
-0.000217178
-1.16955
-1.13644
-1.02731
-0.864607
-0.678466
-0.498126
-0.343288
-0.222962
-0.137079
-0.0800796
-0.0447367
-0.0240464
-0.0125186
-0.00636281
-0.00319578
-0.00160337
-0.000811335
-0.000400497
-0.000136957
-1.05899
-1.04416
-0.952548
-0.804868
-0.631298
-0.461584
-0.315877
-0.203269
-0.123616
-0.0713398
-0.0393313
-0.0208417
-0.0106812
-0.00533145
-0.0026185
-0.001275
-0.000619116
-0.00028974
-9.30615e-05
-0.930026
-0.928757
-0.854676
-0.724888
-0.568112
-0.413446
-0.280753
-0.178846
-0.107478
-0.0612152
-0.0332766
-0.0173732
-0.008765
-0.00430185
-0.00207353
-0.000987662
-0.000467076
-0.000212045
-6.58517e-05
-0.770477
-0.778016
-0.722502
-0.615893
-0.483132
-0.350626
-0.236731
-0.149581
-0.0890072
-0.0501296
-0.0269205
-0.0138755
-0.00690679
-0.00334232
-0.00158722
-0.000744546
-0.000347565
-0.000157579
-5.06643e-05
-0.573505
-0.562411
-0.508048
-0.421974
-0.323201
-0.229505
-0.151918
-0.094231
-0.0550728
-0.0304555
-0.0160388
-0.00809102
-0.00393074
-0.00184979
-0.000850698
-0.000385742
-0.000176204
-8.22217e-05
-3.06512e-05
-0.384887
-0.414121
-0.410102
-0.369763
-0.304042
-0.229472
-0.160224
-0.104287
-0.0637968
-0.036934
-0.0203912
-0.0108288
-0.00556564
-0.00278862
-0.00137402
-0.000674632
-0.000339422
-0.000186544
-0.00011889
-0.127475
-0.136257
-0.140224
-0.135069
-0.120404
-0.0991475
-0.0756295
-0.0536694
-0.0356793
-0.0223636
-0.0133107
-0.0076007
-0.00419074
-0.002249
-0.0011833
-0.000617725
-0.000328466
-0.000192603
-0.00013918
0.133209
0.124894
0.101041
0.0687208
0.0368801
0.0120807
-0.00323956
-0.0101349
-0.0113912
-0.0097771
-0.00725284
-0.00491775
-0.00312791
-0.00190394
-0.00112125
-0.000646382
-0.000371903
-0.000230204
-0.000170913
0.387772
0.375626
0.332143
0.266631
0.193842
0.127344
0.0753021
0.0396571
0.0180839
0.00655315
0.00123387
-0.000794789
-0.00128438
-0.00117976
-0.000902318
-0.00062663
-0.000407732
-0.000269373
-0.000202752
0.606529
0.584808
0.52315
0.432229
0.32928
0.231373
0.150217
0.0902298
0.0501532
0.025693
0.012017
0.00493263
0.00155197
8.35069e-05
-0.000440152
-0.000531786
-0.000439457
-0.000319486
-0.000239454
0.81644
0.7785
0.696297
0.581715
0.453277
0.329586
0.224136
0.142918
0.0857103
0.048428
0.0258277
0.012901
0.0058811
0.00223049
0.000459519
-0.000293386
-0.000476446
-0.000414409
-0.000304707
0.95436
0.900489
0.80444
0.677635
0.537554
0.401719
0.283405
0.189215
0.119981
0.0724657
0.0418586
0.0230801
0.0120002
0.00562223
0.00207752
0.000218641
-0.000534952
-0.00065137
-0.000485424
1.06652
0.999546
0.89133
0.755057
0.607344
0.464088
0.337538
0.234203
0.155575
0.0992508
0.0611008
0.0363158
0.0206989
0.0109804
0.0050089
0.00138136
-0.000518151
-0.00118414
-0.0010632
1.1544
1.07101
0.951805
0.809627
0.659146
0.513842
0.384219
0.276113
0.191338
0.128252
0.0835716
0.0530541
0.0327236
0.0192425
0.0102803
0.00414972
0.000231688
-0.00184399
-0.0021784
1.18862
1.08369
0.951839
0.804793
0.654763
0.512396
0.385912
0.279838
0.195642
0.131955
0.0859821
0.0539986
0.032325
0.0176922
0.007661
0.000287962
-0.0052303
-0.00924373
-0.0114008
1.18868
1.07751
0.94963
0.813523
0.677079
0.547219
0.429615
0.327785
0.243401
0.176163
0.124578
0.0862584
0.0584542
0.0385248
0.0242059
0.0134183
0.00473443
-0.00293084
-0.0100449
1.17618
1.06302
0.940935
0.81419
0.687801
0.566889
0.455964
0.358112
0.275075
0.20699
0.152976
0.111369
0.0799628
0.0566047
0.0393566
0.0264619
0.0165507
0.00853245
0.00150763
1.07555
0.948615
0.822793
0.699648
0.582299
0.474071
0.37765
0.294564
0.225334
0.169317
0.125254
0.0914457
0.0658735
0.0466852
0.0322824
0.021292
0.01269
0.00579643
0.000113433
0.917654
0.806353
0.697843
0.593157
0.494483
0.404111
0.323841
0.254634
0.196751
0.149598
0.112159
0.0830913
0.0607878
0.0437692
0.0307516
0.020611
0.0124955
0.00583814
0.000215346
0.744938
0.654191
0.565432
0.480277
0.400569
0.327978
0.263721
0.208378
0.162036
0.12415
0.0939074
0.0702475
0.0519148
0.0377545
0.0267681
0.0180706
0.0109954
0.00510623
7.43076e-05
0.551187
0.48258
0.416295
0.353375
0.294932
0.241972
0.195202
0.154931
0.121153
0.0934434
0.071214
0.0537084
0.0400322
0.0293636
0.0209947
0.0142916
0.00878032
0.00415609
0.000186596
0.343044
0.297562
0.255373
0.216212
0.180288
0.147963
0.119526
0.0950791
0.074575
0.0577306
0.0441835
0.0334744
0.0250644
0.0184594
0.0132361
0.00901309
0.00550755
0.00254151
-2.03402e-05
0.130581
0.111745
0.0951269
0.0800444
0.0663739
0.0541749
0.0435193
0.0344215
0.0268421
0.0206572
0.0157161
0.0118349
0.00880541
0.00643819
0.00457208
0.00306362
0.00180642
0.000733427
-0.000204995
-0.130519
-0.111601
-0.0949283
-0.0798145
-0.066132
-0.0539363
-0.043295
-0.0342188
-0.0266645
-0.0205059
-0.0155899
-0.0117317
-0.00872254
-0.00637309
-0.00452241
-0.0030276
-0.00178279
-0.00072127
0.000206237
-0.342984
-0.297432
-0.255196
-0.216008
-0.180075
-0.147755
-0.119331
-0.0949048
-0.0744238
-0.0576029
-0.0440782
-0.0333892
-0.0249969
-0.0184072
-0.0131972
-0.00898601
-0.0054912
-0.00253513
1.72343e-05
-0.551124
-0.48245
-0.416119
-0.353173
-0.294722
-0.241766
-0.195012
-0.154762
-0.121008
-0.0933217
-0.0711147
-0.0536288
-0.0399695
-0.029315
-0.0209579
-0.0142647
-0.00876182
-0.00414489
-0.000181883
-0.744887
-0.65409
-0.565298
-0.480127
-0.400415
-0.327833
-0.263591
-0.208267
-0.161944
-0.124078
-0.0938514
-0.0702053
-0.0518837
-0.0377322
-0.0267526
-0.0180607
-0.01099
-0.00510467
-7.59832e-05
-0.917614
-0.806275
-0.697738
-0.59304
-0.494367
-0.404005
-0.323751
-0.254563
-0.196698
-0.14956
-0.112135
-0.0830761
-0.0607793
-0.0437651
-0.0307504
-0.0206116
-0.012497
-0.0058399
-0.000216555
-1.07553
-0.94857
-0.822728
-0.699576
-0.582232
-0.474018
-0.377615
-0.294548
-0.225333
-0.169327
-0.125271
-0.0914654
-0.0658932
-0.0467034
-0.0322982
-0.0213051
-0.0127
-0.00580275
-0.000115902
-1.17615
-1.06288
-0.940692
-0.813864
-0.687426
-0.566502
-0.455595
-0.357781
-0.274792
-0.206758
-0.152791
-0.111224
-0.0798503
-0.0565167
-0.0392859
-0.0264032
-0.0165011
-0.00849374
-0.00148776
-1.18886
-1.07799
-0.950409
-0.814551
-0.678279
-0.548503
-0.430895
-0.328987
-0.244476
-0.177084
-0.125338
-0.0868692
-0.0589353
-0.0389014
-0.0245036
-0.0136621
-0.00494329
0.00274789
0.0098949
-1.18852
-1.08345
-0.951491
-0.804397
-0.654364
-0.512026
-0.385581
-0.279551
-0.195393
-0.13174
-0.085796
-0.0538376
-0.0321858
-0.0175719
-0.00755589
-0.000193157
0.00532443
0.00935576
0.0115581
-1.15445
-1.07115
-0.95204
-0.809949
-0.659532
-0.514256
-0.384625
-0.276481
-0.191649
-0.1285
-0.0837608
-0.0531939
-0.0328249
-0.0193146
-0.0103297
-0.00417873
-0.000240694
0.00185257
0.00219799
-1.06655
-0.99963
-0.891491
-0.755294
-0.607639
-0.464409
-0.337851
-0.23448
-0.155803
-0.0994262
-0.0612303
-0.0364088
-0.0207651
-0.011027
-0.00503997
-0.00139732
0.000517131
0.00119209
0.00106724
-0.954393
-0.900582
-0.804613
-0.677885
-0.537857
-0.402037
-0.283703
-0.189469
-0.120181
-0.0726129
-0.0419631
-0.0231528
-0.0120507
-0.00565711
-0.00210031
-0.000230363
0.000533237
0.000655049
0.000484508
-0.816476
-0.778605
-0.696487
-0.58198
-0.453585
-0.329896
-0.224413
-0.143142
-0.0858779
-0.0485459
-0.0259076
-0.0129542
-0.00591654
-0.00225384
-0.000473839
0.000286503
0.000475241
0.000415757
0.000303125
-0.606564
-0.58492
-0.523345
-0.43249
-0.329568
-0.231649
-0.150451
-0.090409
-0.0502801
-0.0257777
-0.0120714
-0.00496705
-0.0015736
-9.67027e-05
0.000432949
0.000528971
0.000439329
0.000320123
0.00023834
-0.387818
-0.375758
-0.332357
-0.266896
-0.194115
-0.127587
-0.075494
-0.0397943
-0.0181745
-0.00660938
-0.00126741
0.000775268
0.00127329
0.00117393
0.000899914
0.000626359
0.000408374
0.00026993
0.000202267
-0.133253
-0.12503
-0.101253
-0.0689655
-0.0371132
-0.0122717
0.00310126
0.0100445
0.0113371
0.00974706
0.00723711
0.00491005
0.00312459
0.00190304
0.00112171
0.000647425
0.000372904
0.000230806
0.000170903
0.127365
0.135939
0.139765
0.134572
0.11996
0.0988032
0.0753921
0.0535207
0.0355936
0.0223177
0.0132877
0.00759004
0.00418641
0.00224778
0.00118346
0.000618335
0.000328999
0.00019289
0.000139278
0.384948
0.414339
0.410455
0.370183
0.304454
0.22982
0.160486
0.104466
0.0639104
0.037002
0.0204301
0.0108505
0.00557772
0.0027954
0.0013779
0.000676871
0.000340698
0.000187276
0.000119295
0.573415
0.562128
0.507631
0.421514
0.322775
0.229159
0.151663
0.0940579
0.0549633
0.0303903
0.016002
0.00807127
0.00392063
0.00184486
0.000848403
0.000384704
0.000175724
8.19921e-05
3.05728e-05
0.770514
0.778088
0.722595
0.615986
0.483211
0.350684
0.236769
0.149605
0.0890207
0.050137
0.0269244
0.0138776
0.00690792
0.00334293
0.00158755
0.000744719
0.000347644
0.000157616
5.06857e-05
0.930028
0.928758
0.854672
0.72488
0.568102
0.413438
0.280748
0.178844
0.107479
0.0612165
0.0332781
0.0173745
0.00876594
0.00430247
0.0020739
0.000987876
0.0004672
0.000212116
6.5877e-05
1.059
1.04417
0.952547
0.804863
0.63129
0.461577
0.315872
0.203267
0.123616
0.0713409
0.0393327
0.0208429
0.0106821
0.00533203
0.00261886
0.00127523
0.000619274
0.000289846
9.3092e-05
1.16955
1.13645
1.02731
0.864604
0.678461
0.498121
0.343283
0.22296
0.137078
0.08008
0.0447376
0.0240474
0.0125194
0.00636337
0.00319618
0.00160369
0.000811611
0.000400706
0.000137021
1.25608
1.2028
1.07791
0.903396
0.708644
0.521758
0.361519
0.236549
0.146746
0.0866232
0.048965
0.0266787
0.0141195
0.00733263
0.00379719
0.00199418
0.0010783
0.000579079
0.000217309
1.2854
1.22065
1.08752
0.908683
0.712621
0.525856
0.36593
0.240891
0.150587
0.0897295
0.0513111
0.0283798
0.015337
0.00821822
0.0044689
0.00252857
0.00151362
0.000910475
0.000380035
1.32593
1.24693
1.1012
0.914281
0.714304
0.526297
0.366433
0.241811
0.151842
0.0911297
0.0526942
0.0296685
0.0165116
0.00928949
0.00545826
0.003446
0.00234401
0.00158359
0.000721254
1.35376
1.25438
1.09491
0.900885
0.699215
0.512918
0.356361
0.235246
0.148246
0.0897202
0.0527188
0.0305595
0.017886
0.0109121
0.00719477
0.00519961
0.0040069
0.00295902
0.00141863
1.35148
1.23229
1.06114
0.863142
0.663827
0.4837
0.334817
0.221057
0.140123
0.0860869
0.0521123
0.0318546
0.0203033
0.013953
0.0105582
0.00865624
0.00730502
0.00567457
0.00277163
1.32393
1.18654
1.00529
0.806147
0.61295
0.44304
0.305654
0.202505
0.130194
0.0825085
0.0528399
0.0353171
0.0254111
0.0199982
0.0170956
0.0152973
0.0135703
0.0107497
0.0052327
1.29154
1.13172
0.93958
0.740694
0.556016
0.398965
0.275516
0.185001
0.122863
0.08263
0.0580299
0.0437514
0.0358287
0.0315612
0.0292368
0.0274085
0.0247993
0.0196499
0.00941147
1.24016
1.05617
0.856724
0.663291
0.492483
0.353031
0.247244
0.172057
0.121905
0.0902658
0.0714549
0.0608715
0.05522
0.0522446
0.0504661
0.0482094
0.0437079
0.0342687
0.0160394
1.10785
0.916168
0.725837
0.554029
0.411296
0.300676
0.220589
0.16606
0.131188
0.110037
0.0980893
0.0917897
0.0887077
0.087058
0.08551
0.081883
0.0736079
0.0567243
0.0258483
0.984244
0.789321
0.61424
0.469486
0.357802
0.276707
0.221496
0.186161
0.165058
0.153106
0.147104
0.14446
0.143449
0.142502
0.140132
0.133228
0.118048
0.0891189
0.0395024
0.836708
0.650098
0.507062
0.402487
0.329974
0.282629
0.253937
0.238019
0.23025
0.226844
0.22614
0.226528
0.226828
0.225397
0.220246
0.206925
0.180236
0.1332
0.0575965
0.586589
0.457864
0.383246
0.343272
0.325328
0.320839
0.323567
0.329308
0.335574
0.340588
0.34457
0.347032
0.347162
0.342961
0.331571
0.30698
0.262495
0.190068
0.0807696
0.336333
0.309904
0.324253
0.355901
0.392549
0.42761
0.457406
0.48046
0.496951
0.507241
0.513089
0.514936
0.511813
0.500959
0.478291
0.436286
0.366934
0.261694
0.111009
0.085382
0.202399
0.324188
0.434769
0.528001
0.601694
0.656467
0.694173
0.718118
0.731022
0.735783
0.733785
0.723482
0.701219
0.661611
0.596167
0.49593
0.352211
0.153649
-0.112127
0.167159
0.400133
0.588383
0.735357
0.843898
0.919895
0.968546
0.996462
1.00883
1.00908
0.999707
0.97834
0.940712
0.880495
0.789201
0.657095
0.474445
0.224028
-0.205889
0.214
0.545112
0.802624
0.997433
1.13578
1.22889
1.28489
1.31368
1.32303
1.31635
1.2977
1.26421
1.21201
1.13484
1.02551
0.872926
0.66289
0.363735
-0.17269
0.329083
0.731694
1.04456
1.2788
1.44097
1.54693
1.60726
1.63499
1.64073
1.62766
1.60231
1.5628
1.50799
1.43372
1.33606
1.20116
1.00382
0.684075
-0.0378836
0.477221
0.919944
1.27137
1.53439
1.7131
1.82699
1.8891
1.91522
1.91956
1.90534
1.88317
1.85612
1.83067
1.80928
1.79663
1.77697
1.70825
1.48549
0.122019
0.610477
1.07042
1.44484
1.72418
1.9102
2.02523
2.08635
2.11075
2.11873
2.11369
2.11313
2.13599
2.21039
2.36991
2.6862
3.25759
4.28068
6.1513
)
;

boundaryField
{
    up
    {
        type            calculated;
        value           nonuniform List<scalar> 
84
(
-6.15129
-1.4855
-0.684087
-0.363738
-0.224022
-0.153638
-0.110999
-0.0807651
-0.0575968
-0.0395056
-0.025852
-0.016042
-0.00941264
-0.00523279
-0.00277122
-0.00141814
-0.000720868
-0.000379793
-0.000217178
-0.000136957
-9.30615e-05
-6.58517e-05
-5.06643e-05
-3.06512e-05
-9.26012e-05
-0.0001194
-0.000150054
-0.000178122
-0.000201345
-0.000225258
-0.000285035
-0.000486381
-0.000804077
-0.00990632
-0.00971129
0.00154173
0.000169254
0.000255216
0.000101737
0.000201248
-1.21087e-05
-0.000201462
0.000202732
9.08212e-06
-0.000196491
-0.000103269
-0.000256264
-0.000171561
-0.00152207
0.00957165
0.0100903
0.000820071
0.000479749
0.000276611
0.00021964
0.000198352
0.000176859
0.000149761
0.000119506
9.28846e-05
3.05728e-05
5.06857e-05
6.5877e-05
9.3092e-05
0.000137021
0.000217309
0.000380035
0.000721254
0.00141863
0.00277163
0.0052327
0.00941147
0.0160394
0.0258483
0.0395024
0.0575965
0.0807696
0.111009
0.153649
0.224028
0.363735
0.684075
1.48549
6.1513
)
;
    }
    low
    {
        type            calculated;
        value           nonuniform List<scalar> 
84
(
-0.109004
0.0583536
0.203907
0.237727
0.13087
-0.0886206
-0.361424
-0.626759
-0.882319
-1.02284
-1.1445
-1.27445
-1.31535
-1.3426
-1.36804
-1.36482
-1.33167
-1.29065
-1.25764
-1.16092
-1.04324
-0.90956
-0.745963
-0.548757
-0.362447
-0.118734
0.123076
0.363656
0.578451
0.793289
0.941276
1.06061
1.15667
1.19966
1.2055
1.1998
1.10555
0.946118
0.768691
0.569227
0.354632
0.135316
-0.135253
-0.354571
-0.569161
-0.768633
-0.94607
-1.10552
-1.19977
-1.20564
-1.19955
-1.1567
-1.06063
-0.941303
-0.793322
-0.578486
-0.363703
-0.12312
0.118625
0.362504
0.548672
0.745993
0.90956
1.04324
1.16092
1.25764
1.29065
1.33167
1.36482
1.36804
1.3426
1.31535
1.27445
1.1445
1.02285
0.882328
0.626766
0.361431
0.0886257
-0.130868
-0.237729
-0.203912
-0.0583583
0.109005
)
;
    }
    left
    {
        type            calculated;
        value           nonuniform List<scalar> 
19
(
-0.111673
-0.596293
-1.07198
-1.46468
-1.76
-1.95723
-2.07974
-2.1464
-2.17423
-2.18741
-2.18878
-2.19699
-2.23692
-2.34478
-2.56138
-2.98334
-3.74461
-5.11756
-5.33145
)
;
    }
    right
    {
        type            calculated;
        value           nonuniform List<scalar> 
19
(
0.111676
0.596294
1.07197
1.46467
1.76
1.95722
2.07974
2.1464
2.17423
2.18742
2.18879
2.197
2.23692
2.34477
2.56135
2.98329
3.74457
5.11754
5.33147
)
;
    }
    frontAndBackPlanes
    {
        type            empty;
    }
}


// ************************************************************************* //
