/*--------------------------------*- C++ -*----------------------------------*\
  =========                 |
  \\      /  F ield         | OpenFOAM: The Open Source CFD Toolbox
   \\    /   O peration     | Website:  https://openfoam.org
    \\  /    A nd           | Version:  7
     \\/     M anipulation  |
\*---------------------------------------------------------------------------*/
FoamFile
{
    version     2.0;
    format      ascii;
    class       volScalarField;
    location    "0.25";
    object      gradTz;
}
// * * * * * * * * * * * * * * * * * * * * * * * * * * * * * * * * * * * * * //

dimensions      [0 -1 0 1 0 0 0];

internalField   nonuniform List<scalar> 
1596
(
-1.61366e-16
-7.84641e-17
7.9711e-17
1.71738e-18
-1.51886e-16
0
-7.09426e-17
-6.99538e-17
-4.62357e-18
-3.68436e-17
-3.37783e-19
-3.66545e-17
1.61318e-16
-3.6254e-17
1.69407e-16
1.46184e-16
8.6951e-17
1.09809e-16
0
1.61238e-16
0
2.27257e-16
-1.57388e-18
-6.9641e-17
6.90363e-17
1.423e-16
4.40295e-18
6.74177e-17
-3.24918e-17
6.48362e-17
-9.81797e-19
-8.99421e-17
-5.6188e-17
-1.36965e-16
-1.33626e-16
-1.21569e-16
6.91999e-17
0
-7.90578e-17
0
-1.48242e-16
2.49949e-18
1.35896e-16
-3.81829e-17
2.9437e-18
-9.44832e-19
-9.5847e-19
-1.01932e-18
2.45353e-17
0
4.66564e-17
1.32336e-16
-1.30443e-17
1.05025e-17
2.46995e-17
3.85878e-17
0
1.24203e-16
-3.73303e-17
3.7194e-17
0
-3.57761e-17
-3.70293e-17
6.29996e-17
-5.49675e-17
0
0
-1.98138e-17
1.28103e-17
0
-3.8971e-17
-4.96467e-17
3.43593e-17
-3.53419e-17
-1.81831e-18
0
2.16999e-17
5.7705e-17
-5.20351e-17
0
-1.5352e-17
-4.67293e-17
0
6.98208e-17
-6.94827e-18
-6.29202e-18
-6.08734e-18
3.63217e-17
4.46667e-17
4.6225e-18
1.64672e-18
-3.71513e-17
1.87186e-18
1.72091e-17
-7.40874e-18
-5.63511e-18
-7.91909e-17
7.53051e-17
-6.57072e-17
-1.3736e-19
-5.80651e-17
1.63675e-18
-1.64218e-18
-4.58253e-17
0
-5.04794e-18
-4.29542e-17
-4.03499e-17
3.27723e-17
3.40754e-17
-4.64949e-19
-2.04326e-17
-1.74549e-17
1.33505e-17
4.70936e-17
-8.06559e-17
9.04218e-17
5.05726e-17
0
4.45826e-17
2.61955e-17
-1.26133e-17
5.81187e-17
-1.09129e-17
-4.61871e-17
4.17688e-19
-2.73589e-17
-3.29278e-17
-2.57183e-17
2.1909e-17
2.06125e-17
-2.75383e-19
-5.56751e-18
4.66109e-18
1.28131e-16
-1.50713e-16
0
0
-5.51506e-17
0
0
0
3.79284e-17
0
0
2.51024e-17
9.32813e-19
6.87934e-18
-1.91577e-17
0
1.01964e-17
3.98664e-18
0
-8.30893e-17
1.59868e-16
0
0
5.67974e-17
0
-2.16458e-17
2.16239e-17
-3.86056e-17
1.60678e-17
-1.61853e-17
0
2.33645e-17
2.28148e-17
0
-1.31679e-17
-1.04185e-17
-3.48352e-18
2.00318e-16
-9.37564e-17
0
-6.64202e-17
6.56769e-17
0
4.85805e-17
0
0
0
1.4824e-17
-1.48951e-17
0
-1.80495e-17
-5.16264e-18
0
1.44622e-18
7.50012e-18
0
-5.08461e-17
0
0
6.65762e-17
-1.24198e-16
6.41762e-18
2.46504e-18
-1.99772e-17
2.2454e-18
7.99928e-19
-1.55478e-17
-2.4979e-17
0
1.88795e-17
-3.78431e-18
3.8411e-18
1.00716e-17
-5.88895e-18
-2.70713e-18
4.2216e-17
-4.55602e-18
4.05392e-17
1.38436e-16
-7.49873e-18
-5.79363e-17
0
0
0
3.20228e-17
1.28179e-17
4.62087e-17
-1.11562e-17
-1.85417e-17
-1.10179e-17
-6.02455e-18
2.68573e-18
-5.84887e-18
2.5748e-18
-4.67516e-17
4.58114e-17
-8.46495e-17
-1.36753e-16
1.26571e-16
5.00162e-17
-9.24492e-17
7.98826e-17
-6.8955e-17
1.79857e-17
1.37485e-17
-1.24538e-17
8.06014e-18
-7.277e-18
2.13195e-17
0
-1.61252e-18
1.18993e-17
-1.76958e-18
-3.03086e-16
1.39102e-16
1.13913e-19
-3.05047e-17
3.9479e-18
4.85736e-17
-9.22351e-17
-3.79351e-17
3.23224e-17
-2.74023e-17
-2.33235e-17
0
-2.65059e-17
-7.88496e-18
-1.40853e-17
-8.37739e-18
6.59239e-19
-7.44603e-18
1.74734e-19
4.95363e-17
-4.40954e-17
9.04502e-20
-3.38193e-17
-8.41924e-17
7.93138e-17
3.41332e-19
3.69677e-17
-3.14701e-17
5.25314e-17
1.24272e-17
1.01924e-17
3.13581e-17
0
2.59946e-17
1.19508e-17
0
4.05473e-18
1.46973e-19
0
4.27776e-17
3.35413e-17
-6.98274e-17
8.15706e-17
-1.22292e-16
8.63888e-17
3.24736e-17
-4.84192e-18
-5.19822e-17
9.49245e-18
-9.44561e-18
-2.85828e-17
1.13293e-17
-5.67122e-18
-1.19155e-17
5.14387e-18
-3.19742e-18
1.26272e-18
-4.61436e-17
1.56376e-16
-1.16533e-16
6.32309e-17
0
0
-1.69586e-17
3.619e-17
-2.5616e-17
4.80957e-17
0
0
1.92439e-17
-1.67911e-17
-1.18617e-17
3.74481e-18
-4.00671e-18
2.11439e-18
0
3.82986e-18
4.31526e-17
-3.47166e-17
-3.03445e-17
-4.88041e-17
-1.56599e-17
2.19239e-17
0
-2.4053e-17
-1.94755e-17
1.74584e-17
-1.41918e-17
1.14645e-17
0
4.53443e-18
8.83538e-18
0
0
0
-3.66882e-18
6.88022e-17
2.61149e-17
-9.16171e-17
2.52036e-17
2.15496e-17
0
0
2.26887e-17
-1.18323e-17
-1.6886e-17
1.3726e-17
-1.10871e-17
0
-2.93971e-18
2.4904e-18
0
-2.10745e-18
-7.37276e-19
-3.69646e-17
1.08473e-16
-1.31437e-16
-5.23401e-17
2.74823e-17
-2.03976e-17
1.70629e-17
0
-1.15432e-17
9.60922e-18
0
0
4.34479e-18
-4.3498e-18
1.29779e-18
-1.7393e-18
2.99944e-18
3.75088e-19
5.49153e-19
1.90446e-17
-1.71384e-17
8.74606e-17
-5.64228e-17
-2.27858e-17
2.99378e-18
3.51992e-17
1.32847e-17
1.10451e-17
0
6.32452e-18
-5.85149e-18
4.63509e-18
-3.90863e-18
5.00814e-18
-8.61766e-18
-2.33539e-18
2.03606e-18
5.40516e-19
5.08973e-17
-5.16403e-17
0
4.71056e-17
-2.48796e-17
-1.84263e-17
1.26337e-17
-4.0531e-17
0
-7.2154e-19
-7.33731e-18
-5.24435e-18
7.5902e-18
-5.96759e-19
-4.84028e-18
3.5698e-18
0
1.28493e-18
-5.24836e-19
8.71598e-17
-1.5358e-17
6.50975e-17
-5.09761e-17
2.78562e-17
2.88903e-18
-3.18264e-17
-1.0766e-17
1.93446e-17
-8.39876e-19
-1.11773e-17
9.40569e-18
-4.10192e-18
-5.35387e-18
0
0
0
-1.297e-18
4.81093e-20
-7.7395e-17
7.5336e-17
5.44353e-20
1.14362e-17
9.80481e-18
-2.35355e-17
2.76659e-17
-2.2622e-17
1.92021e-17
-6.30439e-18
1.19735e-17
4.22628e-18
-1.78833e-18
9.01617e-20
-6.35258e-19
-1.11518e-18
0
0
0
0
0
3.67513e-17
-1.80499e-17
-5.56447e-17
0
0
-6.57444e-18
-1.05442e-17
8.77599e-18
0
-5.33011e-18
4.1125e-18
-1.36178e-17
1.56326e-17
-5.06597e-18
5.39122e-18
5.87848e-19
0
-1.49948e-17
1.51794e-17
0
-1.21436e-17
1.23139e-17
2.02698e-17
0
6.63722e-18
8.65426e-18
-3.88375e-17
0
-5.95e-18
4.61507e-18
3.27743e-18
-2.42364e-18
3.53702e-18
0
-1.29371e-18
0
-7.71191e-18
-7.65962e-18
4.5354e-19
1.24772e-17
-3.34127e-17
0
-8.54097e-18
0
2.39537e-17
9.60827e-18
0
2.35981e-17
-2.46545e-17
2.52321e-18
-5.37265e-18
1.5669e-18
6.80418e-18
2.55991e-18
-2.02807e-18
0
1.59237e-17
-1.39148e-17
1.7256e-17
2.06508e-17
0
1.73685e-17
-1.63913e-17
-1.28526e-17
1.92341e-17
-2.88648e-17
-1.4011e-17
0
0
3.02136e-18
0
0
8.57626e-19
0
-7.07036e-17
5.43009e-17
0
8.48957e-19
-1.20419e-17
-6.61091e-19
1.06694e-17
7.59077e-18
-9.54196e-18
-2.4072e-17
3.80656e-17
-1.0332e-17
0
-4.89488e-18
0
0
0
-3.31542e-18
2.64918e-18
-2.00183e-17
1.87291e-17
4.9952e-17
-4.88108e-17
1.4971e-17
8.51438e-19
-1.08386e-17
9.32488e-18
1.58198e-17
1.20677e-17
-2.38441e-17
0
1.22623e-17
1.66357e-18
-5.60393e-18
-1.22054e-17
1.00512e-17
-1.61411e-18
3.0601e-18
-6.78038e-17
9.73695e-17
-9.65363e-17
1.69561e-17
1.43701e-17
-1.36651e-17
1.1487e-17
-9.10061e-18
0
-7.70479e-18
1.23056e-17
5.33574e-18
8.58607e-18
1.08181e-17
-1.61843e-17
-2.87624e-19
0
-1.24558e-18
4.17351e-19
-7.33119e-17
-2.17929e-17
-3.81805e-17
2.03183e-17
-3.31303e-17
2.87761e-17
-1.71427e-17
1.44858e-17
-1.02053e-18
-1.0174e-18
-1.29681e-17
7.67152e-18
-4.25747e-18
1.29915e-17
-1.39465e-17
1.71538e-18
1.46949e-18
0
-7.24431e-19
7.92662e-17
-2.35089e-17
0
0
-3.41197e-17
6.63611e-17
-1.5505e-17
-2.97221e-18
2.44524e-17
-6.33527e-19
0
0
-5.6089e-18
0
-1.21701e-17
2.94908e-17
-2.04473e-17
0
2.89061e-19
2.70883e-17
5.05683e-17
0
-2.15218e-17
-1.75352e-17
-1.55012e-17
-1.61348e-17
6.6751e-18
-1.86448e-17
-1.01846e-17
0
0
7.52211e-18
0
0
-1.65264e-17
2.72498e-17
0
0
1.85904e-16
-2.20431e-17
-1.12425e-16
-6.11632e-17
8.2971e-17
2.64223e-17
1.56447e-17
0
-5.74401e-18
5.55288e-18
1.3783e-17
-4.44174e-18
-6.60071e-18
1.02354e-17
-1.08873e-17
-3.34611e-18
0
0
0
1.48874e-17
-1.17413e-16
1.15102e-16
-1.10286e-17
-8.5254e-17
1.33438e-16
-6.69991e-17
0
0
3.57081e-17
-2.93233e-17
0
-8.84869e-18
1.5421e-17
-1.729e-18
4.50106e-18
1.37181e-18
1.50636e-20
2.98695e-19
0
0
0
9.67858e-17
-6.49153e-17
6.82117e-17
-1.06351e-16
3.02893e-17
0
-1.09076e-17
1.74476e-17
-1.78325e-17
-3.49756e-18
-5.66747e-20
-2.39812e-18
-3.51498e-19
-1.9125e-18
-5.37016e-19
-2.93105e-19
1.24627e-16
-2.22217e-16
1.05307e-16
0
2.83399e-17
-3.86158e-17
3.87084e-17
-3.07062e-17
0
-1.49575e-17
2.09702e-17
0
0
-4.06848e-20
0
-2.48548e-18
1.6997e-18
3.11254e-19
4.67692e-19
1.21056e-16
0
-4.8159e-17
5.37903e-17
-3.37703e-17
7.37988e-17
-3.48882e-17
-2.73078e-17
2.7593e-17
-2.80704e-18
0
0
1.80023e-18
-3.03792e-18
-2.13029e-18
4.03841e-18
-8.74278e-19
4.46947e-19
0
6.87271e-17
5.36888e-17
-1.84147e-18
-5.12938e-17
-5.18054e-18
-3.73653e-17
4.04167e-18
3.14081e-17
-1.62397e-18
2.85975e-18
0
0
-1.84421e-18
0
2.17016e-18
-2.32155e-18
0
2.97352e-19
-8.24162e-20
-3.64781e-17
-2.69345e-17
2.52216e-17
-2.88918e-18
-1.29592e-18
3.50185e-18
0
-9.25159e-19
1.38631e-17
-1.16749e-17
0
3.95716e-18
-7.76882e-19
-3.49353e-18
-3.19597e-19
-2.49215e-19
0
-2.32457e-19
0
1.48954e-17
-2.8326e-17
-3.73945e-19
1.21748e-17
1.11468e-17
-1.10738e-17
-7.85398e-18
8.89041e-18
-3.05354e-18
2.38879e-18
-2.32299e-18
2.39463e-18
0
6.12241e-21
-2.3553e-19
8.4663e-19
-2.89761e-21
0
0
1.48959e-17
-1.484e-17
-1.2111e-17
1.07289e-17
1.96912e-17
-1.98074e-17
-3.92712e-18
3.93645e-18
-3.07937e-18
3.11169e-18
-2.32307e-18
4.38411e-18
-1.22961e-18
-8.8557e-19
-2.71823e-19
9.01259e-20
2.15006e-19
5.68562e-20
-4.26397e-20
0
-3.53397e-18
2.10946e-17
-2.28658e-17
1.96554e-17
-1.74236e-17
0
1.3879e-17
-1.24151e-17
0
4.62403e-18
-5.85461e-18
-3.33371e-18
3.49394e-18
6.42708e-19
0
0
-2.32494e-19
8.4482e-20
5.92805e-17
-1.09174e-16
1.114e-16
-9.78287e-17
3.84681e-17
-3.27166e-17
3.10457e-17
3.69262e-18
-1.37551e-17
1.229e-17
0
-8.9229e-18
8.12634e-18
-1.54427e-18
-6.29532e-19
9.9003e-19
7.27831e-19
2.25707e-19
-8.16289e-20
1.36495e-16
0
-5.44803e-17
4.2341e-17
5.12097e-18
-3.93911e-17
6.98845e-17
-6.20548e-17
2.43659e-17
-1.04276e-17
1.06736e-17
2.11487e-18
3.63364e-18
1.50414e-18
-1.24743e-18
-1.64042e-19
-1.57652e-18
0
1.61169e-19
1.09395e-16
-1.23138e-16
0
1.13012e-17
4.87962e-17
-4.77923e-17
8.16119e-18
7.23665e-18
3.16197e-18
5.57536e-18
0
0
-6.32032e-18
1.18417e-17
-4.32774e-18
-1.55288e-18
1.70015e-18
1.36236e-19
-3.06481e-19
1.001e-17
1.08171e-16
-1.25065e-17
-8.55171e-17
7.50777e-17
8.98861e-18
-7.98721e-18
-7.06806e-18
2.33093e-17
-2.89151e-17
1.7453e-17
-1.78377e-17
2.79169e-18
-3.54748e-18
6.47602e-18
-4.31711e-18
0
0
3.11282e-19
0
2.71158e-17
-8.15153e-17
9.31503e-17
-7.54076e-17
7.5228e-17
0
2.61409e-17
-2.62607e-17
-1.97891e-17
2.93452e-17
0
1.22106e-17
-1.54323e-17
-2.28487e-18
0
-2.57365e-19
-5.13652e-19
-8.75908e-21
-2.57576e-16
1.22884e-16
0
-8.29563e-17
8.2948e-17
5.09512e-17
-3.34901e-17
1.38211e-17
0
-6.2306e-19
4.6468e-18
-4.43573e-18
-6.59212e-18
1.02206e-17
-1.08679e-17
0
2.3647e-18
-5.21657e-19
-3.18145e-19
1.58526e-16
-1.55978e-16
0
2.14888e-17
1.95602e-17
-1.78893e-17
0
-1.44847e-17
-1.24927e-17
0
-5.59309e-19
0
7.52554e-18
0
0
3.38843e-18
1.27469e-17
-1.64903e-17
0
2.08951e-20
2.35203e-17
-2.17225e-17
1.77759e-17
-9.03332e-17
3.45966e-17
0
2.97438e-18
8.43204e-18
0
-8.67657e-18
2.52899e-17
-2.65685e-17
4.4805e-18
0
-5.05451e-19
0
0
0
2.06341e-20
0
2.0077e-17
0
-3.11631e-17
3.16585e-17
0
1.13833e-17
-9.1479e-18
3.32344e-17
-1.60433e-17
5.81081e-18
-9.37451e-18
8.94554e-18
-1.39639e-17
-2.23151e-18
0
-1.48362e-18
0
6.16618e-17
-1.04269e-16
0
-1.69529e-17
1.52336e-17
0
0
-2.08022e-17
0
-7.71055e-18
-1.23154e-17
-5.34067e-18
8.59492e-18
0
4.62966e-18
0
0
3.2456e-18
-3.59146e-18
0
9.02885e-17
-7.22874e-17
1.56945e-17
-1.41064e-17
-5.80618e-18
1.67437e-17
1.88559e-17
-2.31152e-17
7.45989e-18
5.22636e-19
-7.00845e-18
2.87167e-17
-8.93464e-18
-2.08511e-17
7.20868e-18
-1.87494e-18
1.12221e-18
-3.43791e-19
-1.46491e-16
5.42989e-17
0
0
6.0303e-18
-6.13213e-18
4.4207e-18
2.93358e-18
2.08805e-17
1.0725e-17
-1.06383e-17
-4.14921e-19
-6.02797e-18
4.89941e-18
0
2.44199e-18
1.71851e-18
9.29371e-19
3.10738e-19
0
4.70815e-17
-4.39958e-17
1.41244e-17
1.46566e-17
-2.83131e-18
-9.18295e-18
-7.86509e-18
-2.61281e-17
1.05731e-17
-6.52495e-18
8.88342e-18
5.6369e-18
-7.07819e-18
7.51307e-18
4.80357e-18
-6.23471e-18
-8.58412e-19
0
-8.30755e-18
-3.73825e-17
1.33932e-17
1.24805e-17
-4.31196e-17
3.09057e-17
1.5473e-17
-1.58158e-17
1.21978e-17
-1.00344e-17
0
0
-8.44834e-18
1.51801e-17
-6.70711e-18
6.3088e-18
-6.89494e-18
1.14286e-18
-2.02999e-18
1.56048e-17
1.46003e-17
-1.33165e-17
1.04879e-17
-1.21936e-17
-1.86997e-17
0
0
0
0
0
0
4.33567e-18
-1.14805e-17
1.21419e-17
-3.96192e-18
4.88292e-18
2.30132e-18
-1.95132e-18
3.23062e-17
-5.5275e-17
6.91594e-17
-3.25965e-17
4.50558e-17
-3.31469e-17
6.1934e-17
-3.5023e-17
-1.89434e-17
1.93782e-17
0
5.32686e-18
-4.23572e-18
1.04196e-17
-3.47603e-18
-4.49457e-18
-9.50811e-18
7.14027e-19
1.66014e-18
5.02648e-17
1.45281e-17
0
-2.2798e-17
-1.81168e-17
4.15692e-17
4.30183e-18
-1.69306e-17
1.00968e-17
-7.20865e-18
0
-4.21682e-18
0
-3.45453e-18
2.80864e-18
-2.5349e-18
-8.39249e-19
5.94391e-19
0
7.02242e-17
-1.53578e-17
6.50707e-17
-5.0963e-17
-1.02984e-17
4.08117e-17
-2.44758e-17
1.21737e-18
1.00895e-18
-7.04143e-18
6.80548e-18
0
0
4.19563e-18
-1.5357e-18
1.00338e-18
3.03705e-18
-1.05695e-18
0
1.44259e-20
0
-1.43996e-17
8.48843e-17
-5.74158e-17
-6.14596e-17
3.3668e-17
-3.54344e-17
3.28938e-17
1.63868e-17
-1.24431e-17
5.07361e-18
-4.53021e-18
7.83709e-19
7.51909e-18
2.84617e-19
-2.87713e-18
2.84759e-18
-5.84201e-19
1.70993e-16
-5.45658e-17
2.68796e-17
-8.29374e-17
2.27857e-17
-3.5845e-17
1.92175e-17
0
0
-7.39068e-19
-9.99532e-19
-2.94831e-19
0
-6.56876e-18
-5.00824e-18
3.68873e-18
-2.71398e-19
4.84988e-19
1.15489e-18
0
-5.43028e-17
9.23326e-17
2.08373e-17
-7.55726e-17
2.03975e-17
-3.15041e-17
5.17276e-18
2.57383e-17
0
0
4.78668e-19
5.49103e-18
0
-4.92293e-18
-2.25007e-18
3.30589e-19
-1.17955e-18
-1.34662e-18
0
-3.42764e-17
7.47822e-18
6.23017e-17
4.69636e-17
-8.62053e-17
3.92517e-17
-2.76076e-17
1.47507e-17
-2.06136e-17
0
0
0
-8.86657e-18
2.39062e-18
-2.95413e-18
0
-1.84613e-19
9.25125e-19
-1.28632e-16
1.22015e-16
1.31182e-16
-1.59296e-16
7.49307e-17
-7.05448e-17
0
2.90586e-17
-3.98074e-17
2.31461e-17
-1.81434e-17
1.48964e-17
1.21603e-17
9.16999e-18
7.245e-18
0
0
0
0
1.42165e-16
-8.22442e-17
0
0
-2.72971e-17
6.67929e-17
-4.27996e-17
-3.07371e-17
3.03907e-17
2.27821e-17
3.83931e-17
-1.54565e-17
6.62868e-18
5.04038e-18
3.72554e-18
3.06037e-18
4.95049e-18
-2.43572e-19
2.481e-19
-1.44119e-16
1.32608e-16
7.11372e-17
-3.69649e-17
8.15499e-17
-5.23776e-17
-4.16472e-17
-3.53307e-17
0
-4.77801e-17
2.31033e-18
1.76555e-17
-1.38765e-17
-1.13294e-17
-4.194e-18
-4.42731e-18
-3.5407e-18
0
0
-4.95787e-17
0
3.86601e-17
-5.80543e-20
0
0
4.29604e-17
3.64563e-17
0
2.58744e-17
0
-2.68359e-17
-7.57321e-18
1.34551e-17
0
8.70818e-18
-1.23124e-18
1.25603e-18
0
1.05441e-16
0
7.45209e-17
-1.38504e-16
1.23883e-16
1.00571e-16
-3.0582e-18
0
2.6836e-18
3.00572e-17
0
-3.01483e-17
3.38572e-17
-3.01874e-17
-6.59432e-18
-6.9935e-18
-2.06641e-18
-3.70116e-19
-1.31947e-18
-9.82447e-17
1.41574e-16
-4.02191e-17
-1.05605e-16
-6.13134e-17
-5.32121e-17
-9.219e-17
-3.72208e-17
2.93185e-18
1.37744e-17
-1.37485e-17
4.40683e-17
-1.95113e-17
3.93129e-17
-7.3673e-18
0
8.42322e-18
-4.96583e-18
1.33164e-18
2.16845e-16
-4.63202e-18
-1.6623e-16
1.38437e-16
-1.247e-16
1.09133e-16
-3.40932e-18
-4.17983e-17
3.66256e-17
1.46761e-17
-1.85439e-18
-3.60244e-17
1.04496e-17
1.10799e-17
-3.36481e-18
3.40319e-18
-8.7244e-18
-8.99639e-19
-2.06637e-18
1.06452e-16
4.5216e-17
7.97988e-17
-7.04481e-17
-5.8512e-17
2.99091e-18
-4.53429e-17
1.09905e-16
3.66188e-18
5.13411e-17
3.01589e-17
-2.67745e-17
0
-1.88794e-17
0
0
1.21973e-17
5.37061e-18
2.41097e-18
9.99987e-17
0
7.8866e-17
6.99934e-17
-6.24709e-17
5.48888e-17
0
-4.31179e-17
-5.99583e-17
-5.25232e-17
-3.04258e-17
2.70772e-17
0
0
0
0
-1.14358e-17
-8.50838e-18
0
-1.95939e-16
0
-3.79627e-18
-3.35218e-18
9.50841e-17
-5.39721e-17
-2.48635e-17
-2.49701e-17
6.09268e-17
0
1.60677e-17
-1.69956e-18
1.44635e-17
0
0
1.90994e-17
-1.4225e-18
1.02169e-17
-3.89242e-18
1.37894e-16
3.99554e-17
-3.95429e-17
-3.50934e-17
-1.22522e-16
8.44903e-17
1.02424e-16
-2.74498e-18
-4.15723e-17
4.1117e-17
8.65368e-18
-4.3933e-17
-3.60277e-17
-2.18779e-17
-2.31679e-17
-2.20205e-17
1.83204e-17
-8.64789e-19
3.98665e-18
-4.24188e-17
1.93448e-17
-9.33103e-17
1.60755e-17
-1.6017e-17
0
-5.09011e-17
-3.51332e-18
-4.72504e-17
3.97481e-18
4.61869e-17
3.41517e-17
-8.39289e-18
3.53294e-18
2.20298e-17
0
-3.81374e-17
-1.40134e-17
-2.9119e-19
8.6217e-17
-2.35781e-18
1.46736e-16
-7.00837e-17
1.3736e-19
1.87027e-18
5.62918e-17
-4.34725e-18
4.58252e-17
-4.29178e-17
-4.03729e-17
0
4.03498e-17
3.22667e-17
4.49017e-19
-6.52771e-19
2.06303e-17
1.42439e-17
0
-6.13021e-17
0
-1.48946e-17
6.67717e-17
9.27269e-19
1.53725e-17
-5.44333e-17
5.14992e-17
5.43966e-17
5.21218e-17
5.01113e-17
0
-3.91991e-17
0
2.08232e-18
-2.16268e-18
0
-2.06802e-19
1.01751e-17
4.23961e-17
2.16373e-18
-3.38189e-17
1.04235e-16
-3.34992e-17
0
0
-6.09864e-17
-5.27048e-17
-5.04944e-17
-9.16407e-17
-1.28102e-17
0
0
0
-4.26084e-18
4.50904e-18
2.88551e-17
-1.03303e-17
2.24196e-18
0
-7.26397e-17
-6.66163e-17
6.96999e-17
-6.91863e-17
-9.91733e-17
1.21811e-16
3.38241e-17
0
5.39916e-17
6.11819e-17
-1.32108e-17
7.176e-17
-1.17535e-17
1.22325e-17
4.75478e-17
-2.74199e-17
0
-8.10125e-17
0
-7.76317e-17
7.61026e-17
0
1.37632e-16
6.46972e-17
-1.3577e-16
1.08443e-16
-7.0885e-19
-3.28245e-17
-5.92367e-17
0
8.17008e-17
-1.36965e-16
1.46987e-16
-1.87315e-16
0
0
8.06591e-17
-5.17715e-19
-1.2749e-18
-1.53312e-16
1.54684e-16
-7.48093e-17
7.45044e-17
7.34275e-17
-6.49931e-17
0
0
1.22363e-16
-1.24471e-16
-1.33039e-16
1.31894e-16
-1.28496e-16
1.38985e-16
-2.17718e-16
0
)
;

boundaryField
{
    up
    {
        type            calculated;
        value           nonuniform List<scalar> 
84
(
0
0
0
0
-7.40874e-18
1.33505e-17
-5.56751e-18
3.98664e-18
-3.48352e-18
0
-2.70713e-18
2.5748e-18
-1.76958e-18
1.74734e-19
1.46973e-19
1.26272e-18
0
0
-7.37276e-19
5.49153e-19
5.40516e-19
-5.24836e-19
4.81093e-20
0
2.13871e-19
1.00468e-19
-1.92938e-18
0
2.64918e-18
3.20205e-18
4.17351e-19
-7.24431e-19
2.89061e-19
0
-1.42215e-19
3.08961e-19
-2.92575e-19
4.66888e-19
0
-8.22643e-20
0
0
-4.26612e-20
8.4482e-20
-8.16289e-20
1.61169e-19
-3.06481e-19
3.11282e-19
-8.75908e-21
-3.18145e-19
0
0
0
-3.59146e-18
-4.85843e-19
3.10738e-19
0
-2.02999e-18
-1.95132e-18
1.44699e-18
0
0
-5.84201e-19
1.15489e-18
-1.34662e-18
9.25125e-19
0
2.481e-19
0
0
-1.31947e-18
1.33164e-18
-2.06637e-18
2.41097e-18
0
-3.89242e-18
3.98665e-18
-2.9119e-19
0
1.01751e-17
-1.03303e-17
0
0
0
)
;
    }
    low
    {
        type            calculated;
        value           nonuniform List<scalar> 
84
(
-1.61479e-16
1.61238e-16
-7.88526e-17
1.2437e-16
2.18127e-17
-5.66846e-18
4.73739e-17
4.92929e-18
0
2.0063e-16
-5.08461e-17
4.20468e-17
-4.67516e-17
-3.03085e-16
4.95363e-17
0
-4.61436e-17
3.82986e-18
-3.66882e-18
-3.69646e-17
1.90446e-17
5.08973e-17
8.68421e-17
-7.7395e-17
0
-1.49948e-17
-7.71191e-18
0
-7.07036e-17
-2.00183e-17
-6.75972e-17
-7.31475e-17
7.91544e-17
2.70883e-17
1.85909e-16
1.48874e-17
0
1.24627e-16
1.2131e-16
6.88666e-17
-3.65529e-17
1.48954e-17
1.48959e-17
0
5.92805e-17
1.36749e-16
1.09395e-16
1.01787e-17
0
-2.57582e-16
1.58526e-16
2.08951e-20
2.06341e-20
6.16618e-17
0
-1.46164e-16
0
-8.30755e-18
1.56048e-17
3.21124e-17
4.99243e-17
6.99065e-17
1.44259e-20
1.70729e-16
0
0
-1.28632e-16
1.42032e-16
-1.44029e-16
-4.95787e-17
1.0544e-16
-9.82447e-17
2.17184e-16
1.06693e-16
9.99987e-17
-1.95939e-16
1.37626e-16
-4.21385e-17
8.6217e-17
-6.11892e-17
4.23961e-17
2.44718e-18
-8.10125e-17
8.07153e-17
)
;
    }
    left
    {
        type            calculated;
        value           nonuniform List<scalar> 
19
(
-1.61366e-16
-7.85245e-17
7.9711e-17
1.71711e-18
-1.51927e-16
0
-7.09426e-17
-6.99538e-17
-4.85373e-18
-3.68436e-17
-3.37783e-19
-3.66545e-17
1.62948e-16
-3.6254e-17
1.69407e-16
1.46184e-16
8.6951e-17
1.27534e-16
0
)
;
    }
    right
    {
        type            calculated;
        value           nonuniform List<scalar> 
19
(
8.06591e-17
-4.57239e-19
-1.2749e-18
-1.53312e-16
1.54725e-16
-7.48093e-17
7.45044e-17
7.34275e-17
-6.4763e-17
0
0
1.23522e-16
-1.26101e-16
-1.33039e-16
1.31894e-16
-1.28496e-16
1.38985e-16
-2.35443e-16
0
)
;
    }
    frontAndBackPlanes
    {
        type            empty;
    }
}


// ************************************************************************* //
