/*--------------------------------*- C++ -*----------------------------------*\
  =========                 |
  \\      /  F ield         | OpenFOAM: The Open Source CFD Toolbox
   \\    /   O peration     | Website:  https://openfoam.org
    \\  /    A nd           | Version:  7
     \\/     M anipulation  |
\*---------------------------------------------------------------------------*/
FoamFile
{
    version     2.0;
    format      ascii;
    class       volScalarField;
    location    "0.414";
    object      T;
}
// * * * * * * * * * * * * * * * * * * * * * * * * * * * * * * * * * * * * * //

dimensions      [0 0 0 1 0 0 0];

internalField   nonuniform List<scalar> 
1596
(
6.98546
6.94355
6.90003
6.85768
6.81691
6.77695
6.73683
6.69463
6.649
6.59683
6.53573
6.46248
6.36926
6.24472
6.07073
5.80615
5.37382
4.6193
3.23332
6.93702
6.80631
6.68101
6.56249
6.44969
6.34015
6.23117
6.11878
5.99973
5.86843
5.72031
5.54989
5.34619
5.09509
4.77842
4.36034
3.78426
2.95207
1.67792
6.87964
6.65958
6.45844
6.27224
6.0971
5.92877
5.76312
5.59507
5.42034
5.23256
5.02661
4.79674
4.53255
4.2217
3.85014
3.39192
2.81013
2.04681
0.993244
6.82291
6.51917
6.24968
6.00426
5.77592
5.55874
5.3475
5.13648
4.92094
4.69443
4.45202
4.18838
3.89461
3.56091
3.17725
2.72569
2.18296
1.51558
0.660299
6.77582
6.39975
6.07071
5.77409
5.50054
5.24282
4.99493
4.75082
4.50555
4.25287
3.98817
3.70669
3.40095
3.06324
2.68647
2.25822
1.76374
1.18368
0.480748
6.74422
6.3114
5.93248
5.59206
5.2798
4.98787
4.70983
4.43947
4.17184
3.9009
3.62237
3.33192
3.02313
2.68979
2.32676
1.92514
1.47532
0.96601
0.374595
6.729
6.25701
5.83848
5.46111
5.11543
4.79387
4.48999
4.19767
3.91202
3.62723
3.33926
3.04408
2.736
2.40978
2.06147
1.6844
1.27204
0.817681
0.3071
6.72681
6.23257
5.78493
5.37726
5.00272
4.65494
4.32802
4.01621
3.71483
3.41831
3.12279
2.82444
2.51803
2.19894
1.86393
1.50767
1.12547
0.713259
0.261709
6.73431
6.2324
5.76552
5.33393
4.93462
4.56331
4.21522
3.88527
3.56916
3.26164
2.95903
2.65761
2.35247
2.03935
1.71534
1.37599
1.01766
0.637777
0.229915
6.74442
6.24455
5.76708
5.31793
4.89816
4.50612
4.13864
3.79166
3.46147
3.14326
2.83356
2.52879
2.22422
1.91578
1.60074
1.2751
0.935853
0.581261
0.206658
6.75289
6.25928
5.77746
5.31643
4.88057
4.47086
4.08605
3.72332
3.37981
3.05127
2.73453
2.42617
2.12161
1.81688
1.5093
1.19509
0.87155
0.537369
0.188943
6.76331
6.27879
5.79641
5.32738
4.87869
4.45374
4.05319
3.67566
3.31927
2.98047
2.65649
2.34411
2.03889
1.73691
1.43541
1.13071
0.82019
0.502685
0.175173
6.77336
6.2995
5.81911
5.34498
4.88616
4.44811
4.03333
3.64195
3.27319
2.9243
2.593
2.27633
1.96998
1.67007
1.37371
1.07717
0.777787
0.474339
0.164105
6.78012
6.31584
5.83873
5.36171
4.89512
4.44607
4.01875
3.61473
3.2344
2.8759
2.53753
2.21664
1.90911
1.61105
1.31942
1.03036
0.741057
0.450083
0.154809
6.78605
6.32986
5.85603
5.37717
4.90427
4.4457
4.00709
3.59137
3.20011
2.83239
2.48714
2.16211
1.85338
1.55707
1.26997
0.988022
0.708148
0.428623
0.14674
6.79183
6.34285
5.87193
5.39153
4.91308
4.44589
3.9968
3.57001
3.16825
2.79153
2.43951
2.11038
1.80045
1.50588
1.22328
0.94831
0.677572
0.408934
0.139481
6.79618
6.35328
5.8848
5.40292
4.91936
4.44418
3.98525
3.54793
3.13604
2.75057
2.39191
2.05876
1.74774
1.45505
1.17714
0.909354
0.647866
0.390047
0.132658
6.79957
6.36154
5.89489
5.41138
4.92286
4.44
3.97158
3.52403
3.1022
2.70806
2.34277
2.00559
1.69351
1.40286
1.12991
0.8697
0.617888
0.371216
0.125986
6.8047
6.37187
5.90674
5.42122
4.92745
4.43667
3.95853
3.50045
3.0683
2.66503
2.2926
1.95092
1.63741
1.3486
1.08069
0.828401
0.586823
0.351907
0.119276
6.81055
6.38379
5.9203
5.43258
4.93325
4.43422
3.94595
3.47686
3.03381
2.62074
2.24046
1.89356
1.57799
1.29061
1.02768
0.783699
0.553196
0.331163
0.112219
6.81502
6.39408
5.93232
5.44241
4.93744
4.42999
3.93135
3.45089
2.99646
2.57297
2.18412
1.83124
1.51291
1.22642
0.968266
0.732975
0.514702
0.307435
0.10432
6.8193
6.40371
5.9435
5.45123
4.94041
4.42424
3.91482
3.42245
2.95592
2.52115
2.12273
1.76281
1.44063
1.15404
0.899962
0.673274
0.468244
0.278274
0.094722
6.82393
6.41351
5.95448
5.45948
4.94238
4.417
3.89621
3.39118
2.91163
2.46445
2.05517
1.68678
1.35929
1.07113
0.819747
0.600666
0.408989
0.238838
0.0811002
6.82858
6.42292
5.96439
5.46595
4.94189
4.40664
3.87377
3.35525
2.86164
2.40077
1.97915
1.60068
1.26617
0.974631
0.723981
0.510348
0.330079
0.179665
0.0543901
6.83566
6.44082
5.99044
5.49733
4.97569
4.43992
3.90365
3.37909
2.87721
2.40646
1.97426
1.58559
1.24225
0.94404
0.689382
0.474594
0.296414
0.1525
0.0409389
6.84328
6.46301
6.02679
5.54691
5.03691
4.51045
3.9806
3.45907
2.95664
2.48192
2.04284
1.64538
1.29256
0.985307
0.722749
0.501319
0.317172
0.166972
0.047308
6.84671
6.4747
6.04786
5.57796
5.07784
4.56038
4.03783
3.52118
3.02062
2.54449
2.10084
1.69633
1.33509
1.01933
0.749215
0.521567
0.332232
0.177107
0.0516506
6.84594
6.47543
6.0528
5.5893
5.09705
4.58802
4.0735
3.56347
3.06721
2.59241
2.1468
1.73733
1.36901
1.04544
0.76818
0.534843
0.3413
0.182859
0.0540712
6.84225
6.46789
6.0454
5.58558
5.09976
4.59893
4.09321
3.59142
3.10172
2.6308
2.18571
1.77323
1.39895
1.06774
0.782971
0.543654
0.346192
0.185483
0.0551557
6.83579
6.45379
6.0289
5.57128
5.09135
4.59898
4.10308
3.61117
3.13016
2.66555
2.22342
1.80993
1.43069
1.09159
0.797989
0.551104
0.34879
0.186002
0.0552961
6.82751
6.43613
6.00786
5.55205
5.07819
4.59498
4.11004
3.62959
3.15926
2.70333
2.26668
1.85445
1.47162
1.12439
0.819868
0.562106
0.351887
0.185578
0.0548213
6.8201
6.41957
5.98801
5.53434
5.06713
4.59393
4.12108
3.65355
3.19578
2.75087
2.32248
1.91449
1.53056
1.17615
0.85896
0.585607
0.361181
0.186275
0.0538688
6.81245
6.40289
5.96864
5.51807
5.05872
4.5969
4.13773
3.68499
3.24208
2.8111
2.39468
1.99546
1.61547
1.25831
0.930361
0.63861
0.391542
0.196276
0.0527307
6.80445
6.38639
5.95069
5.50477
5.05497
4.60632
4.16271
3.72688
3.30138
2.88755
2.48735
2.10259
1.73403
1.38323
1.05383
0.750004
0.47886
0.250221
0.070466
6.79509
6.36637
5.92687
5.4831
5.04013
4.60174
4.17075
3.74902
3.33844
2.93987
2.55494
2.18516
1.83086
1.49269
1.17227
0.870248
0.588527
0.331837
0.104292
6.781
6.33288
5.88105
5.43061
4.98527
4.54768
4.11967
3.70239
3.29717
2.90445
2.52566
2.16216
1.81428
1.48276
1.16938
0.8745
0.599105
0.345297
0.112835
6.76326
6.29043
5.82161
5.35987
4.90738
4.46566
4.03568
3.61789
3.21318
2.82163
2.44452
2.08323
1.73817
1.41041
1.10225
0.81485
0.550225
0.311611
0.0995585
6.74745
6.25293
5.7694
5.29799
4.83954
4.39456
3.96324
3.54552
3.14194
2.75231
2.37787
2.02
1.6792
1.3567
1.05505
0.775542
0.520309
0.292574
0.0927725
6.73514
6.22309
5.72745
5.24805
4.78468
4.33703
3.90474
3.48729
3.08494
2.69733
2.32561
1.97117
1.63449
1.31686
1.02086
0.747764
0.499677
0.279769
0.0883774
6.72542
6.19962
5.69458
5.20905
4.74196
4.2924
3.85953
3.44251
3.04137
2.6556
2.28629
1.93478
1.60154
1.28782
0.996204
0.727932
0.485074
0.270778
0.0853342
6.71834
6.18263
5.67098
5.18125
4.71172
4.261
3.8279
3.41134
3.01121
2.62688
2.25938
1.91003
1.57925
1.26827
0.979655
0.714636
0.475273
0.264726
0.0832795
6.71322
6.17163
5.65651
5.16481
4.69428
4.24323
3.81028
3.39421
2.99484
2.61148
2.24513
1.89708
1.56773
1.2583
0.97133
0.708043
0.470481
0.261809
0.0823127
6.71323
6.17165
5.65654
5.16484
4.69431
4.24326
3.81031
3.39424
2.99487
2.61151
2.24516
1.89711
1.56776
1.25831
0.971344
0.708053
0.470489
0.261814
0.0823142
6.71836
6.18269
5.67106
5.18135
4.71182
4.2611
3.828
3.41144
3.0113
2.62697
2.25947
1.91011
1.57932
1.26832
0.979703
0.714674
0.475301
0.264743
0.0832854
6.72546
6.19972
5.69471
5.2092
4.74212
4.29257
3.8597
3.44266
3.04152
2.65574
2.28641
1.93489
1.60164
1.2879
0.996271
0.727984
0.485111
0.2708
0.0853415
6.7352
6.22321
5.72761
5.24825
4.78489
4.33725
3.90495
3.48749
3.08513
2.69751
2.32577
1.9713
1.63461
1.31696
1.02094
0.747821
0.499717
0.279791
0.0883846
6.74751
6.25308
5.7696
5.29823
4.8398
4.39481
3.9635
3.54577
3.14216
2.75252
2.37805
2.02015
1.67932
1.3568
1.05513
0.775597
0.520344
0.292593
0.0927775
6.76333
6.2906
5.82184
5.36013
4.90767
4.46596
4.03597
3.61816
3.21343
2.82185
2.44472
2.08339
1.73829
1.41049
1.1023
0.814874
0.550229
0.311605
0.099552
6.78107
6.33306
5.8813
5.4309
4.98559
4.548
4.11999
3.70269
3.29744
2.90468
2.52584
2.16229
1.81435
1.48277
1.16933
0.874408
0.598989
0.345193
0.112785
6.79518
6.36663
5.92728
5.48364
5.04078
4.60249
4.17157
3.7499
3.33937
2.94084
2.55594
2.18619
1.83191
1.49376
1.17335
0.871313
0.589514
0.332612
0.104639
6.80455
6.3867
5.95118
5.50543
5.05579
4.60729
4.1638
3.72809
3.30269
2.88894
2.48881
2.10411
1.73558
1.38478
1.05533
0.751381
0.479989
0.250975
0.0707441
6.81254
6.40314
5.96906
5.51864
5.05942
4.59774
4.13867
3.68603
3.2432
2.81227
2.3959
1.99669
1.61669
1.25947
0.931387
0.639433
0.3921
0.196552
0.0527813
6.82017
6.4198
5.98839
5.53487
5.06779
4.59471
4.12196
3.65452
3.19682
2.75194
2.32357
1.91557
1.53159
1.17707
0.859722
0.586168
0.361531
0.186444
0.0539129
6.82757
6.43633
6.0082
5.55253
5.0788
4.5957
4.11085
3.63048
3.16021
2.70431
2.26766
1.8554
1.47249
1.12514
0.820463
0.56253
0.352152
0.185716
0.0548617
6.83585
6.45397
6.02921
5.57172
5.09191
4.59965
4.10384
3.612
3.13103
2.66644
2.2243
1.81077
1.43143
1.09222
0.798481
0.551456
0.349017
0.186125
0.0553346
6.8423
6.46805
6.04567
5.58597
5.10027
4.59954
4.09391
3.59218
3.10252
2.63161
2.1865
1.77397
1.3996
1.06829
0.783396
0.543963
0.346397
0.1856
0.055194
6.84598
6.47556
6.05304
5.58965
5.0975
4.58857
4.07413
3.56415
3.06794
2.59314
2.14751
1.73798
1.36959
1.04592
0.76856
0.535126
0.341495
0.182975
0.0541116
6.84674
6.47481
6.04807
5.57827
5.07825
4.56087
4.0384
3.5218
3.02127
2.54515
2.10147
1.69691
1.3356
1.01976
0.749566
0.521837
0.332427
0.177228
0.0516963
6.8433
6.4631
6.02697
5.54718
5.03727
4.51089
3.98111
3.45962
2.95722
2.48251
2.0434
1.64591
1.29303
0.985708
0.723081
0.501586
0.317374
0.167108
0.0473641
6.83566
6.44084
5.99047
5.49738
4.97577
4.44001
3.90376
3.3792
2.87732
2.40656
1.97434
1.58565
1.24228
0.944042
0.68936
0.474557
0.29637
0.152462
0.0409216
6.82857
6.42288
5.96433
5.46586
4.94178
4.40651
3.87363
3.35509
2.86147
2.40059
1.97897
1.6005
1.26599
0.974455
0.723817
0.510202
0.32996
0.179583
0.0543558
6.82392
6.4135
5.95446
5.45945
4.94234
4.41696
3.89617
3.39114
2.91159
2.46441
2.05513
1.68676
1.35928
1.07112
0.819745
0.600671
0.408998
0.238847
0.0811042
6.8193
6.4037
5.94348
5.4512
4.94038
4.4242
3.91479
3.42241
2.95589
2.52112
2.12271
1.76279
1.44062
1.15404
0.899961
0.673277
0.468249
0.278278
0.0947233
6.81502
6.39407
5.93231
5.44238
4.93741
4.42996
3.93133
3.45087
2.99644
2.57295
2.1841
1.83123
1.5129
1.22642
0.968266
0.732977
0.514704
0.307437
0.10432
6.81055
6.38378
5.92029
5.43256
4.93323
4.4342
3.94593
3.47684
3.0338
2.62073
2.24045
1.89355
1.57798
1.29061
1.02768
0.7837
0.553197
0.331164
0.11222
6.8047
6.37186
5.90673
5.42121
4.92743
4.43666
3.95851
3.50043
3.06829
2.66502
2.2926
1.95092
1.6374
1.3486
1.08069
0.828401
0.586823
0.351907
0.119276
6.79957
6.36153
5.89488
5.41137
4.92285
4.43999
3.97157
3.52402
3.1022
2.70806
2.34277
2.00559
1.69351
1.40286
1.12991
0.8697
0.617888
0.371216
0.125986
6.79618
6.35328
5.88479
5.40292
4.91936
4.44417
3.98524
3.54793
3.13604
2.75057
2.39191
2.05876
1.74774
1.45505
1.17714
0.909353
0.647866
0.390046
0.132657
6.79183
6.34285
5.87193
5.39153
4.91307
4.44588
3.99679
3.57001
3.16825
2.79153
2.43951
2.11038
1.80045
1.50588
1.22328
0.948309
0.677572
0.408934
0.139481
6.78605
6.32985
5.85602
5.37717
4.90426
4.4457
4.00708
3.59137
3.20011
2.83239
2.48714
2.16211
1.85338
1.55707
1.26997
0.988022
0.708148
0.428623
0.14674
6.78012
6.31584
5.83873
5.36171
4.89512
4.44607
4.01875
3.61473
3.2344
2.8759
2.53753
2.21664
1.90911
1.61105
1.31942
1.03036
0.741057
0.450083
0.154809
6.77336
6.2995
5.81911
5.34498
4.88616
4.44811
4.03333
3.64195
3.27319
2.9243
2.593
2.27633
1.96998
1.67007
1.37371
1.07717
0.777787
0.474339
0.164105
6.76331
6.27879
5.79641
5.32738
4.87869
4.45374
4.05319
3.67566
3.31927
2.98047
2.65649
2.34412
2.03889
1.73691
1.43541
1.13071
0.820191
0.502685
0.175174
6.75289
6.25928
5.77747
5.31643
4.88057
4.47086
4.08605
3.72332
3.37981
3.05127
2.73453
2.42617
2.12161
1.81689
1.5093
1.19509
0.871551
0.53737
0.188943
6.74442
6.24455
5.76708
5.31793
4.89816
4.50612
4.13864
3.79166
3.46147
3.14326
2.83356
2.52879
2.22422
1.91578
1.60074
1.2751
0.935855
0.581262
0.206658
6.73431
6.2324
5.76552
5.33393
4.93462
4.56331
4.21522
3.88527
3.56916
3.26164
2.95903
2.65761
2.35247
2.03935
1.71534
1.37599
1.01766
0.637779
0.229915
6.72681
6.23256
5.78492
5.37726
5.00272
4.65493
4.32801
4.01621
3.71482
3.41831
3.12279
2.82444
2.51803
2.19894
1.86393
1.50767
1.12547
0.71326
0.26171
6.729
6.257
5.83848
5.46111
5.11543
4.79387
4.48998
4.19767
3.91201
3.62723
3.33926
3.04408
2.73599
2.40977
2.06147
1.6844
1.27204
0.817682
0.307101
6.74422
6.3114
5.93248
5.59205
5.27979
4.98787
4.70982
4.43947
4.17184
3.9009
3.62237
3.33192
3.02313
2.68979
2.32676
1.92514
1.47532
0.966011
0.374596
6.77581
6.39975
6.0707
5.77409
5.50053
5.24282
4.99493
4.75081
4.50554
4.25286
3.98817
3.70669
3.40095
3.06324
2.68647
2.25822
1.76374
1.18368
0.480748
6.82291
6.51917
6.24968
6.00425
5.77592
5.55874
5.3475
5.13647
4.92093
4.69443
4.45201
4.18837
3.89461
3.56091
3.17725
2.72569
2.18295
1.51558
0.660299
6.87964
6.65958
6.45844
6.27224
6.0971
5.92876
5.76312
5.59507
5.42034
5.23256
5.02661
4.79673
4.53254
4.22169
3.85014
3.39192
2.81013
2.04681
0.993244
6.93702
6.80631
6.68101
6.56249
6.44969
6.34015
6.23117
6.11878
5.99973
5.86843
5.7203
5.54989
5.34619
5.09509
4.77842
4.36034
3.78426
2.95207
1.67792
6.98546
6.94355
6.90003
6.85768
6.81691
6.77695
6.73683
6.69463
6.649
6.59683
6.53573
6.46248
6.36926
6.24472
6.07073
5.80615
5.37382
4.6193
3.23332
)
;

boundaryField
{
    up
    {
        type            fixedValue;
        value           uniform 0;
    }
    low
    {
        type            fixedValue;
        value           uniform 7;
    }
    left
    {
        type            fixedValue;
        value           uniform 7;
    }
    right
    {
        type            fixedValue;
        value           uniform 7;
    }
    frontAndBackPlanes
    {
        type            empty;
    }
}


// ************************************************************************* //
