/*--------------------------------*- C++ -*----------------------------------*\
  =========                 |
  \\      /  F ield         | OpenFOAM: The Open Source CFD Toolbox
   \\    /   O peration     | Website:  https://openfoam.org
    \\  /    A nd           | Version:  7
     \\/     M anipulation  |
\*---------------------------------------------------------------------------*/
FoamFile
{
    version     2.0;
    format      ascii;
    class       volScalarField;
    location    "0.349";
    object      gradTx;
}
// * * * * * * * * * * * * * * * * * * * * * * * * * * * * * * * * * * * * * //

dimensions      [0 -1 0 1 0 0 0];

internalField   nonuniform List<scalar> 
1596
(
-0.177596
-0.893572
-1.60897
-2.26965
-2.87667
-3.43205
-3.96098
-4.47923
-5.00691
-5.58369
-6.21812
-6.95772
-7.8611
-9.0183
-10.5394
-12.7114
-15.9838
-21.3299
-30.7616
0.0391825
-0.743915
-1.44582
-2.06457
-2.61846
-3.11314
-3.57091
-3.99933
-4.41304
-4.83157
-5.25402
-5.70425
-6.18776
-6.71487
-7.26864
-7.82251
-8.24747
-8.28494
-7.38969
0.216781
-0.609465
-1.28767
-1.85935
-2.35606
-2.78868
-3.17614
-3.5232
-3.83929
-4.13417
-4.40342
-4.65826
-4.89083
-5.09346
-5.23995
-5.28782
-5.13235
-4.59367
-3.32366
0.244657
-0.540358
-1.16117
-1.67238
-2.10712
-2.47836
-2.80082
-3.07823
-3.31637
-3.51976
-3.68425
-3.81427
-3.90062
-3.9328
-3.88978
-3.73717
-3.40631
-2.78741
-1.67132
0.0707603
-0.568682
-1.08924
-1.52258
-1.88985
-2.20088
-2.46476
-2.6842
-2.8623
-3.00038
-3.09594
-3.14967
-3.1544
-3.10112
-2.97583
-2.75411
-2.39445
-1.83254
-0.946528
-0.290813
-0.705849
-1.08803
-1.42603
-1.71972
-1.97078
-2.1813
-2.35211
-2.48382
-2.57551
-2.62622
-2.63437
-2.59515
-2.50168
-2.34548
-2.1097
-1.77025
-1.28967
-0.597604
-0.772179
-0.9402
-1.16288
-1.39236
-1.60666
-1.79669
-1.95693
-2.08516
-2.17945
-2.23697
-2.25754
-2.23817
-2.17576
-2.06513
-1.90154
-1.67325
-1.3667
-0.959938
-0.412201
-1.27654
-1.22775
-1.29442
-1.41257
-1.54552
-1.67433
-1.78652
-1.87618
-1.93875
-1.96969
-1.96875
-1.93203
-1.85743
-1.74095
-1.58011
-1.36666
-1.09321
-0.746852
-0.303902
-1.79778
-1.59429
-1.52182
-1.52818
-1.57465
-1.63668
-1.6969
-1.74566
-1.77587
-1.78125
-1.76075
-1.70975
-1.62642
-1.50742
-1.35142
-1.15244
-0.90656
-0.606097
-0.237009
-2.10821
-1.84659
-1.69118
-1.61697
-1.59499
-1.60159
-1.61805
-1.63244
-1.63591
-1.62098
-1.58558
-1.52478
-1.43673
-1.31858
-1.16967
-0.985694
-0.764825
-0.502703
-0.191019
-2.35814
-2.07147
-1.86619
-1.73268
-1.65359
-1.61006
-1.58501
-1.56588
-1.54293
-1.50794
-1.45783
-1.38742
-1.29463
-1.17686
-1.03367
-0.861871
-0.660781
-0.428082
-0.159021
-2.60969
-2.32058
-2.08472
-1.90529
-1.77561
-1.68336
-1.61516
-1.55945
-1.50661
-1.44818
-1.38024
-1.29741
-1.19723
-1.07707
-0.936435
-0.77277
-0.585934
-0.374758
-0.136538
-2.66904
-2.41905
-2.18911
-1.99547
-1.84099
-1.71997
-1.62352
-1.54228
-1.46772
-1.39185
-1.31055
-1.21852
-1.11316
-0.991946
-0.854388
-0.698455
-0.524353
-0.331676
-0.118958
-2.67319
-2.46621
-2.25686
-2.06464
-1.89871
-1.7593
-1.64198
-1.54021
-1.44715
-1.35581
-1.26219
-1.16133
-1.05058
-0.927537
-0.79169
-0.641389
-0.477032
-0.298684
-0.105682
-2.65382
-2.48603
-2.30226
-2.12043
-1.95229
-1.8023
-1.66997
-1.55174
-1.44282
-1.33751
-1.23234
-1.12277
-1.00625
-0.880492
-0.744978
-0.598343
-0.441094
-0.273586
-0.0956291
-2.57351
-2.44732
-2.29425
-2.13154
-1.97156
-1.82119
-1.68282
-1.55553
-1.43657
-1.32171
-1.20825
-1.09226
-0.97138
-0.843507
-0.708197
-0.564373
-0.412699
-0.253784
-0.0877503
-2.43166
-2.34437
-2.2244
-2.08695
-1.94373
-1.80255
-1.6675
-1.5396
-1.41786
-1.29942
-1.18247
-1.06372
-0.941111
-0.812772
-0.678358
-0.537114
-0.389979
-0.237946
-0.0814839
-2.26958
-2.20687
-2.11569
-2.0042
-1.88155
-1.75508
-1.62959
-1.50729
-1.38851
-1.27155
-1.15538
-1.03735
-0.915666
-0.78862
-0.655888
-0.516966
-0.373145
-0.226013
-0.0766709
-2.13378
-2.09127
-2.02265
-1.93274
-1.82809
-1.71516
-1.59896
-1.48258
-1.3674
-1.25273
-1.13824
-1.02179
-0.901786
-0.77647
-0.645279
-0.507612
-0.364923
-0.219536
-0.0736667
-1.9088
-1.89196
-1.84838
-1.78392
-1.70358
-1.61251
-1.51512
-1.41457
-1.31265
-1.20928
-1.10455
-0.996744
-0.884398
-0.765704
-0.639687
-0.505284
-0.36368
-0.217901
-0.0721803
-1.66464
-1.66824
-1.64732
-1.60689
-1.5509
-1.48334
-1.40783
-1.32718
-1.24323
-1.15611
-1.06604
-0.971541
-0.871187
-0.763068
-0.645629
-0.51678
-0.376279
-0.226545
-0.0740926
-1.41378
-1.43117
-1.42948
-1.41122
-1.37896
-1.33554
-1.28374
-1.22588
-1.16359
-1.09692
-1.02592
-0.949112
-0.865012
-0.771689
-0.667169
-0.548127
-0.411487
-0.255559
-0.0846917
-1.13921
-1.16426
-1.17857
-1.18151
-1.17374
-1.15668
-1.13212
-1.10167
-1.06649
-1.02629
-0.980497
-0.927342
-0.865053
-0.791864
-0.706042
-0.603995
-0.479953
-0.324793
-0.126927
-0.83224
-0.824598
-0.808653
-0.784817
-0.75565
-0.724428
-0.694804
-0.66945
-0.649871
-0.635504
-0.623802
-0.610795
-0.592218
-0.564417
-0.524664
-0.469967
-0.395311
-0.289279
-0.129728
-0.557784
-0.628532
-0.714333
-0.806163
-0.897418
-0.98287
-1.05949
-1.12512
-1.17855
-1.21839
-1.24202
-1.24716
-1.23154
-1.19549
-1.14095
-1.07044
-0.983176
-0.872124
-0.716956
-0.191293
-0.230819
-0.285063
-0.348359
-0.416566
-0.486622
-0.557288
-0.627691
-0.697504
-0.765494
-0.827599
-0.879333
-0.914265
-0.928694
-0.922116
-0.899391
-0.865462
-0.826496
-0.784512
0.1766
0.12635
0.0562281
-0.0281057
-0.121507
-0.219969
-0.321293
-0.424344
-0.528807
-0.633837
-0.735603
-0.828615
-0.904325
-0.95567
-0.979205
-0.979042
-0.961782
-0.936127
-0.906425
0.54637
0.479323
0.387878
0.27889
0.158459
0.0314052
-0.0994202
-0.23287
-0.369024
-0.507939
-0.646943
-0.780535
-0.898699
-0.99051
-1.0478
-1.07158
-1.06901
-1.05157
-1.02641
0.884916
0.793297
0.67545
0.539949
0.393505
0.24134
0.0863602
-0.0707328
-0.230902
-0.395697
-0.564506
-0.73335
-0.892247
-1.027
-1.12316
-1.17544
-1.18871
-1.17715
-1.1527
1.24244
1.12193
0.975315
0.81196
0.639082
0.462291
0.284438
0.10579
-0.0754708
-0.262463
-0.457066
-0.658303
-0.858518
-1.04249
-1.18931
-1.28385
-1.32283
-1.32013
-1.2944
1.5216
1.36701
1.19029
1.00119
0.807183
0.613568
0.42244
0.233142
0.0428179
-0.153229
-0.359457
-0.578991
-0.809246
-1.03843
-1.24275
-1.3962
-1.47914
-1.49531
-1.46623
1.79272
1.60779
1.40162
1.18779
0.974421
0.766303
0.564706
0.368209
0.173357
-0.0254175
-0.234276
-0.460204
-0.70733
-0.97255
-1.23733
-1.47162
-1.63538
-1.7059
-1.69185
2.0553
1.83132
1.59341
1.35578
1.12572
0.906687
0.698796
0.499871
0.306277
0.112442
-0.0879606
-0.303699
-0.544295
-0.817747
-1.12019
-1.43509
-1.71604
-1.90746
-1.95261
2.24364
1.96029
1.67362
1.39625
1.13324
0.885948
0.65296
0.431374
0.217491
0.0063075
-0.207627
-0.432353
-0.678606
-0.961321
-1.29352
-1.68745
-2.12869
-2.57799
-2.95819
2.38077
2.06675
1.77182
1.50443
1.26484
1.05098
0.859032
0.685271
0.526044
0.377857
0.238108
0.103478
-0.0298576
-0.168457
-0.322989
-0.514832
-0.768402
-1.1128
-1.56521
2.49902
2.16949
1.88088
1.63083
1.41344
1.22347
1.05541
0.905056
0.768908
0.643978
0.528816
0.422195
0.323786
0.233989
0.154105
0.0839319
0.021762
-0.0408677
-0.120428
2.40792
2.02978
1.71222
1.44318
1.21257
1.013
0.837959
0.682708
0.543576
0.417487
0.303034
0.199067
0.105219
0.0219212
-0.0491942
-0.106395
-0.146774
-0.167598
-0.167549
2.14862
1.79562
1.50562
1.26431
1.06078
0.887131
0.736895
0.60539
0.489164
0.385457
0.292888
0.210369
0.137254
0.0733008
0.0186778
-0.0268724
-0.0635387
-0.091806
-0.112565
1.81131
1.50833
1.26065
1.0562
0.885381
0.740942
0.617127
0.5097
0.415605
0.332398
0.258694
0.193377
0.135536
0.0845263
0.0399739
0.00123713
-0.0321687
-0.0606263
-0.0847205
1.37994
1.14278
0.95156
0.795667
0.666817
0.558854
0.467064
0.387985
0.319164
0.258634
0.205199
0.157898
0.115869
0.0784747
0.04532
0.0158952
-0.0101204
-0.0328474
-0.0525663
0.876375
0.717745
0.59361
0.494353
0.413369
0.346102
0.289284
0.240565
0.198316
0.161243
0.128524
0.0995065
0.0735845
0.0503064
0.0293856
0.0104985
-0.00653747
-0.0217169
-0.0351205
0.3386
0.275693
0.228078
0.190486
0.159894
0.134422
0.112807
0.0941682
0.0779011
0.0635293
0.050739
0.0392815
0.0289199
0.0194723
0.0108117
0.00280076
-0.00464964
-0.0115476
-0.0179167
-0.338437
-0.275346
-0.227618
-0.189962
-0.15934
-0.133862
-0.112259
-0.0936452
-0.0774138
-0.0630858
-0.0503456
-0.0389431
-0.0286404
-0.0192548
-0.0106584
-0.00271356
0.00466975
0.0115009
0.0178041
-0.876227
-0.717446
-0.593219
-0.493911
-0.412907
-0.345643
-0.288843
-0.240157
-0.19795
-0.160927
-0.128263
-0.0993067
-0.073448
-0.0502356
-0.0293815
-0.0105617
0.00640741
0.0215218
0.0348637
-1.3798
-1.1425
-0.951189
-0.795237
-0.666354
-0.558379
-0.466594
-0.387534
-0.318741
-0.258249
-0.204858
-0.157603
-0.115622
-0.0782764
-0.0451677
-0.0157853
0.0101931
0.0328891
0.0525831
-1.81122
-1.50816
-1.26042
-1.05594
-0.885107
-0.74067
-0.616871
-0.509472
-0.415416
-0.332254
-0.258603
-0.193342
-0.135557
-0.0846003
-0.0400966
-0.00140108
0.0319724
0.0604067
0.0844863
-2.14857
-1.79553
-1.5055
-1.26416
-1.06061
-0.886965
-0.73674
-0.605258
-0.489067
-0.385404
-0.292887
-0.210425
-0.13737
-0.0734739
-0.0188998
0.026615
0.0632653
0.0915399
0.112333
-2.40795
-2.02981
-1.71222
-1.44316
-1.21253
-1.01296
-0.837936
-0.682714
-0.543627
-0.417598
-0.303219
-0.199341
-0.105594
-0.0224037
0.0486081
0.105727
0.146081
0.16697
0.167092
-2.49906
-2.16934
-1.88048
-1.63012
-1.4124
-1.22211
-1.05374
-0.903088
-0.766656
-0.641457
-0.52604
-0.419173
-0.320523
-0.230491
-0.150396
-0.0801135
-0.0180906
0.0438397
0.121777
-2.38125
-2.06799
-1.77387
-1.5073
-1.26851
-1.05545
-0.864297
-0.691314
-0.532866
-0.385476
-0.246565
-0.112856
0.0194063
0.156665
0.309447
0.498948
0.749569
1.09069
1.5402
-2.2435
-1.95985
-1.67281
-1.39506
-1.13163
-0.883943
-0.650571
-0.428629
-0.214423
-0.00295925
0.211203
0.436089
0.682418
0.96513
1.29733
1.69146
2.1335
2.5847
2.96827
-2.05547
-1.83172
-1.594
-1.35652
-1.12659
-0.907654
-0.699845
-0.500994
-0.307473
-0.113725
0.0865689
0.302171
0.542618
0.815973
1.1185
1.43382
1.71563
1.90818
1.95412
-1.79284
-1.60805
-1.402
-1.18826
-0.974958
-0.766895
-0.565344
-0.368893
-0.17409
0.0246234
0.23341
0.45927
0.706373
0.97169
1.23677
1.4716
1.63602
1.70711
1.69336
-1.52171
-1.36726
-1.19066
-1.00165
-0.80772
-0.614161
-0.423077
-0.233815
-0.0435261
0.152489
0.358695
0.578241
0.808584
1.03798
1.24265
1.39656
1.47991
1.49634
1.46734
-1.24254
-1.12216
-0.975669
-0.812416
-0.639618
-0.462887
-0.285076
-0.106457
0.074786
0.261776
0.456402
0.657713
0.858079
1.04229
1.18944
1.28431
1.32354
1.32097
1.29531
-0.885001
-0.793506
-0.675774
-0.540371
-0.394003
-0.241894
-0.0869489
0.0701268
0.230296
0.395115
0.563982
0.732935
0.892006
1.027
1.1234
1.17592
1.18935
1.17789
1.1535
-0.546457
-0.479534
-0.388205
-0.279317
-0.158964
-0.0319642
0.0988311
0.232275
0.368446
0.507408
0.646497
0.78022
0.898562
0.990585
1.04808
1.07204
1.06961
1.05226
1.02717
-0.176671
-0.126543
-0.0565358
0.0276995
0.121026
0.219437
0.320739
0.423794
0.528289
0.633385
0.735252
0.828403
0.904284
0.955815
0.979525
0.979513
0.962374
0.936824
0.907228
0.191133
0.23033
0.284217
0.347156
0.415032
0.484806
0.555257
0.625519
0.695272
0.763288
0.825499
0.877414
0.912579
0.927271
0.920959
0.89851
0.864887
0.82633
0.784991
0.557902
0.628978
0.715207
0.807529
0.899302
0.98526
1.06234
1.12837
1.18212
1.22218
1.24595
1.25114
1.23551
1.19941
1.14478
1.07417
0.986787
0.875601
0.72024
0.832128
0.824177
0.807903
0.783749
0.754304
0.722862
0.693086
0.667652
0.648063
0.633747
0.622145
0.609275
0.590859
0.563231
0.523654
0.469134
0.394656
0.288817
0.129517
1.13929
1.16441
1.1788
1.18182
1.17411
1.15708
1.13254
1.10208
1.06688
1.02663
0.980791
0.927583
0.86524
0.792001
0.706132
0.604041
0.47996
0.324773
0.126909
1.4138
1.4312
1.42952
1.41127
1.37902
1.3356
1.2838
1.22594
1.16364
1.09696
1.02596
0.949138
0.865025
0.771692
0.667161
0.54811
0.411464
0.255539
0.0846847
1.66466
1.66827
1.64736
1.60693
1.55095
1.48339
1.40788
1.32722
1.24327
1.15614
1.06606
0.971555
0.871193
0.763065
0.64562
0.516767
0.376265
0.226536
0.0740899
1.90882
1.89198
1.84841
1.78395
1.70362
1.61255
1.51516
1.4146
1.31268
1.2093
1.10456
0.99675
0.884398
0.765699
0.639678
0.505274
0.363671
0.217896
0.0721788
2.1338
2.0913
2.02268
1.93277
1.82812
1.71519
1.59899
1.48261
1.36742
1.25274
1.13824
1.0218
0.901783
0.776465
0.645271
0.507605
0.364917
0.219533
0.0736657
2.26959
2.20689
2.11571
2.00423
1.88157
1.75511
1.62961
1.50731
1.38852
1.27156
1.15538
1.03735
0.915661
0.788613
0.655881
0.51696
0.37314
0.22601
0.0766702
2.43168
2.34439
2.22442
2.08697
1.94375
1.80257
1.66751
1.53961
1.41787
1.29942
1.18247
1.06371
0.941105
0.812766
0.678351
0.537108
0.389976
0.237944
0.0814834
2.57352
2.44733
2.29427
2.13156
1.97158
1.82121
1.68283
1.55553
1.43658
1.32171
1.20825
1.09226
0.971375
0.843502
0.708192
0.564369
0.412696
0.253783
0.0877501
2.65383
2.48604
2.30227
2.12044
1.9523
1.80231
1.66997
1.55174
1.44282
1.3375
1.23233
1.12277
1.00625
0.880487
0.744973
0.598339
0.441092
0.273585
0.0956291
2.6732
2.46622
2.25687
2.06465
1.89872
1.75931
1.64198
1.54021
1.44715
1.3558
1.26219
1.16132
1.05058
0.927533
0.791686
0.641387
0.47703
0.298684
0.105682
2.66905
2.41907
2.18912
1.99549
1.841
1.71998
1.62353
1.54228
1.46772
1.39185
1.31055
1.21852
1.11316
0.991944
0.854388
0.698455
0.524354
0.331677
0.118958
2.60968
2.32058
2.08472
1.90529
1.7756
1.68335
1.61515
1.55944
1.5066
1.44817
1.38024
1.29741
1.19723
1.07706
0.936433
0.772769
0.585934
0.374759
0.136539
2.35816
2.07148
1.8662
1.73269
1.6536
1.61007
1.58501
1.56588
1.54293
1.50794
1.45783
1.38742
1.29463
1.17686
1.03367
0.861873
0.660783
0.428083
0.159022
2.10823
1.84661
1.69119
1.61698
1.595
1.60159
1.61805
1.63244
1.6359
1.62098
1.58558
1.52478
1.43673
1.31858
1.16967
0.985697
0.764829
0.502705
0.19102
1.79781
1.59431
1.52183
1.52819
1.57465
1.63669
1.6969
1.74566
1.77587
1.78125
1.76075
1.70975
1.62642
1.50743
1.35143
1.15245
0.906563
0.6061
0.237009
1.27655
1.22776
1.29443
1.41257
1.54552
1.67433
1.78652
1.87618
1.93875
1.96969
1.96875
1.93203
1.85743
1.74095
1.58012
1.36666
1.09321
0.746853
0.303902
0.772193
0.940208
1.16288
1.39237
1.60666
1.79669
1.95693
2.08516
2.17945
2.23697
2.25754
2.23817
2.17576
2.06514
1.90154
1.67325
1.3667
0.959938
0.412201
0.290822
0.705855
1.08803
1.42603
1.71972
1.97078
2.1813
2.3521
2.48382
2.57551
2.62622
2.63437
2.59516
2.50168
2.34548
2.1097
1.77025
1.28967
0.597604
-0.070755
0.568686
1.08924
1.52258
1.88985
2.20088
2.46475
2.6842
2.8623
3.00038
3.09594
3.14967
3.1544
3.10112
2.97583
2.7541
2.39445
1.83254
0.946527
-0.244655
0.54036
1.16118
1.67238
2.10712
2.47836
2.80082
3.07823
3.31637
3.51976
3.68424
3.81427
3.90062
3.9328
3.88978
3.73716
3.40631
2.7874
1.67132
-0.216782
0.609465
1.28767
1.85935
2.35606
2.78867
3.17614
3.5232
3.83929
4.13416
4.40342
4.65826
4.89082
5.09346
5.23994
5.28781
5.13235
4.59366
3.32366
-0.0391831
0.743915
1.44582
2.06456
2.61846
3.11314
3.57091
3.99933
4.41304
4.83157
5.25402
5.70425
6.18776
6.71487
7.26864
7.8225
8.24746
8.28494
7.38969
0.177597
0.893572
1.60897
2.26965
2.87667
3.43205
3.96098
4.47923
5.00691
5.58369
6.21811
6.95772
7.8611
9.01829
10.5393
12.7114
15.9838
21.3299
30.7616
)
;

boundaryField
{
    up
    {
        type            calculated;
        value           nonuniform List<scalar> 
84
(
-30.7616
-7.38969
-3.32366
-1.67132
-0.946528
-0.597604
-0.412201
-0.303902
-0.237009
-0.191019
-0.159021
-0.136538
-0.118958
-0.105682
-0.0956291
-0.0877503
-0.0814839
-0.0766709
-0.0736667
-0.0721803
-0.0740926
-0.0846917
-0.126927
-0.129728
-0.617786
-0.741488
-0.867198
-0.986588
-1.11001
-1.24633
-1.40702
-1.60246
-1.81486
-2.95906
-1.62907
-0.123946
-0.167676
-0.112538
-0.0846952
-0.0525635
-0.035124
-0.0179258
0.0178132
0.0348674
0.0525806
0.0844611
0.112306
0.167218
0.125253
1.60319
2.97115
1.81617
1.60378
1.40807
1.24722
1.1108
0.987361
0.868027
0.742278
0.620804
0.129517
0.126909
0.0846847
0.0740899
0.0721788
0.0736657
0.0766702
0.0814834
0.0877501
0.0956291
0.105682
0.118958
0.136539
0.159022
0.19102
0.237009
0.303902
0.412201
0.597604
0.946527
1.67132
3.32366
7.38969
30.7616
)
;
    }
    low
    {
        type            calculated;
        value           nonuniform List<scalar> 
84
(
-0.160424
0.0645687
0.25821
0.290157
0.0996172
-0.296191
-0.816702
-1.35153
-1.88417
-2.17787
-2.4174
-2.65425
-2.68201
-2.66618
-2.63389
-2.53618
-2.38023
-2.21496
-2.07131
-1.83224
-1.58258
-1.33248
-1.06183
-0.765641
-0.506649
-0.172975
0.155678
0.493629
0.815577
1.17028
1.45878
1.73797
2.01408
2.22193
2.37559
2.51442
2.44664
2.19397
1.85401
1.41529
0.900426
0.348822
-0.348658
-0.900273
-1.41514
-1.8539
-2.1939
-2.44663
-2.51441
-2.37599
-2.22179
-2.01422
-1.73807
-1.45888
-1.17038
-0.815664
-0.49372
-0.155751
0.17282
0.506764
0.765537
1.0619
1.3325
1.58261
1.83226
2.07133
2.21498
2.38025
2.53619
2.6339
2.66619
2.68202
2.65425
2.41741
2.17789
1.88419
1.35155
0.816717
0.296201
-0.0996118
-0.290157
-0.258212
-0.0645704
0.160424
)
;
    }
    left
    {
        type            calculated;
        value           nonuniform List<scalar> 
19
(
-0.157282
-0.856805
-1.58589
-2.26852
-2.90091
-3.48175
-4.03854
-4.58983
-5.15583
-5.78743
-6.4924
-7.32545
-8.36481
-9.73348
-11.5713
-14.284
-18.4954
-25.5649
-26.682
)
;
    }
    right
    {
        type            calculated;
        value           nonuniform List<scalar> 
19
(
0.157282
0.856807
1.5859
2.26852
2.90091
3.48175
4.03854
4.58983
5.15582
5.78742
6.4924
7.32545
8.3648
9.73347
11.5713
14.284
18.4954
25.5649
26.682
)
;
    }
    frontAndBackPlanes
    {
        type            empty;
    }
}


// ************************************************************************* //
