/*--------------------------------*- C++ -*----------------------------------*\
  =========                 |
  \\      /  F ield         | OpenFOAM: The Open Source CFD Toolbox
   \\    /   O peration     | Website:  https://openfoam.org
    \\  /    A nd           | Version:  7
     \\/     M anipulation  |
\*---------------------------------------------------------------------------*/
FoamFile
{
    version     2.0;
    format      ascii;
    class       volScalarField;
    location    "0.349";
    object      gradTy;
}
// * * * * * * * * * * * * * * * * * * * * * * * * * * * * * * * * * * * * * //

dimensions      [0 -1 0 1 0 0 0];

internalField   nonuniform List<scalar> 
1596
(
-0.370038
-0.690605
-0.960316
-1.22896
-1.49898
-1.80479
-2.13512
-2.53014
-3.00812
-3.58265
-4.36501
-5.35853
-6.72039
-8.6405
-11.5956
-16.1769
-24.3283
-39.3405
-92.9369
-1.12896
-1.40156
-1.60151
-1.80078
-2.00855
-2.2612
-2.54839
-2.90562
-3.34885
-3.88198
-4.5959
-5.48314
-6.64793
-8.17682
-10.3135
-13.185
-17.4385
-23.6825
-41.4039
-2.02328
-2.12763
-2.21167
-2.32161
-2.45566
-2.64388
-2.87304
-3.17291
-3.5543
-4.01436
-4.62594
-5.37111
-6.32069
-7.51479
-9.10038
-11.1005
-13.8661
-17.6557
-25.8004
-2.96343
-2.83648
-2.77836
-2.78594
-2.83822
-2.95382
-3.1155
-3.34633
-3.65219
-4.02586
-4.52516
-5.12658
-5.87881
-6.79822
-7.97692
-9.39823
-11.2672
-13.6933
-17.8633
-3.83359
-3.48729
-3.28841
-3.19205
-3.16058
-3.20031
-3.29076
-3.4482
-3.67467
-3.96065
-4.35161
-4.82284
-5.40838
-6.11284
-6.99625
-8.02924
-9.33919
-10.9686
-13.3543
-4.52792
-4.0405
-3.72999
-3.54115
-3.43116
-3.39718
-3.41768
-3.5029
-3.65233
-3.8557
-4.14841
-4.50733
-4.95648
-5.49496
-6.16298
-6.92971
-7.87766
-9.01862
-10.521
-4.98748
-4.46499
-4.09189
-3.83414
-3.65811
-3.55777
-3.51368
-3.53155
-3.60966
-3.73818
-3.94433
-4.20799
-4.54617
-4.95558
-5.46359
-6.04211
-6.74589
-7.57289
-8.59086
-5.20954
-4.74148
-4.36085
-4.06623
-3.84317
-3.68869
-3.58878
-3.54683
-3.56119
-3.62343
-3.75428
-3.93729
-4.18447
-4.49176
-4.87788
-5.31877
-5.85114
-6.46717
-7.19426
-5.23636
-4.88988
-4.55002
-4.25091
-4.00147
-3.80678
-3.66081
-3.56703
-3.52517
-3.52885
-3.59407
-3.70801
-3.87921
-4.10361
-4.39402
-4.7302
-5.13671
-5.6036
-6.1409
-5.1044
-4.89005
-4.62355
-4.35181
-4.1007
-3.88469
-3.70667
-3.57242
-3.48413
-3.4381
-3.44731
-3.50242
-3.60983
-3.766
-3.97991
-4.23478
-4.54718
-4.9068
-5.31561
-4.93455
-4.81601
-4.62465
-4.39597
-4.16052
-3.9387
-3.7411
-3.57675
-3.45097
-3.36311
-3.32461
-3.32933
-3.38252
-3.4814
-3.63247
-3.82185
-4.06072
-4.33906
-4.655
-4.72076
-4.70117
-4.58394
-4.40459
-4.1949
-3.9782
-3.77068
-3.58466
-3.42873
-3.30543
-3.22573
-3.18651
-3.19258
-3.24214
-3.34014
-3.47513
-3.65461
-3.86927
-4.11545
-4.45433
-4.52323
-4.47913
-4.35408
-4.17889
-3.97806
-3.77117
-3.57332
-3.39609
-3.24503
-3.13156
-3.05529
-3.02131
-3.02897
-3.08253
-3.17266
-3.3046
-3.46984
-3.66383
-4.21348
-4.33405
-4.34856
-4.27407
-4.13537
-3.95571
-3.7559
-3.55305
-3.36108
-3.18822
-3.04685
-2.93902
-2.87053
-2.84197
-2.8575
-2.90957
-3.00209
-3.12737
-3.28055
-3.98776
-4.14895
-4.20925
-4.1784
-4.07451
-3.91791
-3.72896
-3.5258
-3.32403
-3.13411
-2.96955
-2.83463
-2.73611
-2.67588
-2.65839
-2.67769
-2.73699
-2.82941
-2.95012
-3.76566
-3.96455
-4.06363
-4.07051
-3.99866
-3.86534
-3.68952
-3.48952
-3.282
-3.07912
-2.89555
-2.73751
-2.61287
-2.52486
-2.47853
-2.46944
-2.50055
-2.56579
-2.6605
-3.56303
-3.78701
-3.9175
-3.95652
-3.91327
-3.8021
-3.6402
-3.44551
-3.2352
-3.02264
-2.82354
-2.64575
-2.49829
-2.38573
-2.3139
-2.27985
-2.28671
-2.32917
-2.40282
-3.38422
-3.62454
-3.77956
-3.8454
-3.82705
-3.73597
-3.58753
-3.39896
-3.18753
-2.9675
-2.75534
-2.56034
-2.39253
-2.25773
-2.16272
-2.10603
-2.09131
-2.11417
-2.17043
-3.20694
-3.47581
-3.65562
-3.74582
-3.74983
-3.67691
-3.54094
-3.35833
-3.14634
-2.91986
-2.69598
-2.48519
-2.2984
-2.14253
-2.02529
-1.94677
-1.91157
-1.9165
-1.95785
-3.02738
-3.32788
-3.53455
-3.64886
-3.67417
-3.61859
-3.49484
-3.31867
-3.1072
-2.87578
-2.64196
-2.4172
-2.21312
-2.03747
-1.89875
-1.79848
-1.74279
-1.73042
-1.75875
-2.87422
-3.1945
-3.42541
-3.56269
-3.60805
-3.56867
-3.45641
-3.28649
-3.0759
-2.84033
-2.59771
-2.36025
-2.1401
-1.94549
-1.7853
-1.66196
-1.58338
-1.55143
-1.56658
-2.74013
-3.07832
-3.33105
-3.4899
-3.55432
-3.5303
-3.42896
-3.26517
-3.05576
-2.81669
-2.56619
-2.31709
-2.08199
-1.8693
-1.68763
-1.53913
-1.4326
-1.37381
-1.37096
-2.619
-2.9779
-3.25211
-3.43161
-3.51421
-3.50485
-3.41409
-3.25647
-3.04872
-2.80692
-2.5495
-2.28984
-2.041
-1.81157
-1.60943
-1.43472
-1.29387
-1.19278
-1.15334
-2.5139
-2.89434
-3.1887
-3.38575
-3.48263
-3.48343
-3.39901
-3.24353
-3.03389
-2.7866
-2.51917
-2.24674
-1.98267
-1.73632
-1.51466
-1.3161
-1.13939
-0.978031
-0.829703
-2.4314
-2.83215
-3.14955
-3.37079
-3.49325
-3.51974
-3.46099
-3.32944
-3.14069
-2.91079
-2.6541
-2.38689
-2.12171
-1.87026
-1.64003
-1.43222
-1.24085
-1.05297
-0.843811
-2.37715
-2.78994
-3.11869
-3.35309
-3.49091
-3.5346
-3.49439
-3.38153
-3.21011
-2.9949
-2.74717
-2.48263
-2.21328
-1.95243
-1.71017
-1.49387
-1.30167
-1.1291
-0.96358
-2.38198
-2.7986
-3.13233
-3.37427
-3.52248
-3.58019
-3.55694
-3.46368
-3.31306
-3.11782
-2.88705
-2.63328
-2.36686
-2.1012
-1.8491
-1.62205
-1.42303
-1.25105
-1.09677
-2.45295
-2.86453
-3.19416
-3.43454
-3.58454
-3.64863
-3.63628
-3.55846
-3.42682
-3.25232
-3.04167
-2.80357
-2.54504
-2.27765
-2.01562
-1.77459
-1.5631
-1.38413
-1.23031
-2.58481
-2.98688
-3.30444
-3.53496
-3.67905
-3.7427
-3.73575
-3.66943
-3.5548
-3.40151
-3.21408
-2.9973
-2.75338
-2.48955
-2.2189
-1.96053
-1.72983
-1.53598
-1.3743
-2.77596
-3.15763
-3.45455
-3.66778
-3.79947
-3.8571
-3.85112
-3.79311
-3.69386
-3.56237
-3.40161
-3.21323
-2.99395
-2.74406
-2.47105
-2.1945
-1.93689
-1.71789
-1.53894
-3.02579
-3.37544
-3.64549
-3.83591
-3.95024
-3.99744
-3.98879
-3.93612
-3.85016
-3.73999
-3.60806
-3.45475
-3.27231
-3.0528
-2.79255
-2.50438
-2.21278
-1.95233
-1.73996
-3.30433
-3.62662
-3.86731
-4.03081
-4.12385
-4.15718
-4.1429
-4.09285
-4.01774
-3.9272
-3.82425
-3.71075
-3.5779
-3.41208
-3.19539
-2.92385
-2.6068
-2.28527
-2.00694
-3.62889
-3.91704
-4.12178
-4.25277
-4.32008
-4.33592
-4.31277
-4.26202
-4.19398
-4.11876
-4.04038
-3.9645
-3.88625
-3.79443
-3.66342
-3.47206
-3.19215
-2.83154
-2.40938
-4.0138
-4.25613
-4.4176
-4.51181
-4.55144
-4.54958
-4.51821
-4.46782
-4.40774
-4.34782
-4.29333
-4.25326
-4.23026
-4.22508
-4.22348
-4.21153
-4.14555
-3.99699
-3.73524
-4.45093
-4.6362
-4.74081
-4.78539
-4.78476
-4.75223
-4.6979
-4.63083
-4.55837
-4.48756
-4.42356
-4.37289
-4.34071
-4.33369
-4.35505
-4.4138
-4.50272
-4.6124
-4.72288
-4.95279
-5.05604
-5.08975
-5.077
-5.03178
-4.96614
-4.88768
-4.80403
-4.72084
-4.64256
-4.57456
-4.51976
-4.48211
-4.46468
-4.47147
-4.50636
-4.57629
-4.68789
-4.85131
-5.51317
-5.5102
-5.46624
-5.3964
-5.30988
-5.21523
-5.11743
-5.02209
-4.93319
-4.85353
-4.78732
-4.73541
-4.69966
-4.67992
-4.67617
-4.68412
-4.70232
-4.72471
-4.74759
-6.04295
-5.93268
-5.81156
-5.68491
-5.55667
-5.43135
-5.31149
-5.20029
-5.09997
-5.01189
-4.93834
-4.87912
-4.83449
-4.80322
-4.78424
-4.77402
-4.77124
-4.77246
-4.7758
-6.48989
-6.29563
-6.11039
-5.93526
-5.77095
-5.61885
-5.47945
-5.35389
-5.24292
-5.14677
-5.06638
-5.00108
-4.95035
-4.91277
-4.88709
-4.87055
-4.86176
-4.8581
-4.85774
-6.85403
-6.5902
-6.35218
-6.13732
-5.94352
-5.76951
-5.61406
-5.47659
-5.35675
-5.25391
-5.1681
-5.09843
-5.0439
-5.00305
-4.97447
-4.95585
-4.94553
-4.94123
-4.94104
-7.12051
-6.80325
-6.52483
-6.28029
-6.06492
-5.87515
-5.70827
-5.5624
-5.43638
-5.32903
-5.23974
-5.16755
-5.11115
-5.06902
-5.03958
-5.02066
-5.01025
-5.00608
-5.00601
-7.28725
-6.92306
-6.6169
-6.35457
-6.12723
-5.92909
-5.75629
-5.60616
-5.47706
-5.36753
-5.27665
-5.20343
-5.14644
-5.10418
-5.07506
-5.05707
-5.04812
-5.04603
-5.04856
-7.28729
-6.92314
-6.61699
-6.35466
-6.12733
-5.92919
-5.75639
-5.60626
-5.47716
-5.36763
-5.27675
-5.20353
-5.14653
-5.10428
-5.07516
-5.05717
-5.04822
-5.04613
-5.04866
-7.12058
-6.8034
-6.52503
-6.28051
-6.06516
-5.8754
-5.70852
-5.56265
-5.43663
-5.32929
-5.24001
-5.16782
-5.11142
-5.06929
-5.03987
-5.02097
-5.01058
-5.00644
-5.00641
-6.85413
-6.59044
-6.35249
-6.13769
-5.94391
-5.76992
-5.61447
-5.477
-5.35717
-5.25434
-5.16852
-5.09886
-5.04433
-5.00349
-4.97493
-4.95633
-4.94604
-4.94176
-4.94161
-6.49002
-6.29593
-6.11079
-5.93572
-5.77145
-5.61936
-5.47998
-5.35442
-5.24346
-5.14732
-5.06692
-5.00163
-4.95089
-4.9133
-4.88762
-4.87108
-4.86229
-4.85863
-4.85827
-6.04311
-5.93301
-5.81201
-5.68543
-5.55724
-5.43195
-5.31211
-5.20093
-5.10062
-5.01254
-4.93899
-4.87977
-4.83513
-4.80384
-4.78484
-4.77459
-4.77177
-4.77295
-4.77627
-5.51334
-5.51056
-5.46672
-5.39697
-5.31051
-5.21589
-5.11813
-5.02281
-4.93392
-4.85427
-4.78807
-4.73614
-4.70037
-4.68058
-4.67673
-4.68457
-4.70262
-4.72485
-4.74755
-4.95297
-5.05643
-5.09032
-5.07773
-5.03264
-4.96711
-4.88876
-4.80522
-4.72214
-4.64398
-4.57611
-4.52145
-4.48396
-4.46666
-4.47355
-4.50839
-4.578
-4.6888
-4.85074
-4.45105
-4.63628
-4.7409
-4.78548
-4.78484
-4.75227
-4.6979
-4.63075
-4.55819
-4.48722
-4.42302
-4.37207
-4.33951
-4.33198
-4.35279
-4.41105
-4.49996
-4.61063
-4.72375
-4.01386
-4.25632
-4.41792
-4.51227
-4.55206
-4.55036
-4.51915
-4.46893
-4.40902
-4.34926
-4.29496
-4.25511
-4.23243
-4.22775
-4.22701
-4.21646
-4.15256
-4.00667
-3.74794
-3.62892
-3.91707
-4.12186
-4.25293
-4.32033
-4.33626
-4.31321
-4.26257
-4.19462
-4.11951
-4.04127
-3.96557
-3.88761
-3.79625
-3.66591
-3.47532
-3.19603
-2.83548
-2.41229
-3.30435
-3.62663
-3.86736
-4.03093
-4.12407
-4.15751
-4.14334
-4.09341
-4.01843
-3.92804
-3.82527
-3.71201
-3.57948
-3.41408
-3.19781
-2.92656
-2.6095
-2.28762
-2.0088
-3.0258
-3.37542
-3.6455
-3.83598
-3.9504
-3.99771
-3.98918
-3.93664
-3.85082
-3.74082
-3.60908
-3.45601
-3.27385
-3.05462
-2.79456
-2.50643
-2.21467
-1.95394
-1.74132
-2.77596
-3.1576
-3.45453
-3.66781
-3.79959
-3.85732
-3.85147
-3.7936
-3.69449
-3.56317
-3.40259
-3.21441
-2.99535
-2.74562
-2.47267
-2.19606
-1.9383
-1.71911
-1.54004
-2.58481
-2.98683
-3.3044
-3.53495
-3.67912
-3.74288
-3.73605
-3.66987
-3.55538
-3.40225
-3.21499
-2.99838
-2.7546
-2.49086
-2.22021
-1.96176
-1.73094
-1.53698
-1.37524
-2.45295
-2.86448
-3.1941
-3.43452
-3.58459
-3.64878
-3.63654
-3.55885
-3.42736
-3.253
-3.04249
-2.80453
-2.54609
-2.27874
-2.01669
-1.77559
-1.56403
-1.385
-1.23118
-2.38198
-2.79854
-3.13226
-3.37423
-3.5225
-3.5803
-3.55717
-3.46403
-3.31354
-3.11843
-2.88777
-2.63411
-2.36775
-2.10211
-1.84998
-1.62288
-1.42382
-1.25185
-1.09765
-2.37715
-2.78988
-3.11861
-3.35302
-3.49086
-3.53462
-3.49449
-3.38171
-3.21038
-2.99526
-2.7476
-2.48312
-2.21379
-1.95293
-1.71063
-1.4943
-1.30211
-1.12965
-0.964419
-2.43147
-2.8322
-3.14961
-3.37087
-3.49337
-3.51992
-3.46124
-3.32977
-3.14111
-2.9113
-2.65469
-2.38755
-2.12241
-1.87099
-1.64076
-1.43296
-1.24157
-1.05365
-0.844396
-2.51398
-2.89442
-3.18876
-3.38579
-3.48264
-3.4834
-3.39894
-3.24342
-3.03374
-2.78642
-2.51895
-2.2465
-1.98241
-1.73604
-1.51436
-1.31577
-1.13903
-0.977628
-0.829235
-2.61905
-2.97795
-3.25216
-3.43166
-3.51425
-3.50489
-3.41411
-3.25648
-3.04873
-2.80692
-2.54949
-2.28983
-2.04099
-1.81156
-1.60942
-1.43471
-1.29388
-1.19281
-1.15338
-2.74017
-3.07836
-3.33108
-3.48993
-3.55433
-3.5303
-3.42896
-3.26515
-3.05574
-2.81667
-2.56616
-2.31707
-2.08196
-1.86928
-1.68761
-1.53913
-1.43261
-1.37382
-1.37098
-2.87426
-3.19453
-3.42544
-3.56271
-3.60806
-3.56867
-3.4564
-3.28648
-3.07588
-2.84031
-2.59769
-2.36023
-2.14008
-1.94548
-1.78529
-1.66196
-1.58339
-1.55144
-1.56659
-3.02741
-3.32791
-3.53457
-3.64888
-3.67417
-3.61858
-3.49483
-3.31866
-3.10718
-2.87576
-2.64195
-2.41719
-2.21311
-2.03746
-1.89875
-1.79848
-1.7428
-1.73043
-1.75876
-3.20697
-3.47583
-3.65564
-3.74583
-3.74983
-3.67691
-3.54093
-3.35832
-3.14633
-2.91985
-2.69597
-2.48518
-2.29839
-2.14252
-2.02529
-1.94677
-1.91157
-1.9165
-1.95785
-3.38424
-3.62456
-3.77956
-3.8454
-3.82705
-3.73597
-3.58752
-3.39895
-3.18752
-2.96749
-2.75533
-2.56033
-2.39253
-2.25773
-2.16272
-2.10603
-2.09131
-2.11417
-2.17043
-3.56304
-3.78702
-3.91751
-3.95652
-3.91327
-3.8021
-3.64019
-3.44551
-3.2352
-3.02263
-2.82353
-2.64575
-2.49829
-2.38572
-2.3139
-2.27985
-2.28671
-2.32917
-2.40282
-3.76567
-3.96456
-4.06364
-4.07051
-3.99866
-3.86533
-3.68952
-3.48952
-3.282
-3.07911
-2.89555
-2.73751
-2.61287
-2.52486
-2.47852
-2.46944
-2.50055
-2.56578
-2.6605
-3.98776
-4.14895
-4.20926
-4.1784
-4.07451
-3.91791
-3.72896
-3.5258
-3.32403
-3.1341
-2.96955
-2.83463
-2.73611
-2.67588
-2.65839
-2.67769
-2.73699
-2.8294
-2.95012
-4.21348
-4.33405
-4.34856
-4.27407
-4.13537
-3.95571
-3.7559
-3.55305
-3.36108
-3.18822
-3.04684
-2.93901
-2.87053
-2.84197
-2.8575
-2.90957
-3.00209
-3.12736
-3.28054
-4.45433
-4.52324
-4.47914
-4.35408
-4.17889
-3.97807
-3.77117
-3.57333
-3.39609
-3.24503
-3.13156
-3.05529
-3.02131
-3.02896
-3.08253
-3.17265
-3.30459
-3.46983
-3.66383
-4.72075
-4.70117
-4.58394
-4.40459
-4.1949
-3.9782
-3.77068
-3.58466
-3.42873
-3.30542
-3.22573
-3.18651
-3.19258
-3.24213
-3.34013
-3.47512
-3.6546
-3.86927
-4.11545
-4.93454
-4.81601
-4.62465
-4.39598
-4.16053
-3.93871
-3.7411
-3.57675
-3.45097
-3.36311
-3.32461
-3.32933
-3.38251
-3.4814
-3.63246
-3.82184
-4.06071
-4.33905
-4.655
-5.1044
-4.89006
-4.62356
-4.35182
-4.10071
-3.88469
-3.70668
-3.57242
-3.48413
-3.4381
-3.44731
-3.50242
-3.60983
-3.766
-3.9799
-4.23477
-4.54718
-4.90679
-5.31561
-5.23637
-4.88989
-4.55003
-4.25092
-4.00148
-3.80678
-3.66081
-3.56703
-3.52517
-3.52885
-3.59407
-3.708
-3.8792
-4.1036
-4.39401
-4.73019
-5.1367
-5.6036
-6.1409
-5.20955
-4.74149
-4.36086
-4.06624
-3.84317
-3.68869
-3.58878
-3.54683
-3.56119
-3.62343
-3.75428
-3.93729
-4.18446
-4.49175
-4.87788
-5.31877
-5.85114
-6.46717
-7.19426
-4.9875
-4.465
-4.0919
-3.83414
-3.65812
-3.55778
-3.51368
-3.53156
-3.60966
-3.73818
-3.94432
-4.20798
-4.54616
-4.95558
-5.46358
-6.04211
-6.74589
-7.57289
-8.59086
-4.52794
-4.04051
-3.73
-3.54116
-3.43117
-3.39718
-3.41768
-3.5029
-3.65233
-3.8557
-4.14841
-4.50733
-4.95648
-5.49495
-6.16297
-6.92971
-7.87766
-9.01862
-10.521
-3.83361
-3.4873
-3.28842
-3.19206
-3.16059
-3.20032
-3.29076
-3.4482
-3.67468
-3.96065
-4.35161
-4.82284
-5.40837
-6.11284
-6.99624
-8.02924
-9.33919
-10.9686
-13.3543
-2.96344
-2.83649
-2.77837
-2.78595
-2.83823
-2.95383
-3.1155
-3.34633
-3.65219
-4.02586
-4.52516
-5.12657
-5.87881
-6.79822
-7.97692
-9.39823
-11.2672
-13.6933
-17.8633
-2.02329
-2.12764
-2.21167
-2.32161
-2.45566
-2.64388
-2.87304
-3.17291
-3.5543
-4.01436
-4.62594
-5.37111
-6.32068
-7.51479
-9.10038
-11.1005
-13.8661
-17.6557
-25.8004
-1.12896
-1.40156
-1.60151
-1.80079
-2.00855
-2.2612
-2.54839
-2.90562
-3.34885
-3.88198
-4.5959
-5.48314
-6.64793
-8.17682
-10.3135
-13.185
-17.4385
-23.6825
-41.4039
-0.370039
-0.690605
-0.960316
-1.22896
-1.49898
-1.80479
-2.13512
-2.53014
-3.00812
-3.58265
-4.36501
-5.35853
-6.72039
-8.6405
-11.5956
-16.1769
-24.3283
-39.3405
-92.9369
)
;

boundaryField
{
    up
    {
        type            calculated;
        value           nonuniform List<scalar> 
84
(
-84.2174
-45.6113
-28.0066
-19.1424
-14.1663
-11.0742
-8.98781
-7.49018
-6.36679
-5.49228
-4.79471
-4.22681
-3.75378
-3.35351
-3.0095
-2.70901
-2.44253
-2.20296
-1.98447
-1.78071
-1.58462
-1.38376
-1.14585
-0.747782
-0.726886
-0.914519
-1.05204
-1.1849
-1.32561
-1.48413
-1.67245
-1.90501
-2.25229
-3.73623
-4.8874
-4.95051
-4.75146
-4.77474
-4.85645
-4.94082
-5.00644
-5.05075
-5.05085
-5.00686
-4.9414
-4.85699
-4.77521
-4.75138
-4.94874
-4.88841
-3.75123
-2.25498
-1.90665
-1.67373
-1.48519
-1.32655
-1.18578
-1.05294
-0.915711
-0.72769
-0.747299
-1.14589
-1.38378
-1.58463
-1.78072
-1.98448
-2.20297
-2.44253
-2.70901
-3.0095
-3.35351
-3.75378
-4.22681
-4.79471
-5.49228
-6.3668
-7.49019
-8.98781
-11.0742
-14.1663
-19.1424
-28.0066
-45.6113
-84.2174
)
;
    }
    low
    {
        type            calculated;
        value           nonuniform List<scalar> 
84
(
-0.396497
-1.17741
-2.12947
-3.14387
-4.08506
-4.82786
-5.29978
-5.50166
-5.46988
-5.26123
-5.04994
-4.79564
-4.47456
-4.20309
-3.95957
-3.71416
-3.49169
-3.30738
-3.11905
-2.91382
-2.74147
-2.59308
-2.45424
-2.3324
-2.21933
-2.152
-2.15901
-2.25074
-2.40936
-2.63501
-2.91534
-3.21403
-3.56341
-3.97884
-4.44217
-4.98058
-5.59375
-6.1598
-6.63097
-7.01633
-7.30002
-7.48828
-7.48831
-7.30005
-7.01639
-6.63104
-6.15988
-5.59385
-4.98069
-4.44216
-3.9789
-3.56339
-3.21403
-2.91534
-2.63501
-2.40936
-2.25076
-2.15903
-2.15203
-2.21938
-2.33249
-2.45428
-2.59313
-2.74151
-2.91385
-3.11908
-3.3074
-3.49171
-3.71417
-3.95957
-4.20309
-4.47456
-4.79563
-5.04993
-5.26122
-5.46988
-5.50167
-5.2998
-4.82789
-4.08509
-3.14389
-2.12949
-1.17742
-0.396499
)
;
    }
    left
    {
        type            calculated;
        value           nonuniform List<scalar> 
19
(
-0.362859
-0.677316
-0.951789
-1.22852
-1.50878
-1.82617
-2.17038
-2.58382
-3.08571
-3.6962
-4.53221
-5.60271
-7.08639
-9.21071
-12.5109
-17.7116
-27.0761
-44.53
-87.3541
)
;
    }
    right
    {
        type            calculated;
        value           nonuniform List<scalar> 
19
(
-0.36286
-0.677317
-0.951789
-1.22852
-1.50878
-1.82617
-2.17038
-2.58382
-3.0857
-3.6962
-4.53221
-5.60271
-7.08638
-9.21071
-12.5109
-17.7116
-27.0761
-44.53
-87.3541
)
;
    }
    frontAndBackPlanes
    {
        type            empty;
    }
}


// ************************************************************************* //
