/*--------------------------------*- C++ -*----------------------------------*\
  =========                 |
  \\      /  F ield         | OpenFOAM: The Open Source CFD Toolbox
   \\    /   O peration     | Website:  https://openfoam.org
    \\  /    A nd           | Version:  7
     \\/     M anipulation  |
\*---------------------------------------------------------------------------*/
FoamFile
{
    version     2.0;
    format      ascii;
    class       volScalarField;
    location    "0.04";
    object      gradTz;
}
// * * * * * * * * * * * * * * * * * * * * * * * * * * * * * * * * * * * * * //

dimensions      [0 -1 0 1 0 0 0];

internalField   nonuniform List<scalar> 
1596
(
-1.61239e-16
-7.33287e-17
8.00073e-17
6.59525e-18
-1.39979e-16
0
-5.87669e-17
-5.82011e-17
-1.01586e-17
-3.3817e-17
-1.83567e-20
-3.44064e-17
1.61318e-16
-3.52413e-17
1.60537e-16
1.41267e-16
8.48216e-17
1.10446e-16
0
1.55396e-16
0
1.86695e-16
-4.03474e-18
-4.6329e-17
4.58937e-17
1.11378e-16
9.69723e-18
5.00433e-17
-2.49663e-17
5.04485e-17
2.28693e-21
-6.9725e-17
-4.45492e-17
-1.28843e-16
-1.28656e-16
-1.19333e-16
7.00441e-17
0
-6.90097e-17
0
-1.07663e-16
6.04947e-18
7.79252e-17
-3.20366e-17
6.34797e-18
-3.45573e-19
-1.58471e-19
-4.45577e-20
1.09971e-17
0
3.60293e-17
9.55717e-17
-9.65035e-18
8.93267e-18
2.01592e-17
3.71677e-17
0
1.18114e-16
-2.60495e-17
2.59543e-17
0
-2.16751e-17
-2.42305e-17
3.03859e-17
-1.86199e-17
0
0
-1.69878e-17
5.82171e-18
0
-2.5588e-17
-2.72688e-17
2.09466e-17
-2.92822e-17
-1.43932e-18
0
2.16999e-17
4.33442e-17
-2.79088e-17
0
-5.26524e-18
-1.76626e-17
0
2.28051e-17
-1.87436e-18
-1.75681e-18
-7.77231e-18
9.44454e-18
1.35779e-17
1.96687e-18
6.46873e-18
-2.25624e-17
1.04997e-18
1.08254e-17
-5.57381e-18
-5.63511e-18
-5.7679e-17
4.26272e-17
-2.76484e-17
-2.12782e-19
-1.35944e-17
3.22977e-19
-3.24049e-19
-6.8995e-18
0
-4.95047e-18
-1.16093e-17
-1.20641e-17
7.27256e-18
1.32758e-17
-1.58423e-19
-7.8318e-18
-1.09801e-17
9.14005e-18
4.70936e-17
-5.97164e-17
5.00805e-17
1.97993e-17
0
1.09335e-17
4.46665e-18
-1.877e-18
8.39093e-18
-1.2821e-18
-7.14223e-18
-3.27468e-21
-3.10684e-18
-7.27226e-18
-4.19309e-18
4.41635e-18
7.90074e-18
-1.16656e-19
-3.38376e-18
1.18907e-17
9.91575e-17
-8.71694e-17
0
0
-1.1587e-17
0
0
0
2.41488e-18
0
0
3.10846e-18
-2.34127e-20
2.3845e-18
-4.05055e-18
0
2.15112e-18
1.19349e-18
0
-5.69426e-17
1.01949e-16
0
0
1.1933e-17
0
-1.76882e-18
1.76703e-18
-2.45799e-18
7.34072e-19
-7.39441e-19
0
1.02822e-18
2.18559e-18
0
-1.19606e-18
-2.18523e-18
-1.09231e-18
1.86796e-16
-8.04545e-17
0
-2.6645e-17
2.63468e-17
0
7.3758e-18
0
0
0
4.44338e-19
-4.46468e-19
0
-8.47362e-19
-1.73028e-19
0
6.10443e-19
5.24377e-19
0
-4.7498e-17
0
0
2.78034e-17
-4.47358e-17
6.85976e-18
2.81005e-18
-1.61499e-18
7.20043e-19
1.4876e-19
-5.00302e-19
-4.27398e-19
0
2.51954e-19
-8.09364e-20
8.21511e-20
5.03862e-19
-4.50172e-19
-1.59173e-19
2.56804e-17
-1.07338e-17
2.60822e-17
6.43041e-17
-1.0392e-17
-1.78549e-17
0
0
0
1.22342e-18
2.48628e-19
6.54547e-19
-1.47487e-19
-2.47447e-19
-7.70054e-20
-7.3102e-20
3.68905e-20
-1.05747e-19
1.44461e-19
-3.71983e-17
3.7544e-17
-6.12488e-17
-6.40295e-17
5.12315e-17
1.08687e-17
-1.68482e-17
9.37807e-18
-5.00317e-18
1.27014e-18
4.33657e-19
-2.10263e-19
3.41601e-20
-4.35904e-20
1.54411e-19
0
-1.44449e-20
1.4977e-19
-2.48849e-20
-2.83705e-16
1.17413e-16
-3.14908e-20
-1.1365e-17
5.95447e-18
1.06942e-17
-1.82454e-17
-4.21144e-18
2.19536e-18
-1.09541e-18
-5.33634e-19
0
-2.18555e-19
-5.00998e-20
-4.45255e-20
-2.1388e-20
1.12438e-21
-4.80208e-20
1.42493e-20
4.62659e-17
-3.46917e-17
-2.0068e-19
-1.68665e-17
-2.79726e-17
2.35236e-17
1.86304e-19
4.10405e-18
-2.13747e-18
2.08323e-18
3.3274e-19
1.85e-19
2.25313e-19
0
6.9991e-20
2.52694e-20
0
1.5147e-20
5.57469e-21
0
3.3655e-17
1.61877e-17
-3.93738e-17
2.67072e-17
-3.2073e-17
1.66376e-17
2.86677e-18
-1.3799e-18
-2.42152e-18
1.66287e-19
-1.65467e-19
-1.9168e-19
4.0188e-20
-1.60892e-20
-2.08048e-20
4.84509e-21
-2.93245e-21
3.52126e-21
-4.27306e-17
1.09711e-16
-8.50093e-17
2.93728e-17
0
0
-1.83642e-18
4.81306e-18
-1.28503e-18
2.058e-18
0
0
1.15027e-19
-6.74531e-20
-1.98506e-20
5.74357e-21
-3.98285e-21
2.128e-21
0
9.98599e-18
4.01205e-17
-2.12378e-17
-1.46781e-17
-1.36857e-17
7.68218e-19
4.84313e-18
0
-1.0991e-18
-3.30754e-19
3.02348e-19
-1.34337e-19
5.82731e-20
0
9.34604e-21
8.85718e-21
0
0
0
-9.90742e-18
3.90623e-17
4.26795e-18
-4.51484e-17
7.49745e-18
4.6828e-18
0
0
9.18285e-19
-5.39053e-19
-2.92436e-19
1.29928e-19
-5.63545e-20
0
-3.14302e-21
1.97549e-21
0
-5.77897e-22
-1.85064e-22
-2.73272e-17
8.14801e-17
-8.06807e-17
-1.85175e-17
1.10771e-17
-3.67071e-18
1.92932e-18
0
-4.58964e-19
2.56962e-19
0
0
1.31308e-20
-1.31459e-20
1.10757e-21
-2.03329e-21
8.96689e-22
2.28736e-22
1.42422e-22
1.7368e-17
-1.23503e-17
4.38201e-17
-2.66084e-17
-5.69904e-18
1.56865e-18
4.68049e-18
7.62523e-19
4.3916e-19
0
5.44657e-20
-4.91639e-20
2.06523e-20
-9.28069e-21
3.58901e-21
-3.82347e-21
-6.24491e-22
4.13635e-22
6.60195e-23
3.98369e-17
-4.37119e-17
0
1.43236e-17
-8.7352e-18
-2.93638e-18
5.27668e-19
-2.7426e-18
0
-2.06217e-20
-9.20683e-20
-2.68394e-20
1.71408e-20
-3.33548e-21
-3.46872e-21
1.37135e-21
0
1.3152e-22
-6.41044e-23
8.55846e-17
-1.07032e-17
2.86162e-17
-2.1668e-17
4.55946e-18
-2.22727e-18
-3.3053e-18
-3.56342e-19
5.09109e-19
-4.53229e-20
-5.72145e-20
3.63173e-20
-1.03e-20
-4.58981e-21
0
0
0
-1.31661e-22
3.80652e-24
-6.38688e-17
5.90079e-17
-1.11949e-19
3.57057e-18
1.98758e-18
-2.33457e-18
1.93509e-18
-8.60364e-19
4.0207e-19
-4.24394e-20
7.26064e-20
8.3778e-21
-1.97523e-21
1.05941e-22
-1.54405e-24
-1.64274e-22
0
0
0
0
0
1.36223e-17
-1.28182e-17
-1.33096e-17
0
0
-1.93569e-19
-1.66541e-19
6.4474e-20
0
-1.05659e-20
4.0907e-21
-5.51072e-21
5.43665e-21
-6.2352e-22
6.63285e-22
3.871e-23
0
-1.21407e-17
1.22902e-17
0
-3.94016e-18
3.21258e-18
3.07971e-18
0
1.95417e-19
5.27739e-20
-3.72147e-19
0
-1.05734e-20
4.06008e-21
1.54004e-21
-6.17641e-22
5.18163e-22
0
-8.96764e-23
0
-6.2904e-18
-4.64144e-18
2.77472e-19
4.04842e-18
-6.73527e-18
0
-5.78838e-19
0
4.00983e-19
7.27454e-20
0
3.89932e-20
-2.59526e-20
3.83617e-21
-1.28215e-22
8.88065e-22
8.47899e-22
1.85337e-22
-1.46769e-22
0
1.13825e-17
-6.14086e-18
7.1409e-18
4.37851e-18
0
1.08667e-18
-8.28467e-19
-2.30317e-19
1.41282e-19
-1.95741e-19
-3.23263e-20
0
0
7.14631e-22
0
0
5.44977e-23
0
-5.86016e-17
4.65616e-17
0
1.3684e-18
-2.03027e-18
-8.00949e-20
1.0555e-18
1.84689e-19
-4.86215e-19
-3.744e-19
2.50514e-19
-6.87446e-20
0
-4.43277e-21
0
0
0
-1.95623e-22
1.51632e-22
-1.84769e-17
1.38268e-17
2.59618e-17
-2.23381e-17
4.73598e-18
6.63042e-19
-1.05603e-18
5.17874e-19
4.80293e-19
1.76884e-19
-3.24993e-19
0
2.28829e-20
-1.12005e-20
-5.04912e-21
-2.23029e-21
1.33365e-21
-6.62359e-23
5.59856e-23
-6.94705e-17
6.77365e-17
-6.35383e-17
7.66007e-18
4.21626e-18
-3.32708e-18
2.03853e-18
-8.10658e-19
0
-2.55354e-19
1.53872e-19
5.86712e-20
5.34337e-20
1.92579e-20
-2.44006e-20
-2.27313e-21
0
1.79953e-23
-7.16695e-23
-7.49298e-17
-1.66858e-17
-2.08089e-17
1.27826e-17
-1.12904e-17
6.57692e-18
-3.22573e-18
1.45257e-18
-2.795e-19
-2.13685e-19
-2.4328e-19
1.88989e-19
-2.25697e-21
4.82153e-20
-5.17596e-20
-2.00552e-21
2.07677e-21
0
1.87926e-22
8.10155e-17
-1.87127e-17
0
0
-1.18106e-17
2.02558e-17
-3.6207e-18
-3.21296e-19
1.88533e-18
-1.02032e-19
0
0
-6.15254e-20
0
-5.80021e-20
1.01502e-19
-5.87945e-20
0
-1.23831e-22
2.54404e-17
4.05985e-17
0
-1.17719e-17
-5.76105e-18
-2.39919e-18
-3.88839e-18
9.07062e-19
-2.03298e-18
-5.4859e-19
0
0
2.11417e-19
0
0
-1.07895e-19
1.96801e-19
0
0
1.75388e-16
-3.11047e-17
-8.41057e-17
-3.00992e-17
4.20271e-17
8.87599e-18
3.77028e-18
0
-6.7936e-19
4.41001e-19
9.73876e-19
-2.61862e-19
-1.8552e-19
2.22396e-19
-2.36561e-19
-3.66167e-20
0
0
0
1.40279e-17
-9.06296e-17
8.72385e-17
-6.46313e-18
-3.64078e-17
5.04929e-17
-2.19727e-17
0
0
3.76856e-18
-2.72758e-18
0
-3.20881e-19
6.10382e-19
-2.76295e-20
1.15074e-19
2.7565e-20
7.29053e-22
4.47916e-21
0
0
0
5.27239e-17
-3.6184e-17
2.33935e-17
-3.38237e-17
8.03294e-18
0
-1.39915e-18
1.4747e-18
-1.50724e-18
-1.73722e-19
2.17038e-20
-7.16681e-20
-5.59396e-21
-4.98131e-20
-1.43371e-20
-7.04758e-21
1.11579e-16
-1.86051e-16
8.18584e-17
0
1.22627e-17
-1.72686e-17
1.10108e-17
-8.56509e-18
0
-1.81509e-18
2.62031e-18
0
0
2.22016e-20
0
-8.88086e-20
5.73771e-20
4.49033e-21
1.19755e-20
1.21468e-16
0
-3.22146e-17
3.56637e-17
-1.52129e-17
3.06698e-17
-1.28402e-17
-6.19941e-18
6.26415e-18
-4.38312e-19
0
0
1.36248e-19
-1.65405e-19
-9.83997e-20
1.75386e-19
-3.57833e-20
1.462e-20
0
6.85282e-17
4.22253e-17
-7.04351e-18
-3.44126e-17
-2.62922e-18
-1.41891e-17
3.91731e-18
9.43197e-18
-3.39875e-19
4.46543e-19
0
0
-1.39577e-19
0
1.14194e-19
-1.2216e-19
0
1.32007e-20
-3.49003e-21
-3.62783e-17
-2.12519e-17
1.99997e-17
-1.78724e-18
-6.71033e-19
1.47341e-18
0
-2.51011e-19
2.67819e-18
-2.24652e-18
0
3.76665e-19
-1.31366e-19
-2.72357e-19
-1.96785e-20
-1.3698e-20
0
-1.0471e-20
0
1.33799e-17
-2.39818e-17
1.13998e-18
8.27568e-18
5.34326e-18
-5.19267e-18
-2.43193e-18
2.71611e-18
-5.92479e-19
4.82405e-19
-2.82557e-19
2.91272e-19
0
4.4594e-22
-1.36029e-20
4.94897e-20
-1.5127e-22
0
0
1.33804e-17
-1.33302e-17
-8.22983e-18
7.37704e-18
9.33921e-18
-9.39434e-18
-1.21606e-18
1.22002e-18
-5.98085e-19
6.04084e-19
-2.82593e-19
4.86236e-19
-1.35016e-19
-7.13706e-20
-1.62798e-20
6.52535e-21
1.17715e-20
2.86502e-21
-2.12571e-21
0
-2.97214e-18
1.41481e-17
-1.55938e-17
9.27552e-18
-8.3451e-18
0
3.37005e-18
-3.06961e-18
0
5.49135e-19
-6.76608e-19
-2.59985e-19
2.72481e-19
3.72254e-20
0
0
-1.04799e-20
3.7226e-21
5.31543e-17
-9.21729e-17
8.16317e-17
-6.09351e-17
2.21048e-17
-1.22761e-17
1.19114e-17
9.5518e-19
-2.58215e-18
2.27156e-18
0
-8.00351e-19
7.30246e-19
-9.55584e-20
-3.64623e-20
4.53832e-20
3.04269e-20
1.0174e-20
-3.59688e-21
1.36084e-16
0
-3.68012e-17
2.87339e-17
2.59938e-18
-1.47029e-17
2.31826e-17
-1.61953e-17
5.65009e-18
-1.41385e-18
1.4472e-18
2.00995e-19
2.46484e-19
9.30749e-20
-5.64682e-20
-1.13886e-20
-6.51784e-20
0
5.05719e-21
9.71614e-17
-1.09413e-16
0
6.84433e-18
2.22376e-17
-2.08491e-17
2.49121e-18
1.70127e-18
6.04287e-19
7.5113e-19
0
0
-3.95335e-19
6.23895e-19
-2.02439e-19
-5.24938e-20
5.74719e-20
3.92626e-21
-9.22151e-21
2.28677e-17
9.66597e-17
-8.81987e-18
-4.61295e-17
4.102e-17
3.50231e-18
-2.43811e-18
-1.66163e-18
3.53816e-18
-4.29653e-18
1.47659e-18
-1.50914e-18
1.01085e-19
-2.0446e-19
1.9912e-19
-1.34806e-19
0
0
5.31692e-21
0
2.23289e-17
-5.1732e-17
5.99739e-17
-3.17425e-17
3.16669e-17
0
4.89591e-18
-4.91835e-18
-1.99729e-18
2.73278e-18
0
4.88524e-19
-6.11752e-19
-6.83946e-20
0
-4.32841e-21
-5.03943e-21
-1.95521e-21
-2.42752e-16
1.07204e-16
0
-4.20388e-17
4.20346e-17
1.58745e-17
-1.0176e-17
2.40529e-18
0
-5.22409e-20
1.27919e-19
-2.62045e-19
-1.85762e-19
2.22686e-19
-2.3679e-19
0
2.03473e-20
1.18666e-21
-3.3864e-21
1.41855e-16
-1.32608e-16
0
1.11131e-17
7.72117e-18
-5.83528e-18
0
-2.52077e-18
-1.22214e-18
0
-1.86142e-19
0
2.12065e-19
0
0
2.08355e-20
6.05512e-20
-8.78149e-20
0
-9.10488e-20
1.87243e-17
-1.36506e-17
6.34993e-18
-3.51533e-17
1.1318e-17
0
3.22017e-19
7.93085e-19
0
-3.71402e-19
4.58954e-19
-4.82158e-19
3.05503e-20
0
-1.19693e-20
0
0
0
-7.97527e-20
0
1.26166e-17
0
-9.09074e-18
9.23526e-18
0
1.04321e-18
-4.79773e-19
1.26042e-18
-5.08206e-19
6.40964e-20
-5.85625e-20
2.0822e-20
-5.20874e-20
-5.79079e-21
0
1.9784e-23
0
5.02839e-17
-8.61566e-17
0
-7.12816e-18
4.41829e-18
0
0
-1.69954e-18
0
-2.56109e-19
-1.54409e-19
-5.89105e-20
5.36924e-20
0
3.84744e-21
0
0
-1.70619e-22
2.02461e-22
0
6.12303e-17
-4.76401e-17
6.59905e-18
-4.09136e-18
-8.34104e-19
1.90537e-18
1.20035e-18
-6.82012e-19
2.05333e-19
5.40193e-20
-2.49962e-20
8.60555e-20
-2.08868e-20
-1.46409e-20
2.68506e-21
-1.04691e-22
-2.33568e-23
-1.38314e-23
-1.34389e-16
4.67752e-17
0
0
1.21129e-18
-1.23175e-18
1.33158e-19
-1.39124e-19
4.65156e-19
1.08305e-19
-8.30611e-20
-1.26037e-20
-7.38233e-21
4.45335e-21
0
3.08549e-22
9.59572e-23
5.74099e-23
1.25016e-23
0
3.24782e-17
-2.33231e-17
6.23532e-18
3.01183e-18
-5.0555e-19
-7.3724e-19
-3.43379e-19
-5.3252e-19
9.25808e-20
-4.5255e-21
3.74125e-20
6.90339e-21
-2.62138e-21
2.78243e-21
5.02747e-22
-7.25275e-22
-5.30266e-23
0
-8.33557e-18
-2.74068e-17
6.83868e-18
4.05083e-18
-7.931e-18
4.52167e-18
7.57142e-19
-7.73915e-19
2.1889e-19
-8.78637e-20
0
0
-5.81902e-21
8.35159e-21
-2.38943e-21
7.84318e-22
-8.47526e-22
8.24043e-23
-1.4666e-22
1.42476e-17
1.02902e-17
-6.48042e-18
1.89745e-18
-3.80954e-18
-2.03649e-18
0
0
0
0
0
0
3.9301e-21
-4.28696e-21
4.53393e-21
-4.7614e-22
6.64963e-22
1.5738e-22
-1.27503e-22
3.23062e-17
-3.2729e-17
3.95463e-17
-7.46923e-18
1.13218e-17
-2.73649e-18
4.02154e-18
-1.45503e-18
-2.18339e-19
2.23351e-19
0
1.05546e-20
-3.83951e-21
4.00892e-21
-2.64206e-21
-1.28421e-21
-1.0004e-21
1.09204e-22
9.61226e-23
5.17515e-17
1.01247e-17
0
-7.27875e-18
-2.79569e-18
5.01388e-18
-2.58262e-19
-6.84664e-19
2.57975e-19
-7.46402e-20
0
-8.35518e-21
0
-2.1376e-21
1.08185e-21
-4.86873e-22
-1.12717e-22
3.30827e-23
0
7.01902e-17
-1.07029e-17
2.88661e-17
-2.19445e-17
-2.32324e-18
4.54449e-18
-2.59899e-18
2.05255e-19
1.02783e-19
-9.48013e-20
6.42535e-20
0
0
3.83128e-21
-1.90279e-22
5.70119e-23
3.8867e-22
-1.06422e-22
0
-4.02175e-20
0
-7.39523e-18
2.81794e-17
-1.71385e-17
-8.32712e-18
4.32473e-18
-1.53977e-18
1.20964e-18
2.62887e-19
-1.03055e-19
2.73664e-20
-1.56937e-20
3.35294e-21
5.93458e-21
-3.11709e-22
-5.30053e-22
3.55315e-22
-7.08127e-23
1.56534e-16
-4.65528e-17
1.01016e-17
-3.65574e-17
5.69903e-18
-5.42072e-18
3.37735e-18
0
0
-2.97417e-20
-5.9255e-20
-9.70551e-21
0
-9.0272e-21
-3.58899e-21
1.41698e-21
-5.96982e-23
1.89669e-22
1.73166e-22
0
-4.03216e-17
4.76434e-17
9.74789e-19
-2.53828e-17
3.67071e-18
-3.12413e-18
1.53564e-18
1.5394e-18
0
0
7.63756e-21
3.14396e-20
0
-6.36681e-21
-1.56628e-21
2.72223e-22
-1.74346e-22
-2.89396e-22
0
-2.03256e-17
1.51056e-17
3.27164e-17
1.17812e-17
-1.91163e-17
6.86323e-18
-1.89223e-18
1.20157e-18
-6.36694e-19
0
0
0
-2.40493e-20
6.22562e-22
-3.15853e-21
0
-5.68919e-23
2.42935e-22
-1.12519e-16
1.00375e-16
7.00385e-17
-8.23621e-17
2.19999e-17
-1.87238e-17
0
2.22327e-18
-2.60504e-18
9.85697e-19
-3.54686e-19
1.60383e-19
7.0911e-20
2.48723e-20
1.06303e-20
0
0
0
0
1.38752e-16
-6.36998e-17
0
0
-9.60852e-18
1.42693e-17
-8.69477e-18
-2.56221e-18
2.53333e-18
7.88141e-19
7.8491e-19
-1.66413e-19
4.14667e-20
9.98909e-21
5.71407e-21
2.86933e-21
4.6631e-21
-1.70832e-22
1.74008e-22
-1.34585e-16
1.10669e-16
4.01124e-17
-2.32085e-17
2.63963e-17
-1.61617e-17
-7.11223e-18
-3.85817e-18
0
-1.69006e-18
2.6861e-19
2.20807e-19
-8.95731e-20
-4.01894e-20
-7.68132e-21
-3.23563e-21
-2.79775e-21
0
0
-4.62107e-17
0
2.48603e-17
2.01976e-19
0
0
7.3365e-18
3.98109e-18
0
1.01763e-18
0
-3.15595e-19
-3.24834e-20
6.05905e-20
0
2.27627e-20
-2.51143e-21
2.56199e-21
0
1.05441e-16
0
4.31189e-17
-7.09259e-17
5.02412e-17
2.41632e-17
-2.79003e-18
0
5.5118e-19
1.65229e-18
0
-3.76731e-19
2.72138e-19
-1.68838e-19
-2.79888e-20
-1.67132e-20
-6.99997e-21
-2.21564e-21
-2.16137e-20
-8.53573e-17
1.19573e-16
-2.59697e-17
-5.25846e-17
-2.26403e-17
-1.37837e-17
-1.5724e-17
-3.31229e-18
1.00129e-18
4.3448e-19
-4.33664e-19
6.11729e-19
-1.93912e-19
2.64359e-19
-4.41271e-20
0
1.01425e-19
-8.95831e-20
1.9108e-20
2.16845e-16
-9.85338e-18
-1.12954e-16
6.43045e-17
-4.65113e-17
2.86041e-17
-2.68115e-18
-4.23853e-18
2.28306e-18
4.56513e-19
-2.07766e-19
-5.82162e-19
9.90569e-20
2.09986e-19
-3.66809e-20
3.70993e-20
-1.05051e-19
-1.3455e-19
-1.30267e-19
1.06452e-16
3.56918e-17
5.07494e-17
-3.32837e-17
-1.73042e-17
4.39767e-18
-5.84689e-18
1.2587e-17
7.63406e-19
2.23748e-18
8.67228e-19
-6.31531e-19
0
-2.51943e-19
0
0
5.86107e-19
1.91918e-19
1.42708e-19
9.28412e-17
0
4.79185e-17
3.30689e-17
-2.01431e-17
1.27272e-17
0
-4.16354e-18
-3.96101e-18
-2.32667e-18
-8.74904e-19
6.38672e-19
0
0
0
0
-5.59798e-19
-1.07173e-18
0
-1.81355e-16
0
-8.44529e-18
-8.09249e-18
3.13469e-17
-8.87591e-18
-2.60271e-18
-2.90743e-18
4.02702e-18
0
7.34059e-19
-5.83177e-20
1.28997e-18
0
0
2.30877e-18
-1.88247e-19
1.29638e-18
-1.16516e-18
1.22787e-16
2.663e-17
-2.63552e-17
-1.74858e-17
-3.79261e-17
1.90758e-17
1.52195e-17
-1.20584e-18
-3.15073e-18
3.93482e-18
6.47601e-19
-4.32339e-18
-2.62266e-18
-3.2845e-18
-3.85533e-18
-2.70095e-18
4.64355e-18
-1.90551e-19
1.19337e-18
-3.48829e-17
1.25904e-17
-5.39743e-17
5.75305e-18
-5.73212e-18
0
-7.83445e-18
-2.48874e-18
-7.11403e-18
2.80643e-18
7.14221e-18
3.60776e-18
-1.22719e-18
-2.06984e-18
3.51555e-18
0
-1.23697e-17
-6.62929e-18
-1.23345e-19
7.81613e-17
-1.52039e-18
8.29527e-17
-3.06029e-17
2.12782e-19
5.31675e-19
1.39199e-17
-4.47738e-18
6.89944e-18
-6.46436e-18
-6.38124e-18
0
1.20642e-17
7.1264e-18
1.52992e-19
-2.34813e-19
7.91185e-18
6.72474e-18
0
-5.35467e-17
0
-4.96381e-18
3.10814e-17
1.47972e-18
5.27226e-18
-1.34604e-17
1.19253e-17
1.86585e-17
1.85106e-17
1.87555e-17
0
-1.17201e-17
0
1.01355e-18
-1.05267e-18
0
-1.52052e-19
8.8934e-18
4.26102e-17
7.16497e-18
-1.69751e-17
5.80752e-17
-1.66167e-17
0
0
-2.93994e-17
-1.80782e-17
-1.79326e-17
-4.18496e-17
-5.82169e-18
0
0
0
-3.05369e-18
3.23157e-18
2.57249e-17
-9.05347e-18
8.21247e-18
0
-4.92962e-17
-3.44644e-17
4.29602e-17
-4.5277e-17
-6.14392e-17
6.35879e-17
2.54712e-17
0
2.85024e-17
4.42008e-17
-9.13774e-18
5.55233e-17
-9.33174e-18
9.71207e-18
4.40409e-17
-2.44595e-17
0
-7.91938e-17
0
-6.88483e-17
6.51647e-17
0
9.57182e-17
4.19012e-17
-1.00329e-16
9.27615e-17
-4.41889e-20
-2.5222e-17
-4.27955e-17
0
8.19554e-17
-1.28843e-16
1.41268e-16
-1.80743e-16
0
0
8.0532e-17
-2.17739e-18
-5.02285e-18
-1.41591e-16
1.48887e-16
-6.84447e-17
6.81656e-17
6.75005e-17
-4.79332e-17
0
0
1.24224e-16
-1.26364e-16
-1.22055e-16
1.24073e-16
-1.23717e-16
1.36642e-16
-2.17681e-16
0
)
;

boundaryField
{
    up
    {
        type            calculated;
        value           nonuniform List<scalar> 
84
(
0
0
0
0
-5.57381e-18
9.14005e-18
-3.38376e-18
1.19349e-18
-1.09231e-18
0
-1.59173e-19
1.44461e-19
-2.48849e-20
1.42493e-20
5.57469e-21
3.52126e-21
0
0
-1.85064e-22
1.42422e-22
6.60195e-23
-6.41044e-23
3.80652e-24
0
2.33137e-23
1.99474e-23
-1.27655e-22
0
1.51632e-22
7.0336e-23
-7.16695e-23
1.87926e-22
-1.23831e-22
0
2.0933e-21
4.16218e-21
-6.58458e-21
1.14917e-20
0
-3.26576e-21
0
0
-2.07727e-21
3.7226e-21
-3.59688e-21
5.05719e-21
-9.22151e-21
5.31692e-21
-1.95521e-21
-3.3864e-21
0
0
0
2.02461e-22
-4.22602e-23
1.25016e-23
0
-1.4666e-22
-1.27503e-22
7.28174e-23
0
0
-7.08127e-23
1.73166e-22
-2.89396e-22
2.42935e-22
0
1.74008e-22
0
0
-2.16137e-20
1.9108e-20
-1.30267e-19
1.42708e-19
0
-1.16516e-18
1.19337e-18
-1.23345e-19
0
8.8934e-18
-9.05347e-18
0
0
0
)
;
    }
    low
    {
        type            calculated;
        value           nonuniform List<scalar> 
84
(
-1.61775e-16
1.55396e-16
-6.80535e-17
1.18808e-16
2.21215e-17
-5.74727e-18
4.79556e-17
1.26671e-17
0
1.87759e-16
-4.7498e-17
2.49453e-17
-3.71983e-17
-2.84156e-16
4.62659e-17
0
-4.27306e-17
9.98599e-18
-9.90742e-18
-2.73272e-17
1.7368e-17
3.98369e-17
8.53481e-17
-6.38688e-17
0
-1.21407e-17
-6.2904e-18
0
-5.86016e-17
-1.84769e-17
-6.94328e-17
-7.50106e-17
8.1216e-17
2.54404e-17
1.75804e-16
1.40279e-17
0
1.11579e-16
1.22277e-16
6.89423e-17
-3.64901e-17
1.33799e-17
1.33804e-17
0
5.31543e-17
1.36892e-16
9.71614e-17
2.35805e-17
0
-2.43168e-16
1.41855e-16
-9.10488e-20
-7.97527e-20
5.02839e-17
0
-1.339e-16
0
-8.33557e-18
1.42476e-17
3.20009e-17
5.13834e-17
6.99534e-17
-4.02175e-20
1.56526e-16
0
0
-1.12519e-16
1.39024e-16
-1.34925e-16
-4.62107e-17
1.05892e-16
-8.53573e-17
2.18316e-16
1.07294e-16
9.28412e-17
-1.81355e-16
1.22011e-16
-3.4021e-17
7.81613e-17
-5.31251e-17
4.26102e-17
9.16878e-18
-7.91938e-17
8.07998e-17
)
;
    }
    left
    {
        type            calculated;
        value           nonuniform List<scalar> 
19
(
-1.61239e-16
-7.3392e-17
8.00073e-17
6.93226e-18
-1.40474e-16
0
-5.87669e-17
-5.82011e-17
-1.08893e-17
-3.3817e-17
-1.83567e-20
-3.44064e-17
1.63278e-16
-3.52413e-17
1.60537e-16
1.41267e-16
8.48216e-17
1.2779e-16
0
)
;
    }
    right
    {
        type            calculated;
        value           nonuniform List<scalar> 
19
(
8.0532e-17
-2.11417e-18
-5.02285e-18
-1.41928e-16
1.49381e-16
-6.84447e-17
6.81656e-17
6.75005e-17
-4.72025e-17
0
0
1.25968e-16
-1.28324e-16
-1.22055e-16
1.24073e-16
-1.23717e-16
1.36642e-16
-2.35025e-16
0
)
;
    }
    frontAndBackPlanes
    {
        type            empty;
    }
}


// ************************************************************************* //
