/*--------------------------------*- C++ -*----------------------------------*\
  =========                 |
  \\      /  F ield         | OpenFOAM: The Open Source CFD Toolbox
   \\    /   O peration     | Website:  https://openfoam.org
    \\  /    A nd           | Version:  7
     \\/     M anipulation  |
\*---------------------------------------------------------------------------*/
FoamFile
{
    version     2.0;
    format      ascii;
    class       volScalarField;
    location    "0.295";
    object      gradTz;
}
// * * * * * * * * * * * * * * * * * * * * * * * * * * * * * * * * * * * * * //

dimensions      [0 -1 0 1 0 0 0];

internalField   nonuniform List<scalar> 
1596
(
-1.1296e-15
-5.50249e-16
5.57881e-16
1.10219e-17
-1.06591e-15
0
-4.9961e-16
-4.92618e-16
-3.10796e-17
-2.58644e-16
-2.4758e-18
-2.57029e-16
1.12922e-15
-2.53915e-16
1.18707e-15
1.02388e-15
6.08877e-16
7.68613e-16
0
1.12986e-15
0
1.59946e-15
-1.0305e-17
-4.92886e-16
4.88914e-16
1.00372e-15
2.94772e-17
4.76291e-16
-2.29193e-16
4.57084e-16
-7.20198e-18
-6.336e-16
-3.95382e-16
-9.59884e-16
-9.3598e-16
-8.51214e-16
4.84297e-16
0
-5.55607e-16
0
-1.0468e-15
1.63756e-17
9.65854e-16
-2.68301e-16
1.9152e-17
-6.75563e-18
-6.98974e-18
-7.52839e-18
1.75533e-16
0
3.28715e-16
9.33428e-16
-9.19096e-17
7.37334e-17
1.7354e-16
2.70258e-16
0
8.70805e-16
-2.64063e-16
2.63098e-16
0
-2.53784e-16
-2.61661e-16
4.50277e-16
-3.96606e-16
0
0
-1.38261e-16
9.15966e-17
0
-2.75522e-16
-3.52321e-16
2.43076e-16
-2.48244e-16
-1.27824e-17
0
1.51899e-16
4.08138e-16
-3.71447e-16
0
-1.10611e-16
-3.35855e-16
0
5.0425e-16
-5.03967e-17
-4.56142e-17
-4.03414e-17
2.63652e-16
3.22543e-16
3.30198e-17
9.45985e-18
-2.6285e-16
1.32646e-17
1.21602e-16
-5.21343e-17
-3.94458e-17
-5.60504e-16
5.36745e-16
-4.72905e-16
-9.11934e-19
-4.23375e-16
1.19641e-17
-1.20038e-17
-3.37572e-16
0
-3.3185e-17
-3.11467e-16
-2.91495e-16
2.38444e-16
2.43961e-16
-3.33826e-18
-1.46213e-16
-1.23339e-16
9.41643e-17
3.29655e-16
-5.71986e-16
6.47404e-16
3.64395e-16
0
3.2455e-16
1.92606e-16
-9.29776e-17
4.28596e-16
-8.0857e-17
-3.40089e-16
3.1886e-18
-2.02894e-16
-2.39605e-16
-1.88551e-16
1.59588e-16
1.475e-16
-1.96473e-18
-3.93672e-17
2.99506e-17
9.0727e-16
-1.07877e-15
0
0
-4.06215e-16
0
0
0
2.85875e-16
0
0
1.8575e-16
7.19731e-18
4.83844e-17
-1.39327e-16
0
7.41647e-17
2.87219e-17
0
-5.92056e-16
1.14187e-15
0
0
4.18344e-16
0
-1.62853e-16
1.62689e-16
-2.90979e-16
1.22004e-16
-1.22896e-16
0
1.77597e-16
1.69732e-16
0
-9.80591e-17
-7.57926e-17
-2.5056e-17
1.40777e-15
-6.61748e-16
0
-4.83261e-16
4.77852e-16
0
3.63695e-16
0
0
0
1.13976e-16
-1.14522e-16
0
-1.3697e-16
-3.94735e-17
0
9.28803e-18
5.62943e-17
0
-3.5731e-16
0
0
4.8462e-16
-9.09075e-16
4.27718e-17
1.6697e-17
-1.5216e-16
1.58804e-17
5.01716e-18
-1.20363e-16
-1.95822e-16
0
1.48182e-16
-2.9274e-17
2.97133e-17
7.62603e-17
-4.40632e-17
-2.04384e-17
3.0246e-16
-2.92421e-17
2.90197e-16
1.0049e-15
-4.93172e-17
-4.2701e-16
0
0
0
2.48107e-16
1.0079e-16
3.64697e-16
-8.81206e-17
-1.45531e-16
-8.79694e-17
-4.73218e-17
2.10248e-17
-4.5589e-17
1.94765e-17
-3.31322e-16
3.24466e-16
-6.02762e-16
-9.92718e-16
9.24535e-16
3.73792e-16
-6.95357e-16
6.09053e-16
-5.32674e-16
1.3866e-16
1.08148e-16
-9.80926e-17
6.57347e-17
-5.84591e-17
1.70226e-16
0
-1.27778e-17
9.37939e-17
-1.39125e-17
-2.12958e-15
9.82789e-16
8.33337e-19
-2.23599e-16
2.591e-17
3.63429e-16
-6.92919e-16
-2.90624e-16
2.51421e-16
-2.16296e-16
-1.8658e-16
0
-2.14862e-16
-6.41418e-17
-1.15737e-16
-6.88701e-17
5.42869e-18
-5.98062e-17
1.11182e-18
3.48061e-16
-3.12529e-16
7.03005e-19
-2.44861e-16
-6.20285e-16
5.87108e-16
2.04325e-18
2.83213e-16
-2.44791e-16
4.15698e-16
9.86348e-17
8.23107e-17
2.57393e-16
0
2.1562e-16
9.90836e-17
0
3.29622e-17
9.46336e-19
0
3.03189e-16
2.43026e-16
-5.02766e-16
6.01325e-16
-9.10114e-16
6.50392e-16
2.5169e-16
-3.3936e-17
-4.11035e-16
7.72447e-17
-7.68636e-17
-2.37216e-16
9.55356e-17
-4.71038e-17
-1.00032e-16
4.37901e-17
-2.70992e-17
1.03697e-17
-3.24257e-16
1.11408e-15
-8.28745e-16
4.58571e-16
0
0
-1.30596e-16
2.76499e-16
-2.0278e-16
3.82958e-16
0
0
1.61121e-16
-1.41607e-16
-1.0206e-16
3.211e-17
-3.40402e-17
1.78135e-17
0
2.43389e-17
3.03215e-16
-2.48751e-16
-2.19885e-16
-3.61619e-16
-1.22496e-16
1.63944e-16
0
-1.91257e-16
-1.5844e-16
1.43427e-16
-1.18808e-16
9.76402e-17
0
3.87787e-17
7.74794e-17
0
0
0
-2.32508e-17
4.93355e-16
1.92923e-16
-6.62178e-16
1.85768e-16
1.61133e-16
0
0
1.81235e-16
-9.42211e-17
-1.38725e-16
1.14909e-16
-9.44255e-17
0
-2.59801e-17
2.26951e-17
0
-1.89508e-17
-6.5936e-18
-2.62198e-16
7.69438e-16
-9.39991e-16
-3.83009e-16
1.99833e-16
-1.53087e-16
1.30442e-16
0
-9.1931e-17
7.78093e-17
0
0
3.78416e-17
-3.78852e-17
1.16316e-17
-1.50205e-17
2.74085e-17
3.08798e-18
4.89052e-18
1.33832e-16
-1.21588e-16
6.30175e-16
-4.07456e-16
-1.68368e-16
2.01376e-17
2.67038e-16
1.03944e-16
8.79641e-17
0
5.33357e-17
-4.95447e-17
4.00545e-17
-3.43737e-17
4.547e-17
-7.87409e-17
-2.13345e-17
1.86606e-17
5.01885e-18
3.59885e-16
-3.63984e-16
0
3.45361e-16
-1.8116e-16
-1.38547e-16
9.91821e-17
-3.1501e-16
0
-5.41773e-18
-6.08314e-17
-4.4926e-17
6.68573e-17
-4.89963e-18
-4.39459e-17
3.28321e-17
0
1.21271e-17
-4.87326e-18
6.10568e-16
-1.08955e-16
4.69818e-16
-3.68413e-16
2.08529e-16
2.68429e-17
-2.42106e-16
-8.55072e-17
1.55267e-16
-6.13222e-18
-9.49543e-17
8.11115e-17
-3.58487e-17
-4.83838e-17
0
0
0
-1.2244e-17
4.57184e-19
-5.45791e-16
5.32289e-16
3.61131e-19
8.32536e-17
7.25819e-17
-1.78637e-16
2.12791e-16
-1.77859e-16
1.53736e-16
-5.27026e-17
1.0066e-16
3.66529e-17
-1.57376e-17
8.34271e-19
-5.95923e-18
-1.04828e-17
0
0
0
0
0
2.66055e-16
-1.2616e-16
-4.08616e-16
0
0
-5.15563e-17
-8.49432e-17
7.20949e-17
0
-4.6226e-17
3.65192e-17
-1.24016e-16
1.43208e-16
-4.76842e-17
5.08452e-17
5.61444e-18
0
-1.05776e-16
1.07078e-16
0
-8.81456e-17
8.95582e-17
1.50815e-16
0
5.20486e-17
7.12091e-17
-3.15764e-16
0
-5.07943e-17
4.02915e-17
2.95454e-17
-2.2277e-17
3.28801e-17
0
-1.23106e-17
0
-5.43859e-17
-5.4502e-17
3.22926e-18
9.05673e-17
-2.46092e-16
0
-6.50114e-17
0
1.9034e-16
7.83503e-17
0
2.01309e-16
-2.1377e-16
2.09754e-17
-4.96814e-17
1.30794e-17
6.2976e-17
2.42467e-17
-1.91999e-17
0
1.12779e-16
-1.00144e-16
1.24489e-16
1.51893e-16
0
1.32626e-16
-1.26031e-16
-1.01798e-16
1.56433e-16
-2.35198e-16
-1.17626e-16
0
0
2.71305e-17
0
0
7.94616e-18
0
-4.98475e-16
3.82336e-16
0
5.45286e-18
-8.89904e-17
-4.95727e-18
8.04863e-17
5.93056e-17
-7.28554e-17
-1.91906e-16
3.10544e-16
-8.37775e-17
0
-4.18262e-17
0
0
0
-3.06357e-17
2.44537e-17
-1.40583e-16
1.32586e-16
3.58151e-16
-3.51369e-16
1.08889e-16
5.75452e-18
-8.17952e-17
7.15504e-17
1.23511e-16
9.62279e-17
-1.90432e-16
0
1.02938e-16
1.6098e-17
-4.78718e-17
-1.07262e-16
8.87017e-17
-1.47886e-17
2.77625e-17
-4.74135e-16
6.91407e-16
-6.86802e-16
1.22242e-16
1.05248e-16
-1.00737e-16
8.53216e-17
-6.90002e-17
0
-6.00482e-17
9.8448e-17
4.27779e-17
6.98061e-17
9.06732e-17
-1.36361e-16
-1.82375e-18
0
-1.11397e-17
3.71356e-18
-5.12671e-16
-1.54194e-16
-2.73652e-16
1.44858e-16
-2.41185e-16
2.12303e-16
-1.27271e-16
1.09522e-16
-7.03972e-18
-7.05117e-18
-1.0253e-16
6.00096e-17
-3.52831e-17
1.06785e-16
-1.14634e-16
1.49971e-17
1.23422e-17
0
-6.39509e-18
5.5431e-16
-1.66174e-16
0
0
-2.48542e-16
4.85261e-16
-1.14327e-16
-2.24154e-17
1.86178e-16
-4.75374e-18
0
0
-4.48663e-17
0
-9.91592e-17
2.42327e-16
-1.68738e-16
0
2.51265e-18
1.90163e-16
3.5734e-16
0
-1.54285e-16
-1.27896e-16
-1.14851e-16
-1.18721e-16
4.99633e-17
-1.40443e-16
-7.79203e-17
0
0
5.84363e-17
0
0
-1.3318e-16
2.19216e-16
0
0
1.30489e-15
-1.51033e-16
-7.96782e-16
-4.40073e-16
5.96408e-16
1.92429e-16
1.15114e-16
0
-4.30625e-17
4.23e-17
1.04486e-16
-3.38562e-17
-5.12783e-17
7.97363e-17
-8.4815e-17
-2.6585e-17
0
0
0
1.04497e-16
-8.31e-16
8.15223e-16
-7.88059e-17
-6.15743e-16
9.67508e-16
-4.87754e-16
0
0
2.67592e-16
-2.20489e-16
0
-6.78176e-17
1.17817e-16
-1.34844e-17
3.46424e-17
1.06263e-17
1.10292e-19
2.33157e-18
0
0
0
6.93069e-16
-4.64486e-16
4.95122e-16
-7.73558e-16
2.21348e-16
0
-8.1052e-17
1.30731e-16
-1.33615e-16
-2.65395e-17
-6.46792e-19
-1.83675e-17
-2.76667e-18
-1.46285e-17
-4.08706e-18
-2.24082e-18
8.76467e-16
-1.56692e-15
7.44567e-16
0
2.04028e-16
-2.77815e-16
2.81807e-16
-2.23608e-16
0
-1.10762e-16
1.55309e-16
0
0
-4.87094e-19
0
-1.87607e-17
1.28536e-17
2.416e-18
3.56632e-18
8.47269e-16
0
-3.42031e-16
3.82116e-16
-2.42596e-16
5.31271e-16
-2.51895e-16
-1.99306e-16
2.01388e-16
-2.0607e-17
0
0
1.33628e-17
-2.27527e-17
-1.59461e-17
3.02767e-17
-6.5547e-18
3.37296e-18
0
4.81145e-16
3.7912e-16
-1.12937e-17
-3.6405e-16
-3.70718e-17
-2.69187e-16
2.79817e-17
2.27464e-16
-1.18355e-17
2.09939e-17
0
0
-1.36893e-17
0
1.61476e-17
-1.72741e-17
0
2.21431e-18
-6.14847e-19
-2.55402e-16
-1.90117e-16
1.77992e-16
-2.05465e-17
-9.25532e-18
2.51477e-17
0
-6.7025e-18
1.01111e-16
-8.51521e-17
0
2.91615e-17
-5.66598e-18
-2.58068e-17
-2.36519e-18
-1.84639e-18
0
-1.73006e-18
0
1.04673e-16
-1.99456e-16
-3.05553e-18
8.63071e-17
7.97526e-17
-7.9273e-17
-5.67372e-17
6.42441e-17
-2.22482e-17
1.73904e-17
-1.70443e-17
1.757e-17
0
4.51976e-20
-1.74101e-18
6.26545e-18
-2.14607e-20
0
0
1.04677e-16
-1.04285e-16
-8.58555e-17
7.60302e-17
1.40919e-16
-1.41751e-16
-2.83695e-17
2.84364e-17
-2.2436e-17
2.26716e-17
-1.70448e-17
3.22077e-17
-9.03297e-18
-6.53051e-18
-2.01066e-18
6.65295e-19
1.59171e-18
4.2123e-19
-3.15934e-19
0
-2.48948e-17
1.49631e-16
-1.62122e-16
1.40741e-16
-1.24707e-16
0
1.00806e-16
-9.01321e-17
0
3.39761e-17
-4.30438e-17
-2.46258e-17
2.58095e-17
4.76999e-18
0
0
-1.73028e-18
6.28986e-19
4.16705e-16
-7.69093e-16
7.88481e-16
-6.95858e-16
2.74212e-16
-2.3574e-16
2.23586e-16
2.68487e-17
-1.00523e-16
8.98493e-17
0
-6.59999e-17
6.00741e-17
-1.14926e-17
-4.67221e-18
7.39505e-18
5.44297e-18
1.67977e-18
-6.07743e-19
9.55592e-16
0
-3.86795e-16
3.00522e-16
3.66452e-17
-2.84287e-16
5.05847e-16
-4.51599e-16
1.7772e-16
-7.68457e-17
7.86583e-17
1.56484e-17
2.71278e-17
1.11939e-17
-9.36651e-18
-1.20354e-18
-1.1806e-17
0
1.2177e-18
7.69589e-16
-8.66267e-16
0
8.05373e-17
3.50911e-16
-3.44124e-16
5.93561e-17
5.29688e-17
2.31873e-17
4.13069e-17
0
0
-4.72206e-17
8.89635e-17
-3.25918e-17
-1.17426e-17
1.28562e-17
1.03333e-18
-2.32014e-18
6.58891e-17
7.60923e-16
-8.87938e-17
-6.12543e-16
5.37591e-16
6.49545e-17
-5.80907e-17
-5.17348e-17
1.72586e-16
-2.14118e-16
1.30766e-16
-1.33649e-16
2.12797e-17
-2.66702e-17
4.94536e-17
-3.2911e-17
0
0
2.41658e-18
0
1.91407e-16
-5.81141e-16
6.63732e-16
-5.44899e-16
5.43602e-16
0
1.93198e-16
-1.94083e-16
-1.48405e-16
2.20643e-16
0
9.33221e-17
-1.17896e-16
-1.74988e-17
0
-2.0021e-18
-4.07661e-18
-2.24496e-20
-1.80802e-15
8.65484e-16
0
-5.96293e-16
5.96233e-16
3.71985e-16
-2.44672e-16
1.02645e-16
0
-4.71041e-18
3.60809e-17
-3.38082e-17
-5.12076e-17
7.96135e-17
-8.46556e-17
0
1.89169e-17
-4.35972e-18
-2.52152e-18
1.11525e-15
-1.09971e-15
0
1.54347e-16
1.41787e-16
-1.30436e-16
0
-1.07573e-16
-9.43842e-17
0
-3.4976e-18
0
5.84584e-17
0
0
2.74329e-17
1.03687e-16
-1.33809e-16
0
1.67522e-19
1.66254e-16
-1.54893e-16
1.29202e-16
-6.55414e-16
2.524e-16
0
2.24307e-17
6.37478e-17
0
-6.69636e-17
1.99565e-16
-2.09655e-16
3.62573e-17
0
-3.61302e-18
0
0
0
1.58074e-19
0
1.4316e-16
0
-2.28118e-16
2.31744e-16
0
8.62465e-17
-7.04341e-17
2.58266e-16
-1.25177e-16
4.65829e-17
-7.62091e-17
7.40341e-17
-1.14764e-16
-1.84952e-17
0
-1.29756e-17
0
4.35205e-16
-7.35546e-16
0
-1.22404e-16
1.11322e-16
0
0
-1.58117e-16
0
-6.00893e-17
-9.85191e-17
-4.2814e-17
6.98715e-17
0
3.95101e-17
0
0
2.85956e-17
-3.19246e-17
0
6.41399e-16
-5.14018e-16
1.13318e-16
-1.03085e-16
-4.33731e-17
1.25905e-16
1.4423e-16
-1.80693e-16
5.84773e-17
3.17317e-18
-5.79235e-17
2.38701e-16
-7.44541e-17
-1.78991e-16
6.25905e-17
-1.68501e-17
1.00348e-17
-3.17963e-18
-1.02898e-15
3.82296e-16
0
0
4.45232e-17
-4.52751e-17
3.40447e-17
2.37938e-17
1.64204e-16
8.63905e-17
-8.65308e-17
-2.60488e-18
-5.13218e-17
4.18604e-17
0
2.19809e-17
1.54444e-17
8.60987e-18
2.87393e-18
0
3.3394e-16
-3.14815e-16
1.01652e-16
1.07922e-16
-2.09569e-17
-6.96024e-17
-6.06981e-17
-2.06204e-16
8.55271e-17
-5.52683e-17
7.34451e-17
4.79922e-17
-6.24444e-17
6.62808e-17
4.41647e-17
-5.67339e-17
-7.95249e-18
0
-5.81259e-17
-2.64546e-16
9.58779e-17
9.05904e-17
-3.18673e-16
2.30098e-16
1.19111e-16
-1.21749e-16
9.66068e-17
-8.11694e-17
0
0
-7.40302e-17
1.34156e-16
-5.99774e-17
5.8385e-17
-6.36751e-17
1.08065e-17
-1.92161e-17
1.09599e-16
1.03445e-16
-9.54896e-17
7.74712e-17
-8.8664e-17
-1.40449e-16
0
0
0
0
0
0
3.82427e-17
-1.03862e-16
1.09845e-16
-3.70802e-17
4.56435e-17
2.19185e-17
-1.86307e-17
2.26143e-16
-3.94161e-16
4.937e-16
-2.39652e-16
3.30385e-16
-2.52287e-16
4.75626e-16
-2.72711e-16
-1.54108e-16
1.57645e-16
0
4.61968e-17
-3.73611e-17
9.51787e-17
-3.05308e-17
-4.11922e-17
-9.00483e-17
6.65436e-18
1.59203e-17
3.51429e-16
1.03067e-16
0
-1.65991e-16
-1.35324e-16
3.1333e-16
3.53737e-17
-1.33075e-16
8.03864e-17
-5.94924e-17
0
-3.657e-17
0
-3.14332e-17
2.58864e-17
-2.37839e-17
-7.93069e-18
5.70091e-18
0
4.91562e-16
-1.08953e-16
4.69616e-16
-3.68285e-16
-7.61767e-17
3.09795e-16
-1.85743e-16
8.54166e-18
7.17617e-18
-5.83857e-17
5.66885e-17
0
0
3.78224e-17
-1.43636e-17
9.57314e-18
2.86686e-17
-9.96912e-18
0
9.65684e-20
0
-1.0337e-16
6.20261e-16
-4.21492e-16
-4.64753e-16
2.554e-16
-2.79679e-16
2.61556e-16
1.34388e-16
-1.04853e-16
4.35344e-17
-3.93385e-17
6.46739e-18
6.81684e-17
3.01488e-18
-2.69527e-17
2.6675e-17
-5.43012e-18
1.20179e-15
-3.84603e-16
1.95531e-16
-6.00355e-16
1.68367e-16
-2.71353e-16
1.44233e-16
0
0
-5.53946e-18
-7.36137e-18
-2.16538e-18
0
-5.86504e-17
-4.54705e-17
3.39257e-17
-2.5035e-18
4.22466e-18
1.06218e-17
0
-3.85185e-16
6.65033e-16
1.56948e-16
-5.54291e-16
1.53086e-16
-2.427e-16
3.58138e-17
2.02279e-16
0
0
3.82629e-18
4.69384e-17
0
-4.34863e-17
-2.02384e-17
2.9656e-18
-1.08516e-17
-1.21551e-17
0
-2.45754e-16
4.79998e-17
4.49223e-16
3.48753e-16
-6.44655e-16
2.96145e-16
-2.16169e-16
1.14652e-16
-1.66048e-16
0
0
0
-7.66308e-17
2.19498e-17
-2.61075e-17
0
-1.64286e-18
8.26524e-18
-9.06502e-16
8.62435e-16
9.45637e-16
-1.14982e-15
5.53943e-16
-5.2393e-16
0
2.26714e-16
-3.12932e-16
1.84889e-16
-1.48087e-16
1.23695e-16
1.02534e-16
7.92532e-17
6.33294e-17
0
0
0
0
9.96407e-16
-5.83069e-16
0
0
-2.00466e-16
5.00723e-16
-3.21602e-16
-2.38988e-16
2.36294e-16
1.82573e-16
3.12324e-16
-1.28346e-16
5.47509e-17
4.2489e-17
3.19448e-17
2.58605e-17
4.21438e-17
-2.08182e-18
2.12053e-18
-1.01269e-15
9.37065e-16
5.12197e-16
-2.64746e-16
6.01353e-16
-3.8708e-16
-3.1476e-16
-2.71347e-16
0
-3.80893e-16
1.65791e-17
1.44153e-16
-1.15801e-16
-9.55357e-17
-3.53917e-17
-3.79332e-17
-3.02536e-17
0
0
-3.48365e-16
0
2.76735e-16
-5.10463e-19
0
0
3.24685e-16
2.79992e-16
0
2.05285e-16
0
-2.19136e-16
-6.1779e-17
1.10471e-16
0
7.16016e-17
-1.01607e-17
1.03653e-17
0
7.3809e-16
0
5.36249e-16
-1.00235e-15
9.04997e-16
7.49695e-16
-2.05732e-17
0
1.87803e-17
2.34892e-16
0
-2.42245e-16
2.75415e-16
-2.45831e-16
-5.38113e-17
-5.76822e-17
-1.68079e-17
-2.96915e-18
-1.0313e-17
-6.9313e-16
1.00031e-15
-2.87876e-16
-7.64455e-16
-4.49407e-16
-3.95291e-16
-6.93949e-16
-2.85828e-16
2.01618e-17
1.08352e-16
-1.08148e-16
3.51233e-16
-1.55359e-16
3.15723e-16
-5.91846e-17
0
6.62871e-17
-3.87034e-17
1.04723e-17
1.51792e-15
-2.99087e-17
-1.18693e-15
1.00491e-15
-9.13127e-16
8.09159e-16
-2.27633e-17
-3.17463e-16
2.81175e-16
1.14586e-16
-1.37663e-17
-2.84806e-16
8.36836e-17
8.54673e-17
-2.64987e-17
2.68009e-17
-6.86573e-17
-6.03614e-18
-1.55631e-17
7.45163e-16
3.20534e-16
5.71355e-16
-5.09956e-16
-4.30935e-16
1.98567e-17
-3.41763e-16
8.30338e-16
2.49885e-17
3.94585e-16
2.32931e-16
-2.07312e-16
0
-1.48182e-16
0
0
9.2458e-17
4.10931e-17
1.82022e-17
7.02873e-16
0
5.64825e-16
5.06664e-16
-4.56837e-16
4.06417e-16
0
-3.26111e-16
-4.55379e-16
-4.02601e-16
-2.34993e-16
2.09656e-16
0
0
0
0
-8.66421e-17
-6.27995e-17
0
-1.37732e-15
0
-2.46333e-17
-2.17516e-17
6.93646e-16
-3.99429e-16
-1.85003e-16
-1.85609e-16
4.60053e-16
0
1.22003e-16
-1.30355e-17
1.07758e-16
0
0
1.41112e-16
-1.0475e-17
7.53848e-17
-2.8043e-17
9.70872e-16
2.84659e-16
-2.81721e-16
-2.52864e-16
-8.93605e-16
6.20991e-16
7.58184e-16
-1.77418e-17
-3.12341e-16
3.06485e-16
6.48601e-17
-3.27235e-16
-2.70343e-16
-1.60802e-16
-1.69768e-16
-1.6262e-16
1.32568e-16
-6.27859e-18
2.87219e-17
-2.99638e-16
1.3772e-16
-6.6613e-16
1.16339e-16
-1.15916e-16
0
-3.75689e-16
-2.27884e-17
-3.4807e-16
2.58578e-17
3.40088e-16
2.53901e-16
-6.17737e-17
2.88977e-17
1.61606e-16
0
-2.74292e-16
-9.97196e-17
-2.07751e-18
6.05853e-16
-1.67618e-17
1.04693e-15
-5.02696e-16
9.11933e-19
1.35607e-17
4.09177e-16
-2.83024e-17
3.37571e-16
-3.16245e-16
-2.9712e-16
0
2.91494e-16
2.34795e-16
3.22387e-18
-4.67997e-18
1.47625e-16
1.01365e-16
0
-4.31361e-16
0
-1.07983e-16
4.78218e-16
6.16892e-18
1.10759e-16
-3.95668e-16
3.75121e-16
3.92485e-16
3.75684e-16
3.60488e-16
0
-2.83181e-16
0
1.48139e-17
-1.53855e-17
0
-1.45593e-18
7.13825e-17
2.9665e-16
1.3898e-17
-2.41356e-16
7.41369e-16
-2.38972e-16
0
0
-4.36079e-16
-3.80278e-16
-3.63954e-16
-6.56061e-16
-9.15964e-17
0
0
0
-3.00222e-17
3.1771e-17
2.02367e-16
-7.24668e-17
1.43359e-17
0
-5.13835e-16
-4.74514e-16
4.94342e-16
-4.90333e-16
-7.04207e-16
8.69074e-16
2.38836e-16
0
3.84791e-16
4.32017e-16
-9.32838e-17
5.05289e-16
-8.26528e-17
8.60214e-17
3.33254e-16
-1.923e-16
0
-5.67442e-16
0
-5.45229e-16
5.3508e-16
0
9.73874e-16
4.58944e-16
-9.59295e-16
7.62688e-16
-5.21804e-18
-2.3154e-16
-4.18281e-16
0
5.71646e-16
-9.59883e-16
1.02959e-15
-1.31195e-15
0
0
5.64645e-16
-3.30647e-18
-8.14955e-18
-1.07577e-15
1.08404e-15
-5.2517e-16
5.23029e-16
5.15417e-16
-4.59122e-16
0
0
8.56213e-16
-8.70963e-16
-9.33017e-16
9.24345e-16
-9.00048e-16
9.73136e-16
-1.52402e-15
0
)
;

boundaryField
{
    up
    {
        type            calculated;
        value           nonuniform List<scalar> 
84
(
0
0
0
0
-5.21343e-17
9.41643e-17
-3.93672e-17
2.87219e-17
-2.5056e-17
0
-2.04384e-17
1.94765e-17
-1.39125e-17
1.11182e-18
9.46336e-19
1.03697e-17
0
0
-6.5936e-18
4.89052e-18
5.01885e-18
-4.87326e-18
4.57184e-19
0
2.01123e-18
8.94059e-19
-1.8355e-17
0
2.44537e-17
2.88797e-17
3.71356e-18
-6.39509e-18
2.51265e-18
0
-1.23635e-18
2.41949e-18
-2.24104e-18
3.56302e-18
0
-6.14288e-19
0
0
-3.16159e-19
6.28986e-19
-6.07743e-19
1.2177e-18
-2.32014e-18
2.41658e-18
-2.24496e-20
-2.52152e-18
0
0
0
-3.19246e-17
-4.29753e-18
2.87393e-18
0
-1.92161e-17
-1.86307e-17
1.3916e-17
0
0
-5.43012e-18
1.06218e-17
-1.21551e-17
8.26524e-18
0
2.12053e-18
0
0
-1.0313e-17
1.04723e-17
-1.55631e-17
1.82022e-17
0
-2.8043e-17
2.87219e-17
-2.07751e-18
0
7.13825e-17
-7.24668e-17
0
0
0
)
;
    }
    low
    {
        type            calculated;
        value           nonuniform List<scalar> 
84
(
-1.13031e-15
1.12986e-15
-5.54313e-16
8.71859e-16
1.52615e-16
-3.96577e-17
3.31439e-16
3.16583e-17
0
1.40974e-15
-3.5731e-16
3.01423e-16
-3.31322e-16
-2.12951e-15
3.48061e-16
0
-3.24257e-16
2.43389e-17
-2.32508e-17
-2.62198e-16
1.33832e-16
3.59885e-16
6.08525e-16
-5.45791e-16
0
-1.05776e-16
-5.43859e-17
0
-4.98475e-16
-1.40583e-16
-4.72762e-16
-5.11554e-16
5.53519e-16
1.90163e-16
1.30485e-15
1.04497e-16
0
8.76467e-16
8.48903e-16
4.82054e-16
-2.55894e-16
1.04673e-16
1.04677e-16
0
4.16705e-16
9.57225e-16
7.69589e-16
6.69282e-17
0
-1.80798e-15
1.11525e-15
1.67522e-19
1.58074e-19
4.35205e-16
0
-1.02688e-15
0
-5.81259e-17
1.09599e-16
2.2491e-16
3.49251e-16
4.89518e-16
9.65684e-20
1.20006e-15
0
0
-9.06502e-16
9.95481e-16
-1.01204e-15
-3.48365e-16
7.38017e-16
-6.9313e-16
1.51999e-15
7.46671e-16
7.02873e-16
-1.37732e-15
9.69165e-16
-2.97855e-16
6.05853e-16
-4.30646e-16
2.9665e-16
1.56297e-17
-5.67442e-16
5.65e-16
)
;
    }
    left
    {
        type            calculated;
        value           nonuniform List<scalar> 
19
(
-1.1296e-15
-5.5064e-16
5.57881e-16
1.1013e-17
-1.06617e-15
0
-4.9961e-16
-4.92618e-16
-3.26581e-17
-2.58644e-16
-2.4758e-18
-2.57029e-16
1.14071e-15
-2.53915e-16
1.18707e-15
1.02388e-15
6.08877e-16
8.92738e-16
0
)
;
    }
    right
    {
        type            calculated;
        value           nonuniform List<scalar> 
19
(
5.64645e-16
-2.91576e-18
-8.14955e-18
-1.07576e-15
1.0843e-15
-5.2517e-16
5.23029e-16
5.15417e-16
-4.57544e-16
0
0
8.6436e-16
-8.82444e-16
-9.33017e-16
9.24345e-16
-9.00048e-16
9.73136e-16
-1.64815e-15
0
)
;
    }
    frontAndBackPlanes
    {
        type            empty;
    }
}


// ************************************************************************* //
