/*--------------------------------*- C++ -*----------------------------------*\
  =========                 |
  \\      /  F ield         | OpenFOAM: The Open Source CFD Toolbox
   \\    /   O peration     | Website:  https://openfoam.org
    \\  /    A nd           | Version:  7
     \\/     M anipulation  |
\*---------------------------------------------------------------------------*/
FoamFile
{
    version     2.0;
    format      ascii;
    class       volScalarField;
    location    "0.15";
    object      gradTy;
}
// * * * * * * * * * * * * * * * * * * * * * * * * * * * * * * * * * * * * * //

dimensions      [0 -1 0 1 0 0 0];

internalField   nonuniform List<scalar> 
1596
(
-0.864183
-1.59652
-2.17947
-2.71571
-3.19992
-3.69769
-4.17389
-4.70121
-5.30235
-5.99258
-6.95638
-8.18487
-9.92224
-12.4468
-16.4455
-22.7506
-34.0961
-55.0827
-130.114
-2.62123
-3.20609
-3.56693
-3.86355
-4.11453
-4.39833
-4.6899
-5.05959
-5.53257
-6.11127
-6.95404
-8.03718
-9.52638
-11.5475
-14.4556
-18.4207
-24.3584
-33.1083
-57.9439
-4.66057
-4.81947
-4.85696
-4.87981
-4.88935
-4.95625
-5.05584
-5.25206
-5.56557
-5.99021
-6.65901
-7.53373
-8.73101
-10.3079
-12.4821
-15.2705
-19.1731
-24.5342
-36.0076
-6.7575
-6.36076
-6.02966
-5.76648
-5.53646
-5.38971
-5.2982
-5.31573
-5.45737
-5.7114
-6.18827
-6.84249
-7.75807
-8.95721
-10.5805
-12.5855
-15.2692
-18.7637
-24.7193
-8.64031
-7.74099
-7.06595
-6.53387
-6.08012
-5.7318
-5.45827
-5.30175
-5.27271
-5.35667
-5.6443
-6.08965
-6.75448
-7.64413
-8.85458
-10.3249
-12.245
-14.6525
-18.1475
-10.0807
-8.87959
-7.9488
-7.19432
-6.54727
-6.01856
-5.5792
-5.26079
-5.07102
-4.99506
-5.10634
-5.3629
-5.81059
-6.4471
-7.34102
-8.43029
-9.84387
-11.5777
-13.8568
-10.974
-9.7193
-8.65949
-7.75275
-6.95587
-6.27637
-5.69317
-5.23037
-4.89507
-4.67426
-4.62645
-4.71611
-4.97712
-5.40405
-6.04733
-6.85087
-7.90587
-9.19185
-10.7943
-11.3466
-10.232
-9.17294
-8.19669
-7.30361
-6.51057
-5.81089
-5.22565
-4.76387
-4.41617
-4.22867
-4.17323
-4.27449
-4.52608
-4.96541
-5.54472
-6.33004
-7.29654
-8.47528
-11.3178
-10.4761
-9.52167
-8.55092
-7.61262
-6.74215
-5.95174
-5.26455
-4.69396
-4.23571
-3.92643
-3.74535
-3.70996
-3.81382
-4.08437
-4.48211
-5.0549
-5.77871
-6.66222
-10.9826
-10.42
-9.63309
-8.73604
-7.80902
-6.90689
-6.06125
-5.30156
-4.64737
-4.10076
-3.69194
-3.40699
-3.25821
-3.23959
-3.37083
-3.62005
-4.02181
-4.55525
-5.22005
-10.6041
-10.2282
-9.60039
-8.80314
-7.92095
-7.01966
-6.14628
-5.33805
-4.6216
-4.00587
-3.5174
-3.14838
-2.90754
-2.78939
-2.80747
-2.93603
-3.19934
-3.57989
-4.07378
-10.1676
-9.97737
-9.49596
-8.80253
-7.97993
-7.09854
-6.21581
-5.37639
-4.61388
-3.94407
-3.39204
-2.95528
-2.64024
-2.44195
-2.36902
-2.40042
-2.55228
-2.80999
-3.16827
-9.6492
-9.62069
-9.27691
-8.69018
-7.93924
-7.09624
-6.22426
-5.37415
-4.58541
-3.87997
-3.28317
-2.79683
-2.4263
-2.16716
-2.02428
-1.98022
-2.04491
-2.20617
-2.45837
-9.20771
-9.26281
-9.02037
-8.52416
-7.84066
-7.04017
-6.18763
-5.3384
-4.53655
-3.80896
-3.18213
-2.6612
-2.25113
-1.9479
-1.75352
-1.65302
-1.65159
-1.73874
-1.90882
-8.81355
-8.93296
-8.76242
-8.3357
-7.70821
-6.9465
-6.11518
-5.27254
-4.46589
-3.72595
-3.08055
-2.53729
-2.10096
-1.76778
-1.53752
-1.39677
-1.34713
-1.37918
-1.48739
-8.43497
-8.61971
-8.50731
-8.13388
-7.55019
-6.82056
-6.00878
-5.17515
-4.36926
-3.62455
-2.97005
-2.41488
-1.96372
-1.61273
-1.35985
-1.19258
-1.10974
-1.1026
-1.16573
-8.1004
-8.3305
-8.26324
-7.92944
-7.37728
-6.67087
-5.87397
-5.04871
-4.24635
-3.50216
-2.84594
-2.28749
-1.83111
-1.47255
-1.20816
-1.02573
-0.921985
-0.888523
-0.920018
-7.81471
-8.07832
-8.04508
-7.73909
-7.20683
-6.51345
-5.72428
-4.9036
-4.10434
-3.36306
-2.70973
-2.15417
-1.69985
-1.3417
-1.07444
-0.885782
-0.770691
-0.720876
-0.731041
-7.5231
-7.85755
-7.86483
-7.58256
-7.06199
-6.372
-5.58183
-4.759
-3.9588
-3.21908
-2.56963
-2.01979
-1.5717
-1.21906
-0.954823
-0.766182
-0.646576
-0.587605
-0.58393
-7.21263
-7.63499
-7.69517
-7.44003
-6.92886
-6.23725
-5.44058
-4.61112
-3.80728
-3.06847
-2.42409
-1.8826
-1.4444
-1.10153
-0.84501
-0.661213
-0.542183
-0.479326
-0.467251
-6.94647
-7.43554
-7.5486
-7.32158
-6.81763
-6.11962
-5.31075
-4.46943
-3.65815
-2.91823
-2.27861
-1.74653
-1.32029
-0.98988
-0.744174
-0.568399
-0.453225
-0.389834
-0.372927
-6.70576
-7.26172
-7.42726
-7.2292
-6.7319
-6.02471
-5.19953
-4.34194
-3.51945
-2.77584
-2.13958
-1.61666
-1.20297
-0.886234
-0.652964
-0.486923
-0.377233
-0.314743
-0.294715
-6.47476
-7.10643
-7.32784
-7.16085
-6.67112
-5.95406
-5.11051
-4.23384
-3.39729
-2.64757
-2.01285
-1.49794
-1.09623
-0.793157
-0.572814
-0.417209
-0.313418
-0.251126
-0.22671
-6.25987
-6.96743
-7.24336
-7.10445
-6.61904
-5.88808
-5.02271
-4.12377
-3.27082
-2.51405
-1.88017
-1.37375
-0.985123
-0.697373
-0.491977
-0.349409
-0.253665
-0.19114
-0.151988
-6.07854
-6.85801
-7.2041
-7.12363
-6.68264
-5.97927
-5.1277
-4.23045
-3.37111
-2.60429
-1.95721
-1.4381
-1.0372
-0.739002
-0.524894
-0.376129
-0.274831
-0.205756
-0.15389
-5.94566
-6.77229
-7.1696
-7.14356
-6.75425
-6.09298
-5.27044
-4.38735
-3.52865
-2.75258
-2.08848
-1.54905
-1.12679
-0.808352
-0.576436
-0.414009
-0.303226
-0.229802
-0.180202
-5.93275
-6.76759
-7.18707
-7.19573
-6.84713
-6.22581
-5.43545
-4.57301
-3.72192
-2.94171
-2.26407
-1.70465
-1.25868
-0.915489
-0.660188
-0.477999
-0.352152
-0.268723
-0.21379
-6.05478
-6.85741
-7.26321
-7.27807
-6.95095
-6.35964
-5.59958
-4.76146
-3.92476
-3.14803
-2.46354
-1.88894
-1.42139
-1.05264
-0.770517
-0.563621
-0.41743
-0.31924
-0.254566
-6.29395
-7.04017
-7.40361
-7.40037
-7.07751
-6.50636
-5.77359
-4.96201
-4.14519
-3.37898
-2.69458
-2.11071
-1.62531
-1.23158
-0.919513
-0.681879
-0.507986
-0.388285
-0.30834
-6.63928
-7.29632
-7.59374
-7.55474
-7.22387
-6.66585
-5.95852
-5.17584
-4.38439
-3.63606
-2.95983
-2.37478
-1.87855
-1.46424
-1.12206
-0.848369
-0.63754
-0.486573
-0.383377
-7.08103
-7.6219
-7.84072
-7.75585
-7.40889
-6.85831
-6.17373
-5.42012
-4.65674
-3.93107
-3.26935
-2.69104
-2.19302
-1.76697
-1.39997
-1.08861
-0.830595
-0.633461
-0.493441
-7.54204
-7.985
-8.12725
-7.99412
-7.62804
-7.08253
-6.41976
-5.69598
-4.96316
-4.26438
-3.62309
-3.05986
-2.57179
-2.14954
-1.77424
-1.43683
-1.12915
-0.86654
-0.664225
-8.05657
-8.39656
-8.45737
-8.2717
-7.88291
-7.33983
-6.69742
-6.00342
-5.30259
-4.6335
-4.01671
-3.47474
-3.00712
-2.60708
-2.25189
-1.92499
-1.59778
-1.27165
-0.94998
-8.65016
-8.87508
-8.84978
-8.61024
-8.19926
-7.66067
-7.04159
-6.38159
-5.7181
-5.08468
-4.4996
-3.98632
-3.54908
-3.1892
-2.89044
-2.64049
-2.39881
-2.14547
-1.85474
-9.29621
-9.3955
-9.26457
-8.94993
-8.4946
-7.93857
-7.32107
-6.67514
-6.03143
-5.41704
-4.84861
-4.34598
-3.916
-3.56515
-3.29004
-3.09305
-2.9544
-2.85961
-2.78117
-10.0171
-9.95131
-9.69025
-9.28209
-8.7654
-8.17529
-7.54361
-6.89847
-6.26539
-5.6658
-5.11587
-4.63042
-4.21601
-3.87712
-3.61356
-3.42606
-3.30903
-3.26103
-3.27793
-10.8075
-10.5471
-10.1506
-9.64938
-9.07166
-8.44533
-7.79603
-7.14748
-6.52136
-5.93551
-5.40474
-4.94073
-4.54854
-4.23016
-3.98334
-3.80239
-3.67724
-3.59718
-3.54941
-11.5121
-11.0777
-10.5602
-9.97491
-9.341
-8.67977
-8.01206
-7.35743
-6.73427
-6.15752
-5.63973
-5.19055
-4.81334
-4.50863
-4.27325
-4.10085
-3.98153
-3.90537
-3.86064
-12.0639
-11.5129
-10.9066
-10.2569
-9.57909
-8.89043
-8.2083
-7.54911
-6.92867
-6.35959
-5.85277
-5.41628
-5.05238
-4.76073
-4.53778
-4.37678
-4.268
-4.20152
-4.16576
-12.4963
-11.8572
-11.1834
-10.4845
-9.77304
-9.06338
-8.37022
-7.70756
-7.08928
-6.52622
-6.02809
-5.60177
-5.24875
-4.96805
-4.75589
-4.60511
-4.50609
-4.44883
-4.42185
-12.8091
-12.1047
-11.3804
-10.6455
-9.90999
-9.18564
-8.48495
-7.82009
-7.20355
-6.64492
-6.15313
-5.73425
-5.38926
-5.11674
-4.9127
-4.76961
-4.67781
-4.62708
-4.60587
-13.0189
-12.2475
-11.4854
-10.7279
-9.97883
-9.24674
-8.54239
-7.87677
-7.26152
-6.70559
-6.21748
-5.80286
-5.46246
-5.19469
-4.99551
-4.85734
-4.77059
-4.72501
-4.70908
-13.019
-12.2476
-11.4856
-10.7281
-9.979
-9.24692
-8.54258
-7.87696
-7.26172
-6.7058
-6.2177
-5.80308
-5.46269
-5.19493
-4.99577
-4.85761
-4.77087
-4.72531
-4.70939
-12.8091
-12.1049
-11.3807
-10.6458
-9.91042
-9.18612
-8.48546
-7.82064
-7.20412
-6.64551
-6.15374
-5.73489
-5.38993
-5.11744
-4.91344
-4.7704
-4.67867
-4.628
-4.60688
-12.4964
-11.8575
-11.1839
-10.4851
-9.77373
-9.06414
-8.37104
-7.70843
-7.0902
-6.52717
-6.02908
-5.6028
-5.24983
-4.96918
-4.75708
-4.60637
-4.50744
-4.45027
-4.42341
-12.0641
-11.5133
-10.9073
-10.2577
-9.57998
-8.89141
-8.20937
-7.55024
-6.92986
-6.36083
-5.85406
-5.41761
-5.05376
-4.76216
-4.53928
-4.37836
-4.26967
-4.20329
-4.16764
-11.5122
-11.0782
-10.561
-9.97581
-9.34204
-8.68093
-8.01333
-7.35878
-6.7357
-6.15901
-5.64128
-5.19215
-4.81499
-4.51034
-4.27502
-4.10269
-3.98345
-3.90739
-3.86279
-10.8077
-10.5476
-10.1514
-9.65037
-9.07282
-8.44663
-7.79746
-7.14901
-6.52297
-5.93719
-5.40648
-4.94251
-4.55037
-4.23203
-3.98524
-3.80433
-3.67921
-3.5992
-3.55147
-10.0174
-9.95196
-9.69125
-9.2834
-8.76699
-8.17714
-7.54567
-6.90073
-6.26781
-5.66836
-5.11856
-4.63322
-4.21893
-3.88016
-3.61673
-3.42927
-3.31218
-3.26386
-3.28007
-9.29637
-9.39562
-9.26479
-8.95032
-8.49518
-7.93936
-7.32205
-6.67627
-6.03268
-5.41831
-4.84986
-4.34711
-3.91695
-3.56584
-3.29047
-3.09331
-2.95489
-2.86105
-2.78471
-8.65023
-8.87552
-8.85063
-8.61158
-8.20113
-7.66307
-7.04449
-6.38491
-5.72176
-5.08857
-4.50364
-3.99045
-3.55327
-3.19351
-2.89506
-2.64572
-2.40507
-2.15314
-1.86408
-8.05658
-8.39666
-8.45773
-8.27243
-7.88405
-7.3414
-6.69938
-6.00571
-5.30512
-4.63618
-4.01946
-3.4775
-3.00988
-2.60991
-2.25487
-1.9282
-1.60114
-1.27485
-0.952406
-7.54201
-7.98502
-8.12751
-7.99475
-7.6291
-7.08404
-6.42167
-5.69821
-4.96561
-4.26695
-3.6257
-3.06245
-2.57435
-2.15209
-1.77678
-1.43932
-1.13145
-0.868447
-0.665655
-7.08098
-7.62187
-7.84088
-7.75637
-7.40983
-6.85968
-6.1755
-5.4222
-4.65901
-3.93343
-3.27171
-2.69333
-2.19523
-1.76909
-1.40196
-1.09041
-0.832134
-0.634687
-0.494362
-6.63922
-7.29624
-7.59384
-7.55516
-7.2247
-6.6671
-5.96015
-5.17775
-4.38647
-3.63819
-2.96192
-2.37677
-1.88041
-1.46595
-1.12359
-0.849674
-0.638606
-0.487409
-0.384016
-6.29386
-7.04004
-7.40363
-7.40069
-7.07823
-6.50749
-5.77507
-4.96373
-4.14706
-3.38087
-2.6964
-2.11241
-1.62685
-1.23293
-0.920676
-0.68284
-0.508752
-0.388885
-0.30881
-6.05471
-6.85726
-7.2632
-7.27833
-6.95158
-6.36064
-5.60089
-4.763
-3.9264
-3.14967
-2.46509
-1.89035
-1.42265
-1.05371
-0.771409
-0.564341
-0.417999
-0.319691
-0.254933
-5.93267
-6.76744
-7.18703
-7.19594
-6.84767
-6.22668
-5.4366
-4.57434
-3.72332
-2.9431
-2.26537
-1.70582
-1.25969
-0.916339
-0.660882
-0.478553
-0.352592
-0.269081
-0.214101
-5.94557
-6.77214
-7.16952
-7.14367
-6.75462
-6.09361
-5.27128
-4.38833
-3.52968
-2.75359
-2.08942
-1.54988
-1.1275
-0.808943
-0.576909
-0.414382
-0.303522
-0.230055
-0.180463
-6.07864
-6.85806
-7.20418
-7.12379
-6.68291
-5.97963
-5.12815
-4.23096
-3.37166
-2.60484
-1.95774
-1.43859
-1.03765
-0.739402
-0.525241
-0.37643
-0.275089
-0.205969
-0.154037
-6.25997
-6.96752
-7.24338
-7.10439
-6.61887
-5.88782
-5.02237
-4.12339
-3.27044
-2.51368
-1.87984
-1.37347
-0.984895
-0.697193
-0.491837
-0.3493
-0.253577
-0.191058
-0.151881
-6.47482
-7.10648
-7.32788
-7.16087
-6.67112
-5.95405
-5.11049
-4.23383
-3.39728
-2.64757
-2.01286
-1.49796
-1.09625
-0.793183
-0.572838
-0.417231
-0.31344
-0.251146
-0.226721
-6.70581
-7.26176
-7.42727
-7.22919
-6.73187
-6.02467
-5.19949
-4.3419
-3.51942
-2.77583
-2.13957
-1.61667
-1.20298
-0.886246
-0.652977
-0.486937
-0.377247
-0.314757
-0.294725
-6.9465
-7.43557
-7.54861
-7.32157
-6.8176
-6.11959
-5.31072
-4.4694
-3.65813
-2.91823
-2.27861
-1.74654
-1.32029
-0.989887
-0.744183
-0.568409
-0.453237
-0.389848
-0.372938
-7.21265
-7.63501
-7.69517
-7.44002
-6.92884
-6.23722
-5.44055
-4.6111
-3.80727
-3.06846
-2.42409
-1.8826
-1.4444
-1.10153
-0.845016
-0.661222
-0.542195
-0.47934
-0.467265
-7.52312
-7.85756
-7.86483
-7.58255
-7.06197
-6.37199
-5.58181
-4.759
-3.9588
-3.21907
-2.56963
-2.01979
-1.5717
-1.21906
-0.954827
-0.76619
-0.646589
-0.587622
-0.583946
-7.81473
-8.07833
-8.04507
-7.73907
-7.20681
-6.51344
-5.72427
-4.90359
-4.10434
-3.36306
-2.70973
-2.15417
-1.69985
-1.3417
-1.07445
-0.885791
-0.770707
-0.720896
-0.731059
-8.1004
-8.3305
-8.26323
-7.92943
-7.37727
-6.67087
-5.87397
-5.0487
-4.24635
-3.50216
-2.84593
-2.28748
-1.8311
-1.47255
-1.20816
-1.02574
-0.922002
-0.888544
-0.920035
-8.43497
-8.6197
-8.50729
-8.13388
-7.55019
-6.82057
-6.00879
-5.17515
-4.36926
-3.62454
-2.97004
-2.41486
-1.96371
-1.61272
-1.35986
-1.19259
-1.10976
-1.10261
-1.16574
-8.81354
-8.93294
-8.76241
-8.3357
-7.70821
-6.94651
-6.11519
-5.27254
-4.46588
-3.72594
-3.08054
-2.53728
-2.10095
-1.76778
-1.53752
-1.39678
-1.34714
-1.37919
-1.4874
-9.20769
-9.26279
-9.02037
-8.52416
-7.84067
-7.04018
-6.18763
-5.3384
-4.53654
-3.80895
-3.18211
-2.66119
-2.25112
-1.9479
-1.75352
-1.65302
-1.6516
-1.73874
-1.90882
-9.64917
-9.62067
-9.27691
-8.69019
-7.93926
-7.09626
-6.22427
-5.37415
-4.5854
-3.87996
-3.28316
-2.79682
-2.4263
-2.16716
-2.02429
-1.98022
-2.04491
-2.20616
-2.45835
-10.1676
-9.97735
-9.49596
-8.80255
-7.97994
-7.09854
-6.21581
-5.37638
-4.61386
-3.94405
-3.39203
-2.95527
-2.64023
-2.44195
-2.36902
-2.40041
-2.55226
-2.80995
-3.16824
-10.604
-10.2282
-9.6004
-8.80316
-7.92097
-7.01967
-6.14628
-5.33805
-4.62159
-4.00586
-3.51739
-3.14838
-2.90754
-2.78939
-2.80746
-2.93601
-3.1993
-3.57984
-4.07374
-10.9826
-10.42
-9.63311
-8.73606
-7.80904
-6.9069
-6.06125
-5.30155
-4.64736
-4.10075
-3.69193
-3.40699
-3.25821
-3.23959
-3.37082
-3.62003
-4.02176
-4.55519
-5.22002
-11.3178
-10.4761
-9.5217
-8.55094
-7.61263
-6.74216
-5.95174
-5.26455
-4.69396
-4.23571
-3.92643
-3.74536
-3.70996
-3.81382
-4.08435
-4.48208
-5.05485
-5.77864
-6.6622
-11.3466
-10.2321
-9.17297
-8.19671
-7.30362
-6.51058
-5.81089
-5.22565
-4.76388
-4.41617
-4.22868
-4.17324
-4.2745
-4.52607
-4.96538
-5.54468
-6.32999
-7.29649
-8.47528
-10.974
-9.71934
-8.65952
-7.75277
-6.95588
-6.27637
-5.69318
-5.23038
-4.89508
-4.67427
-4.62647
-4.71612
-4.97712
-5.40403
-6.0473
-6.85083
-7.90583
-9.19182
-10.7944
-10.0807
-8.87963
-7.94882
-7.19433
-6.54728
-6.01858
-5.57922
-5.26081
-5.07104
-4.99508
-5.10635
-5.36291
-5.81059
-6.44708
-7.34099
-8.43025
-9.84384
-11.5777
-13.8568
-8.64035
-7.74101
-7.06597
-6.53388
-6.08014
-5.73182
-5.45829
-5.30177
-5.27274
-5.35669
-5.64431
-6.08965
-6.75447
-7.64411
-8.85454
-10.3248
-12.245
-14.6525
-18.1475
-6.75754
-6.36077
-6.02967
-5.7665
-5.53648
-5.38973
-5.29822
-5.31575
-5.4574
-5.71142
-6.18828
-6.84249
-7.75806
-8.95719
-10.5804
-12.5854
-15.2692
-18.7637
-24.7193
-4.6606
-4.81947
-4.85696
-4.87982
-4.88937
-4.95627
-5.05587
-5.25209
-5.5656
-5.99023
-6.65902
-7.53373
-8.731
-10.3079
-12.4821
-15.2705
-19.1731
-24.5342
-36.0076
-2.62124
-3.20608
-3.56692
-3.86354
-4.11453
-4.39834
-4.68991
-5.05961
-5.53259
-6.11128
-6.95405
-8.03718
-9.52637
-11.5474
-14.4556
-18.4206
-24.3584
-33.1083
-57.9438
-0.864189
-1.59652
-2.17946
-2.71571
-3.19992
-3.69769
-4.17389
-4.70122
-5.30236
-5.99258
-6.95638
-8.18486
-9.92222
-12.4468
-16.4454
-22.7506
-34.0961
-55.0827
-130.114
)
;

boundaryField
{
    up
    {
        type            calculated;
        value           nonuniform List<scalar> 
84
(
-117.914
-63.8625
-39.1488
-26.5847
-19.3745
-14.728
-11.4439
-8.97233
-7.04467
-5.5138
-4.29578
-3.33248
-2.57734
-1.99264
-1.5447
-1.20366
-0.94418
-0.745662
-0.592073
-0.471165
-0.374128
-0.293955
-0.22212
-0.134906
-0.129659
-0.166469
-0.198643
-0.236374
-0.285402
-0.353234
-0.451071
-0.594783
-0.836475
-1.80593
-2.83079
-3.31027
-3.53096
-3.84475
-4.15417
-4.41445
-4.60125
-4.70721
-4.70752
-4.6023
-4.41606
-4.1561
-3.84696
-3.53304
-3.31178
-2.83457
-1.81669
-0.83877
-0.596017
-0.45189
-0.353813
-0.285833
-0.236716
-0.19894
-0.166787
-0.129831
-0.13478
-0.222123
-0.293962
-0.374138
-0.471177
-0.592087
-0.745677
-0.944193
-1.20367
-1.5447
-1.99264
-2.57732
-3.33245
-4.29575
-5.51379
-7.04469
-8.97238
-11.4439
-14.728
-19.3746
-26.5847
-39.1488
-63.8625
-117.914
)
;
    }
    low
    {
        type            calculated;
        value           nonuniform List<scalar> 
84
(
-0.92833
-2.74264
-4.92148
-7.19182
-9.23403
-10.7759
-11.6858
-12.0038
-11.842
-11.3416
-10.8802
-10.3658
-9.73947
-9.24124
-8.8158
-8.39043
-8.01369
-7.71551
-7.39484
-7.0179
-6.69828
-6.41388
-6.13007
-5.86556
-5.60099
-5.43005
-5.42306
-5.60272
-5.91759
-6.35728
-6.8828
-7.39933
-7.97559
-8.63858
-9.34067
-10.1345
-11.024
-11.7886
-12.3735
-12.8331
-13.1679
-13.4115
-13.4115
-13.1679
-12.8332
-12.3736
-11.7887
-11.0242
-10.1346
-9.3406
-8.63868
-7.97549
-7.39927
-6.88274
-6.35722
-5.91753
-5.60269
-5.42305
-5.43006
-5.60103
-5.86571
-6.13008
-6.41392
-6.69831
-7.01792
-7.39485
-7.71553
-8.0137
-8.39043
-8.81579
-9.24122
-9.73944
-10.3658
-10.8801
-11.3415
-11.842
-12.0038
-11.6858
-10.7759
-9.23409
-7.19188
-4.92152
-2.74266
-0.92834
)
;
    }
    left
    {
        type            calculated;
        value           nonuniform List<scalar> 
19
(
-0.848311
-1.56838
-2.16419
-2.72007
-3.2266
-3.74648
-4.24507
-4.79847
-5.42964
-6.16421
-7.1948
-8.51987
-10.4166
-13.218
-17.694
-24.8657
-37.9147
-62.3293
-122.291
)
;
    }
    right
    {
        type            calculated;
        value           nonuniform List<scalar> 
19
(
-0.848317
-1.56838
-2.16419
-2.72007
-3.2266
-3.74648
-4.24507
-4.79848
-5.42964
-6.16421
-7.1948
-8.51985
-10.4166
-13.2179
-17.6939
-24.8657
-37.9147
-62.3294
-122.291
)
;
    }
    frontAndBackPlanes
    {
        type            empty;
    }
}


// ************************************************************************* //
