/*--------------------------------*- C++ -*----------------------------------*\
  =========                 |
  \\      /  F ield         | OpenFOAM: The Open Source CFD Toolbox
   \\    /   O peration     | Website:  https://openfoam.org
    \\  /    A nd           | Version:  7
     \\/     M anipulation  |
\*---------------------------------------------------------------------------*/
FoamFile
{
    version     2.0;
    format      ascii;
    class       volScalarField;
    location    "0.15";
    object      gradTx;
}
// * * * * * * * * * * * * * * * * * * * * * * * * * * * * * * * * * * * * * //

dimensions      [0 -1 0 1 0 0 0];

internalField   nonuniform List<scalar> 
1596
(
-0.415015
-2.08018
-3.70751
-5.14101
-6.35845
-7.34796
-8.15678
-8.81662
-9.37399
-9.91435
-10.4675
-11.1363
-12.0359
-13.3231
-15.1749
-18.0104
-22.4606
-29.8792
-43.0641
0.096685
-1.71622
-3.31598
-4.67304
-5.81017
-6.7284
-7.47142
-8.05611
-8.51873
-8.90681
-9.23319
-9.55754
-9.90897
-10.3264
-10.8076
-11.3357
-11.7425
-11.6715
-10.3547
0.519256
-1.36848
-2.9047
-4.16283
-5.19955
-6.03098
-6.69537
-7.2045
-7.58359
-7.8601
-8.03771
-8.1505
-8.20122
-8.19691
-8.1184
-7.92555
-7.48758
-6.56644
-4.68058
0.596485
-1.1566
-2.5396
-3.65615
-4.56865
-5.29972
-5.87931
-6.31681
-6.62868
-6.82993
-6.9212
-6.92041
-6.82276
-6.62508
-6.31078
-5.84737
-5.15425
-4.09447
-2.38746
0.214848
-1.16112
-2.28483
-3.20939
-3.97192
-4.5891
-5.07894
-5.44799
-5.70547
-5.85771
-5.90508
-5.85454
-5.69978
-5.43422
-5.04641
-4.51292
-3.78865
-2.79976
-1.39045
-0.583314
-1.41527
-2.19252
-2.87826
-3.46538
-3.95388
-4.34702
-4.64657
-4.85524
-4.9727
-4.9994
-4.93459
-4.77178
-4.50271
-4.11932
-3.60357
-2.93109
-2.06279
-0.914494
-1.63701
-1.89714
-2.28772
-2.703
-3.09352
-3.43826
-3.72519
-3.94942
-4.1075
-4.19372
-4.20784
-4.14369
-3.99447
-3.75058
-3.40532
-2.94299
-2.34979
-1.60423
-0.66107
-2.7304
-2.51003
-2.53465
-2.67696
-2.86344
-3.05573
-3.22916
-3.37163
-3.4741
-3.52654
-3.52715
-3.46615
-3.33606
-3.12618
-2.82981
-2.43197
-1.92346
-1.29089
-0.509206
-3.85461
-3.30721
-3.01539
-2.8886
-2.85774
-2.87817
-2.91846
-2.96051
-2.99078
-2.99572
-2.97107
-2.90453
-2.7874
-2.60779
-2.35801
-2.02288
-1.59425
-1.06151
-0.408777
-4.52643
-3.87033
-3.39815
-3.08266
-2.88191
-2.75869
-2.68273
-2.63371
-2.59591
-2.55408
-2.50184
-2.42586
-2.31651
-2.16147
-1.95223
-1.67379
-1.31794
-0.875015
-0.333257
-5.07961
-4.38579
-3.80979
-3.35731
-3.01485
-2.76017
-2.57058
-2.42767
-2.31598
-2.22004
-2.13186
-2.03777
-1.92732
-1.78787
-1.61006
-1.37905
-1.08593
-0.720852
-0.27352
-5.65361
-4.96587
-4.32776
-3.76932
-3.30095
-2.91811
-2.6098
-2.36334
-2.16605
-2.00366
-1.86731
-1.74326
-1.62016
-1.48498
-1.32739
-1.1326
-0.89076
-0.591397
-0.224241
-5.83309
-5.23961
-4.62135
-4.0319
-3.50074
-3.03942
-2.6491
-2.32502
-2.05942
-1.84106
-1.66181
-1.50888
-1.3709
-1.23507
-1.09071
-0.923584
-0.723435
-0.479618
-0.181857
-5.9077
-5.41345
-4.84509
-4.25896
-3.69599
-3.1811
-2.72683
-2.33726
-2.01067
-1.73992
-1.51862
-1.33542
-1.17932
-1.03788
-0.900224
-0.752711
-0.584876
-0.386093
-0.146184
-5.94276
-5.53666
-5.02669
-4.4624
-3.88808
-3.33789
-2.83401
-2.38923
-2.00841
-1.6891
-1.4274
-1.2137
-1.03758
-0.887025
-0.751048
-0.616499
-0.472818
-0.309519
-0.116633
-5.84976
-5.53849
-5.09865
-4.57613
-4.01467
-3.45346
-2.92163
-2.43957
-2.01852
-1.66091
-1.36597
-1.12615
-0.931995
-0.772062
-0.635464
-0.509545
-0.383809
-0.248044
-0.0926341
-5.61669
-5.39756
-5.03579
-4.57111
-4.04416
-3.49573
-2.95908
-2.46037
-2.01636
-1.6342
-1.31645
-1.05789
-0.850361
-0.683235
-0.545939
-0.426366
-0.314232
-0.199703
-0.0736233
-5.32801
-5.16982
-4.8782
-4.47506
-3.99359
-3.47286
-2.94784
-2.44846
-1.99588
-1.60131
-1.27049
-1.00056
-0.784762
-0.613412
-0.476379
-0.362103
-0.26059
-0.162418
-0.0589187
-5.08815
-4.97829
-4.73954
-4.38513
-3.9415
-3.44511
-2.93166
-2.43372
-1.97592
-1.5728
-1.23273
-0.954773
-0.733319
-0.559369
-0.423078
-0.313231
-0.220004
-0.134283
-0.0478191
-4.62147
-4.579
-4.40613
-4.11679
-3.73238
-3.28515
-2.80924
-2.33775
-1.89731
-1.50495
-1.17134
-0.89757
-0.679459
-0.509083
-0.377267
-0.273407
-0.188068
-0.112596
-0.0393487
-4.08426
-4.09547
-3.98328
-3.75777
-3.43609
-3.04601
-2.61896
-2.18696
-1.77718
-1.40805
-1.09174
-0.83107
-0.623166
-0.461289
-0.337116
-0.240788
-0.1633
-0.0963936
-0.0330871
-3.50674
-3.55188
-3.48998
-3.32365
-3.06491
-2.73663
-2.36668
-1.9847
-1.617
-1.28228
-0.993335
-0.754157
-0.563037
-0.414461
-0.301173
-0.214275
-0.145246
-0.0859035
-0.0292997
-2.84837
-2.90906
-2.88833
-2.7799
-2.58913
-2.33256
-2.03306
-1.71619
-1.40596
-1.12006
-0.870975
-0.663527
-0.497003
-0.367328
-0.268734
-0.19382
-0.134949
-0.0838618
-0.0316437
-2.08925
-2.06254
-1.97858
-1.83978
-1.65712
-1.44631
-1.22463
-1.00764
-0.808147
-0.633889
-0.488589
-0.372031
-0.281083
-0.211661
-0.15955
-0.120349
-0.0894363
-0.0609832
-0.0267905
-1.39654
-1.54181
-1.67309
-1.75684
-1.77395
-1.719
-1.6
-1.43329
-1.24025
-1.04099
-0.851439
-0.682564
-0.538531
-0.420654
-0.327796
-0.257474
-0.205348
-0.165899
-0.130497
-0.468409
-0.526724
-0.597159
-0.661937
-0.707976
-0.727075
-0.717457
-0.681645
-0.626818
-0.561186
-0.491597
-0.424404
-0.361608
-0.304891
-0.255191
-0.214314
-0.18249
-0.160058
-0.145264
0.462531
0.395517
0.29271
0.169931
0.0434867
-0.072436
-0.168166
-0.238716
-0.284612
-0.309622
-0.31796
-0.31489
-0.302365
-0.282446
-0.257095
-0.230541
-0.205976
-0.186863
-0.173635
1.38586
1.29499
1.14957
0.966535
0.764479
0.561391
0.372093
0.206529
0.0689116
-0.041138
-0.125682
-0.188625
-0.231166
-0.254392
-0.259477
-0.251522
-0.236097
-0.220238
-0.207202
2.20972
2.07613
1.87966
1.63942
1.37449
1.10381
0.84381
0.606155
0.39716
0.218141
0.0682964
-0.0552614
-0.152702
-0.223074
-0.264569
-0.28055
-0.277018
-0.264622
-0.250619
3.04721
2.85679
2.60038
2.29771
1.96862
1.63287
1.3076
1.00495
0.732008
0.4906
0.280198
0.0978284
-0.0566563
-0.180762
-0.268529
-0.31869
-0.333943
-0.327042
-0.310729
3.65747
3.40369
3.09253
2.7426
2.37299
2.00136
1.6425
1.30633
0.998695
0.720559
0.470904
0.245864
0.044159
-0.131737
-0.272136
-0.368853
-0.415137
-0.419873
-0.399461
4.20816
3.90159
3.53758
3.14222
2.73543
2.33297
1.94709
1.58533
1.25201
0.94699
0.668471
0.411018
0.170596
-0.0536729
-0.252489
-0.4133
-0.515476
-0.553327
-0.537983
4.6957
4.31953
3.8998
3.4629
3.02656
2.60302
2.20118
1.82568
1.47914
1.16029
0.866898
0.592543
0.330324
0.0736504
-0.174499
-0.406828
-0.594406
-0.709726
-0.726023
4.97922
4.49944
3.99846
3.49981
3.01745
2.55967
2.13196
1.73645
1.37404
1.04252
0.738799
0.45607
0.185581
-0.0845111
-0.361727
-0.654373
-0.948143
-1.21742
-1.41325
5.12185
4.60425
4.10354
3.6337
3.19761
2.7945
2.42262
2.07959
1.7636
1.47238
1.20415
0.956039
0.72395
0.501578
0.281037
0.0466235
-0.214659
-0.516848
-0.862205
5.20357
4.67511
4.19504
3.75826
3.35742
2.98689
2.6425
2.32135
2.02199
1.74307
1.48409
1.24468
1.02351
0.819588
0.632393
0.459438
0.29778
0.140906
-0.0226341
4.86285
4.26226
3.74215
3.28399
2.87517
2.50749
2.17485
1.87269
1.59783
1.3471
1.11832
0.909699
0.718803
0.544099
0.385272
0.242124
0.11576
0.00847553
-0.078959
4.22096
3.68493
3.22646
2.82697
2.47401
2.1591
1.87594
1.61974
1.38723
1.1753
0.981949
0.805596
0.644177
0.496333
0.36149
0.238845
0.128128
0.0299083
-0.0561645
3.4728
3.03037
2.64937
2.31769
2.02587
1.76676
1.53483
1.32578
1.13659
0.964462
0.807591
0.664521
0.533419
0.413012
0.302685
0.201614
0.109482
0.0267948
-0.0466616
2.59465
2.25733
1.96916
1.72029
1.50282
1.31074
1.13948
0.985498
0.846363
0.719831
0.604486
0.499176
0.402496
0.313471
0.231658
0.156466
0.0877364
0.0259629
-0.0289237
1.62516
1.40068
1.21521
1.05823
0.922699
0.803882
0.698436
0.603908
0.518642
0.441153
0.370505
0.305941
0.246554
0.191712
0.141132
0.0944427
0.0515695
0.0128789
-0.0215971
0.621381
0.529463
0.456501
0.395706
0.343515
0.297877
0.257479
0.221398
0.189015
0.159765
0.133271
0.109204
0.08718
0.0669047
0.0482044
0.030879
0.0148379
0.000164773
-0.0131464
-0.621083
-0.528785
-0.455558
-0.394583
-0.342279
-0.296581
-0.256166
-0.220106
-0.187772
-0.158597
-0.132197
-0.108241
-0.0863412
-0.0662017
-0.0476459
-0.0304716
-0.0145861
-6.8453e-05
0.0130903
-1.62488
-1.40007
-1.21437
-1.05723
-0.921609
-0.802745
-0.697291
-0.602788
-0.517574
-0.440159
-0.369604
-0.305148
-0.245881
-0.19117
-0.140729
-0.0941854
-0.0514615
-0.0129193
0.0214126
-2.59436
-2.25673
-1.96833
-1.7193
-1.50172
-1.30959
-1.1383
-0.984336
-0.845245
-0.71878
-0.603519
-0.498307
-0.401735
-0.312824
-0.23113
-0.156058
-0.087446
-0.0257851
0.0289964
-3.47257
-3.02993
-2.64877
-2.31698
-2.02508
-1.76593
-1.534
-1.32496
-1.13581
-0.963752
-0.806958
-0.663975
-0.532968
-0.412661
-0.302437
-0.201467
-0.109434
-0.0268395
0.0465311
-4.22081
-3.68462
-3.22602
-2.82643
-2.4734
-2.15846
-1.87529
-1.61911
-1.38663
-1.17476
-0.981474
-0.805196
-0.64386
-0.496102
-0.361343
-0.238778
-0.128132
-0.0299704
0.0560635
-4.86282
-4.26212
-3.74192
-3.28367
-2.8748
-2.50709
-2.17445
-1.87232
-1.59751
-1.34684
-1.11813
-0.909592
-0.71878
-0.544165
-0.385424
-0.242351
-0.116032
-0.00874434
0.078748
-5.20352
-4.6746
-4.19397
-3.75663
-3.35526
-2.98429
-2.63955
-2.31816
-2.01866
-1.73967
-1.48069
-1.24133
-1.02022
-0.816357
-0.629234
-0.456404
-0.295015
-0.138743
0.0236367
-5.12271
-4.60656
-4.10733
-3.63889
-3.20403
-2.80195
-2.43089
-2.08845
-1.77286
-1.48186
-1.21375
-0.965704
-0.733704
-0.511543
-0.291424
-0.0577444
0.202535
0.503676
0.848468
-4.9788
-4.49836
-3.99667
-3.49738
-3.01446
-2.55624
-2.12823
-1.73253
-1.37003
-1.03851
-0.73486
-0.452253
-0.181924
0.0879943
0.365089
0.657795
0.952065
1.22258
1.42063
-4.69598
-4.32023
-3.90085
-3.46423
-3.02812
-2.60474
-2.203
-1.82754
-1.48099
-1.1621
-0.868645
-0.594213
-0.331902
-0.0750885
0.173311
0.406093
0.594356
0.710496
0.727401
-4.20834
-3.90202
-3.53824
-3.14308
-2.73645
-2.3341
-1.9483
-1.58657
-1.25325
-0.94819
-0.669606
-0.41206
-0.171504
0.0529703
0.252102
0.413354
0.516022
0.554264
0.539094
-3.65765
-3.40414
-3.09322
-2.74351
-2.37406
-2.00256
-1.64376
-1.30759
-0.999914
-0.721698
-0.471928
-0.246742
-0.0448494
0.131291
0.271997
0.369057
0.415646
0.420566
0.400181
-3.04739
-2.85725
-2.60111
-2.29867
-1.96976
-1.63412
-1.30889
-1.00622
-0.7332
-0.49167
-0.281114
-0.0985636
0.0561314
0.180477
0.268502
0.318905
0.334338
0.327531
0.311231
-2.20989
-2.07657
-1.88037
-1.64036
-1.3756
-1.10501
-0.845033
-0.607327
-0.398227
-0.219062
-0.0690461
0.0546997
0.15234
0.22292
0.26461
0.280753
0.277329
0.264985
0.250992
-1.38605
-1.29547
-1.15033
-0.967534
-0.765636
-0.56262
-0.373306
-0.207653
-0.0698935
0.0403306
0.125062
0.188196
0.230923
0.254321
0.259553
0.251708
0.236351
0.220527
0.207501
-0.462698
-0.395986
-0.293464
-0.170912
-0.0446056
0.0712765
0.167057
0.23773
0.283791
0.308988
0.317511
0.314615
0.302245
0.282459
0.257208
0.230725
0.206201
0.187112
0.173898
0.468006
0.525521
0.595169
0.659301
0.704923
0.723867
0.714343
0.678813
0.624387
0.559206
0.490061
0.423272
0.36082
0.304379
0.254886
0.214157
0.182438
0.160097
0.145424
1.3968
1.54282
1.67495
1.75952
1.77728
1.72274
1.60389
1.43708
1.24375
1.04409
0.854077
0.684751
0.540308
0.422083
0.328948
0.258417
0.206142
0.166589
0.131105
2.08893
2.06146
1.97677
1.83738
1.65435
1.4434
1.22179
1.00504
0.805871
0.631984
0.487051
0.370827
0.280169
0.210986
0.159065
0.120012
0.0892126
0.0608502
0.0267401
2.84853
2.90938
2.8888
2.78047
2.58974
2.33315
2.03358
1.71662
1.40629
1.12028
0.87111
0.663599
0.497034
0.367334
0.268728
0.19381
0.13494
0.0838566
0.0316441
3.50676
3.5519
3.49
3.32367
3.06492
2.73664
2.36667
1.98467
1.61697
1.28224
0.993289
0.754114
0.563
0.414433
0.301153
0.214263
0.14524
0.0859022
0.0293011
4.08427
4.09549
3.98329
3.75778
3.4361
3.04601
2.61895
2.18694
1.77715
1.40801
1.09171
0.83104
0.623143
0.461273
0.337107
0.240785
0.1633
0.0963953
0.0330881
4.62148
4.57901
4.40614
4.1168
3.73238
3.28514
2.80922
2.33773
1.89728
1.50492
1.17131
0.89755
0.679446
0.509076
0.377265
0.273409
0.188072
0.112599
0.0393495
5.08816
4.97831
4.73956
4.38515
3.94151
3.44511
2.93165
2.43371
1.9759
1.57278
1.23271
0.954761
0.733313
0.559368
0.423081
0.313236
0.220009
0.134286
0.0478198
5.32802
5.16984
4.87822
4.47507
3.9936
3.47286
2.94783
2.44845
1.99586
1.60129
1.27048
1.00055
0.784761
0.613415
0.476383
0.362108
0.260594
0.162419
0.0589188
5.61669
5.39757
5.0358
4.57112
4.04417
3.49572
2.95907
2.46036
2.01635
1.63419
1.31644
1.05789
0.850363
0.683239
0.545944
0.426369
0.314233
0.199703
0.0736226
5.84978
5.53851
5.09867
4.57615
4.01468
3.45346
2.92163
2.43957
2.01851
1.6609
1.36597
1.12615
0.931997
0.772064
0.635464
0.509543
0.383805
0.24804
0.0926325
5.94276
5.53666
5.0267
4.46241
3.88809
3.33789
2.834
2.38922
2.00841
1.68909
1.4274
1.2137
1.03758
0.887021
0.751041
0.61649
0.472808
0.309511
0.11663
5.90771
5.41346
4.84511
4.25898
3.696
3.1811
2.72683
2.33725
2.01066
1.73992
1.51862
1.33542
1.17932
1.03787
0.900209
0.752693
0.584859
0.386082
0.146182
5.8331
5.23964
4.62137
4.03191
3.50075
3.03943
2.6491
2.32502
2.05942
1.84106
1.6618
1.50887
1.37088
1.23505
1.09069
0.923558
0.723413
0.479605
0.181855
5.6536
4.96587
4.32775
3.76931
3.30093
2.91809
2.60978
2.36332
2.16603
2.00365
1.8673
1.74323
1.62013
1.48494
1.32736
1.13257
0.890735
0.591386
0.224241
5.07964
4.38582
3.8098
3.35732
3.01486
2.76017
2.57058
2.42767
2.31597
2.22002
2.13184
2.03775
1.92728
1.78783
1.61003
1.37902
1.08591
0.720846
0.273522
4.52648
3.87037
3.39817
3.08266
2.88192
2.75869
2.68272
2.6337
2.5959
2.55406
2.50181
2.42583
2.31647
2.16143
1.9522
1.67376
1.31793
0.875017
0.333262
3.85465
3.30724
3.0154
2.8886
2.85774
2.87817
2.91845
2.9605
2.99076
2.99569
2.97103
2.90449
2.78736
2.60775
2.35799
2.02288
1.59426
1.06152
0.408783
2.73043
2.51004
2.53466
2.67696
2.86344
3.05572
3.22915
3.37161
3.47408
3.52651
3.52712
3.46612
3.33603
3.12617
2.82981
2.43198
1.92347
1.2909
0.509211
1.63703
1.89715
2.28773
2.70301
3.09353
3.43826
3.72518
3.94941
4.10748
4.1937
4.20781
4.14367
3.99445
3.75059
3.40534
2.94302
2.34982
1.60425
0.661073
0.58333
1.41529
2.19253
2.87827
3.46539
3.95389
4.34701
4.64655
4.85522
4.97268
4.99939
4.93459
4.77179
4.50273
4.11935
3.60361
2.93112
2.0628
0.914493
-0.214839
1.16113
2.28485
3.2094
3.97193
4.5891
5.07894
5.44798
5.70546
5.85771
5.90508
5.85455
5.6998
5.43426
5.04645
4.51296
3.78867
2.79977
1.39044
-0.596483
1.15661
2.53961
3.65616
4.56865
5.29972
5.87931
6.31681
6.62868
6.82993
6.92121
6.92043
6.82279
6.62511
6.31082
5.8474
5.15426
4.09446
2.38745
-0.519259
1.36848
2.9047
4.16282
5.19954
6.03098
6.69536
7.2045
7.5836
7.86011
8.03773
8.15053
8.20125
8.19694
8.11842
7.92555
7.48757
6.56642
4.68057
-0.0966845
1.71622
3.31597
4.67303
5.81016
6.72839
7.47142
8.05612
8.51874
8.90684
9.23322
9.55756
9.909
10.3264
10.8076
11.3357
11.7424
11.6715
10.3547
0.415019
2.08018
3.7075
5.141
6.35844
7.34795
8.15678
8.81663
9.374
9.91437
10.4675
11.1363
12.0359
13.3231
15.1748
18.0103
22.4606
29.8792
43.0641
)
;

boundaryField
{
    up
    {
        type            calculated;
        value           nonuniform List<scalar> 
84
(
-43.0641
-10.3547
-4.68058
-2.38746
-1.39045
-0.914494
-0.66107
-0.509206
-0.408777
-0.333257
-0.27352
-0.224241
-0.181857
-0.146184
-0.116633
-0.0926341
-0.0736233
-0.0589187
-0.0478191
-0.0393487
-0.0330871
-0.0292997
-0.0316437
-0.0267905
-0.109945
-0.133221
-0.160352
-0.191249
-0.230503
-0.284296
-0.362305
-0.477087
-0.626486
-1.37046
-0.881466
-0.0237812
-0.0783528
-0.0557648
-0.0464332
-0.0288311
-0.0215587
-0.0131386
0.0130825
0.0213749
0.0289045
0.0463043
0.0556659
0.078144
0.0247616
0.867539
1.37907
0.627748
0.478025
0.362936
0.284744
0.230843
0.191525
0.160602
0.133431
0.110481
0.0267401
0.0316441
0.0293011
0.0330881
0.0393495
0.0478198
0.0589188
0.0736226
0.0926325
0.11663
0.146182
0.181855
0.224241
0.273522
0.333262
0.408783
0.509211
0.661073
0.914493
1.39044
2.38745
4.68057
10.3547
43.0641
)
;
    }
    low
    {
        type            calculated;
        value           nonuniform List<scalar> 
84
(
-0.373383
0.160291
0.621037
0.706003
0.282979
-0.595779
-1.73848
-2.89914
-4.04852
-4.68586
-5.22138
-5.77156
-5.89097
-5.93031
-5.94435
-5.81748
-5.55417
-5.2575
-4.99698
-4.49019
-3.93085
-3.34536
-2.68648
-1.94456
-1.28139
-0.42646
0.414706
1.26796
2.06098
2.90283
3.54471
4.12163
4.64472
4.97203
5.14816
5.26856
4.96692
4.32831
3.56649
2.66803
1.67324
0.641343
-0.641044
-1.67295
-2.66773
-3.56623
-4.32811
-4.96683
-5.26846
-5.14888
-4.97163
-4.64494
-4.12178
-3.54489
-2.90301
-2.06116
-1.26815
-0.414876
0.426067
1.28165
1.94427
2.68661
3.34538
3.93086
4.49019
4.997
5.25751
5.55418
5.8175
5.94435
5.93032
5.89099
5.77154
5.2214
4.6859
4.04856
2.89917
1.73851
0.595797
-0.28297
-0.706006
-0.621049
-0.160299
0.373385
)
;
    }
    left
    {
        type            calculated;
        value           nonuniform List<scalar> 
19
(
-0.370102
-2.00232
-3.66617
-5.15228
-6.42441
-7.4614
-8.31337
-9.01702
-9.6183
-10.2223
-10.8586
-11.6408
-12.7163
-14.2903
-16.5824
-20.1777
-25.9511
-35.793
-37.3472
)
;
    }
    right
    {
        type            calculated;
        value           nonuniform List<scalar> 
19
(
0.370107
2.00233
3.66617
5.15227
6.42441
7.4614
8.31337
9.01702
9.61831
10.2223
10.8586
11.6408
12.7162
14.2903
16.5823
20.1777
25.951
35.793
37.3472
)
;
    }
    frontAndBackPlanes
    {
        type            empty;
    }
}


// ************************************************************************* //
