/*--------------------------------*- C++ -*----------------------------------*\
  =========                 |
  \\      /  F ield         | OpenFOAM: The Open Source CFD Toolbox
   \\    /   O peration     | Website:  https://openfoam.org
    \\  /    A nd           | Version:  7
     \\/     M anipulation  |
\*---------------------------------------------------------------------------*/
FoamFile
{
    version     2.0;
    format      ascii;
    class       volScalarField;
    location    "0.292";
    object      gradTz;
}
// * * * * * * * * * * * * * * * * * * * * * * * * * * * * * * * * * * * * * //

dimensions      [0 -1 0 1 0 0 0];

internalField   nonuniform List<scalar> 
1596
(
-4.84112e-16
-2.35797e-16
2.39094e-16
4.74757e-18
-4.56755e-16
0
-2.14047e-16
-2.11052e-16
-1.33503e-17
-1.1083e-16
-1.0584e-18
-1.10145e-16
4.83954e-16
-1.08818e-16
5.08717e-16
4.3879e-16
2.60942e-16
3.29407e-16
0
4.84196e-16
0
6.85275e-16
-4.4334e-18
-2.11108e-16
2.09399e-16
4.29983e-16
1.2665e-17
2.04021e-16
-9.8184e-17
1.95817e-16
-3.07871e-18
-2.71448e-16
-1.69401e-16
-4.11352e-16
-4.0112e-16
-3.64801e-16
2.07558e-16
0
-2.38064e-16
0
-4.48411e-16
7.04485e-18
4.13588e-16
-1.14962e-16
8.2432e-18
-2.89176e-18
-2.98878e-18
-3.21696e-18
7.51382e-17
0
1.40828e-16
3.99873e-16
-3.93757e-17
3.1595e-17
7.43591e-17
1.15822e-16
0
3.73169e-16
-1.13103e-16
1.1269e-16
0
-1.08684e-16
-1.12083e-16
1.92754e-16
-1.6969e-16
0
0
-5.92658e-17
3.92098e-17
0
-1.18016e-16
-1.50881e-16
1.04115e-16
-1.0637e-16
-5.47688e-18
0
6.50996e-17
1.74814e-16
-1.59016e-16
0
-4.73286e-17
-1.43727e-16
0
2.15735e-16
-2.15562e-17
-1.95112e-17
-1.73448e-17
1.12768e-16
1.37997e-16
1.41356e-17
4.10375e-18
-1.12584e-16
5.68101e-18
5.20881e-17
-2.23369e-17
-1.69053e-17
-2.40066e-16
2.298e-16
-2.02357e-16
-3.92019e-19
-1.81034e-16
5.11517e-18
-5.13215e-18
-1.44266e-16
0
-1.42758e-17
-1.33227e-16
-1.2471e-16
1.01973e-16
1.04426e-16
-1.42869e-18
-6.25872e-17
-5.28323e-17
4.03394e-17
1.41281e-16
-2.44954e-16
2.77103e-16
1.55916e-16
0
1.38789e-16
8.232e-17
-3.97333e-17
1.83156e-16
-3.45445e-17
-1.45347e-16
1.36004e-18
-8.6679e-17
-1.0247e-16
-8.06027e-17
6.82458e-17
6.31381e-17
-8.4115e-19
-1.68623e-17
1.29025e-17
3.88574e-16
-4.61743e-16
0
0
-1.73594e-16
0
0
0
1.22018e-16
0
0
7.93645e-17
3.06819e-18
2.07321e-17
-5.95864e-17
0
3.1718e-17
1.22899e-17
0
-2.53478e-16
4.88805e-16
0
0
1.78778e-16
0
-6.95144e-17
6.94442e-17
-1.24196e-16
5.20533e-17
-5.2434e-17
0
7.5769e-17
7.24996e-17
0
-4.18828e-17
-3.2414e-17
-1.07223e-17
6.03189e-16
-2.83469e-16
0
-2.06653e-16
2.04341e-16
0
1.55278e-16
0
0
0
4.85942e-17
-4.88271e-17
0
-5.84415e-17
-1.68354e-17
0
4.00214e-18
2.40339e-17
0
-1.53098e-16
0
0
2.07227e-16
-3.88605e-16
1.83844e-17
7.16757e-18
-6.49025e-17
6.80146e-18
2.16733e-18
-5.1296e-17
-8.33984e-17
0
6.31073e-17
-1.24773e-17
1.26646e-17
3.25424e-17
-1.88153e-17
-8.72303e-18
1.2945e-16
-1.25997e-17
1.24207e-16
4.29764e-16
-2.1216e-17
-1.82462e-16
0
0
0
1.0573e-16
4.29172e-17
1.55262e-16
-3.7514e-17
-6.19784e-17
-3.74287e-17
-2.01527e-17
8.95545e-18
-1.94231e-17
8.31163e-18
-1.41892e-16
1.38961e-16
-2.58067e-16
-4.24551e-16
3.95249e-16
1.59595e-16
-2.96784e-16
2.59754e-16
-2.27017e-16
5.9101e-17
4.60466e-17
-4.17647e-17
2.79339e-17
-2.48641e-17
7.24264e-17
0
-5.439e-18
3.99359e-17
-5.92458e-18
-9.12474e-16
4.20965e-16
3.56103e-19
-9.55717e-17
1.11477e-17
1.55157e-16
-2.95756e-16
-1.2391e-16
1.07105e-16
-9.2069e-17
-7.93631e-17
0
-9.13335e-17
-2.72607e-17
-4.91635e-17
-2.9255e-17
2.3058e-18
-2.5438e-17
4.79697e-19
1.49136e-16
-1.33843e-16
2.99592e-19
-1.04733e-16
-2.65045e-16
2.50801e-16
8.86626e-19
1.2075e-16
-1.04281e-16
1.76919e-16
4.19737e-17
3.4993e-17
1.09333e-16
0
9.15431e-17
4.20689e-17
0
1.40108e-17
4.08113e-19
0
1.29843e-16
1.03944e-16
-2.15115e-16
2.56934e-16
-3.88661e-16
2.77566e-16
1.07237e-16
-1.45445e-17
-1.74937e-16
3.28241e-17
-3.26621e-17
-1.00698e-16
4.05197e-17
-1.99965e-17
-4.24414e-17
1.8565e-17
-1.14919e-17
4.40525e-18
-1.38936e-16
4.76972e-16
-3.54847e-16
1.96125e-16
0
0
-5.56622e-17
1.17901e-16
-8.62947e-17
1.62918e-16
0
0
6.83605e-17
-6.00588e-17
-4.32395e-17
1.36069e-17
-1.44331e-17
7.55671e-18
0
1.04933e-17
1.29921e-16
-1.06462e-16
-9.40456e-17
-1.54468e-16
-5.21654e-17
6.99929e-17
0
-8.13699e-17
-6.7323e-17
6.09102e-17
-5.04031e-17
4.13849e-17
0
1.64346e-17
3.27906e-17
0
0
0
-1.00258e-17
2.11143e-16
8.24252e-17
-2.83263e-16
7.93772e-17
6.87933e-17
0
0
7.70857e-17
-4.00823e-17
-5.89134e-17
4.8749e-17
-4.00223e-17
0
-1.09901e-17
9.58383e-18
0
-8.00951e-18
-2.78767e-18
-1.12284e-16
3.29506e-16
-4.02353e-16
-1.63726e-16
8.54546e-17
-6.53458e-17
5.56209e-17
0
-3.91088e-17
3.307e-17
0
0
1.60191e-17
-1.60375e-17
4.91649e-18
-6.36259e-18
1.15733e-17
1.31197e-18
2.06813e-18
5.73435e-17
-5.20691e-17
2.69625e-16
-1.74311e-16
-7.19339e-17
8.65333e-18
1.13918e-16
4.42645e-17
3.74212e-17
0
2.26175e-17
-2.10051e-17
1.69627e-17
-1.45432e-17
1.92052e-17
-3.32475e-17
-9.0088e-18
7.87841e-18
2.11742e-18
1.54147e-16
-1.55931e-16
0
1.47619e-16
-7.7465e-17
-5.9134e-17
4.22298e-17
-1.34199e-16
0
-2.3135e-18
-2.58211e-17
-1.9035e-17
2.82843e-17
-2.08099e-18
-1.85615e-17
1.38579e-17
0
5.11167e-18
-2.056e-18
2.61661e-16
-4.66591e-17
2.00999e-16
-1.57603e-16
8.90275e-17
1.13333e-17
-1.03269e-16
-3.63838e-17
6.60277e-17
-2.62288e-18
-4.02524e-17
3.43554e-17
-1.51729e-17
-2.04411e-17
0
0
0
-5.1609e-18
1.92636e-19
-2.33811e-16
2.28002e-16
1.55432e-19
3.56006e-17
3.10075e-17
-7.62072e-17
9.07097e-17
-7.5725e-17
6.53888e-17
-2.23619e-17
4.26967e-17
1.55208e-17
-6.65892e-18
3.51887e-19
-2.51278e-18
-4.41954e-18
0
0
0
0
0
1.13806e-16
-5.40747e-17
-1.74646e-16
0
0
-2.19546e-17
-3.61169e-17
3.06214e-17
0
-1.95746e-17
1.54441e-17
-5.23755e-17
6.04615e-17
-2.01025e-17
2.14327e-17
2.36505e-18
0
-4.53125e-17
4.58702e-17
0
-3.76991e-17
3.82993e-17
6.44122e-17
0
2.21643e-17
3.02428e-17
-1.34195e-16
0
-2.15291e-17
1.70565e-17
1.2485e-17
-9.40362e-18
1.38711e-17
0
-5.18687e-18
0
-2.32984e-17
-2.33363e-17
1.38263e-18
3.87348e-17
-1.05165e-16
0
-2.77311e-17
0
8.09968e-17
3.32929e-17
0
8.53292e-17
-9.05294e-17
8.90438e-18
-2.0966e-17
5.55197e-18
2.65746e-17
1.02186e-17
-8.09189e-18
0
4.83015e-17
-4.28514e-17
5.32615e-17
6.49152e-17
0
5.65629e-17
-5.37298e-17
-4.33269e-17
6.64837e-17
-9.99489e-17
-4.99035e-17
0
0
1.14677e-17
0
0
3.35301e-18
0
-2.13545e-16
1.63804e-16
0
2.34923e-18
-3.80225e-17
-2.11635e-18
3.43497e-17
2.52609e-17
-3.10729e-17
-8.16508e-17
1.3196e-16
-3.56124e-17
0
-1.77283e-17
0
0
0
-1.29292e-17
1.03208e-17
-6.02387e-17
5.67862e-17
1.53285e-16
-1.50348e-16
4.65661e-17
2.47139e-18
-3.49075e-17
3.05073e-17
5.26115e-17
4.09425e-17
-8.10169e-17
0
4.3674e-17
6.77962e-18
-2.02912e-17
-4.53938e-17
3.75305e-17
-6.24428e-18
1.17287e-17
-2.03213e-16
2.96077e-16
-2.94073e-16
5.23022e-17
4.49915e-17
-4.30474e-17
3.64448e-17
-2.94399e-17
0
-2.55815e-17
4.18798e-17
1.81958e-17
2.96696e-17
3.8474e-17
-5.7843e-17
-7.87952e-19
0
-4.70985e-18
1.57055e-18
-2.19729e-16
-6.6043e-17
-1.17123e-16
6.20178e-17
-1.03137e-16
9.07191e-17
-5.4365e-17
4.67362e-17
-3.0203e-18
-3.02449e-18
-4.36453e-17
2.55604e-17
-1.49806e-17
4.53594e-17
-4.86938e-17
6.34895e-18
5.23639e-18
0
-2.7058e-18
2.37575e-16
-7.11781e-17
0
0
-1.0628e-16
2.0746e-16
-4.88549e-17
-9.56674e-18
7.94176e-17
-2.02925e-18
0
0
-1.90867e-17
0
-4.2141e-17
1.02936e-16
-7.16603e-17
0
1.06403e-18
8.14851e-17
1.53064e-16
0
-6.60334e-17
-5.46865e-17
-4.9066e-17
-5.07386e-17
2.1333e-17
-5.99448e-17
-3.32301e-17
0
0
2.49002e-17
0
0
-5.6634e-17
9.32293e-17
0
0
5.5915e-16
-6.48082e-17
-3.41239e-16
-1.88312e-16
2.55223e-16
8.22868e-17
4.91974e-17
0
-1.83852e-17
1.80434e-17
4.45825e-17
-1.44415e-17
-2.18501e-17
3.39714e-17
-3.61351e-17
-1.1314e-17
0
0
0
4.47773e-17
-3.55921e-16
3.4915e-16
-3.3735e-17
-2.63429e-16
4.13833e-16
-2.08581e-16
0
0
1.14251e-16
-9.41218e-17
0
-2.89198e-17
5.02502e-17
-5.74469e-18
1.47694e-17
4.52877e-18
4.71584e-20
9.9326e-19
0
0
0
2.96653e-16
-1.98822e-16
2.11768e-16
-3.3082e-16
9.46374e-17
0
-3.46224e-17
5.58182e-17
-5.70495e-17
-1.13237e-17
-2.70721e-19
-7.83291e-18
-1.17806e-18
-6.23893e-18
-1.7436e-18
-9.55719e-19
3.75531e-16
-6.71261e-16
3.18922e-16
0
8.73048e-17
-1.18883e-16
1.20513e-16
-9.56233e-17
0
-4.73234e-17
6.63554e-17
0
0
-2.03538e-19
0
-8.00727e-18
5.48547e-18
1.02956e-18
1.52128e-18
3.63118e-16
0
-1.46467e-16
1.63631e-16
-1.03821e-16
2.27336e-16
-1.07771e-16
-8.52218e-17
8.61119e-17
-8.80867e-18
0
0
5.70871e-18
-9.71527e-18
-6.8092e-18
1.29274e-17
-2.7987e-18
1.43964e-18
0
2.06204e-16
1.62401e-16
-4.87816e-18
-1.55902e-16
-1.58686e-17
-1.15184e-16
1.19996e-17
9.73033e-17
-5.06126e-18
8.97408e-18
0
0
-5.84819e-18
0
6.89759e-18
-7.37878e-18
0
9.45826e-19
-2.626e-19
-1.09457e-16
-8.14412e-17
7.62482e-17
-8.798e-18
-3.96221e-18
1.07625e-17
0
-2.86714e-18
4.32368e-17
-3.64125e-17
0
1.24631e-17
-2.42288e-18
-1.1028e-17
-1.01062e-18
-7.88896e-19
0
-7.39003e-19
0
4.48504e-17
-8.54533e-17
-1.29915e-18
3.69631e-17
3.41389e-17
-3.39326e-17
-2.42743e-17
2.74856e-17
-9.51429e-18
7.43721e-18
-7.28616e-18
7.51089e-18
0
1.9315e-20
-7.43966e-19
2.67717e-18
-9.16957e-21
0
0
4.4852e-17
-4.46839e-17
-3.67697e-17
3.25624e-17
6.03209e-17
-6.06769e-17
-1.21376e-17
1.21662e-17
-9.5946e-18
9.69537e-18
-7.2864e-18
1.37674e-17
-3.8612e-18
-2.79095e-18
-8.59157e-19
2.84312e-19
6.80112e-19
1.79977e-19
-1.34987e-19
0
-1.06655e-17
6.40811e-17
-6.9432e-17
6.02426e-17
-5.33807e-17
0
4.31158e-17
-3.85516e-17
0
1.4523e-17
-1.83984e-17
-1.05233e-17
1.10291e-17
2.03783e-18
0
0
-7.391e-19
2.68669e-19
1.78546e-16
-3.29495e-16
3.37714e-16
-2.97961e-16
1.17402e-16
-1.00871e-16
9.56733e-17
1.14827e-17
-4.29804e-17
3.84159e-17
0
-2.82012e-17
2.567e-17
-4.90907e-18
-1.99606e-18
3.15817e-18
2.32436e-18
7.17525e-19
-2.59596e-19
4.09536e-16
0
-1.65639e-16
1.28696e-16
1.5686e-17
-1.21633e-16
2.16393e-16
-1.9313e-16
7.59942e-17
-3.28415e-17
3.36162e-17
6.68627e-18
1.15854e-17
4.78148e-18
-3.9989e-18
-5.14517e-19
-5.04122e-18
0
5.19703e-19
3.29732e-16
-3.71154e-16
0
3.44817e-17
1.50166e-16
-1.47251e-16
2.53845e-17
2.2645e-17
9.9121e-18
1.76478e-17
0
0
-2.01657e-17
3.79802e-17
-1.39122e-17
-5.01136e-18
5.48661e-18
4.40917e-19
-9.90102e-19
2.83394e-17
3.2602e-16
-3.80242e-17
-2.62182e-16
2.30105e-16
2.77885e-17
-2.48433e-17
-2.21175e-17
7.37366e-17
-9.14805e-17
5.58333e-17
-5.70642e-17
9.07728e-18
-1.13855e-17
2.10933e-17
-1.40388e-17
0
0
1.02979e-18
0
8.19928e-17
-2.48804e-16
2.84173e-16
-2.33114e-16
2.32559e-16
0
8.25499e-17
-8.29282e-17
-6.33604e-17
9.41879e-17
0
3.9802e-17
-5.0284e-17
-7.46248e-18
0
-8.53068e-19
-1.73503e-18
-1.06705e-20
-7.74744e-16
3.70793e-16
0
-2.55174e-16
2.55148e-16
1.59047e-16
-1.04609e-16
4.3846e-17
0
-2.01015e-18
1.53746e-17
-1.44211e-17
-2.18201e-17
3.39192e-17
-3.60674e-17
0
8.04758e-18
-1.85027e-18
-1.07325e-18
4.77829e-16
-4.71111e-16
0
6.60528e-17
6.06467e-17
-5.57734e-17
0
-4.5951e-17
-4.02788e-17
0
-1.51032e-18
0
2.49097e-17
0
0
1.16626e-17
4.40693e-17
-5.68794e-17
0
7.12649e-20
7.12123e-17
-6.63135e-17
5.52552e-17
-2.80325e-16
1.0792e-16
0
9.57328e-18
2.72036e-17
0
-2.85436e-17
8.49616e-17
-8.9257e-17
1.54145e-17
0
-1.54744e-18
0
0
0
6.74074e-20
0
6.12902e-17
0
-9.75192e-17
9.90695e-17
0
3.67996e-17
-3.00263e-17
1.10043e-16
-5.33243e-17
1.98144e-17
-3.23912e-17
3.1436e-17
-4.87492e-17
-7.8527e-18
0
-5.49285e-18
0
1.86429e-16
-3.15095e-16
0
-5.2367e-17
4.75938e-17
0
0
-6.74533e-17
0
-2.55992e-17
-4.19102e-17
-1.82113e-17
2.96975e-17
0
1.6748e-17
0
0
1.21003e-17
-1.35023e-17
0
2.74655e-16
-2.20097e-16
4.84799e-17
-4.40721e-17
-1.85207e-17
5.37429e-17
6.15071e-17
-7.6964e-17
2.4904e-17
1.37406e-18
-2.45967e-17
1.01329e-16
-3.16016e-17
-7.5848e-17
2.65063e-17
-7.12226e-18
4.24276e-18
-1.34184e-18
-4.40906e-16
1.63787e-16
0
0
1.90242e-17
-1.93454e-17
1.45127e-17
1.01144e-17
6.99174e-17
3.6736e-17
-3.67752e-17
-1.12591e-18
-2.17571e-17
1.77429e-17
0
9.28997e-18
6.52807e-18
3.6331e-18
1.21283e-18
0
1.4301e-16
-1.34753e-16
4.34967e-17
4.61205e-17
-8.9533e-18
-2.96967e-17
-2.58717e-17
-8.77819e-17
3.63594e-17
-2.34365e-17
3.11856e-17
2.03455e-17
-2.64203e-17
2.80435e-17
1.86438e-17
-2.39635e-17
-3.3557e-18
0
-2.49118e-17
-1.13307e-16
4.10383e-17
3.87447e-17
-1.36156e-16
9.82709e-17
5.07754e-17
-5.19002e-17
4.11177e-17
-3.45069e-17
0
0
-3.1333e-17
5.67544e-17
-2.5357e-17
2.46374e-17
-2.6873e-17
4.55478e-18
-8.09876e-18
4.69622e-17
4.4303e-17
-4.0868e-17
3.3101e-17
-3.79169e-17
-5.99536e-17
0
0
0
0
0
0
1.61795e-17
-4.3881e-17
4.64089e-17
-1.56373e-17
1.92497e-17
9.23448e-18
-7.84822e-18
9.69186e-17
-1.68748e-16
2.11349e-16
-1.02422e-16
1.4122e-16
-1.07612e-16
2.02774e-16
-1.16175e-16
-6.54897e-17
6.6993e-17
0
1.95622e-17
-1.58065e-17
4.019e-17
-1.29201e-17
-1.73908e-17
-3.79493e-17
2.80685e-18
6.70481e-18
1.50623e-16
4.41377e-17
0
-7.09796e-17
-5.77824e-17
1.33721e-16
1.50242e-17
-5.66583e-17
3.42013e-17
-2.52605e-17
0
-1.54857e-17
0
-1.32751e-17
1.0925e-17
-1.00281e-17
-3.34256e-18
2.40092e-18
0
2.10669e-16
-4.66584e-17
2.00912e-16
-1.57549e-16
-3.25443e-17
1.32157e-16
-7.9239e-17
3.66096e-18
3.07405e-18
-2.47826e-17
2.4057e-17
0
0
1.59813e-17
-6.05724e-18
4.03281e-18
1.20838e-17
-4.20224e-18
0
4.15301e-20
0
-4.42376e-17
2.65171e-16
-1.80146e-16
-1.98301e-16
1.08954e-16
-1.19044e-16
1.11284e-16
5.70786e-17
-4.44663e-17
1.84439e-17
-1.66553e-17
2.74613e-18
2.87944e-17
1.26338e-18
-1.13652e-17
1.12484e-17
-2.2908e-18
5.14934e-16
-1.64764e-16
8.36138e-17
-2.56798e-16
7.19335e-17
-1.15771e-16
6.15663e-17
0
0
-2.36551e-18
-3.14619e-18
-9.25664e-19
0
-2.47942e-17
-1.92054e-17
1.43195e-17
-1.05656e-18
1.78883e-18
4.48363e-18
0
-1.64953e-16
2.84544e-16
6.69812e-17
-2.36912e-16
6.53455e-17
-1.03442e-16
1.5363e-17
8.61162e-17
0
0
1.62745e-18
1.98899e-17
0
-1.83955e-17
-8.55286e-18
1.25342e-18
-4.58057e-18
-5.13629e-18
0
-1.05176e-16
2.06823e-17
1.92192e-16
1.48955e-16
-2.75225e-16
1.2637e-16
-9.2048e-17
4.88407e-17
-7.05936e-17
0
0
0
-3.2455e-17
9.26541e-18
-1.1044e-17
0
-6.94763e-19
3.4946e-18
-3.88348e-16
3.69405e-16
4.04579e-16
-4.91897e-16
2.36652e-16
-2.2377e-16
0
9.65577e-17
-1.33221e-16
7.86393e-17
-6.29131e-17
5.25019e-17
4.34845e-17
3.35656e-17
2.68059e-17
0
0
0
0
4.27e-16
-2.49701e-16
0
0
-8.5674e-17
2.13743e-16
-1.37263e-16
-1.01805e-16
1.00658e-16
7.76421e-17
1.32714e-16
-5.44758e-17
2.32491e-17
1.80222e-17
1.35368e-17
1.09684e-17
1.7867e-17
-8.82416e-19
8.9882e-19
-4.33912e-16
4.01376e-16
2.1915e-16
-1.1331e-16
2.56942e-16
-1.65368e-16
-1.343e-16
-1.15672e-16
0
-1.62036e-16
7.09705e-18
6.12466e-17
-4.91414e-17
-4.05197e-17
-1.50113e-17
-1.60759e-17
-1.28235e-17
0
0
-1.49266e-16
0
1.18445e-16
-2.16023e-19
0
0
1.38535e-16
1.19358e-16
0
8.7354e-17
0
-9.31056e-17
-2.62527e-17
4.6927e-17
0
3.04148e-17
-4.31525e-18
4.40213e-18
0
3.16324e-16
0
2.29449e-16
-4.28744e-16
3.86893e-16
3.20132e-16
-8.83722e-18
0
8.05104e-18
1.00041e-16
0
-1.03023e-16
1.1705e-16
-1.04475e-16
-2.28669e-17
-2.44979e-17
-7.14404e-18
-1.26299e-18
-4.3932e-18
-2.96918e-16
4.28466e-16
-1.23214e-16
-3.26983e-16
-1.92088e-16
-1.68829e-16
-2.9617e-16
-1.21855e-16
8.65215e-18
4.61332e-17
-4.60465e-17
1.49443e-16
-6.61089e-17
1.34286e-16
-2.51726e-17
0
2.82265e-17
-1.64896e-17
4.45951e-18
6.50536e-16
-1.28817e-17
-5.08095e-16
4.29766e-16
-3.90322e-16
3.45639e-16
-9.78534e-18
-1.35429e-16
1.1988e-16
4.88094e-17
-5.87964e-18
-1.21236e-16
3.55973e-17
3.64344e-17
-1.12832e-17
1.14119e-17
-2.92358e-17
-2.59438e-18
-6.64315e-18
3.19355e-16
1.3727e-16
2.44544e-16
-2.1813e-16
-1.8415e-16
8.53505e-18
-1.45858e-16
3.54328e-16
1.07299e-17
1.68229e-16
9.92847e-17
-8.83538e-17
0
-6.31072e-17
0
0
3.94521e-17
1.75255e-17
7.76864e-18
3.01159e-16
0
2.41749e-16
2.16722e-16
-1.95301e-16
1.73623e-16
0
-1.39155e-16
-1.94275e-16
-1.71673e-16
-1.00163e-16
8.93529e-17
0
0
0
0
-3.69714e-17
-2.68359e-17
0
-5.90134e-16
0
-1.0604e-17
-9.36306e-18
2.9658e-16
-1.7065e-16
-7.90178e-17
-7.92811e-17
1.96337e-16
0
5.20531e-17
-5.55814e-18
4.60243e-17
0
0
6.02975e-17
-4.47681e-18
3.22146e-17
-1.19995e-17
4.15948e-16
1.21874e-16
-1.20616e-16
-1.08191e-16
-3.82086e-16
2.65409e-16
3.23923e-16
-7.64349e-18
-1.33336e-16
1.30896e-16
2.76928e-17
-1.39765e-16
-1.1542e-16
-6.87306e-17
-7.25754e-17
-6.94898e-17
5.67116e-17
-2.68544e-18
1.229e-17
-1.28349e-16
5.89662e-17
-2.85167e-16
4.97662e-17
-4.95851e-17
0
-1.60535e-16
-9.8135e-18
-1.48753e-16
1.11325e-17
1.45347e-16
1.08455e-16
-2.64016e-17
1.2283e-17
6.90816e-17
0
-1.17379e-16
-4.26985e-17
-8.89433e-19
2.59594e-16
-7.17736e-18
4.48201e-16
-2.15147e-16
3.92018e-19
5.80036e-18
1.74996e-16
-1.21835e-17
1.44266e-16
-1.35151e-16
-1.26987e-16
0
1.2471e-16
1.00413e-16
1.37974e-18
-2.00307e-18
6.31917e-17
4.34028e-17
0
-1.84814e-16
0
-4.61873e-17
2.04688e-16
2.65151e-18
4.73918e-17
-1.69218e-16
1.60413e-16
1.67927e-16
1.60748e-16
1.54263e-16
0
-1.21153e-16
0
6.34317e-18
-6.58795e-18
0
-6.23775e-19
3.05888e-17
1.27139e-16
5.98636e-18
-1.03326e-16
3.17448e-16
-1.02309e-16
0
0
-1.86671e-16
-1.62704e-16
-1.55729e-16
-2.80821e-16
-3.92098e-17
0
0
0
-1.2862e-17
1.36112e-17
8.67197e-17
-3.10536e-17
6.17673e-18
0
-2.20087e-16
-2.03166e-16
2.11706e-16
-2.09999e-16
-3.01564e-16
3.72069e-16
1.02309e-16
0
1.64748e-16
1.85062e-16
-3.99597e-17
2.16483e-16
-3.54137e-17
3.6857e-17
1.42813e-16
-8.24057e-17
0
-2.43181e-16
0
-2.33626e-16
2.29263e-16
0
4.17125e-16
1.96546e-16
-4.10914e-16
3.26781e-16
-2.23015e-18
-9.91894e-17
-1.79178e-16
0
2.44997e-16
-4.11352e-16
4.41238e-16
-5.62247e-16
0
0
2.4199e-16
-1.42466e-18
-3.51125e-18
-4.60981e-16
4.64559e-16
-2.25037e-16
2.2412e-16
2.20859e-16
-1.96668e-16
0
0
3.66956e-16
-3.73278e-16
-3.99823e-16
3.96122e-16
-3.85721e-16
4.17053e-16
-6.53153e-16
0
)
;

boundaryField
{
    up
    {
        type            calculated;
        value           nonuniform List<scalar> 
84
(
0
0
0
0
-2.23369e-17
4.03394e-17
-1.68623e-17
1.22899e-17
-1.07223e-17
0
-8.72303e-18
8.31163e-18
-5.92458e-18
4.79697e-19
4.08113e-19
4.40525e-18
0
0
-2.78767e-18
2.06813e-18
2.11742e-18
-2.056e-18
1.92636e-19
0
8.47932e-19
3.78131e-19
-7.73372e-18
0
1.03208e-17
1.22046e-17
1.57055e-18
-2.7058e-18
1.06403e-18
0
-5.23625e-19
1.03053e-18
-9.55712e-19
1.5198e-18
0
-2.62347e-19
0
0
-1.35082e-19
2.68669e-19
-2.59596e-19
5.19703e-19
-9.90102e-19
1.02979e-18
-1.06705e-20
-1.07325e-18
0
0
0
-1.35023e-17
-1.81808e-18
1.21283e-18
0
-8.09876e-18
-7.84822e-18
5.85982e-18
0
0
-2.2908e-18
4.48363e-18
-5.13629e-18
3.4946e-18
0
8.9882e-19
0
0
-4.3932e-18
4.45951e-18
-6.64315e-18
7.76864e-18
0
-1.19995e-17
1.229e-17
-8.89433e-19
0
3.05888e-17
-3.10536e-17
0
0
0
)
;
    }
    low
    {
        type            calculated;
        value           nonuniform List<scalar> 
84
(
-4.84419e-16
4.84196e-16
-2.37506e-16
3.73623e-16
6.54081e-17
-1.69967e-17
1.4205e-16
1.36386e-17
0
6.0404e-16
-1.53098e-16
1.29001e-16
-1.41892e-16
-9.12444e-16
1.49136e-16
0
-1.38936e-16
1.04933e-17
-1.00258e-17
-1.12284e-16
5.73435e-17
1.54147e-16
2.60781e-16
-2.33811e-16
0
-4.53125e-17
-2.32984e-17
0
-2.13545e-16
-6.02387e-17
-2.02622e-16
-2.19249e-16
2.37236e-16
8.14851e-17
5.59136e-16
4.47773e-17
0
3.75531e-16
3.63822e-16
2.06595e-16
-1.09668e-16
4.48504e-17
4.4852e-17
0
1.78546e-16
4.1024e-16
3.29732e-16
2.87882e-17
0
-7.74729e-16
4.77829e-16
7.12649e-20
6.74074e-20
1.86429e-16
0
-4.4e-16
0
-2.49118e-17
4.69622e-17
9.63869e-17
1.49684e-16
2.09789e-16
4.15301e-20
5.14189e-16
0
0
-3.88348e-16
4.26603e-16
-4.33635e-16
-1.49266e-16
3.16295e-16
-2.96918e-16
6.51433e-16
3.20006e-16
3.01159e-16
-5.90134e-16
4.15212e-16
-1.2758e-16
2.59594e-16
-1.84506e-16
1.27139e-16
6.73468e-18
-2.43181e-16
2.42143e-16
)
;
    }
    left
    {
        type            calculated;
        value           nonuniform List<scalar> 
19
(
-4.84112e-16
-2.35965e-16
2.39094e-16
4.74387e-18
-4.56868e-16
0
-2.14047e-16
-2.11052e-16
-1.40275e-17
-1.1083e-16
-1.0584e-18
-1.10145e-16
4.88872e-16
-1.08818e-16
5.08717e-16
4.3879e-16
2.60942e-16
3.82602e-16
0
)
;
    }
    right
    {
        type            calculated;
        value           nonuniform List<scalar> 
19
(
2.4199e-16
-1.25641e-18
-3.51125e-18
-4.60978e-16
4.64671e-16
-2.25037e-16
2.2412e-16
2.20859e-16
-1.9599e-16
0
0
3.70447e-16
-3.78196e-16
-3.99823e-16
3.96122e-16
-3.85721e-16
4.17053e-16
-7.06348e-16
0
)
;
    }
    frontAndBackPlanes
    {
        type            empty;
    }
}


// ************************************************************************* //
