/*--------------------------------*- C++ -*----------------------------------*\
  =========                 |
  \\      /  F ield         | OpenFOAM: The Open Source CFD Toolbox
   \\    /   O peration     | Website:  https://openfoam.org
    \\  /    A nd           | Version:  7
     \\/     M anipulation  |
\*---------------------------------------------------------------------------*/
FoamFile
{
    version     2.0;
    format      ascii;
    class       volScalarField;
    location    "0.309";
    object      gradTx;
}
// * * * * * * * * * * * * * * * * * * * * * * * * * * * * * * * * * * * * * //

dimensions      [0 -1 0 1 0 0 0];

internalField   nonuniform List<scalar> 
1596
(
-0.150674
-0.757444
-1.36167
-1.91593
-2.41992
-2.87456
-3.30062
-3.71125
-4.1235
-4.57074
-5.06083
-5.63375
-6.33811
-7.24749
-8.45095
-10.1789
-12.7908
-17.0646
-24.6092
0.0330366
-0.630984
-1.22461
-1.7449
-2.20645
-2.61344
-2.9844
-3.32573
-3.64996
-3.97383
-4.29745
-4.64137
-5.01122
-5.41654
-5.84489
-6.27594
-6.60697
-6.63122
-5.91214
0.183491
-0.517403
-1.09167
-1.57347
-1.98882
-2.34653
-2.66242
-2.94057
-3.18918
-3.41684
-3.62063
-3.81063
-3.98144
-4.12799
-4.2303
-4.25537
-4.12012
-3.68118
-2.66016
0.20703
-0.459072
-0.985169
-1.41673
-1.78134
-2.08971
-2.35416
-2.57792
-2.7661
-2.92282
-3.04523
-3.13766
-3.19341
-3.20489
-3.15612
-3.02049
-2.74385
-2.23907
-1.33926
0.0595282
-0.483171
-0.924407
-1.29053
-1.59916
-1.85844
-2.07598
-2.25414
-2.39569
-2.502
-2.5714
-2.60494
-2.59737
-2.54207
-2.42852
-2.23794
-1.93788
-1.47765
-0.760346
-0.24719
-0.599512
-0.923234
-1.20865
-1.45551
-1.66517
-1.83935
-1.97879
-2.08412
-2.15471
-2.19002
-2.18905
-2.14826
-2.06252
-1.92561
-1.72458
-1.44087
-1.04521
-0.48198
-0.655793
-0.798451
-0.986507
-1.17964
-1.35926
-1.51772
-1.65035
-1.75532
-1.83103
-1.8752
-1.8878
-1.86648
-1.80893
-1.71122
-1.5699
-1.376
-1.11921
-0.782619
-0.334228
-1.08442
-1.04295
-1.09818
-1.19638
-1.30671
-1.41329
-1.50562
-1.57876
-1.62891
-1.65224
-1.64859
-1.61473
-1.549
-1.44825
-1.31071
-1.12997
-0.900573
-0.612701
-0.247948
-1.52811
-1.35499
-1.29151
-1.29407
-1.33027
-1.37965
-1.42765
-1.46626
-1.48952
-1.49215
-1.47324
-1.42885
-1.35742
-1.25617
-1.12408
-0.956399
-0.750277
-0.499926
-0.194546
-1.7936
-1.5709
-1.43662
-1.37022
-1.34767
-1.34941
-1.35985
-1.36912
-1.36983
-1.35567
-1.3249
-1.2732
-1.19893
-1.09957
-0.974515
-0.820209
-0.635328
-0.416598
-0.157695
-2.00834
-1.76402
-1.58691
-1.4695
-1.39766
-1.35601
-1.33045
-1.31069
-1.28866
-1.25747
-1.21453
-1.15531
-1.07789
-0.979846
-0.860641
-0.717462
-0.549768
-0.355766
-0.131842
-2.22524
-1.97832
-1.7746
-1.61735
-1.50151
-1.41734
-1.35402
-1.30222
-1.25408
-1.20258
-1.14447
-1.07503
-0.99199
-0.892822
-0.776829
-0.641563
-0.486768
-0.311416
-0.113391
-2.27909
-2.06521
-1.86621
-1.69637
-1.55871
-1.44917
-1.36081
-1.2863
-1.21881
-1.15183
-1.08198
-1.00468
-0.917519
-0.818007
-0.705366
-0.577474
-0.434226
-0.275071
-0.0987627
-2.28608
-2.1086
-1.92683
-1.75771
-1.60961
-1.48349
-1.3763
-1.2832
-1.19894
-1.11792
-1.037
-0.951929
-0.860272
-0.759623
-0.649118
-0.526859
-0.392765
-0.246544
-0.0874679
-2.2731
-2.12878
-1.96848
-1.80773
-1.65702
-1.52096
-1.39987
-1.29155
-1.19261
-1.09866
-1.00713
-0.91422
-0.817597
-0.714965
-0.605401
-0.48716
-0.360126
-0.224114
-0.0786589
-2.20791
-2.099
-1.96468
-1.81985
-1.67549
-1.53825
-1.41095
-1.2937
-1.18497
-1.08174
-0.982213
-0.883203
-0.78263
-0.678386
-0.569569
-0.454606
-0.333387
-0.205809
-0.071538
-2.0896
-2.01398
-1.90786
-1.78437
-1.65387
-1.52376
-1.39833
-1.27942
-1.16706
-1.05956
-0.955965
-0.853804
-0.751343
-0.646729
-0.539156
-0.427266
-0.311055
-0.190586
-0.0656727
-1.9533
-1.89874
-1.81723
-1.71578
-1.6025
-1.48436
-1.36622
-1.251
-1.13991
-1.03239
-0.928273
-0.825766
-0.723502
-0.619877
-0.514154
-0.40517
-0.293091
-0.178292
-0.0609133
-1.83896
-1.80161
-1.73921
-1.6559
-1.55752
-1.45023
-1.33911
-1.22779
-1.11848
-1.01158
-0.907616
-0.805406
-0.703864
-0.601508
-0.497504
-0.390661
-0.281194
-0.169874
-0.0574611
-1.64712
-1.63189
-1.59103
-1.52948
-1.45171
-1.36267
-1.26691
-1.1681
-1.06888
-0.97022
-0.87314
-0.776962
-0.68088
-0.583551
-0.483987
-0.380784
-0.273974
-0.164733
-0.055055
-1.43782
-1.44014
-1.41872
-1.37771
-1.32063
-1.25135
-1.17366
-1.09095
-1.00587
-0.919661
-0.833556
-0.747202
-0.659987
-0.570668
-0.478018
-0.380073
-0.275968
-0.166447
-0.0549248
-1.22194
-1.2359
-1.23083
-1.20868
-1.17171
-1.12271
-1.06471
-1.0006
-0.932843
-0.862657
-0.791209
-0.718253
-0.643258
-0.565114
-0.482457
-0.39266
-0.293075
-0.181748
-0.0605827
-0.98489
-1.00506
-1.01346
-1.0093
-0.993106
-0.966363
-0.931164
-0.889682
-0.843966
-0.794919
-0.743259
-0.688594
-0.630249
-0.567339
-0.498802
-0.422015
-0.332694
-0.22406
-0.0874113
-0.7193
-0.71072
-0.692976
-0.666459
-0.633522
-0.597236
-0.561086
-0.527809
-0.499286
-0.475737
-0.455808
-0.437004
-0.416399
-0.391424
-0.360105
-0.32024
-0.26817
-0.195843
-0.0878303
-0.481527
-0.539631
-0.608018
-0.67833
-0.744518
-0.802038
-0.848608
-0.883096
-0.9056
-0.91637
-0.914878
-0.900872
-0.873779
-0.834733
-0.785736
-0.728976
-0.663987
-0.585883
-0.480438
-0.164275
-0.194879
-0.23635
-0.283614
-0.332968
-0.38172
-0.428845
-0.47379
-0.516713
-0.557265
-0.593056
-0.621562
-0.638598
-0.641973
-0.631648
-0.611399
-0.584752
-0.556065
-0.526562
0.153865
0.114849
0.0602541
-0.00493759
-0.0761934
-0.149964
-0.224275
-0.298131
-0.371415
-0.443807
-0.512849
-0.575088
-0.624672
-0.656906
-0.669628
-0.66621
-0.651519
-0.631947
-0.610525
0.472848
0.420222
0.347957
0.261971
0.167565
0.0689792
-0.031181
-0.131768
-0.23277
-0.334349
-0.434716
-0.530219
-0.613788
-0.677798
-0.716586
-0.731364
-0.727527
-0.7137
-0.695112
0.763713
0.690873
0.596771
0.488685
0.372355
0.252305
0.131193
0.00985448
-0.11229
-0.236415
-0.362133
-0.48675
-0.60306
-0.700875
-0.76978
-0.806394
-0.814493
-0.804884
-0.786447
1.06917
0.972338
0.854277
0.722823
0.584076
0.442841
0.301734
0.161259
0.0202279
-0.123653
-0.271757
-0.423488
-0.573209
-0.709794
-0.817894
-0.886793
-0.914291
-0.911161
-0.891398
1.3053
1.1804
1.03764
0.885042
0.728816
0.573418
0.420783
0.270613
0.120883
-0.0319092
-0.191032
-0.358857
-0.533381
-0.705823
-0.858433
-0.972265
-1.0329
-1.04375
-1.0211
1.53228
1.38268
1.21583
1.04287
0.870529
0.702764
0.540793
0.383645
0.228783
0.0720102
-0.0912283
-0.266164
-0.455729
-0.657462
-0.857233
-1.03282
-1.15437
-1.20568
-1.19368
1.74942
1.56792
1.37516
1.18268
0.996454
0.819321
0.651497
0.491343
0.336114
0.181549
0.0229198
-0.146374
-0.333326
-0.543719
-0.774149
-1.01212
-1.22255
-1.3644
-1.39604
1.90119
1.67124
1.43878
1.21402
1.00107
0.80111
0.613109
0.43483
0.263447
0.0950877
-0.0743949
-0.251129
-0.443151
-0.661573
-0.915668
-1.21421
-1.54541
-1.87945
-2.15827
2.00769
1.75382
1.51558
1.29959
1.10596
0.932882
0.777256
0.636005
0.506182
0.384968
0.270262
0.159446
0.0495357
-0.0644861
-0.190551
-0.344647
-0.544519
-0.811165
-1.15618
2.09673
1.83147
1.59912
1.39745
1.22158
1.06717
0.929805
0.80608
0.693213
0.588842
0.491793
0.401128
0.31653
0.23827
0.167323
0.103476
0.0454374
-0.0130755
-0.0843353
2.01066
1.70668
1.45127
1.23453
1.04827
0.886553
0.744162
0.61729
0.502995
0.398802
0.303516
0.216212
0.136508
0.0646882
0.00199781
-0.0502218
-0.0897113
-0.114237
-0.122719
1.78639
1.50439
1.27227
1.07854
0.914539
0.773971
0.65171
0.544014
0.448134
0.361855
0.284042
0.213841
0.150711
0.0944725
0.0453161
0.00312623
-0.0321283
-0.0606247
-0.0829304
1.50021
1.25948
1.06195
0.898211
0.760745
0.643863
0.543035
0.454907
0.37706
0.30755
0.245274
0.189374
0.139137
0.0940952
0.0540378
0.0185499
-0.0126392
-0.0396739
-0.062923
1.13944
0.951671
0.799582
0.674967
0.571397
0.484066
0.409284
0.344326
0.287263
0.236544
0.191232
0.150598
0.113982
0.0809267
0.0511892
0.0244368
0.000496105
-0.0206236
-0.0390873
0.722071
0.596564
0.497925
0.418656
0.353606
0.299215
0.252923
0.212888
0.177832
0.146737
0.118966
0.0940262
0.0714565
0.0509303
0.0322668
0.0152515
-0.000212697
-0.0140621
-0.0263305
0.278526
0.228549
0.190581
0.160458
0.135805
0.115149
0.097503
0.0821751
0.068693
0.0566816
0.0458972
0.0361494
0.0272554
0.0190796
0.0115349
0.00452433
-0.0020085
-0.00805201
-0.013616
-0.278393
-0.228261
-0.190195
-0.160014
-0.135331
-0.114665
-0.0970237
-0.081713
-0.0682575
-0.0562806
-0.045537
-0.035835
-0.0269912
-0.0188691
-0.0113808
-0.00442887
0.00204406
0.00802768
0.0135327
-0.721949
-0.596314
-0.497594
-0.418278
-0.353206
-0.298811
-0.252531
-0.212518
-0.177493
-0.146437
-0.118711
-0.0938209
-0.0713043
-0.0508342
-0.0322287
-0.0152726
0.000131999
0.0139232
0.0261359
-1.13932
-0.951437
-0.799266
-0.674597
-0.570995
-0.483649
-0.408868
-0.343922
-0.28688
-0.23619
-0.190913
-0.150318
-0.113744
-0.080731
-0.0510353
-0.0243228
-0.000418595
0.0206691
0.0391057
-1.50013
-1.25933
-1.06175
-0.897978
-0.760496
-0.643611
-0.542792
-0.454682
-0.376863
-0.307389
-0.245153
-0.189298
-0.139107
-0.0941107
-0.0540959
-0.0186462
0.0125107
0.0395198
0.0627497
-1.78634
-1.50431
-1.27215
-1.0784
-0.91438
-0.773806
-0.65155
-0.543869
-0.448013
-0.361767
-0.283993
-0.213837
-0.150755
-0.0945624
-0.0454477
-0.00329032
0.0319451
0.0604392
0.0827623
-2.01068
-1.70668
-1.45125
-1.23449
-1.04822
-0.886494
-0.744112
-0.617259
-0.502996
-0.398847
-0.303617
-0.216379
-0.136751
-0.0650129
-0.00240211
0.0497535
0.089219
0.113786
0.122387
-2.09675
-1.83133
-1.59876
-1.39684
-1.2207
-1.06603
-0.928419
-0.80446
-0.691377
-0.586806
-0.48957
-0.398729
-0.313962
-0.235539
-0.16445
-0.100539
-0.0426307
0.0153377
0.0853639
-2.00808
-1.75485
-1.51727
-1.30195
-1.10897
-0.936528
-0.781516
-0.640861
-0.511621
-0.390993
-0.276893
-0.166738
-0.0575947
0.0554663
0.180272
0.33268
0.530426
0.794723
1.13772
-1.90106
-1.67086
-1.4381
-1.213
-0.999734
-0.799452
-0.611151
-0.432602
-0.260979
-0.092418
0.0772228
0.254063
0.446127
0.664534
0.918618
1.21731
1.54912
1.88459
2.16594
-1.74956
-1.56824
-1.37564
-1.18328
-0.997161
-0.820105
-0.652345
-0.492245
-0.337069
-0.182562
-0.0240074
0.145194
0.332047
0.542384
0.772891
1.0112
1.22229
1.365
1.39725
-1.53237
-1.38288
-1.21613
-1.04325
-0.870967
-0.703246
-0.54131
-0.384196
-0.229369
-0.0726372
0.0905542
0.265448
0.455007
0.656825
0.856833
1.03283
1.15489
1.20663
1.19485
-1.30539
-1.1806
-1.03794
-0.885421
-0.729257
-0.573904
-0.421304
-0.27116
-0.121451
0.0313222
0.190437
0.35828
0.532881
0.705493
0.858378
0.972551
1.0335
1.04454
1.02195
-1.06925
-0.972531
-0.854571
-0.723202
-0.584522
-0.443334
-0.30226
-0.161804
-0.0207814
0.123104
0.271236
0.423031
0.572876
0.709654
0.818
0.887146
0.914833
0.911806
0.892089
-0.763783
-0.691048
-0.597043
-0.48904
-0.372773
-0.252767
-0.131681
-0.010353
0.111797
0.235949
0.361719
0.486426
0.602874
0.700869
0.769971
0.806758
0.814978
0.805439
0.787046
-0.472921
-0.420401
-0.348234
-0.262333
-0.167991
-0.0694492
0.0306895
0.131276
0.232298
0.333922
0.434361
0.529971
0.613681
0.677853
0.7168
0.731711
0.727969
0.714206
0.695672
-0.153926
-0.115014
-0.0605172
0.00459087
0.0757838
0.149515
0.223811
0.297676
0.370992
0.443443
0.512569
0.57492
0.624637
0.657012
0.669865
0.666556
0.651951
0.63245
0.611099
0.164137
0.194458
0.235625
0.28259
0.331675
0.380209
0.427179
0.472038
0.514946
0.555552
0.591459
0.620135
0.637374
0.640966
0.630853
0.610811
0.584381
0.555974
0.526907
0.481627
0.540012
0.608761
0.679481
0.746088
0.804004
0.850921
0.885688
0.908392
0.919285
0.917841
0.90382
0.876664
0.837523
0.788414
0.731544
0.666446
0.588231
0.482645
0.719201
0.710354
0.692328
0.665544
0.632378
0.595919
0.559659
0.526337
0.497826
0.474341
0.454512
0.435835
0.415372
0.390544
0.359368
0.319642
0.267707
0.195521
0.0876858
0.984954
1.00519
1.01366
1.00955
0.993406
0.96669
0.931498
0.890004
0.844261
0.795177
0.743473
0.688764
0.630377
0.567429
0.498858
0.422042
0.332695
0.224045
0.0873995
1.22196
1.23592
1.23086
1.20871
1.17175
1.12275
1.06475
1.00064
0.932877
0.862683
0.791227
0.718263
0.643259
0.565108
0.482446
0.392644
0.293057
0.181733
0.0605781
1.43784
1.44016
1.41874
1.37774
1.32067
1.25138
1.17369
1.09097
1.00589
0.919677
0.833566
0.747204
0.659984
0.570661
0.478007
0.38006
0.275956
0.16644
0.0549228
1.64713
1.63191
1.59105
1.5295
1.45174
1.36269
1.26693
1.16812
1.0689
0.970228
0.873143
0.77696
0.680874
0.583542
0.483978
0.380774
0.273967
0.164729
0.0550537
1.83897
1.80163
1.73923
1.65592
1.55755
1.45025
1.33912
1.2278
1.11849
1.01158
0.907615
0.805402
0.703857
0.6015
0.497495
0.390653
0.281189
0.16987
0.0574602
1.95331
1.89876
1.81724
1.7158
1.60252
1.48437
1.36624
1.25101
1.13992
1.03239
0.92827
0.82576
0.723495
0.619869
0.514146
0.405163
0.293086
0.178289
0.0609126
2.08961
2.01399
1.90788
1.78438
1.65388
1.52377
1.39834
1.27942
1.16706
1.05955
0.95596
0.853797
0.751335
0.646722
0.539149
0.427261
0.311052
0.190584
0.0656722
2.20792
2.09901
1.96469
1.81986
1.6755
1.53825
1.41095
1.2937
1.18496
1.08174
0.982208
0.883197
0.782624
0.678379
0.569563
0.454601
0.333384
0.205808
0.0715377
2.27311
2.12879
1.96849
1.80773
1.65703
1.52096
1.39987
1.29155
1.1926
1.09866
1.00713
0.914213
0.81759
0.714959
0.605396
0.487156
0.360123
0.224112
0.0786588
2.28609
2.10861
1.92683
1.75772
1.60961
1.48349
1.3763
1.2832
1.19894
1.11791
1.037
0.951923
0.860266
0.759618
0.649114
0.526857
0.392764
0.246543
0.087468
2.27909
2.06523
1.86622
1.69638
1.55871
1.44917
1.36081
1.28629
1.21881
1.15183
1.08198
1.00468
0.917516
0.818005
0.705364
0.577474
0.434226
0.275071
0.0987633
2.22523
1.97832
1.7746
1.61734
1.5015
1.41734
1.35401
1.30221
1.25408
1.20257
1.14446
1.07503
0.991985
0.892819
0.776826
0.641562
0.486768
0.311417
0.113392
2.00836
1.76403
1.58692
1.46951
1.39767
1.35601
1.33045
1.31068
1.28866
1.25747
1.21453
1.15531
1.07789
0.979845
0.860642
0.717463
0.54977
0.355768
0.131843
1.79362
1.57092
1.43663
1.37022
1.34767
1.34941
1.35985
1.36912
1.36983
1.35567
1.32489
1.2732
1.19893
1.09957
0.974517
0.820212
0.635331
0.416601
0.157696
1.52813
1.355
1.29152
1.29407
1.33027
1.37965
1.42765
1.46626
1.48952
1.49215
1.47324
1.42885
1.35742
1.25617
1.12408
0.956404
0.750281
0.499929
0.194547
1.08444
1.04295
1.09818
1.19638
1.30671
1.41329
1.50562
1.57876
1.62891
1.65224
1.64859
1.61473
1.549
1.44825
1.31071
1.12997
0.900576
0.612703
0.247948
0.655804
0.798457
0.986511
1.17964
1.35926
1.51772
1.65035
1.75531
1.83103
1.8752
1.8878
1.86648
1.80894
1.71122
1.56991
1.376
1.11921
0.782621
0.334228
0.247197
0.599517
0.923238
1.20865
1.45551
1.66517
1.83935
1.97879
2.08412
2.15471
2.19002
2.18905
2.14826
2.06252
1.92561
1.72458
1.44087
1.04521
0.48198
-0.0595238
0.483175
0.92441
1.29053
1.59917
1.85844
2.07598
2.25414
2.39569
2.502
2.5714
2.60495
2.59737
2.54207
2.42852
2.23794
1.93788
1.47765
0.760345
-0.207029
0.459074
0.985171
1.41673
1.78134
2.08971
2.35416
2.57792
2.7661
2.92282
3.04523
3.13766
3.19341
3.20489
3.15612
3.02049
2.74385
2.23907
1.33925
-0.183492
0.517403
1.09167
1.57347
1.98882
2.34653
2.66242
2.94057
3.18918
3.41684
3.62063
3.81063
3.98144
4.12799
4.2303
4.25537
4.12012
3.68118
2.66016
-0.033037
0.630984
1.22461
1.7449
2.20645
2.61344
2.9844
3.32573
3.64996
3.97383
4.29745
4.64137
5.01121
5.41654
5.84489
6.27594
6.60696
6.63121
5.91214
0.150675
0.757445
1.36167
1.91593
2.41992
2.87456
3.30062
3.71125
4.1235
4.57074
5.06083
5.63374
6.33811
7.24748
8.45094
10.1789
12.7907
17.0646
24.6092
)
;

boundaryField
{
    up
    {
        type            calculated;
        value           nonuniform List<scalar> 
84
(
-24.6092
-5.91214
-2.66016
-1.33926
-0.760346
-0.48198
-0.334228
-0.247948
-0.194546
-0.157695
-0.131842
-0.113391
-0.0987627
-0.0874679
-0.0786589
-0.071538
-0.0656727
-0.0609133
-0.0574611
-0.055055
-0.0549248
-0.0605827
-0.0874113
-0.0878303
-0.413268
-0.49644
-0.582351
-0.665881
-0.754531
-0.854952
-0.97584
-1.12538
-1.29083
-2.15354
-1.20158
-0.0868592
-0.122752
-0.0828786
-0.0628878
-0.039079
-0.0263307
-0.0136222
0.0135389
0.0261363
0.0390977
0.0627148
0.0827107
0.122419
0.0878565
1.1825
2.16271
1.29189
1.1264
0.976646
0.855622
0.755123
0.666444
0.58294
0.496992
0.415291
0.0876858
0.0873995
0.0605781
0.0549228
0.0550537
0.0574602
0.0609126
0.0656722
0.0715377
0.0786588
0.087468
0.0987633
0.113392
0.131843
0.157696
0.194547
0.247948
0.334228
0.48198
0.760345
1.33925
2.66016
5.91214
24.6092
)
;
    }
    low
    {
        type            calculated;
        value           nonuniform List<scalar> 
84
(
-0.136019
0.0548473
0.21902
0.245992
0.0842167
-0.25179
-0.693892
-1.14869
-1.60238
-1.85394
-2.06015
-2.26489
-2.29206
-2.28219
-2.25831
-2.17824
-2.04774
-1.90855
-1.78726
-1.58296
-1.36857
-1.15299
-0.919001
-0.662443
-0.437768
-0.14859
0.135974
0.427911
0.70498
1.0086
1.25328
1.48761
1.71661
1.88502
2.00541
2.11152
2.04447
1.82512
1.53622
1.16898
0.742047
0.286987
-0.286852
-0.74192
-1.16885
-1.53612
-1.82506
-2.04446
-2.11151
-2.00574
-1.88489
-1.71672
-1.48769
-1.25336
-1.00868
-0.705053
-0.427988
-0.136036
0.148455
0.437867
0.662351
0.919057
1.15301
1.36859
1.58298
1.78727
1.90856
2.04775
2.17825
2.25831
2.2822
2.29207
2.26489
2.06016
1.85396
1.6024
1.1487
0.693904
0.251798
-0.0842123
-0.245992
-0.219023
-0.0548488
0.13602
)
;
    }
    left
    {
        type            calculated;
        value           nonuniform List<scalar> 
19
(
-0.13348
-0.726401
-1.34231
-1.91513
-2.44031
-2.91586
-3.3644
-3.80134
-4.2438
-4.73429
-5.28013
-5.92704
-6.73959
-7.81782
-9.27463
-11.4353
-14.7989
-20.452
-21.3452
)
;
    }
    right
    {
        type            calculated;
        value           nonuniform List<scalar> 
19
(
0.133481
0.726403
1.34231
1.91513
2.44031
2.91586
3.3644
3.80134
4.2438
4.73429
5.28012
5.92704
6.73959
7.81781
9.27462
11.4353
14.7989
20.452
21.3452
)
;
    }
    frontAndBackPlanes
    {
        type            empty;
    }
}


// ************************************************************************* //
