/*--------------------------------*- C++ -*----------------------------------*\
  =========                 |
  \\      /  F ield         | OpenFOAM: The Open Source CFD Toolbox
   \\    /   O peration     | Website:  https://openfoam.org
    \\  /    A nd           | Version:  7
     \\/     M anipulation  |
\*---------------------------------------------------------------------------*/
FoamFile
{
    version     2.0;
    format      ascii;
    class       volScalarField;
    location    "0.11";
    object      gradTy;
}
// * * * * * * * * * * * * * * * * * * * * * * * * * * * * * * * * * * * * * //

dimensions      [0 -1 0 1 0 0 0];

internalField   nonuniform List<scalar> 
1596
(
-0.935352
-1.72052
-2.33158
-2.87483
-3.34222
-3.8018
-4.21529
-4.65538
-5.14005
-5.67885
-6.44303
-7.4147
-8.81425
-10.8864
-14.232
-19.5688
-29.2504
-47.2181
-111.527
-2.82416
-3.43141
-3.77539
-4.02681
-4.20867
-4.40695
-4.59717
-4.85073
-5.18867
-5.60796
-6.25694
-7.10566
-8.30556
-9.96799
-12.4078
-15.7687
-20.8439
-28.3468
-49.6503
-4.9832
-5.11374
-5.08475
-5.01286
-4.90773
-4.84997
-4.81862
-4.87901
-5.04841
-5.31549
-5.8046
-6.47349
-7.42973
-8.72441
-10.554
-12.9286
-16.285
-20.9098
-30.7868
-7.15156
-6.68122
-6.24146
-5.84308
-5.46287
-5.16207
-4.91921
-4.78947
-4.78523
-4.88979
-5.20475
-5.6819
-6.39843
-7.37465
-8.74071
-10.4556
-12.7832
-15.8282
-20.9999
-9.03524
-8.04292
-7.23391
-6.53974
-5.912
-5.39016
-4.9531
-4.64453
-4.4729
-4.419
-4.56352
-4.85827
-5.35844
-6.06899
-7.08107
-8.33895
-10.0157
-12.1374
-15.2142
-10.4102
-9.12527
-8.0548
-7.12633
-6.29305
-5.58039
-4.97203
-4.50165
-4.17579
-3.97532
-3.96221
-4.09215
-4.40348
-4.89341
-5.62805
-6.55238
-7.78759
-9.32737
-11.3626
-11.1989
-9.88449
-8.69447
-7.61477
-6.62937
-5.76299
-5.01037
-4.39902
-3.93605
-3.60476
-3.45096
-3.43625
-3.58548
-3.89174
-4.40305
-5.07108
-5.98393
-7.12481
-8.56757
-11.4613
-10.3088
-9.13541
-7.99559
-6.91892
-5.9418
-5.07598
-4.34788
-3.76793
-3.32391
-3.04856
-2.91014
-2.92262
-3.07656
-3.4057
-3.86984
-4.53364
-5.37957
-6.43723
-11.3415
-10.4721
-9.41733
-8.29486
-7.18116
-6.13241
-5.18102
-4.35765
-3.67857
-3.13774
-2.75834
-2.51515
-2.41359
-2.44235
-2.62324
-2.92331
-3.38897
-4.00524
-4.78424
-10.9459
-10.3525
-9.47239
-8.43376
-7.34045
-6.26779
-5.26802
-4.37994
-3.62739
-3.01168
-2.55012
-2.22354
-2.03119
-1.96041
-2.02319
-2.19247
-2.50018
-2.93467
-3.50129
-10.5369
-10.1179
-9.39567
-8.46176
-7.41995
-6.35532
-5.33486
-4.4064
-3.60181
-2.93006
-2.4057
-2.01489
-1.7528
-1.60576
-1.57779
-1.64596
-1.83034
-2.12164
-2.52212
-10.0959
-9.84554
-9.262
-8.43108
-7.45153
-6.4117
-5.38774
-4.4356
-3.59468
-2.88122
-2.30936
-1.86976
-1.5551
-1.35103
-1.25526
-1.24749
-1.33823
-1.51935
-1.7912
-9.59406
-9.48746
-9.02974
-8.29999
-7.39104
-6.39202
-5.38336
-4.42735
-3.56941
-2.83193
-2.23021
-1.75854
-1.40849
-1.16537
-1.02228
-0.960564
-0.983421
-1.08315
-1.25864
-9.18287
-9.14262
-8.77161
-8.12252
-7.27595
-6.31898
-5.33272
-4.38375
-3.5216
-2.77324
-2.15563
-1.66562
-1.29445
-1.02722
-0.8538
-0.756374
-0.732775
-0.775107
-0.880976
-8.82876
-8.83705
-8.52174
-7.92896
-7.12976
-6.20823
-5.24444
-4.30741
-3.44913
-2.6995
-2.07685
-1.57958
-1.19882
-0.919446
-0.729079
-0.610295
-0.557121
-0.561222
-0.619114
-8.49702
-8.55712
-8.28314
-7.72795
-6.96085
-6.06542
-5.12081
-4.19748
-3.34852
-2.6052
-1.98652
-1.49137
-1.11063
-0.828871
-0.632104
-0.503034
-0.433132
-0.413622
-0.440194
-8.21339
-8.30761
-8.06169
-7.5283
-6.77831
-5.89779
-4.96641
-4.05584
-3.2193
-2.48805
-1.88068
-1.39555
-1.02286
-0.746625
-0.551656
-0.420652
-0.343458
-0.310978
-0.318366
-7.98074
-8.09959
-7.87056
-7.34524
-6.59811
-5.72006
-4.79357
-3.89188
-3.06795
-2.35196
-1.76093
-1.29166
-0.933071
-0.668279
-0.481073
-0.354076
-0.276138
-0.238002
-0.234534
-7.7417
-7.92695
-7.72228
-7.1993
-6.44395
-5.55592
-4.6238
-3.72374
-2.90881
-2.20758
-1.63451
-1.18397
-0.842919
-0.59315
-0.417396
-0.298126
-0.223568
-0.184428
-0.175459
-7.48093
-7.755
-7.58945
-7.07174
-6.30373
-5.39823
-4.45325
-3.54969
-2.74137
-2.05498
-1.5016
-1.07243
-0.751819
-0.51989
-0.358268
-0.249249
-0.180721
-0.143492
-0.132358
-7.26061
-7.60598
-7.48177
-6.97025
-6.18568
-5.25578
-4.29068
-3.37789
-2.5728
-1.90011
-1.36685
-0.960377
-0.661838
-0.449365
-0.30338
-0.205994
-0.144932
-0.111223
-0.0998393
-7.05947
-7.48048
-7.40023
-6.89674
-6.09427
-5.1355
-4.14464
-3.21735
-2.41161
-1.75038
-1.23623
-0.852279
-0.57602
-0.383334
-0.25336
-0.16799
-0.114866
-0.0852919
-0.0745621
-6.85925
-7.36878
-7.33971
-6.84878
-6.03006
-5.04111
-4.02125
-3.0755
-2.2654
-1.61269
-1.11546
-0.752483
-0.497368
-0.323628
-0.209083
-0.135356
-0.0899631
-0.0643446
-0.0542124
-6.66476
-7.265
-7.28955
-6.81237
-5.97782
-4.95746
-3.90694
-2.94056
-2.12417
-1.47878
-0.997348
-0.654861
-0.420659
-0.265832
-0.166791
-0.105022
-0.0677061
-0.0460389
-0.0344749
-6.4942
-7.18381
-7.28694
-6.86479
-6.06101
-5.04861
-3.99153
-3.01008
-2.17661
-1.51651
-1.023
-0.672336
-0.432501
-0.274139
-0.172861
-0.109978
-0.0718387
-0.0491062
-0.0348145
-6.36308
-7.1164
-7.28749
-6.93065
-6.1793
-5.19862
-4.15184
-3.16236
-2.30895
-1.62404
-1.10514
-0.732352
-0.474629
-0.302734
-0.191686
-0.122356
-0.080222
-0.0555379
-0.041195
-6.34469
-7.11218
-7.31808
-7.00934
-6.30635
-5.36295
-4.33529
-3.34597
-2.47738
-1.76814
-1.22134
-0.821667
-0.540409
-0.349347
-0.223582
-0.143767
-0.094693
-0.0658965
-0.0494579
-6.45491
-7.18533
-7.38491
-7.09703
-6.42979
-5.52297
-4.52115
-3.54128
-2.66578
-1.93748
-1.3646
-0.937067
-0.629297
-0.414945
-0.269897
-0.175323
-0.115773
-0.080306
-0.059959
-6.67453
-7.33723
-7.49845
-7.20795
-6.56378
-5.6905
-4.71845
-3.75534
-2.8804
-2.13863
-1.54235
-1.08691
-0.750312
-0.508625
-0.338997
-0.223937
-0.148554
-0.102233
-0.0750397
-6.99131
-7.55064
-7.64932
-7.33995
-6.70983
-5.86771
-4.92858
-3.98874
-3.12193
-2.37335
-1.75818
-1.27704
-0.911505
-0.640243
-0.441545
-0.299694
-0.20124
-0.13758
-0.0987241
-7.39459
-7.82485
-7.85005
-7.51308
-6.8903
-6.07558
-5.16919
-4.25537
-3.40119
-2.65063
-2.02057
-1.51653
-1.12361
-0.822869
-0.592842
-0.418789
-0.288398
-0.197364
-0.138426
-7.80424
-8.12992
-8.08767
-7.72276
-7.1052
-6.31633
-5.44301
-4.55776
-3.72045
-2.97294
-2.33285
-1.81035
-1.39421
-1.06827
-0.810261
-0.604315
-0.435502
-0.303364
-0.208842
-8.25707
-8.47856
-8.36729
-7.97139
-7.35554
-6.58994
-5.74915
-4.89443
-4.0781
-3.33903
-2.6945
-2.159
-1.72551
-1.38218
-1.10685
-0.881937
-0.683052
-0.504175
-0.340977
-8.78046
-8.89084
-8.70841
-8.28035
-7.6655
-6.92381
-6.11782
-5.29816
-4.50926
-3.78602
-3.14511
-2.60374
-2.15988
-1.80841
-1.53221
-1.31732
-1.13338
-0.96446
-0.791811
-9.34725
-9.33971
-9.06736
-8.58513
-7.94845
-7.20986
-6.42094
-5.6238
-4.85544
-4.14515
-3.50902
-2.96299
-2.50845
-2.14498
-1.8639
-1.65993
-1.51323
-1.40949
-1.32667
-9.98168
-9.81862
-9.42993
-8.87055
-8.18936
-7.43193
-6.64057
-5.85117
-5.09493
-4.39594
-3.7701
-3.23026
-2.77881
-2.41542
-2.13475
-1.93192
-1.79613
-1.72076
-1.69663
-10.6827
-10.3376
-9.82582
-9.1853
-8.45374
-7.66861
-6.8651
-6.0741
-5.32272
-4.63166
-4.016
-3.48658
-3.04552
-2.69171
-2.41962
-2.22124
-2.08406
-1.99657
-1.94506
-11.302
-10.798
-10.178
-9.46445
-8.68602
-7.87339
-7.05642
-6.26167
-5.5129
-4.82812
-4.22085
-3.70058
-3.26871
-2.92356
-2.65949
-2.46809
-2.33712
-2.2552
-2.209
-11.7794
-11.1732
-10.4758
-9.7071
-8.89216
-8.05766
-7.22981
-6.43199
-5.68546
-5.00607
-4.40623
-3.8943
-3.47118
-3.13477
-2.87949
-2.69657
-2.57404
-2.5003
-2.46199
-12.1518
-11.4695
-10.7137
-9.90293
-9.05979
-8.20825
-7.37181
-6.57152
-5.82675
-5.15175
-4.55811
-4.05327
-3.63774
-3.3091
-3.06177
-2.88663
-2.7719
-2.7058
-2.67495
-12.4219
-11.683
-10.8831
-10.0411
-9.17753
-8.31386
-7.47143
-6.66955
-5.92625
-5.25464
-4.66573
-4.16635
-3.7567
-3.43411
-3.19297
-3.02385
-2.91504
-2.85449
-2.82875
-12.6078
-11.8074
-10.9732
-10.1111
-9.23569
-8.36557
-7.52029
-6.71801
-5.97597
-5.30662
-4.72068
-4.22462
-3.81852
-3.49956
-3.2622
-3.09689
-2.99203
-2.93553
-2.9139
-12.6079
-11.8075
-10.9733
-10.1112
-9.23586
-8.36575
-7.52048
-6.71821
-5.97617
-5.30683
-4.72089
-4.22483
-3.81873
-3.49978
-3.26242
-3.09712
-2.99227
-2.93578
-2.91416
-12.4219
-11.6832
-10.8834
-10.0415
-9.17798
-8.31436
-7.47196
-6.67011
-5.92684
-5.25524
-4.66634
-4.16696
-3.75732
-3.43474
-3.19362
-3.02452
-2.91575
-2.85526
-2.82959
-12.1519
-11.4698
-10.7142
-9.90354
-9.06051
-8.20905
-7.37267
-6.57243
-5.82769
-5.15272
-4.55908
-4.05425
-3.63873
-3.3101
-3.0628
-2.88769
-2.77302
-2.707
-2.67623
-11.7796
-11.1736
-10.4764
-9.70789
-8.89309
-8.0587
-7.23094
-6.43318
-5.68669
-5.00733
-4.4075
-3.89557
-3.47245
-3.13605
-2.88079
-2.69791
-2.57543
-2.50177
-2.46355
-11.3022
-10.7985
-10.1787
-9.46537
-8.68712
-7.87463
-7.05778
-6.26311
-5.5144
-4.82965
-4.22238
-3.7021
-3.27023
-2.92507
-2.66101
-2.46963
-2.33871
-2.25686
-2.21076
-10.6829
-10.3381
-9.82661
-9.18633
-8.45498
-7.67002
-6.86664
-6.07574
-5.32442
-4.63339
-4.01773
-3.48829
-3.0472
-2.69336
-2.42126
-2.22288
-2.08571
-1.99825
-1.94678
-9.98191
-9.81924
-9.43093
-8.87191
-8.19103
-7.43388
-6.64274
-5.8535
-5.09736
-4.39841
-3.77257
-3.23271
-2.78122
-2.4178
-2.13711
-1.93425
-1.7984
-1.72287
-1.69845
-9.34739
-9.33984
-9.06766
-8.58569
-7.94933
-7.21105
-6.42242
-5.6255
-4.85728
-4.14703
-3.51085
-2.96469
-2.50996
-2.14625
-1.86494
-1.66081
-1.51417
-1.41093
-1.32926
-8.78054
-8.89134
-8.70941
-8.28194
-7.66771
-6.92662
-6.12112
-5.30183
-4.51315
-3.78996
-3.14898
-2.60745
-2.16339
-1.81173
-1.53545
-1.32065
-1.13703
-0.968708
-0.796845
-8.25708
-8.4787
-8.36779
-7.97238
-7.35705
-6.59194
-5.75155
-4.89711
-4.08091
-3.34182
-2.69716
-2.16146
-1.72775
-1.38424
-1.1088
-0.883852
-0.684945
-0.505924
-0.342297
-7.8042
-8.12999
-8.08808
-7.72366
-7.10665
-6.31827
-5.44533
-4.56032
-3.72309
-2.97551
-2.33523
-1.8125
-1.39612
-1.06997
-0.811797
-0.605726
-0.43676
-0.304377
-0.209539
-7.39453
-7.82485
-7.85036
-7.51387
-6.89162
-6.07739
-5.17135
-4.25773
-3.40357
-2.6529
-2.02262
-1.51833
-1.12515
-0.824191
-0.593978
-0.419759
-0.289197
-0.197968
-0.138819
-6.99124
-7.55059
-7.64956
-7.34065
-6.71104
-5.86938
-4.93058
-3.99089
-3.12406
-2.37533
-1.75993
-1.27852
-0.912735
-0.641254
-0.44237
-0.300357
-0.201751
-0.13795
-0.0989589
-6.67443
-7.33712
-7.49861
-7.20854
-6.56486
-5.69202
-4.72026
-3.75725
-2.88227
-2.14033
-1.5438
-1.08811
-0.751277
-0.509389
-0.339592
-0.224391
-0.148888
-0.102467
-0.0751885
-6.45481
-7.18521
-7.38503
-7.09755
-6.43076
-5.52432
-4.52274
-3.54295
-2.66737
-1.9389
-1.36579
-0.938023
-0.630045
-0.415518
-0.270328
-0.175638
-0.115997
-0.0804619
-0.0600623
-6.34459
-7.11206
-7.31818
-7.00979
-6.3072
-5.36413
-4.33667
-3.34738
-2.47871
-1.7693
-1.22229
-0.822421
-0.540987
-0.349779
-0.223898
-0.143993
-0.0948514
-0.0660088
-0.0495398
-6.36298
-7.11628
-7.28753
-6.93098
-6.17994
-5.19951
-4.15287
-3.16342
-2.30993
-1.62489
-1.10584
-0.732892
-0.475038
-0.303035
-0.191902
-0.122507
-0.0803266
-0.0556146
-0.0412622
-6.49429
-7.18386
-7.28706
-6.86499
-6.06131
-5.04899
-3.99195
-3.01052
-2.17703
-1.51689
-1.02332
-0.672601
-0.432714
-0.274307
-0.172989
-0.110076
-0.0719143
-0.0491632
-0.0348473
-6.66485
-7.26506
-7.28954
-6.81225
-5.97759
-4.95715
-3.90659
-2.9402
-2.12385
-1.4785
-0.997124
-0.654688
-0.420531
-0.26574
-0.166725
-0.104975
-0.0676722
-0.0460118
-0.0344409
-6.85931
-7.36882
-7.33973
-6.84878
-6.03005
-5.0411
-4.02124
-3.0755
-2.26542
-1.61272
-1.11549
-0.752506
-0.497387
-0.323643
-0.209092
-0.135362
-0.0899671
-0.0643474
-0.0542111
-7.05951
-7.48051
-7.40023
-6.89671
-6.09423
-5.13546
-4.14461
-3.21734
-2.4116
-1.75038
-1.23624
-0.852289
-0.576029
-0.383341
-0.253365
-0.167994
-0.114869
-0.0852952
-0.0745637
-7.26065
-7.606
-7.48176
-6.97022
-6.18565
-5.25575
-4.29067
-3.37788
-2.5728
-1.90011
-1.36685
-0.960382
-0.661843
-0.449369
-0.303383
-0.205997
-0.144936
-0.111229
-0.0998443
-7.48095
-7.75502
-7.58945
-7.07172
-6.30371
-5.39822
-4.45324
-3.54968
-2.74137
-2.05498
-1.5016
-1.07244
-0.75182
-0.519891
-0.35827
-0.249253
-0.180727
-0.143501
-0.132368
-7.74172
-7.92696
-7.72228
-7.19929
-6.44393
-5.55591
-4.6238
-3.72374
-2.90881
-2.20758
-1.6345
-1.18397
-0.842916
-0.593148
-0.417397
-0.298131
-0.223579
-0.184443
-0.175475
-7.98075
-8.09959
-7.87055
-7.34523
-6.59811
-5.72006
-4.79357
-3.89188
-3.06795
-2.35195
-1.76092
-1.29165
-0.933064
-0.668275
-0.481073
-0.354083
-0.276153
-0.238024
-0.234556
-8.2134
-8.30761
-8.06168
-7.5283
-6.77831
-5.8978
-4.96642
-4.05584
-3.2193
-2.48804
-1.88067
-1.39554
-1.02285
-0.746619
-0.551657
-0.420662
-0.34348
-0.311009
-0.318394
-8.49702
-8.55711
-8.28313
-7.72796
-6.96086
-6.06543
-5.12081
-4.19748
-3.34851
-2.60519
-1.9865
-1.49135
-1.11062
-0.828864
-0.632107
-0.503048
-0.433161
-0.41366
-0.440227
-8.82875
-8.83703
-8.52173
-7.92897
-7.12977
-6.20824
-5.24445
-4.30741
-3.44912
-2.69948
-2.07683
-1.57956
-1.1988
-0.919439
-0.729084
-0.610315
-0.557156
-0.561264
-0.619144
-9.18285
-9.1426
-8.77161
-8.12254
-7.27597
-6.31899
-5.33273
-4.38374
-3.52158
-2.77322
-2.1556
-1.6656
-1.29444
-1.02722
-0.853808
-0.756398
-0.732811
-0.775144
-0.880996
-9.59404
-9.48744
-9.02975
-8.30001
-7.39106
-6.39204
-5.38336
-4.42735
-3.56939
-2.8319
-2.23018
-1.75851
-1.40848
-1.16537
-1.02229
-0.960589
-0.983452
-1.08317
-1.25864
-10.0959
-9.84553
-9.262
-8.4311
-7.45155
-6.41171
-5.38773
-4.43558
-3.59466
-2.88119
-2.30933
-1.86974
-1.55509
-1.35103
-1.25527
-1.24751
-1.33824
-1.51935
-1.79117
-10.5369
-10.1179
-9.39569
-8.46179
-7.41997
-6.35533
-5.33486
-4.40638
-3.60179
-2.93003
-2.40567
-2.01488
-1.75279
-1.60577
-1.5778
-1.64597
-1.83032
-2.12159
-2.52206
-10.9459
-10.3525
-9.47242
-8.43379
-7.34046
-6.2678
-5.26801
-4.37992
-3.62737
-3.01165
-2.5501
-2.22353
-2.03119
-1.96042
-2.0232
-2.19246
-2.50013
-2.93458
-3.50122
-11.3415
-10.4721
-9.41736
-8.29488
-7.18117
-6.13241
-5.18101
-4.35763
-3.67855
-3.13772
-2.75833
-2.51515
-2.4136
-2.44236
-2.62324
-2.92328
-3.38889
-4.00513
-4.78417
-11.4613
-10.3088
-9.13544
-7.9956
-6.91892
-5.94178
-5.07597
-4.34787
-3.76792
-3.32391
-3.04857
-2.91015
-2.92264
-3.07657
-3.40569
-3.86978
-4.53354
-5.37946
-6.43719
-11.1989
-9.88454
-8.6945
-7.61478
-6.62937
-5.76298
-5.01037
-4.39902
-3.93605
-3.60477
-3.45098
-3.43628
-3.58551
-3.89175
-4.40302
-5.07101
-5.98383
-7.12472
-8.56757
-10.4102
-9.1253
-8.05481
-7.12633
-6.29306
-5.5804
-4.97204
-4.50167
-4.17581
-3.97535
-3.96224
-4.09218
-4.40349
-4.89341
-5.62802
-6.55232
-7.78752
-9.32733
-11.3626
-9.03528
-8.04294
-7.23392
-6.53975
-5.91202
-5.39018
-4.95312
-4.64456
-4.47294
-4.41904
-4.56356
-4.8583
-5.35846
-6.06897
-7.08103
-8.33889
-10.0157
-12.1374
-15.2143
-7.15158
-6.68122
-6.24147
-5.84309
-5.46289
-5.1621
-4.91924
-4.78951
-4.78527
-4.88984
-5.20479
-5.68193
-6.39844
-7.37463
-8.74066
-10.4556
-12.7832
-15.8282
-20.9999
-4.98322
-5.11372
-5.08474
-5.01287
-4.90775
-4.85
-4.81865
-4.87904
-5.04845
-5.31554
-5.80464
-6.47351
-7.42973
-8.72439
-10.554
-12.9286
-16.285
-20.9099
-30.7868
-2.82417
-3.43139
-3.77538
-4.0268
-4.20868
-4.40696
-4.5972
-4.85076
-5.18871
-5.608
-6.25697
-7.10568
-8.30555
-9.96796
-12.4078
-15.7686
-20.8439
-28.3469
-49.6503
-0.935358
-1.72051
-2.33156
-2.87481
-3.34221
-3.8018
-4.2153
-4.65539
-5.14007
-5.67888
-6.44305
-7.41471
-8.81424
-10.8863
-14.2319
-19.5688
-29.2504
-47.2181
-111.527
)
;

boundaryField
{
    up
    {
        type            calculated;
        value           nonuniform List<scalar> 
84
(
-101.076
-54.7419
-33.5116
-22.6415
-16.3127
-12.1529
-9.15877
-6.88481
-5.11979
-3.74834
-2.69829
-1.91223
-1.33868
-0.931499
-0.649364
-0.457186
-0.327086
-0.238335
-0.176475
-0.13192
-0.0987254
-0.0731599
-0.0522263
-0.030118
-0.028862
-0.0374405
-0.0451397
-0.0544702
-0.0674958
-0.0876633
-0.120904
-0.176743
-0.284072
-0.756163
-1.33596
-1.70204
-1.92725
-2.19398
-2.45055
-2.6669
-2.82305
-2.91024
-2.91051
-2.82392
-2.66822
-2.45215
-2.19579
-1.92901
-1.70358
-1.33873
-0.761929
-0.285334
-0.177308
-0.121212
-0.0878439
-0.0676105
-0.0545523
-0.045209
-0.0375174
-0.0288971
-0.0300765
-0.052221
-0.0731598
-0.0987292
-0.131929
-0.176488
-0.238353
-0.32711
-0.457212
-0.649385
-0.931506
-1.33866
-1.91219
-2.69823
-3.74828
-5.11976
-6.88483
-9.15885
-12.153
-16.3128
-22.6416
-33.5116
-54.7418
-101.076
)
;
    }
    low
    {
        type            calculated;
        value           nonuniform List<scalar> 
84
(
-1.00558
-2.95796
-5.26732
-7.61818
-9.66398
-11.1352
-11.93
-12.1274
-11.8685
-11.3073
-10.8195
-10.3066
-9.70343
-9.24152
-8.86111
-8.48629
-8.16314
-7.92002
-7.65188
-7.32184
-7.04417
-6.79414
-6.53417
-6.28278
-6.01889
-5.84257
-5.82872
-6.00145
-6.30433
-6.72376
-7.21765
-7.68619
-8.20228
-8.79497
-9.41636
-10.1213
-10.918
-11.593
-12.0993
-12.4954
-12.7849
-13.0026
-13.0026
-12.7849
-12.4954
-12.0994
-11.5931
-10.9181
-10.1215
-9.41627
-8.79506
-8.20217
-7.68611
-7.21757
-6.72369
-6.30425
-6.0014
-5.82869
-5.84256
-6.0189
-6.28293
-6.53416
-6.79417
-7.04419
-7.32185
-7.65189
-7.92004
-8.16315
-8.4863
-8.8611
-9.2415
-9.70341
-10.3066
-10.8195
-11.3072
-11.8684
-12.1274
-11.93
-11.1352
-9.66403
-7.61823
-5.26737
-2.95799
-1.00559
)
;
    }
    left
    {
        type            calculated;
        value           nonuniform List<scalar> 
19
(
-0.919061
-1.69277
-2.31938
-2.88503
-3.37666
-3.859
-4.29368
-4.75665
-5.26556
-5.83935
-6.65633
-7.70419
-9.23307
-11.5357
-15.2851
-21.3627
-32.5061
-53.4175
-104.817
)
;
    }
    right
    {
        type            calculated;
        value           nonuniform List<scalar> 
19
(
-0.919067
-1.69277
-2.31937
-2.88502
-3.37665
-3.859
-4.29369
-4.75667
-5.26557
-5.83937
-6.65634
-7.70418
-9.23304
-11.5357
-15.2851
-21.3626
-32.5061
-53.4175
-104.817
)
;
    }
    frontAndBackPlanes
    {
        type            empty;
    }
}


// ************************************************************************* //
