/*--------------------------------*- C++ -*----------------------------------*\
  =========                 |
  \\      /  F ield         | OpenFOAM: The Open Source CFD Toolbox
   \\    /   O peration     | Website:  https://openfoam.org
    \\  /    A nd           | Version:  7
     \\/     M anipulation  |
\*---------------------------------------------------------------------------*/
FoamFile
{
    version     2.0;
    format      ascii;
    class       volScalarField;
    location    "0.11";
    object      gradTz;
}
// * * * * * * * * * * * * * * * * * * * * * * * * * * * * * * * * * * * * * //

dimensions      [0 -1 0 1 0 0 0];

internalField   nonuniform List<scalar> 
1596
(
-9.67989e-16
-4.63233e-16
4.78888e-16
1.7829e-17
-8.9116e-16
0
-4.03389e-16
-3.9795e-16
-3.74481e-17
-2.15539e-16
-1.23917e-18
-2.16434e-16
9.67907e-16
-2.16359e-16
1.00609e-15
8.71988e-16
5.19729e-16
6.59334e-16
0
9.58652e-16
0
1.29935e-15
-1.46617e-17
-3.77889e-16
3.72894e-16
7.97554e-16
3.63476e-17
3.72196e-16
-1.81755e-16
3.64477e-16
-3.55101e-18
-5.0841e-16
-3.20628e-16
-8.12294e-16
-7.9656e-16
-7.27355e-16
4.16092e-16
0
-4.58461e-16
0
-8.2285e-16
2.3041e-17
7.10512e-16
-2.20271e-16
2.69604e-17
-4.7031e-18
-3.87288e-18
-3.48931e-18
1.20037e-16
0
2.63428e-16
7.38551e-16
-7.34713e-17
6.11922e-17
1.42791e-16
2.30224e-16
0
7.35346e-16
-2.0456e-16
2.03813e-16
0
-1.90238e-16
-2.02329e-16
3.1221e-16
-2.4888e-16
0
0
-1.19515e-16
6.29848e-17
0
-2.12743e-16
-2.61256e-16
1.86047e-16
-2.0489e-16
-1.04547e-17
0
1.30199e-16
3.18862e-16
-2.6481e-16
0
-7.08578e-17
-2.19986e-16
0
3.1327e-16
-2.99072e-17
-2.71534e-17
-4.85046e-17
1.5469e-16
1.99774e-16
2.28569e-17
2.3528e-17
-2.01008e-16
9.97006e-18
9.41571e-17
-4.21692e-17
-3.38107e-17
-4.34501e-16
3.88269e-16
-3.12339e-16
-1.13634e-18
-2.41998e-16
6.56889e-18
-6.59069e-18
-1.70242e-16
0
-3.95504e-17
-1.84826e-16
-1.79743e-16
1.36283e-16
1.64976e-16
-2.18858e-18
-9.92721e-17
-9.55022e-17
7.43384e-17
2.82562e-16
-4.39768e-16
4.55043e-16
2.37298e-16
0
1.88412e-16
1.00704e-16
-4.71018e-17
2.13654e-16
-3.82741e-17
-1.71502e-16
1.02638e-18
-9.46815e-17
-1.36758e-16
-9.93849e-17
9.00365e-17
1.00146e-16
-1.37463e-18
-3.0249e-17
4.34927e-17
7.07398e-16
-7.64366e-16
0
0
-2.15907e-16
0
0
0
1.13832e-16
0
0
8.87635e-17
1.97595e-18
3.61777e-17
-7.98735e-17
0
4.24843e-17
1.81672e-17
0
-4.40008e-16
8.2956e-16
0
0
2.22354e-16
0
-6.79702e-17
6.79015e-17
-1.15865e-16
4.44313e-17
-4.47563e-17
0
6.35653e-17
7.65456e-17
0
-4.38185e-17
-4.33425e-17
-1.61043e-17
1.17214e-15
-5.33258e-16
0
-2.99662e-16
2.96308e-16
0
1.69579e-16
0
0
0
3.67307e-17
-3.69067e-17
0
-4.99155e-17
-1.32181e-17
0
1.06855e-17
2.31524e-17
0
-2.97878e-16
0
0
3.02616e-16
-5.39578e-16
4.79803e-17
1.93532e-17
-5.90695e-17
1.18841e-17
4.39427e-18
-3.76917e-17
-5.25103e-17
0
3.78757e-17
-8.63964e-18
8.76931e-18
2.85135e-17
-1.87061e-17
-7.90203e-18
2.17346e-16
-4.09023e-17
2.10377e-16
6.49138e-16
-5.94763e-17
-2.40489e-16
0
0
0
7.92827e-17
2.69471e-17
9.18635e-17
-2.18279e-17
-3.71982e-17
-1.87284e-17
-1.18574e-17
5.45407e-18
-1.24746e-17
7.38912e-18
-2.59687e-16
2.55851e-16
-4.5549e-16
-6.42965e-16
5.69644e-16
1.87314e-16
-3.27908e-16
2.5036e-16
-1.89788e-16
5.03267e-17
3.08931e-17
-2.56403e-17
1.1913e-17
-1.1807e-17
3.63883e-17
0
-2.90734e-18
2.28233e-17
-3.47281e-18
-1.77712e-15
7.87808e-16
5.21389e-19
-1.34144e-16
3.18679e-17
1.82486e-16
-3.36091e-16
-1.17459e-16
8.71168e-17
-6.38648e-17
-4.69635e-17
0
-4.31394e-17
-1.21028e-17
-1.88228e-17
-1.08414e-17
8.32516e-19
-1.19194e-17
9.14697e-19
2.90338e-16
-2.4439e-16
-8.66074e-22
-1.6263e-16
-3.5807e-16
3.25951e-16
1.8122e-18
1.14463e-16
-8.48197e-17
1.21616e-16
2.6563e-17
1.89899e-17
4.72494e-17
0
3.24543e-17
1.44893e-17
0
5.73727e-18
6.2882e-19
0
2.37087e-16
1.60171e-16
-3.48605e-16
3.4573e-16
-4.84128e-16
3.12979e-16
9.34752e-17
-2.46566e-17
-1.24524e-16
1.72177e-17
-1.71327e-17
-4.0827e-17
1.36588e-17
-7.10154e-18
-1.32318e-17
4.93074e-18
-3.11577e-18
1.62429e-18
-2.69852e-16
8.35982e-16
-6.30652e-16
2.98844e-16
0
0
-5.19089e-17
1.17714e-16
-6.25e-17
1.11968e-16
0
0
2.60698e-17
-2.06213e-17
-1.16667e-17
3.67752e-18
-3.90849e-18
2.14469e-18
0
3.62761e-17
2.52647e-16
-1.78236e-16
-1.44944e-16
-1.9824e-16
-3.91682e-17
8.32414e-17
0
-5.71442e-17
-3.72973e-17
3.13609e-17
-2.13489e-17
1.44258e-17
0
4.75357e-18
7.39273e-18
0
0
0
-3.54054e-17
3.48425e-16
1.04219e-16
-4.40942e-16
1.04937e-16
8.15958e-17
0
0
5.20586e-17
-2.79955e-17
-3.03328e-17
2.06483e-17
-1.39509e-17
0
-2.41487e-18
1.69234e-18
0
-1.3173e-18
-4.69427e-19
-2.01916e-16
5.93445e-16
-6.77809e-16
-2.28962e-16
1.25293e-16
-7.36273e-17
5.37093e-17
0
-2.66277e-17
1.9644e-17
0
0
4.60391e-18
-4.60921e-18
9.75429e-19
-1.58712e-18
1.7569e-18
3.6493e-19
3.58305e-19
1.11074e-16
-9.31898e-17
4.25627e-16
-2.69858e-16
-9.12404e-17
1.83485e-17
1.15941e-16
3.44244e-17
2.54787e-17
0
9.13174e-18
-8.2714e-18
5.42131e-18
-3.83354e-18
3.49837e-18
-5.37751e-18
-1.34881e-18
1.1155e-18
2.60556e-19
2.8356e-16
-2.94487e-16
0
1.99524e-16
-1.104e-16
-6.46726e-17
3.09864e-17
-1.10071e-16
0
-1.81562e-18
-1.19355e-17
-6.52652e-18
7.32222e-18
-9.27915e-19
-3.38111e-18
2.11907e-18
0
5.53951e-19
-2.52998e-19
5.20094e-16
-8.3165e-17
3.08928e-16
-2.39416e-16
9.93636e-17
-8.65953e-18
-9.97672e-17
-2.39401e-17
3.97148e-17
-2.5898e-18
-1.41162e-17
1.06453e-17
-4.10885e-18
-3.89861e-18
0
0
0
-5.57776e-19
1.93335e-20
-4.39009e-16
4.21077e-16
2.03723e-19
5.01508e-17
3.78199e-17
-7.39726e-17
7.80956e-17
-5.33027e-17
3.84085e-17
-8.83623e-18
1.61574e-17
4.16769e-18
-1.50109e-18
8.15863e-20
-2.71251e-19
-5.06477e-19
0
0
0
0
0
1.68518e-16
-1.05309e-16
-2.26793e-16
0
0
-1.51928e-17
-1.97683e-17
1.34831e-17
0
-5.25621e-18
3.27029e-18
-8.32237e-18
9.06798e-18
-2.21157e-18
2.33557e-18
2.20096e-19
0
-8.47515e-17
8.57946e-17
0
-5.41945e-17
5.3307e-17
7.35713e-17
0
1.53379e-17
1.29229e-17
-6.48314e-17
0
-6.23231e-18
3.91817e-18
2.15511e-18
-1.32197e-18
1.68536e-18
0
-4.94328e-19
0
-4.36765e-17
-4.02998e-17
2.3779e-18
5.56835e-17
-1.31645e-16
0
-2.51609e-17
0
4.80887e-17
1.53541e-17
0
2.45565e-17
-2.21576e-17
2.93575e-18
-2.45062e-18
1.48908e-18
3.24252e-18
9.99653e-19
-7.93045e-19
0
8.71178e-17
-6.67862e-17
8.12425e-17
8.22087e-17
0
4.9773e-17
-4.40797e-17
-2.639e-17
3.07351e-17
-4.51913e-17
-1.6514e-17
0
0
1.87895e-18
0
0
3.83033e-19
0
-4.01526e-16
3.1148e-16
0
7.50331e-18
-4.58164e-17
-2.22901e-18
3.40473e-17
1.74848e-17
-2.65292e-17
-4.62439e-17
5.85519e-17
-1.64736e-17
0
-4.71714e-18
0
0
0
-1.50227e-18
1.20708e-18
-1.17212e-16
1.02975e-16
2.48113e-16
-2.34441e-16
6.5663e-17
5.75721e-18
-3.44554e-17
2.5466e-17
3.67329e-17
2.28863e-17
-4.443e-17
0
1.40108e-17
-7.0319e-19
-5.39352e-18
-8.79853e-18
6.92617e-18
-7.57223e-19
1.59574e-18
-4.09957e-16
5.23546e-16
-5.11121e-16
8.06292e-17
5.99713e-17
-5.40011e-17
4.22396e-17
-2.7728e-17
0
-1.80651e-17
2.24831e-17
9.47477e-18
1.32851e-17
1.24375e-17
-1.77511e-17
-9.38614e-19
0
-7.43394e-19
2.56997e-19
-4.43068e-16
-1.20532e-16
-1.90738e-16
1.05911e-16
-1.45237e-16
1.12476e-16
-6.34265e-17
4.5364e-17
-5.40369e-18
-5.07696e-18
-2.6325e-17
1.70492e-17
-5.30443e-18
1.79785e-17
-1.93001e-17
1.16023e-18
1.65171e-18
0
-4.8503e-19
4.79053e-16
-1.31152e-16
0
0
-1.49001e-16
2.80184e-16
-6.08568e-17
-9.4826e-18
7.1334e-17
-2.25797e-18
0
0
-1.00877e-17
0
-1.82241e-17
4.07976e-17
-2.71596e-17
0
2.23477e-19
1.59168e-16
2.82758e-16
0
-1.07309e-16
-7.55432e-17
-5.74826e-17
-6.41174e-17
2.27082e-17
-5.97435e-17
-2.78662e-17
0
0
1.75609e-17
0
0
-2.72635e-17
4.57891e-17
0
0
1.09353e-15
-1.52146e-16
-6.14488e-16
-2.95531e-16
4.04264e-16
1.14959e-16
6.21698e-17
0
-1.90195e-17
1.6172e-17
4.05336e-17
-1.24398e-17
-1.54098e-17
2.29442e-17
-2.44056e-17
-6.28707e-18
0
0
0
8.75602e-17
-6.48069e-16
6.31758e-16
-5.61982e-17
-3.96884e-16
6.00208e-16
-2.90417e-16
0
0
1.16639e-16
-9.2733e-17
0
-2.28405e-17
4.08411e-17
-3.75891e-18
1.09885e-17
3.1604e-18
4.99337e-20
6.42505e-19
0
0
0
4.83326e-16
-3.26316e-16
3.00939e-16
-4.599e-16
1.25182e-16
0
-3.79753e-17
5.54428e-17
-5.66659e-17
-9.83564e-18
4.19946e-19
-6.10223e-18
-7.15965e-19
-4.84617e-18
-1.40387e-18
-7.40569e-19
7.21316e-16
-1.25933e-15
5.8366e-16
0
1.33638e-16
-1.83538e-16
1.64012e-16
-1.29574e-16
0
-5.24418e-17
7.37658e-17
0
0
3.89042e-19
0
-6.96805e-18
4.69353e-18
6.91464e-19
1.20535e-18
7.27161e-16
0
-2.56026e-16
2.85292e-16
-1.61493e-16
3.45539e-16
-1.58607e-16
-1.10766e-16
1.11922e-16
-1.05628e-17
0
0
5.91155e-18
-9.22487e-18
-6.38878e-18
1.19449e-17
-2.57295e-18
1.24559e-18
0
4.11977e-16
2.99338e-16
-2.20757e-17
-2.73387e-16
-2.56155e-17
-1.72026e-16
2.60887e-17
1.36767e-16
-6.55044e-18
1.07612e-17
0
0
-6.05599e-18
0
6.79612e-18
-7.27023e-18
0
9.14083e-19
-2.49907e-19
-2.18481e-16
-1.50444e-16
1.4109e-16
-1.50846e-17
-6.46996e-18
1.65811e-17
0
-3.96398e-18
5.51059e-17
-4.63803e-17
0
1.37841e-17
-3.077e-18
-1.17804e-17
-1.04421e-18
-8.01467e-19
0
-7.17678e-19
0
8.64529e-17
-1.61515e-16
8.84371e-19
6.52737e-17
5.45816e-17
-5.39271e-17
-3.46732e-17
3.91242e-17
-1.21949e-17
9.62535e-18
-8.48788e-18
8.74966e-18
0
2.05761e-20
-7.69804e-19
2.75339e-18
-9.29522e-21
0
0
8.6456e-17
-8.6132e-17
-6.49263e-17
5.77054e-17
9.61712e-17
-9.67389e-17
-1.73374e-17
1.73821e-17
-1.23007e-17
1.24286e-17
-8.4884e-18
1.5754e-17
-4.41963e-18
-3.02161e-18
-8.88119e-19
3.03096e-19
6.94033e-19
1.81552e-19
-1.35969e-19
0
-2.01052e-17
1.12612e-16
-1.22609e-16
9.57429e-17
-8.52074e-17
0
5.79148e-17
-5.20344e-17
0
1.67402e-17
-2.10699e-17
-1.12426e-17
1.1783e-17
2.05761e-18
0
0
-7.17945e-19
2.59852e-19
3.43655e-16
-6.21374e-16
6.08475e-16
-5.10792e-16
1.96713e-16
-1.50233e-16
1.43337e-16
1.55009e-17
-5.40265e-17
4.80974e-17
0
-3.03456e-17
2.77138e-17
-4.90508e-18
-2.01542e-18
3.00146e-18
2.17569e-18
6.96987e-19
-2.51076e-19
8.18147e-16
0
-2.90454e-16
2.26131e-16
2.53221e-17
-1.79751e-16
3.0954e-16
-2.59682e-16
9.93949e-17
-3.78774e-17
3.87709e-17
7.22944e-18
1.14661e-17
4.7776e-18
-3.6735e-18
-5.67077e-19
-4.67299e-18
0
4.44787e-19
6.31551e-16
-7.10977e-16
0
5.84064e-17
2.33003e-16
-2.25566e-16
3.51136e-17
2.92048e-17
1.22888e-17
1.97901e-17
0
0
-1.96905e-17
3.5258e-17
-1.25797e-17
-4.29e-18
4.69683e-18
3.65287e-19
-8.33689e-19
8.64933e-17
6.25406e-16
-6.72399e-17
-4.25932e-16
3.75179e-16
4.11514e-17
-3.43651e-17
-2.85244e-17
8.42622e-17
-1.04172e-16
5.54769e-17
-5.66999e-17
7.4359e-18
-1.06298e-17
1.67973e-17
-1.13191e-17
0
0
6.99631e-19
0
1.52759e-16
-4.24313e-16
4.86956e-16
-3.49603e-16
3.4877e-16
0
9.81199e-17
-9.85695e-17
-6.40331e-17
9.28359e-17
0
3.23092e-17
-4.08911e-17
-5.81712e-18
0
-5.70022e-19
-9.65331e-19
-1.14728e-19
-1.51476e-15
7.0477e-16
0
-4.04246e-16
4.04205e-16
2.16945e-16
-1.4162e-16
5.03896e-17
0
-1.89669e-18
1.1015e-17
-1.243e-17
-1.54001e-17
2.29286e-17
-2.43807e-17
0
4.17837e-18
-5.66764e-19
-6.07268e-19
9.1688e-16
-8.87564e-16
0
1.05519e-16
8.89573e-17
-7.71607e-17
0
-5.28088e-17
-3.90045e-17
0
-3.85982e-18
0
1.75806e-17
0
0
5.39469e-18
1.93349e-17
-2.56204e-17
0
-3.32632e-20
1.31221e-16
-1.13106e-16
7.89825e-17
-4.08129e-16
1.49076e-16
0
9.49337e-18
2.61146e-17
0
-2.19855e-17
5.17042e-17
-5.43182e-17
7.19948e-18
0
-1.58593e-18
0
0
0
4.83842e-21
0
1.04538e-16
0
-1.30443e-16
1.32516e-16
0
3.49251e-17
-2.40881e-17
8.01552e-17
-3.71139e-17
1.03263e-17
-1.45181e-17
1.14942e-17
-1.93463e-17
-2.8536e-18
0
-1.10123e-18
0
3.47581e-16
-5.9007e-16
0
-7.94554e-17
6.44755e-17
0
0
-6.20016e-17
0
-1.80888e-17
-2.25161e-17
-9.49082e-18
1.33108e-17
0
4.47199e-18
0
0
2.22415e-18
-2.25302e-18
0
4.83295e-16
-3.83921e-16
7.35576e-17
-5.97046e-17
-2.02819e-17
5.50918e-17
5.30289e-17
-5.30675e-17
1.66844e-17
2.9449e-18
-9.30116e-18
3.63233e-17
-1.09285e-17
-1.91036e-17
5.8701e-18
-1.08735e-18
6.7093e-19
-1.52685e-19
-8.56249e-16
3.11705e-16
0
0
2.33065e-17
-2.37001e-17
1.15515e-17
3.9766e-18
4.52689e-17
1.85781e-17
-1.70228e-17
-1.69037e-18
-6.12176e-18
4.72674e-18
0
1.43169e-18
9.96632e-19
4.15513e-19
1.38006e-19
0
2.54691e-16
-2.21565e-16
6.7798e-17
5.78391e-17
-1.0694e-17
-2.80517e-17
-2.0391e-17
-5.5274e-17
1.78488e-17
-6.91208e-18
1.22228e-17
5.72461e-18
-5.14752e-18
5.46378e-18
2.33786e-18
-3.32172e-18
-3.83788e-19
0
-4.9991e-17
-2.05877e-16
6.71105e-17
5.57029e-17
-1.65146e-16
1.11167e-16
4.14559e-17
-4.23743e-17
2.50554e-17
-1.69394e-17
0
0
-6.809e-18
1.13299e-17
-4.44675e-18
3.00905e-18
-3.32381e-18
4.48547e-19
-7.94323e-19
9.12433e-17
7.96335e-17
-6.59e-17
4.0367e-17
-5.37703e-17
-6.24715e-17
0
0
0
0
0
0
3.49885e-18
-7.14864e-18
7.56046e-18
-1.76359e-18
2.22959e-18
8.73408e-19
-7.28944e-19
1.93837e-16
-2.86794e-16
3.55642e-16
-1.31482e-16
1.85961e-16
-1.00364e-16
1.74141e-16
-8.73418e-17
-3.23603e-17
3.31032e-17
0
5.25348e-18
-3.41819e-18
6.22209e-18
-2.79486e-18
-2.53421e-18
-3.95027e-18
3.39009e-19
6.03498e-19
3.04292e-16
7.86708e-17
0
-1.00162e-16
-6.4752e-17
1.38061e-16
5.36791e-18
-4.0271e-17
2.13323e-17
-1.14583e-17
0
-4.15873e-18
0
-2.29558e-18
1.63306e-18
-1.22011e-18
-3.74306e-19
2.15274e-19
0
4.21346e-16
-8.31637e-17
3.09139e-16
-2.39912e-16
-4.04312e-17
1.30352e-16
-7.75315e-17
5.64722e-18
3.8046e-18
-1.15586e-17
1.02787e-17
0
0
3.12389e-18
-7.48012e-19
3.84324e-19
1.34328e-18
-4.56509e-19
0
5.62269e-20
0
-7.13528e-17
3.68953e-16
-2.41531e-16
-2.05586e-16
1.10707e-16
-8.46627e-17
7.42938e-17
2.89603e-17
-1.78112e-17
6.1925e-18
-4.96894e-18
1.14624e-18
5.36314e-18
-6.10541e-20
-1.39264e-18
1.31045e-18
-2.79828e-19
9.97116e-16
-3.11521e-16
1.21238e-16
-3.89257e-16
9.12401e-17
-1.21845e-16
6.92731e-17
0
0
-2.02305e-18
-3.32516e-18
-9.18449e-19
0
-5.51762e-18
-3.49844e-18
2.18967e-18
-1.45528e-19
3.62698e-19
5.99818e-19
0
-2.96844e-16
4.52255e-16
7.09021e-17
-3.25521e-16
7.36272e-17
-9.46081e-17
2.6437e-17
6.64937e-17
0
0
9.83722e-19
7.01927e-18
0
-4.22724e-18
-1.60324e-18
2.52334e-19
-6.14037e-19
-8.03806e-19
0
-1.74486e-16
6.58257e-17
3.05477e-16
1.85581e-16
-3.26065e-16
1.38985e-16
-7.40971e-17
4.18203e-17
-4.39466e-17
0
0
0
-9.3924e-18
1.45756e-18
-2.4268e-18
0
-1.23269e-19
5.94885e-19
-7.38138e-16
6.86464e-16
6.45629e-16
-7.76541e-16
3.08876e-16
-2.81966e-16
0
8.04313e-17
-1.04148e-16
5.35685e-17
-3.38414e-17
2.34099e-17
1.61234e-17
9.71381e-18
6.57474e-18
0
0
0
0
8.4598e-16
-4.53973e-16
0
0
-1.18637e-16
2.50191e-16
-1.57756e-16
-8.71032e-17
8.61213e-17
5.02055e-17
7.27116e-17
-2.429e-17
9.34362e-18
5.6993e-18
3.65881e-18
3.06608e-18
4.74582e-18
-2.20147e-19
2.24239e-19
-8.44323e-16
7.48909e-16
3.55144e-16
-1.91029e-16
3.44743e-16
-2.18099e-16
-1.46091e-16
-1.08806e-16
0
-1.05938e-16
9.0848e-18
2.98067e-17
-1.93158e-17
-1.36592e-17
-4.55541e-18
-4.05761e-18
-3.26972e-18
0
0
-2.90431e-16
0
2.00962e-16
1.87906e-19
0
0
1.50698e-16
1.12273e-16
0
5.9488e-17
0
-4.46846e-17
-1.1146e-17
1.89095e-17
0
1.13002e-17
-1.51338e-18
1.54385e-18
0
6.32649e-16
0
3.74001e-16
-6.68859e-16
5.58208e-16
3.88096e-16
-2.21071e-17
0
1.25526e-17
7.62452e-17
0
-5.39791e-17
5.36998e-17
-4.54602e-17
-9.46381e-18
-8.84304e-18
-2.91815e-18
-5.92357e-19
-2.72649e-18
-5.61587e-16
8.01641e-16
-2.09138e-16
-5.06632e-16
-2.69076e-16
-2.10413e-16
-3.23862e-16
-1.08703e-16
1.56934e-17
3.09514e-17
-3.08933e-17
8.33019e-17
-3.5392e-17
6.48359e-17
-1.19541e-17
0
1.63173e-17
-1.05966e-17
2.61104e-18
1.30107e-15
-4.05488e-17
-8.76541e-16
6.49142e-16
-5.45968e-16
4.3106e-16
-2.28718e-17
-1.29763e-16
1.01169e-16
3.39867e-17
-7.03049e-18
-7.20784e-17
1.83307e-17
2.53864e-17
-6.46049e-18
6.53418e-18
-1.69007e-17
-4.83087e-18
-6.1654e-18
6.38711e-16
2.50338e-16
4.12394e-16
-3.33156e-16
-2.41008e-16
2.51041e-17
-1.50014e-16
3.54603e-16
1.84113e-17
1.34184e-16
7.29439e-17
-6.21019e-17
0
-3.78765e-17
0
0
3.41531e-17
1.37552e-17
7.04117e-18
5.84454e-16
0
4.02724e-16
3.31006e-16
-2.67451e-16
2.13328e-16
0
-1.35135e-16
-1.75571e-16
-1.39391e-16
-7.35896e-17
6.28041e-17
0
0
0
0
-3.2181e-17
-3.08583e-17
0
-1.1441e-15
0
-3.50804e-17
-3.18115e-17
4.12709e-16
-2.0105e-16
-8.59245e-17
-8.72187e-17
1.83242e-16
0
4.44312e-17
-4.47088e-18
4.75184e-17
0
0
6.85316e-17
-5.26254e-18
3.71625e-17
-1.77377e-17
7.95228e-16
2.10586e-16
-2.08412e-16
-1.70093e-16
-5.26462e-16
3.36861e-16
3.75411e-16
-1.86563e-17
-1.30137e-16
1.36281e-16
2.70173e-17
-1.45865e-16
-1.11221e-16
-8.24199e-17
-8.99672e-17
-7.93413e-17
8.01382e-17
-3.66093e-18
1.81672e-17
-2.3867e-16
1.01876e-16
-4.78394e-16
7.29283e-17
-7.2663e-17
0
-1.90045e-16
-2.61786e-17
-1.75536e-16
2.9925e-17
1.71501e-16
1.15452e-16
-3.11938e-17
-1.75408e-18
8.46556e-17
0
-1.7692e-16
-7.17352e-17
-1.45353e-18
5.02121e-16
-1.24845e-17
7.52681e-16
-3.40371e-16
1.13633e-18
8.1937e-18
2.38476e-16
-3.46521e-17
1.70241e-16
-1.58525e-16
-1.50704e-16
0
1.79741e-16
1.34011e-16
2.11355e-18
-3.1156e-18
1.00247e-16
7.28801e-17
0
-3.53197e-16
0
-6.65423e-17
3.29054e-16
7.68166e-18
7.09525e-17
-2.30603e-16
2.13212e-16
2.4611e-16
2.3798e-16
2.32907e-16
0
-1.74615e-16
0
1.06938e-17
-1.11064e-17
0
-1.17173e-18
5.96814e-17
2.55131e-16
2.18188e-17
-1.71381e-16
5.42052e-16
-1.6945e-16
0
0
-3.00887e-16
-2.38456e-16
-2.3055e-16
-4.46572e-16
-6.29844e-17
0
0
0
-2.39649e-17
2.53609e-17
1.69812e-16
-6.06278e-17
2.31304e-17
0
-3.96802e-16
-3.41039e-16
3.71383e-16
-3.7116e-16
-5.22536e-16
6.13605e-16
1.87537e-16
0
2.74228e-16
3.38576e-16
-7.29684e-17
4.07005e-16
-6.74131e-17
7.01606e-17
2.81632e-16
-1.61382e-16
0
-4.83421e-16
0
-4.52283e-16
4.39004e-16
0
7.49218e-16
3.44067e-16
-7.48812e-16
6.23406e-16
-2.50007e-18
-1.83616e-16
-3.27811e-16
0
4.91918e-16
-8.12294e-16
8.75955e-16
-1.11735e-15
0
0
4.83745e-16
-5.50376e-18
-1.33894e-17
-9.00622e-16
9.18723e-16
-4.37628e-16
4.35844e-16
4.29899e-16
-3.58862e-16
0
0
7.36826e-16
-7.4952e-16
-7.83968e-16
7.8222e-16
-7.65981e-16
8.31767e-16
-1.30628e-15
0
)
;

boundaryField
{
    up
    {
        type            calculated;
        value           nonuniform List<scalar> 
84
(
0
0
0
0
-4.21692e-17
7.43384e-17
-3.0249e-17
1.81672e-17
-1.61043e-17
0
-7.90203e-18
7.38912e-18
-3.47281e-18
9.14697e-19
6.2882e-19
1.62429e-18
0
0
-4.69427e-19
3.58305e-19
2.60556e-19
-2.52998e-19
1.93335e-20
0
9.27869e-20
5.91532e-20
-7.25011e-19
0
1.20708e-18
1.77e-18
2.56997e-19
-4.8503e-19
2.23477e-19
0
-5.90353e-20
6.46509e-19
-7.2738e-19
1.19423e-18
0
-2.46927e-19
0
0
-1.35631e-19
2.59852e-19
-2.51076e-19
4.44787e-19
-8.33689e-19
6.99631e-19
-1.14728e-19
-6.07268e-19
0
0
0
-2.25302e-18
-3.27804e-19
1.38006e-19
0
-7.94323e-19
-7.28944e-19
5.10904e-19
0
0
-2.79828e-19
5.99818e-19
-8.03806e-19
5.94885e-19
0
2.24239e-19
0
0
-2.72649e-18
2.61104e-18
-6.1654e-18
7.04117e-18
0
-1.77377e-17
1.81672e-17
-1.45353e-18
0
5.96814e-17
-6.06278e-17
0
0
0
)
;
    }
    low
    {
        type            calculated;
        value           nonuniform List<scalar> 
84
(
-9.69221e-16
9.58652e-16
-4.56218e-16
7.37116e-16
1.31363e-16
-3.4144e-17
2.85277e-16
4.60216e-17
0
1.17505e-15
-2.97878e-16
2.15543e-16
-2.59687e-16
-1.77764e-15
2.90338e-16
0
-2.69852e-16
3.62761e-17
-3.54054e-17
-2.01916e-16
1.11074e-16
2.8356e-16
5.17453e-16
-4.39009e-16
0
-8.47515e-17
-4.36765e-17
0
-4.01526e-16
-1.17212e-16
-4.0846e-16
-4.42052e-16
4.78577e-16
1.59168e-16
1.09412e-15
8.75602e-17
0
7.21316e-16
7.29619e-16
4.1327e-16
-2.19155e-16
8.64529e-17
8.6456e-17
0
3.43655e-16
8.20605e-16
6.31551e-16
8.84124e-17
0
-1.51535e-15
9.1688e-16
-3.32632e-20
4.83842e-21
3.47581e-16
0
-8.53321e-16
0
-4.9991e-17
9.12433e-17
1.92039e-16
3.013e-16
4.18705e-16
5.62269e-20
9.95244e-16
0
0
-7.38138e-16
8.45524e-16
-8.44226e-16
-2.90431e-16
6.33169e-16
-5.61587e-16
1.30468e-15
6.41047e-16
5.84454e-16
-1.1441e-15
7.92699e-16
-2.35955e-16
5.02121e-16
-3.52034e-16
2.55131e-16
2.53735e-17
-4.83421e-16
4.84361e-16
)
;
    }
    left
    {
        type            calculated;
        value           nonuniform List<scalar> 
19
(
-9.67989e-16
-4.63774e-16
4.78888e-16
1.80161e-17
-8.91768e-16
0
-4.03389e-16
-3.9795e-16
-3.92463e-17
-2.15539e-16
-1.23917e-18
-2.16434e-16
9.77341e-16
-2.16359e-16
1.00609e-15
8.71988e-16
5.19729e-16
7.65278e-16
0
)
;
    }
    right
    {
        type            calculated;
        value           nonuniform List<scalar> 
19
(
4.83745e-16
-4.96349e-18
-1.33894e-17
-9.0081e-16
9.19331e-16
-4.37628e-16
4.35844e-16
4.29899e-16
-3.57063e-16
0
0
7.43755e-16
-7.58953e-16
-7.83968e-16
7.8222e-16
-7.65981e-16
8.31767e-16
-1.41223e-15
0
)
;
    }
    frontAndBackPlanes
    {
        type            empty;
    }
}


// ************************************************************************* //
