/*--------------------------------*- C++ -*----------------------------------*\
  =========                 |
  \\      /  F ield         | OpenFOAM: The Open Source CFD Toolbox
   \\    /   O peration     | Website:  https://openfoam.org
    \\  /    A nd           | Version:  7
     \\/     M anipulation  |
\*---------------------------------------------------------------------------*/
FoamFile
{
    version     2.0;
    format      ascii;
    class       volScalarField;
    location    "0.11";
    object      T;
}
// * * * * * * * * * * * * * * * * * * * * * * * * * * * * * * * * * * * * * //

dimensions      [0 0 0 1 0 0 0];

internalField   nonuniform List<scalar> 
1596
(
5.97161
5.89086
5.81035
5.73803
5.67691
5.62712
5.58775
5.55605
5.52992
5.50469
5.47688
5.44154
5.38908
5.30725
5.17845
4.96593
4.60345
3.9598
2.77185
5.87829
5.62911
5.40054
5.2016
5.03525
4.90022
4.79323
4.70811
4.63918
4.57718
4.51432
4.44091
4.34132
4.19748
3.98848
3.67908
3.21871
2.52391
1.43845
5.77094
5.35726
4.99539
4.68699
4.43136
4.22469
4.06128
3.93261
3.83047
3.7433
3.66111
3.5722
3.45964
3.30483
3.08807
2.78016
2.345
1.73154
0.848798
5.66995
5.10878
4.63112
4.22932
3.89809
3.63096
3.42007
3.2553
3.12679
3.02189
2.9296
2.83759
2.72938
2.5875
2.39433
2.12583
1.75544
1.25067
0.557466
5.59234
4.91129
4.33708
3.85635
3.46049
3.14111
2.88882
2.69247
2.54121
2.42192
2.32321
2.2327
2.13493
2.01392
1.85396
1.63478
1.33552
0.933545
0.394609
5.54675
4.77947
4.12876
3.58205
3.13021
2.76429
2.47419
2.24836
2.07541
1.94207
1.83685
1.74753
1.65974
1.55895
1.43103
1.25851
1.02396
0.709862
0.2923
5.53121
4.71207
4.005
3.40447
2.90403
2.49586
2.17023
1.91573
1.72081
1.57229
1.45866
1.36791
1.28663
1.20157
1.09997
0.966494
0.786073
0.543945
0.221648
5.53665
4.69549
3.9513
3.30885
2.767
2.32073
1.96167
1.67917
1.46192
1.29695
1.17277
1.07756
0.998693
0.923961
0.84179
0.738627
0.601231
0.416622
0.169443
5.55546
4.71498
3.95023
3.27689
2.70064
2.22048
1.83034
1.52087
1.28134
1.09914
0.962842
0.860724
0.780719
0.711456
0.642337
0.561352
0.456836
0.317239
0.129296
5.57515
4.74776
3.97551
3.28192
2.67912
2.17058
1.75312
1.41913
1.15879
0.959948
0.811294
0.70116
0.617857
0.55062
0.489642
0.424236
0.344152
0.239171
0.0977706
5.58908
4.77742
4.00587
3.3011
2.67977
2.14937
1.70968
1.35501
1.07666
0.863078
0.703107
0.585131
0.497694
0.43046
0.374232
0.319431
0.257071
0.178217
0.0729581
5.60368
4.80777
4.03995
3.32887
2.69431
2.14693
1.68918
1.31727
1.02366
0.797413
0.627559
0.502495
0.410871
0.342605
0.288922
0.241112
0.191258
0.131611
0.0537536
5.6156
4.83348
4.06998
3.35523
2.7112
2.15099
1.67922
1.29373
0.988027
0.751746
0.574069
0.443373
0.348314
0.278927
0.226703
0.183578
0.142488
0.0967202
0.0392006
5.62047
4.84656
4.08619
3.36929
2.719
2.15002
1.66856
1.27366
0.959659
0.716606
0.533784
0.399507
0.302388
0.232496
0.181485
0.14176
0.106924
0.0711189
0.0284221
5.62281
4.85128
4.09078
3.37102
2.71574
2.14059
1.65272
1.25196
0.933081
0.686349
0.501015
0.365269
0.267623
0.198131
0.148534
0.111576
0.0813615
0.0527133
0.0206392
5.62408
4.85061
4.08616
3.36149
2.701
2.12097
1.62902
1.22525
0.904496
0.656925
0.471577
0.336418
0.239808
0.171744
0.124016
0.0896205
0.063042
0.0396328
0.0151278
5.6224
4.84273
4.07079
3.33894
2.67259
2.08856
1.59454
1.19045
0.870738
0.625146
0.442282
0.309771
0.21578
0.150236
0.104975
0.0732054
0.0497253
0.0303081
0.0112539
5.61888
4.8292
4.04641
3.30491
2.63158
2.04381
1.54915
1.14694
0.830804
0.589709
0.411586
0.283588
0.193648
0.131625
0.089414
0.0604349
0.0397683
0.0235439
0.00851249
5.6189
4.81867
4.02217
3.26792
2.58522
1.99249
1.49715
1.09768
0.786543
0.551557
0.37972
0.257556
0.172694
0.114907
0.0761643
0.0500989
0.0320609
0.0184975
0.00653287
5.62105
4.81137
3.99959
3.23002
2.53561
1.93644
1.43998
1.04371
0.738582
0.510966
0.346652
0.231381
0.152406
0.0994076
0.0644436
0.0413811
0.0258447
0.0145842
0.00505312
5.62174
4.80285
3.97539
3.18929
2.48187
1.87548
1.37785
0.985392
0.687301
0.468227
0.312532
0.205045
0.132603
0.0848036
0.0538249
0.0338011
0.020652
0.0114326
0.00390291
5.62354
4.79631
3.95324
3.14989
2.42839
1.81383
1.31454
0.925872
0.635162
0.42514
0.278574
0.179281
0.113645
0.0711768
0.0442003
0.0271378
0.0162205
0.00881547
0.00297606
5.62783
4.79473
3.93708
3.11642
2.38007
1.75632
1.25441
0.868838
0.585061
0.383828
0.246221
0.154982
0.0960062
0.0587093
0.0355566
0.0212581
0.0123581
0.00654483
0.00217861
5.63412
4.79841
3.92834
3.09146
2.34038
1.70686
1.20135
0.817743
0.539801
0.346373
0.216889
0.13301
0.080135
0.0475619
0.0278708
0.0160241
0.00885249
0.00435947
0.00128293
5.6476
4.82677
3.96212
3.12349
2.36635
1.72517
1.21243
0.823143
0.541374
0.345751
0.215262
0.131115
0.0783571
0.0460562
0.026657
0.0150515
0.00805951
0.00373564
0.00094828
5.66408
4.87133
4.02774
3.20113
2.44681
1.80071
1.27794
0.876255
0.581985
0.375247
0.235701
0.144689
0.0870246
0.0514006
0.0298608
0.0169286
0.0091238
0.00428376
0.0011258
5.67355
4.90308
4.08056
3.26967
2.52336
1.87733
1.34819
0.936093
0.629771
0.411279
0.261462
0.162193
0.0983335
0.0583467
0.0339279
0.0192026
0.010329
0.00485322
0.00128889
5.67605
4.92087
4.11821
3.326
2.5929
1.95256
1.42177
1.00237
0.685412
0.455176
0.294152
0.18521
0.113624
0.0678884
0.0395001
0.0222307
0.0118411
0.00550388
0.00144831
5.67465
4.92996
4.14625
3.37491
2.65909
2.02911
1.50085
1.07712
0.751062
0.509238
0.336123
0.215973
0.134842
0.081555
0.0476452
0.0266642
0.0140026
0.00638464
0.00164073
5.67011
4.93355
4.16892
3.42038
2.72497
2.10901
1.58677
1.16147
0.827954
0.575017
0.389243
0.256537
0.164017
0.101131
0.0597293
0.0333904
0.0172902
0.00770067
0.00191625
5.66473
4.93708
4.19263
3.46836
2.79534
2.19578
1.68203
1.2573
0.917811
0.654361
0.455631
0.309279
0.203645
0.128992
0.0777382
0.0437961
0.0224637
0.0097559
0.00234297
5.66361
4.94824
4.22532
3.52599
2.87603
2.29388
1.78993
1.36715
1.0228
0.749454
0.537725
0.376996
0.25685
0.168403
0.104733
0.0603082
0.0309943
0.0131058
0.00298928
5.66428
4.96342
4.26334
3.58988
2.96405
2.40076
1.90844
1.48962
1.14235
0.860615
0.63682
0.461983
0.326898
0.22348
0.145361
0.0874762
0.0464416
0.0195687
0.00395253
5.66611
4.98171
4.30579
3.65925
3.05873
2.51586
2.03718
1.62464
1.2768
0.988834
0.754709
0.567017
0.417739
0.299574
0.206531
0.133611
0.0776114
0.0366455
0.00892495
5.66708
4.99652
4.3414
3.71864
3.14115
2.61775
2.15319
1.7487
1.40302
1.11207
0.871004
0.673671
0.513144
0.382915
0.277353
0.191262
0.120851
0.0638065
0.0184963
5.6617
4.99262
4.34675
3.73755
3.17492
2.6654
2.21222
1.81576
1.47451
1.18456
0.941539
0.739924
0.573407
0.436058
0.322736
0.228438
0.149314
0.0826091
0.0258574
5.65179
4.97618
4.33214
3.72967
3.17608
2.67605
2.23149
1.84195
1.5055
1.21809
0.975464
0.772371
0.602799
0.461182
0.342831
0.243152
0.158786
0.0875167
0.0272333
5.64476
4.96515
4.32338
3.72681
3.18081
2.6886
2.25108
1.86713
1.53451
1.24904
1.00657
0.802076
0.6298
0.484492
0.361831
0.257534
0.168562
0.0930268
0.0290145
5.64135
4.96019
4.32073
3.72884
3.18861
2.70227
2.26997
1.89011
1.5602
1.27596
1.03334
0.827475
0.652807
0.504327
0.378003
0.269796
0.176917
0.0977573
0.0305654
5.63913
4.95717
4.31959
3.73125
3.19533
2.71334
2.28489
1.90803
1.5801
1.29673
1.05393
0.846976
0.670439
0.519495
0.390338
0.279113
0.183234
0.101312
0.0317309
5.63737
4.95448
4.31803
3.73206
3.1991
2.72012
2.29435
1.9196
1.59306
1.31034
1.06748
0.859829
0.682058
0.52947
0.398414
0.285168
0.18729
0.103558
0.0324572
5.63467
4.95036
4.31443
3.72995
3.19885
2.72175
2.29768
1.92429
1.59873
1.31655
1.07384
0.865974
0.687693
0.534362
0.402411
0.288191
0.189333
0.104702
0.0328347
5.63468
4.95039
4.31447
3.73
3.1989
2.72181
2.29774
1.92435
1.59879
1.31661
1.07388
0.866018
0.687732
0.534395
0.402439
0.288213
0.189348
0.104711
0.0328379
5.6374
4.95457
4.31815
3.73222
3.19927
2.7203
2.29453
1.91978
1.59324
1.3105
1.06763
0.859963
0.682177
0.529572
0.398498
0.285234
0.187338
0.103587
0.0324673
5.63919
4.95731
4.31979
3.73149
3.1956
2.71362
2.28518
1.90832
1.58037
1.29698
1.05417
0.847191
0.670628
0.519657
0.390472
0.279218
0.183309
0.101357
0.0317466
5.64143
4.96038
4.321
3.72917
3.18898
2.70266
2.27036
1.89049
1.56057
1.2763
1.03366
0.827761
0.653058
0.504541
0.378179
0.269933
0.177016
0.0978166
0.0305859
5.64485
4.96538
4.32371
3.72722
3.18127
2.68909
2.25157
1.86762
1.53497
1.24947
1.00696
0.802426
0.630106
0.484752
0.362043
0.257699
0.16868
0.0930977
0.0290389
5.65189
4.97645
4.33253
3.73015
3.17662
2.67662
2.23207
1.84252
1.50604
1.21859
0.975916
0.772772
0.603146
0.461474
0.343068
0.243334
0.158914
0.0875925
0.0272588
5.66182
4.99292
4.34719
3.7381
3.17554
2.66606
2.21289
1.81641
1.47512
1.18512
0.942045
0.740368
0.573786
0.436372
0.322985
0.228623
0.14944
0.082681
0.0258812
5.66722
4.99696
4.34209
3.71953
3.14219
2.61888
2.15436
1.74986
1.40413
1.11311
0.871945
0.674513
0.513885
0.383559
0.277905
0.191726
0.12122
0.0640607
0.0185982
5.66629
4.98223
4.30661
3.66031
3.05996
2.51719
2.03854
1.62598
1.27806
0.989998
0.755753
0.567934
0.418532
0.300249
0.207093
0.134062
0.0779448
0.0368518
0.00899628
5.66443
4.96388
4.26407
3.59082
2.96514
2.40193
1.90962
1.49076
1.1434
0.861556
0.637639
0.462679
0.327476
0.223948
0.145725
0.0877412
0.0466101
0.0196505
0.00396906
5.66375
4.94868
4.22602
3.52689
2.87707
2.29499
1.79103
1.36819
1.02375
0.750276
0.53842
0.377567
0.257308
0.168757
0.104994
0.0604851
0.0310977
0.0131517
0.00299877
5.66486
4.93749
4.19329
3.46922
2.79632
2.19682
1.68304
1.25825
0.918648
0.655072
0.456215
0.309744
0.204004
0.129259
0.0779259
0.0439172
0.0225314
0.00978522
0.0023489
5.67023
4.93392
4.16953
3.42118
2.72589
2.10997
1.58769
1.16231
0.828686
0.575624
0.389727
0.256911
0.164296
0.101331
0.0598647
0.0334744
0.0173359
0.00772024
0.00192019
5.67475
4.93029
4.14681
3.37565
2.65993
2.02998
1.50168
1.07787
0.751691
0.509748
0.336519
0.216271
0.135057
0.0817045
0.047743
0.0267232
0.0140341
0.00639818
0.00164354
5.67614
4.92116
4.11871
3.32666
2.59365
1.95333
1.42249
1.003
0.685943
0.455596
0.294472
0.185444
0.11379
0.0680002
0.0395715
0.022273
0.0118637
0.00551382
0.00145055
5.67362
4.90333
4.08099
3.27024
2.52401
1.87799
1.34881
0.936628
0.630209
0.411621
0.261718
0.162378
0.0984612
0.0584316
0.0339814
0.0192343
0.0103463
0.0048613
0.00129099
5.66415
4.87154
4.02811
3.20162
2.44735
1.80126
1.27845
0.876696
0.582343
0.375524
0.235907
0.144835
0.0871253
0.0514671
0.0299029
0.016954
0.00913821
0.00429101
0.001128
5.64761
4.82682
3.96222
3.12362
2.3665
1.72533
1.21258
0.823276
0.541485
0.34584
0.21533
0.131165
0.0783921
0.0460794
0.0266713
0.0150594
0.0080632
0.00373653
0.000947828
5.63409
4.79835
3.92826
3.09135
2.34027
1.70675
1.20125
0.817659
0.539735
0.346323
0.216853
0.132985
0.0801172
0.0475493
0.0278617
0.0160175
0.00884771
0.00435607
0.00128114
5.62783
4.79472
3.93707
3.11641
2.38006
1.75632
1.25442
0.868848
0.585072
0.383839
0.24623
0.154989
0.0960106
0.058712
0.0355581
0.0212588
0.0123583
0.00654477
0.00217839
5.62354
4.79631
3.95324
3.14989
2.42839
1.81383
1.31454
0.92588
0.63517
0.425147
0.27858
0.179285
0.113647
0.0711784
0.0442013
0.0271384
0.0162209
0.00881565
0.00297607
5.62173
4.80285
3.97539
3.18928
2.48187
1.87548
1.37786
0.985397
0.687306
0.468231
0.312535
0.205047
0.132605
0.084805
0.053826
0.0338021
0.0206528
0.0114332
0.00390307
5.62105
4.81136
3.99959
3.23002
2.53561
1.93644
1.43999
1.04372
0.738585
0.510968
0.346654
0.231383
0.152407
0.0994093
0.0644454
0.0413828
0.0258462
0.0145853
0.00505343
5.6189
4.81867
4.02217
3.26792
2.58522
1.99249
1.49715
1.09769
0.786545
0.551558
0.379721
0.257558
0.172696
0.114909
0.0761669
0.0501016
0.0320633
0.0184992
0.00653337
5.61888
4.8292
4.04641
3.30491
2.63158
2.04381
1.54915
1.14694
0.830805
0.589709
0.411587
0.28359
0.193651
0.131628
0.0894177
0.0604388
0.0397718
0.0235463
0.00851317
5.6224
4.84272
4.0708
3.33894
2.6726
2.08856
1.59454
1.19045
0.870737
0.625145
0.442283
0.309773
0.215783
0.150241
0.10498
0.0732109
0.0497301
0.0303112
0.0112547
5.62408
4.85061
4.08616
3.36149
2.701
2.12097
1.62902
1.22525
0.904495
0.656924
0.471579
0.336421
0.239813
0.17175
0.124023
0.0896275
0.0630479
0.0396364
0.0151287
5.62281
4.85129
4.09078
3.37103
2.71574
2.14059
1.65272
1.25195
0.933079
0.686349
0.501017
0.365273
0.26763
0.198139
0.148543
0.111584
0.081368
0.052717
0.0206399
5.62047
4.84657
4.0862
3.36929
2.719
2.15002
1.66855
1.27366
0.959658
0.716607
0.533787
0.399513
0.302396
0.232505
0.181494
0.141769
0.10693
0.0711219
0.0284223
5.6156
4.83348
4.06999
3.35524
2.7112
2.15099
1.67922
1.29373
0.988027
0.751748
0.574074
0.44338
0.348323
0.278937
0.226713
0.183585
0.142492
0.0967214
0.0392003
5.60369
4.80778
4.03996
3.32888
2.69431
2.14693
1.68918
1.31727
1.02366
0.797416
0.627564
0.502503
0.410881
0.342615
0.28893
0.241117
0.191259
0.13161
0.0537526
5.58908
4.77743
4.00587
3.3011
2.67977
2.14937
1.70968
1.35501
1.07666
0.863082
0.703113
0.585138
0.497702
0.430466
0.374235
0.31943
0.257067
0.178213
0.0729567
5.57515
4.74776
3.97551
3.28192
2.67912
2.17058
1.75312
1.41913
1.15879
0.959951
0.811299
0.701165
0.61786
0.550621
0.489639
0.424229
0.344144
0.239165
0.0977693
5.55546
4.71498
3.95022
3.27689
2.70064
2.22048
1.83034
1.52086
1.28134
1.09914
0.962844
0.860724
0.780717
0.711449
0.642325
0.561338
0.456824
0.317232
0.129295
5.53665
4.69549
3.9513
3.30884
2.76699
2.32073
1.96167
1.67917
1.46192
1.29695
1.17277
1.07756
0.998683
0.923946
0.841773
0.738609
0.601217
0.416615
0.169444
5.53121
4.71206
4.00499
3.40446
2.90402
2.49586
2.17023
1.91573
1.72081
1.57228
1.45865
1.36789
1.28661
1.20155
1.09995
0.966476
0.786061
0.543942
0.22165
5.54675
4.77946
4.12875
3.58205
3.13021
2.76428
2.47418
2.24836
2.0754
1.94206
1.83684
1.74751
1.65972
1.55892
1.43101
1.25849
1.02396
0.709862
0.292303
5.59234
4.91128
4.33707
3.85635
3.46049
3.14111
2.88881
2.69246
2.5412
2.4219
2.32319
2.23268
2.13491
2.0139
1.85394
1.63477
1.33552
0.933549
0.394612
5.66994
5.10878
4.63111
4.22932
3.89809
3.63096
3.42007
3.25529
3.12678
3.02187
2.92958
2.83757
2.72936
2.58749
2.39432
2.12583
1.75544
1.25068
0.557468
5.77094
5.35726
4.9954
4.68699
4.43136
4.22469
4.06128
3.9326
3.83046
3.74328
3.66109
3.57219
3.45963
3.30482
3.08807
2.78017
2.345
1.73154
0.848798
5.87828
5.62911
5.40055
5.2016
5.03525
4.90022
4.79323
4.70811
4.63917
4.57717
4.51431
4.4409
4.34131
4.19748
3.98848
3.67909
3.21872
2.52391
1.43844
5.97161
5.89086
5.81035
5.73803
5.67691
5.62712
5.58775
5.55605
5.52991
5.50468
5.47687
5.44154
5.38908
5.30725
5.17845
4.96593
4.60345
3.9598
2.77185
)
;

boundaryField
{
    up
    {
        type            fixedValue;
        value           uniform 0;
    }
    low
    {
        type            fixedValue;
        value           uniform 6;
    }
    left
    {
        type            fixedValue;
        value           uniform 6;
    }
    right
    {
        type            fixedValue;
        value           uniform 6;
    }
    frontAndBackPlanes
    {
        type            empty;
    }
}


// ************************************************************************* //
