/*--------------------------------*- C++ -*----------------------------------*\
  =========                 |
  \\      /  F ield         | OpenFOAM: The Open Source CFD Toolbox
   \\    /   O peration     | Website:  https://openfoam.org
    \\  /    A nd           | Version:  7
     \\/     M anipulation  |
\*---------------------------------------------------------------------------*/
FoamFile
{
    version     2.0;
    format      ascii;
    class       volScalarField;
    location    "0.18";
    object      T;
}
// * * * * * * * * * * * * * * * * * * * * * * * * * * * * * * * * * * * * * //

dimensions      [0 0 0 1 0 0 0];

internalField   nonuniform List<scalar> 
1596
(
1.99343
1.97466
1.95566
1.93804
1.92234
1.90848
1.8962
1.88485
1.87389
1.86212
1.8486
1.83199
1.80959
1.77775
1.73101
1.65744
1.53503
1.31986
0.923863
1.97167
1.91339
1.85903
1.81015
1.76704
1.7292
1.69583
1.66546
1.63677
1.60745
1.57549
1.53841
1.49197
1.43117
1.35002
1.23769
1.07783
0.842605
0.479446
1.94611
1.84842
1.76157
1.68512
1.61837
1.5602
1.50927
1.46362
1.42143
1.37989
1.33653
1.28844
1.23121
1.15991
1.06932
0.951041
0.794025
0.581692
0.283456
1.92117
1.78694
1.67101
1.57045
1.48336
1.40797
1.34247
1.28461
1.23226
1.18245
1.13254
1.07955
1.01924
0.947171
0.858937
0.748113
0.607189
0.426261
0.187508
1.90083
1.73546
1.59431
1.47277
1.36801
1.27776
1.19988
1.13195
1.07167
1.01604
0.962423
0.907861
0.848406
0.780034
0.698974
0.600106
0.478038
0.326549
0.13492
1.88757
1.69818
1.53602
1.39633
1.27599
1.17253
1.08364
1.00684
0.939808
0.879559
0.823504
0.768751
0.71161
0.648397
0.575743
0.489344
0.38501
0.258476
0.102882
1.88155
1.67597
1.49725
1.34209
1.20789
1.09237
0.993271
0.908185
0.834807
0.770255
0.712002
0.657232
0.602469
0.544279
0.479547
0.404476
0.315544
0.209495
0.0815427
1.88106
1.66666
1.4759
1.30801
1.16158
1.03495
0.926177
0.833042
0.753358
0.684371
0.62364
0.568429
0.515438
0.461424
0.403439
0.338007
0.261988
0.172633
0.0662692
1.88453
1.66743
1.46883
1.29086
1.13382
0.997002
0.879007
0.777957
0.691867
0.618151
0.554473
0.49818
0.446121
0.395206
0.342602
0.285055
0.219654
0.143904
0.0547329
1.88882
1.67287
1.47003
1.28471
1.11894
0.973142
0.846662
0.738079
0.6457
0.567148
0.500212
0.442332
0.390488
0.341714
0.293274
0.242078
0.185371
0.120791
0.0456183
1.89212
1.67875
1.47419
1.28398
1.11147
0.958203
0.824308
0.708913
0.61068
0.527477
0.457244
0.39752
0.345407
0.298051
0.252798
0.206699
0.157119
0.101783
0.0381908
1.89602
1.686
1.48105
1.2875
1.1097
0.950158
0.809767
0.688223
0.584577
0.496963
0.42348
0.361771
0.309042
0.262535
0.219666
0.177604
0.133816
0.0860897
0.0320797
1.89954
1.69308
1.48846
1.29262
1.11069
0.945937
0.799976
0.673041
0.564571
0.472967
0.396486
0.332868
0.279407
0.233421
0.192383
0.153558
0.114504
0.0730627
0.0270132
1.90148
1.69769
1.4936
1.29622
1.11114
0.942255
0.791755
0.660361
0.54787
0.452931
0.373946
0.30874
0.254676
0.209129
0.169619
0.133492
0.0983819
0.0621864
0.0227896
1.90294
1.7008
1.49688
1.29813
1.11043
0.938126
0.783882
0.648824
0.533058
0.43544
0.354493
0.288099
0.233668
0.18861
0.150474
0.116672
0.0849011
0.0531103
0.0192753
1.90428
1.70311
1.4988
1.29848
1.10831
0.932978
0.775537
0.637445
0.519052
0.419375
0.337013
0.269873
0.215379
0.170954
0.134157
0.102445
0.0735675
0.0455177
0.0163523
1.90497
1.70403
1.49881
1.29665
1.10399
0.925888
0.765692
0.625136
0.504746
0.403643
0.320451
0.253066
0.198891
0.155334
0.119945
0.0902103
0.0639212
0.0391113
0.0139086
1.90526
1.70387
1.49722
1.29287
1.09759
0.91679
0.754118
0.611528
0.489665
0.387697
0.304222
0.237073
0.183602
0.141173
0.107308
0.0795096
0.0556002
0.0336493
0.01185
1.90645
1.70475
1.49629
1.28928
1.09098
0.907222
0.741993
0.597454
0.474337
0.371807
0.288387
0.2218
0.169307
0.128196
0.0959401
0.0700425
0.0483457
0.0289497
0.010103
1.90814
1.70657
1.49625
1.28624
1.08455
0.897532
0.729572
0.58306
0.458795
0.355906
0.272791
0.207023
0.15573
0.116096
0.0855246
0.0615085
0.0419039
0.0248353
0.0085981
1.90936
1.70804
1.49595
1.2829
1.07767
0.887273
0.716533
0.568099
0.442831
0.339796
0.257229
0.192518
0.142626
0.104608
0.0757883
0.0536416
0.0360419
0.021142
0.00727199
1.91072
1.70976
1.49602
1.27996
1.07112
0.877226
0.703619
0.55323
0.426988
0.323885
0.241972
0.178425
0.130021
0.0936654
0.0665884
0.046249
0.0305526
0.0177025
0.00606006
1.91248
1.71227
1.4971
1.27811
1.06566
0.868203
0.69163
0.539192
0.4119
0.308671
0.22737
0.164948
0.117983
0.0832205
0.0577824
0.0391082
0.0251558
0.0142392
0.00482817
1.91449
1.71542
1.4991
1.2774
1.06148
0.860524
0.680988
0.52645
0.398012
0.294529
0.213686
0.152219
0.10652
0.0731675
0.0491664
0.0319168
0.0194316
0.0102038
0.00306536
1.91796
1.72367
1.51036
1.29006
1.07417
0.872228
0.691035
0.534495
0.403969
0.298497
0.215897
0.152987
0.106189
0.0720754
0.0476134
0.030146
0.0176622
0.00870413
0.00228205
1.9219
1.73491
1.52807
1.31291
1.10048
0.90015
0.718813
0.560641
0.427376
0.318489
0.232194
0.165679
0.115638
0.0788144
0.0522345
0.0331995
0.0195842
0.00979181
0.00267305
1.92399
1.7421
1.54069
1.33059
1.12224
0.924581
0.744339
0.585727
0.450709
0.339096
0.249485
0.179454
0.126045
0.0862672
0.0573005
0.0364634
0.021549
0.0108291
0.00300628
1.92424
1.74504
1.54778
1.34246
1.1387
0.944749
0.76689
0.609149
0.473532
0.360074
0.267696
0.194371
0.137539
0.094568
0.0629108
0.0399963
0.0235879
0.0118366
0.00329517
1.92336
1.74509
1.55105
1.35033
1.15156
0.962159
0.787748
0.631988
0.496777
0.382259
0.287614
0.21118
0.150809
0.104304
0.069509
0.0440945
0.0258811
0.012917
0.00358079
1.92151
1.74314
1.5519
1.35582
1.16248
0.978311
0.808196
0.655313
0.521348
0.406462
0.310024
0.230675
0.166651
0.116206
0.077679
0.0491451
0.0286374
0.0141656
0.00389405
1.91922
1.74065
1.55229
1.36108
1.17353
0.99509
0.82986
0.680492
0.548407
0.433719
0.33592
0.253886
0.186147
0.131355
0.0883703
0.0558246
0.0322141
0.0157097
0.00426343
1.91778
1.7397
1.55457
1.36847
1.18693
1.01446
0.854425
0.708946
0.57917
0.465137
0.36641
0.282024
0.210693
0.151319
0.103169
0.0654624
0.0374236
0.0178206
0.00469742
1.91664
1.73957
1.55812
1.37751
1.2023
1.03615
0.881704
0.740589
0.613684
0.500942
0.401979
0.315944
0.24164
0.17804
0.124555
0.0807387
0.0465146
0.021683
0.00521985
1.91573
1.74025
1.563
1.38832
1.21984
1.06039
0.911959
0.775718
0.652311
0.541612
0.443298
0.356646
0.280534
0.213923
0.15612
0.106549
0.0652122
0.0325574
0.0085998
1.91457
1.7401
1.56627
1.39664
1.23403
1.08055
0.937611
0.806009
0.68616
0.577858
0.480825
0.394455
0.317741
0.249696
0.189514
0.136272
0.0894074
0.0489124
0.0148019
1.91177
1.73517
1.56169
1.39412
1.23459
1.08461
0.945134
0.816629
0.699294
0.592798
0.496837
0.410837
0.333865
0.265037
0.203663
0.148841
0.0999105
0.0565242
0.0180943
1.90782
1.72716
1.55221
1.3849
1.2267
1.07861
0.94121
0.814667
0.698985
0.593696
0.498442
0.412654
0.335437
0.266
0.203817
0.148172
0.0986576
0.0552037
0.0174169
1.90472
1.72097
1.54499
1.378
1.22095
1.07444
0.938734
0.813776
0.69942
0.595097
0.50042
0.414837
0.337496
0.267688
0.204999
0.14882
0.0988554
0.0551435
0.0173502
1.90278
1.71695
1.54027
1.37354
1.21734
1.072
0.937547
0.813746
0.700345
0.596704
0.50242
0.416957
0.339493
0.269378
0.206279
0.149655
0.0992857
0.0552919
0.0173847
1.90137
1.71405
1.53688
1.37036
1.21479
1.07031
0.936761
0.813797
0.701083
0.59793
0.503922
0.418537
0.340977
0.27063
0.207224
0.150268
0.0995957
0.0553945
0.0174108
1.90034
1.7119
1.53435
1.36796
1.21284
1.06894
0.936013
0.813621
0.701379
0.598562
0.504749
0.419426
0.341812
0.271321
0.207721
0.150555
0.0996998
0.0553897
0.0173998
1.89931
1.71004
1.53228
1.36602
1.2112
1.06769
0.935167
0.813141
0.701207
0.59862
0.504961
0.419719
0.34212
0.271594
0.207927
0.150682
0.0997507
0.0553939
0.0174008
1.89932
1.71004
1.53229
1.36603
1.21122
1.06771
0.935183
0.813158
0.701223
0.598636
0.504975
0.419732
0.342132
0.271605
0.207936
0.150689
0.0997556
0.0553969
0.0174018
1.90035
1.71192
1.53439
1.368
1.21288
1.06898
0.936063
0.813671
0.701428
0.598609
0.504793
0.419467
0.341849
0.271354
0.207748
0.150577
0.0997158
0.0553994
0.0174031
1.90139
1.71409
1.53693
1.37042
1.21487
1.07038
0.936841
0.813877
0.701162
0.598005
0.503993
0.418602
0.341036
0.270682
0.207267
0.150302
0.0996204
0.0554094
0.0174159
1.9028
1.717
1.54034
1.37363
1.21744
1.0721
0.937654
0.813853
0.70045
0.596805
0.502516
0.417044
0.339572
0.269446
0.206336
0.1497
0.099318
0.0553113
0.0173914
1.90475
1.72103
1.54508
1.37811
1.22107
1.07456
0.938867
0.81391
0.699551
0.595222
0.500538
0.414945
0.337592
0.267771
0.205068
0.148875
0.0988942
0.0551668
0.0173582
1.90784
1.72723
1.55231
1.38503
1.22684
1.07876
0.941364
0.814822
0.699136
0.593841
0.498578
0.412778
0.335546
0.266094
0.203894
0.148232
0.098699
0.0552278
0.0174247
1.9118
1.73525
1.5618
1.39426
1.23475
1.08478
0.945309
0.816805
0.699466
0.592961
0.496988
0.410973
0.333983
0.265135
0.203739
0.148894
0.099944
0.0565407
0.0180986
1.9146
1.74021
1.56645
1.39687
1.23431
1.08086
0.937946
0.806358
0.686513
0.578209
0.481168
0.394785
0.318055
0.24999
0.189787
0.13652
0.0896177
0.0490653
0.0148659
1.91577
1.74038
1.56321
1.3886
1.22018
1.06077
0.912369
0.776146
0.652745
0.542042
0.443717
0.357048
0.280913
0.214273
0.156434
0.106818
0.0654212
0.0326911
0.00864725
1.91668
1.73969
1.5583
1.37775
1.2026
1.03649
0.882063
0.740959
0.614055
0.501303
0.402323
0.316265
0.241931
0.178295
0.124768
0.0809011
0.0466212
0.0217356
0.00523043
1.91782
1.7398
1.55474
1.36871
1.18721
1.01478
0.854764
0.709293
0.579513
0.465465
0.366716
0.282301
0.210936
0.151522
0.103328
0.065575
0.037492
0.017853
0.00470546
1.91925
1.74075
1.55245
1.3613
1.1738
0.995389
0.830178
0.680814
0.548721
0.434016
0.336191
0.254125
0.18635
0.131519
0.0884928
0.0559082
0.0322642
0.0157341
0.00426995
1.92154
1.74323
1.55205
1.35602
1.16273
0.97859
0.808491
0.65561
0.521634
0.406728
0.310262
0.230881
0.166821
0.116339
0.0777764
0.0492105
0.0286768
0.0141853
0.00389955
1.92338
1.74517
1.55118
1.35051
1.15179
0.962416
0.788018
0.632257
0.497034
0.382495
0.287822
0.211357
0.150952
0.104414
0.0695883
0.0441477
0.0259135
0.0129337
0.00358558
1.92426
1.74511
1.5479
1.34263
1.13891
0.944981
0.767133
0.60939
0.473761
0.360281
0.267876
0.194522
0.137659
0.0946595
0.0629766
0.0400408
0.0236155
0.0118511
0.00329953
1.924
1.74216
1.54079
1.33074
1.12242
0.924786
0.744554
0.58594
0.450909
0.339276
0.24964
0.179582
0.126147
0.0863445
0.0573564
0.0365017
0.0215733
0.0108424
0.00301054
1.92192
1.73496
1.52816
1.31304
1.10064
0.900329
0.719
0.560826
0.427549
0.318644
0.232327
0.165789
0.115725
0.0788808
0.052283
0.0332334
0.0196065
0.00980462
0.00267754
1.91796
1.72368
1.51038
1.29009
1.07422
0.87228
0.691091
0.534551
0.404023
0.298546
0.21594
0.153022
0.106217
0.0720957
0.0476271
0.0301541
0.0176658
0.0087047
0.00228138
1.91449
1.71541
1.49907
1.27737
1.06144
0.860488
0.680953
0.526417
0.397983
0.294504
0.213665
0.152202
0.106506
0.0731563
0.0491571
0.0319089
0.0194251
0.0101988
0.00306283
1.91247
1.71227
1.49709
1.2781
1.06566
0.8682
0.691629
0.539193
0.411902
0.308675
0.227375
0.164953
0.117988
0.0832249
0.0577861
0.0391111
0.0251578
0.0142402
0.00482836
1.91072
1.70976
1.49602
1.27996
1.07112
0.877225
0.703619
0.553231
0.426991
0.323888
0.241976
0.178429
0.130025
0.0936687
0.0665911
0.046251
0.0305539
0.0177032
0.00606024
1.90936
1.70804
1.49595
1.2829
1.07767
0.887272
0.716533
0.5681
0.442834
0.339799
0.257232
0.192521
0.142629
0.104611
0.0757904
0.0536432
0.0360429
0.0211426
0.00727215
1.90814
1.70657
1.49625
1.28624
1.08455
0.897532
0.729573
0.583062
0.458797
0.355909
0.272793
0.207026
0.155732
0.116098
0.0855262
0.0615098
0.0419048
0.0248359
0.00859824
1.90645
1.70475
1.49629
1.28928
1.09098
0.907223
0.741994
0.597455
0.474339
0.371809
0.288388
0.221802
0.169309
0.128198
0.0959415
0.0700436
0.0483466
0.0289501
0.0101032
1.90526
1.70387
1.49722
1.29287
1.09759
0.916791
0.754119
0.611529
0.489666
0.387698
0.304223
0.237074
0.183604
0.141174
0.107309
0.0795107
0.0556009
0.0336498
0.0118501
1.90497
1.70403
1.49881
1.29665
1.104
0.925889
0.765693
0.625137
0.504747
0.403644
0.320453
0.253067
0.198892
0.155335
0.119946
0.0902112
0.0639218
0.0391116
0.0139087
1.90428
1.70311
1.4988
1.29848
1.10831
0.932979
0.775538
0.637446
0.519053
0.419376
0.337013
0.269874
0.21538
0.170955
0.134158
0.102446
0.0735679
0.0455179
0.0163523
1.90294
1.7008
1.49688
1.29813
1.11043
0.938128
0.783883
0.648825
0.533058
0.435441
0.354494
0.2881
0.233668
0.18861
0.150475
0.116672
0.0849013
0.0531103
0.0192753
1.90148
1.69769
1.49361
1.29622
1.11114
0.942256
0.791756
0.660361
0.54787
0.452931
0.373946
0.308741
0.254676
0.209129
0.169619
0.133492
0.0983817
0.0621862
0.0227895
1.89954
1.69308
1.48846
1.29262
1.11069
0.945938
0.799977
0.673041
0.564571
0.472967
0.396486
0.332868
0.279407
0.23342
0.192382
0.153558
0.114503
0.0730623
0.0270131
1.89602
1.686
1.48105
1.2875
1.1097
0.950159
0.809767
0.688223
0.584577
0.496963
0.42348
0.361771
0.309042
0.262534
0.219665
0.177603
0.133815
0.0860891
0.0320796
1.89212
1.67876
1.47419
1.28398
1.11147
0.958203
0.824308
0.708912
0.610679
0.527477
0.457243
0.397519
0.345406
0.29805
0.252797
0.206697
0.157118
0.101783
0.0381909
1.88882
1.67287
1.47003
1.28471
1.11894
0.973141
0.846661
0.738078
0.645699
0.567147
0.500211
0.44233
0.390486
0.341712
0.293272
0.242076
0.18537
0.120791
0.0456184
1.88453
1.66743
1.46883
1.29086
1.13382
0.997
0.879006
0.777955
0.691865
0.618149
0.554471
0.498177
0.446119
0.395203
0.342599
0.285053
0.219653
0.143904
0.0547332
1.88106
1.66666
1.4759
1.30801
1.16158
1.03495
0.926175
0.83304
0.753355
0.684368
0.623637
0.568426
0.515435
0.461421
0.403437
0.338005
0.261987
0.172633
0.0662695
1.88155
1.67597
1.49725
1.34209
1.20789
1.09236
0.993268
0.908183
0.834804
0.770252
0.711999
0.657229
0.602466
0.544276
0.479545
0.404474
0.315543
0.209495
0.0815431
1.88757
1.69818
1.53602
1.39633
1.27599
1.17252
1.08364
1.00684
0.939805
0.879556
0.823501
0.768748
0.711608
0.648395
0.575741
0.489343
0.38501
0.258477
0.102883
1.90083
1.73546
1.59431
1.47277
1.36801
1.27776
1.19988
1.13194
1.07166
1.01604
0.96242
0.907858
0.848404
0.780033
0.698974
0.600107
0.478039
0.32655
0.134921
1.92117
1.78694
1.67101
1.57045
1.48336
1.40797
1.34247
1.28461
1.23226
1.18244
1.13254
1.07954
1.01924
0.94717
0.858937
0.748113
0.60719
0.426261
0.187508
1.94611
1.84841
1.76157
1.68511
1.61837
1.5602
1.50927
1.46362
1.42143
1.37989
1.33653
1.28844
1.23121
1.15991
1.06932
0.951042
0.794026
0.581692
0.283455
1.97167
1.91339
1.85903
1.81015
1.76704
1.7292
1.69583
1.66546
1.63677
1.60745
1.57549
1.5384
1.49197
1.43117
1.35002
1.23769
1.07783
0.842605
0.479445
1.99343
1.97466
1.95566
1.93804
1.92234
1.90847
1.8962
1.88484
1.87389
1.86212
1.8486
1.83199
1.80959
1.77775
1.73101
1.65744
1.53503
1.31986
0.923863
)
;

boundaryField
{
    up
    {
        type            fixedValue;
        value           uniform 0;
    }
    low
    {
        type            fixedValue;
        value           uniform 2;
    }
    left
    {
        type            fixedValue;
        value           uniform 2;
    }
    right
    {
        type            fixedValue;
        value           uniform 2;
    }
    frontAndBackPlanes
    {
        type            empty;
    }
}


// ************************************************************************* //
