/*--------------------------------*- C++ -*----------------------------------*\
  =========                 |
  \\      /  F ield         | OpenFOAM: The Open Source CFD Toolbox
   \\    /   O peration     | Website:  https://openfoam.org
    \\  /    A nd           | Version:  7
     \\/     M anipulation  |
\*---------------------------------------------------------------------------*/
FoamFile
{
    version     2.0;
    format      ascii;
    class       volScalarField;
    location    "0.2";
    object      gradTz;
}
// * * * * * * * * * * * * * * * * * * * * * * * * * * * * * * * * * * * * * //

dimensions      [0 -1 0 1 0 0 0];

internalField   nonuniform List<scalar> 
1596
(
-9.68156e-16
-4.69325e-16
4.78399e-16
1.17644e-17
-9.07356e-16
0
-4.21243e-16
-4.15403e-16
-2.96434e-17
-2.19971e-16
-1.86449e-18
-2.19259e-16
9.67907e-16
-2.17315e-16
1.01457e-15
8.76205e-16
5.21368e-16
6.58932e-16
0
9.65712e-16
0
1.35096e-15
-1.04882e-17
-4.0997e-16
4.05993e-16
8.42655e-16
2.83944e-17
3.98089e-16
-1.92361e-16
3.84228e-16
-5.40992e-18
-5.33674e-16
-3.34027e-16
-8.20079e-16
-8.00843e-16
-7.29064e-16
4.15356e-16
0
-4.71186e-16
0
-8.76278e-16
1.66327e-17
7.94309e-16
-2.27518e-16
1.97036e-17
-5.47587e-18
-5.35663e-18
-5.55674e-18
1.41682e-16
0
2.76774e-16
7.83442e-16
-7.73657e-17
6.26876e-17
1.47221e-16
2.31305e-16
0
7.43238e-16
-2.20053e-16
2.19249e-16
0
-2.09803e-16
-2.18482e-16
3.64572e-16
-3.12834e-16
0
0
-1.19378e-16
7.40464e-17
0
-2.29768e-16
-2.90764e-16
2.02328e-16
-2.1076e-16
-1.08276e-17
0
1.30199e-16
3.404e-16
-3.02157e-16
0
-8.76481e-17
-2.67852e-16
0
3.96707e-16
-3.91845e-17
-3.55025e-17
-3.95817e-17
2.04439e-16
2.53715e-16
2.67606e-17
1.28428e-17
-2.18739e-16
1.09901e-17
1.01547e-16
-4.40381e-17
-3.38107e-17
-4.6655e-16
4.38394e-16
-3.76369e-16
-8.94773e-19
-3.24926e-16
9.10907e-18
-9.1393e-18
-2.51497e-16
0
-3.3037e-17
-2.42223e-16
-2.29024e-16
1.83678e-16
1.96487e-16
-2.66743e-18
-1.17917e-16
-1.02997e-16
7.90323e-17
2.82562e-16
-4.73995e-16
5.22954e-16
2.89061e-16
0
2.5016e-16
1.44437e-16
-6.92139e-17
3.18353e-16
-5.92774e-17
-2.53521e-16
2.14848e-18
-1.48254e-16
-1.84507e-16
-1.42207e-16
1.22535e-16
1.18955e-16
-1.59754e-18
-3.28125e-17
3.15235e-17
7.54907e-16
-8.72432e-16
0
0
-3.03915e-16
0
0
0
2.00052e-16
0
0
1.36561e-16
4.69633e-18
4.07213e-17
-1.07444e-16
0
5.7172e-17
2.27329e-17
0
-4.84837e-16
9.29094e-16
0
0
3.1299e-16
0
-1.14771e-16
1.14655e-16
-2.03624e-16
8.35804e-17
-8.41917e-17
0
1.21198e-16
1.22919e-16
0
-7.08205e-17
-5.84006e-17
-1.99205e-17
1.19478e-15
-5.55526e-16
0
-3.74694e-16
3.70501e-16
0
2.60927e-16
0
0
0
7.54974e-17
-7.58593e-17
0
-9.39043e-17
-2.64977e-17
0
9.63331e-18
3.97773e-17
0
-3.03325e-16
0
0
3.75651e-16
-6.94336e-16
4.1266e-17
1.57721e-17
-1.04072e-16
1.32739e-17
5.21293e-18
-7.84776e-17
-1.23137e-16
0
9.26212e-17
-1.90244e-17
1.93099e-17
5.25911e-17
-3.14034e-17
-1.42089e-17
2.44525e-16
-3.06652e-17
2.35142e-16
7.85387e-16
-4.8981e-17
-3.20516e-16
0
0
0
1.61732e-16
6.29756e-17
2.25249e-16
-5.42718e-17
-9.09643e-17
-5.24514e-17
-2.94829e-17
1.32186e-17
-2.90103e-17
1.34696e-17
-2.75406e-16
2.70136e-16
-4.95023e-16
-7.76033e-16
7.11328e-16
2.70637e-16
-4.94813e-16
4.17545e-16
-3.52011e-16
9.21568e-17
6.78285e-17
-6.09938e-17
3.71425e-17
-3.43042e-17
1.01515e-16
0
-7.76736e-18
5.78775e-17
-8.64426e-18
-1.80846e-15
8.23189e-16
6.49375e-19
-1.70533e-16
2.58751e-17
2.62641e-16
-4.95485e-16
-1.97201e-16
1.63613e-16
-1.35081e-16
-1.12121e-16
0
-1.23737e-16
-3.65182e-17
-6.39165e-17
-3.79099e-17
2.97459e-18
-3.50462e-17
1.13127e-18
2.95563e-16
-2.59691e-16
4.40976e-19
-1.928e-16
-4.67082e-16
4.36736e-16
2.22992e-18
1.92172e-16
-1.59299e-16
2.58161e-16
6.05178e-17
4.82228e-17
1.43602e-16
0
1.1619e-16
5.33401e-17
0
1.86819e-17
9.22277e-19
0
2.5193e-16
1.90982e-16
-4.015e-16
4.52174e-16
-6.67811e-16
4.62987e-16
1.65894e-16
-2.87193e-17
-2.56364e-16
4.4462e-17
-4.42426e-17
-1.28824e-16
4.95838e-17
-2.53179e-17
-5.21408e-17
2.19473e-17
-1.37257e-17
5.71612e-18
-2.75235e-16
9.1358e-16
-6.82678e-16
3.59392e-16
0
0
-8.76522e-17
1.89481e-16
-1.26406e-16
2.35049e-16
0
0
8.55724e-17
-7.35679e-17
-5.00645e-17
1.58669e-17
-1.71543e-17
9.16159e-18
0
2.61423e-17
2.57441e-16
-2.01025e-16
-1.72769e-16
-2.68259e-16
-7.86167e-17
1.1877e-16
0
-1.17925e-16
-9.17251e-17
8.09458e-17
-6.36222e-17
4.97806e-17
0
1.93538e-17
3.6105e-17
0
0
0
-2.51559e-17
3.97656e-16
1.43855e-16
-5.23224e-16
1.39534e-16
1.16723e-16
0
0
1.10424e-16
-5.79178e-17
-7.82922e-17
6.15343e-17
-4.81416e-17
0
-1.18898e-17
9.59111e-18
0
-8.21484e-18
-2.89627e-18
-2.17255e-16
6.37587e-16
-7.62727e-16
-2.93001e-16
1.5533e-16
-1.09644e-16
8.90578e-17
0
-5.63818e-17
4.56994e-17
0
0
1.81787e-17
-1.81996e-17
5.13413e-18
-7.27338e-18
1.14204e-17
1.65863e-18
2.17129e-18
1.13569e-16
-1.00673e-16
5.01446e-16
-3.22323e-16
-1.25438e-16
1.86839e-17
1.8579e-16
6.66854e-17
5.3949e-17
0
2.80493e-17
-2.57937e-17
1.97017e-17
-1.60897e-17
1.94213e-17
-3.29343e-17
-8.88815e-18
7.6954e-18
1.99587e-18
3.00555e-16
-3.06473e-16
0
2.62517e-16
-1.40124e-16
-9.86442e-17
6.29429e-17
-2.05599e-16
0
-3.75978e-18
-3.3441e-17
-2.26152e-17
3.11524e-17
-2.74824e-18
-1.87704e-17
1.34937e-17
0
4.61859e-18
-1.93797e-18
5.22345e-16
-9.01885e-17
3.71878e-16
-2.90564e-16
1.49977e-16
9.48226e-18
-1.66888e-16
-5.25811e-17
9.28655e-17
-4.57145e-18
-4.8698e-17
3.99807e-17
-1.7031e-17
-2.09312e-17
0
0
0
-4.65985e-18
1.70762e-19
-4.58896e-16
4.45315e-16
3.31896e-19
6.43696e-17
5.37219e-17
-1.23725e-16
1.42274e-16
-1.12154e-16
9.2262e-17
-2.81693e-17
5.30256e-17
1.76873e-17
-7.28178e-18
3.4889e-19
-2.30146e-18
-4.03928e-18
0
0
0
0
0
2.08739e-16
-1.08294e-16
-3.08683e-16
0
0
-3.26409e-17
-5.00946e-17
4.02384e-17
0
-2.23069e-17
1.65107e-17
-5.21878e-17
5.92926e-17
-1.82792e-17
1.93955e-17
2.06492e-18
0
-8.8856e-17
8.99496e-17
0
-6.86414e-17
6.93213e-17
1.09958e-16
0
3.29526e-17
3.95414e-17
-1.81136e-16
0
-2.54579e-17
1.8983e-17
1.27733e-17
-9.1233e-18
1.30298e-17
0
-4.57117e-18
0
-4.57184e-17
-4.47437e-17
2.64684e-18
7.05273e-17
-1.84296e-16
0
-4.45348e-17
0
1.16033e-16
4.45319e-17
0
1.00997e-16
-1.02581e-16
1.12099e-17
-1.98928e-17
6.82989e-18
2.52065e-17
9.11038e-18
-7.22278e-18
0
9.37392e-17
-7.97721e-17
9.85362e-17
1.14133e-16
0
9.00647e-17
-8.39707e-17
-6.25704e-17
8.93597e-17
-1.33633e-16
-6.15562e-17
0
0
1.17949e-17
0
0
3.16297e-18
0
-4.19343e-16
3.22739e-16
0
5.72176e-18
-6.59978e-17
-3.5353e-18
5.646e-17
3.78119e-17
-4.93639e-17
-1.15731e-16
1.75724e-16
-4.81406e-17
0
-2.07976e-17
0
0
0
-1.22794e-17
9.82794e-18
-1.19485e-16
1.1034e-16
2.8817e-16
-2.79716e-16
8.42993e-17
5.35897e-18
-5.73144e-17
4.79088e-17
7.88476e-17
5.79338e-17
-1.14126e-16
0
5.37378e-17
5.37347e-18
-2.38152e-17
-4.93119e-17
4.0305e-17
-6.05623e-18
1.16863e-17
-4.07499e-16
5.70791e-16
-5.64125e-16
9.69239e-17
7.9982e-17
-7.52316e-17
6.2416e-17
-4.77042e-17
0
-3.84748e-17
5.87048e-17
2.53392e-17
3.97767e-17
4.75023e-17
-7.04305e-17
-1.76611e-18
0
-4.8767e-18
1.64753e-18
-4.40574e-16
-1.28506e-16
-2.20393e-16
1.18316e-16
-1.86283e-16
1.58149e-16
-9.3208e-17
7.63118e-17
-6.15841e-18
-6.08146e-18
-6.31055e-17
3.80121e-17
-1.90505e-17
5.90137e-17
-6.33518e-17
6.96484e-18
6.42689e-18
0
-2.90046e-18
4.76357e-16
-1.38843e-16
0
0
-1.91611e-16
3.70228e-16
-8.52791e-17
-1.57164e-17
1.27158e-16
-3.40007e-18
0
0
-2.67236e-17
0
-5.61189e-17
1.34e-16
-9.22146e-17
0
1.18864e-18
1.61781e-16
2.98795e-16
0
-1.24159e-16
-9.82303e-17
-8.44863e-17
-8.90079e-17
3.57457e-17
-9.87355e-17
-5.2448e-17
0
0
3.76798e-17
0
0
-7.76523e-17
1.28439e-16
0
0
1.11052e-15
-1.3676e-16
-6.61055e-16
-3.5062e-16
4.76428e-16
1.48359e-16
8.63042e-17
0
-3.0646e-17
2.88509e-17
7.20543e-17
-2.30038e-17
-3.30643e-17
5.09821e-17
-5.42293e-17
-1.61132e-17
0
0
0
8.89309e-17
-6.9187e-16
6.77447e-16
-6.39385e-17
-4.85356e-16
7.54571e-16
-3.76206e-16
0
0
1.9043e-16
-1.55453e-16
0
-4.53133e-17
7.93862e-17
-8.58625e-18
2.28622e-17
6.89132e-18
8.25573e-20
1.48093e-18
0
0
0
5.58977e-16
-3.7541e-16
3.84712e-16
-5.97601e-16
1.68789e-16
0
-5.89761e-17
9.29054e-17
-9.49548e-17
-1.8216e-17
-5.41687e-20
-1.22813e-17
-1.7194e-18
-9.80839e-18
-2.77584e-18
-1.50395e-18
7.42008e-16
-1.3172e-15
6.21351e-16
0
1.62038e-16
-2.21087e-16
2.16979e-16
-1.72023e-16
0
-8.12327e-17
1.13892e-16
0
0
-1.03627e-20
0
-1.30265e-17
8.88064e-18
1.55662e-18
2.40996e-18
7.26516e-16
0
-2.81903e-16
3.14731e-16
-1.93737e-16
4.21758e-16
-1.98331e-16
-1.52194e-16
1.53783e-16
-1.54664e-17
0
0
9.71207e-18
-1.61432e-17
-1.13202e-17
2.14028e-17
-4.63219e-18
2.34232e-18
0
4.12282e-16
3.17347e-16
-1.33711e-17
-3.00522e-16
-2.99177e-17
-2.13114e-16
2.46942e-17
1.77414e-16
-9.06228e-18
1.57568e-17
0
0
-9.94937e-18
0
1.16433e-17
-1.24556e-17
0
1.5922e-18
-4.40012e-19
-2.18788e-16
-1.59297e-16
1.49214e-16
-1.68649e-17
-7.50498e-18
2.00826e-17
0
-5.21818e-18
7.72218e-17
-6.50302e-17
0
2.16058e-17
-4.32717e-18
-1.89849e-17
-1.72995e-18
-1.346e-18
0
-1.24587e-18
0
8.87736e-17
-1.68224e-16
-1.59814e-18
7.14503e-17
6.43374e-17
-6.38536e-17
-4.45299e-17
5.0378e-17
-1.70343e-17
1.33461e-17
-1.27844e-17
1.31787e-17
0
3.32902e-20
-1.27672e-18
4.58163e-18
-1.56542e-20
0
0
8.87767e-17
-8.8444e-17
-7.10748e-17
6.30036e-17
1.13604e-16
-1.14274e-16
-2.22658e-17
2.23194e-17
-1.71789e-17
1.7359e-17
-1.27849e-17
2.40683e-17
-6.75081e-18
-4.82553e-18
-1.47222e-18
4.90112e-19
1.16255e-18
3.06967e-19
-2.30168e-19
0
-2.09749e-17
1.23678e-16
-1.34171e-16
1.13307e-16
-1.00518e-16
0
7.79214e-17
-6.97582e-17
0
2.53915e-17
-3.2115e-17
-1.81168e-17
1.89876e-17
3.46311e-18
0
0
-1.24613e-18
4.52498e-19
3.53158e-16
-6.47974e-16
6.55805e-16
-5.70924e-16
2.23634e-16
-1.86528e-16
1.77169e-16
2.07152e-17
-7.63878e-17
6.82073e-17
0
-4.84378e-17
4.41504e-17
-8.28993e-18
-3.39211e-18
5.27764e-18
3.87142e-18
1.20975e-18
-4.37216e-19
8.18793e-16
0
-3.1909e-16
2.48099e-16
2.9574e-17
-2.24092e-16
3.9545e-16
-3.47696e-16
1.35948e-16
-5.70743e-17
5.84206e-17
1.14793e-17
1.94246e-17
8.07448e-18
-6.59729e-18
-8.99977e-19
-8.36785e-18
0
8.43003e-19
6.50964e-16
-7.32764e-16
0
6.57721e-17
2.79594e-16
-2.73236e-16
4.58475e-17
4.01893e-17
1.74795e-17
3.02852e-17
0
0
-3.37323e-17
6.26228e-17
-2.27892e-17
-8.11435e-18
8.88386e-18
7.08111e-19
-1.59799e-18
6.58986e-17
6.43819e-16
-7.33028e-17
-4.93654e-16
4.33653e-16
5.10776e-17
-4.48702e-17
-3.9253e-17
1.26853e-16
-1.57306e-16
9.29402e-17
-9.49892e-17
1.44164e-17
-1.87503e-17
3.33207e-17
-2.22721e-17
0
0
1.55751e-18
0
1.60482e-16
-4.74519e-16
5.42735e-16
-4.2894e-16
4.27919e-16
0
1.42916e-16
-1.4357e-16
-1.05381e-16
1.5558e-16
0
6.28291e-17
-7.94529e-17
-1.17026e-17
0
-1.28342e-18
-2.47691e-18
-9.12576e-20
-1.5386e-15
7.30027e-16
0
-4.76357e-16
4.76309e-16
2.84873e-16
-1.87008e-16
7.50137e-17
0
-3.27462e-18
2.33159e-17
-2.29752e-17
-3.30256e-17
5.09165e-17
-5.41412e-17
0
1.12538e-17
-2.29358e-18
-1.53805e-18
9.43507e-16
-9.25075e-16
0
1.23582e-16
1.10762e-16
-1.00261e-16
0
-7.8615e-17
-6.58254e-17
0
-3.76262e-18
0
3.77019e-17
0
0
1.57998e-17
5.89389e-17
-7.65762e-17
0
9.62181e-20
1.38912e-16
-1.26462e-16
1.00209e-16
-5.10777e-16
1.93797e-16
0
1.57291e-17
4.43714e-17
0
-4.40191e-17
1.23383e-16
-1.29621e-16
2.0916e-17
0
-2.82118e-18
0
0
0
1.04439e-19
0
1.16883e-16
0
-1.73595e-16
1.76354e-16
0
5.97455e-17
-4.66626e-17
1.66791e-16
-7.99287e-17
2.75992e-17
-4.34364e-17
4.0136e-17
-6.34433e-17
-9.98968e-18
0
-6.03961e-18
0
3.65072e-16
-6.17845e-16
0
-9.66605e-17
8.51115e-17
0
0
-1.08592e-16
0
-3.85076e-17
-5.87587e-17
-2.53662e-17
3.98242e-17
0
1.96977e-17
0
0
1.30387e-17
-1.42058e-17
0
5.28901e-16
-4.22778e-16
8.94856e-17
-7.88137e-17
-3.12471e-17
8.90968e-17
9.73901e-17
-1.14952e-16
3.69109e-17
3.49876e-18
-3.15572e-17
1.28091e-16
-3.96645e-17
-8.78336e-17
2.97546e-17
-7.28445e-18
4.39481e-18
-1.27073e-18
-8.74065e-16
3.22765e-16
0
0
3.31136e-17
-3.36728e-17
2.25797e-17
1.36148e-17
1.02785e-16
5.06202e-17
-4.94169e-17
-2.61699e-18
-2.58106e-17
2.08207e-17
0
9.47411e-18
6.67673e-18
3.4283e-18
1.14856e-18
0
2.76498e-16
-2.54655e-16
8.09753e-17
8.08621e-17
-1.54834e-17
-4.82111e-17
-4.00246e-17
-1.2794e-16
4.96151e-17
-2.8206e-17
4.01215e-17
2.41361e-17
-2.84845e-17
3.02346e-17
1.79688e-17
-2.37403e-17
-3.16654e-18
0
-4.9881e-17
-2.20358e-16
7.7462e-17
7.05472e-17
-2.36477e-16
1.6741e-16
7.91736e-17
-8.09276e-17
5.93871e-17
-4.70872e-17
0
0
-3.44859e-17
6.10527e-17
-2.64113e-17
2.33755e-17
-2.56307e-17
4.07742e-18
-7.23093e-18
9.3125e-17
8.58979e-17
-7.68197e-17
5.75834e-17
-6.87428e-17
-9.98356e-17
0
0
0
0
0
0
1.7563e-17
-4.44071e-17
4.69654e-17
-1.44161e-17
1.78192e-17
8.11904e-18
-6.8565e-18
1.93837e-16
-3.21842e-16
4.01968e-16
-1.80463e-16
2.5055e-16
-1.73257e-16
3.18906e-16
-1.76169e-16
-8.84437e-17
9.04739e-17
0
2.22941e-17
-1.71581e-17
3.97278e-17
-1.41534e-17
-1.70125e-17
-3.39476e-17
2.621e-18
5.79206e-18
3.02168e-16
8.53149e-17
0
-1.28318e-16
-9.77771e-17
2.21016e-16
1.95984e-17
-8.40172e-17
4.90012e-17
-3.29645e-17
0
-1.76483e-17
0
-1.33184e-17
1.05745e-17
-9.23291e-18
-3.017e-18
2.07305e-18
0
4.21351e-16
-9.01872e-17
3.71761e-16
-2.90569e-16
-5.65467e-17
2.14782e-16
-1.28759e-16
7.15772e-18
5.72665e-18
-3.21044e-17
3.06904e-17
0
0
1.64755e-17
-5.62201e-18
3.5346e-18
1.09272e-17
-3.80268e-18
0
8.7903e-20
0
-8.29837e-17
4.75618e-16
-3.19393e-16
-3.25879e-16
1.77716e-16
-1.75158e-16
1.60644e-16
7.60365e-17
-5.5196e-17
2.18003e-17
-1.90671e-17
3.57308e-18
2.92471e-17
7.86638e-19
-1.05047e-17
1.03704e-17
-2.15359e-18
1.01951e-15
-3.23865e-16
1.51739e-16
-4.71963e-16
1.25437e-16
-1.90089e-16
1.03297e-16
0
0
-3.88602e-18
-5.455e-18
-1.6083e-18
0
-2.62945e-17
-1.94219e-17
1.39433e-17
-1.01625e-18
1.98336e-18
4.33347e-18
0
-3.19176e-16
5.29856e-16
1.11208e-16
-4.21572e-16
1.09644e-16
-1.62545e-16
3.09448e-17
1.28581e-16
0
0
2.31615e-18
2.37776e-17
0
-1.99812e-17
-8.83415e-18
1.30815e-18
-4.42511e-18
-5.21162e-18
0
-1.98206e-16
5.02556e-17
3.57185e-16
2.56995e-16
-4.66798e-16
2.09564e-16
-1.38862e-16
7.50842e-17
-9.88811e-17
0
0
0
-3.7417e-17
9.0735e-18
-1.19482e-17
0
-7.31548e-19
3.64065e-18
-7.6393e-16
7.21361e-16
7.52507e-16
-9.11891e-16
4.1329e-16
-3.8636e-16
0
1.47046e-16
-1.98965e-16
1.12725e-16
-8.49302e-17
6.75755e-17
5.35796e-17
3.86974e-17
2.9871e-17
0
0
0
0
8.51363e-16
-4.84062e-16
0
0
-1.52206e-16
3.60523e-16
-2.30177e-16
-1.56355e-16
1.54593e-16
1.10135e-16
1.80542e-16
-7.01161e-17
2.99884e-17
2.19797e-17
1.57853e-17
1.32061e-17
2.11222e-17
-1.0307e-18
1.04986e-18
-8.59811e-16
7.84446e-16
4.09032e-16
-2.14258e-16
4.51838e-16
-2.89219e-16
-2.21756e-16
-1.83158e-16
0
-2.32248e-16
1.30749e-17
8.19716e-17
-6.20498e-17
-4.9584e-17
-1.82175e-17
-1.87012e-17
-1.50085e-17
0
0
-2.95796e-16
0
2.24306e-16
-2.25019e-19
0
0
2.28749e-16
1.88993e-16
0
1.26755e-16
0
-1.2445e-16
-3.48738e-17
6.13135e-17
0
3.94075e-17
-5.52884e-18
5.64016e-18
0
6.32649e-16
0
4.28881e-16
-7.90182e-16
6.96258e-16
5.4699e-16
-1.94796e-17
0
1.57912e-17
1.50676e-16
0
-1.43037e-16
1.57147e-16
-1.39469e-16
-3.02993e-17
-3.14853e-17
-9.51707e-18
-1.74461e-18
-6.51027e-18
-5.82654e-16
8.3776e-16
-2.33363e-16
-6.01951e-16
-3.42713e-16
-2.90994e-16
-4.92716e-16
-1.92069e-16
1.7729e-17
6.79561e-17
-6.78284e-17
2.11763e-16
-9.35945e-17
1.85586e-16
-3.47299e-17
0
4.10804e-17
-2.46334e-17
6.5022e-18
1.30107e-15
-3.0968e-17
-9.67816e-16
7.85392e-16
-6.97362e-16
5.97715e-16
-2.15952e-17
-2.19202e-16
1.88281e-16
7.31541e-17
-1.01597e-17
-1.75342e-16
4.96971e-17
5.59208e-17
-1.63941e-17
1.65811e-17
-4.25493e-17
-5.59211e-18
-1.08915e-17
6.38711e-16
2.66196e-16
4.62572e-16
-4.01e-16
-3.23708e-16
1.95707e-17
-2.40833e-16
5.81256e-16
2.21901e-17
2.62583e-16
1.52595e-16
-1.34694e-16
0
-9.26208e-17
0
0
6.35644e-17
2.7528e-17
1.2655e-17
5.96283e-16
0
4.56535e-16
3.98412e-16
-3.49169e-16
3.00646e-16
0
-2.27293e-16
-3.13143e-16
-2.69696e-16
-1.53945e-16
1.36217e-16
0
0
0
0
-5.96493e-17
-4.64877e-17
0
-1.16819e-15
0
-2.55063e-17
-2.25909e-17
5.33363e-16
-2.94871e-16
-1.34345e-16
-1.35165e-16
3.20809e-16
0
8.35798e-17
-8.72747e-18
7.76988e-17
0
0
1.0417e-16
-7.80348e-18
5.58554e-17
-2.21956e-17
8.19952e-16
2.33087e-16
-2.30681e-16
-2.01072e-16
-6.86887e-16
4.67265e-16
5.58783e-16
-1.79426e-17
-2.20706e-16
2.21003e-16
4.60364e-17
-2.36285e-16
-1.91218e-16
-1.20425e-16
-1.28219e-16
-1.20197e-16
1.03668e-16
-4.86445e-18
2.2733e-17
-2.50907e-16
1.12928e-16
-5.42069e-16
9.12292e-17
-9.08973e-17
0
-2.78937e-16
-2.31213e-17
-2.59318e-16
2.61538e-17
2.5352e-16
1.84278e-16
-4.60877e-17
1.55206e-17
1.21683e-16
0
-2.18149e-16
-8.16708e-17
-1.68924e-18
5.14069e-16
-1.37904e-17
8.53004e-16
-4.03521e-16
8.94773e-19
1.05663e-17
3.16389e-16
-2.87128e-17
2.51496e-16
-2.35336e-16
-2.21817e-16
0
2.29023e-16
1.80803e-16
2.57603e-18
-3.75465e-18
1.19062e-16
8.30066e-17
0
-3.647e-16
0
-8.42865e-17
3.85474e-16
6.02849e-18
8.77651e-17
-3.05943e-16
2.883e-16
3.0954e-16
2.97099e-16
2.86598e-16
0
-2.22491e-16
0
1.21419e-17
-1.26104e-17
0
-1.22821e-18
6.08102e-17
2.54546e-16
1.47699e-17
-1.96377e-16
6.08563e-16
-1.94574e-16
0
0
-3.52617e-16
-2.99913e-16
-2.87822e-16
-5.28634e-16
-7.40463e-17
0
0
0
-2.52692e-17
2.67411e-17
1.72547e-16
-6.17444e-17
1.53932e-17
0
-4.28091e-16
-3.87878e-16
4.08869e-16
-4.06343e-16
-5.80474e-16
7.07032e-16
1.99893e-16
0
3.13914e-16
3.61536e-16
-7.80596e-17
4.26112e-16
-6.99498e-17
7.28007e-17
2.84645e-16
-1.63968e-16
0
-4.8556e-16
0
-4.6316e-16
4.53172e-16
0
8.10556e-16
3.79326e-16
-8.01546e-16
6.45345e-16
-3.88539e-18
-1.94331e-16
-3.50041e-16
0
4.90579e-16
-8.20079e-16
8.80872e-16
-1.12275e-15
0
0
4.83911e-16
-3.56908e-18
-8.7725e-18
-9.16104e-16
9.26277e-16
-4.46647e-16
4.44827e-16
4.38464e-16
-3.83814e-16
0
0
7.34678e-16
-7.47334e-16
-7.95604e-16
7.89717e-16
-7.70098e-16
8.33546e-16
-1.3063e-15
0
)
;

boundaryField
{
    up
    {
        type            calculated;
        value           nonuniform List<scalar> 
84
(
0
0
0
0
-4.40381e-17
7.90323e-17
-3.28125e-17
2.27329e-17
-1.99205e-17
0
-1.42089e-17
1.34696e-17
-8.64426e-18
1.13127e-18
9.22277e-19
5.71612e-18
0
0
-2.89627e-18
2.17129e-18
1.99587e-18
-1.93797e-18
1.70762e-19
0
7.72394e-19
3.94888e-19
-6.81352e-18
0
9.82794e-18
1.23556e-17
1.64753e-18
-2.90046e-18
1.18864e-18
0
-5.76204e-19
1.52351e-18
-1.49643e-18
2.40251e-18
0
-4.38466e-19
0
0
-2.3019e-19
4.52498e-19
-4.37216e-19
8.43003e-19
-1.59799e-18
1.55751e-18
-9.12576e-20
-1.53805e-18
0
0
0
-1.42058e-17
-1.94079e-18
1.14856e-18
0
-7.23093e-18
-6.8565e-18
5.02211e-18
0
0
-2.15359e-18
4.33347e-18
-5.21162e-18
3.64065e-18
0
1.04986e-18
0
0
-6.51027e-18
6.5022e-18
-1.08915e-17
1.2655e-17
0
-2.21956e-17
2.2733e-17
-1.68924e-18
0
6.08102e-17
-6.17444e-17
0
0
0
)
;
    }
    low
    {
        type            calculated;
        value           nonuniform List<scalar> 
84
(
-9.68938e-16
9.65712e-16
-4.69753e-16
7.44395e-16
1.30979e-16
-3.40398e-17
2.84478e-16
3.33492e-17
0
1.1969e-15
-3.03325e-16
2.4333e-16
-2.75406e-16
-1.80855e-15
2.95563e-16
0
-2.75235e-16
2.61423e-17
-2.51559e-17
-2.17255e-16
1.13569e-16
3.00555e-16
5.20221e-16
-4.58896e-16
0
-8.8856e-17
-4.57184e-17
0
-4.19343e-16
-1.19485e-16
-4.06168e-16
-4.3955e-16
4.75703e-16
1.61781e-16
1.11066e-15
8.89309e-17
0
7.42008e-16
7.28238e-16
4.13214e-16
-2.19283e-16
8.87736e-17
8.87767e-17
0
3.53158e-16
8.20515e-16
6.50964e-16
6.71064e-17
0
-1.53874e-15
9.43507e-16
9.62181e-20
1.04439e-19
3.65072e-16
0
-8.7186e-16
0
-4.9881e-17
9.3125e-17
1.92515e-16
2.99867e-16
4.19227e-16
8.7903e-20
1.0178e-15
0
0
-7.6393e-16
8.5059e-16
-8.59329e-16
-2.95796e-16
6.32736e-16
-5.82654e-16
1.30346e-15
6.40371e-16
5.96283e-16
-1.16819e-15
8.18126e-16
-2.48992e-16
5.14069e-16
-3.6392e-16
2.54546e-16
1.68261e-17
-4.8556e-16
4.84302e-16
)
;
    }
    left
    {
        type            calculated;
        value           nonuniform List<scalar> 
19
(
-9.68156e-16
-4.69731e-16
4.78399e-16
1.1781e-17
-9.07652e-16
0
-4.21243e-16
-4.15403e-16
-3.1082e-17
-2.19971e-16
-1.86449e-18
-2.19259e-16
9.77589e-16
-2.17315e-16
1.01457e-15
8.76205e-16
5.21368e-16
7.65212e-16
0
)
;
    }
    right
    {
        type            calculated;
        value           nonuniform List<scalar> 
19
(
4.83911e-16
-3.16276e-18
-8.7725e-18
-9.1612e-16
9.26573e-16
-4.46647e-16
4.44827e-16
4.38464e-16
-3.82375e-16
0
0
7.41585e-16
-7.57016e-16
-7.95604e-16
7.89717e-16
-7.70098e-16
8.33546e-16
-1.41258e-15
0
)
;
    }
    frontAndBackPlanes
    {
        type            empty;
    }
}


// ************************************************************************* //
