/*--------------------------------*- C++ -*----------------------------------*\
  =========                 |
  \\      /  F ield         | OpenFOAM: The Open Source CFD Toolbox
   \\    /   O peration     | Website:  https://openfoam.org
    \\  /    A nd           | Version:  7
     \\/     M anipulation  |
\*---------------------------------------------------------------------------*/
FoamFile
{
    version     2.0;
    format      ascii;
    class       volScalarField;
    location    "0.11";
    object      gradTx;
}
// * * * * * * * * * * * * * * * * * * * * * * * * * * * * * * * * * * * * * //

dimensions      [0 -1 0 1 0 0 0];

internalField   nonuniform List<scalar> 
1596
(
-0.298761
-1.49706
-2.65822
-3.66176
-4.48626
-5.12154
-5.60225
-5.95302
-6.20878
-6.42868
-6.63373
-6.89243
-7.27946
-7.89412
-8.84634
-10.3844
-12.8723
-17.0823
-24.6072
0.0751351
-1.21991
-2.35626
-3.30554
-4.07933
-4.6771
-5.13089
-5.45541
-5.67909
-5.83672
-5.93943
-6.02808
-6.12369
-6.25453
-6.42559
-6.63518
-6.79352
-6.70171
-5.92135
0.386238
-0.94137
-2.01907
-2.89175
-3.59523
-4.13984
-4.55349
-4.84724
-5.04189
-5.15886
-5.2034
-5.19937
-5.14997
-5.06195
-4.92777
-4.73001
-4.40006
-3.80906
-2.68685
0.450002
-0.752809
-1.70249
-2.46361
-3.07554
-3.55296
-3.91744
-4.17787
-4.34857
-4.44224
-4.46179
-4.41995
-4.31387
-4.14193
-3.89538
-3.55817
-3.08851
-2.41499
-1.38416
0.1898
-0.718137
-1.46383
-2.07555
-2.57474
-2.97155
-3.27871
-3.50238
-3.65127
-3.7317
-3.74589
-3.69895
-3.58616
-3.40221
-3.13917
-2.78329
-2.31054
-1.68356
-0.819798
-0.356858
-0.865059
-1.34997
-1.78015
-2.14742
-2.45037
-2.69126
-2.87222
-2.99678
-3.06625
-3.08233
-3.04488
-2.94856
-2.78616
-2.55029
-2.22799
-1.8045
-1.2596
-0.549713
-1.07147
-1.17829
-1.38308
-1.61324
-1.83439
-2.03151
-2.19661
-2.32669
-2.42047
-2.47518
-2.49147
-2.46559
-2.3919
-2.26209
-2.06883
-1.79906
-1.442
-0.984675
-0.403108
-1.80443
-1.5884
-1.53746
-1.5715
-1.64381
-1.72929
-1.81217
-1.88434
-1.94032
-1.97404
-1.98452
-1.96568
-1.9115
-1.81318
-1.66328
-1.44855
-1.15949
-0.785488
-0.311419
-2.55156
-2.12672
-1.86235
-1.70853
-1.62576
-1.58727
-1.5741
-1.5744
-1.57942
-1.58036
-1.57398
-1.55245
-1.50902
-1.4345
-1.32116
-1.15575
-0.928807
-0.629836
-0.246759
-2.99478
-2.51036
-2.13038
-1.84916
-1.64816
-1.50785
-1.41158
-1.34668
-1.30299
-1.27038
-1.24368
-1.21423
-1.17472
-1.11608
-1.03056
-0.905631
-0.731893
-0.49886
-0.195489
-3.36192
-2.86377
-2.42118
-2.05017
-1.75258
-1.5208
-1.34467
-1.21366
-1.11798
-1.04717
-0.994525
-0.950805
-0.908081
-0.85733
-0.790787
-0.696832
-0.566247
-0.388636
-0.153296
-3.7478
-3.26162
-2.78333
-2.34382
-1.96129
-1.64143
-1.38314
-1.18068
-1.02638
-0.91036
-0.824823
-0.759892
-0.706743
-0.656082
-0.599907
-0.527426
-0.429701
-0.296702
-0.118016
-3.8788
-3.46046
-3.00013
-2.54274
-2.11881
-1.74555
-1.43087
-1.17519
-0.974453
-0.820699
-0.706239
-0.621227
-0.556406
-0.502431
-0.451237
-0.392973
-0.319298
-0.221033
-0.0885655
-3.94571
-3.59597
-3.1714
-2.71762
-2.27238
-1.86239
-1.5038
-1.20366
-0.962251
-0.774165
-0.632511
-0.527707
-0.450196
-0.390498
-0.340403
-0.290774
-0.233852
-0.161419
-0.0649218
-3.99113
-3.70089
-3.31561
-2.87589
-2.42163
-1.9863
-1.59308
-1.25552
-0.978464
-0.759417
-0.592725
-0.469184
-0.379005
-0.312457
-0.261062
-0.216109
-0.170292
-0.116282
-0.0466396
-3.95465
-3.72834
-3.38937
-2.97587
-2.52763
-2.08221
-1.66816
-1.30472
-1.0012
-0.758151
-0.571526
-0.432727
-0.331928
-0.259199
-0.205809
-0.163294
-0.124688
-0.083417
-0.0330769
-3.82531
-3.66217
-3.37522
-2.99854
-2.57032
-2.13006
-1.70996
-1.3338
-1.01487
-0.756625
-0.556823
-0.407687
-0.299587
-0.222546
-0.167683
-0.126701
-0.0929064
-0.0603243
-0.0234258
-3.65735
-3.5371
-3.29755
-2.96055
-2.55973
-2.13441
-1.71886
-1.34021
-1.01499
-0.749243
-0.542431
-0.38766
-0.275627
-0.196419
-0.141097
-0.101501
-0.0711519
-0.0445337
-0.0167978
-3.5207
-3.43447
-3.23016
-2.92363
-2.54449
-2.13134
-1.72002
-1.34017
-1.01094
-0.740392
-0.529268
-0.371286
-0.257283
-0.1773
-0.122276
-0.0840854
-0.056368
-0.0339161
-0.0123635
-3.22419
-3.18798
-3.03121
-2.76946
-2.42902
-2.04637
-1.65731
-1.29274
-0.973634
-0.709798
-0.503273
-0.34868
-0.23737
-0.159712
-0.106853
-0.0709127
-0.0457792
-0.0265772
-0.00937108
-2.87133
-2.87606
-2.76482
-2.54938
-2.25268
-1.90835
-1.551
-1.21151
-0.911693
-0.662491
-0.466952
-0.320608
-0.215489
-0.142523
-0.0932893
-0.0603262
-0.0378653
-0.0213795
-0.00732679
-2.48214
-2.51333
-2.44114
-2.27082
-2.02088
-1.72112
-1.40376
-1.09831
-0.826349
-0.599228
-0.420642
-0.287025
-0.191249
-0.125054
-0.0807131
-0.0513891
-0.0317831
-0.0177275
-0.00598172
-2.02755
-2.07145
-2.03286
-1.90944
-1.71356
-1.4693
-1.2046
-0.94585
-0.713124
-0.517487
-0.363031
-0.247279
-0.164275
-0.106989
-0.0687799
-0.0437568
-0.0273038
-0.0156831
-0.00570608
-1.49307
-1.47594
-1.40257
-1.2774
-1.11403
-0.930776
-0.7458
-0.57391
-0.425174
-0.303947
-0.210544
-0.142003
-0.0936936
-0.060843
-0.0392414
-0.0253709
-0.0164943
-0.0102707
-0.00435406
-0.998837
-1.09735
-1.16724
-1.18383
-1.13882
-1.03836
-0.89902
-0.741127
-0.584176
-0.442182
-0.323105
-0.22945
-0.159163
-0.108611
-0.0736316
-0.0503769
-0.0354674
-0.0261328
-0.0196444
-0.333466
-0.369465
-0.408805
-0.438302
-0.449191
-0.437702
-0.405412
-0.357347
-0.301056
-0.243637
-0.190447
-0.145106
-0.108248
-0.0795385
-0.0579289
-0.0424617
-0.0319603
-0.0255355
-0.0220656
0.33532
0.297581
0.232315
0.151305
0.067916
-0.00599592
-0.0625138
-0.0984072
-0.115262
-0.11737
-0.109707
-0.0973287
-0.0830824
-0.0688924
-0.0557384
-0.0446034
-0.0359003
-0.0300363
-0.0266665
0.995546
0.944929
0.847879
0.71678
0.567995
0.418641
0.283231
0.171107
0.0856477
0.0253958
-0.0136465
-0.0370625
-0.0490691
-0.0530786
-0.0514349
-0.0466815
-0.0407843
-0.0357478
-0.0323162
1.57833
1.50086
1.36762
1.19228
0.992033
0.785868
0.591154
0.420315
0.279822
0.170439
0.0894542
0.031557
-0.00786544
-0.0326997
-0.0455569
-0.0496143
-0.0478168
-0.0439037
-0.0401757
2.161
2.04453
1.86769
1.64488
1.39434
1.13624
0.889302
0.667319
0.478394
0.324599
0.204173
0.112074
0.0434989
-0.00553991
-0.0371325
-0.0539892
-0.058831
-0.0567944
-0.0523388
2.57303
2.4142
2.20043
1.94526
1.6662
1.38169
1.10876
0.860024
0.643466
0.461591
0.313469
0.194608
0.100401
0.0270611
-0.0263725
-0.0609116
-0.0768094
-0.0787359
-0.0728907
2.93343
2.73948
2.4903
2.20484
1.90109
1.59578
1.30384
1.03609
0.799644
0.596803
0.427028
0.286048
0.169046
0.0716684
-0.00675469
-0.0658711
-0.101566
-0.114475
-0.109818
3.24079
3.00052
2.71493
2.40334
2.08207
1.76487
1.46371
1.18688
0.940142
0.725179
0.541671
0.385639
0.252015
0.135226
0.0332841
-0.0547636
-0.1215
-0.160565
-0.165563
3.40199
3.09462
2.75871
2.41204
2.0682
1.73761
1.42907
1.14826
0.899076
0.682139
0.496412
0.337837
0.200856
0.0783515
-0.0347822
-0.144106
-0.246051
-0.333648
-0.391782
3.46423
3.13441
2.80142
2.4764
2.16479
1.86998
1.59506
1.34204
1.1128
0.907869
0.727219
0.569334
0.431342
0.309104
0.197964
0.090284
-0.0195781
-0.137137
-0.262909
3.48484
3.14894
2.83
2.52709
2.23897
1.96578
1.70867
1.46907
1.24876
1.04866
0.869371
0.710732
0.571154
0.448784
0.341684
0.24691
0.161626
0.0821487
0.00340447
3.22887
2.84767
2.50589
2.19462
1.90927
1.6479
1.40967
1.19406
1.00083
0.828971
0.677418
0.544745
0.428531
0.32658
0.23713
0.158447
0.089535
0.0303232
-0.0196606
2.78267
2.44543
2.14663
1.87753
1.63336
1.41154
1.21054
1.0292
0.866802
0.722143
0.59414
0.481531
0.382313
0.294702
0.217254
0.148451
0.0872135
0.0331878
-0.0142533
2.27603
1.99962
1.75281
1.53088
1.33055
1.14958
0.986393
0.839694
0.708592
0.591848
0.488441
0.397234
0.316549
0.24492
0.181197
0.124158
0.0729747
0.0274459
-0.0128664
1.69296
1.48316
1.29737
1.13172
0.983264
0.849899
0.730098
0.622638
0.526677
0.441165
0.36529
0.298173
0.238575
0.185429
0.137941
0.0952503
0.0568201
0.0225846
-0.00772335
1.0572
0.917654
0.798435
0.694378
0.602288
0.520197
0.446808
0.381168
0.322638
0.27049
0.224183
0.183144
0.146599
0.113886
0.0845292
0.0580101
0.0340236
0.0125709
-0.00647025
0.403345
0.345761
0.298663
0.258292
0.222853
0.191421
0.163457
0.138588
0.116556
0.0970704
0.0798991
0.0647926
0.0514284
0.039524
0.0288624
0.0192174
0.0104438
0.00251423
-0.00462606
-0.403152
-0.345318
-0.298043
-0.257555
-0.222046
-0.190583
-0.162619
-0.137774
-0.115786
-0.0963582
-0.0792547
-0.0642224
-0.050937
-0.0391145
-0.0285366
-0.0189768
-0.0102889
-0.00244405
0.00461352
-1.05701
-0.917254
-0.797881
-0.693722
-0.601572
-0.519457
-0.446072
-0.380457
-0.321971
-0.269877
-0.223634
-0.182665
-0.146193
-0.113557
-0.0842783
-0.0578388
-0.0339325
-0.012559
0.00640541
-1.69277
-1.48277
-1.29681
-1.13106
-0.982544
-0.84915
-0.72935
-0.621913
-0.525994
-0.440536
-0.364724
-0.297674
-0.238146
-0.18507
-0.13765
-0.0950269
-0.0566617
-0.0224875
0.00776333
-2.27587
-1.99932
-1.7524
-1.5304
-1.33002
-1.14903
-0.985852
-0.839178
-0.708114
-0.591418
-0.488065
-0.396913
-0.316286
-0.244712
-0.181045
-0.124058
-0.0729248
-0.0274428
0.0128263
-2.78255
-2.44521
-2.14631
-1.87715
-1.63295
-1.41112
-1.21012
-1.02881
-0.866442
-0.721825
-0.593868
-0.481308
-0.382137
-0.29457
-0.217164
-0.148399
-0.0871953
-0.0331963
0.0142264
-3.22884
-2.84756
-2.50571
-2.19438
-1.909
-1.64763
-1.40942
-1.19384
-1.00064
-0.82883
-0.677321
-0.54469
-0.428515
-0.326599
-0.23718
-0.158521
-0.0896208
-0.0304045
0.0196006
-3.48479
-3.14857
-2.82926
-2.526
-2.23759
-1.96418
-1.70694
-1.46728
-1.24698
-1.04695
-0.867757
-0.709234
-0.569773
-0.447508
-0.3405
-0.245817
-0.160654
-0.0813955
-0.00304812
-3.46479
-3.13591
-2.80386
-2.47971
-2.16882
-1.87456
-1.59999
-1.34716
-1.11792
-0.912878
-0.732021
-0.573887
-0.435646
-0.313208
-0.201954
-0.0942835
0.0154687
0.132905
0.258736
-3.40169
-3.09388
-2.75753
-2.41051
-2.0664
-1.73565
-1.42703
-1.14622
-0.897093
-0.680249
-0.494634
-0.336181
-0.199321
-0.0769309
0.0361194
0.145428
0.247512
0.335518
0.394418
-3.24096
-3.00096
-2.71561
-2.40422
-2.08311
-1.76603
-1.46491
-1.18809
-0.941302
-0.726256
-0.542644
-0.386499
-0.25276
-0.135849
-0.0337623
0.0544831
0.12148
0.160838
0.166058
-2.93353
-2.73975
-2.49073
-2.20542
-1.9018
-1.59658
-1.3047
-1.03695
-0.800461
-0.597548
-0.427683
-0.286603
-0.169496
-0.0720023
0.00655976
0.0658486
0.101729
0.114776
0.110162
-2.57314
-2.41449
-2.20089
-1.94589
-1.66696
-1.38253
-1.10963
-0.860874
-0.644251
-0.462282
-0.314051
-0.195078
-0.100759
-0.0273032
0.0262538
0.0609237
0.0769396
0.0789361
0.073086
-2.16111
-2.04484
-1.86819
-1.64555
-1.39514
-1.13711
-0.890183
-0.668152
-0.479137
-0.325228
-0.204681
-0.112465
-0.0437793
0.00536398
0.0370567
0.0540053
0.0589183
0.0569184
0.0524565
-1.57844
-1.50116
-1.36812
-1.19294
-0.992817
-0.786702
-0.591973
-0.421064
-0.280466
-0.170961
-0.0898577
-0.031852
0.00766601
0.0325851
0.0455166
0.0496348
0.0478788
0.0439848
0.0402518
-0.995675
-0.94527
-0.848425
-0.71749
-0.568803
-0.41947
-0.284012
-0.171789
-0.0862055
-0.0258249
0.0133342
0.0368491
0.0489368
0.0530126
0.0514217
0.0467071
0.0408335
0.0358067
0.0323712
-0.335437
-0.29792
-0.23286
-0.152001
-0.0686827
0.00523993
0.0618352
0.097846
0.114831
0.117062
0.109501
0.0972029
0.0830172
0.0688727
0.0557512
0.0446374
0.0359451
0.030085
0.0267127
0.333178
0.368613
0.407436
0.43657
0.447305
0.435862
0.403773
0.355994
0.300011
0.242875
0.189919
0.144758
0.108032
0.0794147
0.0578662
0.0424373
0.0319579
0.0255474
0.0220934
0.999017
1.09803
1.16845
1.18549
1.14076
1.04039
0.900959
0.74285
0.585616
0.443326
0.323975
0.230091
0.159625
0.108941
0.0738689
0.0505517
0.0356013
0.0262407
0.0197334
1.49284
1.47517
1.40133
1.27582
1.11231
0.929077
0.744259
0.572601
0.424122
0.30314
0.209949
0.141578
0.0934008
0.0606474
0.0391148
0.0252918
0.0164471
0.0102453
0.00434536
2.02765
2.07166
2.03316
1.90979
1.71391
1.46962
1.20486
0.94604
0.713251
0.517563
0.363071
0.247295
0.164279
0.106989
0.0687785
0.0437558
0.0273035
0.0156836
0.00570713
2.48215
2.51334
2.44115
2.27082
2.02087
1.7211
1.40374
1.09829
0.826323
0.599205
0.420623
0.287012
0.19124
0.12505
0.0807123
0.0513903
0.0317852
0.0177297
0.00598294
2.87133
2.87607
2.76483
2.54938
2.25267
1.90833
1.55098
1.21148
0.911672
0.662474
0.46694
0.320601
0.215486
0.142523
0.093292
0.0603301
0.0378693
0.0213825
0.00732784
3.22419
3.18799
3.03121
2.76946
2.42901
2.04635
1.65729
1.29272
0.973617
0.709785
0.503265
0.348676
0.23737
0.159715
0.106858
0.0709186
0.0457847
0.026581
0.00937225
3.52071
3.43449
3.23017
2.92364
2.54449
2.13134
1.72001
1.34016
1.01093
0.740383
0.529262
0.371284
0.257286
0.177305
0.122283
0.0840933
0.0563751
0.0339207
0.0123648
3.65736
3.53711
3.29756
2.96056
2.55974
2.13441
1.71886
1.3402
1.01498
0.749236
0.542427
0.387661
0.275632
0.196427
0.141107
0.101511
0.0711603
0.0445389
0.016799
3.82532
3.66218
3.37523
2.99855
2.57032
2.13006
1.70996
1.3338
1.01486
0.756621
0.556823
0.40769
0.299594
0.222556
0.167695
0.126713
0.0929152
0.0603292
0.0234266
3.95466
3.72835
3.38938
2.97589
2.52764
2.08221
1.66816
1.30471
1.0012
0.75815
0.571528
0.432733
0.331937
0.259211
0.205822
0.163305
0.124695
0.0834198
0.0330768
3.99113
3.70089
3.31561
2.8759
2.42164
1.9863
1.59308
1.25552
0.978462
0.759417
0.592729
0.469192
0.379016
0.312468
0.261072
0.216116
0.170294
0.116281
0.0466381
3.94571
3.59598
3.17141
2.71763
2.27239
1.86239
1.5038
1.20367
0.962252
0.774168
0.632517
0.527715
0.450205
0.390506
0.340407
0.290773
0.233846
0.161412
0.0649188
3.87881
3.46047
3.00015
2.54276
2.11882
1.74556
1.43088
1.17519
0.974458
0.820705
0.706246
0.621234
0.55641
0.502431
0.451231
0.392961
0.319283
0.221021
0.0885617
3.7478
3.26162
2.78333
2.34382
1.96129
1.64143
1.38314
1.18068
1.02638
0.910361
0.824824
0.75989
0.706736
0.656068
0.599885
0.527399
0.429675
0.296684
0.118012
3.36194
2.86379
2.42119
2.05018
1.75258
1.52081
1.34468
1.21366
1.11798
1.04717
0.99452
0.950794
0.908061
0.857301
0.790751
0.696794
0.566215
0.388619
0.153295
2.99481
2.51038
2.13039
1.84916
1.64816
1.50786
1.41159
1.34668
1.30299
1.27037
1.24367
1.2142
1.17469
1.11604
1.03052
0.905588
0.731863
0.498848
0.195491
2.55159
2.12674
1.86235
1.70853
1.62577
1.58728
1.5741
1.57439
1.57941
1.58035
1.57395
1.55241
1.50897
1.43445
1.32111
1.15572
0.928789
0.629835
0.246765
1.80445
1.58841
1.53747
1.57151
1.64381
1.7293
1.81217
1.88433
1.9403
1.97401
1.98448
1.96563
1.91145
1.81313
1.66325
1.44853
1.15949
0.7855
0.311427
1.07149
1.1783
1.38309
1.61325
1.8344
2.03152
2.19661
2.32668
2.42045
2.47515
2.49143
2.46554
2.39186
2.26206
2.06882
1.79907
1.44203
0.984697
0.403115
0.356869
0.865073
1.34999
1.78016
2.14743
2.45037
2.69126
2.8722
2.99675
3.06622
3.0823
3.04484
2.94854
2.78616
2.5503
2.22802
1.80454
1.25962
0.549717
-0.189793
0.718153
1.46385
2.07557
2.57475
2.97155
3.2787
3.50236
3.65125
3.73168
3.74587
3.69894
3.58616
3.40223
3.13921
2.78334
2.31058
1.68358
0.819795
-0.45
0.752823
1.70251
2.46362
3.07555
3.55295
3.91743
4.17785
4.34856
4.44223
4.46178
4.41996
4.3139
4.14198
3.89543
3.55821
3.08853
2.41499
1.38415
-0.386239
0.941374
2.01907
2.89174
3.59522
4.13983
4.55348
4.84724
5.04189
5.15887
5.20342
5.19941
5.15001
5.062
4.92781
4.73003
4.40006
3.80904
2.68684
-0.0751339
1.2199
2.35625
3.30553
4.07931
4.67708
5.13088
5.45541
5.6791
5.83674
5.93947
6.02812
6.12373
6.25456
6.4256
6.63517
6.79349
6.70168
5.92134
0.298765
1.49705
2.6582
3.66174
4.48624
5.12153
5.60224
5.95303
6.20879
6.4287
6.63376
6.89246
7.27947
7.89411
8.84631
10.3843
12.8722
17.0823
24.6072
)
;

boundaryField
{
    up
    {
        type            calculated;
        value           nonuniform List<scalar> 
84
(
-24.6072
-5.92135
-2.68685
-1.38416
-0.819798
-0.549713
-0.403108
-0.311419
-0.246759
-0.195489
-0.153296
-0.118016
-0.0885655
-0.0649218
-0.0466396
-0.0330769
-0.0234258
-0.0167978
-0.0123635
-0.00937108
-0.00732679
-0.00598172
-0.00570608
-0.00435406
-0.0162786
-0.0198706
-0.0241419
-0.0291072
-0.0357653
-0.0458724
-0.0626469
-0.0910518
-0.132294
-0.370941
-0.265311
0.00327659
-0.0192707
-0.0140014
-0.012716
-0.00765621
-0.00643873
-0.0046159
0.00460345
0.00637428
0.00769653
0.0126769
0.0139758
0.019212
-0.00292678
0.261148
0.374005
0.132756
0.0913183
0.0627924
0.0459584
0.0358215
0.0291499
0.0241808
0.019904
0.0163536
0.00434536
0.00570713
0.00598294
0.00732784
0.00937225
0.0123648
0.016799
0.0234266
0.0330768
0.0466381
0.0649188
0.0885617
0.118012
0.153295
0.195491
0.246765
0.311427
0.403115
0.549717
0.819795
1.38415
2.68684
5.92134
24.6072
)
;
    }
    low
    {
        type            calculated;
        value           nonuniform List<scalar> 
84
(
-0.268376
0.121866
0.460129
0.528444
0.2379
-0.365524
-1.14095
-1.91843
-2.68153
-3.10177
-3.45865
-3.8314
-3.92555
-3.97208
-4.00638
-3.94947
-3.80116
-3.62858
-3.47814
-3.15268
-2.78214
-2.38434
-1.92576
-1.39963
-0.922429
-0.305234
0.303045
0.916698
1.48079
2.06968
2.50593
2.8857
3.21779
3.408
3.4915
3.53641
3.30425
2.85797
2.34057
1.74287
1.08963
0.416728
-0.416534
-1.08944
-1.74267
-2.3404
-2.85783
-3.30418
-3.53633
-3.49196
-3.40771
-3.21792
-2.88579
-2.50604
-2.06979
-1.48091
-0.916833
-0.303164
0.304952
0.922603
1.39941
1.92584
2.38435
2.78214
3.15268
3.47815
3.62859
3.80116
3.94948
4.00638
3.97209
3.92557
3.83139
3.45867
3.1018
2.68155
1.91845
1.14097
0.365537
-0.237893
-0.528446
-0.460139
-0.121873
0.268378
)
;
    }
    left
    {
        type            calculated;
        value           nonuniform List<scalar> 
19
(
-0.268027
-1.44588
-2.63622
-3.67933
-4.54304
-5.21021
-5.71721
-6.09213
-6.36937
-6.62066
-6.867
-7.18307
-7.66373
-8.43705
-9.6379
-11.6098
-14.8562
-20.455
-21.338
)
;
    }
    right
    {
        type            calculated;
        value           nonuniform List<scalar> 
19
(
0.268031
1.44588
2.63621
3.67932
4.54302
5.2102
5.7172
6.09213
6.36938
6.62068
6.86702
7.18308
7.66372
8.43703
9.63786
11.6098
14.8562
20.455
21.3381
)
;
    }
    frontAndBackPlanes
    {
        type            empty;
    }
}


// ************************************************************************* //
