/*--------------------------------*- C++ -*----------------------------------*\
  =========                 |
  \\      /  F ield         | OpenFOAM: The Open Source CFD Toolbox
   \\    /   O peration     | Website:  https://openfoam.org
    \\  /    A nd           | Version:  7
     \\/     M anipulation  |
\*---------------------------------------------------------------------------*/
FoamFile
{
    version     2.0;
    format      ascii;
    class       volScalarField;
    location    "0.43";
    object      gradTy;
}
// * * * * * * * * * * * * * * * * * * * * * * * * * * * * * * * * * * * * * //

dimensions      [0 -1 0 1 0 0 0];

internalField   nonuniform List<scalar> 
1596
(
-0.340234
-0.636564
-0.889029
-1.14451
-1.40615
-1.70683
-2.03686
-2.43496
-2.91956
-3.50439
-4.29824
-5.30539
-6.68101
-8.61403
-11.5798
-16.1693
-24.3256
-39.34
-92.9368
-1.03856
-1.29364
-1.48715
-1.6856
-1.89756
-2.15699
-2.45447
-2.82363
-3.28012
-3.82793
-4.55521
-5.45557
-6.63164
-8.16971
-10.3126
-13.188
-17.4427
-23.686
-41.4055
-1.86096
-1.96419
-2.05593
-2.17805
-2.32838
-2.53441
-2.78356
-3.10356
-3.50465
-3.98402
-4.61168
-5.37086
-6.33092
-7.53212
-9.12072
-11.1213
-13.8841
-17.6693
-25.8087
-2.72397
-2.61738
-2.58266
-2.61546
-2.69545
-2.83906
-3.02968
-3.28833
-3.62021
-4.01809
-4.53689
-5.15431
-5.91765
-6.84358
-8.02354
-9.44279
-11.3058
-13.724
-17.8848
-3.52005
-3.21473
-3.05419
-2.99524
-3.00194
-3.07902
-3.20667
-3.39921
-3.65794
-3.9733
-4.38782
-4.87802
-5.47649
-6.18825
-7.07257
-8.10233
-9.40417
-11.0227
-13.3959
-4.15147
-3.7194
-3.45915
-3.31804
-3.25534
-3.26704
-3.33231
-3.45952
-3.64737
-3.88555
-4.20644
-4.5881
-5.05309
-5.60085
-6.27078
-7.03439
-7.97333
-9.10168
-10.589
-4.5645
-4.10288
-3.7873
-3.58489
-3.46351
-3.41601
-3.42343
-3.48973
-3.61229
-3.78116
-4.02054
-4.31138
-4.66917
-5.09091
-5.60299
-6.17975
-6.87486
-7.68867
-8.69008
-4.75765
-4.34812
-4.02709
-3.79213
-3.62886
-3.53287
-3.49022
-3.50248
-3.56699
-3.67507
-3.84442
-4.05947
-4.33067
-4.65414
-5.04751
-5.48905
-6.01428
-6.61775
-7.32798
-4.77094
-4.47422
-4.19148
-3.9532
-3.76662
-3.63468
-3.55079
-3.51646
-3.53015
-3.58507
-3.69418
-3.8453
-4.04537
-4.29037
-4.59189
-4.93191
-5.3337
-5.78958
-6.31074
-4.63901
-4.4638
-4.24854
-4.03554
-3.84773
-3.69668
-3.58399
-3.5132
-3.48497
-3.49492
-3.55303
-3.65029
-3.79149
-3.97296
-4.20235
-4.46491
-4.77587
-5.12698
-5.52135
-4.47307
-4.38566
-4.23921
-4.06566
-3.89231
-3.73621
-3.606
-3.50818
-3.4462
-3.41846
-3.43338
-3.48489
-3.57657
-3.70536
-3.87639
-4.07751
-4.31856
-4.5914
-4.89521
-4.26797
-4.27058
-4.1917
-4.06322
-3.91353
-3.76238
-3.6235
-3.50636
-3.41735
-3.35777
-3.33558
-3.34739
-3.39634
-3.48019
-3.6025
-3.75324
-3.93865
-4.15104
-4.38772
-4.01627
-4.09866
-4.08597
-4.00679
-3.88851
-3.75193
-3.61378
-3.4861
-3.37793
-3.29328
-3.24057
-3.21885
-3.23155
-3.27742
-3.35938
-3.46918
-3.61086
-3.77727
-3.96472
-3.78907
-3.91753
-3.9577
-3.92438
-3.83937
-3.72227
-3.5908
-3.45877
-3.33734
-3.23287
-3.15476
-3.10425
-3.08549
-3.0984
-3.14583
-3.22104
-3.32682
-3.45656
-3.60613
-3.57687
-3.74112
-3.82236
-3.82863
-3.77548
-3.67971
-3.5585
-3.42648
-3.29626
-3.17614
-3.07669
-3.00111
-2.95458
-2.93828
-2.95546
-3.00075
-3.07637
-3.17625
-3.29615
-3.36929
-3.56636
-3.68214
-3.7226
-3.69888
-3.62481
-3.51607
-3.38733
-3.25202
-3.11987
-3.0026
-2.90514
-2.83389
-2.79139
-2.78164
-2.80065
-2.85057
-2.92587
-3.02235
-3.18056
-3.39892
-3.54247
-3.61207
-3.61476
-3.56154
-3.4662
-3.34287
-3.20522
-3.06395
-2.93176
-2.81506
-2.72149
-2.65499
-2.62066
-2.6159
-2.64329
-2.69792
-2.77562
-3.01454
-3.24622
-3.41127
-3.50523
-3.53114
-3.49716
-3.41509
-3.29815
-3.15986
-3.01148
-2.86645
-2.7324
-2.6181
-2.52888
-2.47109
-2.44376
-2.45035
-2.48677
-2.549
-2.85123
-3.10695
-3.29364
-3.40975
-3.45674
-3.44054
-3.37121
-3.26091
-3.12281
-2.96846
-2.81177
-2.66137
-2.52699
-2.41518
-2.33366
-2.2832
-2.26885
-2.28785
-2.33659
-2.68721
-2.96955
-3.17955
-3.31753
-3.38468
-3.38569
-3.32916
-3.22625
-3.08962
-2.93087
-2.76418
-2.59889
-2.44545
-2.31135
-2.2055
-2.13045
-2.09359
-2.09456
-2.13114
-2.54805
-2.84651
-3.07753
-3.23639
-3.32275
-3.34019
-3.29612
-3.20082
-3.06635
-2.90418
-2.72864
-2.5495
-2.37772
-2.22125
-2.08972
-1.98688
-1.92292
-1.90161
-1.92475
-2.42713
-2.74024
-2.99023
-3.16887
-3.27371
-3.30707
-3.2753
-3.18786
-3.0562
-2.89152
-2.70818
-2.51619
-2.32687
-2.14828
-1.98991
-1.85527
-1.75631
-1.7021
-1.7046
-2.319
-2.64955
-2.91844
-3.11623
-3.23895
-3.28787
-3.26836
-3.18918
-3.06111
-2.89492
-2.70486
-2.50111
-2.29534
-2.09568
-1.91086
-1.74196
-1.59857
-1.49048
-1.44764
-2.22635
-2.5756
-2.86262
-3.07705
-3.21433
-3.27473
-3.26352
-3.18859
-3.0603
-2.88929
-2.68846
-2.46951
-2.24439
-2.02207
-1.81036
-1.60829
-1.41651
-1.22977
-1.04857
-2.15489
-2.52215
-2.82978
-3.06627
-3.22748
-3.31272
-3.32724
-3.27729
-3.17184
-3.0208
-2.83368
-2.62297
-2.39958
-2.17477
-1.95659
-1.74685
-1.54017
-1.32285
-1.06722
-2.10965
-2.48804
-2.80562
-3.05317
-3.22712
-3.32677
-3.35718
-3.32378
-3.2342
-3.09712
-2.91882
-2.71101
-2.48388
-2.25038
-2.02141
-1.80582
-1.60322
-1.41026
-1.21443
-2.11858
-2.50217
-2.82522
-3.0798
-3.26274
-3.37439
-3.41958
-3.40387
-3.33387
-3.21642
-3.0557
-2.85998
-2.63758
-2.40132
-2.165
-1.94177
-1.73669
-1.5503
-1.374
-2.18853
-2.57073
-2.89229
-3.14662
-3.33135
-3.44826
-3.50251
-3.50025
-3.44762
-3.35003
-3.20955
-3.03043
-2.81741
-2.58112
-2.33681
-2.10184
-1.88744
-1.69838
-1.52838
-2.3156
-2.69339
-3.00711
-3.25427
-3.43408
-3.55006
-3.60812
-3.61526
-3.57764
-3.4999
-3.38233
-3.22523
-3.02827
-2.79725
-2.54594
-2.2952
-2.06363
-1.86264
-1.689
-2.4993
-2.86348
-3.16192
-3.39524
-3.56414
-3.67381
-3.73118
-3.74421
-3.71948
-3.66162
-3.56996
-3.44185
-3.27125
-3.05635
-2.80465
-2.53703
-2.27965
-2.05514
-1.86704
-2.74027
-3.08037
-3.3577
-3.57188
-3.72495
-3.82382
-3.87667
-3.89229
-3.87792
-3.83899
-3.77502
-3.68251
-3.55097
-3.36976
-3.13403
-2.85679
-2.56594
-2.29997
-2.07941
-3.01236
-3.33208
-3.58532
-3.77581
-3.90869
-3.99288
-4.03777
-4.05275
-4.04569
-4.02331
-3.98649
-3.93391
-3.85447
-3.73169
-3.54528
-3.28943
-2.97492
-2.64642
-2.35781
-3.33224
-3.6245
-3.84657
-4.00721
-4.11487
-4.1802
-4.21336
-4.22381
-4.21959
-4.20857
-4.19338
-4.17733
-4.1542
-4.11063
-4.01845
-3.85308
-3.58398
-3.21828
-2.77722
-3.7141
-3.9668
-4.14964
-4.27532
-4.35507
-4.40069
-4.42225
-4.42877
-4.42785
-4.42759
-4.43247
-4.4499
-4.48223
-4.52959
-4.57695
-4.60846
-4.57764
-4.4521
-4.19842
-4.15168
-4.35293
-4.48265
-4.56044
-4.59978
-4.61288
-4.60821
-4.5936
-4.57493
-4.55774
-4.54651
-4.54632
-4.5622
-4.60067
-4.66565
-4.76664
-4.89775
-5.0494
-5.20196
-4.65747
-4.78235
-4.84482
-4.86715
-4.86223
-4.84117
-4.81019
-4.77585
-4.74251
-4.71329
-4.69292
-4.68299
-4.68718
-4.70815
-4.75026
-4.81722
-4.91756
-5.05863
-5.25263
-5.22513
-5.24826
-5.2356
-5.202
-5.15585
-5.10488
-5.05288
-5.00443
-4.96231
-4.92813
-4.90541
-4.89374
-4.89461
-4.90734
-4.93188
-4.96341
-5.00118
-5.03897
-5.07374
-5.7678
-5.68517
-5.59594
-5.50532
-5.41654
-5.33329
-5.25696
-5.18974
-5.1327
-5.08608
-5.05143
-5.02745
-5.01399
-5.00939
-5.01256
-5.01978
-5.03043
-5.04136
-5.05154
-6.23143
-6.06347
-5.90897
-5.76859
-5.64215
-5.53013
-5.43185
-5.34741
-5.27647
-5.21821
-5.1728
-5.13866
-5.11489
-5.0998
-5.09218
-5.08934
-5.09056
-5.09367
-5.09765
-6.6117
-6.37181
-6.16272
-5.98096
-5.82332
-5.68746
-5.57097
-5.4722
-5.38971
-5.32194
-5.26809
-5.22654
-5.19597
-5.17473
-5.16152
-5.15421
-5.15178
-5.15247
-5.15514
-6.89058
-6.59506
-6.34398
-6.13111
-5.95052
-5.79741
-5.66788
-5.55897
-5.46842
-5.39418
-5.33485
-5.28879
-5.25442
-5.2301
-5.21436
-5.20533
-5.20155
-5.20131
-5.20318
-7.06333
-6.72013
-6.44056
-6.20918
-6.01587
-5.85359
-5.71728
-5.60317
-5.50856
-5.43113
-5.36917
-5.32109
-5.28517
-5.25986
-5.24366
-5.23491
-5.23203
-5.23343
-5.23756
-7.06337
-6.72021
-6.44065
-6.20927
-6.01597
-5.85368
-5.71737
-5.60326
-5.50865
-5.43122
-5.36926
-5.32117
-5.28525
-5.25994
-5.24373
-5.23498
-5.23211
-5.23351
-5.23762
-6.89065
-6.59521
-6.34418
-6.13134
-5.95076
-5.79766
-5.66813
-5.55921
-5.46866
-5.39442
-5.33508
-5.28902
-5.25464
-5.23033
-5.21459
-5.20557
-5.2018
-5.20158
-5.20349
-6.61181
-6.37205
-6.16304
-5.98132
-5.82371
-5.68786
-5.57137
-5.4726
-5.3901
-5.32232
-5.26847
-5.22691
-5.19634
-5.1751
-5.16188
-5.15458
-5.15216
-5.15287
-5.15555
-6.23158
-6.06378
-5.90938
-5.76905
-5.64265
-5.53064
-5.43236
-5.34792
-5.27697
-5.21871
-5.17328
-5.13912
-5.11534
-5.10022
-5.09258
-5.08971
-5.0909
-5.09399
-5.09795
-5.76796
-5.68551
-5.5964
-5.50585
-5.41711
-5.33389
-5.25757
-5.19035
-5.13331
-5.08668
-5.052
-5.028
-5.01451
-5.00986
-5.01298
-5.02013
-5.03071
-5.04158
-5.0517
-5.22531
-5.24863
-5.23609
-5.20257
-5.15647
-5.10554
-5.05355
-5.00512
-4.963
-4.92882
-4.90607
-4.89437
-4.89519
-4.90783
-4.93223
-4.9636
-5.00116
-5.03873
-5.07328
-4.65766
-4.78275
-4.84539
-4.86787
-4.86307
-4.84212
-4.81125
-4.77701
-4.74377
-4.71467
-4.69443
-4.68463
-4.68895
-4.71004
-4.75221
-4.81906
-4.91899
-5.05913
-5.25144
-4.15181
-4.35303
-4.48274
-4.56053
-4.59984
-4.61289
-4.60814
-4.59343
-4.57463
-4.55725
-4.54578
-4.54525
-4.56068
-4.59856
-4.66287
-4.76324
-4.89423
-5.04684
-5.20212
-3.71417
-3.96698
-4.14993
-4.27573
-4.35561
-4.40137
-4.42307
-4.42973
-4.42895
-4.42884
-4.4339
-4.45155
-4.48421
-4.5321
-4.58038
-4.61342
-4.58486
-4.46222
-4.21183
-3.33228
-3.62454
-3.84665
-4.00734
-4.11507
-4.18047
-4.2137
-4.22422
-4.22008
-4.20916
-4.19408
-4.17822
-4.1554
-4.11233
-4.02087
-3.85636
-3.58794
-3.22231
-2.78013
-3.01239
-3.3321
-3.58537
-3.77591
-3.90886
-3.99314
-4.03811
-4.05319
-4.04624
-4.024
-3.98736
-3.93502
-3.85594
-3.73361
-3.54767
-3.29216
-2.97765
-2.64878
-2.35968
-2.74029
-3.08036
-3.35771
-3.57193
-3.72507
-3.82403
-3.87697
-3.8927
-3.87845
-3.83969
-3.77591
-3.68365
-3.55242
-3.37153
-3.13603
-2.85883
-2.56782
-2.30159
-2.08078
-2.49932
-2.86347
-3.1619
-3.39527
-3.56423
-3.67397
-3.73145
-3.74459
-3.71999
-3.66229
-3.57083
-3.44295
-3.27258
-3.05787
-2.80625
-2.53858
-2.28106
-2.05638
-1.86816
-2.31561
-2.69336
-3.00708
-3.25426
-3.43413
-3.55019
-3.60835
-3.61561
-3.57812
-3.50053
-3.38314
-3.22623
-3.02943
-2.79852
-2.54723
-2.29642
-2.06476
-1.86368
-1.69
-2.18854
-2.57069
-2.89225
-3.1466
-3.33137
-3.44836
-3.5027
-3.50056
-3.44806
-3.35061
-3.21029
-3.03132
-2.8184
-2.58218
-2.33785
-2.10284
-1.88838
-1.69929
-1.52933
-2.11859
-2.50214
-2.82517
-3.07977
-3.26275
-3.37447
-3.41974
-3.40414
-3.33426
-3.21694
-3.05635
-2.86074
-2.63841
-2.40219
-2.16586
-1.9426
-1.73751
-1.55116
-1.37499
-2.10966
-2.488
-2.80555
-3.0531
-3.22707
-3.32676
-3.35723
-3.3239
-3.2344
-3.0974
-2.91917
-2.71142
-2.48432
-2.2508
-2.0218
-1.80621
-1.60364
-1.41084
-1.21539
-2.15497
-2.52222
-2.82985
-3.06636
-3.22761
-3.3129
-3.32749
-3.27763
-3.17226
-3.02132
-2.83429
-2.62366
-2.40033
-2.17556
-1.95741
-1.74768
-1.54099
-1.32364
-1.06793
-2.22643
-2.57568
-2.8627
-3.07711
-3.21437
-3.27473
-3.26349
-3.18852
-3.06019
-2.88913
-2.68826
-2.46927
-2.24412
-2.02176
-1.81001
-1.60789
-1.41604
-1.22924
-1.04798
-2.31906
-2.64961
-2.9185
-3.11629
-3.23901
-3.28792
-3.2684
-3.1892
-3.06112
-2.89493
-2.70485
-2.5011
-2.29532
-2.09565
-1.91082
-1.74193
-1.59855
-1.49049
-1.44768
-2.42719
-2.74029
-2.99028
-3.16891
-3.27374
-3.30709
-3.27531
-3.18786
-3.05619
-2.8915
-2.70815
-2.51616
-2.32683
-2.14824
-1.98987
-1.85524
-1.7563
-1.7021
-1.70462
-2.54809
-2.84655
-3.07757
-3.23642
-3.32278
-3.34021
-3.29613
-3.20082
-3.06634
-2.90416
-2.72862
-2.54947
-2.37769
-2.22122
-2.0897
-1.98686
-1.92292
-1.90161
-1.92475
-2.68725
-2.96958
-3.17958
-3.31755
-3.3847
-3.3857
-3.32917
-3.22625
-3.08961
-2.93085
-2.76416
-2.59886
-2.44543
-2.31133
-2.20548
-2.13044
-2.09358
-2.09456
-2.13113
-2.85126
-3.10698
-3.29366
-3.40977
-3.45675
-3.44055
-3.37121
-3.26091
-3.1228
-2.96844
-2.81176
-2.66135
-2.52697
-2.41516
-2.33365
-2.2832
-2.26885
-2.28784
-2.33659
-3.01457
-3.24624
-3.41129
-3.50525
-3.53115
-3.49717
-3.41509
-3.29815
-3.15986
-3.01148
-2.86644
-2.73239
-2.61809
-2.52887
-2.47109
-2.44375
-2.45034
-2.48677
-2.549
-3.18058
-3.39893
-3.54249
-3.61208
-3.61476
-3.56155
-3.4662
-3.34287
-3.20522
-3.06394
-2.93175
-2.81505
-2.72148
-2.65499
-2.62065
-2.6159
-2.64329
-2.69791
-2.77561
-3.3693
-3.56637
-3.68215
-3.72261
-3.69889
-3.62481
-3.51607
-3.38733
-3.25202
-3.11987
-3.0026
-2.90514
-2.83389
-2.79138
-2.78164
-2.80065
-2.85057
-2.92587
-3.02234
-3.57687
-3.74112
-3.82237
-3.82864
-3.77549
-3.67971
-3.5585
-3.42648
-3.29626
-3.17614
-3.07669
-3.00111
-2.95457
-2.93828
-2.95545
-3.00075
-3.07637
-3.17624
-3.29614
-3.78907
-3.91754
-3.9577
-3.92439
-3.83938
-3.72227
-3.5908
-3.45877
-3.33734
-3.23287
-3.15476
-3.10425
-3.08549
-3.0984
-3.14583
-3.22103
-3.32682
-3.45656
-3.60613
-4.01627
-4.09866
-4.08598
-4.00679
-3.88852
-3.75193
-3.61378
-3.4861
-3.37793
-3.29328
-3.24057
-3.21885
-3.23155
-3.27742
-3.35938
-3.46918
-3.61086
-3.77727
-3.96471
-4.26797
-4.27057
-4.1917
-4.06322
-3.91353
-3.76238
-3.6235
-3.50635
-3.41735
-3.35777
-3.33558
-3.34739
-3.39634
-3.48018
-3.6025
-3.75324
-3.93865
-4.15104
-4.38772
-4.47307
-4.38566
-4.23921
-4.06566
-3.89231
-3.73621
-3.606
-3.50818
-3.4462
-3.41845
-3.43338
-3.48489
-3.57656
-3.70536
-3.87639
-4.0775
-4.31856
-4.5914
-4.89521
-4.63902
-4.4638
-4.24854
-4.03554
-3.84773
-3.69668
-3.58399
-3.5132
-3.48497
-3.49492
-3.55303
-3.65029
-3.79149
-3.97295
-4.20235
-4.46491
-4.77587
-5.12698
-5.52136
-4.77094
-4.47422
-4.19149
-3.9532
-3.76662
-3.63468
-3.55079
-3.51646
-3.53014
-3.58506
-3.69418
-3.8453
-4.04537
-4.29037
-4.59189
-4.93191
-5.3337
-5.78958
-6.31074
-4.75766
-4.34813
-4.0271
-3.79213
-3.62886
-3.53287
-3.49022
-3.50248
-3.56699
-3.67506
-3.84442
-4.05946
-4.33066
-4.65413
-5.0475
-5.48905
-6.01428
-6.61775
-7.32799
-4.56452
-4.1029
-3.78731
-3.5849
-3.46352
-3.41601
-3.42343
-3.48973
-3.61228
-3.78116
-4.02054
-4.31137
-4.66916
-5.0909
-5.60299
-6.17975
-6.87486
-7.68867
-8.69008
-4.15149
-3.71941
-3.45915
-3.31805
-3.25535
-3.26705
-3.33231
-3.45952
-3.64737
-3.88554
-4.20644
-4.5881
-5.05308
-5.60085
-6.27077
-7.03439
-7.97332
-9.10168
-10.589
-3.52007
-3.21474
-3.0542
-2.99524
-3.00195
-3.07902
-3.20667
-3.39921
-3.65794
-3.9733
-4.38782
-4.87801
-5.47649
-6.18824
-7.07257
-8.10233
-9.40417
-11.0227
-13.3959
-2.72398
-2.61738
-2.58267
-2.61547
-2.69545
-2.83907
-3.02969
-3.28833
-3.62021
-4.01809
-4.53689
-5.15431
-5.91765
-6.84357
-8.02354
-9.44279
-11.3058
-13.724
-17.8848
-1.86097
-1.9642
-2.05594
-2.17806
-2.32838
-2.53441
-2.78357
-3.10356
-3.50465
-3.98402
-4.61168
-5.37086
-6.33092
-7.53212
-9.12072
-11.1213
-13.8841
-17.6693
-25.8087
-1.03856
-1.29365
-1.48715
-1.6856
-1.89756
-2.15699
-2.45447
-2.82364
-3.28012
-3.82793
-4.55521
-5.45557
-6.63163
-8.1697
-10.3126
-13.188
-17.4427
-23.686
-41.4055
-0.340231
-0.636561
-0.889027
-1.14451
-1.40615
-1.70683
-2.03686
-2.43496
-2.91957
-3.50439
-4.29825
-5.30539
-6.68101
-8.61403
-11.5798
-16.1693
-24.3256
-39.34
-92.9368
)
;

boundaryField
{
    up
    {
        type            calculated;
        value           nonuniform List<scalar> 
84
(
-84.2167
-45.6109
-28.011
-19.1581
-14.2006
-11.1338
-9.07807
-7.61494
-6.5281
-5.69031
-5.02829
-4.49367
-4.05057
-3.67631
-3.35398
-3.07048
-2.81602
-2.5832
-2.36573
-2.15638
-1.94663
-1.72106
-1.43915
-0.946138
-0.921614
-1.15608
-1.32272
-1.47794
-1.63631
-1.80883
-2.00843
-2.25028
-2.61108
-4.21188
-5.39343
-5.36655
-5.08142
-5.05266
-5.09769
-5.15574
-5.20411
-5.24015
-5.24021
-5.20443
-5.15616
-5.09799
-5.0528
-5.0809
-5.36402
-5.39371
-4.22779
-2.61374
-2.25191
-2.00973
-1.80994
-1.6373
-1.47891
-1.32375
-1.15748
-0.922607
-0.945558
-1.43921
-1.72108
-1.94664
-2.15637
-2.36572
-2.58319
-2.81601
-3.07047
-3.35397
-3.6763
-4.05057
-4.49367
-5.0283
-5.69032
-6.5281
-7.61495
-9.07808
-11.1338
-14.2007
-19.1581
-28.011
-45.6109
-84.2167
)
;
    }
    low
    {
        type            calculated;
        value           nonuniform List<scalar> 
84
(
-0.364252
-1.08208
-1.95666
-2.88688
-3.74718
-4.4221
-4.84549
-5.01926
-4.97828
-4.77589
-4.57184
-4.32983
-4.02872
-3.77403
-3.54609
-3.31797
-3.11191
-2.94141
-2.76876
-2.58242
-2.42669
-2.29351
-2.16999
-2.06262
-1.96404
-1.90699
-1.91729
-2.0048
-2.15458
-2.36803
-2.63524
-2.92454
-3.26632
-3.67582
-4.13749
-4.67763
-5.29573
-5.87405
-6.3624
-6.76455
-7.06122
-7.25544
-7.25547
-7.06126
-6.76462
-6.36248
-5.87414
-5.29583
-4.67774
-4.1375
-3.67589
-3.26632
-2.92456
-2.63526
-2.36805
-2.1546
-2.00483
-1.91732
-1.90703
-1.9641
-2.06272
-2.17003
-2.29356
-2.42673
-2.58245
-2.76879
-2.94143
-3.11193
-3.31798
-3.5461
-3.77403
-4.02872
-4.32983
-4.57184
-4.77589
-4.97829
-5.01928
-4.84551
-4.42211
-3.74719
-2.88689
-1.95666
-1.08208
-0.364248
)
;
    }
    left
    {
        type            calculated;
        value           nonuniform List<scalar> 
19
(
-0.33361
-0.624293
-0.881121
-1.14411
-1.41541
-1.72725
-2.07097
-2.48752
-2.99632
-3.61757
-4.46569
-5.5506
-7.04879
-9.18658
-12.4977
-17.7065
-27.0755
-44.5309
-87.3545
)
;
    }
    right
    {
        type            calculated;
        value           nonuniform List<scalar> 
19
(
-0.333607
-0.624291
-0.881119
-1.14411
-1.41541
-1.72725
-2.07097
-2.48752
-2.99632
-3.61758
-4.46569
-5.55061
-7.04879
-9.18658
-12.4977
-17.7065
-27.0755
-44.5309
-87.3545
)
;
    }
    frontAndBackPlanes
    {
        type            empty;
    }
}


// ************************************************************************* //
