/*--------------------------------*- C++ -*----------------------------------*\
  =========                 |
  \\      /  F ield         | OpenFOAM: The Open Source CFD Toolbox
   \\    /   O peration     | Website:  https://openfoam.org
    \\  /    A nd           | Version:  7
     \\/     M anipulation  |
\*---------------------------------------------------------------------------*/
FoamFile
{
    version     2.0;
    format      ascii;
    class       volScalarField;
    location    "0.24";
    object      gradTy;
}
// * * * * * * * * * * * * * * * * * * * * * * * * * * * * * * * * * * * * * //

dimensions      [0 -1 0 1 0 0 0];

internalField   nonuniform List<scalar> 
1596
(
-0.0901977
-0.167579
-0.231097
-0.292273
-0.35119
-0.41553
-0.482113
-0.559733
-0.651926
-0.761276
-0.911422
-1.10246
-1.36698
-1.74355
-2.32836
-3.23983
-4.86721
-7.86834
-18.5875
-0.274752
-0.338895
-0.382696
-0.423398
-0.463081
-0.510283
-0.562402
-0.627515
-0.70898
-0.807505
-0.942787
-1.11276
-1.33919
-1.6396
-2.06328
-2.63523
-3.48526
-4.73447
-8.27988
-0.491698
-0.513317
-0.526408
-0.542316
-0.560797
-0.589167
-0.624412
-0.673568
-0.739104
-0.820431
-0.933692
-1.07471
-1.2585
-1.49308
-1.80831
-2.208
-2.76266
-3.52315
-5.15526
-0.719113
-0.68323
-0.659735
-0.648376
-0.644534
-0.653011
-0.670041
-0.701315
-0.748386
-0.809822
-0.898768
-1.00994
-1.15389
-1.33381
-1.56857
-1.85382
-2.23093
-2.72075
-3.56009
-0.928914
-0.839018
-0.77996
-0.741708
-0.715853
-0.704425
-0.703034
-0.715935
-0.743953
-0.785219
-0.850384
-0.933965
-1.04356
-1.18
-1.35578
-1.5639
-1.83029
-2.16228
-2.64666
-1.09571
-0.971356
-0.884515
-0.822885
-0.776984
-0.746799
-0.727803
-0.722944
-0.732573
-0.754706
-0.797923
-0.85713
-0.937912
-1.04001
-1.17202
-1.32664
-1.52091
-1.756
-2.06499
-1.2057
-1.07291
-0.970749
-0.892078
-0.829741
-0.783077
-0.748138
-0.726907
-0.719536
-0.724174
-0.747695
-0.785708
-0.842377
-0.917011
-1.01569
-1.13171
-1.27664
-1.44895
-1.66158
-1.2587
-1.13917
-1.03536
-0.947863
-0.874139
-0.814346
-0.765892
-0.730281
-0.707758
-0.696817
-0.702951
-0.72262
-0.758963
-0.811189
-0.883694
-0.970669
-1.08015
-1.20952
-1.36372
-1.26532
-1.17507
-1.08136
-0.993069
-0.913194
-0.843851
-0.784403
-0.736431
-0.700558
-0.675788
-0.666575
-0.670245
-0.689206
-0.722726
-0.774029
-0.838213
-0.920892
-1.01916
-1.13452
-1.23452
-1.17587
-1.10005
-1.01875
-0.938877
-0.864783
-0.797966
-0.740592
-0.693899
-0.657537
-0.635277
-0.625271
-0.629454
-0.647252
-0.681106
-0.726973
-0.788846
-0.863913
-0.952138
-1.19543
-1.15932
-1.10154
-1.03083
-0.955061
-0.879954
-0.80882
-0.74462
-0.689348
-0.643387
-0.610122
-0.588474
-0.580092
-0.584599
-0.603899
-0.634687
-0.679826
-0.736728
-0.804668
-1.14655
-1.13362
-1.09338
-1.03451
-0.965083
-0.891461
-0.818272
-0.749265
-0.687211
-0.633257
-0.590642
-0.558987
-0.539803
-0.532929
-0.539903
-0.558049
-0.589421
-0.631716
-0.68392
-1.08557
-1.09336
-1.07032
-1.02432
-0.963176
-0.893526
-0.820779
-0.749366
-0.682754
-0.622803
-0.572799
-0.532984
-0.504864
-0.488508
-0.485242
-0.492928
-0.513086
-0.543715
-0.583702
-1.03118
-1.05084
-1.04135
-1.00708
-0.954425
-0.889775
-0.818846
-0.746567
-0.676965
-0.612526
-0.556697
-0.510254
-0.474775
-0.450554
-0.438795
-0.437808
-0.448744
-0.469883
-0.500122
-0.980643
-1.0097
-1.01063
-0.986214
-0.941375
-0.881896
-0.813451
-0.741263
-0.669782
-0.602017
-0.54162
-0.489826
-0.448329
-0.417631
-0.398873
-0.390732
-0.39411
-0.407535
-0.429972
-0.930955
-0.968984
-0.978716
-0.962641
-0.924742
-0.870225
-0.80455
-0.733085
-0.660573
-0.590443
-0.526562
-0.470552
-0.424237
-0.388309
-0.363882
-0.349934
-0.347195
-0.354415
-0.370642
-0.8858
-0.93
-0.946879
-0.937759
-0.905802
-0.855731
-0.792752
-0.722291
-0.649295
-0.577519
-0.511032
-0.451769
-0.401683
-0.361623
-0.332693
-0.314111
-0.306493
-0.308772
-0.320081
-0.846113
-0.894597
-0.917096
-0.913648
-0.886616
-0.840266
-0.779606
-0.710077
-0.636792
-0.563777
-0.495268
-0.433466
-0.380427
-0.337118
-0.304633
-0.282377
-0.270889
-0.269251
-0.276676
-0.806235
-0.862367
-0.890783
-0.892477
-0.869669
-0.826363
-0.767494
-0.698552
-0.624831
-0.550622
-0.480314
-0.416345
-0.360846
-0.314872
-0.279484
-0.254229
-0.23959
-0.234793
-0.239119
-0.765096
-0.829972
-0.865095
-0.872043
-0.85323
-0.81266
-0.755319
-0.686822
-0.612666
-0.537409
-0.465591
-0.39986
-0.342406
-0.294322
-0.256609
-0.228904
-0.211668
-0.204293
-0.206165
-0.729791
-0.800602
-0.841963
-0.854001
-0.838902
-0.800701
-0.744522
-0.676182
-0.601425
-0.525086
-0.451868
-0.384607
-0.325532
-0.275732
-0.236098
-0.206266
-0.186674
-0.176945
-0.176728
-0.698453
-0.774808
-0.821923
-0.838815
-0.827223
-0.791132
-0.735842
-0.667418
-0.591892
-0.514399
-0.43981
-0.371149
-0.310678
-0.259452
-0.218188
-0.186381
-0.164333
-0.151919
-0.149455
-0.669532
-0.752112
-0.804954
-0.826551
-0.818306
-0.784148
-0.729572
-0.660921
-0.584541
-0.505867
-0.429942
-0.359978
-0.298277
-0.245871
-0.203267
-0.169644
-0.144835
-0.128532
-0.122239
-0.643799
-0.732634
-0.790808
-0.81637
-0.810619
-0.777451
-0.72276
-0.653144
-0.575338
-0.495156
-0.417602
-0.346276
-0.283457
-0.2302
-0.18676
-0.152035
-0.124811
-0.103296
-0.0861676
-0.622988
-0.717623
-0.782067
-0.813743
-0.813848
-0.785877
-0.735721
-0.669689
-0.594452
-0.515949
-0.438813
-0.367054
-0.302916
-0.247901
-0.202408
-0.16578
-0.136271
-0.111438
-0.0875357
-0.60859
-0.706664
-0.77467
-0.810474
-0.81516
-0.791888
-0.746259
-0.684211
-0.612114
-0.535786
-0.45946
-0.387283
-0.321558
-0.264139
-0.215845
-0.176849
-0.145857
-0.121359
-0.10088
-0.608241
-0.706871
-0.776152
-0.814211
-0.822014
-0.802615
-0.761203
-0.703413
-0.635197
-0.562
-0.487735
-0.416214
-0.34965
-0.290083
-0.238838
-0.196785
-0.163281
-0.137283
-0.116645
-0.623556
-0.719697
-0.787298
-0.824882
-0.833478
-0.816151
-0.777774
-0.723673
-0.659358
-0.589819
-0.518511
-0.448723
-0.38228
-0.321117
-0.266911
-0.221291
-0.184448
-0.155929
-0.133802
-0.65289
-0.744815
-0.808263
-0.842995
-0.850363
-0.833523
-0.797107
-0.74613
-0.685657
-0.620215
-0.552726
-0.485865
-0.420781
-0.358908
-0.301912
-0.252143
-0.210875
-0.178642
-0.153854
-0.695414
-0.780049
-0.837007
-0.866977
-0.871576
-0.854038
-0.818805
-0.770565
-0.713953
-0.653078
-0.590352
-0.527874
-0.465943
-0.405055
-0.346192
-0.292026
-0.245021
-0.207414
-0.178506
-0.750468
-0.824867
-0.873848
-0.897811
-0.898585
-0.879483
-0.844806
-0.7989
-0.746004
-0.689896
-0.632595
-0.57586
-0.519216
-0.461959
-0.403501
-0.345763
-0.291712
-0.246052
-0.210441
-0.810157
-0.87574
-0.91647
-0.933779
-0.930112
-0.908937
-0.87443
-0.830576
-0.781228
-0.729918
-0.678435
-0.628584
-0.579581
-0.529819
-0.476568
-0.419426
-0.359297
-0.302231
-0.254697
-0.878338
-0.933885
-0.965252
-0.97502
-0.966243
-0.942485
-0.907727
-0.865531
-0.819335
-0.772433
-0.726471
-0.683662
-0.643656
-0.605099
-0.563963
-0.517285
-0.460346
-0.394609
-0.322679
-0.958017
-1.00136
-1.02223
-1.02394
-1.00995
-0.983815
-0.949136
-0.909002
-0.866364
-0.824182
-0.784059
-0.748551
-0.718349
-0.693831
-0.672518
-0.652359
-0.625936
-0.589094
-0.5369
-1.04666
-1.07585
-1.08356
-1.07458
-1.05275
-1.0215
-0.983882
-0.942524
-0.899805
-0.857989
-0.81857
-0.783547
-0.754026
-0.731342
-0.715789
-0.708788
-0.708316
-0.712524
-0.717377
-1.14689
-1.15678
-1.14843
-1.12702
-1.09607
-1.05868
-1.01723
-0.973959
-0.930785
-0.889354
-0.851157
-0.817444
-0.789138
-0.766999
-0.751609
-0.743678
-0.743787
-0.75279
-0.771697
-1.25753
-1.2437
-1.21834
-1.18475
-1.14535
-1.10241
-1.05772
-1.01305
-0.969924
-0.929587
-0.893319
-0.861913
-0.835939
-0.815591
-0.800832
-0.790977
-0.785343
-0.782706
-0.781937
-1.35933
-1.32293
-1.28155
-1.23646
-1.18893
-1.14044
-1.09222
-1.04555
-1.00157
-0.961184
-0.925313
-0.894485
-0.868958
-0.848684
-0.833426
-0.822506
-0.815265
-0.81081
-0.808302
-1.44249
-1.38961
-1.33568
-1.28126
-1.22706
-1.17397
-1.12281
-1.07442
-1.02964
-0.989117
-0.953496
-0.92314
-0.898132
-0.878331
-0.863437
-0.85282
-0.845819
-0.841629
-0.839434
-1.50906
-1.4431
-1.37922
-1.31743
-1.25797
-1.20124
-1.14772
-1.09795
-1.0525
-1.01182
-0.976376
-0.946417
-0.921915
-0.90267
-0.888343
-0.878316
-0.871908
-0.86835
-0.866828
-1.55749
-1.48166
-1.41027
-1.34305
-1.27978
-1.22048
-1.16532
-1.11459
-1.0687
-1.02793
-0.992645
-0.963025
-0.938967
-0.920232
-0.906442
-0.896969
-0.891089
-0.888019
-0.886924
-1.58861
-1.50356
-1.42684
-1.35631
-1.29093
-1.23027
-1.17428
-1.12308
-1.07698
-1.03621
-1.00105
-0.971649
-0.947882
-0.929495
-0.916104
-0.907096
-0.901743
-0.899272
-0.898837
-1.58861
-1.50357
-1.42686
-1.35633
-1.29095
-1.23029
-1.1743
-1.1231
-1.07701
-1.03623
-1.00107
-0.971674
-0.947908
-0.929522
-0.916132
-0.907125
-0.901773
-0.899304
-0.89887
-1.5575
-1.48169
-1.41031
-1.34309
-1.27983
-1.22054
-1.16538
-1.11465
-1.06876
-1.02799
-0.992712
-0.963095
-0.93904
-0.92031
-0.906524
-0.897057
-0.891185
-0.888124
-0.887039
-1.50908
-1.44315
-1.37929
-1.31751
-1.25805
-1.20133
-1.14781
-1.09804
-1.0526
-1.01193
-0.976484
-0.94653
-0.922033
-0.902795
-0.888475
-0.878457
-0.87206
-0.868511
-0.867001
-1.44252
-1.38967
-1.33576
-1.28136
-1.22717
-1.17409
-1.12292
-1.07454
-1.02977
-0.989251
-0.953634
-0.923284
-0.898282
-0.878486
-0.863599
-0.852989
-0.845996
-0.841814
-0.839629
-1.35936
-1.32299
-1.28165
-1.23657
-1.18905
-1.14057
-1.09236
-1.0457
-1.00172
-0.961345
-0.925479
-0.894658
-0.869136
-0.848867
-0.833614
-0.8227
-0.815464
-0.811015
-0.808513
-1.25756
-1.24377
-1.21844
-1.18487
-1.14548
-1.10256
-1.05788
-1.01322
-0.970096
-0.929767
-0.893506
-0.862106
-0.836135
-0.81579
-0.801029
-0.791169
-0.785526
-0.782876
-0.782095
-1.14692
-1.15687
-1.14855
-1.12717
-1.09626
-1.05889
-1.01747
-0.97422
-0.931071
-0.889664
-0.851495
-0.817812
-0.789537
-0.767429
-0.752066
-0.74414
-0.744216
-0.753115
-0.771815
-1.04668
-1.07586
-1.08357
-1.07461
-1.05278
-1.02153
-0.98392
-0.942561
-0.899836
-0.858007
-0.818566
-0.783509
-0.753939
-0.731189
-0.715568
-0.708512
-0.70807
-0.712468
-0.71777
-0.958028
-1.00141
-1.02231
-1.02406
-1.01012
-0.98403
-0.949398
-0.909309
-0.866714
-0.824571
-0.784488
-0.74902
-0.718869
-0.694429
-0.673246
-0.653295
-0.627182
-0.590738
-0.538992
-0.878342
-0.933892
-0.965277
-0.975071
-0.966325
-0.9426
-0.907877
-0.865713
-0.819547
-0.772673
-0.726738
-0.68396
-0.643998
-0.605508
-0.564464
-0.517894
-0.461036
-0.395292
-0.323193
-0.810158
-0.875741
-0.916485
-0.93382
-0.930186
-0.909047
-0.874577
-0.830757
-0.781443
-0.730164
-0.678713
-0.628898
-0.57994
-0.530231
-0.477033
-0.419922
-0.359778
-0.302644
-0.255022
-0.750467
-0.824861
-0.873853
-0.89784
-0.898645
-0.879579
-0.844938
-0.799069
-0.746207
-0.690131
-0.632861
-0.576159
-0.51955
-0.462323
-0.403882
-0.346136
-0.292047
-0.246333
-0.210672
-0.695411
-0.780039
-0.837005
-0.866995
-0.871624
-0.854121
-0.818925
-0.770721
-0.714143
-0.653299
-0.5906
-0.528149
-0.46624
-0.405364
-0.346497
-0.292309
-0.245268
-0.207622
-0.178684
-0.652885
-0.744801
-0.808254
-0.843004
-0.8504
-0.833593
-0.797214
-0.746272
-0.68583
-0.620417
-0.552952
-0.48611
-0.421037
-0.359165
-0.302156
-0.252364
-0.211066
-0.178806
-0.154
-0.623552
-0.719682
-0.787286
-0.824885
-0.833507
-0.816212
-0.777868
-0.7238
-0.659515
-0.590001
-0.518712
-0.448936
-0.382498
-0.321329
-0.267108
-0.221466
-0.184601
-0.156064
-0.133928
-0.608236
-0.706855
-0.776137
-0.81421
-0.822037
-0.802666
-0.761285
-0.703525
-0.635336
-0.56216
-0.48791
-0.416397
-0.349833
-0.290258
-0.238999
-0.196928
-0.163408
-0.137401
-0.116763
-0.608584
-0.706647
-0.774651
-0.810463
-0.815165
-0.791914
-0.746309
-0.684284
-0.612206
-0.535894
-0.459579
-0.387406
-0.321679
-0.264252
-0.215945
-0.176938
-0.145938
-0.121442
-0.100987
-0.623001
-0.717631
-0.782077
-0.813758
-0.813874
-0.785915
-0.735774
-0.669756
-0.594533
-0.516043
-0.438916
-0.367163
-0.303028
-0.248012
-0.202515
-0.165883
-0.136367
-0.111524
-0.0876052
-0.643813
-0.732648
-0.790817
-0.816371
-0.81061
-0.777432
-0.722731
-0.653106
-0.575294
-0.495108
-0.417553
-0.346227
-0.283411
-0.230157
-0.18672
-0.151997
-0.124772
-0.103255
-0.0861175
-0.669542
-0.75212
-0.804962
-0.826557
-0.81831
-0.78415
-0.729572
-0.66092
-0.584539
-0.505865
-0.429941
-0.359978
-0.298278
-0.245873
-0.20327
-0.169648
-0.14484
-0.128538
-0.122246
-0.69846
-0.774814
-0.821926
-0.838816
-0.827222
-0.791129
-0.735837
-0.667412
-0.591886
-0.514394
-0.439805
-0.371146
-0.310676
-0.259452
-0.218189
-0.186383
-0.164337
-0.151924
-0.149459
-0.729797
-0.800606
-0.841966
-0.854001
-0.8389
-0.800698
-0.744518
-0.676178
-0.601421
-0.525082
-0.451865
-0.384605
-0.325531
-0.275733
-0.236099
-0.206268
-0.186677
-0.176948
-0.176731
-0.7651
-0.829975
-0.865097
-0.872043
-0.853228
-0.812657
-0.755315
-0.686818
-0.612663
-0.537406
-0.465589
-0.399859
-0.342406
-0.294322
-0.25661
-0.228906
-0.21167
-0.204295
-0.206167
-0.806238
-0.86237
-0.890784
-0.892476
-0.869667
-0.826361
-0.767491
-0.69855
-0.624829
-0.55062
-0.480312
-0.416344
-0.360846
-0.314873
-0.279485
-0.25423
-0.239591
-0.234795
-0.23912
-0.846115
-0.894598
-0.917096
-0.913646
-0.886614
-0.840264
-0.779604
-0.710076
-0.636791
-0.563776
-0.495268
-0.433466
-0.380427
-0.337119
-0.304634
-0.282378
-0.270889
-0.269252
-0.276676
-0.885801
-0.930001
-0.946878
-0.937757
-0.905801
-0.855729
-0.792751
-0.72229
-0.649294
-0.577518
-0.511031
-0.451769
-0.401683
-0.361623
-0.332693
-0.314111
-0.306494
-0.308772
-0.320081
-0.930956
-0.968984
-0.978715
-0.96264
-0.924741
-0.870224
-0.80455
-0.733084
-0.660572
-0.590442
-0.526562
-0.470552
-0.424237
-0.388309
-0.363882
-0.349934
-0.347195
-0.354414
-0.370641
-0.980642
-1.0097
-1.01063
-0.986213
-0.941375
-0.881896
-0.813451
-0.741263
-0.669782
-0.602017
-0.54162
-0.489826
-0.448328
-0.417631
-0.398873
-0.390732
-0.394109
-0.407533
-0.429971
-1.03118
-1.05084
-1.04135
-1.00708
-0.954425
-0.889776
-0.818846
-0.746567
-0.676965
-0.612526
-0.556697
-0.510254
-0.474775
-0.450554
-0.438795
-0.437807
-0.448742
-0.46988
-0.50012
-1.08557
-1.09336
-1.07032
-1.02432
-0.963177
-0.893527
-0.82078
-0.749367
-0.682754
-0.622803
-0.572799
-0.532984
-0.504864
-0.488508
-0.485241
-0.492927
-0.513084
-0.543712
-0.5837
-1.14654
-1.13361
-1.09338
-1.03451
-0.965084
-0.891462
-0.818273
-0.749265
-0.687211
-0.633257
-0.590642
-0.558986
-0.539802
-0.532928
-0.539902
-0.558046
-0.589417
-0.631712
-0.683918
-1.19543
-1.15932
-1.10154
-1.03083
-0.955063
-0.879955
-0.808821
-0.744621
-0.689349
-0.643387
-0.610122
-0.588474
-0.580091
-0.584598
-0.603897
-0.634685
-0.679822
-0.736725
-0.804666
-1.23452
-1.17587
-1.10005
-1.01875
-0.938879
-0.864785
-0.797967
-0.740593
-0.693899
-0.657537
-0.635277
-0.625271
-0.629453
-0.64725
-0.681104
-0.72697
-0.788843
-0.86391
-0.952137
-1.26532
-1.17507
-1.08136
-0.993072
-0.913196
-0.843853
-0.784404
-0.736432
-0.700559
-0.675788
-0.666575
-0.670245
-0.689205
-0.722725
-0.774026
-0.83821
-0.920889
-1.01916
-1.13452
-1.25871
-1.13917
-1.03536
-0.947865
-0.874141
-0.814347
-0.765893
-0.730281
-0.707759
-0.696817
-0.702951
-0.722619
-0.758962
-0.811188
-0.883692
-0.970667
-1.08015
-1.20952
-1.36372
-1.2057
-1.07291
-0.970752
-0.89208
-0.829742
-0.783078
-0.748139
-0.726908
-0.719537
-0.724175
-0.747695
-0.785708
-0.842376
-0.917009
-1.01569
-1.13171
-1.27664
-1.44895
-1.66158
-1.09572
-0.97136
-0.884518
-0.822888
-0.776986
-0.746801
-0.727804
-0.722945
-0.732574
-0.754706
-0.797923
-0.857129
-0.937911
-1.04001
-1.17202
-1.32664
-1.52091
-1.756
-2.06499
-0.928919
-0.839022
-0.779962
-0.741711
-0.715855
-0.704427
-0.703036
-0.715936
-0.743954
-0.785219
-0.850384
-0.933964
-1.04356
-1.18
-1.35578
-1.5639
-1.83029
-2.16228
-2.64666
-0.719117
-0.683233
-0.659737
-0.648378
-0.644536
-0.653013
-0.670043
-0.701316
-0.748386
-0.809823
-0.898768
-1.00994
-1.15389
-1.33381
-1.56857
-1.85382
-2.23093
-2.72075
-3.5601
-0.491702
-0.513319
-0.526409
-0.542318
-0.560798
-0.589168
-0.624413
-0.673569
-0.739105
-0.820431
-0.933692
-1.07471
-1.2585
-1.49308
-1.80831
-2.208
-2.76266
-3.52315
-5.15526
-0.274754
-0.338895
-0.382697
-0.423398
-0.463081
-0.510284
-0.562402
-0.627515
-0.708981
-0.807505
-0.942787
-1.11276
-1.33919
-1.6396
-2.06328
-2.63523
-3.48527
-4.73447
-8.27988
-0.0901982
-0.167579
-0.231097
-0.292273
-0.35119
-0.41553
-0.482113
-0.559734
-0.651926
-0.761276
-0.911421
-1.10246
-1.36698
-1.74355
-2.32835
-3.23983
-4.86721
-7.86834
-18.5875
)
;

boundaryField
{
    up
    {
        type            calculated;
        value           nonuniform List<scalar> 
84
(
-16.8439
-9.12259
-5.59882
-3.8193
-2.81328
-2.18036
-1.74582
-1.42753
-1.18382
-0.99087
-0.835183
-0.707918
-0.602602
-0.514907
-0.441445
-0.379472
-0.326808
-0.281731
-0.242845
-0.208867
-0.178625
-0.15054
-0.121088
-0.0773668
-0.0749082
-0.0949235
-0.110736
-0.127361
-0.146515
-0.169818
-0.199371
-0.237844
-0.296573
-0.532575
-0.738387
-0.784778
-0.781035
-0.807105
-0.838548
-0.866367
-0.886732
-0.899038
-0.89907
-0.886853
-0.866546
-0.838747
-0.807321
-0.781191
-0.784721
-0.738816
-0.535018
-0.297052
-0.238131
-0.199587
-0.169989
-0.146657
-0.127486
-0.110856
-0.0950668
-0.0749985
-0.0773127
-0.121094
-0.150544
-0.178628
-0.208869
-0.242846
-0.281731
-0.326808
-0.379472
-0.441444
-0.514905
-0.602601
-0.707918
-0.835183
-0.990871
-1.18382
-1.42753
-1.74582
-2.18036
-2.81329
-3.8193
-5.59881
-9.12259
-16.8439
)
;
    }
    low
    {
        type            calculated;
        value           nonuniform List<scalar> 
84
(
-0.0967713
-0.287018
-0.518403
-0.764205
-0.99146
-1.17006
-1.28297
-1.33101
-1.32345
-1.27422
-1.22536
-1.16694
-1.09295
-1.03135
-0.97662
-0.921254
-0.871164
-0.830001
-0.787132
-0.73923
-0.698734
-0.663404
-0.629629
-0.599353
-0.570526
-0.552676
-0.553024
-0.574
-0.610653
-0.662443
-0.725724
-0.790899
-0.865505
-0.952744
-1.0477
-1.1564
-1.27889
-1.38837
-1.47624
-1.54682
-1.59848
-1.63401
-1.63401
-1.59849
-1.54683
-1.47625
-1.38838
-1.27891
-1.15642
-1.04769
-0.952757
-0.865498
-0.790895
-0.72572
-0.66244
-0.61065
-0.574
-0.553026
-0.55268
-0.570534
-0.599372
-0.629633
-0.663412
-0.69874
-0.739233
-0.787135
-0.830004
-0.871165
-0.921254
-0.976619
-1.03134
-1.09295
-1.16693
-1.22535
-1.27422
-1.32345
-1.33101
-1.28298
-1.17006
-0.991467
-0.764212
-0.518408
-0.28702
-0.096772
)
;
    }
    left
    {
        type            calculated;
        value           nonuniform List<scalar> 
19
(
-0.088467
-0.16441
-0.229132
-0.292279
-0.35359
-0.420495
-0.489975
-0.571282
-0.668091
-0.784359
-0.944861
-1.15081
-1.43922
-1.85627
-2.50988
-3.54524
-5.41551
-8.90544
-17.4706
)
;
    }
    right
    {
        type            calculated;
        value           nonuniform List<scalar> 
19
(
-0.0884675
-0.16441
-0.229132
-0.29228
-0.35359
-0.420495
-0.489975
-0.571282
-0.66809
-0.784358
-0.94486
-1.15081
-1.43922
-1.85626
-2.50988
-3.54524
-5.41551
-8.90544
-17.4706
)
;
    }
    frontAndBackPlanes
    {
        type            empty;
    }
}


// ************************************************************************* //
