/*--------------------------------*- C++ -*----------------------------------*\
  =========                 |
  \\      /  F ield         | OpenFOAM: The Open Source CFD Toolbox
   \\    /   O peration     | Website:  https://openfoam.org
    \\  /    A nd           | Version:  7
     \\/     M anipulation  |
\*---------------------------------------------------------------------------*/
FoamFile
{
    version     2.0;
    format      ascii;
    class       volScalarField;
    location    "0.24";
    object      gradTz;
}
// * * * * * * * * * * * * * * * * * * * * * * * * * * * * * * * * * * * * * //

dimensions      [0 -1 0 1 0 0 0];

internalField   nonuniform List<scalar> 
1596
(
-1.61365e-16
-7.84241e-17
7.97147e-17
1.75733e-18
-1.51778e-16
0
-7.08219e-17
-6.98358e-17
-4.67537e-18
-3.68138e-17
-3.33331e-19
-3.66364e-17
1.61318e-16
-3.62484e-17
1.69356e-16
1.4616e-16
8.6942e-17
1.09811e-16
0
1.61191e-16
0
2.26912e-16
-1.60246e-18
-6.94252e-17
6.88105e-17
1.41995e-16
4.45695e-18
6.72424e-17
-3.24213e-17
6.47059e-17
-9.68607e-19
-8.97799e-17
-5.61041e-17
-1.36919e-16
-1.33602e-16
-1.2156e-16
6.92041e-17
0
-7.89706e-17
0
-1.4788e-16
2.54435e-18
1.35316e-16
-3.81408e-17
3.00077e-18
-9.39392e-19
-9.47485e-19
-1.00381e-18
2.43836e-17
0
4.65705e-17
1.32049e-16
-1.30199e-17
1.04937e-17
2.46733e-17
3.85818e-17
0
1.24148e-16
-3.72216e-17
3.70857e-17
0
-3.56427e-17
-3.69296e-17
6.263e-17
-5.44981e-17
0
0
-1.98294e-17
1.27331e-17
0
-3.88608e-17
-4.94531e-17
3.42555e-17
-3.53072e-17
-1.81609e-18
0
2.16999e-17
5.75414e-17
-5.17537e-17
0
-1.5228e-17
-4.63828e-17
0
6.92059e-17
-6.87874e-18
-6.22973e-18
-6.17483e-18
3.59483e-17
4.42727e-17
4.59586e-18
1.72885e-18
-3.70383e-17
1.86532e-18
1.71629e-17
-7.39759e-18
-5.63511e-18
-7.89502e-17
7.49294e-17
-6.5204e-17
-1.39325e-19
-5.74056e-17
1.61686e-18
-1.62222e-18
-4.51675e-17
0
-5.12879e-18
-4.25254e-17
-3.99892e-17
3.24133e-17
3.38573e-17
-4.61596e-19
-2.03046e-17
-1.74081e-17
1.33216e-17
4.70936e-17
-8.03726e-17
8.98658e-17
5.01685e-17
0
4.40959e-17
2.58363e-17
-1.2431e-17
5.72667e-17
-1.07384e-17
-4.5527e-17
4.07489e-19
-2.69125e-17
-3.25659e-17
-2.53813e-17
2.16618e-17
2.04834e-17
-2.73889e-19
-5.55149e-18
4.76303e-18
1.27735e-16
-1.49804e-16
0
0
-5.43788e-17
0
0
0
3.71432e-17
0
0
2.47084e-17
9.07079e-19
6.86719e-18
-1.895e-17
0
1.00854e-17
3.95401e-18
0
-8.26944e-17
1.59002e-16
0
0
5.60026e-17
0
-2.12123e-17
2.11909e-17
-3.78064e-17
1.5701e-17
-1.58158e-17
0
2.28222e-17
2.24219e-17
0
-1.29375e-17
-1.03046e-17
-3.4566e-18
2.0011e-16
-9.35523e-17
0
-6.57298e-17
6.49942e-17
0
4.76914e-17
0
0
0
1.44353e-17
-1.45044e-17
0
-1.76389e-17
-5.0343e-18
0
1.47612e-18
7.35227e-18
0
-5.07947e-17
0
0
6.58813e-17
-1.22713e-16
6.49869e-18
2.49025e-18
-1.95153e-17
2.23976e-18
8.16767e-19
-1.51145e-17
-2.41933e-17
0
1.82752e-17
-3.67795e-18
3.73315e-18
9.84847e-18
-5.77799e-18
-2.64933e-18
4.19585e-17
-4.65396e-18
4.03013e-17
1.37107e-16
-7.61664e-18
-5.71397e-17
0
0
0
3.11285e-17
1.24061e-17
4.4672e-17
-1.07821e-17
-1.79483e-17
-1.06136e-17
-5.82987e-18
2.60138e-18
-5.67217e-18
2.51846e-18
-4.66015e-17
4.56717e-17
-8.42712e-17
-1.35443e-16
1.2515e-16
4.91435e-17
-9.06732e-17
7.8047e-17
-6.71164e-17
1.75165e-17
1.33106e-17
-1.20477e-17
7.72078e-18
-6.99833e-18
2.05374e-17
0
-1.55647e-18
1.15033e-17
-1.71191e-18
-3.02791e-16
1.38766e-16
1.12793e-19
-3.01346e-17
4.01227e-18
4.77158e-17
-9.05066e-17
-3.70222e-17
3.14086e-17
-2.65152e-17
-2.24797e-17
0
-2.54384e-17
-7.55876e-18
-1.34611e-17
-8.00376e-18
6.29545e-19
-7.16006e-18
1.78054e-19
4.94879e-17
-4.39522e-17
8.76846e-20
-3.35203e-17
-8.30599e-17
7.81474e-17
3.50089e-19
3.60782e-17
-3.05804e-17
5.08001e-17
1.20036e-17
9.79778e-18
2.99952e-17
0
2.47791e-17
1.13914e-17
0
3.88567e-18
1.49106e-19
0
4.26388e-17
3.32381e-17
-6.93123e-17
8.04616e-17
-1.20321e-16
8.47288e-17
3.15956e-17
-4.83673e-18
-5.02892e-17
9.1077e-18
-9.06276e-18
-2.72625e-17
1.0756e-17
-5.4045e-18
-1.13196e-17
4.86699e-18
-3.02871e-18
1.20661e-18
-4.60965e-17
1.55654e-16
-1.16049e-16
6.26418e-17
0
0
-1.6531e-17
3.5354e-17
-2.47792e-17
4.64496e-17
0
0
1.8312e-17
-1.59425e-17
-1.11963e-17
3.53759e-18
-3.79319e-18
2.00604e-18
0
3.92203e-18
4.31098e-17
-3.45036e-17
-3.00696e-17
-4.8073e-17
-1.51958e-17
2.15422e-17
0
-2.32404e-17
-1.86956e-17
1.67146e-17
-1.35138e-17
1.0862e-17
0
4.28764e-18
8.29549e-18
0
0
0
-3.75998e-18
6.83623e-17
2.57389e-17
-9.08419e-17
2.48588e-17
2.11743e-17
0
0
2.18951e-17
-1.14288e-17
-1.61666e-17
1.30703e-17
-1.05043e-17
0
-2.7547e-18
2.31422e-18
0
-1.96412e-18
-6.88106e-19
-3.68342e-17
1.0809e-16
-1.30688e-16
-5.17229e-17
2.72036e-17
-2.00193e-17
1.66631e-17
0
-1.11474e-17
9.23787e-18
0
0
4.09098e-18
-4.09569e-18
1.2115e-18
-1.63965e-18
2.7837e-18
3.57603e-19
5.13107e-19
1.90247e-17
-1.70767e-17
8.67856e-17
-5.59531e-17
-2.24556e-17
3.01966e-18
3.44427e-17
1.289e-17
1.06664e-17
0
6.01088e-18
-5.55536e-18
4.37479e-18
-3.67037e-18
4.65895e-18
-8.00017e-18
-2.16743e-18
1.88771e-18
4.9926e-19
5.07597e-17
-5.15445e-17
0
4.65204e-17
-2.46153e-17
-1.80738e-17
1.22449e-17
-3.93974e-17
0
-7.06211e-19
-7.00588e-18
-4.96183e-18
7.1242e-18
-5.71108e-19
-4.50279e-18
3.30795e-18
0
1.1815e-18
-4.84778e-19
8.71424e-17
-1.53024e-17
6.45607e-17
-5.05368e-17
2.73526e-17
2.65034e-18
-3.11136e-17
-1.04007e-17
1.86342e-17
-8.28173e-19
-1.05966e-17
8.88021e-18
-3.85804e-18
-4.98716e-18
0
0
0
-1.19251e-18
4.41484e-20
-7.72401e-17
7.51462e-17
5.48718e-20
1.13144e-17
9.65647e-18
-2.30202e-17
2.69614e-17
-2.19123e-17
1.85048e-17
-6.00285e-18
1.13834e-17
3.98197e-18
-1.67773e-18
8.3622e-20
-5.8502e-19
-1.02664e-18
0
0
0
0
0
3.64152e-17
-1.80537e-17
-5.49198e-17
0
0
-6.3712e-18
-1.01431e-17
8.3945e-18
0
-5.02199e-18
3.84877e-18
-1.26511e-17
1.44984e-17
-4.66145e-18
4.95814e-18
5.38615e-19
0
-1.49635e-17
1.51476e-17
0
-1.20233e-17
1.21845e-17
1.99324e-17
0
6.43204e-18
8.27386e-18
-3.72552e-17
0
-5.62873e-18
4.33812e-18
3.05336e-18
-2.24538e-18
3.2659e-18
0
-1.18655e-18
0
-7.69633e-18
-7.62539e-18
4.51437e-19
1.23536e-17
-3.2948e-17
0
-8.34489e-18
0
2.31233e-17
9.20823e-18
0
2.23267e-17
-2.32192e-17
2.40334e-18
-4.96675e-18
1.48928e-18
6.28947e-18
2.35082e-18
-1.86267e-18
0
1.58728e-17
-1.38093e-17
1.71139e-17
2.03707e-17
0
1.69544e-17
-1.59691e-17
-1.24178e-17
1.84435e-17
-2.76631e-17
-1.33144e-17
0
0
2.81679e-18
0
0
7.92357e-19
0
-7.0566e-17
5.42145e-17
0
8.67321e-19
-1.18625e-17
-6.48604e-19
1.04501e-17
7.3618e-18
-9.3127e-18
-2.32121e-17
3.64658e-17
-9.91382e-18
0
-4.62729e-18
0
0
0
-3.06534e-18
2.45005e-18
-2.00007e-17
1.86717e-17
4.96246e-17
-4.84373e-17
1.48136e-17
8.59034e-19
-1.06145e-17
9.08937e-18
1.53445e-17
1.16347e-17
-2.29779e-17
0
1.16503e-17
1.51267e-18
-5.29788e-18
-1.14456e-17
9.41427e-18
-1.49575e-18
2.84373e-18
-6.78229e-17
9.69895e-17
-9.6109e-17
1.68193e-17
1.41915e-17
-1.34709e-17
1.12997e-17
-8.90011e-18
0
-7.47623e-18
1.18525e-17
5.13579e-18
8.23143e-18
1.0282e-17
-1.53597e-17
-2.91624e-19
0
-1.1622e-18
3.89956e-19
-7.33318e-17
-2.17293e-17
-3.79338e-17
2.02164e-17
-3.27736e-17
2.83598e-17
-1.6865e-17
1.41781e-17
-1.02303e-18
-1.01842e-18
-1.25315e-17
7.43534e-18
-4.05921e-18
1.24158e-17
-1.33285e-17
1.61048e-18
1.3958e-18
0
-6.78413e-19
7.92877e-17
-2.34464e-17
0
0
-3.37458e-17
6.55631e-17
-1.52829e-17
-2.91096e-18
2.38838e-17
-6.21694e-19
0
0
-5.40185e-18
0
-1.16594e-17
2.81858e-17
-1.95188e-17
0
2.71878e-19
2.70672e-17
5.04378e-17
0
-2.1381e-17
-1.73364e-17
-1.52573e-17
-1.59121e-17
6.55121e-18
-1.82658e-17
-9.93303e-18
0
0
7.30405e-18
0
0
-1.58817e-17
2.61998e-17
0
0
1.85765e-16
-2.21703e-17
-1.12044e-16
-6.06999e-17
8.23649e-17
2.6133e-17
1.54287e-17
0
-5.63442e-18
5.42295e-18
1.34764e-17
-4.3363e-18
-6.40936e-18
9.93023e-18
-1.05627e-17
-3.22846e-18
0
0
0
1.48763e-17
-1.17058e-16
1.14731e-16
-1.09657e-17
-8.45149e-17
1.32136e-16
-6.62693e-17
0
0
3.50276e-17
-2.87368e-17
0
-8.62407e-18
1.50427e-17
-1.67678e-18
4.38131e-18
1.3329e-18
1.48579e-20
2.89599e-19
0
0
0
9.61753e-17
-6.452e-17
6.75209e-17
-1.05211e-16
2.99246e-17
0
-1.07245e-17
1.71133e-17
-1.74908e-17
-3.41828e-18
-4.77606e-20
-2.33748e-18
-3.40019e-19
-1.86471e-18
-5.24305e-19
-2.85814e-19
1.24467e-16
-2.21768e-16
1.05014e-16
0
2.81167e-17
-3.83196e-17
3.82811e-17
-3.03647e-17
0
-1.47189e-17
2.06354e-17
0
0
-3.34334e-20
0
-2.43221e-18
1.66242e-18
3.02229e-19
4.56382e-19
1.21061e-16
0
-4.79635e-17
5.35683e-17
-3.35238e-17
7.32153e-17
-3.45831e-17
-2.69841e-17
2.72659e-17
-2.76891e-18
0
0
1.76997e-18
-2.97942e-18
-2.08945e-18
3.95924e-18
-8.57118e-19
4.37379e-19
0
6.87249e-17
5.35569e-17
-1.90542e-18
-5.10942e-17
-5.14832e-18
-3.706e-17
4.05402e-18
3.11038e-17
-1.60521e-18
2.82091e-18
0
0
-1.81322e-18
0
2.13201e-18
-2.28075e-18
0
2.92046e-19
-8.09054e-20
-3.64759e-17
-2.68711e-17
2.51636e-17
-2.87626e-18
-1.28851e-18
3.47635e-18
0
-9.16041e-19
1.36995e-17
-1.15371e-17
0
3.89843e-18
-7.67716e-19
-3.43921e-18
-3.14446e-19
-2.45116e-19
0
-2.28345e-19
0
1.4879e-17
-2.82786e-17
-3.56285e-19
1.21311e-17
1.10772e-17
-1.1003e-17
-7.78301e-18
8.80928e-18
-3.01832e-18
2.3618e-18
-2.2914e-18
2.36207e-18
0
6.02805e-21
-2.31799e-19
8.32971e-19
-2.85016e-21
0
0
1.48795e-17
-1.48237e-17
-1.20675e-17
1.06914e-17
1.95669e-17
-1.96824e-17
-3.89164e-18
3.9009e-18
-3.04386e-18
3.0758e-18
-2.29148e-18
4.32287e-18
-1.21244e-18
-8.72204e-19
-2.67473e-19
8.87385e-20
2.11512e-19
5.59197e-20
-4.19361e-20
0
-3.52767e-18
2.10154e-17
-2.27828e-17
1.95285e-17
-1.73133e-17
0
1.37321e-17
-1.22853e-17
0
4.5594e-18
-5.7718e-18
-3.28188e-18
3.43962e-18
6.3186e-19
0
0
-2.28383e-19
8.29789e-20
5.92109e-17
-1.08979e-16
1.11053e-16
-9.73864e-17
3.82705e-17
-3.24474e-17
3.07949e-17
3.65275e-18
-1.35856e-17
1.21373e-17
0
-8.78174e-18
7.99896e-18
-1.51715e-18
-6.18907e-19
9.71589e-19
7.14029e-19
2.21716e-19
-8.01765e-20
1.3649e-16
0
-5.42643e-17
4.21764e-17
5.08913e-18
-3.90513e-17
6.92225e-17
-6.13709e-17
2.40814e-17
-1.02748e-17
1.05172e-17
2.08129e-18
3.56701e-18
1.47772e-18
-1.2225e-18
-1.61773e-19
-1.54605e-18
0
1.57668e-19
1.09244e-16
-1.22969e-16
0
1.12446e-17
4.8428e-17
-4.74146e-17
8.07368e-18
7.14591e-18
3.12033e-18
5.48614e-18
0
0
-6.20296e-18
1.16041e-17
-4.23797e-18
-1.51885e-18
1.66288e-18
1.33136e-19
-2.99664e-19
1.01739e-17
1.08025e-16
-1.24577e-17
-8.49711e-17
7.46055e-17
8.90863e-18
-7.90156e-18
-6.97943e-18
2.29418e-17
-2.8458e-17
1.71188e-17
-1.74962e-17
2.72478e-18
-3.47578e-18
6.31733e-18
-4.21326e-18
0
0
3.02262e-19
0
2.70535e-17
-8.11043e-17
9.26945e-17
-7.47435e-17
7.45654e-17
0
2.5745e-17
-2.5863e-17
-1.94076e-17
2.87586e-17
0
1.191e-17
-1.5054e-17
-2.22714e-18
0
-2.49766e-19
-4.95724e-19
-1.0059e-20
-2.57383e-16
1.22679e-16
0
-8.23507e-17
8.23425e-17
5.03585e-17
-3.30938e-17
1.35945e-17
0
-6.09702e-19
4.51304e-18
-4.33051e-18
-6.40116e-18
9.91615e-18
-1.05442e-17
0
2.27717e-18
-4.96067e-19
-3.07164e-19
1.58309e-16
-1.55673e-16
0
2.13369e-17
1.93724e-17
-1.76879e-17
0
-1.42471e-17
-1.22285e-17
0
-5.73138e-19
0
7.30754e-18
0
0
3.2521e-18
1.22176e-17
-1.58164e-17
0
2.00815e-20
2.34578e-17
-2.16127e-17
1.75922e-17
-8.94434e-17
3.42031e-17
0
2.91311e-18
8.25212e-18
0
-8.44159e-18
2.44501e-17
-2.56863e-17
4.30092e-18
0
-5.00901e-19
0
0
0
2.0106e-20
0
1.99756e-17
0
-3.07802e-17
3.12696e-17
0
1.11347e-17
-8.90712e-18
3.22747e-17
-1.55619e-17
5.59319e-18
-8.98755e-18
8.53234e-18
-1.33455e-17
-2.1276e-18
0
-1.39307e-18
0
6.15234e-17
-1.04049e-16
0
-1.68091e-17
1.50538e-17
0
0
-2.03299e-17
0
-7.48194e-18
-1.18622e-17
-5.14066e-18
8.24014e-18
0
4.37782e-18
0
0
3.04109e-18
-3.35673e-18
0
8.99257e-17
-7.19778e-17
1.55614e-17
-1.39399e-17
-5.70247e-18
1.64143e-17
1.83956e-17
-2.24128e-17
7.22735e-18
5.36945e-19
-6.68797e-18
2.73606e-17
-8.50645e-18
-1.96847e-17
6.78327e-18
-1.74712e-18
1.04713e-18
-3.17767e-19
-1.46353e-16
5.42136e-17
0
0
5.94215e-18
-6.0425e-18
4.30489e-18
2.81405e-18
2.02123e-17
1.03112e-17
-1.02007e-17
-4.22218e-19
-5.70497e-18
4.63172e-18
0
2.27474e-18
1.60137e-18
8.58671e-19
2.87216e-19
0
4.69124e-17
-4.37318e-17
1.40174e-17
1.44535e-17
-2.78801e-18
-8.98242e-18
-7.65434e-18
-2.52686e-17
1.01545e-17
-6.18468e-18
8.47908e-18
5.33485e-18
-6.63185e-18
7.0393e-18
4.44796e-18
-5.78995e-18
-7.9311e-19
0
-8.30858e-18
-3.72715e-17
1.33112e-17
1.23569e-17
-4.24796e-17
3.03848e-17
1.50707e-17
-1.54045e-17
1.17852e-17
-9.63717e-18
0
0
-7.9323e-18
1.42186e-17
-6.26104e-18
5.83174e-18
-6.37716e-18
1.04999e-18
-1.86448e-18
1.55906e-17
1.45522e-17
-1.32291e-17
1.0334e-17
-1.20673e-17
-1.83403e-17
0
0
0
0
0
0
4.06448e-18
-1.06837e-17
1.12992e-17
-3.65105e-18
4.50162e-18
2.11018e-18
-1.78803e-18
3.23062e-17
-5.49968e-17
6.8791e-17
-3.21613e-17
4.44866e-17
-3.23933e-17
6.03757e-17
-3.40105e-17
-1.81717e-17
1.85888e-17
0
5.01896e-18
-3.97079e-18
9.67174e-18
-3.262e-18
-4.16757e-18
-8.73372e-18
6.58866e-19
1.51937e-18
5.02812e-17
1.44755e-17
0
-2.25547e-17
-1.77982e-17
4.07364e-17
4.11253e-18
-1.64014e-17
9.74579e-18
-6.88936e-18
0
-3.97308e-18
0
-3.21117e-18
2.60101e-18
-2.33527e-18
-7.71551e-19
5.43966e-19
0
7.02244e-17
-1.53022e-17
6.45348e-17
-5.05256e-17
-1.01455e-17
3.99215e-17
-2.39419e-17
1.21497e-18
1.00194e-18
-6.72343e-18
6.48814e-18
0
0
3.91104e-18
-1.41599e-18
9.19688e-19
2.79271e-18
-9.72036e-19
0
1.4527e-20
0
-1.43017e-17
8.3906e-17
-5.66838e-17
-6.01883e-17
3.29449e-17
-3.42961e-17
3.17725e-17
1.56936e-17
-1.18276e-17
4.79775e-18
-4.26945e-18
7.48862e-19
6.99799e-18
2.52276e-19
-2.65166e-18
2.62396e-18
-5.39458e-19
1.70809e-16
-5.4465e-17
2.66028e-17
-8.21936e-17
2.24555e-17
-3.50988e-17
1.8861e-17
0
0
-7.24113e-19
-9.84831e-19
-2.90602e-19
0
-6.1411e-18
-4.65905e-18
3.41817e-18
-2.51199e-19
4.55826e-19
1.06959e-18
0
-5.41115e-17
9.16316e-17
2.04288e-17
-7.4636e-17
2.00192e-17
-3.07038e-17
5.17884e-18
2.49483e-17
0
0
4.61694e-19
5.19854e-18
0
-4.61471e-18
-2.09812e-18
3.08574e-19
-1.09236e-18
-1.25364e-18
0
-3.40592e-17
7.6379e-18
6.18148e-17
4.62287e-17
-8.47004e-17
3.84741e-17
-2.67891e-17
1.43422e-17
-1.98455e-17
0
0
0
-8.36365e-18
2.21654e-18
-2.76822e-18
0
-1.72544e-19
8.63675e-19
-1.28404e-16
1.21703e-16
1.30167e-16
-1.58009e-16
7.38524e-17
-6.94448e-17
0
2.82251e-17
-3.85855e-17
2.23377e-17
-1.74e-17
1.42148e-17
1.15512e-17
8.64987e-18
6.81024e-18
0
0
0
0
1.42118e-16
-8.197e-17
0
0
-2.69532e-17
6.55871e-17
-4.20008e-17
-2.98826e-17
2.95458e-17
2.1963e-17
3.68508e-17
-1.47492e-17
6.32864e-18
4.78413e-18
3.51939e-18
2.90134e-18
4.68402e-18
-2.30178e-19
2.34457e-19
-1.43975e-16
1.3228e-16
7.06124e-17
-3.67435e-17
8.04346e-17
-5.16311e-17
-4.08031e-17
-3.4461e-17
0
-4.61163e-17
2.29118e-18
1.69197e-17
-1.32167e-17
-1.0756e-17
-3.97893e-18
-4.18179e-18
-3.34659e-18
0
0
-4.95297e-17
0
3.84345e-17
-5.4363e-20
0
0
4.20897e-17
3.55589e-17
0
2.5006e-17
0
-2.57146e-17
-7.25366e-18
1.28646e-17
0
8.31962e-18
-1.17496e-18
1.19862e-18
0
1.05441e-16
0
7.39825e-17
-1.37296e-16
1.22492e-16
9.88935e-17
-3.09075e-18
0
2.6792e-18
2.9165e-17
0
-2.90083e-17
3.24623e-17
-2.89284e-17
-6.31464e-18
-6.67573e-18
-1.98004e-18
-3.56006e-19
-1.27856e-18
-9.80443e-17
1.41231e-16
-3.99849e-17
-1.04672e-16
-6.0569e-17
-5.23734e-17
-9.03985e-17
-3.62906e-17
2.94067e-18
1.33356e-17
-1.33106e-17
4.24944e-17
-1.88143e-17
3.78133e-17
-7.08517e-18
0
8.14657e-18
-4.8159e-18
1.28815e-18
2.16845e-16
-4.72533e-18
-1.65364e-16
1.37108e-16
-1.23206e-16
1.07454e-16
-3.4466e-18
-4.08705e-17
3.57004e-17
1.42355e-17
-1.82577e-18
-3.48138e-17
1.00611e-17
1.07764e-17
-3.25373e-18
3.29084e-18
-8.43786e-18
-9.07492e-19
-2.02364e-18
1.06452e-16
4.50666e-17
7.93239e-17
-6.98172e-17
-5.77131e-17
3.03521e-18
-4.44301e-17
1.0762e-16
3.67718e-18
5.00151e-17
2.93338e-17
-2.60205e-17
0
-1.82751e-17
0
0
1.19233e-17
5.23593e-18
2.35951e-18
9.98908e-17
0
7.83844e-17
6.93666e-17
-6.17306e-17
5.40544e-17
0
-4.22034e-17
-5.86074e-17
-5.12023e-17
-2.95934e-17
2.63147e-17
0
0
0
0
-1.11805e-17
-8.38071e-18
0
-1.95723e-16
0
-3.87257e-18
-3.42054e-18
9.40167e-17
-5.31439e-17
-2.44412e-17
-2.45531e-17
5.96423e-17
0
1.57009e-17
-1.65673e-18
1.42082e-17
0
0
1.88075e-17
-1.40208e-18
1.00646e-17
-3.86055e-18
1.37681e-16
3.97654e-17
-3.93549e-17
-3.48201e-17
-1.21145e-16
8.33571e-17
1.00837e-16
-2.79424e-18
-4.07518e-17
4.03907e-17
8.48707e-18
-4.31633e-17
-3.53214e-17
-2.15755e-17
-2.28676e-17
-2.16868e-17
1.81478e-17
-8.55824e-19
3.95402e-18
-4.23156e-17
1.92558e-17
-9.28083e-17
1.59279e-17
-1.587e-17
0
-5.0151e-17
-3.5772e-18
-4.65721e-17
4.0457e-18
4.55269e-17
3.35712e-17
-8.27368e-18
3.37138e-18
2.17374e-17
0
-3.7844e-17
-1.39478e-17
-2.89611e-19
8.61263e-17
-2.3478e-18
1.45967e-16
-6.96093e-17
1.39325e-19
1.85192e-18
5.56964e-17
-4.4258e-18
4.51673e-17
-4.22969e-17
-3.9802e-17
0
3.99891e-17
3.19121e-17
4.45778e-19
-6.48333e-19
2.05012e-17
1.4177e-17
0
-6.12147e-17
0
-1.47508e-17
6.63482e-17
9.40117e-19
1.52483e-17
-5.38575e-17
5.09228e-17
5.39313e-17
5.16905e-17
4.97239e-17
0
-3.88487e-17
0
2.07273e-18
-2.15272e-18
0
-2.06462e-19
1.01687e-17
4.24009e-17
2.21312e-18
-3.36371e-17
1.0377e-16
-3.33218e-17
0
0
-6.06205e-17
-5.22539e-17
-5.00766e-17
-9.10578e-17
-1.27331e-17
0
0
0
-4.25286e-18
4.50059e-18
2.88395e-17
-1.03239e-17
2.29563e-18
0
-7.24266e-17
-6.62906e-17
6.94434e-17
-6.89456e-17
-9.87738e-17
1.21156e-16
3.37409e-17
0
5.37168e-17
6.10308e-17
-1.31781e-17
7.16396e-17
-1.17381e-17
1.22165e-17
4.75306e-17
-2.74051e-17
0
-8.09984e-17
0
-7.75596e-17
7.60082e-17
0
1.37215e-16
6.44544e-17
-1.35412e-16
1.08298e-16
-6.98692e-19
-3.27533e-17
-5.90903e-17
0
8.17112e-17
-1.36919e-16
1.46959e-16
-1.87285e-16
0
0
8.06579e-17
-5.30388e-19
-1.30574e-18
-1.53209e-16
1.54634e-16
-7.4749e-17
7.44443e-17
7.33702e-17
-6.48254e-17
0
0
1.22377e-16
-1.24485e-16
-1.32968e-16
1.3185e-16
-1.28473e-16
1.38976e-16
-2.17717e-16
0
)
;

boundaryField
{
    up
    {
        type            calculated;
        value           nonuniform List<scalar> 
84
(
0
0
0
0
-7.39759e-18
1.33216e-17
-5.55149e-18
3.95401e-18
-3.4566e-18
0
-2.64933e-18
2.51846e-18
-1.71191e-18
1.78054e-19
1.49106e-19
1.20661e-18
0
0
-6.88106e-19
5.13107e-19
4.9926e-19
-4.84778e-19
4.41484e-20
0
1.96835e-19
9.38409e-20
-1.76957e-18
0
2.45005e-18
2.98062e-18
3.89956e-19
-6.78413e-19
2.71878e-19
0
-1.33619e-19
2.99285e-19
-2.85146e-19
4.55496e-19
0
-8.07348e-20
0
0
-4.19546e-20
8.29789e-20
-8.01765e-20
1.57668e-19
-2.99664e-19
3.02262e-19
-1.0059e-20
-3.07164e-19
0
0
0
-3.35673e-18
-4.54765e-19
2.87216e-19
0
-1.86448e-18
-1.78803e-18
1.32319e-18
0
0
-5.39458e-19
1.06959e-18
-1.25364e-18
8.63675e-19
0
2.34457e-19
0
0
-1.27856e-18
1.28815e-18
-2.02364e-18
2.35951e-18
0
-3.86055e-18
3.95402e-18
-2.89611e-19
0
1.01687e-17
-1.03239e-17
0
0
0
)
;
    }
    low
    {
        type            calculated;
        value           nonuniform List<scalar> 
84
(
-1.61481e-16
1.61191e-16
-7.87598e-17
1.24319e-16
2.18156e-17
-5.66929e-18
4.73807e-17
5.03755e-18
0
2.0043e-16
-5.07947e-17
4.1784e-17
-4.66015e-17
-3.02792e-16
4.94879e-17
0
-4.60965e-17
3.92203e-18
-3.75998e-18
-3.68342e-17
1.90247e-17
5.07597e-17
8.68182e-17
-7.72401e-17
0
-1.49635e-17
-7.69633e-18
0
-7.0566e-17
-2.00007e-17
-6.76135e-17
-7.31661e-17
7.91762e-17
2.70672e-17
1.85774e-16
1.48763e-17
0
1.24467e-16
1.21321e-16
6.8867e-17
-3.65519e-17
1.4879e-17
1.48795e-17
0
5.92109e-17
1.36749e-16
1.09244e-16
1.03481e-17
0
-2.57391e-16
1.58309e-16
2.00815e-20
2.0106e-20
6.15234e-17
0
-1.46019e-16
0
-8.30858e-18
1.55906e-17
3.21077e-17
4.99331e-17
6.99001e-17
1.4527e-20
1.7054e-16
0
0
-1.28404e-16
1.41985e-16
-1.43887e-16
-4.95297e-17
1.05443e-16
-9.80443e-17
2.17194e-16
1.06699e-16
9.98908e-17
-1.95723e-16
1.37406e-16
-4.20286e-17
8.61263e-17
-6.10989e-17
4.24009e-17
2.50645e-18
-8.09984e-17
8.07155e-17
)
;
    }
    left
    {
        type            calculated;
        value           nonuniform List<scalar> 
19
(
-1.61365e-16
-7.84858e-17
7.97147e-17
1.75745e-18
-1.5182e-16
0
-7.08219e-17
-6.98358e-17
-4.90697e-18
-3.68138e-17
-3.33331e-19
-3.66364e-17
1.62945e-16
-3.62484e-17
1.69356e-16
1.4616e-16
8.6942e-17
1.27534e-16
0
)
;
    }
    right
    {
        type            calculated;
        value           nonuniform List<scalar> 
19
(
8.06579e-17
-4.68666e-19
-1.30574e-18
-1.53209e-16
1.54677e-16
-7.4749e-17
7.44443e-17
7.33702e-17
-6.45939e-17
0
0
1.23534e-16
-1.26112e-16
-1.32968e-16
1.3185e-16
-1.28473e-16
1.38976e-16
-2.35441e-16
0
)
;
    }
    frontAndBackPlanes
    {
        type            empty;
    }
}


// ************************************************************************* //
