/*--------------------------------*- C++ -*----------------------------------*\
  =========                 |
  \\      /  F ield         | OpenFOAM: The Open Source CFD Toolbox
   \\    /   O peration     | Website:  https://openfoam.org
    \\  /    A nd           | Version:  7
     \\/     M anipulation  |
\*---------------------------------------------------------------------------*/
FoamFile
{
    version     2.0;
    format      ascii;
    class       volScalarField;
    location    "0.24";
    object      T;
}
// * * * * * * * * * * * * * * * * * * * * * * * * * * * * * * * * * * * * * //

dimensions      [0 0 0 1 0 0 0];

internalField   nonuniform List<scalar> 
1596
(
0.997276
0.98947
0.9815
0.973984
0.967089
0.960742
0.954811
0.948987
0.94304
0.936439
0.928765
0.919452
0.907252
0.890441
0.866355
0.82908
0.767602
0.659916
0.461917
0.988227
0.963934
0.941072
0.920141
0.901146
0.883788
0.867668
0.852129
0.836596
0.820072
0.801708
0.780471
0.754497
0.72151
0.678708
0.620827
0.539746
0.421511
0.239713
0.977532
0.936693
0.900057
0.867233
0.837771
0.81108
0.786523
0.763235
0.740435
0.716938
0.691732
0.663645
0.630793
0.59104
0.542062
0.479904
0.399176
0.29161
0.14181
0.96698
0.910664
0.861609
0.818339
0.779869
0.745317
0.713851
0.684478
0.656307
0.628095
0.598796
0.567236
0.531673
0.490253
0.441138
0.381429
0.307592
0.214778
0.0940365
0.958233
0.888544
0.828625
0.776231
0.729959
0.688706
0.651495
0.617261
0.585058
0.553644
0.521984
0.48894
0.45293
0.412343
0.365692
0.310787
0.245226
0.166088
0.0680542
0.952364
0.872165
0.803083
0.742756
0.68963
0.642503
0.60032
0.561995
0.52656
0.492796
0.459695
0.426158
0.390728
0.351971
0.308622
0.258932
0.201154
0.133425
0.0524417
0.949513
0.862024
0.785596
0.718458
0.65924
0.606805
0.560115
0.518104
0.479818
0.444074
0.409894
0.37621
0.341658
0.30492
0.264861
0.219997
0.168953
0.110434
0.04225
0.949044
0.857353
0.775451
0.702626
0.638006
0.580698
0.529782
0.484273
0.443263
0.40562
0.370398
0.336558
0.302802
0.267887
0.23075
0.190065
0.144661
0.0935411
0.0351332
0.950333
0.857081
0.771477
0.69407
0.624708
0.562901
0.507954
0.459021
0.41528
0.375668
0.339279
0.305101
0.271887
0.238444
0.203743
0.166552
0.12581
0.0806686
0.0298962
0.952064
0.858984
0.771234
0.690384
0.617038
0.551202
0.492491
0.440261
0.393814
0.352178
0.314499
0.279797
0.246869
0.214556
0.181847
0.147561
0.110695
0.0704696
0.0258456
0.953451
0.861265
0.772492
0.689243
0.612728
0.543441
0.481353
0.426061
0.377027
0.333394
0.294373
0.259027
0.226191
0.194734
0.163657
0.131807
0.0982131
0.0621148
0.0225822
0.955172
0.864338
0.77519
0.690237
0.611158
0.538886
0.473744
0.415592
0.364078
0.318471
0.278063
0.241963
0.209044
0.178202
0.148438
0.11862
0.0877838
0.0551694
0.0198999
0.9568
0.867535
0.778426
0.692273
0.611126
0.536295
0.468433
0.407662
0.353826
0.30633
0.264556
0.227663
0.194563
0.16417
0.135487
0.10739
0.0789133
0.0492823
0.0176461
0.957789
0.869833
0.780949
0.693981
0.611215
0.53426
0.464062
0.400992
0.345082
0.295881
0.252861
0.215232
0.181945
0.151932
0.124193
0.097608
0.0712052
0.0441868
0.0157109
0.958616
0.871633
0.782918
0.695288
0.611169
0.532397
0.460165
0.395067
0.337317
0.286598
0.242468
0.204191
0.170749
0.141089
0.114208
0.0889832
0.0644311
0.0397285
0.0140307
0.959413
0.873202
0.784525
0.696239
0.610885
0.53048
0.456427
0.389517
0.330128
0.278066
0.23297
0.194149
0.160611
0.131315
0.105246
0.081275
0.0584049
0.0357835
0.0125564
0.959948
0.874266
0.785492
0.696517
0.609989
0.528086
0.452391
0.38387
0.323045
0.269831
0.223937
0.184708
0.151171
0.122287
0.0970289
0.0742569
0.0529543
0.0322394
0.0112443
0.960316
0.874928
0.785913
0.696181
0.608486
0.525155
0.447938
0.37796
0.315867
0.261672
0.215138
0.175636
0.142203
0.113796
0.0893692
0.0677684
0.0479547
0.0290144
0.0100624
0.961057
0.876046
0.786705
0.696104
0.607147
0.522333
0.443581
0.372168
0.30886
0.253753
0.206655
0.16695
0.133676
0.105775
0.0821825
0.0617223
0.0433299
0.0260556
0.0089898
0.961983
0.877555
0.78791
0.696377
0.606077
0.519708
0.439375
0.366515
0.302007
0.246024
0.198407
0.158543
0.125463
0.0980887
0.0753275
0.0559851
0.0389694
0.0232896
0.00800049
0.962685
0.878866
0.788978
0.696535
0.604887
0.516958
0.435054
0.360772
0.295105
0.238299
0.190218
0.150246
0.117396
0.0905636
0.0686312
0.0503898
0.034729
0.0206192
0.00706158
0.963404
0.880197
0.790108
0.696783
0.603795
0.514301
0.430818
0.355113
0.288293
0.230672
0.182136
0.142058
0.109427
0.0831107
0.0619638
0.0447737
0.0304351
0.0179055
0.00612379
0.964249
0.881743
0.791497
0.69732
0.603003
0.51194
0.426865
0.349717
0.281715
0.223245
0.17421
0.133973
0.101497
0.075616
0.0551562
0.038908
0.025805
0.014866
0.00505115
0.965157
0.883416
0.793049
0.698049
0.602431
0.509826
0.423173
0.34458
0.275373
0.216001
0.166391
0.125897
0.0934659
0.0678926
0.0479682
0.0324758
0.0204037
0.0109207
0.00329557
0.966612
0.887023
0.798188
0.704114
0.608855
0.516108
0.428902
0.349442
0.279158
0.218599
0.1678
0.126215
0.092868
0.0666015
0.0462254
0.0305131
0.018459
0.00929482
0.0024651
0.968222
0.891698
0.805732
0.714155
0.620854
0.529399
0.442766
0.363171
0.292112
0.23027
0.177835
0.134456
0.0993402
0.0714816
0.0497788
0.0330227
0.0201589
0.0103338
0.00287027
0.969037
0.894525
0.810788
0.721437
0.630138
0.540265
0.454655
0.375446
0.304129
0.241446
0.187703
0.142719
0.105897
0.0764178
0.0533174
0.0354425
0.0217186
0.0112251
0.00318736
0.969066
0.895431
0.813198
0.725731
0.636421
0.54838
0.464223
0.385929
0.314903
0.251878
0.197221
0.150888
0.11247
0.0813656
0.0568044
0.037742
0.0231208
0.0119684
0.00342545
0.968588
0.894983
0.813707
0.727872
0.640557
0.554558
0.472208
0.395269
0.325
0.262066
0.206847
0.159389
0.119451
0.0866599
0.0604965
0.040099
0.0244825
0.0126402
0.00362053
0.967659
0.893547
0.812942
0.728646
0.643395
0.559636
0.47939
0.404165
0.335038
0.27257
0.217106
0.168737
0.12734
0.0927557
0.0647552
0.042752
0.0259329
0.0133021
0.00379528
0.966493
0.891736
0.811764
0.729045
0.645963
0.564615
0.486697
0.413453
0.345768
0.284077
0.22866
0.179603
0.136835
0.100346
0.0701902
0.0461361
0.0277001
0.0140337
0.00396803
0.96562
0.890434
0.811211
0.730161
0.649344
0.570515
0.495063
0.423975
0.357952
0.2973
0.242224
0.192762
0.148822
0.110433
0.0778262
0.0511203
0.0303189
0.0150113
0.00414102
0.964824
0.889378
0.811077
0.731864
0.653472
0.577329
0.504526
0.435818
0.371733
0.312465
0.258146
0.20876
0.164137
0.124227
0.0892444
0.059453
0.0352863
0.0170362
0.0043299
0.964075
0.888585
0.811442
0.734292
0.658533
0.585272
0.515328
0.449243
0.387403
0.329911
0.276853
0.228186
0.183678
0.143155
0.106654
0.0742546
0.0463627
0.0236485
0.006439
0.963183
0.887368
0.811027
0.735535
0.661984
0.591196
0.523757
0.460028
0.400277
0.344537
0.292871
0.245235
0.201396
0.161134
0.124335
0.0907783
0.0604166
0.0335207
0.0103232
0.961549
0.883999
0.807075
0.731851
0.659135
0.589513
0.523375
0.460935
0.402357
0.347602
0.296701
0.249604
0.206089
0.165971
0.12917
0.0954569
0.0647011
0.0369233
0.0119316
0.959376
0.879238
0.80094
0.725185
0.652503
0.583266
0.517696
0.455878
0.397888
0.343617
0.293067
0.246185
0.20276
0.162649
0.125856
0.0922497
0.0618393
0.0347986
0.0110422
0.957577
0.875318
0.795909
0.719737
0.647097
0.578187
0.513092
0.451797
0.394306
0.340465
0.29026
0.243639
0.200408
0.160458
0.123838
0.0904636
0.0603847
0.0338125
0.0106765
0.956319
0.872482
0.792211
0.715693
0.643062
0.57438
0.509631
0.448723
0.39161
0.338103
0.288176
0.241781
0.198732
0.15894
0.122483
0.0892972
0.0594569
0.033198
0.0104606
0.95537
0.870342
0.789417
0.712637
0.640005
0.57149
0.506997
0.446377
0.389548
0.336296
0.286587
0.240373
0.197476
0.157816
0.121491
0.0884513
0.0587878
0.0327571
0.0103087
0.954676
0.868778
0.787387
0.710423
0.637797
0.569401
0.50509
0.444673
0.388046
0.334976
0.285424
0.239345
0.19656
0.156998
0.120769
0.0878345
0.0582975
0.0324316
0.0101952
0.954091
0.867623
0.785983
0.708954
0.636368
0.568074
0.503893
0.443615
0.387123
0.334176
0.284733
0.238747
0.196043
0.156551
0.120389
0.0875205
0.0580558
0.0322757
0.0101434
0.954093
0.867627
0.785988
0.70896
0.636375
0.568081
0.5039
0.443622
0.38713
0.334183
0.284739
0.238752
0.196048
0.156555
0.120392
0.0875234
0.0580578
0.0322769
0.0101438
0.954681
0.868789
0.787402
0.710441
0.637816
0.569422
0.505111
0.444695
0.388067
0.334996
0.285443
0.239362
0.196576
0.157012
0.120781
0.0878437
0.0583043
0.0324358
0.0101966
0.955376
0.870358
0.789441
0.712665
0.640036
0.571523
0.507031
0.446411
0.389581
0.336328
0.286617
0.240401
0.197501
0.157838
0.121509
0.0884654
0.058798
0.0327633
0.0103108
0.956328
0.872504
0.792241
0.71573
0.643103
0.574423
0.509676
0.448768
0.391654
0.338145
0.288215
0.241816
0.198764
0.158968
0.122506
0.0893154
0.0594698
0.0332057
0.0104633
0.957587
0.875344
0.795946
0.719782
0.647148
0.578241
0.513148
0.451852
0.39436
0.340517
0.290308
0.243683
0.200447
0.160491
0.123866
0.0904851
0.0603999
0.0338215
0.0106795
0.959388
0.879268
0.800983
0.725237
0.652561
0.583328
0.51776
0.455942
0.39795
0.343676
0.293122
0.246234
0.202803
0.162686
0.125885
0.0922717
0.0618542
0.0348069
0.0110447
0.961562
0.884032
0.807123
0.731909
0.659201
0.589583
0.523447
0.461007
0.402426
0.347667
0.29676
0.249656
0.206133
0.166006
0.129195
0.0954718
0.0647078
0.0369245
0.0119308
0.963199
0.887416
0.811103
0.735636
0.662104
0.591333
0.523906
0.460185
0.40044
0.344703
0.293036
0.245399
0.201557
0.161291
0.124485
0.0909191
0.0605405
0.0336137
0.0103632
0.964094
0.888641
0.811533
0.734414
0.658681
0.585441
0.515515
0.449443
0.387612
0.330124
0.277068
0.2284
0.183887
0.143356
0.10684
0.0744186
0.0464931
0.0237335
0.00646966
0.96484
0.889426
0.811156
0.73197
0.653602
0.577478
0.50469
0.435991
0.371912
0.312646
0.258325
0.208933
0.1643
0.124375
0.0893718
0.0595525
0.0353525
0.0170691
0.00433638
0.965635
0.890479
0.811284
0.730261
0.649466
0.570656
0.495217
0.424138
0.358118
0.297466
0.242385
0.192914
0.14896
0.110552
0.0779221
0.0511895
0.0303616
0.0150319
0.00414629
0.966506
0.891776
0.811832
0.729138
0.646078
0.564747
0.486842
0.413605
0.345922
0.284229
0.228805
0.179736
0.136952
0.100444
0.0702653
0.0461885
0.0277322
0.0140499
0.00397258
0.96767
0.893583
0.813004
0.728732
0.643502
0.559759
0.479525
0.404306
0.33518
0.272708
0.217235
0.168853
0.12744
0.0928369
0.0648166
0.0427945
0.0259593
0.0133159
0.00379934
0.968598
0.895015
0.813763
0.72795
0.640656
0.554672
0.472333
0.395399
0.325129
0.262191
0.206961
0.159491
0.119537
0.0867289
0.0605481
0.040135
0.0245053
0.0126525
0.00362428
0.969074
0.895459
0.813248
0.725801
0.63651
0.548484
0.464336
0.386046
0.315019
0.251989
0.197322
0.150977
0.112545
0.081425
0.056849
0.0377735
0.0231411
0.0119797
0.00342906
0.969044
0.894549
0.810832
0.7215
0.630217
0.540358
0.454756
0.375551
0.304233
0.241545
0.187793
0.142798
0.105963
0.0764696
0.0533567
0.0354707
0.0217375
0.011236
0.0031911
0.968228
0.891719
0.80577
0.71421
0.620924
0.529481
0.442856
0.363264
0.292204
0.230357
0.177914
0.134525
0.0993975
0.0715276
0.0498142
0.0330489
0.020177
0.0103449
0.00287444
0.966612
0.887027
0.798197
0.704128
0.608874
0.516131
0.428927
0.349469
0.279184
0.218624
0.167822
0.126234
0.0928826
0.0666119
0.046232
0.0305163
0.0184597
0.00929405
0.00246425
0.965154
0.88341
0.793039
0.698035
0.602416
0.509808
0.423155
0.344562
0.275356
0.215985
0.166376
0.125884
0.0934541
0.067882
0.0479588
0.0324676
0.0203968
0.0109157
0.0032932
0.964249
0.881741
0.791495
0.697317
0.603
0.511938
0.426863
0.349716
0.281715
0.223246
0.174212
0.133975
0.1015
0.0756182
0.0551583
0.0389099
0.0258066
0.014867
0.0050514
0.963403
0.880196
0.790106
0.696781
0.603793
0.5143
0.430817
0.355113
0.288293
0.230673
0.182137
0.14206
0.109429
0.0831125
0.0619655
0.0447751
0.0304362
0.0179061
0.00612396
0.962685
0.878865
0.788977
0.696533
0.604886
0.516957
0.435053
0.360772
0.295105
0.2383
0.190219
0.150248
0.117397
0.0905651
0.0686326
0.0503908
0.0347298
0.0206196
0.0070617
0.961982
0.877554
0.787909
0.696376
0.606076
0.519707
0.439375
0.366516
0.302007
0.246025
0.198408
0.158545
0.125464
0.0980899
0.0753285
0.0559859
0.03897
0.0232899
0.00800058
0.961057
0.876046
0.786704
0.696103
0.607147
0.522333
0.443581
0.372169
0.308861
0.253754
0.206656
0.166951
0.133677
0.105776
0.0821833
0.0617229
0.0433303
0.0260558
0.00898986
0.960316
0.874928
0.785913
0.696181
0.608486
0.525155
0.447938
0.37796
0.315867
0.261673
0.215139
0.175636
0.142204
0.113796
0.0893697
0.0677688
0.0479549
0.0290145
0.0100625
0.959948
0.874266
0.785492
0.696517
0.60999
0.528087
0.452391
0.383871
0.323045
0.269832
0.223938
0.184708
0.151171
0.122287
0.0970292
0.0742571
0.0529544
0.0322394
0.0112443
0.959413
0.873202
0.784525
0.696239
0.610885
0.53048
0.456427
0.389518
0.330129
0.278066
0.23297
0.194149
0.160612
0.131315
0.105246
0.0812751
0.0584049
0.0357835
0.0125563
0.958616
0.871634
0.782919
0.695288
0.61117
0.532398
0.460166
0.395068
0.337318
0.286598
0.242468
0.204191
0.170749
0.14109
0.114208
0.0889831
0.064431
0.0397284
0.0140307
0.957789
0.869833
0.78095
0.693981
0.611216
0.534261
0.464063
0.400992
0.345082
0.295882
0.252861
0.215232
0.181945
0.151931
0.124193
0.0976077
0.071205
0.0441866
0.0157109
0.9568
0.867535
0.778426
0.692273
0.611127
0.536295
0.468433
0.407662
0.353826
0.30633
0.264556
0.227663
0.194562
0.16417
0.135486
0.107389
0.078913
0.0492821
0.0176461
0.955172
0.864338
0.77519
0.690237
0.611158
0.538886
0.473744
0.415592
0.364078
0.31847
0.278063
0.241962
0.209044
0.178201
0.148437
0.118619
0.0877835
0.0551692
0.0198999
0.953451
0.861265
0.772492
0.689244
0.612728
0.543441
0.481353
0.42606
0.377027
0.333393
0.294373
0.259027
0.22619
0.194734
0.163656
0.131807
0.0982128
0.0621147
0.0225822
0.952064
0.858984
0.771234
0.690384
0.617038
0.551201
0.492491
0.440261
0.393813
0.352177
0.314498
0.279797
0.246868
0.214555
0.181846
0.14756
0.110695
0.0704695
0.0258456
0.950333
0.857081
0.771477
0.69407
0.624708
0.5629
0.507953
0.45902
0.415279
0.375667
0.339278
0.3051
0.271886
0.238443
0.203743
0.166552
0.12581
0.0806686
0.0298963
0.949044
0.857352
0.775451
0.702626
0.638005
0.580697
0.529781
0.484272
0.443262
0.405619
0.370397
0.336557
0.302801
0.267887
0.23075
0.190065
0.144661
0.0935412
0.0351333
0.949513
0.862023
0.785595
0.718457
0.659239
0.606804
0.560114
0.518103
0.479816
0.444073
0.409893
0.376209
0.341657
0.30492
0.26486
0.219997
0.168953
0.110434
0.0422501
0.952363
0.872165
0.803082
0.742755
0.689629
0.642502
0.600319
0.561994
0.526559
0.492795
0.459694
0.426157
0.390727
0.351971
0.308622
0.258932
0.201154
0.133425
0.0524418
0.958233
0.888543
0.828625
0.77623
0.729958
0.688705
0.651494
0.61726
0.585057
0.553643
0.521983
0.488939
0.452929
0.412342
0.365692
0.310787
0.245226
0.166088
0.0680543
0.96698
0.910663
0.861609
0.818339
0.779868
0.745316
0.71385
0.684477
0.656306
0.628095
0.598796
0.567235
0.531673
0.490253
0.441138
0.381429
0.307592
0.214778
0.0940365
0.977531
0.936692
0.900056
0.867232
0.837771
0.81108
0.786522
0.763234
0.740434
0.716937
0.691731
0.663645
0.630793
0.59104
0.542062
0.479904
0.399176
0.29161
0.141809
0.988227
0.963934
0.941072
0.92014
0.901146
0.883788
0.867667
0.852129
0.836596
0.820072
0.801708
0.780471
0.754497
0.72151
0.678709
0.620828
0.539746
0.421511
0.239713
0.997276
0.98947
0.9815
0.973984
0.967089
0.960742
0.954811
0.948987
0.94304
0.936439
0.928765
0.919452
0.907252
0.890441
0.866355
0.82908
0.767602
0.659916
0.461917
)
;

boundaryField
{
    up
    {
        type            fixedValue;
        value           uniform 0;
    }
    low
    {
        type            fixedValue;
        value           uniform 1;
    }
    left
    {
        type            fixedValue;
        value           uniform 1;
    }
    right
    {
        type            fixedValue;
        value           uniform 1;
    }
    frontAndBackPlanes
    {
        type            empty;
    }
}


// ************************************************************************* //
