/*--------------------------------*- C++ -*----------------------------------*\
  =========                 |
  \\      /  F ield         | OpenFOAM: The Open Source CFD Toolbox
   \\    /   O peration     | Website:  https://openfoam.org
    \\  /    A nd           | Version:  7
     \\/     M anipulation  |
\*---------------------------------------------------------------------------*/
FoamFile
{
    version     2.0;
    format      ascii;
    class       volScalarField;
    location    "0.11";
    object      gradTz;
}
// * * * * * * * * * * * * * * * * * * * * * * * * * * * * * * * * * * * * * //

dimensions      [0 -1 0 1 0 0 0];

internalField   nonuniform List<scalar> 
1596
(
-1.61332e-16
-7.72056e-17
7.98147e-17
2.97151e-18
-1.48527e-16
0
-6.72315e-17
-6.63249e-17
-6.24136e-18
-3.59232e-17
-2.06529e-19
-3.60723e-17
1.61318e-16
-3.60598e-17
1.67681e-16
1.45331e-16
8.66215e-17
1.09889e-16
0
1.59775e-16
0
2.16558e-16
-2.44362e-18
-6.29816e-17
6.2149e-17
1.32926e-16
6.05794e-18
6.20327e-17
-3.02924e-17
6.07462e-17
-5.91835e-19
-8.4735e-17
-5.3438e-17
-1.35382e-16
-1.3276e-16
-1.21226e-16
6.93486e-17
0
-7.64102e-17
0
-1.37142e-16
3.84016e-18
1.18419e-16
-3.67118e-17
4.4934e-18
-7.8385e-19
-6.45479e-19
-5.81552e-19
2.00062e-17
0
4.39046e-17
1.23092e-16
-1.22452e-17
1.01987e-17
2.37984e-17
3.83707e-17
0
1.22558e-16
-3.40934e-17
3.39689e-17
0
-3.17063e-17
-3.37216e-17
5.2035e-17
-4.14799e-17
0
0
-1.99192e-17
1.04975e-17
0
-3.54571e-17
-4.35426e-17
3.10078e-17
-3.41484e-17
-1.74244e-18
0
2.16999e-17
5.31436e-17
-4.4135e-17
0
-1.18096e-17
-3.66644e-17
0
5.22116e-17
-4.98453e-18
-4.52556e-18
-8.0841e-18
2.57817e-17
3.32957e-17
3.80949e-18
3.92134e-18
-3.35014e-17
1.66168e-18
1.56928e-17
-7.0282e-18
-5.63511e-18
-7.24168e-17
6.47115e-17
-5.20564e-17
-1.89389e-19
-4.03331e-17
1.09481e-18
-1.09845e-18
-2.83737e-17
0
-6.59174e-18
-3.08044e-17
-2.99571e-17
2.27138e-17
2.7496e-17
-3.64763e-19
-1.65454e-17
-1.5917e-17
1.23897e-17
4.70936e-17
-7.32947e-17
7.58405e-17
3.95496e-17
0
3.1402e-17
1.6784e-17
-7.85031e-18
3.5609e-17
-6.37901e-18
-2.85837e-17
1.71063e-19
-1.57803e-17
-2.27931e-17
-1.65642e-17
1.50061e-17
1.6691e-17
-2.29105e-19
-5.0415e-18
7.24879e-18
1.179e-16
-1.27394e-16
0
0
-3.59845e-17
0
0
0
1.8972e-17
0
0
1.47939e-17
3.29324e-19
6.02962e-18
-1.33123e-17
0
7.08072e-18
3.02786e-18
0
-7.33347e-17
1.3826e-16
0
0
3.7059e-17
0
-1.13284e-17
1.13169e-17
-1.93108e-17
7.40522e-18
-7.45938e-18
0
1.05942e-17
1.27576e-17
0
-7.30308e-18
-7.22374e-18
-2.68405e-18
1.95357e-16
-8.88763e-17
0
-4.99436e-17
4.93847e-17
0
2.82632e-17
0
0
0
6.12178e-18
-6.15112e-18
0
-8.31925e-18
-2.20301e-18
0
1.78092e-18
3.85874e-18
0
-4.96464e-17
0
0
5.04361e-17
-8.99297e-17
7.99671e-18
3.22553e-18
-9.84491e-18
1.98069e-18
7.32378e-19
-6.28195e-18
-8.75171e-18
0
6.31262e-18
-1.43994e-18
1.46155e-18
4.75226e-18
-3.11768e-18
-1.31701e-18
3.62244e-17
-6.81704e-18
3.50628e-17
1.0819e-16
-9.91271e-18
-4.00815e-17
0
0
0
1.32138e-17
4.49118e-18
1.53106e-17
-3.63798e-18
-6.1997e-18
-3.1214e-18
-1.97623e-18
9.09011e-19
-2.07909e-18
1.23152e-18
-4.32811e-17
4.26419e-17
-7.5915e-17
-1.07161e-16
9.49407e-17
3.12191e-17
-5.46513e-17
4.17266e-17
-3.16314e-17
8.38778e-18
5.14886e-18
-4.27339e-18
1.98549e-18
-1.96784e-18
6.06472e-18
0
-4.84557e-19
3.80388e-18
-5.78801e-19
-2.96187e-16
1.31301e-16
8.68982e-20
-2.23573e-17
5.31131e-18
3.04144e-17
-5.60152e-17
-1.95764e-17
1.45195e-17
-1.06441e-17
-7.82725e-18
0
-7.1899e-18
-2.01713e-18
-3.13714e-18
-1.8069e-18
1.38753e-19
-1.98657e-18
1.52449e-19
4.83897e-17
-4.07317e-17
-1.44346e-22
-2.7105e-17
-5.96784e-17
5.43252e-17
3.02034e-19
1.90772e-17
-1.41366e-17
2.02693e-17
4.42716e-18
3.16499e-18
7.8749e-18
0
5.40904e-18
2.41489e-18
0
9.56212e-19
1.04803e-19
0
3.95145e-17
2.66952e-17
-5.81008e-17
5.76216e-17
-8.0688e-17
5.21631e-17
1.55792e-17
-4.10943e-18
-2.0754e-17
2.86962e-18
-2.85546e-18
-6.8045e-18
2.27647e-18
-1.18359e-18
-2.20531e-18
8.2179e-19
-5.19294e-19
2.70715e-19
-4.49753e-17
1.3933e-16
-1.05109e-16
4.98074e-17
0
0
-8.65148e-18
1.96189e-17
-1.04167e-17
1.86613e-17
0
0
4.34497e-18
-3.43689e-18
-1.94445e-18
6.1292e-19
-6.51415e-19
3.57449e-19
0
6.04602e-18
4.21078e-17
-2.9706e-17
-2.41574e-17
-3.304e-17
-6.52803e-18
1.38736e-17
0
-9.52403e-18
-6.21621e-18
5.22682e-18
-3.55816e-18
2.4043e-18
0
7.92262e-19
1.23212e-18
0
0
0
-5.9009e-18
5.80709e-17
1.73698e-17
-7.34903e-17
1.74895e-17
1.35993e-17
0
0
8.67644e-18
-4.66592e-18
-5.05547e-18
3.44139e-18
-2.32514e-18
0
-4.02478e-19
2.82057e-19
0
-2.1955e-19
-7.82378e-20
-3.36527e-17
9.89075e-17
-1.12968e-16
-3.81603e-17
2.08822e-17
-1.22712e-17
8.95155e-18
0
-4.43795e-18
3.27401e-18
0
0
7.67318e-19
-7.68201e-19
1.62571e-19
-2.6452e-19
2.92817e-19
6.08217e-20
5.97175e-20
1.85124e-17
-1.55316e-17
7.09378e-17
-4.49763e-17
-1.52067e-17
3.05808e-18
1.93235e-17
5.7374e-18
4.24645e-18
0
1.52196e-18
-1.37857e-18
9.03551e-19
-6.38923e-19
5.83062e-19
-8.96252e-19
-2.24801e-19
1.85916e-19
4.34261e-20
4.72599e-17
-4.90811e-17
0
3.3254e-17
-1.83999e-17
-1.07788e-17
5.1644e-18
-1.83452e-17
0
-3.02604e-19
-1.98925e-18
-1.08775e-18
1.22037e-18
-1.54652e-19
-5.63519e-19
3.53178e-19
0
9.23252e-20
-4.21664e-20
8.66824e-17
-1.38608e-17
5.14881e-17
-3.99027e-17
1.65606e-17
-1.44325e-18
-1.66279e-17
-3.99002e-18
6.61914e-18
-4.31633e-19
-2.35271e-18
1.77421e-18
-6.84809e-19
-6.49768e-19
0
0
0
-9.29627e-20
3.22224e-21
-7.31682e-17
7.01795e-17
3.39538e-20
8.35847e-18
6.30332e-18
-1.23288e-17
1.30159e-17
-8.88378e-18
6.40141e-18
-1.4727e-18
2.6929e-18
6.94614e-19
-2.50181e-19
1.35977e-20
-4.52085e-20
-8.44129e-20
0
0
0
0
0
2.80863e-17
-1.75514e-17
-3.77988e-17
0
0
-2.53214e-18
-3.29472e-18
2.24719e-18
0
-8.76036e-19
5.45048e-19
-1.38706e-18
1.51133e-18
-3.68595e-19
3.89261e-19
3.66826e-20
0
-1.41253e-17
1.42991e-17
0
-9.03242e-18
8.8845e-18
1.22619e-17
0
2.55632e-18
2.15382e-18
-1.08052e-17
0
-1.03872e-18
6.53028e-19
3.59186e-19
-2.20329e-19
2.80893e-19
0
-8.23881e-20
0
-7.27941e-18
-6.71664e-18
3.96316e-19
9.28058e-18
-2.19409e-17
0
-4.19349e-18
0
8.01478e-18
2.55902e-18
0
4.09275e-18
-3.69293e-18
4.89292e-19
-4.08437e-19
2.4818e-19
5.4042e-19
1.66609e-19
-1.32174e-19
0
1.45196e-17
-1.1131e-17
1.35404e-17
1.37014e-17
0
8.29549e-18
-7.34662e-18
-4.39834e-18
5.12251e-18
-7.53188e-18
-2.75233e-18
0
0
3.13158e-19
0
0
6.38389e-20
0
-6.6921e-17
5.19134e-17
0
1.25055e-18
-7.63606e-18
-3.71502e-19
5.67455e-18
2.91413e-18
-4.42153e-18
-7.70732e-18
9.75864e-18
-2.74561e-18
0
-7.8619e-19
0
0
0
-2.50378e-19
2.0118e-19
-1.95353e-17
1.71625e-17
4.13522e-17
-3.90736e-17
1.09438e-17
9.59535e-19
-5.74257e-18
4.24434e-18
6.12215e-18
3.81439e-18
-7.405e-18
0
2.33513e-18
-1.17198e-19
-8.9892e-19
-1.46642e-18
1.15436e-18
-1.26204e-19
2.65957e-19
-6.83261e-17
8.72577e-17
-8.51869e-17
1.34382e-17
9.99521e-18
-9.00018e-18
7.03993e-18
-4.62133e-18
0
-3.01085e-18
3.74718e-18
1.57913e-18
2.21418e-18
2.07292e-18
-2.95851e-18
-1.56436e-19
0
-1.23899e-19
4.28328e-20
-7.38446e-17
-2.00886e-17
-3.17896e-17
1.76518e-17
-2.42061e-17
1.87461e-17
-1.05711e-17
7.56067e-18
-9.00616e-19
-8.46159e-19
-4.3875e-18
2.84153e-18
-8.84071e-19
2.99642e-18
-3.21669e-18
1.93372e-19
2.75285e-19
0
-8.08383e-20
7.98422e-17
-2.18587e-17
0
0
-2.48335e-17
4.66973e-17
-1.01428e-17
-1.58043e-18
1.1889e-17
-3.76328e-19
0
0
-1.68128e-18
0
-3.03734e-18
6.7996e-18
-4.5266e-18
0
3.72461e-20
2.6528e-17
4.71264e-17
0
-1.78848e-17
-1.25905e-17
-9.58043e-18
-1.06862e-17
3.7847e-18
-9.95725e-18
-4.64437e-18
0
0
2.92682e-18
0
0
-4.54392e-18
7.63151e-18
0
0
1.82254e-16
-2.53577e-17
-1.02415e-16
-4.92552e-17
6.73774e-17
1.91598e-17
1.03616e-17
0
-3.16991e-18
2.69533e-18
6.75559e-18
-2.07331e-18
-2.56831e-18
3.82403e-18
-4.0676e-18
-1.04784e-18
0
0
0
1.45934e-17
-1.08012e-16
1.05293e-16
-9.36637e-18
-6.61474e-17
1.00035e-16
-4.84028e-17
0
0
1.94398e-17
-1.54555e-17
0
-3.80675e-18
6.80686e-18
-6.26485e-19
1.83142e-18
5.26733e-19
8.32229e-21
1.07084e-19
0
0
0
8.05544e-17
-5.4386e-17
5.01565e-17
-7.66501e-17
2.08636e-17
0
-6.32921e-18
9.24047e-18
-9.44431e-18
-1.63927e-18
6.9991e-20
-1.01704e-18
-1.19328e-19
-8.07696e-19
-2.33978e-19
-1.23428e-19
1.20219e-16
-2.09888e-16
9.72767e-17
0
2.22729e-17
-3.05897e-17
2.73353e-17
-2.15956e-17
0
-8.74029e-18
1.22943e-17
0
0
6.48404e-20
0
-1.16134e-18
7.82254e-19
1.15244e-19
2.00892e-19
1.21194e-16
0
-4.26711e-17
4.75487e-17
-2.69155e-17
5.75899e-17
-2.64345e-17
-1.84609e-17
1.86537e-17
-1.76047e-18
0
0
9.85258e-19
-1.53748e-18
-1.0648e-18
1.99081e-18
-4.28825e-19
2.07598e-19
0
6.86628e-17
4.98897e-17
-3.67928e-18
-4.55644e-17
-4.26924e-18
-2.86709e-17
4.34811e-18
2.27945e-17
-1.09174e-18
1.79353e-18
0
0
-1.00933e-18
0
1.13269e-18
-1.2117e-18
0
1.52347e-19
-4.16511e-20
-3.64135e-17
-2.50739e-17
2.35151e-17
-2.5141e-18
-1.07833e-18
2.76351e-18
0
-6.60663e-19
9.18432e-18
-7.73006e-18
0
2.29735e-18
-5.12834e-19
-1.96341e-18
-1.74035e-19
-1.33578e-19
0
-1.19613e-19
0
1.44088e-17
-2.69192e-17
1.47395e-19
1.0879e-17
9.09694e-18
-8.98786e-18
-5.77886e-18
6.5207e-18
-2.03249e-18
1.60422e-18
-1.41465e-18
1.45828e-18
0
3.42935e-21
-1.28301e-19
4.58898e-19
-1.5492e-21
0
0
1.44093e-17
-1.43553e-17
-1.08211e-17
9.61757e-18
1.60285e-17
-1.61231e-17
-2.88957e-18
2.89701e-18
-2.05011e-18
2.07143e-18
-1.41473e-18
2.62567e-18
-7.36605e-19
-5.03601e-19
-1.4802e-19
5.0516e-20
1.15672e-19
3.02586e-20
-2.26615e-20
0
-3.35086e-18
1.87687e-17
-2.04349e-17
1.59571e-17
-1.42012e-17
0
9.65246e-18
-8.67241e-18
0
2.79004e-18
-3.51166e-18
-1.87377e-18
1.96383e-18
3.42934e-19
0
0
-1.19658e-19
4.33086e-20
5.72758e-17
-1.03562e-16
1.01412e-16
-8.51319e-17
3.27855e-17
-2.50388e-17
2.38896e-17
2.58348e-18
-9.00441e-18
8.01624e-18
0
-5.05759e-18
4.61897e-18
-8.17513e-19
-3.35904e-19
5.00243e-19
3.62614e-19
1.16165e-19
-4.18459e-20
1.36358e-16
0
-4.84091e-17
3.76884e-17
4.22034e-18
-2.99585e-17
5.15899e-17
-4.32804e-17
1.65658e-17
-6.31291e-18
6.46182e-18
1.20491e-18
1.91101e-18
7.96266e-19
-6.1225e-19
-9.45128e-20
-7.78832e-19
0
7.41312e-20
1.05258e-16
-1.18496e-16
0
9.7344e-18
3.88339e-17
-3.75943e-17
5.85227e-18
4.86747e-18
2.04813e-18
3.29835e-18
0
0
-3.28174e-18
5.87633e-18
-2.09662e-18
-7.15e-19
7.82806e-19
6.08812e-20
-1.38948e-19
1.44156e-17
1.04234e-16
-1.12066e-17
-7.09886e-17
6.25298e-17
6.85857e-18
-5.72751e-18
-4.75407e-18
1.40437e-17
-1.73621e-17
9.24615e-18
-9.44999e-18
1.23932e-18
-1.77164e-18
2.79955e-18
-1.88652e-18
0
0
1.16605e-19
0
2.54598e-17
-7.07188e-17
8.11594e-17
-5.82671e-17
5.81284e-17
0
1.63533e-17
-1.64283e-17
-1.06722e-17
1.54727e-17
0
5.38486e-18
-6.81518e-18
-9.6952e-19
0
-9.50036e-20
-1.60888e-19
-1.91214e-20
-2.52461e-16
1.17462e-16
0
-6.73743e-17
6.73675e-17
3.61575e-17
-2.36033e-17
8.39827e-18
0
-3.16116e-19
1.83584e-18
-2.07167e-18
-2.56668e-18
3.82144e-18
-4.06346e-18
0
6.96395e-19
-9.44606e-20
-1.01211e-19
1.52813e-16
-1.47927e-16
0
1.75865e-17
1.48262e-17
-1.28601e-17
0
-8.80146e-18
-6.50076e-18
0
-6.43304e-19
0
2.93011e-18
0
0
8.99116e-19
3.22249e-18
-4.27006e-18
0
-5.54387e-21
2.18702e-17
-1.88509e-17
1.31638e-17
-6.80214e-17
2.4846e-17
0
1.58223e-18
4.35243e-18
0
-3.66425e-18
8.61736e-18
-9.05304e-18
1.19991e-18
0
-2.64321e-19
0
0
0
8.06404e-22
0
1.7423e-17
0
-2.17405e-17
2.20861e-17
0
5.82084e-18
-4.01468e-18
1.33592e-17
-6.18565e-18
1.72105e-18
-2.41969e-18
1.91571e-18
-3.22438e-18
-4.756e-19
0
-1.83538e-19
0
5.79302e-17
-9.83451e-17
0
-1.32426e-17
1.07459e-17
0
0
-1.03336e-17
0
-3.0148e-18
-3.75268e-18
-1.5818e-18
2.21847e-18
0
7.45332e-19
0
0
3.70692e-19
-3.75503e-19
0
8.05491e-17
-6.39868e-17
1.22596e-17
-9.95077e-18
-3.38031e-18
9.18196e-18
8.83815e-18
-8.84459e-18
2.78074e-18
4.90816e-19
-1.55019e-18
6.05389e-18
-1.82141e-18
-3.18393e-18
9.78351e-19
-1.81224e-19
1.11822e-19
-2.54476e-20
-1.42708e-16
5.19509e-17
0
0
3.88442e-18
-3.95002e-18
1.92525e-18
6.62766e-19
7.54482e-18
3.09635e-18
-2.83714e-18
-2.81728e-19
-1.02029e-18
7.87789e-19
0
2.38614e-19
1.66105e-19
6.92522e-20
2.3001e-20
0
4.24484e-17
-3.69276e-17
1.12997e-17
9.63985e-18
-1.78233e-18
-4.67528e-18
-3.39849e-18
-9.21233e-18
2.97481e-18
-1.15201e-18
2.03713e-18
9.54101e-19
-8.5792e-19
9.1063e-19
3.89644e-19
-5.5362e-19
-6.39647e-20
0
-8.33184e-18
-3.43128e-17
1.11851e-17
9.28382e-18
-2.75244e-17
1.85278e-17
6.90932e-18
-7.06239e-18
4.1759e-18
-2.82324e-18
0
0
-1.13483e-18
1.88831e-18
-7.41125e-19
5.01508e-19
-5.53968e-19
7.47579e-20
-1.32387e-19
1.52072e-17
1.32723e-17
-1.09833e-17
6.72784e-18
-8.96172e-18
-1.04119e-17
0
0
0
0
0
0
5.83141e-19
-1.19144e-18
1.26008e-18
-2.93932e-19
3.71598e-19
1.45568e-19
-1.21491e-19
3.23062e-17
-4.77989e-17
5.92736e-17
-2.19136e-17
3.09935e-17
-1.67274e-17
2.90236e-17
-1.4557e-17
-5.39339e-18
5.51719e-18
0
8.7558e-19
-5.69699e-19
1.03701e-18
-4.6581e-19
-4.22368e-19
-6.58379e-19
5.65015e-20
1.00583e-19
5.07154e-17
1.31118e-17
0
-1.66937e-17
-1.0792e-17
2.30102e-17
8.94652e-19
-6.71183e-18
3.55538e-18
-1.90971e-18
0
-6.93121e-19
0
-3.82597e-19
2.72177e-19
-2.03352e-19
-6.23843e-20
3.5879e-20
0
7.02244e-17
-1.38606e-17
5.15232e-17
-3.99853e-17
-6.73854e-18
2.17253e-17
-1.29219e-17
9.41203e-19
6.341e-19
-1.92644e-18
1.71311e-18
0
0
5.20649e-19
-1.24669e-19
6.4054e-20
2.2388e-19
-7.60848e-20
0
9.37115e-21
0
-1.18921e-17
6.14922e-17
-4.02552e-17
-3.42643e-17
1.84512e-17
-1.41105e-17
1.23823e-17
4.82672e-18
-2.96853e-18
1.03208e-18
-8.28156e-19
1.9104e-19
8.93857e-19
-1.01757e-20
-2.32106e-19
2.18409e-19
-4.66381e-20
1.66186e-16
-5.19201e-17
2.02063e-17
-6.48762e-17
1.52067e-17
-2.03074e-17
1.15455e-17
0
0
-3.37176e-19
-5.54193e-19
-1.53075e-19
0
-9.19603e-19
-5.83073e-19
3.64945e-19
-2.42547e-20
6.04496e-20
9.99697e-20
0
-4.9474e-17
7.53759e-17
1.1817e-17
-5.42534e-17
1.22712e-17
-1.5768e-17
4.40617e-18
1.10823e-17
0
0
1.63954e-19
1.16988e-18
0
-7.0454e-19
-2.67207e-19
4.20556e-20
-1.0234e-19
-1.33968e-19
0
-2.9081e-17
1.0971e-17
5.09128e-17
3.09302e-17
-5.43442e-17
2.31642e-17
-1.23495e-17
6.97005e-18
-7.32443e-18
0
0
0
-1.5654e-18
2.42927e-19
-4.04466e-19
0
-2.05448e-20
9.91476e-20
-1.23023e-16
1.14411e-16
1.07605e-16
-1.29424e-16
5.14793e-17
-4.69943e-17
0
1.34052e-17
-1.7358e-17
8.92809e-18
-5.64024e-18
3.90164e-18
2.68724e-18
1.61897e-18
1.09579e-18
0
0
0
0
1.40997e-16
-7.56622e-17
0
0
-1.97728e-17
4.16985e-17
-2.62927e-17
-1.45172e-17
1.43536e-17
8.36759e-18
1.21186e-17
-4.04833e-18
1.55727e-18
9.49883e-19
6.09802e-19
5.11013e-19
7.9097e-19
-3.66911e-20
3.73732e-20
-1.40721e-16
1.24818e-16
5.91906e-17
-3.18382e-17
5.74572e-17
-3.63498e-17
-2.43485e-17
-1.81344e-17
0
-1.76564e-17
1.51413e-18
4.96779e-18
-3.21931e-18
-2.27654e-18
-7.59234e-19
-6.76268e-19
-5.44953e-19
0
0
-4.84052e-17
0
3.34936e-17
3.13176e-20
0
0
2.51163e-17
1.87121e-17
0
9.91466e-18
0
-7.44744e-18
-1.85766e-18
3.15159e-18
0
1.88336e-18
-2.5223e-19
2.57308e-19
0
1.05441e-16
0
6.23335e-17
-1.11477e-16
9.30347e-17
6.46826e-17
-3.68452e-18
0
2.0921e-18
1.27075e-17
0
-8.99651e-18
8.94997e-18
-7.5767e-18
-1.5773e-18
-1.47384e-18
-4.86358e-19
-9.87262e-20
-4.54415e-19
-9.35978e-17
1.33607e-16
-3.48563e-17
-8.44387e-17
-4.48459e-17
-3.50689e-17
-5.3977e-17
-1.81171e-17
2.61557e-18
5.15857e-18
-5.14888e-18
1.38837e-17
-5.89867e-18
1.0806e-17
-1.99234e-18
0
2.71954e-18
-1.76609e-18
4.35174e-19
2.16845e-16
-6.75814e-18
-1.4609e-16
1.0819e-16
-9.09947e-17
7.18434e-17
-3.81197e-18
-2.16271e-17
1.68615e-17
5.66445e-18
-1.17175e-18
-1.20131e-17
3.05512e-18
4.23107e-18
-1.07675e-18
1.08903e-18
-2.81678e-18
-8.05145e-19
-1.02757e-18
1.06452e-16
4.1723e-17
6.87323e-17
-5.55261e-17
-4.01681e-17
4.18402e-18
-2.50023e-17
5.91004e-17
3.06855e-18
2.23639e-17
1.21573e-17
-1.03503e-17
0
-6.31275e-18
0
0
5.69219e-18
2.29253e-18
1.17353e-18
9.7409e-17
0
6.71207e-17
5.51677e-17
-4.45751e-17
3.55546e-17
0
-2.25226e-17
-2.92619e-17
-2.32318e-17
-1.22649e-17
1.04674e-17
0
0
0
0
-5.3635e-18
-5.14304e-18
0
-1.90683e-16
0
-5.84674e-18
-5.30191e-18
6.87849e-17
-3.35084e-17
-1.43208e-17
-1.45365e-17
3.05403e-17
0
7.4052e-18
-7.45147e-19
7.91973e-18
0
0
1.14219e-17
-8.7709e-19
6.19374e-18
-2.95629e-18
1.32538e-16
3.50977e-17
-3.47354e-17
-2.83488e-17
-8.77437e-17
5.61435e-17
6.25685e-17
-3.10939e-18
-2.16895e-17
2.27135e-17
4.50289e-18
-2.43109e-17
-1.85369e-17
-1.37366e-17
-1.49945e-17
-1.32235e-17
1.33564e-17
-6.10155e-19
3.02786e-18
-3.97784e-17
1.69794e-17
-7.97323e-17
1.21547e-17
-1.21105e-17
0
-3.16742e-17
-4.36309e-18
-2.92561e-17
4.98749e-18
2.85834e-17
1.92421e-17
-5.19897e-18
-2.92346e-19
1.41093e-17
0
-2.94867e-17
-1.19559e-17
-2.42255e-19
8.36868e-17
-2.08075e-18
1.25447e-16
-5.67285e-17
1.89389e-19
1.36562e-18
3.9746e-17
-5.77536e-18
2.83736e-17
-2.64209e-17
-2.51173e-17
0
2.99568e-17
2.23352e-17
3.52259e-19
-5.19266e-19
1.67078e-17
1.21467e-17
0
-5.88662e-17
0
-1.10904e-17
5.48423e-17
1.28028e-18
1.18254e-17
-3.84338e-17
3.55354e-17
4.10184e-17
3.96634e-17
3.88179e-17
0
-2.91024e-17
0
1.7823e-18
-1.85107e-18
0
-1.95288e-19
9.9469e-18
4.25218e-17
3.63646e-18
-2.85635e-17
9.03419e-17
-2.82416e-17
0
0
-5.01479e-17
-3.97426e-17
-3.8425e-17
-7.44287e-17
-1.04974e-17
0
0
0
-3.99415e-18
4.22681e-18
2.8302e-17
-1.01046e-17
3.85507e-18
0
-6.61337e-17
-5.68398e-17
6.18971e-17
-6.186e-17
-8.70894e-17
1.02268e-16
3.12562e-17
0
4.57047e-17
5.64293e-17
-1.21614e-17
6.78342e-17
-1.12355e-17
1.16934e-17
4.69387e-17
-2.68971e-17
0
-8.05702e-17
0
-7.53805e-17
7.31673e-17
0
1.2487e-16
5.73446e-17
-1.24802e-16
1.03901e-16
-4.16679e-19
-3.06026e-17
-5.46351e-17
0
8.19864e-17
-1.35382e-16
1.45993e-16
-1.86224e-16
0
0
8.06242e-17
-9.17294e-19
-2.23157e-18
-1.50104e-16
1.53121e-16
-7.2938e-17
7.26407e-17
7.16498e-17
-5.98103e-17
0
0
1.22804e-16
-1.2492e-16
-1.30661e-16
1.3037e-16
-1.27664e-16
1.38628e-16
-2.17714e-16
0
)
;

boundaryField
{
    up
    {
        type            calculated;
        value           nonuniform List<scalar> 
84
(
0
0
0
0
-7.0282e-18
1.23897e-17
-5.0415e-18
3.02786e-18
-2.68405e-18
0
-1.31701e-18
1.23152e-18
-5.78801e-19
1.52449e-19
1.04803e-19
2.70715e-19
0
0
-7.82378e-20
5.97175e-20
4.34261e-20
-4.21664e-20
3.22224e-21
0
1.54645e-20
9.85886e-21
-1.20835e-19
0
2.0118e-19
2.95001e-19
4.28328e-20
-8.08383e-20
3.72461e-20
0
-9.83922e-21
1.07752e-19
-1.2123e-19
1.99038e-19
0
-4.11545e-20
0
0
-2.26052e-20
4.33086e-20
-4.18459e-20
7.41312e-20
-1.38948e-19
1.16605e-19
-1.91214e-20
-1.01211e-19
0
0
0
-3.75503e-19
-5.4634e-20
2.3001e-20
0
-1.32387e-19
-1.21491e-19
8.51506e-20
0
0
-4.66381e-20
9.99697e-20
-1.33968e-19
9.91476e-20
0
3.73732e-20
0
0
-4.54415e-19
4.35174e-19
-1.02757e-18
1.17353e-18
0
-2.95629e-18
3.02786e-18
-2.42255e-19
0
9.9469e-18
-1.01046e-17
0
0
0
)
;
    }
    low
    {
        type            calculated;
        value           nonuniform List<scalar> 
84
(
-1.61537e-16
1.59775e-16
-7.60364e-17
1.22853e-16
2.18938e-17
-5.69066e-18
4.75462e-17
7.67026e-18
0
1.95842e-16
-4.96464e-17
3.59239e-17
-4.32811e-17
-2.96274e-16
4.83897e-17
0
-4.49753e-17
6.04602e-18
-5.9009e-18
-3.36527e-17
1.85124e-17
4.72599e-17
8.62422e-17
-7.31682e-17
0
-1.41253e-17
-7.27941e-18
0
-6.6921e-17
-1.95353e-17
-6.80766e-17
-7.36754e-17
7.97629e-17
2.6528e-17
1.82353e-16
1.45934e-17
0
1.20219e-16
1.21603e-16
6.88783e-17
-3.65258e-17
1.44088e-17
1.44093e-17
0
5.72758e-17
1.36767e-16
1.05258e-16
1.47354e-17
0
-2.52559e-16
1.52813e-16
-5.54387e-21
8.06404e-22
5.79302e-17
0
-1.4222e-16
0
-8.33184e-18
1.52072e-17
3.20065e-17
5.02167e-17
6.97841e-17
9.37115e-21
1.65874e-16
0
0
-1.23023e-16
1.40921e-16
-1.40704e-16
-4.84052e-17
1.05528e-16
-9.35978e-17
2.17446e-16
1.06841e-16
9.7409e-17
-1.90683e-16
1.32117e-16
-3.93258e-17
8.36868e-17
-5.86723e-17
4.25218e-17
4.22892e-18
-8.05702e-17
8.07268e-17
)
;
    }
    left
    {
        type            calculated;
        value           nonuniform List<scalar> 
19
(
-1.61332e-16
-7.72956e-17
7.98147e-17
3.00268e-18
-1.48628e-16
0
-6.72315e-17
-6.63249e-17
-6.54104e-18
-3.59232e-17
-2.06529e-19
-3.60723e-17
1.6289e-16
-3.60598e-17
1.67681e-16
1.45331e-16
8.66215e-17
1.27546e-16
0
)
;
    }
    right
    {
        type            calculated;
        value           nonuniform List<scalar> 
19
(
8.06242e-17
-8.27248e-19
-2.23157e-18
-1.50135e-16
1.53222e-16
-7.2938e-17
7.26407e-17
7.16498e-17
-5.95106e-17
0
0
1.23959e-16
-1.26492e-16
-1.30661e-16
1.3037e-16
-1.27664e-16
1.38628e-16
-2.35371e-16
0
)
;
    }
    frontAndBackPlanes
    {
        type            empty;
    }
}


// ************************************************************************* //
