/*--------------------------------*- C++ -*----------------------------------*\
  =========                 |
  \\      /  F ield         | OpenFOAM: The Open Source CFD Toolbox
   \\    /   O peration     | Website:  https://openfoam.org
    \\  /    A nd           | Version:  7
     \\/     M anipulation  |
\*---------------------------------------------------------------------------*/
FoamFile
{
    version     2.0;
    format      ascii;
    class       volScalarField;
    location    "0.11";
    object      gradTy;
}
// * * * * * * * * * * * * * * * * * * * * * * * * * * * * * * * * * * * * * //

dimensions      [0 -1 0 1 0 0 0];

internalField   nonuniform List<scalar> 
1596
(
-0.155892
-0.286753
-0.388596
-0.479138
-0.557036
-0.633634
-0.702549
-0.775897
-0.856676
-0.946476
-1.07384
-1.23578
-1.46904
-1.8144
-2.372
-3.26147
-4.87507
-7.86968
-18.5879
-0.470694
-0.571902
-0.629232
-0.671135
-0.701446
-0.734491
-0.766196
-0.808454
-0.864779
-0.93466
-1.04282
-1.18428
-1.38426
-1.66133
-2.06797
-2.62811
-3.47398
-4.72447
-8.27505
-0.830534
-0.85229
-0.847458
-0.835476
-0.817956
-0.808329
-0.803104
-0.813168
-0.841402
-0.885916
-0.967434
-1.07891
-1.23829
-1.45407
-1.75901
-2.15477
-2.71417
-3.48497
-5.13113
-1.19193
-1.11354
-1.04024
-0.973846
-0.910479
-0.860345
-0.819868
-0.798245
-0.797538
-0.814966
-0.867458
-0.946983
-1.06641
-1.22911
-1.45678
-1.7426
-2.13053
-2.63803
-3.49998
-1.50587
-1.34049
-1.20565
-1.08996
-0.985334
-0.89836
-0.825517
-0.774089
-0.745484
-0.7365
-0.760587
-0.809712
-0.893074
-1.0115
-1.18018
-1.38983
-1.66929
-2.0229
-2.5357
-1.73503
-1.52088
-1.34247
-1.18772
-1.04884
-0.930066
-0.828672
-0.750275
-0.695966
-0.662553
-0.660368
-0.682025
-0.733913
-0.815569
-0.938009
-1.09206
-1.29793
-1.55456
-1.89376
-1.86648
-1.64742
-1.44908
-1.26913
-1.10489
-0.960498
-0.835062
-0.73317
-0.656008
-0.600793
-0.57516
-0.572709
-0.597581
-0.648624
-0.733841
-0.84518
-0.997321
-1.18747
-1.42793
-1.91021
-1.71813
-1.52257
-1.3326
-1.15315
-0.990299
-0.845997
-0.724647
-0.627988
-0.553985
-0.508093
-0.485023
-0.487103
-0.51276
-0.567617
-0.644973
-0.755606
-0.896596
-1.07287
-1.89025
-1.74534
-1.56955
-1.38248
-1.19686
-1.02207
-0.863504
-0.726275
-0.613094
-0.522956
-0.459723
-0.419191
-0.402264
-0.407058
-0.437206
-0.487218
-0.564828
-0.66754
-0.797373
-1.82432
-1.72542
-1.57873
-1.40563
-1.22341
-1.04463
-0.878004
-0.72999
-0.604566
-0.501946
-0.42502
-0.37059
-0.338532
-0.326735
-0.337198
-0.365411
-0.416696
-0.489112
-0.583549
-1.75616
-1.68632
-1.56595
-1.41029
-1.23666
-1.05922
-0.889144
-0.7344
-0.600302
-0.488343
-0.40095
-0.335816
-0.292133
-0.267627
-0.262965
-0.274326
-0.305056
-0.353606
-0.420353
-1.68265
-1.64092
-1.54367
-1.40518
-1.24192
-1.06862
-0.897956
-0.739266
-0.599114
-0.480204
-0.384893
-0.311627
-0.259184
-0.225172
-0.20921
-0.207915
-0.223038
-0.253225
-0.298533
-1.59901
-1.58124
-1.50496
-1.38333
-1.23184
-1.06534
-0.897226
-0.737892
-0.594902
-0.471988
-0.371702
-0.293089
-0.234749
-0.194228
-0.17038
-0.160094
-0.163904
-0.180525
-0.209773
-1.53048
-1.52377
-1.46193
-1.35375
-1.21266
-1.05316
-0.888786
-0.730624
-0.586933
-0.462207
-0.359271
-0.277603
-0.215742
-0.171204
-0.1423
-0.126062
-0.122129
-0.129184
-0.146829
-1.47146
-1.47284
-1.42029
-1.32149
-1.18829
-1.0347
-0.874073
-0.717902
-0.574855
-0.449917
-0.346142
-0.263264
-0.199803
-0.153241
-0.121513
-0.101716
-0.0928536
-0.093537
-0.103186
-1.41617
-1.42619
-1.38052
-1.28799
-1.16014
-1.0109
-0.853468
-0.69958
-0.558086
-0.434201
-0.331086
-0.248562
-0.185105
-0.138145
-0.105351
-0.0838389
-0.0721887
-0.068937
-0.0733657
-1.3689
-1.3846
-1.34362
-1.25472
-1.12972
-0.982965
-0.827735
-0.675974
-0.53655
-0.414674
-0.313447
-0.232592
-0.170477
-0.124438
-0.0919427
-0.0701086
-0.057243
-0.0518297
-0.053061
-1.33012
-1.34993
-1.31176
-1.22421
-1.09969
-0.953343
-0.798928
-0.648646
-0.511325
-0.391993
-0.293488
-0.215276
-0.155512
-0.11138
-0.0801788
-0.0590126
-0.0460229
-0.0396669
-0.0390891
-1.29028
-1.32116
-1.28705
-1.19988
-1.07399
-0.925987
-0.770633
-0.620623
-0.484802
-0.36793
-0.272418
-0.197329
-0.140487
-0.0988583
-0.069566
-0.0496877
-0.0372614
-0.030738
-0.0292432
-1.24682
-1.2925
-1.26491
-1.17862
-1.05062
-0.899706
-0.742208
-0.591614
-0.456895
-0.342497
-0.250267
-0.178739
-0.125303
-0.0866483
-0.0597113
-0.0415415
-0.0301201
-0.0239153
-0.0220597
-1.2101
-1.26766
-1.24696
-1.16171
-1.03095
-0.875963
-0.715114
-0.562982
-0.4288
-0.316685
-0.227808
-0.160063
-0.110306
-0.0748942
-0.0505634
-0.0343323
-0.0241553
-0.0185372
-0.0166399
-1.17658
-1.24675
-1.23337
-1.14946
-1.01571
-0.855916
-0.690773
-0.536225
-0.401934
-0.291729
-0.206038
-0.142046
-0.0960034
-0.063889
-0.0422266
-0.0279984
-0.0191443
-0.0142153
-0.012427
-1.14321
-1.22813
-1.22329
-1.14146
-1.00501
-0.840186
-0.670209
-0.512584
-0.377567
-0.268782
-0.185911
-0.125414
-0.0828946
-0.0539381
-0.0348471
-0.0225594
-0.0149938
-0.0107241
-0.0090354
-1.11079
-1.21083
-1.21493
-1.1354
-0.996303
-0.826243
-0.651156
-0.490093
-0.354029
-0.246463
-0.166225
-0.109143
-0.0701099
-0.0443054
-0.0277985
-0.0175037
-0.0112844
-0.00767315
-0.00574582
-1.08237
-1.1973
-1.21449
-1.14413
-1.01017
-0.841435
-0.665254
-0.50168
-0.362769
-0.252752
-0.170501
-0.112056
-0.0720835
-0.0456899
-0.0288101
-0.0183296
-0.0119731
-0.00818436
-0.00580242
-1.06051
-1.18607
-1.21458
-1.15511
-1.02988
-0.866437
-0.691973
-0.52706
-0.384824
-0.270674
-0.184191
-0.122059
-0.0791049
-0.0504557
-0.0319477
-0.0203927
-0.0133703
-0.00925632
-0.00686584
-1.05745
-1.18536
-1.21968
-1.16822
-1.05106
-0.893825
-0.722549
-0.557662
-0.412897
-0.29469
-0.203556
-0.136945
-0.0900682
-0.0582245
-0.0372637
-0.0239612
-0.0157822
-0.0109827
-0.00824298
-1.07582
-1.19755
-1.23082
-1.18284
-1.07163
-0.920495
-0.753524
-0.590214
-0.444296
-0.322914
-0.227433
-0.156178
-0.104883
-0.0691575
-0.0449829
-0.0292205
-0.0192955
-0.0133843
-0.00999317
-1.11242
-1.22287
-1.24974
-1.20132
-1.09396
-0.948417
-0.786408
-0.625889
-0.480067
-0.356439
-0.257058
-0.181152
-0.125052
-0.0847708
-0.0564994
-0.0373229
-0.024759
-0.0170388
-0.0125066
-1.16522
-1.25844
-1.27489
-1.22333
-1.1183
-0.977951
-0.82143
-0.664789
-0.520322
-0.395559
-0.29303
-0.212839
-0.151918
-0.106707
-0.0735908
-0.0499491
-0.0335399
-0.02293
-0.016454
-1.23243
-1.30414
-1.30834
-1.25218
-1.14838
-1.0126
-0.861531
-0.709228
-0.566864
-0.441771
-0.336761
-0.252755
-0.187268
-0.137145
-0.098807
-0.0697981
-0.0480664
-0.032894
-0.023071
-1.30071
-1.35499
-1.34794
-1.28713
-1.1842
-1.05272
-0.907168
-0.759627
-0.620075
-0.495491
-0.388808
-0.301725
-0.232369
-0.178045
-0.135043
-0.100719
-0.0725837
-0.0505606
-0.0348069
-1.37618
-1.41309
-1.39455
-1.32857
-1.22592
-1.09832
-0.958191
-0.815739
-0.679684
-0.556505
-0.449084
-0.359833
-0.287585
-0.230364
-0.184475
-0.146989
-0.113842
-0.0840291
-0.0568295
-1.46341
-1.48181
-1.4514
-1.38006
-1.27758
-1.15397
-1.01964
-0.883026
-0.751544
-0.631004
-0.524185
-0.433956
-0.359979
-0.301401
-0.255368
-0.219554
-0.188896
-0.160743
-0.131968
-1.55787
-1.55662
-1.51123
-1.43085
-1.32474
-1.20164
-1.07016
-0.937301
-0.80924
-0.690859
-0.584836
-0.493831
-0.418075
-0.357497
-0.31065
-0.276656
-0.252205
-0.234915
-0.221112
-1.66361
-1.63644
-1.57166
-1.47843
-1.36489
-1.23865
-1.10676
-0.975195
-0.849156
-0.732657
-0.62835
-0.538377
-0.463135
-0.40257
-0.355791
-0.321986
-0.299355
-0.286793
-0.282772
-1.78046
-1.72293
-1.63764
-1.53088
-1.40896
-1.2781
-1.14418
-1.01235
-0.887119
-0.771944
-0.669334
-0.581097
-0.507587
-0.448619
-0.40327
-0.370207
-0.347344
-0.332762
-0.324176
-1.88367
-1.79966
-1.69633
-1.57741
-1.44767
-1.31223
-1.17607
-1.04361
-0.918817
-0.804687
-0.703475
-0.616763
-0.544785
-0.48726
-0.443248
-0.411348
-0.389519
-0.375866
-0.368167
-1.96324
-1.86219
-1.74596
-1.61785
-1.48203
-1.34294
-1.20497
-1.072
-0.947576
-0.834345
-0.734372
-0.64905
-0.578529
-0.522462
-0.479915
-0.449429
-0.429006
-0.416717
-0.410332
-2.02529
-1.91158
-1.78562
-1.65049
-1.50997
-1.36804
-1.22863
-1.09525
-0.971125
-0.858626
-0.759685
-0.675545
-0.606291
-0.551517
-0.510295
-0.481105
-0.461984
-0.450967
-0.445825
-2.07031
-1.94716
-1.81384
-1.67352
-1.52959
-1.38564
-1.24524
-1.11159
-0.987708
-0.875773
-0.777622
-0.694391
-0.626117
-0.572351
-0.532162
-0.503975
-0.485839
-0.475749
-0.471459
-2.1013
-1.9679
-1.82886
-1.68518
-1.53928
-1.39426
-1.25338
-1.11967
-0.995994
-0.884437
-0.78678
-0.704103
-0.63642
-0.583261
-0.543701
-0.516149
-0.498672
-0.489255
-0.485649
-2.10131
-1.96791
-1.82888
-1.68521
-1.53931
-1.39429
-1.25341
-1.1197
-0.996028
-0.884472
-0.786815
-0.704138
-0.636455
-0.583296
-0.543737
-0.516186
-0.498712
-0.489297
-0.485693
-2.07032
-1.9472
-1.81389
-1.67358
-1.52966
-1.38573
-1.24533
-1.11169
-0.987806
-0.875873
-0.777723
-0.694493
-0.62622
-0.572456
-0.53227
-0.504087
-0.485958
-0.475877
-0.471598
-2.02531
-1.91164
-1.7857
-1.65059
-1.51008
-1.36817
-1.22878
-1.0954
-0.971282
-0.858786
-0.759847
-0.675708
-0.606455
-0.551683
-0.510466
-0.481282
-0.462171
-0.451166
-0.446038
-1.96327
-1.86226
-1.74606
-1.61798
-1.48218
-1.34312
-1.20516
-1.0722
-0.947782
-0.834555
-0.734584
-0.649262
-0.578742
-0.522675
-0.480132
-0.449651
-0.429238
-0.416961
-0.410592
-1.8837
-1.79974
-1.69645
-1.57756
-1.44785
-1.31244
-1.1763
-1.04385
-0.919067
-0.804941
-0.703731
-0.617017
-0.545038
-0.487512
-0.443502
-0.411606
-0.389785
-0.376144
-0.368461
-1.78049
-1.72302
-1.63777
-1.53106
-1.40916
-1.27834
-1.14444
-1.01262
-0.887404
-0.772232
-0.669622
-0.581381
-0.507867
-0.448894
-0.403543
-0.370479
-0.347618
-0.333042
-0.324464
-1.66365
-1.63654
-1.57182
-1.47865
-1.36517
-1.23898
-1.10712
-0.975584
-0.84956
-0.733068
-0.628762
-0.538784
-0.463537
-0.402966
-0.356185
-0.322375
-0.299733
-0.287145
-0.283075
-1.5579
-1.55664
-1.51128
-1.43095
-1.32489
-1.20184
-1.0704
-0.937584
-0.809546
-0.691171
-0.585141
-0.494115
-0.418326
-0.357709
-0.310823
-0.276801
-0.252362
-0.235155
-0.221544
-1.46342
-1.48189
-1.45157
-1.38032
-1.27795
-1.15444
-1.02019
-0.883638
-0.752191
-0.631661
-0.524831
-0.434576
-0.360564
-0.301956
-0.255908
-0.220108
-0.189505
-0.161451
-0.132807
-1.37618
-1.41312
-1.39463
-1.32873
-1.22618
-1.09866
-0.958592
-0.816185
-0.680151
-0.55697
-0.449527
-0.360243
-0.287959
-0.230706
-0.184799
-0.147309
-0.114157
-0.0843207
-0.0570495
-1.3007
-1.355
-1.34801
-1.28728
-1.18444
-1.05304
-0.907555
-0.760054
-0.620515
-0.495918
-0.389206
-0.302083
-0.232687
-0.178328
-0.1353
-0.100954
-0.0727933
-0.0507295
-0.0349231
-1.23242
-1.30414
-1.30839
-1.25231
-1.1486
-1.0129
-0.861892
-0.709622
-0.567262
-0.44215
-0.337104
-0.253055
-0.187525
-0.137365
-0.0989963
-0.0699599
-0.0481995
-0.0329947
-0.0231365
-1.16521
-1.25843
-1.27493
-1.22344
-1.11851
-0.97823
-0.821763
-0.665148
-0.520677
-0.395889
-0.293321
-0.213086
-0.152122
-0.106876
-0.0737283
-0.0500594
-0.0336251
-0.0229916
-0.0164931
-1.11241
-1.22285
-1.24977
-1.20142
-1.09414
-0.948669
-0.786709
-0.626209
-0.480378
-0.356721
-0.2573
-0.181352
-0.125213
-0.0848981
-0.0565987
-0.0373986
-0.0248146
-0.0170778
-0.0125314
-1.0758
-1.19754
-1.23084
-1.18293
-1.07179
-0.92072
-0.75379
-0.590492
-0.444562
-0.32315
-0.227631
-0.156337
-0.105007
-0.069253
-0.0450546
-0.0292731
-0.0193329
-0.0134103
-0.0100104
-1.05743
-1.18534
-1.2197
-1.1683
-1.0512
-0.894022
-0.722778
-0.557897
-0.413118
-0.294883
-0.203715
-0.13707
-0.0901645
-0.0582966
-0.0373164
-0.0239989
-0.0158086
-0.0110015
-0.00825663
-1.0605
-1.18605
-1.21459
-1.15516
-1.02999
-0.866585
-0.692146
-0.527236
-0.384988
-0.270816
-0.184306
-0.122149
-0.079173
-0.0505059
-0.0319836
-0.0204178
-0.0133878
-0.0092691
-0.00687703
-1.08238
-1.19731
-1.21451
-1.14417
-1.01022
-0.841498
-0.665326
-0.501753
-0.362838
-0.252814
-0.170554
-0.1121
-0.0721191
-0.0457179
-0.0288316
-0.0183461
-0.0119857
-0.00819386
-0.00580789
-1.11081
-1.21084
-1.21492
-1.13538
-0.996265
-0.826191
-0.651098
-0.490034
-0.353975
-0.246417
-0.166187
-0.109115
-0.0700885
-0.04429
-0.0277874
-0.0174959
-0.0112787
-0.00766863
-0.00574015
-1.14322
-1.22814
-1.22329
-1.14146
-1.00501
-0.840183
-0.670207
-0.512584
-0.37757
-0.268786
-0.185915
-0.125418
-0.0828978
-0.0539404
-0.0348487
-0.0225604
-0.0149945
-0.0107246
-0.00903518
-1.17659
-1.24675
-1.23337
-1.14945
-1.0157
-0.85591
-0.690768
-0.536223
-0.401934
-0.29173
-0.20604
-0.142048
-0.0960049
-0.0638901
-0.0422275
-0.027999
-0.0191448
-0.0142159
-0.0124273
-1.21011
-1.26767
-1.24696
-1.1617
-1.03094
-0.875959
-0.715111
-0.562981
-0.4288
-0.316686
-0.227809
-0.160064
-0.110307
-0.0748948
-0.0505639
-0.0343329
-0.0241561
-0.0185381
-0.0166407
-1.24683
-1.2925
-1.26491
-1.17862
-1.05062
-0.899703
-0.742206
-0.591614
-0.456895
-0.342497
-0.250267
-0.178739
-0.125303
-0.0866485
-0.0597116
-0.0415421
-0.0301212
-0.0239169
-0.0220613
-1.29029
-1.32116
-1.28705
-1.19988
-1.07399
-0.925986
-0.770633
-0.620623
-0.484801
-0.367929
-0.272417
-0.197328
-0.140486
-0.0988581
-0.0695662
-0.0496885
-0.0372631
-0.0307406
-0.0292458
-1.33013
-1.34993
-1.31176
-1.22421
-1.09968
-0.953343
-0.798928
-0.648646
-0.511324
-0.391992
-0.293487
-0.215275
-0.155511
-0.111379
-0.0801788
-0.0590138
-0.0460255
-0.0396707
-0.0390927
-1.3689
-1.3846
-1.34361
-1.25472
-1.12972
-0.982966
-0.827736
-0.675974
-0.536549
-0.414673
-0.313445
-0.23259
-0.170476
-0.124437
-0.0919429
-0.0701103
-0.0572466
-0.0518348
-0.0530657
-1.41617
-1.42619
-1.38052
-1.28799
-1.16014
-1.0109
-0.853469
-0.69958
-0.558085
-0.434198
-0.331083
-0.248559
-0.185103
-0.138144
-0.105351
-0.0838414
-0.0721934
-0.0689434
-0.0733711
-1.47146
-1.47284
-1.42029
-1.32149
-1.1883
-1.03471
-0.874074
-0.717901
-0.574853
-0.449914
-0.346138
-0.26326
-0.1998
-0.15324
-0.121514
-0.101719
-0.0928593
-0.0935439
-0.103191
-1.53047
-1.52377
-1.46193
-1.35376
-1.21266
-1.05317
-0.888788
-0.730624
-0.58693
-0.462203
-0.359267
-0.277599
-0.21574
-0.171203
-0.142301
-0.126066
-0.122135
-0.129191
-0.146833
-1.59901
-1.58124
-1.50496
-1.38334
-1.23184
-1.06534
-0.897227
-0.737891
-0.594899
-0.471984
-0.371697
-0.293085
-0.234746
-0.194228
-0.170382
-0.160098
-0.163909
-0.180528
-0.209773
-1.68265
-1.64092
-1.54367
-1.40518
-1.24193
-1.06862
-0.897955
-0.739264
-0.59911
-0.480199
-0.384888
-0.311623
-0.259182
-0.225172
-0.209212
-0.207919
-0.22304
-0.253224
-0.298529
-1.75615
-1.68632
-1.56595
-1.4103
-1.23666
-1.05922
-0.889143
-0.734397
-0.600298
-0.488338
-0.400945
-0.335813
-0.292132
-0.267629
-0.262967
-0.274328
-0.305054
-0.353598
-0.420343
-1.82432
-1.72542
-1.57874
-1.40563
-1.22341
-1.04463
-0.878002
-0.729987
-0.604561
-0.501942
-0.425017
-0.370588
-0.338532
-0.326737
-0.3372
-0.365409
-0.416688
-0.489097
-0.583537
-1.89025
-1.74535
-1.56956
-1.38248
-1.19686
-1.02207
-0.863501
-0.726272
-0.613091
-0.522954
-0.459721
-0.419191
-0.402266
-0.40706
-0.437206
-0.487213
-0.564815
-0.667522
-0.797361
-1.91021
-1.71814
-1.52257
-1.3326
-1.15315
-0.990297
-0.845994
-0.724645
-0.627987
-0.553984
-0.508094
-0.485026
-0.487106
-0.512762
-0.567615
-0.644964
-0.75559
-0.896576
-1.07287
-1.86649
-1.64742
-1.44908
-1.26913
-1.10489
-0.960497
-0.835061
-0.73317
-0.656009
-0.600795
-0.575163
-0.572713
-0.597584
-0.648624
-0.733837
-0.845169
-0.997306
-1.18745
-1.42793
-1.73503
-1.52088
-1.34247
-1.18772
-1.04884
-0.930066
-0.828673
-0.750278
-0.695969
-0.662558
-0.660374
-0.68203
-0.733916
-0.815568
-0.938003
-1.09205
-1.29792
-1.55455
-1.89377
-1.50588
-1.34049
-1.20565
-1.08996
-0.985336
-0.898363
-0.825521
-0.774093
-0.74549
-0.736506
-0.760594
-0.809717
-0.893076
-1.0115
-1.18017
-1.38982
-1.66928
-2.0229
-2.53572
-1.19193
-1.11354
-1.04024
-0.973849
-0.910482
-0.860349
-0.819873
-0.798251
-0.797545
-0.814973
-0.867465
-0.946988
-1.06641
-1.2291
-1.45678
-1.7426
-2.13053
-2.63804
-3.49999
-0.830536
-0.852287
-0.847457
-0.835478
-0.817959
-0.808333
-0.803109
-0.813174
-0.841409
-0.885923
-0.96744
-1.07892
-1.23829
-1.45406
-1.759
-2.15476
-2.71417
-3.48498
-5.13113
-0.470695
-0.571898
-0.629229
-0.671134
-0.701446
-0.734493
-0.766199
-0.808459
-0.864785
-0.934667
-1.04283
-1.18428
-1.38426
-1.66133
-2.06796
-2.62811
-3.47398
-4.72448
-8.27505
-0.155893
-0.286752
-0.388594
-0.479136
-0.557034
-0.633633
-0.70255
-0.775899
-0.856679
-0.946479
-1.07384
-1.23579
-1.46904
-1.81439
-2.37199
-3.26146
-4.87507
-7.86969
-18.5879
)
;

boundaryField
{
    up
    {
        type            calculated;
        value           nonuniform List<scalar> 
84
(
-16.846
-9.12365
-5.58527
-3.77358
-2.71878
-2.02548
-1.52646
-1.14747
-0.853299
-0.624724
-0.449715
-0.318705
-0.223113
-0.15525
-0.108227
-0.0761977
-0.0545144
-0.0397224
-0.0294124
-0.0219867
-0.0164542
-0.0121933
-0.00870439
-0.00501967
-0.00481033
-0.00624008
-0.00752328
-0.00907837
-0.0112493
-0.0146106
-0.0201507
-0.0294572
-0.0473453
-0.126027
-0.222659
-0.283673
-0.321208
-0.365663
-0.408425
-0.444483
-0.470508
-0.48504
-0.485085
-0.470653
-0.444703
-0.408692
-0.365965
-0.321501
-0.283931
-0.223121
-0.126988
-0.0475556
-0.0295513
-0.0202019
-0.0146406
-0.0112684
-0.00909204
-0.00753483
-0.00625289
-0.00481618
-0.00501276
-0.0087035
-0.0121933
-0.0164549
-0.0219881
-0.0294146
-0.0397256
-0.0545183
-0.0762019
-0.108231
-0.155251
-0.22311
-0.318698
-0.449706
-0.624714
-0.853294
-1.14747
-1.52647
-2.0255
-2.7188
-3.7736
-5.58527
-9.12364
-16.846
)
;
    }
    low
    {
        type            calculated;
        value           nonuniform List<scalar> 
84
(
-0.167596
-0.492993
-0.877887
-1.2697
-1.61066
-1.85586
-1.98833
-2.02123
-1.97808
-1.88454
-1.80325
-1.71777
-1.61724
-1.54025
-1.47685
-1.41438
-1.36052
-1.32
-1.27531
-1.22031
-1.17403
-1.13236
-1.08903
-1.04713
-1.00315
-0.973762
-0.971454
-1.00024
-1.05072
-1.12063
-1.20294
-1.28103
-1.36705
-1.46583
-1.56939
-1.68689
-1.81967
-1.93216
-2.01655
-2.08256
-2.13082
-2.1671
-2.16711
-2.13082
-2.08257
-2.01657
-1.93218
-1.81969
-1.68691
-1.56938
-1.46584
-1.36703
-1.28102
-1.20293
-1.12062
-1.05071
-1.00023
-0.971448
-0.973759
-1.00315
-1.04715
-1.08903
-1.13236
-1.17403
-1.22031
-1.27531
-1.32001
-1.36052
-1.41438
-1.47685
-1.54025
-1.61723
-1.71776
-1.80324
-1.88453
-1.97807
-2.02123
-1.98833
-1.85587
-1.61067
-1.26971
-0.877894
-0.492998
-0.167598
)
;
    }
    left
    {
        type            calculated;
        value           nonuniform List<scalar> 
19
(
-0.153177
-0.282129
-0.386563
-0.480838
-0.562777
-0.643167
-0.715614
-0.792776
-0.877593
-0.973225
-1.10939
-1.28403
-1.53884
-1.92262
-2.54752
-3.56044
-5.41769
-8.90291
-17.4695
)
;
    }
    right
    {
        type            calculated;
        value           nonuniform List<scalar> 
19
(
-0.153178
-0.282129
-0.386562
-0.480836
-0.562775
-0.643167
-0.715614
-0.792778
-0.877596
-0.973229
-1.10939
-1.28403
-1.53884
-1.92261
-2.54751
-3.56043
-5.41768
-8.90291
-17.4695
)
;
    }
    frontAndBackPlanes
    {
        type            empty;
    }
}


// ************************************************************************* //
