/*--------------------------------*- C++ -*----------------------------------*\
  =========                 |
  \\      /  F ield         | OpenFOAM: The Open Source CFD Toolbox
   \\    /   O peration     | Website:  https://openfoam.org
    \\  /    A nd           | Version:  7
     \\/     M anipulation  |
\*---------------------------------------------------------------------------*/
FoamFile
{
    version     2.0;
    format      ascii;
    class       volScalarField;
    location    "0.008";
    object      gradTz;
}
// * * * * * * * * * * * * * * * * * * * * * * * * * * * * * * * * * * * * * //

dimensions      [0 -1 0 1 0 0 0];

internalField   nonuniform List<scalar> 
1596
(
-4.81846e-16
-1.43816e-16
2.22932e-16
6.9682e-17
-3.47943e-16
0
-1.09814e-16
-1.09163e-16
-7.47588e-17
-7.90676e-17
3.22324e-19
-8.1163e-17
4.83954e-16
-8.68952e-17
3.45753e-16
3.18355e-16
1.90651e-16
3.65612e-16
0
3.8208e-16
0
2.56399e-16
-6.54868e-18
-1.53119e-17
4.22868e-17
1.7493e-16
4.98848e-17
6.20926e-17
-3.13305e-17
6.36983e-17
6.63692e-19
-7.87884e-17
-4.79113e-17
-2.65678e-16
-2.82217e-16
-2.87556e-16
2.15254e-16
0
-9.74929e-17
0
-8.87412e-17
7.56833e-18
3.68327e-17
-3.9445e-17
7.35579e-18
-4.82587e-20
1.41567e-20
9.47263e-20
2.8042e-18
0
4.07014e-17
7.77851e-17
-6.66025e-18
8.37607e-18
1.56127e-17
7.15576e-17
0
2.96424e-16
-2.20272e-17
2.19467e-17
0
-1.10851e-17
-1.26852e-17
1.29469e-17
-3.3969e-18
0
0
-1.13345e-17
1.4961e-18
0
-1.43802e-17
-7.11969e-18
6.10565e-18
-2.44878e-17
-8.87089e-19
0
6.50996e-17
5.66549e-17
-1.09442e-17
0
-5.46889e-19
-3.25913e-18
0
3.85264e-18
-1.75203e-19
-1.76618e-19
-2.79458e-18
7.53374e-19
1.24381e-18
2.49252e-19
3.7168e-18
-6.46998e-18
1.93412e-19
2.95421e-18
-3.28128e-18
-1.69053e-17
-7.00842e-17
2.30515e-17
-7.38776e-18
-9.26657e-20
-6.45226e-19
1.18177e-20
-1.18569e-20
-2.0623e-19
0
-7.14197e-19
-9.8431e-19
-1.06836e-18
2.82903e-19
1.37115e-18
-9.12861e-21
-4.9788e-19
-2.99642e-18
4.31087e-18
1.41281e-16
-8.3266e-17
3.27764e-17
3.03266e-18
0
5.36845e-19
1.24027e-19
-3.46265e-20
2.32707e-19
-2.01462e-20
-2.29955e-19
-5.86297e-22
-4.4976e-20
-2.81032e-19
-7.13419e-20
8.19273e-20
5.02262e-19
-1.09363e-20
-9.87206e-19
7.22729e-17
1.61341e-16
-6.28339e-17
0
0
-6.967e-19
0
0
0
1.20502e-20
0
0
5.17676e-20
-4.8269e-22
5.93642e-20
-7.8801e-20
0
3.34083e-20
6.5125e-20
0
-6.86902e-17
1.02287e-16
0
0
7.17504e-19
0
-1.39752e-20
1.39611e-20
-1.22654e-20
2.12391e-21
-2.13945e-21
0
2.87932e-21
1.53067e-20
0
-3.50414e-21
-3.38681e-20
-6.25253e-20
4.8642e-16
-1.68596e-16
0
-8.46065e-18
8.36597e-18
0
2.55405e-19
0
0
0
5.66135e-22
-5.68849e-22
0
-2.59334e-21
-2.5935e-22
0
2.82802e-21
8.38699e-22
0
-1.19816e-16
0
0
9.33101e-18
-1.18823e-17
1.95053e-18
4.39339e-19
-1.93562e-20
1.49909e-20
1.88832e-21
-9.5508e-22
-2.40937e-22
0
1.20646e-22
-5.25537e-23
5.33425e-23
5.61524e-22
-7.58559e-22
-5.10418e-22
-2.12985e-17
-6.12958e-17
2.30449e-17
2.58554e-17
-6.98948e-18
-2.91968e-18
0
0
0
3.2793e-21
2.33353e-22
2.46049e-22
-6.19396e-23
-1.18488e-22
-1.4836e-23
-1.9239e-23
9.20219e-24
-1.76221e-23
4.65195e-22
-5.97346e-17
8.53392e-17
-7.96399e-17
-2.58702e-17
1.49125e-17
8.26933e-19
-1.02118e-18
2.52026e-19
-5.85837e-20
9.50689e-21
1.14631e-21
-1.22391e-22
-1.40437e-23
-5.57046e-24
2.98695e-23
0
-1.07937e-24
1.49834e-23
-1.13839e-23
-7.30621e-16
2.29069e-16
-4.9107e-19
-2.51996e-18
5.16063e-18
8.08461e-19
-1.11524e-18
-7.60376e-20
1.72031e-20
-3.71861e-21
-7.87131e-22
0
-6.09792e-23
-1.09313e-23
-2.74209e-24
-8.70089e-25
1.57406e-25
-1.54189e-24
9.34609e-24
1.16061e-16
-5.31979e-17
-8.7449e-19
-7.31957e-18
-4.84315e-18
3.29506e-18
2.34426e-20
7.40986e-20
-1.67495e-20
6.93013e-21
5.4123e-22
2.22677e-22
6.30595e-23
0
4.05137e-24
9.07757e-25
0
2.34605e-25
1.30455e-24
0
5.16081e-17
6.0897e-18
-2.5548e-17
4.47463e-18
-3.63423e-18
9.27077e-19
3.81358e-20
-2.92037e-20
-1.15954e-20
1.89218e-22
-1.88284e-22
-5.25402e-23
4.86109e-24
-9.96193e-25
-7.44022e-25
6.65062e-26
-1.91259e-26
2.01018e-25
-1.04058e-16
1.28798e-16
-1.09287e-16
1.05482e-17
0
0
-3.57863e-20
1.31139e-19
-6.72068e-21
8.70537e-21
0
0
2.89025e-23
-1.06896e-23
-9.72276e-25
2.56141e-25
-5.71916e-26
1.14575e-26
0
5.543e-17
9.77548e-17
-1.58341e-17
-5.72393e-18
-1.67456e-18
9.13901e-19
3.28207e-19
0
-4.94583e-21
1.44145e-21
2.95009e-22
-5.85686e-23
1.15548e-23
0
5.22997e-25
2.64399e-25
0
0
0
-5.39644e-17
-1.38086e-18
-2.12176e-17
-2.10849e-17
9.62149e-19
2.99363e-19
0
0
3.47037e-21
-2.50933e-21
-2.85338e-22
5.66465e-23
-1.11744e-23
0
-1.02993e-25
6.6812e-26
0
-2.53976e-27
-5.33729e-28
-3.38767e-17
1.29229e-16
-6.66493e-17
-4.00275e-18
3.02268e-18
-1.70654e-19
3.75077e-20
0
-1.57923e-21
4.70387e-22
0
0
1.55562e-24
-1.55742e-24
2.88549e-26
-5.28046e-26
5.9891e-27
1.30215e-27
3.87834e-28
3.91523e-17
-1.41153e-17
2.1386e-17
-1.14301e-17
-5.28423e-19
1.12856e-19
1.54363e-19
4.95562e-21
1.51109e-21
0
2.49325e-23
-2.34141e-23
4.34481e-24
-8.49315e-25
7.56924e-26
-4.56243e-26
-3.16137e-27
1.52798e-27
1.12139e-28
6.16464e-17
-8.37739e-17
0
2.29013e-18
-1.76087e-18
-1.1223e-19
-1.04559e-21
-2.71195e-20
0
-2.39912e-23
-7.46376e-23
-5.8342e-24
1.4935e-24
-3.33544e-25
-7.31554e-26
1.39588e-26
0
2.56955e-28
-1.08886e-28
2.43419e-16
-1.0334e-17
9.8015e-18
-7.09338e-18
2.29225e-19
-2.55225e-19
-7.02477e-20
-1.24614e-21
1.4639e-21
-1.2749e-22
-1.51743e-23
7.93724e-24
-1.16951e-24
-1.36108e-25
0
0
0
-2.55335e-28
5.49996e-30
-1.10734e-16
8.87917e-17
-3.364e-19
4.51648e-19
1.17427e-19
-4.35173e-20
2.40407e-20
-4.2321e-21
7.74063e-22
-1.73576e-23
2.55056e-23
7.10318e-25
-8.07702e-26
-5.3476e-27
3.04394e-27
-6.51255e-28
0
0
0
0
0
2.86998e-18
-4.58087e-18
-1.12824e-18
0
0
-4.09203e-22
-1.77527e-22
2.36464e-23
0
-8.95841e-25
1.56182e-25
-8.60022e-26
7.2647e-26
-2.28794e-27
2.2651e-27
5.69647e-29
0
-1.92746e-17
1.95119e-17
0
-4.77721e-19
1.64939e-19
9.76096e-20
0
4.1311e-22
2.38415e-23
-1.95891e-22
0
-6.48191e-25
1.32064e-25
2.76654e-26
-5.56162e-27
2.88467e-27
0
-1.98588e-28
0
-1.01821e-17
-2.12305e-19
1.93832e-19
4.90846e-19
-3.01091e-19
0
-3.47853e-21
0
2.81391e-22
2.06399e-23
0
1.83907e-24
-1.00731e-24
1.21603e-25
1.07068e-26
1.33377e-26
5.86192e-27
6.44602e-28
-5.46934e-28
0
1.09524e-17
-1.88682e-18
2.02079e-18
1.97814e-19
0
6.21517e-21
-3.62774e-21
-1.61923e-22
2.73733e-23
-3.28422e-23
-9.29688e-25
0
0
9.18662e-27
0
0
1.48975e-27
0
-1.03106e-16
8.94987e-17
0
5.95721e-19
1.53064e-19
-1.7369e-21
1.42731e-20
-3.23155e-22
-1.35085e-21
-2.87287e-22
4.49232e-23
-6.59863e-24
0
1.57242e-26
0
0
0
-8.12341e-27
7.2259e-27
-4.34598e-17
1.60627e-17
1.30673e-17
-8.41061e-18
5.55946e-19
1.22954e-19
-1.35591e-20
2.45137e-21
8.06013e-22
9.38302e-23
-1.41245e-22
0
-9.67301e-26
4.5769e-26
2.04151e-27
-6.37412e-26
6.20065e-26
-9.1702e-27
2.72691e-26
-2.21355e-16
7.63016e-17
-6.19417e-17
2.54687e-18
5.98037e-19
-3.47429e-19
8.96066e-20
-7.90519e-21
0
-4.22049e-22
4.7938e-23
1.04448e-23
1.509e-24
-3.51756e-25
4.18696e-25
1.18144e-25
0
-1.68923e-26
2.24475e-26
-2.36228e-16
-2.31701e-17
-1.23766e-17
9.7741e-18
-1.91315e-18
4.81588e-19
-1.70362e-19
2.13168e-20
-3.21955e-21
-1.52126e-21
-1.3463e-22
1.28547e-22
4.9659e-24
-1.2835e-24
1.37785e-24
2.01085e-25
-1.63303e-25
0
-2.06719e-26
2.55414e-16
-2.99965e-17
0
0
-2.2851e-18
2.83497e-18
-2.73522e-19
-4.74937e-21
1.50997e-20
-1.65733e-21
0
0
-7.26124e-24
0
2.53504e-24
-6.51749e-24
4.02389e-24
0
-5.81692e-27
6.51989e-17
6.69284e-17
0
-6.46521e-18
-9.43032e-19
8.26441e-19
-2.68962e-19
1.97799e-20
-3.13787e-20
6.40173e-22
0
0
1.80995e-22
0
0
3.60406e-24
1.37317e-24
0
0
4.66292e-16
-1.2087e-16
-1.17847e-16
-1.32497e-17
1.98002e-17
1.34895e-18
2.60792e-19
0
-1.02053e-20
5.01634e-21
4.72621e-21
-9.42797e-22
-1.58825e-22
1.03275e-22
-1.09853e-22
-3.96231e-24
0
0
0
3.63417e-17
-1.38138e-16
1.26549e-16
-4.18894e-18
-1.04965e-17
1.14794e-17
-3.20164e-18
0
0
3.92255e-20
-2.31513e-20
0
-3.50634e-22
7.77981e-22
-9.76567e-25
4.90821e-23
7.20577e-24
2.80143e-25
5.65236e-25
0
0
0
2.88718e-17
-2.09487e-17
3.61281e-18
-4.50399e-18
6.43342e-19
0
-1.88377e-20
8.27755e-21
-8.46015e-21
-3.12985e-22
5.04712e-23
-4.0408e-23
-2.27271e-24
-1.59168e-23
-3.32822e-24
-1.41844e-24
2.54887e-16
-3.60378e-16
1.25191e-16
0
3.40304e-18
-5.25433e-18
9.89763e-19
-7.35997e-19
0
-2.05407e-20
3.18733e-20
0
0
6.48893e-23
0
-4.27549e-23
2.46864e-23
-9.89606e-26
2.64724e-24
3.67201e-16
0
-3.10712e-17
3.34786e-17
-4.59952e-18
7.846e-18
-2.2044e-18
-2.9932e-19
3.02446e-19
-7.59078e-21
0
0
3.91799e-22
-2.38925e-22
-7.94439e-23
1.23276e-22
-1.92483e-23
4.50034e-24
0
2.04203e-16
6.5722e-17
-3.07211e-17
-3.31348e-17
-1.04327e-18
-2.57338e-18
1.46907e-18
9.04266e-19
-1.17022e-20
7.73332e-21
0
0
-4.01372e-22
0
1.07499e-22
-1.14999e-22
0
5.90778e-24
-1.44343e-24
-1.07447e-16
-3.32313e-17
3.17151e-17
-1.27291e-18
-2.7543e-19
3.31188e-19
0
-1.66206e-20
7.84319e-20
-6.52176e-20
0
1.78284e-21
-1.14251e-21
-7.43371e-22
-2.44612e-23
-1.1408e-23
0
-4.79226e-24
0
3.05208e-17
-4.7079e-17
6.99989e-18
8.17827e-18
1.83478e-18
-1.68e-18
-2.43639e-19
2.63268e-19
-1.72376e-20
1.5262e-20
-2.45907e-21
2.53492e-21
0
9.05703e-25
-1.22175e-23
5.07822e-23
-9.58724e-26
0
0
3.05223e-17
-3.04079e-17
-8.12571e-18
7.53354e-18
3.11674e-18
-3.13514e-18
-1.21843e-19
1.22504e-19
-1.74408e-20
1.75968e-20
-2.45977e-21
3.49068e-21
-8.00707e-22
-2.02378e-22
-1.78793e-23
1.09805e-23
9.15024e-24
1.55461e-24
-1.09377e-24
0
-5.50507e-18
1.34745e-17
-1.56145e-17
3.07425e-18
-2.87156e-18
0
1.78996e-19
-1.69462e-19
0
4.64262e-21
-5.39954e-21
-7.09997e-22
7.44122e-22
4.30297e-23
0
0
-4.80075e-24
1.56011e-24
1.21028e-16
-1.80705e-16
1.05563e-16
-4.86883e-17
1.32278e-17
-2.15882e-18
2.20896e-18
5.88942e-20
-7.29044e-20
6.19944e-20
0
-3.55349e-21
3.22523e-21
-1.60085e-22
-4.21476e-23
3.03826e-23
1.46273e-23
4.6606e-24
-1.50742e-24
4.05454e-16
0
-3.64832e-17
2.87338e-17
1.03184e-18
-2.61163e-18
3.18606e-18
-1.18608e-18
2.84186e-19
-1.90975e-20
1.95479e-20
1.02842e-21
6.22702e-22
1.55925e-22
-4.90497e-23
-1.18831e-23
-3.34101e-23
0
1.38462e-24
2.17171e-16
-2.44871e-16
0
4.698e-18
7.09897e-18
-5.96764e-18
2.57938e-19
9.09913e-20
1.82699e-20
1.06899e-20
0
0
-8.55261e-22
9.99171e-22
-2.35007e-22
-2.26262e-23
2.47719e-23
1.00165e-24
-2.44163e-24
1.45834e-16
2.2039e-16
-9.89228e-18
-2.46088e-17
2.26818e-17
6.93685e-19
-2.52439e-19
-8.88714e-20
7.4541e-20
-8.55237e-20
8.30019e-21
-8.48317e-21
5.20082e-23
-3.97467e-22
1.07811e-22
-7.1196e-23
0
0
7.46356e-25
0
3.97514e-17
-4.50546e-17
5.43814e-17
-8.84603e-18
8.82496e-18
0
1.84913e-19
-1.8576e-19
-1.91823e-20
2.32273e-20
0
6.53325e-22
-7.81133e-22
-3.86442e-23
0
-7.21411e-25
-2.27444e-25
-4.55256e-25
-6.39362e-16
2.30258e-16
0
-1.98292e-17
1.98272e-17
2.09672e-18
-1.28543e-18
8.01164e-20
0
-3.83908e-22
-5.43446e-22
-9.46875e-22
-1.5986e-22
1.04073e-22
-1.10664e-22
0
1.11339e-24
9.11808e-25
-2.70321e-25
3.24939e-16
-2.6473e-16
0
5.28098e-18
1.8142e-18
-8.30106e-19
0
-8.39626e-20
-1.30801e-20
0
-1.2915e-21
0
1.82495e-22
0
0
-7.88347e-26
-3.86813e-24
3.15556e-24
0
-1.39291e-18
3.00279e-17
-1.10299e-17
8.28205e-19
-9.30867e-18
1.85981e-18
0
4.77221e-21
7.12956e-21
0
-7.90813e-22
1.77253e-22
-1.86214e-22
1.00811e-25
0
-3.32333e-25
0
0
0
-1.45477e-18
0
1.01944e-17
0
-1.18131e-18
1.20009e-18
0
1.14034e-20
-1.94087e-21
3.21402e-21
-7.90815e-22
1.13849e-23
-1.57365e-24
-1.51815e-24
1.53158e-24
3.59876e-25
0
-2.45137e-26
0
8.72263e-17
-1.56258e-16
0
-1.93614e-18
5.08128e-19
0
0
-1.5897e-20
0
-4.24622e-22
-4.81973e-23
-1.04637e-23
1.44279e-24
0
-3.08291e-26
0
0
9.99173e-26
-1.16191e-25
0
6.27138e-17
-4.52252e-17
1.79242e-18
-4.70529e-19
-2.5652e-20
3.96734e-20
7.42787e-21
-1.13057e-21
3.28159e-22
3.02026e-23
-5.56477e-25
1.73144e-24
6.71236e-26
-4.75234e-27
4.77527e-26
-1.45531e-26
2.21183e-26
-4.77591e-27
-3.30459e-16
9.11459e-17
0
0
6.96996e-20
-7.08766e-20
-3.21726e-21
-2.90994e-21
2.18449e-22
3.23321e-23
-2.49787e-23
-6.26507e-25
-5.84611e-26
-3.73484e-27
0
9.83869e-27
1.3339e-26
2.94408e-27
4.31675e-27
0
3.03816e-17
-1.20754e-17
1.91711e-18
1.46039e-19
-2.1623e-20
-6.3373e-21
-1.0347e-21
-4.6895e-22
2.23167e-23
1.17933e-24
3.06329e-24
5.46683e-26
-4.27146e-26
4.53389e-26
7.07118e-27
-1.57234e-26
-2.71929e-27
0
-2.05921e-17
-3.00331e-17
2.49754e-18
4.91447e-19
-3.2494e-19
1.33167e-19
3.12548e-21
-3.19472e-21
1.53975e-22
-2.11796e-23
0
0
-1.55616e-25
2.02729e-25
-4.20486e-26
7.26022e-27
-8.87723e-27
7.46673e-28
-1.10604e-27
2.99787e-17
9.31874e-18
-2.14297e-18
4.75825e-20
-4.4485e-19
-2.98964e-20
0
0
0
0
0
0
1.44305e-25
-7.12035e-26
7.53054e-26
-2.55933e-27
3.45541e-27
5.71389e-28
-3.74288e-28
9.69186e-17
-2.18952e-17
2.42645e-17
-5.64029e-19
1.04601e-18
-3.64748e-20
4.06871e-20
-6.54144e-21
-1.73489e-22
1.77472e-22
0
8.90548e-25
-1.40978e-25
5.95355e-26
-5.13026e-26
-1.09652e-26
-3.12932e-27
3.24808e-28
1.5223e-28
1.6784e-16
9.77515e-18
0
-1.01749e-18
-1.11534e-19
1.46877e-19
-1.24653e-20
-3.76516e-21
6.18702e-22
-4.71435e-23
0
-7.04969e-25
0
-4.67741e-26
1.36921e-26
-2.56888e-27
-3.34353e-28
3.87634e-29
0
2.09659e-16
-1.03334e-17
1.03407e-17
-7.28026e-18
-1.75801e-19
1.07822e-19
-5.99659e-20
1.58522e-21
7.15068e-22
-8.45414e-23
3.89582e-23
0
0
1.1779e-25
7.15061e-27
4.92834e-29
1.08827e-27
-1.91069e-28
0
-1.09287e-18
0
-3.36169e-18
5.21643e-18
-2.5817e-18
-2.62669e-19
1.18622e-19
-7.3321e-21
4.89332e-21
2.70937e-22
-4.53239e-23
1.00139e-23
-2.40206e-24
2.15272e-25
1.50235e-25
-6.03604e-27
-2.6019e-27
8.36468e-28
-1.20771e-28
3.85797e-16
-9.22728e-17
1.77707e-18
-1.36428e-17
5.2843e-19
-2.12096e-19
1.40728e-19
0
0
-4.62021e-23
-9.98575e-23
-4.55069e-24
0
-4.02677e-25
-7.52926e-26
1.43262e-26
-2.87395e-28
9.31159e-28
3.49391e-28
0
-5.15972e-17
2.46604e-17
-6.62053e-18
-4.8585e-18
1.70661e-19
-5.32554e-20
4.14211e-20
1.11423e-20
0
0
2.82501e-24
8.19658e-24
0
-2.35943e-25
-3.46747e-26
4.6065e-27
-6.65685e-29
-7.58253e-28
0
-1.4706e-17
3.36159e-17
1.74475e-17
1.11949e-18
-1.64144e-18
3.23371e-19
-1.65448e-20
1.294e-20
-1.41345e-21
0
0
0
-2.21484e-24
-6.97136e-26
-1.03652e-25
0
-2.46576e-28
7.80824e-28
-2.41463e-16
1.82183e-16
3.97149e-17
-4.34404e-17
2.88943e-18
-2.03365e-18
0
2.29552e-20
-2.41106e-20
4.3636e-21
-4.10372e-22
8.30864e-23
1.67103e-23
2.29064e-24
4.63016e-25
0
0
0
0
3.92122e-16
-9.30342e-17
0
0
-1.74611e-18
9.42539e-19
-5.36547e-19
-3.0597e-20
3.02521e-20
2.06611e-21
9.75373e-22
-8.62102e-23
1.16827e-23
-1.32085e-24
2.56281e-25
-3.38462e-26
6.11389e-26
-1.14401e-27
1.16528e-27
-3.52287e-16
2.09081e-16
2.60272e-17
-1.88278e-17
4.27554e-18
-2.42333e-18
-2.7893e-19
-6.61523e-20
0
-5.02239e-21
1.23168e-21
1.40195e-22
-2.38605e-23
-4.88699e-24
-3.59626e-25
8.53905e-26
-1.89983e-26
0
0
-1.15116e-16
0
2.14244e-17
3.91846e-19
0
0
2.87726e-19
6.82598e-20
0
3.31647e-21
0
-1.91388e-22
1.29799e-23
7.44723e-24
0
9.46768e-25
-3.72945e-26
3.80454e-26
0
3.16324e-16
0
3.05126e-17
-3.93059e-17
1.449e-17
2.09609e-18
-4.69713e-19
0
6.75669e-21
1.06071e-20
0
-2.18613e-22
9.61356e-23
-2.67964e-23
-2.76208e-24
-6.81197e-25
-3.05381e-25
-2.04171e-25
-1.11781e-23
-1.81154e-16
2.34707e-16
-2.28541e-17
-2.33989e-17
-4.76935e-18
-1.31771e-18
-6.56097e-19
-4.8274e-20
2.98823e-20
1.1485e-21
-1.14635e-21
3.47814e-22
-5.25363e-23
4.45817e-23
-5.55642e-24
0
1.57104e-23
-1.19181e-23
1.03659e-23
6.50536e-16
-3.42842e-17
-1.24418e-16
2.58559e-17
-1.28961e-17
3.70913e-18
-4.51902e-19
-6.86881e-20
1.51866e-20
1.0571e-21
-8.23816e-22
-4.12256e-22
2.6793e-23
1.16603e-22
-9.4248e-24
9.5323e-24
-1.62722e-23
-1.03449e-22
-4.67238e-22
3.19355e-16
5.65553e-17
4.41671e-17
-1.38178e-17
-2.67613e-18
1.59854e-18
-1.69703e-19
2.76228e-19
1.27332e-20
7.31563e-21
1.03214e-21
-6.23537e-22
0
-1.20116e-22
0
0
5.71222e-22
9.2989e-23
4.90807e-22
2.31873e-16
0
3.87913e-17
1.37286e-17
-3.47531e-18
1.05185e-18
0
-5.84748e-20
-2.14113e-20
-6.8578e-21
-1.04127e-21
6.30588e-22
0
0
0
0
-5.63624e-22
-5.69658e-21
0
-4.504e-16
0
-1.42402e-17
-1.32019e-17
5.32796e-18
1.80602e-20
7.13297e-20
-3.16456e-20
1.61914e-20
0
2.12585e-21
3.85226e-24
1.0286e-20
0
0
1.64855e-20
-9.79134e-22
6.86832e-21
-6.39687e-20
2.7375e-16
3.03483e-17
-3.00351e-17
-7.25435e-18
-6.51057e-18
1.4727e-18
3.35749e-19
-2.86999e-20
-1.76562e-20
4.93398e-20
4.65441e-21
-5.74611e-20
-1.7682e-20
-5.75218e-20
-6.82888e-20
-1.99268e-20
1.07091e-19
-2.91974e-21
6.55174e-20
-5.79424e-17
1.33956e-17
-3.87362e-17
1.22226e-18
-1.21781e-18
0
-1.63217e-19
-1.55195e-19
-2.12645e-19
1.63799e-19
2.29959e-19
5.24144e-20
-2.34235e-20
-1.92573e-19
5.69732e-20
0
-6.0724e-19
-7.56322e-19
-1.16044e-20
1.81762e-16
-1.48504e-18
4.85242e-17
-6.93381e-18
9.26654e-20
4.04237e-20
9.46514e-19
-6.68531e-19
2.06231e-19
-2.06018e-19
-2.13679e-19
0
1.06822e-18
2.7516e-19
8.8092e-21
-1.46425e-20
5.0418e-19
7.64886e-19
0
-1.09885e-16
0
-2.66728e-18
8.88008e-18
6.28444e-19
5.4761e-19
-9.15265e-19
8.58911e-19
3.51856e-18
3.56499e-18
3.69384e-18
0
-1.03776e-18
0
1.46879e-19
-1.52546e-19
0
-7.32783e-20
9.70901e-18
1.11889e-16
3.57995e-17
-4.69751e-20
2.19783e-17
-4.24459e-18
0
0
-1.28546e-17
-3.40913e-18
-3.45368e-18
-1.55431e-17
-1.49608e-18
0
0
0
-1.33559e-18
1.41338e-18
2.96794e-17
-9.91445e-18
8.14238e-17
0
-3.06888e-17
-9.76598e-18
2.29528e-17
-4.23139e-17
-5.17108e-17
3.232e-17
3.17512e-17
0
1.30202e-17
4.43808e-17
-5.85608e-18
5.56373e-17
-7.25807e-18
7.55388e-18
6.77717e-17
-2.83071e-17
0
-2.05526e-16
0
-1.26026e-16
1.17619e-16
0
1.04206e-16
4.0357e-17
-1.24127e-16
1.64507e-16
1.54728e-19
-3.16513e-17
-4.29697e-17
0
2.02648e-16
-2.65677e-16
3.04219e-16
-3.87719e-16
0
0
2.39724e-16
-3.61515e-17
-4.42081e-17
-3.49092e-16
3.98032e-16
-1.59687e-16
1.59036e-16
1.57993e-16
-3.43355e-17
0
0
3.94044e-16
-4.00832e-16
-2.41748e-16
2.55841e-16
-2.7138e-16
3.34184e-16
-6.49879e-16
0
)
;

boundaryField
{
    up
    {
        type            calculated;
        value           nonuniform List<scalar> 
84
(
0
0
0
0
-3.28128e-18
4.31087e-18
-9.87206e-19
6.5125e-20
-6.25253e-20
0
-5.10418e-22
4.65195e-22
-1.13839e-23
9.34609e-24
1.30455e-24
2.01018e-25
0
0
-5.33729e-28
3.87834e-28
1.12139e-28
-1.08886e-28
5.49996e-30
0
3.08399e-29
1.10562e-29
-6.76905e-28
0
7.2259e-27
8.31792e-27
2.24475e-26
-2.06719e-26
-5.81692e-27
0
5.82525e-25
3.95648e-25
-1.11086e-24
2.15985e-24
0
-9.87902e-25
0
0
-9.48227e-25
1.56011e-24
-1.50742e-24
1.38462e-24
-2.44163e-24
7.46356e-25
-4.55256e-25
-2.70321e-25
0
0
0
-1.16191e-25
2.67944e-26
4.31675e-27
0
-1.10604e-27
-3.74288e-28
1.53761e-28
0
0
-1.20771e-28
3.49391e-28
-7.58253e-28
7.80824e-28
0
1.16528e-27
0
0
-1.11781e-23
1.03659e-23
-4.67238e-22
4.90807e-22
0
-6.39687e-20
6.55174e-20
-1.16044e-20
0
9.70901e-18
-9.91445e-18
0
0
0
)
;
    }
    low
    {
        type            calculated;
        value           nonuniform List<scalar> 
84
(
-5.08155e-16
3.8208e-16
-6.53323e-17
3.13597e-16
7.36331e-17
-1.8942e-17
1.56416e-16
8.61359e-17
0
5.08419e-16
-1.19816e-16
-4.10805e-17
-5.97346e-17
-7.48845e-16
1.16061e-16
0
-1.04058e-16
5.543e-17
-5.39644e-17
-3.38767e-17
3.91523e-17
6.16464e-17
2.74878e-16
-1.10734e-16
0
-1.92746e-17
-1.01821e-17
0
-1.03106e-16
-4.34598e-17
-2.42881e-16
-2.55197e-16
2.72311e-16
6.51989e-17
4.80537e-16
3.63417e-17
0
2.54887e-16
3.81601e-16
2.11356e-16
-1.11018e-16
3.05208e-17
3.05223e-17
0
1.21028e-16
4.19849e-16
2.17171e-16
1.6034e-16
0
-6.53592e-16
3.24939e-16
-1.39291e-18
-1.45477e-18
8.72263e-17
0
-3.56512e-16
0
-2.05921e-17
2.99787e-17
1.13843e-16
2.01636e-16
2.41116e-16
-1.09287e-18
4.12337e-16
0
0
-2.41463e-16
4.12005e-16
-3.71343e-16
-1.15116e-16
3.34548e-16
-1.81154e-16
6.901e-16
3.40113e-16
2.31873e-16
-4.504e-16
2.59887e-16
-4.28079e-17
1.81762e-16
-1.01351e-16
1.11889e-16
1.13584e-16
-2.05526e-16
2.52879e-16
)
;
    }
    left
    {
        type            calculated;
        value           nonuniform List<scalar> 
19
(
-4.81846e-16
-1.26421e-16
2.22932e-16
9.35028e-17
-3.72565e-16
0
-1.09814e-16
-1.09163e-16
-1.00589e-16
-7.90676e-17
3.22324e-19
-8.1163e-17
5.34084e-16
-8.68952e-17
3.45753e-16
3.18355e-16
1.90651e-16
4.22517e-16
0
)
;
    }
    right
    {
        type            calculated;
        value           nonuniform List<scalar> 
19
(
2.39724e-16
-5.35462e-17
-4.42081e-17
-3.72912e-16
4.22655e-16
-1.59687e-16
1.59036e-16
1.57993e-16
-8.50505e-18
0
0
4.45209e-16
-4.50963e-16
-2.41748e-16
2.55841e-16
-2.7138e-16
3.34184e-16
-7.06775e-16
0
)
;
    }
    frontAndBackPlanes
    {
        type            empty;
    }
}


// ************************************************************************* //
