/*--------------------------------*- C++ -*----------------------------------*\
  =========                 |
  \\      /  F ield         | OpenFOAM: The Open Source CFD Toolbox
   \\    /   O peration     | Website:  https://openfoam.org
    \\  /    A nd           | Version:  7
     \\/     M anipulation  |
\*---------------------------------------------------------------------------*/
FoamFile
{
    version     2.0;
    format      ascii;
    class       volScalarField;
    location    "0.026";
    object      gradTz;
}
// * * * * * * * * * * * * * * * * * * * * * * * * * * * * * * * * * * * * * //

dimensions      [0 -1 0 1 0 0 0];

internalField   nonuniform List<scalar> 
1596
(
-8.05839e-16
-3.50133e-16
4.00013e-16
4.67445e-17
-6.73212e-16
0
-2.69943e-16
-2.68003e-16
-6.32365e-17
-1.62736e-16
1.12665e-19
-1.65995e-16
8.06589e-16
-1.7208e-16
7.67758e-16
6.83603e-16
4.12693e-16
5.56516e-16
0
7.58644e-16
0
8.25709e-16
-2.16364e-17
-1.80568e-16
1.84512e-16
4.962e-16
5.84991e-17
2.16561e-16
-1.08551e-16
2.1974e-16
7.08225e-19
-2.97212e-16
-1.89367e-16
-6.12378e-16
-6.20466e-16
-5.8454e-16
3.53774e-16
0
-3.16628e-16
0
-4.398e-16
3.1117e-17
2.81234e-16
-1.41932e-16
3.09163e-17
-8.28026e-19
-2.54294e-19
1.34474e-19
3.52183e-17
0
1.53404e-16
3.84098e-16
-3.86277e-17
3.86319e-17
8.43602e-17
1.78213e-16
0
5.74256e-16
-1.05142e-16
1.04758e-16
0
-7.97551e-17
-9.11601e-17
1.04905e-16
-5.37247e-17
0
0
-6.89233e-17
1.87053e-17
0
-9.67259e-17
-9.01588e-17
7.24325e-17
-1.24065e-16
-5.85481e-18
0
1.08499e-16
1.88513e-16
-9.90346e-17
0
-1.40578e-17
-5.14462e-17
0
6.45791e-17
-4.70723e-18
-4.53747e-18
-2.91032e-17
2.29973e-17
3.45189e-17
5.60437e-18
2.9263e-17
-7.77971e-17
3.39554e-18
3.77187e-17
-2.19412e-17
-2.81755e-17
-2.464e-16
1.56861e-16
-8.78803e-17
-8.56511e-19
-3.01289e-17
6.61612e-19
-6.63808e-19
-1.30169e-17
0
-1.51457e-17
-2.87398e-17
-3.03948e-17
1.52616e-17
3.59588e-17
-3.88634e-19
-2.0314e-17
-3.82576e-17
3.40846e-17
2.35468e-16
-2.624e-16
1.90579e-16
5.90964e-17
0
2.46032e-17
8.54113e-18
-3.3012e-18
1.55126e-17
-2.09946e-18
-1.38696e-17
-2.63551e-20
-4.98458e-18
-1.52289e-17
-7.31856e-18
8.27791e-18
2.04928e-17
-3.19827e-19
-1.15795e-17
7.20839e-17
4.45587e-16
-3.39957e-16
0
0
-2.6556e-17
0
0
0
2.93173e-18
0
0
5.20012e-18
-6.68052e-20
4.8445e-18
-7.7198e-18
0
4.10619e-18
2.78321e-18
0
-2.42826e-16
4.20045e-16
0
0
2.73489e-17
0
-2.45503e-18
2.45255e-18
-2.98408e-18
7.71316e-19
-7.76957e-19
0
1.06142e-18
3.00049e-18
0
-1.52004e-18
-4.16109e-18
-2.58877e-18
9.09449e-16
-3.78138e-16
0
-8.81259e-17
8.71396e-17
0
1.49921e-17
0
0
0
3.80143e-19
-3.81966e-19
0
-9.00324e-19
-1.52462e-19
0
9.43414e-19
6.03377e-19
0
-2.309e-16
0
0
9.34134e-17
-1.41521e-16
2.45544e-17
9.12442e-18
-2.47661e-18
1.3961e-18
2.42494e-19
-4.72631e-19
-2.93145e-19
0
1.56223e-19
-5.71012e-20
5.79582e-20
4.9362e-19
-5.31444e-19
-1.79951e-19
9.69376e-17
-6.49253e-17
1.06504e-16
2.25409e-16
-4.42291e-17
-5.16942e-17
0
0
0
1.28156e-18
1.92358e-19
4.13243e-19
-9.2142e-20
-1.53428e-19
-3.61064e-20
-4.05935e-20
2.11294e-20
-7.02363e-20
1.62171e-19
-1.68074e-16
1.74682e-16
-2.65598e-16
-2.24735e-16
1.6745e-16
2.65655e-17
-3.85427e-17
1.76318e-17
-7.61576e-18
1.78132e-18
4.47787e-19
-1.46098e-19
8.35551e-21
-1.90243e-20
7.34402e-20
0
-6.99907e-21
8.88122e-20
-1.63119e-20
-1.38073e-15
5.45743e-16
-5.05406e-19
-3.53924e-17
2.68311e-17
2.612e-17
-4.23073e-17
-7.38922e-18
3.10675e-18
-1.23765e-18
-4.77471e-19
0
-1.21008e-19
-2.52785e-20
-1.55992e-20
-6.49583e-21
2.08218e-22
-2.20393e-20
1.09721e-20
2.24756e-16
-1.55668e-16
-1.43107e-18
-6.03987e-17
-8.23839e-17
6.57655e-17
6.12433e-19
7.20079e-18
-3.02483e-18
2.34141e-18
3.08977e-19
1.54322e-19
1.24106e-19
0
2.3985e-20
7.32915e-21
0
5.39794e-21
3.194e-21
0
1.51016e-16
5.67135e-17
-1.50578e-16
7.80082e-17
-8.49464e-17
3.77617e-17
4.58603e-18
-2.6566e-18
-2.95504e-18
1.36752e-19
-1.36078e-19
-1.05182e-19
1.7238e-20
-5.67484e-21
-6.06453e-21
1.05998e-21
-6.01855e-22
1.24624e-21
-2.06753e-16
4.67112e-16
-3.6856e-16
1.01143e-16
0
0
-3.20306e-18
9.19424e-18
-1.6076e-18
2.41589e-18
0
0
6.13747e-20
-3.10134e-20
-6.43545e-21
1.79161e-21
-8.83665e-22
4.39926e-22
0
6.09399e-17
1.94388e-16
-8.40772e-17
-5.15165e-17
-3.70674e-17
7.36591e-18
1.15913e-17
0
-1.31759e-18
-1.52309e-19
2.40102e-19
-8.45957e-20
2.90907e-20
0
3.19393e-21
2.43659e-21
0
0
0
-6.05521e-17
1.44167e-16
-5.58439e-18
-1.6141e-16
2.06868e-17
1.10746e-17
0
0
1.04649e-18
-6.50982e-19
-2.32231e-19
8.18194e-20
-2.81329e-20
0
-8.98286e-22
5.60599e-22
0
-8.9449e-23
-2.58786e-23
-1.18547e-16
3.60501e-16
-3.21074e-16
-5.63234e-17
3.5713e-17
-7.97428e-18
3.3861e-18
0
-5.12357e-19
2.42596e-19
0
0
5.54181e-21
-5.54819e-21
2.94961e-22
-5.50771e-22
1.57381e-22
3.89893e-23
1.97387e-23
8.32066e-17
-5.26779e-17
1.57631e-16
-9.29681e-17
-1.4442e-17
4.05887e-18
9.11509e-18
1.00064e-18
4.90249e-19
0
3.40146e-20
-3.09942e-20
1.0268e-20
-3.61014e-21
8.99523e-22
-8.02136e-22
-1.02529e-22
6.04028e-23
7.71759e-24
1.77547e-16
-2.02443e-16
0
4.03148e-17
-2.61069e-17
-6.03666e-18
5.27267e-19
-3.93714e-18
0
-1.73279e-20
-6.71144e-20
-1.35971e-20
6.56916e-21
-1.38401e-21
-8.69374e-22
2.74154e-22
0
1.57059e-23
-7.49372e-24
4.24264e-16
-4.43423e-17
9.4917e-17
-7.09334e-17
9.65704e-18
-6.65558e-18
-5.68673e-18
-3.82974e-19
5.11661e-19
-4.86257e-20
-2.9944e-20
1.77171e-20
-4.19901e-21
-1.26122e-21
0
0
0
-1.56823e-23
4.1327e-25
-2.90762e-16
2.61473e-16
-9.02448e-19
9.61766e-18
4.45396e-18
-3.86326e-18
2.82495e-18
-9.83277e-19
3.56883e-19
-2.47048e-20
4.05976e-20
3.0937e-21
-5.90154e-22
1.36962e-23
1.56218e-23
-2.41779e-23
0
0
0
0
0
4.04387e-17
-4.53908e-17
-3.19133e-17
0
0
-1.80005e-19
-1.27598e-19
3.59434e-20
0
-3.90172e-21
1.19402e-21
-1.2089e-21
1.13808e-21
-8.79388e-23
9.24683e-23
4.00416e-24
0
-5.44519e-17
5.5122e-17
0
-1.06045e-17
7.23175e-18
5.85602e-18
0
1.81724e-19
2.72747e-20
-2.27785e-19
0
-3.3882e-21
1.05099e-21
3.50078e-22
-1.14408e-22
7.97172e-23
0
-9.84587e-24
0
-2.83221e-17
-1.70379e-17
1.06796e-18
1.08958e-17
-1.42885e-17
0
-7.39911e-19
0
2.83424e-19
3.8374e-20
0
1.16702e-20
-7.03123e-21
9.76461e-22
4.64819e-23
1.7245e-22
1.2904e-22
2.1711e-23
-1.73103e-23
0
4.73469e-17
-1.99607e-17
2.26387e-17
9.54777e-18
0
1.36209e-18
-9.60682e-19
-1.65474e-19
7.12125e-20
-9.50727e-20
-9.7539e-21
0
0
1.13303e-22
0
0
8.85787e-24
0
-2.67381e-16
2.15984e-16
0
5.47409e-18
-3.38384e-18
-1.40674e-19
1.67537e-18
1.18601e-19
-5.24709e-19
-2.71507e-19
1.23338e-19
-3.09125e-20
0
-6.56448e-22
0
0
0
-3.53669e-23
2.86093e-23
-8.90055e-17
5.92281e-17
9.39147e-17
-7.56343e-17
1.28691e-17
2.11609e-18
-1.66128e-18
6.31591e-19
4.4741e-19
1.21442e-19
-2.13979e-19
0
5.3878e-21
-3.89589e-21
-7.90387e-22
1.8095e-22
-1.40143e-22
-3.88621e-23
1.00579e-23
-3.51006e-16
2.85604e-16
-2.60398e-16
2.58657e-17
1.17815e-17
-8.58352e-18
4.36223e-18
-1.23847e-18
0
-2.47325e-19
9.57504e-20
3.33815e-20
2.24816e-20
3.75287e-21
-4.36939e-21
-2.43183e-22
0
3.31915e-23
-2.4992e-23
-3.77973e-16
-7.35688e-17
-7.8031e-17
5.10228e-17
-3.3203e-17
1.60266e-17
-7.21248e-18
2.38989e-18
-4.85437e-19
-3.24513e-19
-1.79499e-19
1.50222e-19
5.99808e-21
1.41184e-20
-1.51563e-20
-9.69994e-22
1.45059e-22
0
1.2376e-22
4.08671e-16
-8.44678e-17
0
0
-3.55328e-17
5.70068e-17
-8.90976e-18
-5.42068e-19
2.71675e-18
-1.89666e-19
0
0
-3.35163e-20
0
-1.80943e-20
2.46164e-20
-1.19184e-20
0
-1.11188e-22
1.23917e-16
1.84077e-16
0
-4.41124e-17
-1.67809e-17
-2.69327e-18
-9.56301e-18
1.69348e-18
-3.44714e-18
-5.82296e-19
0
0
1.76316e-19
0
0
-3.84846e-20
7.77642e-20
0
0
8.56886e-16
-1.70161e-16
-3.69528e-16
-1.07332e-16
1.52029e-16
2.58561e-17
9.27253e-18
0
-1.16663e-18
6.6496e-19
1.2731e-18
-3.15481e-19
-1.54718e-19
1.57329e-19
-1.6735e-19
-1.82269e-20
0
0
0
6.84322e-17
-4.04013e-16
3.85536e-16
-2.5005e-17
-1.20141e-16
1.57469e-16
-6.31633e-17
0
0
5.97362e-18
-4.08073e-18
0
-2.86051e-19
5.66179e-19
-1.44244e-20
8.09608e-20
1.70373e-20
5.40907e-22
2.3243e-21
0
0
0
1.96753e-16
-1.36571e-16
6.82851e-17
-9.52161e-17
2.04278e-17
0
-2.38916e-18
2.01611e-18
-2.06058e-18
-1.78494e-19
2.6476e-20
-5.44336e-20
-3.69048e-21
-3.3049e-20
-9.03442e-21
-4.26644e-21
5.32111e-16
-8.6109e-16
3.6522e-16
0
4.02608e-17
-5.77577e-17
2.87996e-17
-2.21606e-17
0
-2.95466e-18
4.34701e-18
0
0
2.89577e-20
0
-6.64799e-20
4.17195e-20
1.93383e-21
7.43624e-21
6.08177e-16
0
-1.32994e-16
1.46535e-16
-5.08464e-17
9.85375e-17
-3.8403e-17
-1.41736e-17
1.43216e-17
-8.0037e-19
0
0
1.60502e-19
-1.63023e-19
-8.413e-20
1.4461e-19
-2.78658e-20
9.98413e-21
0
3.42228e-16
1.88996e-16
-4.29473e-17
-1.42039e-16
-9.32195e-18
-4.2954e-17
1.51938e-17
2.50408e-17
-7.28025e-19
8.15399e-19
0
0
-1.64423e-19
0
1.02284e-19
-1.09419e-19
0
1.01055e-20
-2.61525e-21
-1.80976e-16
-9.51971e-17
8.98024e-17
-7.04101e-18
-2.39496e-18
4.68982e-18
0
-6.21491e-19
5.49108e-18
-4.59528e-18
0
5.00881e-19
-2.18234e-19
-3.16535e-19
-1.90305e-20
-1.2084e-20
0
-8.06635e-21
0
6.37965e-17
-1.11278e-16
8.07632e-18
3.43178e-17
1.83297e-17
-1.76e-17
-6.52319e-18
7.23177e-18
-1.21288e-18
1.00889e-18
-4.36049e-19
4.49498e-19
0
4.85771e-22
-1.22361e-20
4.5694e-20
-1.26164e-22
0
0
6.3799e-17
-6.356e-17
-3.41222e-17
3.07728e-17
3.18511e-17
-3.20391e-17
-3.26194e-18
3.27415e-18
-1.22504e-18
1.237e-18
-4.36121e-19
7.11328e-19
-1.92597e-19
-8.38798e-20
-1.52817e-20
6.94634e-21
1.02418e-20
2.31452e-21
-1.70005e-21
0
-1.3729e-17
5.82913e-17
-6.48195e-17
3.15887e-17
-2.86416e-17
0
7.88698e-18
-7.252e-18
0
8.40711e-19
-1.0204e-18
-3.02201e-19
3.16726e-19
3.52209e-20
0
0
-8.07541e-21
2.81714e-21
2.53377e-16
-4.27525e-16
3.53108e-16
-2.42399e-16
8.39855e-17
-3.6912e-17
3.62437e-17
2.32549e-18
-5.24396e-18
4.5748e-18
0
-1.04564e-18
9.52324e-19
-9.83708e-20
-3.44988e-20
3.74589e-20
2.33278e-20
7.83968e-21
-2.722e-21
6.7958e-16
0
-1.52681e-16
1.19429e-16
9.21688e-18
-4.42993e-17
6.57845e-17
-4.02443e-17
1.30515e-17
-2.41172e-18
2.46861e-18
2.73308e-19
2.79823e-19
9.58141e-20
-4.90263e-20
-1.09087e-20
-5.04148e-20
0
3.36489e-21
4.61682e-16
-5.20003e-16
0
2.67806e-17
7.5141e-17
-6.88591e-17
6.75816e-18
4.00286e-18
1.25332e-18
1.30308e-18
0
0
-4.28125e-19
6.21409e-19
-1.86973e-19
-3.81887e-20
4.18102e-20
2.5432e-21
-6.05721e-21
1.39402e-16
4.608e-16
-3.75153e-17
-1.71255e-16
1.53344e-16
1.08498e-17
-6.61409e-18
-3.9096e-18
6.66272e-18
-7.98247e-18
2.0195e-18
-2.06402e-18
8.2635e-20
-2.16455e-19
1.5006e-19
-1.01107e-19
0
0
2.87251e-21
0
1.02482e-16
-2.09439e-16
2.44564e-16
-1.03995e-16
1.03748e-16
0
1.04903e-17
-1.05384e-17
-3.09481e-18
4.09035e-18
0
4.58465e-19
-5.67776e-19
-5.19796e-20
0
-2.39704e-21
-2.17127e-21
-1.29491e-21
-1.18513e-15
5.05947e-16
0
-1.52106e-16
1.52091e-16
4.4672e-17
-2.83026e-17
5.01484e-18
0
-7.53252e-20
7.15687e-20
-3.15995e-19
-1.55111e-19
1.57741e-19
-1.67731e-19
0
8.85132e-21
1.59408e-21
-1.55895e-21
6.76955e-16
-6.18369e-16
0
4.04684e-17
2.44996e-17
-1.67585e-17
0
-5.25559e-18
-1.93441e-18
0
-2.89325e-19
0
1.77074e-19
0
0
7.80888e-21
1.73958e-20
-2.84019e-20
0
-7.50133e-19
8.4526e-17
-5.47364e-17
1.88276e-17
-1.12173e-16
3.29419e-17
0
5.43659e-19
1.2205e-18
0
-3.93008e-19
3.20253e-19
-3.36445e-19
1.27135e-20
0
-5.58432e-21
0
0
0
-7.07459e-19
0
5.05901e-17
0
-2.49919e-17
2.53892e-17
0
1.62297e-18
-5.80131e-19
1.33113e-18
-4.83669e-19
3.65172e-20
-2.4676e-20
2.69804e-21
-1.52706e-20
-1.18731e-21
0
1.79519e-22
0
2.28882e-16
-3.94747e-16
0
-2.30063e-17
1.18435e-17
0
0
-2.51766e-18
0
-2.48296e-19
-9.61919e-20
-3.35627e-20
2.26239e-20
0
3.57087e-22
0
0
-2.50066e-22
1.44528e-22
0
2.53551e-16
-1.94334e-16
2.12986e-17
-1.09671e-17
-1.61241e-18
3.30343e-18
1.57638e-18
-6.32058e-19
1.87571e-19
4.32951e-20
-8.60135e-21
2.79196e-20
-5.34401e-21
-1.50875e-21
6.68686e-23
1.04768e-23
-3.33772e-23
-6.2458e-24
-6.46316e-16
2.17728e-16
0
0
2.69777e-18
-2.74333e-18
1.19415e-20
-3.23359e-19
3.59014e-19
6.27528e-20
-4.56217e-20
-5.80977e-21
-1.56655e-21
6.57151e-22
0
2.86943e-23
-9.60279e-24
9.78771e-24
5.64532e-24
0
1.33434e-16
-8.37794e-17
2.0271e-17
6.51174e-18
-1.04468e-18
-1.03836e-18
-3.6824e-19
-4.08879e-19
4.93724e-20
1.55466e-21
1.49006e-20
1.46492e-21
-4.09701e-22
4.34873e-22
8.61637e-23
-1.03232e-22
-9.0404e-24
0
-4.13629e-17
-1.15822e-16
2.35513e-17
1.09042e-17
-1.6322e-17
8.43822e-18
8.57254e-19
-8.76246e-19
1.57344e-19
-4.68569e-20
0
0
-1.35617e-21
1.86492e-21
-4.70499e-22
1.20589e-22
-1.3151e-22
1.03256e-23
-1.79561e-23
6.78824e-17
4.23623e-17
-2.17462e-17
3.71728e-18
-1.01201e-17
-3.24357e-18
0
0
0
0
0
0
1.10216e-21
-9.19524e-22
9.72497e-22
-6.92911e-23
9.9597e-23
1.72391e-23
-1.33386e-23
1.61531e-16
-1.24457e-16
1.47485e-16
-1.74675e-17
2.7808e-17
-4.106e-18
5.54306e-18
-1.63395e-18
-1.50838e-19
1.543e-19
0
3.89636e-21
-1.07675e-21
8.67963e-22
-6.39674e-22
-2.38824e-22
-1.31611e-22
1.49735e-23
9.24265e-24
2.6221e-16
4.19456e-17
0
-2.00242e-17
-5.58695e-18
9.12142e-18
-6.9121e-19
-8.09783e-19
2.46319e-19
-5.01828e-20
0
-3.08441e-21
0
-5.31818e-22
2.27043e-22
-7.85378e-23
-1.54606e-23
3.09588e-24
0
3.50746e-16
-4.43411e-17
9.65491e-17
-7.23053e-17
-5.56635e-18
8.06567e-18
-4.53841e-18
2.97408e-19
1.4083e-19
-7.14434e-20
4.25644e-20
0
0
1.0694e-21
6.07889e-25
3.74982e-24
5.22626e-23
-1.24987e-23
0
-4.40945e-19
0
-2.63762e-17
8.24062e-17
-4.77393e-17
-1.6117e-17
8.11193e-18
-1.82976e-18
1.36238e-18
2.07299e-19
-6.3611e-20
1.55469e-20
-7.07244e-21
1.22927e-21
1.56103e-21
-8.29089e-23
-8.3207e-23
4.51421e-23
-8.30337e-24
7.5415e-16
-2.16841e-16
3.0768e-17
-1.23604e-16
1.4442e-17
-1.11249e-17
7.16036e-18
0
0
-2.76476e-20
-5.68544e-20
-6.56026e-21
0
-2.84975e-21
-8.9954e-22
2.8328e-22
-9.43052e-24
3.08711e-23
2.14431e-23
0
-1.75455e-16
1.73925e-16
-1.00274e-17
-7.5185e-17
7.97425e-18
-5.24916e-18
3.09679e-18
2.0748e-18
0
0
4.74309e-21
1.67634e-20
0
-1.9139e-21
-3.92881e-22
6.55642e-23
-1.98307e-23
-3.91753e-23
0
-7.9426e-17
7.9962e-17
1.20513e-16
3.01398e-17
-4.70008e-17
1.48749e-17
-2.69384e-18
1.82392e-18
-6.36591e-19
0
0
0
-9.52364e-21
-4.21658e-23
-9.02879e-22
0
-8.82974e-24
3.48669e-23
-5.31411e-16
4.60786e-16
2.60657e-16
-3.01787e-16
6.07552e-17
-4.93396e-17
0
3.31708e-18
-3.72899e-18
1.16392e-18
-2.96241e-19
1.06326e-19
3.72617e-20
9.84955e-21
3.34409e-21
0
0
0
0
6.8686e-16
-2.83587e-16
0
0
-2.87914e-17
3.38128e-17
-2.01963e-17
-3.97854e-18
3.9337e-18
8.27282e-19
6.69201e-19
-1.10324e-19
2.27276e-20
2.20491e-21
1.78264e-21
5.03887e-22
1.01867e-21
-3.23504e-23
3.29518e-23
-6.54891e-16
5.11503e-16
1.53403e-16
-9.31966e-17
7.65565e-17
-4.59265e-17
-1.50856e-17
-6.67733e-18
0
-1.82932e-18
3.48867e-19
1.5517e-19
-4.87589e-20
-1.72412e-20
-2.42309e-21
-4.55059e-22
-5.42906e-22
0
0
-2.24275e-16
0
1.0109e-16
1.24482e-18
0
0
1.55613e-17
6.89006e-18
0
1.13744e-18
0
-2.178e-19
-8.43149e-21
2.61177e-20
0
7.08373e-21
-6.79278e-22
6.92954e-22
0
5.27207e-16
0
1.67626e-16
-2.60985e-16
1.63986e-16
6.12736e-17
-9.00585e-18
0
9.32895e-19
2.18499e-18
0
-2.55507e-19
1.56959e-19
-7.81839e-20
-1.12609e-20
-5.07271e-21
-2.30935e-21
-9.77402e-22
-1.46809e-20
-4.02187e-16
5.56281e-16
-1.05987e-16
-1.89192e-16
-7.01165e-17
-3.59749e-17
-3.38426e-17
-5.41397e-18
2.13884e-18
4.48642e-19
-4.47799e-19
4.1571e-19
-1.07145e-19
1.24187e-19
-1.92411e-20
0
5.5908e-20
-5.90629e-20
1.28873e-20
1.08423e-15
-5.58208e-17
-4.75964e-16
2.25411e-16
-1.48804e-16
7.77064e-17
-8.66717e-18
-7.17124e-18
3.05677e-18
4.52215e-19
-2.5974e-19
-4.16221e-19
5.51735e-20
1.39635e-19
-1.97168e-20
1.99417e-20
-5.79071e-20
-1.38722e-19
-1.50979e-19
5.32259e-16
1.60967e-16
2.06655e-16
-1.1785e-16
-4.93569e-17
1.69944e-17
-1.12491e-17
2.25932e-17
1.30061e-18
2.43224e-18
7.35738e-19
-4.94297e-19
0
-1.56109e-19
0
0
5.65294e-19
1.67963e-19
1.62748e-19
4.50638e-16
0
1.92046e-16
1.1709e-16
-5.9106e-17
3.18606e-17
0
-6.73816e-18
-5.05583e-18
-2.48473e-18
-7.4225e-19
4.99886e-19
0
0
0
0
-5.43913e-19
-1.6025e-18
0
-8.79426e-16
0
-4.33384e-17
-4.188e-17
9.17997e-17
-1.67416e-17
-3.17919e-18
-4.53155e-18
4.87129e-18
0
7.71245e-19
-4.66316e-20
1.80076e-18
0
0
3.39398e-18
-2.81224e-19
1.93814e-18
-2.71725e-18
5.85978e-16
1.12056e-16
-1.10899e-16
-6.25622e-17
-1.08291e-16
4.56512e-17
2.77667e-17
-2.3599e-18
-4.06426e-18
5.97237e-18
8.66867e-19
-6.71202e-18
-3.44624e-18
-5.6637e-18
-6.80587e-18
-3.99684e-18
9.64837e-18
-3.6468e-19
2.78304e-18
-1.60506e-16
5.20589e-17
-2.07522e-16
1.71356e-17
-1.70733e-17
0
-1.42067e-17
-6.29605e-18
-1.34215e-17
6.96361e-18
1.38693e-17
5.75982e-18
-2.15801e-18
-6.35604e-18
6.06855e-18
0
-2.98089e-17
-1.94149e-17
-3.38152e-19
3.74256e-16
-6.16188e-18
3.09144e-16
-9.55065e-17
8.56512e-19
1.30378e-18
3.23935e-17
-1.3978e-17
1.30167e-17
-1.2439e-17
-1.25277e-17
0
3.03953e-17
1.49239e-17
3.75335e-19
-5.92229e-19
2.05281e-17
1.96727e-17
0
-2.51801e-16
0
-1.49575e-17
1.01023e-16
5.99929e-18
1.40765e-17
-3.1324e-17
2.77921e-17
5.45698e-17
5.46984e-17
5.59256e-17
0
-2.95285e-17
0
3.04872e-18
-3.16636e-18
0
-5.85914e-19
3.91132e-17
2.1192e-16
4.58066e-17
-5.45436e-17
2.03319e-16
-5.41974e-17
0
0
-1.02545e-16
-5.28725e-17
-5.29906e-17
-1.40408e-16
-1.87054e-17
0
0
0
-1.16257e-17
1.23029e-17
1.1508e-16
-3.98796e-17
5.70559e-17
0
-1.92703e-16
-1.14616e-16
1.60487e-16
-1.82483e-16
-2.43305e-16
2.30282e-16
1.10587e-16
0
1.01406e-16
1.8332e-16
-3.56705e-17
2.32759e-16
-3.86756e-17
4.02519e-17
2.04297e-16
-1.09475e-16
0
-3.89895e-16
0
-3.19222e-16
2.98259e-16
0
3.99285e-16
1.70806e-16
-4.33425e-16
4.28154e-16
5.99463e-20
-1.09663e-16
-1.77492e-16
0
4.04806e-16
-6.12375e-16
6.80019e-16
-8.71637e-16
0
0
4.02302e-16
-1.64961e-17
-3.59173e-17
-6.79924e-16
7.29854e-16
-3.28634e-16
3.27294e-16
3.24846e-16
-2.0451e-16
0
0
6.26766e-16
-6.37563e-16
-5.73275e-16
5.89703e-16
-5.96646e-16
6.70408e-16
-1.08811e-15
0
)
;

boundaryField
{
    up
    {
        type            calculated;
        value           nonuniform List<scalar> 
84
(
0
0
0
0
-2.19412e-17
3.40846e-17
-1.15795e-17
2.78321e-18
-2.58877e-18
0
-1.79951e-19
1.62171e-19
-1.63119e-20
1.09721e-20
3.194e-21
1.24624e-21
0
0
-2.58786e-23
1.97387e-23
7.71759e-24
-7.49372e-24
4.1327e-25
0
2.83259e-24
3.03711e-24
-1.40531e-23
0
2.86093e-23
-2.6331e-23
-2.4992e-23
1.2376e-22
-1.11188e-22
0
1.6481e-21
2.02956e-21
-3.83305e-21
6.91887e-21
0
-2.31276e-21
0
0
-1.62463e-21
2.81714e-21
-2.722e-21
3.36489e-21
-6.05721e-21
2.87251e-21
-1.29491e-21
-1.55895e-21
0
0
0
1.44528e-22
3.90923e-23
5.64532e-24
0
-1.79561e-23
-1.33386e-23
6.42608e-24
0
0
-8.30337e-24
2.14431e-23
-3.91753e-23
3.48669e-23
0
3.29518e-23
0
0
-1.46809e-20
1.28873e-20
-1.50979e-19
1.62748e-19
0
-2.71725e-18
2.78304e-18
-3.38152e-19
0
3.91132e-17
-3.98796e-17
0
0
0
)
;
    }
    low
    {
        type            calculated;
        value           nonuniform List<scalar> 
84
(
-8.10398e-16
7.58644e-16
-3.08572e-16
5.79742e-16
1.11652e-16
-2.89824e-17
2.41549e-16
7.75588e-17
0
9.1674e-16
-2.309e-16
9.1001e-17
-1.68074e-16
-1.38497e-15
2.24756e-16
0
-2.06753e-16
6.09399e-17
-6.05521e-17
-1.18547e-16
8.32066e-17
1.77547e-16
4.26053e-16
-2.90762e-16
0
-5.44519e-17
-2.83221e-17
0
-2.67381e-16
-8.90055e-17
-3.5284e-16
-3.8026e-16
4.1144e-16
1.23917e-16
8.60584e-16
6.84322e-17
0
5.32111e-16
6.13976e-16
3.4517e-16
-1.82471e-16
6.37965e-17
6.3799e-17
0
2.53377e-16
6.85377e-16
4.61682e-16
1.44725e-16
0
-1.18882e-15
6.76955e-16
-7.50133e-19
-7.07459e-19
2.28882e-16
0
-6.45814e-16
0
-4.13629e-17
6.78824e-17
1.61383e-16
2.63427e-16
3.52534e-16
-4.40945e-19
7.56726e-16
0
0
-5.31411e-16
6.90268e-16
-6.58602e-16
-2.24275e-16
5.31452e-16
-4.02187e-16
1.0961e-15
5.38828e-16
4.50638e-16
-8.79426e-16
5.80503e-16
-1.54425e-16
3.74256e-16
-2.48648e-16
2.1192e-16
6.51119e-17
-3.89895e-16
4.04582e-16
)
;
    }
    left
    {
        type            calculated;
        value           nonuniform List<scalar> 
19
(
-8.05839e-16
-3.49573e-16
4.00013e-16
5.07698e-17
-6.78263e-16
0
-2.69943e-16
-2.68003e-16
-6.9552e-17
-1.62736e-16
1.12665e-19
-1.65995e-16
8.20741e-16
-1.7208e-16
7.67758e-16
6.83603e-16
4.12693e-16
6.41704e-16
0
)
;
    }
    right
    {
        type            calculated;
        value           nonuniform List<scalar> 
19
(
4.02302e-16
-1.70554e-17
-3.59173e-17
-6.8395e-16
7.34905e-16
-3.28634e-16
3.27294e-16
3.24846e-16
-1.98194e-16
0
0
6.40438e-16
-6.51716e-16
-5.73275e-16
5.89703e-16
-5.96646e-16
6.70408e-16
-1.1733e-15
0
)
;
    }
    frontAndBackPlanes
    {
        type            empty;
    }
}


// ************************************************************************* //
