/*--------------------------------*- C++ -*----------------------------------*\
  =========                 |
  \\      /  F ield         | OpenFOAM: The Open Source CFD Toolbox
   \\    /   O peration     | Website:  https://openfoam.org
    \\  /    A nd           | Version:  7
     \\/     M anipulation  |
\*---------------------------------------------------------------------------*/
FoamFile
{
    version     2.0;
    format      ascii;
    class       volScalarField;
    location    "0.039";
    object      gradTz;
}
// * * * * * * * * * * * * * * * * * * * * * * * * * * * * * * * * * * * * * //

dimensions      [0 -1 0 1 0 0 0];

internalField   nonuniform List<scalar> 
1596
(
-8.06179e-16
-3.65863e-16
4.00055e-16
3.36615e-17
-6.98461e-16
0
-2.92527e-16
-2.89756e-16
-5.14423e-17
-1.6875e-16
-7.63752e-20
-1.71725e-16
8.06589e-16
-1.76018e-16
8.01064e-16
7.05334e-16
4.23629e-16
5.52393e-16
0
7.76108e-16
0
9.27979e-16
-2.03283e-17
-2.28883e-16
2.26929e-16
5.53549e-16
4.90391e-17
2.48379e-16
-1.2396e-16
2.50514e-16
6.47587e-20
-3.45915e-16
-2.2103e-16
-6.42734e-16
-6.42271e-16
-5.96156e-16
3.50387e-16
0
-3.43647e-16
0
-5.33122e-16
3.04188e-17
3.8339e-16
-1.59284e-16
3.18092e-17
-1.66589e-18
-7.49292e-19
-1.89862e-19
5.37719e-17
0
1.78732e-16
4.72852e-16
-4.77523e-17
4.43783e-17
9.99993e-17
1.85516e-16
0
5.89749e-16
-1.2889e-16
1.28419e-16
0
-1.06759e-16
-1.19512e-16
1.49053e-16
-9.04889e-17
0
0
-8.41626e-17
2.84718e-17
0
-1.26224e-16
-1.33674e-16
1.02942e-16
-1.45336e-16
-7.13088e-18
0
1.08499e-16
2.1518e-16
-1.37176e-16
0
-2.55175e-17
-8.59273e-17
0
1.10719e-16
-9.04543e-18
-8.49137e-18
-3.8413e-17
4.55173e-17
6.56143e-17
9.57003e-18
3.2363e-17
-1.10868e-16
5.14437e-18
5.323e-17
-2.75634e-17
-2.81755e-17
-2.8608e-16
2.09871e-16
-1.35092e-16
-1.05641e-18
-6.52364e-17
1.543e-18
-1.54813e-18
-3.27891e-17
0
-2.42164e-17
-5.60017e-17
-5.82713e-17
3.48061e-17
6.44271e-17
-7.65269e-19
-3.79468e-17
-5.39904e-17
4.50731e-17
2.35468e-16
-2.96583e-16
2.4689e-16
9.64714e-17
0
5.25166e-17
2.12615e-17
-8.89714e-18
3.98331e-17
-6.04901e-18
-3.39952e-17
-1.96594e-20
-1.46444e-17
-3.48006e-17
-1.98831e-17
2.10348e-17
3.82808e-17
-5.66744e-19
-1.66186e-17
6.01417e-17
4.93023e-16
-4.30303e-16
0
0
-5.56484e-17
0
0
0
1.1211e-17
0
0
1.46859e-17
-1.18291e-19
1.14195e-17
-1.93116e-17
0
1.02571e-17
5.74812e-18
0
-2.82375e-16
5.04664e-16
0
0
5.73101e-17
0
-8.27248e-18
8.26411e-18
-1.14112e-17
3.38022e-18
-3.40495e-18
0
4.73063e-18
1.02283e-17
0
-5.5811e-18
-1.04183e-17
-5.26582e-18
9.32671e-16
-4.00983e-16
0
-1.30425e-16
1.28966e-16
0
3.5199e-17
0
0
0
2.0237e-18
-2.0334e-18
0
-3.90491e-18
-7.89539e-19
0
2.88694e-18
2.43319e-18
0
-2.37145e-16
0
0
1.36224e-16
-2.18466e-16
3.38147e-17
1.37995e-17
-7.58849e-18
3.43778e-18
7.01422e-19
-2.28996e-18
-1.92253e-18
0
1.12598e-18
-3.64966e-19
3.70443e-19
2.31762e-18
-2.09222e-18
-7.37637e-19
1.26736e-16
-5.42757e-17
1.29085e-16
3.15786e-16
-5.16658e-17
-8.6818e-17
0
0
0
5.63206e-18
1.12518e-18
2.93144e-18
-6.59759e-19
-1.10584e-18
-3.38686e-19
-3.25214e-19
1.64516e-19
-4.75722e-19
6.69101e-19
-1.85036e-16
1.86982e-16
-3.04027e-16
-3.14466e-16
2.50694e-16
5.23869e-17
-8.09051e-17
4.45614e-17
-2.35003e-17
5.9446e-18
1.99397e-18
-9.46492e-19
1.47304e-19
-1.9105e-19
6.7988e-19
0
-6.38206e-20
6.69046e-19
-1.11854e-19
-1.41653e-15
5.84867e-16
-1.7799e-19
-5.54825e-17
2.96875e-17
5.15477e-17
-8.77057e-17
-1.99512e-17
1.02793e-17
-5.06541e-18
-2.43543e-18
0
-9.70726e-19
-2.21229e-19
-1.92655e-19
-9.18412e-20
4.71689e-21
-2.11356e-19
6.4793e-20
2.30986e-16
-1.72509e-16
-1.03026e-18
-8.29293e-17
-1.3616e-16
1.1419e-16
9.16371e-19
1.94424e-17
-1.00082e-17
9.63111e-18
1.52216e-18
8.40757e-19
1.00022e-18
0
3.02369e-19
1.08183e-19
0
6.57087e-20
2.49263e-20
0
1.67353e-16
7.95079e-17
-1.94214e-16
1.29944e-16
-1.55238e-16
7.98917e-17
1.35105e-17
-6.58312e-18
-1.12437e-17
7.55229e-19
-7.51503e-19
-8.50824e-19
1.7586e-19
-6.96332e-20
-8.90215e-20
2.04015e-20
-1.23145e-20
1.52677e-20
-2.13292e-16
5.44082e-16
-4.21973e-16
1.44135e-16
0
0
-8.69477e-18
2.29007e-17
-5.97525e-18
9.53505e-18
0
0
5.09747e-19
-2.96291e-19
-8.54517e-20
2.46622e-20
-1.67857e-20
8.94359e-21
0
5.05303e-17
2.0028e-16
-1.04948e-16
-7.20986e-17
-6.63244e-17
4.2533e-18
2.33236e-17
0
-5.09863e-18
-1.47971e-18
1.37102e-18
-6.01178e-19
2.5732e-19
0
4.03717e-20
3.77546e-20
0
0
0
-5.01417e-17
1.9248e-16
1.96718e-17
-2.21932e-16
3.6374e-17
2.25386e-17
0
0
4.24774e-18
-2.50134e-18
-1.32607e-18
5.81448e-19
-2.48848e-19
0
-1.34306e-20
8.43392e-21
0
-2.38344e-21
-7.5979e-22
-1.35658e-16
4.04803e-16
-3.98742e-16
-9.02693e-17
5.41656e-17
-1.75856e-17
9.13851e-18
0
-2.12091e-18
1.17654e-18
0
0
5.74039e-20
-5.747e-20
4.71341e-21
-8.66657e-21
3.72416e-21
9.49421e-22
5.84606e-22
8.66509e-17
-6.1258e-17
2.15455e-16
-1.3063e-16
-2.75215e-17
7.6014e-18
2.22813e-17
3.55455e-18
2.0294e-18
0
2.43511e-19
-2.19896e-19
9.1125e-20
-4.03776e-20
1.52214e-20
-1.6046e-20
-2.58439e-21
1.69975e-21
2.68021e-22
1.98016e-16
-2.17699e-16
0
6.95326e-17
-4.25413e-17
-1.40243e-17
2.43068e-18
-1.28429e-17
0
-9.38428e-20
-4.15174e-19
-1.1859e-19
7.4509e-20
-1.45877e-20
-1.47113e-20
5.739e-21
0
5.33992e-22
-2.60246e-22
4.27736e-16
-5.30162e-17
1.40117e-16
-1.06018e-16
2.17974e-17
-1.09044e-17
-1.56267e-17
-1.64163e-18
2.33591e-18
-2.09078e-19
-2.53103e-19
1.59957e-19
-4.49139e-20
-1.95649e-20
0
0
0
-5.34482e-22
1.53712e-23
-3.17824e-16
2.93236e-16
-5.83343e-19
1.73014e-17
9.53514e-18
-1.10139e-17
9.06314e-18
-3.97507e-18
1.83166e-18
-1.88806e-19
3.22312e-19
3.63078e-20
-8.4559e-21
4.41018e-22
1.26416e-23
-6.75211e-22
0
0
0
0
0
6.63289e-17
-6.30858e-17
-6.40765e-17
0
0
-8.84876e-19
-7.52723e-19
2.8613e-19
0
-4.57907e-20
1.74892e-20
-2.31588e-20
2.27874e-20
-2.55534e-21
2.71746e-21
1.55982e-22
0
-6.03729e-17
6.11159e-17
0
-1.90962e-17
1.54352e-17
1.46463e-17
0
8.93326e-19
2.32879e-19
-1.66041e-18
0
-4.5436e-20
1.72168e-20
6.48266e-21
-2.56958e-21
2.13182e-21
0
-3.62768e-22
0
-3.12867e-17
-2.28721e-17
1.36927e-18
1.96209e-17
-3.22341e-17
0
-2.69518e-18
0
1.8062e-18
3.22086e-19
0
1.67026e-19
-1.10392e-19
1.62721e-20
-4.33316e-22
3.69491e-21
3.48314e-21
7.54368e-22
-5.98055e-22
0
5.63986e-17
-3.00423e-17
3.48851e-17
2.09876e-17
0
5.05332e-18
-3.8354e-18
-1.03867e-18
6.24506e-19
-8.63492e-19
-1.38897e-19
0
0
2.93943e-21
0
0
2.25642e-22
0
-2.91646e-16
2.3192e-16
0
6.78975e-18
-9.63699e-18
-3.79244e-19
4.97168e-18
8.33387e-19
-2.24441e-18
-1.68819e-18
1.10567e-18
-3.0232e-19
0
-1.84534e-20
0
0
0
-8.2497e-22
6.44482e-22
-9.22087e-17
6.86001e-17
1.27688e-16
-1.0949e-16
2.29622e-17
3.24727e-18
-4.97198e-18
2.40475e-18
2.1976e-18
7.95773e-19
-1.45902e-18
0
9.73351e-20
-4.89306e-20
-2.10451e-20
-8.53652e-21
5.00129e-21
-3.32235e-22
2.54367e-22
-3.47543e-16
3.35742e-16
-3.14479e-16
3.75466e-17
2.04606e-17
-1.60757e-17
9.75668e-18
-3.81224e-18
0
-1.17156e-18
6.88929e-19
2.61564e-19
2.34463e-19
8.14001e-20
-1.0272e-19
-9.49537e-21
0
1.16535e-22
-2.60421e-22
-3.74824e-16
-8.28972e-17
-1.02529e-16
6.31938e-17
-5.49506e-17
3.16966e-17
-1.54736e-17
6.85571e-18
-1.32723e-18
-1.00728e-18
-1.09985e-18
8.58417e-19
-6.42849e-21
2.07866e-19
-2.23146e-19
-9.07972e-21
8.56666e-21
0
7.77136e-22
4.05267e-16
-9.30755e-17
0
0
-5.75432e-17
9.83565e-17
-1.74595e-17
-1.51895e-18
8.83762e-18
-4.85695e-19
0
0
-2.73785e-19
0
-2.51004e-19
4.34273e-19
-2.49679e-19
0
-5.60072e-22
1.27029e-16
2.01979e-16
0
-5.80085e-17
-2.80249e-17
-1.13115e-17
-1.87549e-17
4.31183e-18
-9.61289e-18
-2.53702e-18
0
0
9.62688e-19
0
0
-4.69879e-19
8.6096e-19
0
0
8.75868e-16
-1.56352e-16
-4.17752e-16
-1.47938e-16
2.06716e-16
4.31852e-17
1.81852e-17
0
-3.21553e-18
2.07105e-18
4.54357e-18
-1.21626e-18
-8.44766e-19
1.00381e-18
-1.06774e-18
-1.62163e-19
0
0
0
7.00497e-17
-4.50487e-16
4.33441e-16
-3.19002e-17
-1.78253e-16
2.46479e-16
-1.06828e-16
0
0
1.77645e-17
-1.28166e-17
0
-1.46681e-18
2.79611e-18
-1.22981e-19
5.1959e-19
1.23609e-19
3.31049e-21
1.99047e-20
0
0
0
2.59746e-16
-1.78365e-16
1.1383e-16
-1.64266e-16
3.88132e-17
0
-6.62284e-18
6.898e-18
-7.05016e-18
-8.00357e-19
1.01324e-19
-3.24938e-19
-2.51196e-20
-2.24345e-19
-6.44407e-20
-3.16058e-20
5.56527e-16
-9.26539e-16
4.0691e-16
0
6.00262e-17
-8.46089e-17
5.32809e-17
-4.14225e-17
0
-8.56943e-18
1.23836e-17
0
0
1.0404e-19
0
-4.02689e-19
2.59768e-19
1.9824e-20
5.37805e-20
6.07384e-16
0
-1.59514e-16
1.7655e-16
-7.45351e-17
1.49954e-16
-6.25584e-17
-2.97925e-17
3.01037e-17
-2.0823e-18
0
0
6.32586e-19
-7.60717e-19
-4.49323e-19
7.99349e-19
-1.62644e-19
6.60071e-20
0
3.42619e-16
2.09933e-16
-3.56783e-17
-1.70396e-16
-1.2921e-17
-6.91735e-17
1.9388e-17
4.56765e-17
-1.6281e-18
2.1214e-18
0
0
-6.48042e-19
0
5.22835e-19
-5.59309e-19
0
5.9989e-20
-1.58416e-20
-1.8137e-16
-1.05663e-16
9.94492e-17
-8.82951e-18
-3.29881e-18
7.20187e-18
0
-1.2114e-18
1.2799e-17
-1.07347e-17
0
1.75995e-18
-6.22228e-19
-1.26374e-18
-9.04714e-20
-6.26918e-20
0
-4.76005e-20
0
6.67348e-17
-1.19446e-16
5.83903e-18
4.09872e-17
2.62137e-17
-2.54594e-17
-1.17835e-17
1.31554e-17
-2.83121e-18
2.30783e-18
-1.33055e-18
1.37158e-18
0
2.06263e-21
-6.23231e-20
2.27007e-19
-6.90515e-22
0
0
6.67374e-17
-6.64873e-17
-4.07597e-17
3.65473e-17
4.58041e-17
-4.60745e-17
-5.89222e-18
5.91154e-18
-2.85808e-18
2.88671e-18
-1.33071e-18
2.28304e-18
-6.33358e-19
-3.31371e-19
-7.47373e-20
3.01585e-20
5.38421e-20
1.30585e-20
-9.68428e-21
0
-1.48005e-17
7.00492e-17
-7.72411e-17
4.54884e-17
-4.09416e-17
0
1.62154e-17
-1.47772e-17
0
2.58471e-18
-3.18216e-18
-1.20635e-18
1.26433e-18
1.70929e-19
0
0
-4.76417e-20
1.69081e-20
2.65115e-16
-4.59077e-16
4.05144e-16
-3.01154e-16
1.09001e-16
-5.98264e-17
5.80848e-17
4.60575e-18
-1.23337e-17
1.08453e-17
0
-3.7359e-18
3.40833e-18
-4.40574e-19
-1.67425e-19
2.06917e-19
1.38227e-19
4.62509e-20
-1.63371e-20
6.80374e-16
0
-1.8227e-16
1.42327e-16
1.27744e-17
-7.16608e-17
1.12636e-16
-7.81553e-17
2.71675e-17
-6.69196e-18
6.84981e-18
9.40241e-19
1.14203e-18
4.29124e-19
-2.58014e-19
-5.23795e-20
-2.96188e-19
0
2.28014e-20
4.84526e-16
-5.45628e-16
0
3.38013e-17
1.09012e-16
-1.02086e-16
1.20784e-17
8.1886e-18
2.88978e-18
3.55858e-18
0
0
-1.8269e-18
2.87007e-18
-9.27672e-19
-2.37667e-19
2.60205e-19
1.76743e-20
-4.15452e-20
1.1567e-16
4.82104e-16
-4.37389e-17
-2.27199e-16
2.02104e-16
1.70952e-17
-1.18209e-17
-7.99782e-18
1.68317e-17
-2.0425e-17
6.90701e-18
-7.05928e-18
4.60509e-19
-9.43779e-19
9.02565e-19
-6.10937e-19
0
0
2.36866e-20
0
1.11155e-16
-2.55898e-16
2.96775e-16
-1.55354e-16
1.54984e-16
0
2.34457e-17
-2.35532e-17
-9.4033e-18
1.28414e-17
0
2.23925e-18
-2.80253e-18
-3.10113e-19
0
-1.93009e-20
-2.21548e-20
-8.85851e-21
-1.21224e-15
5.34419e-16
0
-2.06775e-16
2.06755e-16
7.70941e-17
-4.93883e-17
1.15024e-17
0
-2.44985e-19
5.77372e-19
-1.21718e-18
-8.45909e-19
1.00518e-18
-1.06884e-18
0
8.94082e-20
5.91284e-21
-1.49183e-20
7.07557e-16
-6.60653e-16
0
5.46825e-17
3.77286e-17
-2.83702e-17
0
-1.20546e-17
-5.75962e-18
0
-8.79091e-19
0
9.65686e-19
0
0
9.08518e-20
2.6021e-19
-3.79494e-19
0
-4.70535e-19
9.31336e-17
-6.74941e-17
3.09308e-17
-1.71782e-16
5.50519e-17
0
1.52243e-18
3.73265e-18
0
-1.71295e-18
2.06951e-18
-2.17414e-18
1.34036e-19
0
-5.29514e-20
0
0
0
-4.14325e-19
0
6.23814e-17
0
-4.40847e-17
4.47855e-17
0
4.91008e-18
-2.2276e-18
5.80766e-18
-2.32932e-18
2.85759e-19
-2.56969e-19
8.76316e-20
-2.24532e-19
-2.45703e-20
0
2.43166e-22
0
2.5021e-16
-4.2885e-16
0
-3.48594e-17
2.14005e-17
0
0
-7.97679e-18
0
-1.17508e-18
-6.91365e-19
-2.62639e-19
2.35599e-19
0
1.58397e-20
0
0
-8.12215e-22
8.36596e-22
0
3.03225e-16
-2.35744e-16
3.22718e-17
-1.9817e-17
-3.96984e-18
9.01442e-18
5.59623e-18
-3.1195e-18
9.38312e-19
2.4616e-19
-1.08363e-19
3.71702e-19
-8.92672e-20
-6.02471e-20
1.0745e-20
-3.81345e-22
-1.29006e-22
-8.12206e-23
-6.70581e-16
2.33024e-16
0
0
5.80889e-18
-5.90699e-18
5.9276e-19
-6.79007e-19
2.10841e-18
4.82579e-19
-3.68539e-19
-5.57178e-20
-3.11544e-20
1.85395e-20
0
1.23416e-21
3.49531e-22
2.4034e-22
7.3412e-23
0
1.60807e-16
-1.14679e-16
3.05046e-17
1.44273e-17
-2.41505e-18
-3.45053e-18
-1.58331e-18
-2.4103e-18
4.10574e-19
-1.75241e-20
1.63201e-19
2.91332e-20
-1.08167e-20
1.14812e-20
2.07403e-21
-2.95634e-21
-2.21989e-22
0
-4.16697e-17
-1.35897e-16
3.35664e-17
1.96328e-17
-3.78873e-17
2.14821e-17
3.50052e-18
-3.57807e-18
9.87165e-19
-3.89655e-19
0
0
-2.45262e-20
3.50972e-20
-9.96152e-21
3.22622e-21
-3.48736e-21
3.39281e-22
-6.01137e-22
7.10688e-17
5.09619e-17
-3.17656e-17
9.04744e-18
-1.8449e-17
-9.59579e-18
0
0
0
0
0
0
1.67473e-20
-1.79681e-20
1.90033e-20
-1.95243e-21
2.7317e-21
6.36636e-22
-5.14152e-22
1.61531e-16
-1.61401e-16
1.94828e-16
-3.59138e-17
5.45779e-17
-1.28406e-17
1.87775e-17
-6.71855e-18
-9.80596e-19
1.0031e-18
0
4.57421e-20
-1.63612e-20
1.68381e-20
-1.11794e-20
-5.34999e-21
-4.08523e-21
4.47366e-22
3.86515e-22
2.58934e-16
5.0151e-17
0
-3.53053e-17
-1.33259e-17
2.37708e-17
-1.26669e-18
-3.16942e-18
1.18035e-18
-3.3495e-19
0
-3.62101e-20
0
-9.05836e-21
4.53923e-21
-2.01185e-21
-4.6132e-22
1.32713e-22
0
3.50942e-16
-5.30151e-17
1.41395e-16
-1.07411e-16
-1.11851e-17
2.15223e-17
-1.2295e-17
9.64035e-19
4.80617e-19
-4.28356e-19
2.88079e-19
0
0
1.63491e-20
-7.54547e-22
2.26543e-22
1.58929e-21
-4.31791e-22
0
-2.12309e-19
0
-3.63512e-17
1.37078e-16
-8.31582e-17
-3.9632e-17
2.05516e-17
-7.13598e-18
5.58824e-18
1.19102e-18
-4.6043e-19
1.21571e-19
-6.88527e-20
1.45625e-20
2.52364e-20
-1.33176e-21
-2.18611e-21
1.44814e-21
-2.87572e-22
7.81143e-16
-2.31913e-16
4.92658e-17
-1.79166e-16
2.75215e-17
-2.58832e-17
1.61613e-17
0
0
-1.36212e-19
-2.72003e-19
-4.3698e-20
0
-3.88083e-20
-1.5222e-20
5.93031e-21
-2.46395e-22
7.84967e-22
7.05625e-22
0
-2.00194e-16
2.34439e-16
3.78836e-18
-1.2357e-16
1.75856e-17
-1.47602e-17
7.34275e-18
7.18632e-18
0
0
3.41989e-20
1.39312e-19
0
-2.72981e-20
-6.64038e-21
1.15301e-21
-7.08113e-22
-1.18586e-21
0
-1.00369e-16
7.5914e-17
1.61071e-16
5.69264e-17
-9.21512e-17
3.28731e-17
-8.86072e-18
5.6473e-18
-2.92473e-18
0
0
0
-1.04776e-19
2.47764e-21
-1.34971e-20
0
-2.34792e-22
9.9879e-22
-5.60939e-16
4.99679e-16
3.44988e-16
-4.05366e-16
1.0673e-16
-9.06119e-17
0
1.04381e-17
-1.21988e-17
4.56759e-18
-1.61295e-18
7.19832e-19
3.14035e-19
1.08361e-19
4.56919e-20
0
0
0
0
6.93399e-16
-3.16629e-16
0
0
-4.68182e-17
6.8678e-17
-4.18013e-17
-1.20558e-17
1.19199e-17
3.63034e-18
3.57343e-18
-7.46895e-19
1.83977e-19
4.25905e-20
2.45352e-20
1.1997e-20
1.96316e-20
-7.14044e-22
7.27318e-22
-6.71961e-16
5.51115e-16
1.97857e-16
-1.14767e-16
1.28386e-16
-7.85208e-17
-3.40377e-17
-1.8265e-17
0
-7.79631e-18
1.25446e-18
9.94108e-19
-3.9744e-19
-1.75865e-19
-3.30041e-20
-1.34331e-20
-1.17108e-20
0
0
-2.30699e-16
0
1.23014e-16
1.02895e-18
0
0
3.51109e-17
1.88469e-17
0
4.70348e-18
0
-1.41917e-18
-1.40287e-19
2.65233e-19
0
9.78392e-20
-1.07183e-20
1.09341e-20
0
5.27207e-16
0
2.1286e-16
-3.49127e-16
2.45836e-16
1.16708e-16
-1.36828e-17
0
2.611e-18
7.7047e-18
0
-1.69212e-18
1.21068e-18
-7.42146e-19
-1.2204e-19
-7.17159e-20
-3.02111e-20
-9.73162e-21
-9.74247e-20
-4.25481e-16
5.95654e-16
-1.28526e-16
-2.58602e-16
-1.10499e-16
-6.66826e-17
-7.52986e-17
-1.56238e-17
4.80393e-18
1.99775e-18
-1.99399e-18
2.74875e-18
-8.61478e-19
1.16324e-18
-1.93387e-19
0
4.51294e-19
-4.02825e-19
8.60688e-20
1.08423e-15
-4.96681e-17
-5.5987e-16
3.15788e-16
-2.27293e-16
1.38596e-16
-1.31465e-17
-2.0031e-17
1.06524e-17
2.09413e-18
-9.68415e-19
-2.62305e-18
4.40276e-19
9.42896e-19
-1.62778e-19
1.64635e-19
-4.67431e-19
-6.22016e-19
-6.04732e-19
5.32259e-16
1.77524e-16
2.51127e-16
-1.63529e-16
-8.40646e-17
2.17795e-17
-2.78143e-17
5.9661e-17
3.61156e-18
1.03207e-17
3.94838e-18
-2.86106e-18
0
-1.12587e-18
0
0
2.6933e-18
8.76964e-19
6.61778e-19
4.63492e-16
0
2.36902e-16
1.62474e-16
-9.79981e-17
6.14147e-17
0
-1.96273e-17
-1.84423e-17
-1.07247e-17
-3.98332e-18
2.89341e-18
0
0
0
0
-2.57349e-18
-5.04423e-18
0
-9.05331e-16
0
-4.24021e-17
-4.06683e-17
1.52499e-16
-4.22587e-17
-1.21692e-17
-1.36939e-17
1.87055e-17
0
3.38014e-18
-2.65407e-19
6.0363e-18
0
0
1.0854e-17
-8.86241e-19
6.10181e-18
-5.61194e-18
6.12446e-16
1.31956e-16
-1.30594e-16
-8.59696e-17
-1.84194e-16
9.18066e-17
7.22566e-17
-5.76053e-18
-1.46838e-17
1.84811e-17
3.02158e-18
-2.03314e-17
-1.22265e-17
-1.55562e-17
-1.82922e-17
-1.27021e-17
2.22435e-17
-9.08989e-19
5.74781e-18
-1.73669e-16
6.23283e-17
-2.66235e-16
2.80068e-17
-2.79049e-17
0
-3.71931e-17
-1.20551e-17
-3.38086e-17
1.35798e-17
3.39951e-17
1.6994e-17
-5.81607e-18
-1.01788e-17
1.66606e-17
0
-5.96921e-17
-3.23169e-17
-5.99245e-19
3.89918e-16
-7.51949e-18
4.08615e-16
-1.49462e-16
1.05641e-18
2.56479e-18
6.69336e-17
-2.19312e-17
3.27888e-17
-3.07491e-17
-3.03911e-17
0
5.82717e-17
3.41026e-17
7.39041e-19
-1.13595e-18
3.83358e-17
3.27803e-17
0
-2.66878e-16
0
-2.41329e-17
1.521e-16
7.35126e-18
2.55515e-17
-6.47237e-17
5.73173e-17
9.07448e-17
9.00884e-17
9.1341e-17
0
-5.66098e-17
0
4.94697e-18
-5.13787e-18
0
-7.51316e-19
4.42124e-17
2.13026e-16
3.63911e-17
-8.31159e-17
2.85368e-16
-8.13663e-17
0
0
-1.44288e-16
-8.79225e-17
-8.72756e-17
-2.05006e-16
-2.84718e-17
0
0
0
-1.50807e-17
1.59591e-17
1.28005e-16
-4.50121e-17
4.18658e-17
0
-2.4359e-16
-1.68935e-16
2.11757e-16
-2.23882e-16
-3.03509e-16
3.12711e-16
1.26451e-16
0
1.40081e-16
2.18955e-16
-4.51496e-17
2.75286e-16
-4.62624e-17
4.81479e-17
2.19495e-16
-1.21712e-16
0
-3.95687e-16
0
-3.42998e-16
3.24392e-16
0
4.74135e-16
2.07293e-16
-4.97902e-16
4.61953e-16
-1.9677e-19
-1.25229e-16
-2.11994e-16
0
4.09626e-16
-6.42732e-16
7.05179e-16
-9.02321e-16
0
0
4.02642e-16
-1.11466e-17
-2.56504e-17
-7.06473e-16
7.4368e-16
-3.41497e-16
3.40105e-16
3.36836e-16
-2.37788e-16
0
0
6.21398e-16
-6.32103e-16
-6.08474e-16
6.18936e-16
-6.17614e-16
6.82676e-16
-1.08839e-15
0
)
;

boundaryField
{
    up
    {
        type            calculated;
        value           nonuniform List<scalar> 
84
(
0
0
0
0
-2.75634e-17
4.50731e-17
-1.66186e-17
5.74812e-18
-5.26582e-18
0
-7.37637e-19
6.69101e-19
-1.11854e-19
6.4793e-20
2.49263e-20
1.52677e-20
0
0
-7.5979e-22
5.84606e-22
2.68021e-22
-2.60246e-22
1.53712e-23
0
9.46141e-23
8.25828e-23
-5.22775e-22
0
6.44482e-22
1.40566e-22
-2.60421e-22
7.77136e-22
-5.60072e-22
0
9.91436e-21
1.84352e-20
-2.94721e-20
5.15304e-20
0
-1.47845e-20
0
0
-9.45394e-21
1.69081e-20
-1.63371e-20
2.28014e-20
-4.15452e-20
2.36866e-20
-8.85851e-21
-1.49183e-20
0
0
0
8.36596e-22
5.61963e-23
7.3412e-23
0
-6.01137e-22
-5.14152e-22
2.92264e-22
0
0
-2.87572e-22
7.05625e-22
-1.18586e-21
9.9879e-22
0
7.27318e-22
0
0
-9.74247e-20
8.60688e-20
-6.04732e-19
6.61778e-19
0
-5.61194e-18
5.74781e-18
-5.99245e-19
0
4.42124e-17
-4.50121e-17
0
0
0
)
;
    }
    low
    {
        type            calculated;
        value           nonuniform List<scalar> 
84
(
-8.08933e-16
7.76108e-16
-3.3873e-16
5.9331e-16
1.10655e-16
-2.87476e-17
2.39859e-16
6.40955e-17
0
9.37594e-16
-2.37145e-16
1.22962e-16
-1.85036e-16
-1.41887e-15
2.30986e-16
0
-2.13292e-16
5.05303e-17
-5.01417e-17
-1.35658e-16
8.66509e-17
1.98016e-16
4.26655e-16
-3.17824e-16
0
-6.03729e-17
-3.12867e-17
0
-2.91646e-16
-9.22087e-17
-3.47431e-16
-3.75303e-16
4.06343e-16
1.27029e-16
8.7802e-16
7.00497e-17
0
5.56527e-16
6.11507e-16
3.44729e-16
-1.82449e-16
6.67348e-17
6.67374e-17
0
2.65115e-16
6.84496e-16
4.84526e-16
1.19314e-16
0
-1.21439e-15
7.07557e-16
-4.70535e-19
-4.14325e-19
2.5021e-16
0
-6.68195e-16
0
-4.16697e-17
7.10688e-17
1.60042e-16
2.57191e-16
3.4986e-16
-2.12309e-19
7.81203e-16
0
0
-5.60939e-16
6.94844e-16
-6.73746e-16
-2.30699e-16
5.29546e-16
-4.25481e-16
1.09178e-15
5.36572e-16
4.63492e-16
-9.05331e-16
6.08492e-16
-1.69278e-16
3.89918e-16
-2.64723e-16
2.13026e-16
4.67836e-17
-3.95687e-16
4.04019e-16
)
;
    }
    left
    {
        type            calculated;
        value           nonuniform List<scalar> 
19
(
-8.06179e-16
-3.66154e-16
4.00055e-16
3.54375e-17
-7.0104e-16
0
-2.92527e-16
-2.89756e-16
-5.52064e-17
-1.6875e-16
-7.63752e-20
-1.71725e-16
8.16552e-16
-1.76018e-16
8.01064e-16
7.05334e-16
4.23629e-16
6.39042e-16
0
)
;
    }
    right
    {
        type            calculated;
        value           nonuniform List<scalar> 
19
(
4.02642e-16
-1.08553e-17
-2.56504e-17
-7.08249e-16
7.46258e-16
-3.41497e-16
3.40105e-16
3.36836e-16
-2.34024e-16
0
0
6.30313e-16
-6.42066e-16
-6.08474e-16
6.18936e-16
-6.17614e-16
6.82676e-16
-1.17504e-15
0
)
;
    }
    frontAndBackPlanes
    {
        type            empty;
    }
}


// ************************************************************************* //
