/*--------------------------------*- C++ -*----------------------------------*\
  =========                 |
  \\      /  F ield         | OpenFOAM: The Open Source CFD Toolbox
   \\    /   O peration     | Website:  https://openfoam.org
    \\  /    A nd           | Version:  7
     \\/     M anipulation  |
\*---------------------------------------------------------------------------*/
FoamFile
{
    version     2.0;
    format      ascii;
    class       volScalarField;
    location    "0.06";
    object      gradTy;
}
// * * * * * * * * * * * * * * * * * * * * * * * * * * * * * * * * * * * * * //

dimensions      [0 -1 0 1 0 0 0];

internalField   nonuniform List<scalar> 
1596
(
-1.28294
-2.32573
-3.07983
-3.68517
-4.1426
-4.55642
-4.89166
-5.23981
-5.6111
-5.99612
-6.55252
-7.226
-8.21198
-9.72239
-12.2918
-16.5384
-24.4664
-39.3659
-92.9432
-3.81495
-4.53312
-4.81531
-4.91387
-4.90083
-4.91731
-4.94656
-5.06499
-5.27165
-5.53138
-5.97385
-6.53995
-7.36969
-8.56766
-10.4347
-13.1006
-17.2641
-23.5124
-41.3118
-6.56496
-6.5643
-6.24981
-5.82307
-5.36188
-5.00679
-4.74715
-4.6411
-4.67402
-4.79444
-5.09906
-5.52094
-6.15947
-7.07023
-8.45753
-10.3409
-13.1236
-17.0359
-25.3843
-9.12101
-8.30269
-7.39055
-6.47568
-5.61478
-4.92821
-4.40847
-4.09423
-3.95992
-3.94426
-4.11041
-4.38783
-4.8421
-5.50124
-6.51154
-7.85561
-9.79538
-12.4185
-16.8909
-11.1181
-9.6712
-8.27727
-6.9615
-5.76982
-4.80171
-4.05628
-3.55588
-3.26843
-3.12823
-3.16729
-3.31552
-3.60983
-4.06086
-4.77478
-5.7274
-7.10499
-8.94313
-11.6691
-12.3732
-10.642
-8.95415
-7.35668
-5.91484
-4.71987
-3.78458
-3.12167
-2.69759
-2.4467
-2.37437
-2.41325
-2.57619
-2.86121
-3.34259
-3.99945
-4.96988
-6.27521
-8.08804
-12.9197
-11.2277
-9.44623
-7.69659
-6.08916
-4.72376
-3.63453
-2.83306
-2.28929
-1.94132
-1.77382
-1.72301
-1.7823
-1.93967
-2.24243
-2.67422
-3.33658
-4.24949
-5.49704
-12.9244
-11.4656
-9.75308
-7.97136
-6.28108
-4.80262
-3.59682
-2.68228
-2.03694
-1.60555
-1.35858
-1.2359
-1.21622
-1.27947
-1.45039
-1.71529
-2.14532
-2.76067
-3.61274
-12.5952
-11.4698
-9.92819
-8.20111
-6.49174
-4.94643
-3.65441
-2.6478
-1.91588
-1.41199
-1.09829
-0.917913
-0.839051
-0.835356
-0.913624
-1.06059
-1.32202
-1.71585
-2.27808
-12.0532
-11.2251
-9.89765
-8.29133
-6.62565
-5.06777
-3.73111
-2.66424
-1.86951
-1.31016
-0.945431
-0.721728
-0.600728
-0.551733
-0.568419
-0.636625
-0.782134
-1.01844
-1.37162
-11.5652
-10.9072
-9.75671
-8.28104
-6.68722
-5.15029
-3.79957
-2.69862
-1.86224
-1.26335
-0.861743
-0.606974
-0.457181
-0.378984
-0.35724
-0.376432
-0.447679
-0.578929
-0.787851
-11.0901
-10.5916
-9.58502
-8.22561
-6.70668
-5.2041
-3.85584
-2.7375
-1.87441
-1.248
-0.82046
-0.543968
-0.374998
-0.278576
-0.23402
-0.224516
-0.251266
-0.317065
-0.432416
-10.5805
-10.2156
-9.33273
-8.07944
-6.6385
-5.18447
-3.85809
-2.74313
-1.87247
-1.23427
-0.793974
-0.506067
-0.326845
-0.220761
-0.164114
-0.139269
-0.141364
-0.169273
-0.228049
-10.1883
-9.87159
-9.06359
-7.88659
-6.50949
-5.10329
-3.80728
-2.70911
-1.84561
-1.20905
-0.767551
-0.477359
-0.295321
-0.185999
-0.124391
-0.0925688
-0.0823693
-0.0901145
-0.117114
-9.87072
-9.58181
-8.80961
-7.67607
-6.34218
-4.97534
-3.71112
-2.63741
-1.79156
-1.16722
-0.733988
-0.449108
-0.270233
-0.162451
-0.100534
-0.066724
-0.0513667
-0.049409
-0.0599131
-9.58749
-9.32879
-8.5715
-7.45526
-6.14451
-4.80663
-3.57304
-2.529
-1.70927
-1.10625
-0.689496
-0.416513
-0.245803
-0.14328
-0.0841993
-0.0513749
-0.0347866
-0.0288659
-0.0315421
-9.36614
-9.11491
-8.35118
-7.22853
-5.92156
-4.60158
-3.39633
-2.38599
-1.59972
-1.02615
-0.633129
-0.37778
-0.219421
-0.125078
-0.0710081
-0.0409524
-0.0252131
-0.0182754
-0.0176647
-9.20966
-8.95184
-8.16121
-7.00932
-5.68694
-4.37277
-3.19183
-2.21709
-1.46944
-0.931382
-0.567531
-0.334061
-0.191046
-0.106867
-0.0591429
-0.0328307
-0.0189536
-0.0123906
-0.0106846
-9.05302
-8.83676
-8.02019
-6.82324
-5.46714
-4.14456
-2.98021
-2.03872
-1.33066
-0.830512
-0.498261
-0.288621
-0.162288
-0.0891002
-0.0482324
-0.0260071
-0.0143607
-0.0087332
-0.00689096
-8.87731
-8.73309
-7.90186
-6.65388
-5.25253
-3.9122
-2.76009
-1.85169
-1.1853
-0.725686
-0.427187
-0.24281
-0.133942
-0.0720947
-0.0381998
-0.0200883
-0.0107257
-0.00619903
-0.00459366
-8.74908
-8.66211
-7.81401
-6.50664
-5.04861
-3.68153
-2.53741
-1.66161
-1.03826
-0.620805
-0.357161
-0.19853
-0.10715
-0.0564353
-0.0292482
-0.0150199
-0.0077952
-0.00433468
-0.0030718
-8.6378
-8.62295
-7.76056
-6.38875
-4.86531
-3.46351
-2.32261
-1.47738
-0.896437
-0.520812
-0.291454
-0.157779
-0.0830313
-0.0426819
-0.0216013
-0.0108302
-0.00547534
-0.00294708
-0.00201662
-8.51425
-8.60004
-7.73751
-6.30424
-4.7118
-3.26942
-2.12649
-1.30785
-0.766267
-0.429918
-0.232588
-0.121934
-0.0622611
-0.0311138
-0.0153352
-0.00749776
-0.00369632
-0.00193047
-0.00127547
-8.37446
-8.5765
-7.72939
-6.24352
-4.58479
-3.09983
-1.95122
-1.15491
-0.648734
-0.348302
-0.18017
-0.0904059
-0.0442578
-0.0212531
-0.0100908
-0.00477221
-0.00228581
-0.00115758
-0.000699195
-8.23572
-8.57308
-7.8044
-6.33518
-4.65567
-3.13709
-1.96118
-1.1491
-0.637505
-0.337845
-0.172528
-0.0857228
-0.0417176
-0.0200325
-0.00957536
-0.00461033
-0.00227923
-0.00120563
-0.000714276
-8.11226
-8.56749
-7.90408
-6.50154
-4.8404
-3.30087
-2.08521
-1.23171
-0.68696
-0.365015
-0.186364
-0.0924407
-0.0448979
-0.0215473
-0.0103207
-0.00500746
-0.00251836
-0.00138041
-0.0008767
-8.08196
-8.57852
-7.99227
-6.66448
-5.04404
-3.50274
-2.25457
-1.35612
-0.76881
-0.414119
-0.213528
-0.106531
-0.0518268
-0.0248227
-0.0118272
-0.00570146
-0.00286178
-0.00159306
-0.00105346
-8.16483
-8.62137
-8.07007
-6.8121
-5.24956
-3.72791
-2.46115
-1.5209
-0.886074
-0.490006
-0.258699
-0.131648
-0.0649764
-0.0313524
-0.0148954
-0.00706345
-0.00343662
-0.00185768
-0.00122547
-8.34058
-8.71082
-8.16195
-6.96487
-5.46913
-3.98257
-2.70944
-1.73171
-1.046
-0.600572
-0.329199
-0.173754
-0.0887248
-0.0440919
-0.021364
-0.0101337
-0.004749
-0.00237022
-0.0014383
-8.59856
-8.84155
-8.27322
-7.12957
-5.70483
-4.26426
-2.99597
-1.98725
-1.25073
-0.750746
-0.431275
-0.239055
-0.128404
-0.0671975
-0.0342217
-0.0168841
-0.00793279
-0.00366567
-0.00187522
-8.93249
-9.0281
-8.43296
-7.33584
-5.97899
-4.58666
-3.32854
-2.29321
-1.5064
-0.947934
-0.573167
-0.335748
-0.191424
-0.106922
-0.0584677
-0.0310908
-0.0155296
-0.00716536
-0.00313673
-9.25315
-9.24703
-8.63869
-7.58808
-6.29663
-4.9533
-3.70962
-2.65259
-1.81791
-1.19933
-0.763823
-0.473534
-0.287294
-0.17202
-0.101892
-0.0595478
-0.033027
-0.0165699
-0.0071071
-9.6122
-9.51718
-8.89584
-7.88501
-6.6527
-5.35752
-4.13301
-3.06165
-2.1853
-1.50913
-1.01093
-0.662362
-0.426915
-0.273435
-0.175153
-0.112905
-0.0710576
-0.0415025
-0.0190377
-10.048
-9.86439
-9.22553
-8.24639
-7.06693
-5.81952
-4.61951
-3.54241
-2.63253
-1.90346
-1.34285
-0.931751
-0.639819
-0.439728
-0.305746
-0.218514
-0.159417
-0.117321
-0.083062
-10.5303
-10.2525
-9.56917
-8.59066
-7.4382
-6.22424
-5.0465
-3.97206
-3.04336
-2.27743
-1.66928
-1.20637
-0.86446
-0.620343
-0.451128
-0.338983
-0.265949
-0.219758
-0.188622
-11.0903
-10.6725
-9.90215
-8.88267
-7.71969
-6.5109
-5.33975
-4.26586
-3.32791
-2.54242
-1.9083
-1.41547
-1.04352
-0.771681
-0.579393
-0.449505
-0.365921
-0.317548
-0.294459
-11.7363
-11.146
-10.2688
-9.18716
-7.9906
-6.76483
-5.58333
-4.49993
-3.55003
-2.74889
-2.0969
-1.58499
-1.1946
-0.90629
-0.70071
-0.560553
-0.469613
-0.415602
-0.387137
-12.3104
-11.5718
-10.5994
-9.4588
-8.22778
-6.98267
-5.78953
-4.69701
-3.73749
-2.92478
-2.25969
-1.73393
-1.33012
-1.02985
-0.814722
-0.667688
-0.572684
-0.51712
-0.489105
-12.7501
-11.9209
-10.882
-9.69666
-8.43762
-7.17569
-5.97183
-4.8709
-3.90298
-3.08066
-2.40505
-1.86838
-1.45417
-1.14484
-0.922788
-0.77112
-0.673935
-0.618315
-0.591871
-13.0957
-12.1988
-11.1088
-9.88806
-8.60618
-7.33017
-6.11725
-5.00947
-4.03508
-3.20568
-2.52255
-1.97819
-1.55678
-1.24132
-1.01482
-0.860457
-0.762478
-0.707679
-0.683291
-13.3495
-12.4005
-11.2702
-10.022
-8.72261
-7.43609
-6.21669
-5.10432
-4.12589
-3.29219
-2.60455
-2.05563
-1.63
-1.31104
-1.08217
-0.926569
-0.828596
-0.774808
-0.752145
-13.5304
-12.519
-11.355
-10.0878
-8.77793
-7.48587
-6.26361
-5.14964
-4.16997
-3.33489
-2.64571
-2.09512
-1.66791
-1.34764
-1.11799
-0.962165
-0.864612
-0.811795
-0.790525
-13.5304
-12.5191
-11.3551
-10.0879
-8.77815
-7.4861
-6.26385
-5.14987
-4.17019
-3.3351
-2.6459
-2.09529
-1.66806
-1.34778
-1.11811
-0.962283
-0.864727
-0.811912
-0.790648
-13.3496
-12.4007
-11.2706
-10.0224
-8.7232
-7.43674
-6.21736
-5.10499
-4.12654
-3.2928
-2.60511
-2.05613
-1.63045
-1.31144
-1.08253
-0.926915
-0.828936
-0.775157
-0.752517
-13.0958
-12.1991
-11.1094
-9.88885
-8.60711
-7.33121
-6.11834
-5.01056
-4.03613
-3.20666
-2.52344
-1.97899
-1.55749
-1.24195
-1.01539
-0.86099
-0.762995
-0.708204
-0.683846
-12.7503
-11.9214
-10.8828
-9.69769
-8.43885
-7.17706
-5.97327
-4.87234
-3.90436
-3.08195
-2.40621
-1.86941
-1.45507
-1.14563
-0.923497
-0.77177
-0.674556
-0.618937
-0.592523
-12.3106
-11.5723
-10.6003
-9.46003
-8.22927
-6.98435
-5.7913
-4.69878
-3.73918
-2.92634
-2.26108
-1.73515
-1.33117
-1.03076
-0.815518
-0.668403
-0.573354
-0.51778
-0.48979
-11.7365
-11.1466
-10.2698
-9.18854
-7.99231
-6.76676
-5.58538
-4.50198
-3.55198
-2.75066
-2.09846
-1.58633
-1.19573
-0.907246
-0.701527
-0.561268
-0.470266
-0.416226
-0.387765
-11.0906
-10.6733
-9.90341
-8.88445
-7.72191
-6.51344
-5.34244
-4.26854
-3.33044
-2.54469
-1.91027
-1.41713
-1.04491
-0.772826
-0.580354
-0.450328
-0.36665
-0.318216
-0.295092
-10.5304
-10.2527
-9.56984
-8.59191
-7.44006
-6.22661
-5.04919
-3.97485
-3.04606
-2.27987
-1.67138
-1.2081
-0.86583
-0.621398
-0.451926
-0.339588
-0.266458
-0.220316
-0.189412
-10.0481
-9.86518
-9.22715
-8.24892
-7.07029
-5.82348
-4.62375
-3.54661
-2.63642
-1.90686
-1.34571
-0.934061
-0.641645
-0.441158
-0.306882
-0.219463
-0.160287
-0.118224
-0.0840849
-9.61223
-9.51757
-8.89692
-7.88691
-6.65532
-5.36062
-4.13628
-3.06479
-2.18808
-1.51145
-1.01276
-0.663747
-0.427933
-0.274178
-0.175713
-0.113366
-0.0714655
-0.0418492
-0.0192615
-9.25312
-9.24732
-8.6397
-7.58992
-6.29918
-4.95627
-3.71266
-2.65541
-1.82031
-1.20124
-0.765258
-0.474566
-0.288014
-0.172521
-0.102255
-0.0598355
-0.0332658
-0.0167385
-0.00715814
-8.93241
-9.0283
-8.43387
-7.33758
-5.9814
-4.58942
-3.33129
-2.29566
-1.50841
-0.949456
-0.574254
-0.336491
-0.191917
-0.107248
-0.0586917
-0.0312545
-0.0156501
-0.00723589
-0.00313568
-8.59846
-8.84168
-8.27405
-7.13121
-5.7071
-4.2668
-2.99841
-1.98935
-1.25237
-0.751935
-0.432084
-0.239581
-0.128736
-0.0674058
-0.0343555
-0.0169719
-0.00798709
-0.00368924
-0.00186329
-8.34043
-8.71089
-8.16269
-6.96639
-5.4712
-3.98483
-2.71155
-1.73345
-1.04731
-0.601481
-0.32979
-0.17412
-0.0889441
-0.0442221
-0.0214413
-0.0101782
-0.00477096
-0.00237534
-0.0014281
-8.1647
-8.62141
-8.07073
-6.81347
-5.2514
-3.72987
-2.46291
-1.52231
-0.887089
-0.490682
-0.25912
-0.131898
-0.0651195
-0.0314324
-0.014939
-0.00708529
-0.00344475
-0.00185755
-0.00121969
-8.08184
-8.57857
-7.99287
-6.66569
-5.04561
-3.50437
-2.25599
-1.35721
-0.769576
-0.414614
-0.213827
-0.106703
-0.0519213
-0.024873
-0.0118526
-0.00571281
-0.00286523
-0.00159275
-0.0010515
-8.11215
-8.56754
-7.90457
-6.50249
-4.84161
-3.30209
-2.08626
-1.2325
-0.687504
-0.36536
-0.186568
-0.0925553
-0.0449593
-0.0215789
-0.0103359
-0.00501396
-0.00252043
-0.00138082
-0.000876954
-8.23581
-8.57319
-7.80461
-6.33549
-4.65605
-3.13746
-1.9615
-1.14935
-0.63768
-0.337959
-0.172597
-0.0857621
-0.0417389
-0.0200435
-0.0095806
-0.00461255
-0.00228009
-0.00120609
-0.000714191
-8.37454
-8.57652
-7.72925
-6.24324
-4.58444
-3.09947
-1.95091
-1.15467
-0.64856
-0.348183
-0.180091
-0.0903558
-0.044227
-0.0212348
-0.01008
-0.00476592
-0.00228221
-0.00115552
-0.000697378
-8.51431
-8.60007
-7.7375
-6.30421
-4.71179
-3.26944
-2.12652
-1.30788
-0.766291
-0.429932
-0.232594
-0.121935
-0.0622601
-0.031112
-0.0153334
-0.00749634
-0.00369531
-0.00192978
-0.00127469
-8.63784
-8.62297
-7.76054
-6.3887
-4.86528
-3.4635
-2.32262
-1.4774
-0.896449
-0.52082
-0.291458
-0.15778
-0.0830315
-0.0426814
-0.0216006
-0.0108296
-0.00547482
-0.00294672
-0.00201614
-8.74912
-8.66213
-7.814
-6.50661
-5.04859
-3.68152
-2.53741
-1.66161
-1.03826
-0.62081
-0.357165
-0.198532
-0.107151
-0.056436
-0.0292484
-0.0150198
-0.0077951
-0.0043347
-0.00307164
-8.87733
-8.73311
-7.90185
-6.65386
-5.25251
-3.91219
-2.76009
-1.85168
-1.1853
-0.725688
-0.42719
-0.242813
-0.133945
-0.0720965
-0.0382008
-0.0200888
-0.0107261
-0.00619974
-0.00459414
-9.05303
-8.83677
-8.02019
-6.82324
-5.46714
-4.14456
-2.9802
-2.03871
-1.33065
-0.830511
-0.498263
-0.288624
-0.162291
-0.0891027
-0.048234
-0.0260081
-0.014362
-0.00873531
-0.00689287
-9.20966
-8.95184
-8.16122
-7.00933
-5.68695
-4.37277
-3.19182
-2.21708
-1.46943
-0.931377
-0.567531
-0.334063
-0.191049
-0.106869
-0.0591447
-0.0328322
-0.0189562
-0.0123956
-0.0106895
-9.36613
-9.11491
-8.35119
-7.22855
-5.92157
-4.60158
-3.39632
-2.38598
-1.59971
-1.02614
-0.633126
-0.377781
-0.219424
-0.125081
-0.0710098
-0.0409544
-0.0252185
-0.0182861
-0.0176752
-9.58747
-9.32879
-8.57152
-7.45529
-6.14453
-4.80663
-3.57303
-2.52898
-1.70925
-1.10624
-0.689491
-0.416513
-0.245805
-0.143281
-0.0841999
-0.0513777
-0.0347971
-0.0288871
-0.031562
-9.87069
-9.5818
-8.80963
-7.67611
-6.34221
-4.97535
-3.71111
-2.63739
-1.79154
-1.16721
-0.733981
-0.449105
-0.270232
-0.162449
-0.100532
-0.0667282
-0.0513863
-0.0494471
-0.0599459
-10.1883
-9.87158
-9.06361
-7.88663
-6.50952
-5.1033
-3.80727
-2.7091
-1.8456
-1.20903
-0.767543
-0.477353
-0.295315
-0.185992
-0.124386
-0.0925763
-0.0824035
-0.0901756
-0.11716
-10.5805
-10.2156
-9.33275
-8.07948
-6.63853
-5.18448
-3.85809
-2.74311
-1.87245
-1.23426
-0.793963
-0.506056
-0.326833
-0.220746
-0.164106
-0.139283
-0.141417
-0.169358
-0.228099
-11.09
-10.5916
-9.58504
-8.22564
-6.70671
-5.20411
-3.85583
-2.73749
-1.87439
-1.24798
-0.820445
-0.54395
-0.374975
-0.278553
-0.234011
-0.224541
-0.251338
-0.317161
-0.432448
-11.5652
-10.9071
-9.75673
-8.28107
-6.68725
-5.15031
-3.79957
-2.69862
-1.86223
-1.26333
-0.861723
-0.606946
-0.457149
-0.378956
-0.357236
-0.376469
-0.447757
-0.579005
-0.787832
-12.0532
-11.2251
-9.89768
-8.29135
-6.62567
-5.06777
-3.7311
-2.66423
-1.8695
-1.31015
-0.945402
-0.721691
-0.600688
-0.551707
-0.568427
-0.636671
-0.782192
-1.01844
-1.37152
-12.5952
-11.4698
-9.92822
-8.20113
-6.49173
-4.94642
-3.6544
-2.64778
-1.91587
-1.41197
-1.09826
-0.917869
-0.839014
-0.835344
-0.913648
-1.06063
-1.32202
-1.71575
-2.27789
-12.9244
-11.4656
-9.7531
-7.97136
-6.28106
-4.8026
-3.59681
-2.68227
-2.03692
-1.60552
-1.35854
-1.23586
-1.2162
-1.27949
-1.45044
-1.71531
-2.14524
-2.76045
-3.61253
-12.9197
-11.2277
-9.44625
-7.69658
-6.08914
-4.72374
-3.63452
-2.83304
-2.28927
-1.94129
-1.77379
-1.72299
-1.78231
-1.93972
-2.24248
-2.67421
-3.33642
-4.2492
-5.49688
-12.3733
-10.6421
-8.95417
-7.35667
-5.91483
-4.71986
-3.78457
-3.12166
-2.69757
-2.44668
-2.37436
-2.41327
-2.57625
-2.86128
-3.34264
-3.99941
-4.96969
-6.27494
-8.08802
-11.1181
-9.67123
-8.27729
-6.96152
-5.76983
-4.80171
-4.05628
-3.55587
-3.26842
-3.12824
-3.16732
-3.31558
-3.60992
-4.06094
-4.77481
-5.72733
-7.10482
-8.94299
-11.6692
-9.12102
-8.30268
-7.39057
-6.47571
-5.61481
-4.92824
-4.40849
-4.09424
-3.95993
-3.94429
-4.11046
-4.38791
-4.8422
-5.50131
-6.51153
-7.85552
-9.79528
-12.4185
-16.8912
-6.56496
-6.56425
-6.24981
-5.8231
-5.36192
-5.00682
-4.74717
-4.64112
-4.67405
-4.79449
-5.09914
-5.52104
-6.15956
-7.07027
-8.45749
-10.3408
-13.1236
-17.036
-25.3845
-3.81495
-4.53306
-4.81528
-4.91387
-4.90084
-4.91733
-4.94659
-5.06501
-5.27169
-5.53144
-5.97392
-6.54003
-7.36975
-8.56766
-10.4346
-13.1005
-17.264
-23.5125
-41.3118
-1.28295
-2.32571
-3.07979
-3.68514
-4.14259
-4.55642
-4.89166
-5.23983
-5.61112
-5.99616
-6.55257
-7.22605
-8.212
-9.72235
-12.2917
-16.5382
-24.4663
-39.3659
-92.9432
)
;

boundaryField
{
    up
    {
        type            calculated;
        value           nonuniform List<scalar> 
84
(
-84.2528
-45.6146
-27.7485
-18.3643
-12.6756
-8.80342
-6.00375
-3.96065
-2.50557
-1.51254
-0.86971
-0.476854
-0.250554
-0.127602
-0.0643002
-0.0330689
-0.0179669
-0.0105279
-0.00660663
-0.00431392
-0.00284103
-0.0018423
-0.00114332
-0.000570316
-0.0005593
-0.000763923
-0.000934525
-0.00108503
-0.00122102
-0.00142223
-0.00199419
-0.0038183
-0.0112018
-0.074541
-0.184326
-0.289651
-0.378641
-0.48118
-0.584911
-0.677435
-0.747182
-0.786289
-0.786416
-0.747568
-0.678008
-0.585581
-0.481884
-0.379277
-0.290256
-0.185186
-0.0757157
-0.0114051
-0.00380847
-0.00195033
-0.00138729
-0.00120011
-0.00107482
-0.000930956
-0.00076422
-0.000559206
-0.000568243
-0.0011423
-0.00184163
-0.00284063
-0.00431404
-0.00660796
-0.0105317
-0.0179753
-0.0330844
-0.0643237
-0.127629
-0.25057
-0.476831
-0.869615
-1.51235
-2.50534
-3.96045
-6.00371
-8.80363
-12.676
-18.3647
-27.7487
-45.6145
-84.2526
)
;
    }
    low
    {
        type            calculated;
        value           nonuniform List<scalar> 
84
(
-1.38319
-4.0103
-6.96509
-9.75233
-11.9347
-13.2776
-13.7999
-13.7069
-13.2118
-12.4878
-11.9221
-11.3781
-10.7662
-10.3267
-9.98779
-9.66379
-9.40592
-9.24662
-9.06401
-8.81329
-8.62167
-8.45272
-8.25328
-8.03723
-7.77042
-7.57507
-7.54197
-7.70251
-7.98535
-8.37247
-8.81748
-9.2044
-9.63026
-10.1369
-10.6723
-11.3036
-12.0484
-12.677
-13.1425
-13.5097
-13.7819
-13.9959
-13.996
-13.782
-13.5098
-13.1426
-12.6771
-12.0486
-11.3037
-10.6722
-10.137
-9.63013
-9.20429
-8.81735
-8.37234
-7.9852
-7.7024
-7.54188
-7.57501
-7.77041
-8.03738
-8.25326
-8.45275
-8.62169
-8.8133
-9.06401
-9.24662
-9.4059
-9.66376
-9.98775
-10.3266
-10.7661
-11.3781
-11.9221
-12.4878
-13.2118
-13.7068
-13.7999
-13.2777
-11.9347
-9.75237
-6.96514
-4.01035
-1.38321
)
;
    }
    left
    {
        type            calculated;
        value           nonuniform List<scalar> 
19
(
-1.26466
-2.30009
-3.08268
-3.72355
-4.21503
-4.65753
-5.01555
-5.38553
-5.77648
-6.18752
-6.78143
-7.5045
-8.57872
-10.2582
-13.1409
-17.9881
-27.1303
-44.4933
-87.3336
)
;
    }
    right
    {
        type            calculated;
        value           nonuniform List<scalar> 
19
(
-1.26467
-2.30008
-3.08265
-3.72353
-4.21502
-4.65753
-5.01555
-5.38554
-5.7765
-6.18756
-6.78147
-7.50452
-8.57871
-10.2581
-13.1408
-17.9878
-27.1301
-44.4933
-87.3337
)
;
    }
    frontAndBackPlanes
    {
        type            empty;
    }
}


// ************************************************************************* //
