/*--------------------------------*- C++ -*----------------------------------*\
  =========                 |
  \\      /  F ield         | OpenFOAM: The Open Source CFD Toolbox
   \\    /   O peration     | Website:  https://openfoam.org
    \\  /    A nd           | Version:  7
     \\/     M anipulation  |
\*---------------------------------------------------------------------------*/
FoamFile
{
    version     2.0;
    format      ascii;
    class       volScalarField;
    location    "0.02";
    object      gradTz;
}
// * * * * * * * * * * * * * * * * * * * * * * * * * * * * * * * * * * * * * //

dimensions      [0 -1 0 1 0 0 0];

internalField   nonuniform List<scalar> 
1596
(
-4.82807e-16
-1.78331e-16
2.30142e-16
4.70696e-17
-3.80064e-16
0
-1.39716e-16
-1.38728e-16
-5.48265e-17
-8.91396e-17
1.54807e-19
-9.10961e-17
4.83954e-16
-9.54579e-17
4.09193e-16
3.68391e-16
2.21608e-16
3.49618e-16
0
4.20559e-16
0
3.95632e-16
-1.007e-17
-7.09901e-17
8.33029e-17
2.46513e-16
4.03135e-17
1.02044e-16
-5.11801e-17
1.03678e-16
4.60057e-19
-1.37453e-16
-8.66101e-17
-3.22357e-16
-3.31638e-16
-3.21147e-16
2.1158e-16
0
-1.47856e-16
0
-1.92761e-16
1.37388e-17
1.17353e-16
-6.60918e-17
1.36353e-17
-3.63416e-19
-1.26521e-19
5.20249e-20
1.43488e-17
0
7.09684e-17
1.68974e-16
-1.65191e-17
1.70505e-17
3.61211e-17
9.11358e-17
0
3.22849e-16
-4.6491e-17
4.63212e-17
0
-3.34014e-17
-3.79826e-17
4.40696e-17
-2.23298e-17
0
0
-2.90541e-17
7.61709e-18
0
-4.07967e-17
-3.62625e-17
2.88831e-17
-5.37554e-17
-2.42574e-18
0
6.50996e-17
8.98203e-17
-4.07213e-17
0
-5.79481e-18
-2.12098e-17
0
2.69234e-17
-2.0098e-18
-1.91546e-18
-1.14235e-17
9.91487e-18
1.45923e-17
2.2665e-18
1.14928e-17
-3.09964e-17
1.32674e-18
1.47922e-17
-9.11256e-18
-1.69053e-17
-1.15996e-16
6.64351e-17
-3.61322e-17
-3.35076e-19
-1.33899e-17
3.08076e-19
-3.09098e-19
-6.45443e-18
0
-5.89109e-18
-1.23071e-17
-1.28909e-17
6.9716e-18
1.47054e-17
-1.62179e-19
-8.25843e-18
-1.50035e-17
1.39483e-17
1.41281e-16
-1.26707e-16
8.25069e-17
2.3838e-17
0
1.08292e-17
4.15329e-18
-1.69482e-18
7.79979e-18
-1.14933e-18
-6.7457e-18
-2.40149e-21
-2.74838e-18
-6.96532e-18
-3.71655e-18
3.98515e-18
8.33113e-18
-1.29217e-19
-4.60613e-18
5.58243e-17
2.22885e-16
-1.48355e-16
0
0
-1.17792e-17
0
0
0
2.10448e-18
0
0
2.77817e-18
-1.61723e-20
2.18852e-18
-3.67266e-18
0
2.00975e-18
1.20789e-18
0
-1.1424e-16
1.91802e-16
0
0
1.2131e-17
0
-1.55054e-18
1.54897e-18
-2.14206e-18
6.42095e-19
-6.46791e-19
0
8.7826e-19
1.84891e-18
0
-1.04155e-18
-2.0405e-18
-1.11232e-18
5.19718e-16
-2.01353e-16
0
-3.6413e-17
3.60055e-17
0
7.09035e-18
0
0
0
4.00384e-19
-4.02304e-19
0
-7.21499e-19
-1.50119e-19
0
5.13278e-19
4.77867e-19
0
-1.29654e-16
0
0
3.85573e-17
-5.84524e-17
9.56182e-18
3.46878e-18
-1.44842e-18
6.55983e-19
1.31589e-19
-4.51727e-19
-4.13212e-19
0
2.47588e-19
-7.587e-20
7.70087e-20
4.53536e-19
-4.08603e-19
-1.45279e-19
2.2572e-17
-4.74585e-17
4.74656e-17
9.34427e-17
-1.83162e-17
-2.12771e-17
0
0
0
1.09197e-18
2.37133e-19
6.52695e-19
-1.4857e-19
-2.43159e-19
-8.86512e-20
-7.84212e-20
3.97114e-20
-1.14956e-19
1.32312e-19
-8.34426e-17
9.64686e-17
-1.26451e-16
-9.31403e-17
6.86432e-17
1.1417e-17
-1.71152e-17
8.78533e-18
-4.49e-18
1.11835e-18
3.93621e-19
-2.0495e-19
4.6879e-20
-5.27727e-20
1.77466e-19
0
-1.81178e-20
1.74311e-19
-2.75561e-20
-7.84192e-16
2.84909e-16
-3.60252e-19
-1.44059e-17
1.14471e-17
1.12066e-17
-1.85557e-17
-3.83021e-18
1.93816e-18
-9.77361e-19
-5.00604e-19
0
-2.44501e-19
-5.96635e-20
-6.67898e-20
-3.6726e-20
1.95366e-21
-6.60396e-20
1.35605e-20
1.25962e-16
-7.6485e-17
-8.33743e-19
-2.50565e-17
-3.3653e-17
2.71227e-17
2.32813e-19
3.73253e-18
-1.88705e-18
1.85975e-18
3.06659e-19
1.79011e-19
2.60924e-19
0
1.10178e-19
4.55304e-20
0
2.4663e-20
6.07032e-21
0
7.41993e-17
2.32857e-17
-6.48119e-17
3.18979e-17
-3.5539e-17
1.66944e-17
2.56648e-18
-1.24999e-18
-2.15142e-18
1.61957e-19
-1.61158e-19
-2.25797e-19
5.62978e-20
-2.47966e-20
-3.91613e-20
1.21766e-20
-7.80732e-21
6.0423e-21
-1.14726e-16
2.18321e-16
-1.75015e-16
4.15398e-17
0
0
-1.67211e-18
4.48975e-18
-1.13818e-18
1.83495e-18
0
0
1.39061e-19
-9.0717e-20
-3.56201e-20
1.07612e-20
-9.81249e-21
5.56817e-21
0
4.34679e-17
1.07799e-16
-3.66536e-17
-2.12198e-17
-1.53855e-17
2.34422e-18
4.99067e-18
0
-9.75832e-19
-3.17863e-19
2.95139e-19
-1.46065e-19
7.3067e-20
0
1.56987e-20
1.89075e-20
0
0
0
-4.26931e-17
5.16342e-17
-9.30211e-18
-6.76451e-17
8.52826e-18
4.78924e-18
0
0
8.19657e-19
-4.78258e-19
-2.85463e-19
1.41272e-19
-7.06613e-20
0
-6.39199e-21
4.10965e-21
0
-2.22778e-21
-7.71074e-22
-5.57737e-17
1.80103e-16
-1.42387e-16
-2.3106e-17
1.4611e-17
-3.60504e-18
1.75707e-18
0
-4.09307e-19
2.36797e-19
0
0
1.86295e-20
-1.86509e-20
2.39151e-21
-4.26145e-21
3.03058e-21
7.62496e-22
5.94089e-22
4.50645e-17
-2.44508e-17
6.63476e-17
-3.88616e-17
-6.12253e-18
1.6466e-18
4.43289e-18
6.73748e-19
3.91645e-19
0
5.95241e-20
-5.38277e-20
2.60985e-20
-1.39594e-20
8.02658e-21
-1.05051e-20
-2.25377e-21
1.71813e-21
3.48311e-22
8.77846e-17
-1.05249e-16
0
1.67583e-17
-1.07389e-17
-2.82285e-18
4.58849e-19
-2.4422e-18
0
-1.9166e-20
-9.35249e-20
-3.29208e-20
2.595e-20
-4.43627e-21
-7.75755e-21
3.9397e-21
0
7.08827e-22
-3.38207e-22
2.49619e-16
-2.00052e-17
3.93441e-17
-2.94138e-17
4.48496e-18
-2.52155e-18
-3.03062e-18
-3.23738e-19
4.71246e-19
-3.99422e-20
-6.94088e-20
4.66716e-20
-1.49027e-20
-9.32568e-21
0
0
0
-7.12667e-22
2.36619e-23
-1.47444e-16
1.28503e-16
-4.35653e-19
4.00991e-18
1.99518e-18
-2.12293e-18
1.74065e-18
-7.79821e-19
3.84087e-19
-4.86826e-20
8.50661e-20
1.31373e-20
-3.70415e-21
2.57229e-22
-2.33843e-22
-6.66862e-22
0
0
0
0
0
1.67129e-17
-1.82402e-17
-1.39203e-17
0
0
-1.79218e-19
-1.65874e-19
7.48798e-20
0
-1.65685e-20
7.87605e-21
-1.43122e-20
1.48792e-20
-2.75877e-21
2.96714e-21
3.02618e-22
0
-2.70456e-17
2.73784e-17
0
-4.40324e-18
3.17688e-18
2.88602e-18
0
1.8093e-19
6.5023e-20
-4.10497e-19
0
-1.82602e-20
8.71119e-21
3.85024e-21
-1.91977e-21
2.03384e-21
0
-6.55214e-22
0
-1.41263e-17
-6.25264e-18
4.63664e-19
4.52421e-18
-6.5417e-18
0
-5.07478e-19
0
4.02166e-19
8.5397e-20
0
6.97935e-20
-5.27768e-20
7.7945e-21
-1.91221e-21
2.49907e-21
3.58271e-21
1.36657e-21
-1.10984e-21
0
2.13073e-17
-8.23092e-18
9.35691e-18
4.29255e-18
0
9.5592e-19
-7.34555e-19
-2.28453e-19
1.67637e-19
-2.36982e-19
-5.35525e-20
0
0
2.54321e-21
0
0
3.42917e-22
0
-1.36082e-16
1.12304e-16
0
2.14727e-18
-1.63894e-18
-7.33463e-20
9.43603e-19
1.72056e-19
-4.27329e-19
-3.76756e-19
3.0372e-19
-8.47111e-20
0
-1.06272e-20
0
0
0
-1.32784e-21
1.06169e-21
-4.88373e-17
2.75471e-17
3.96293e-17
-3.14632e-17
5.31677e-18
8.28365e-19
-9.42152e-19
4.56484e-19
4.40179e-19
1.79677e-19
-3.3474e-19
0
4.1652e-20
-1.25413e-20
-1.20706e-20
-1.07318e-20
7.56575e-21
-3.85167e-22
6.97229e-22
-2.15541e-16
1.32654e-16
-1.18258e-16
1.06215e-17
4.88074e-18
-3.64169e-18
1.99423e-18
-7.17158e-19
0
-2.30675e-19
1.61293e-19
6.33792e-20
6.68549e-20
3.63884e-20
-4.85972e-20
-4.09298e-21
0
-2.64465e-22
-2.58108e-22
-2.31219e-16
-3.54205e-17
-3.33641e-17
2.22894e-17
-1.35707e-17
6.87948e-18
-3.22533e-18
1.30669e-18
-2.43374e-19
-1.81436e-19
-2.36785e-19
1.77118e-19
-1.18544e-20
7.16639e-20
-7.69319e-20
-6.44368e-22
4.33751e-21
0
4.85798e-22
2.49998e-16
-4.19306e-17
0
0
-1.45375e-17
2.34762e-17
-3.80664e-18
-2.89267e-19
1.66005e-18
-9.22152e-20
0
0
-6.70614e-20
0
-8.14246e-20
1.5812e-19
-9.74683e-20
0
-2.2289e-22
6.99871e-17
9.19619e-17
0
-1.86402e-17
-6.87181e-18
-1.24683e-18
-4.0641e-18
8.37215e-19
-1.83401e-18
-4.67739e-19
0
0
1.9531e-19
0
0
-1.41132e-19
2.47952e-19
0
0
4.93415e-16
-1.08206e-16
-1.7854e-16
-4.47198e-17
6.36068e-17
1.05258e-17
3.94065e-18
0
-6.11865e-19
3.92978e-19
8.46717e-19
-2.28156e-19
-1.71386e-19
2.14945e-19
-2.28636e-19
-4.11247e-20
0
0
0
3.8802e-17
-1.9864e-16
1.87601e-16
-1.07306e-17
-4.90406e-17
6.42935e-17
-2.58042e-17
0
0
3.33235e-18
-2.39542e-18
0
-2.89098e-19
5.45468e-19
-2.87179e-20
1.09452e-19
2.74203e-20
6.30703e-22
4.78506e-21
0
0
0
8.32244e-17
-5.8038e-17
2.78096e-17
-3.90582e-17
8.57626e-18
0
-1.25206e-18
1.27988e-18
-1.30811e-18
-1.52249e-19
1.74368e-20
-6.65786e-20
-5.70131e-21
-4.76671e-20
-1.37542e-20
-6.87826e-21
2.90463e-16
-4.49395e-16
1.79671e-16
0
1.64004e-17
-2.35861e-17
1.19746e-17
-9.24685e-18
0
-1.60847e-18
2.33076e-18
0
0
1.78582e-20
0
-8.12713e-20
5.29285e-20
4.8858e-21
1.1564e-20
3.66007e-16
0
-6.01175e-17
6.59727e-17
-2.07531e-17
4.01686e-17
-1.5588e-17
-6.1985e-18
6.26323e-18
-3.98461e-19
0
0
1.17062e-19
-1.44277e-19
-8.72693e-20
1.5666e-19
-3.22236e-20
1.35948e-20
0
2.04792e-16
9.33228e-17
-2.69962e-17
-6.41861e-17
-3.84136e-18
-1.74158e-17
5.95522e-18
1.03638e-17
-3.28095e-19
4.05943e-19
0
0
-1.19922e-19
0
1.00015e-19
-1.06992e-19
0
1.17915e-20
-3.13604e-21
-1.08039e-16
-4.70538e-17
4.45247e-17
-3.0516e-18
-9.88745e-19
1.89529e-18
0
-2.62187e-19
2.5404e-18
-2.12903e-18
0
3.24145e-19
-1.13819e-19
-2.33574e-19
-1.70081e-20
-1.1947e-20
0
-9.33649e-21
0
3.48085e-17
-5.82709e-17
5.52855e-18
1.55682e-17
7.51289e-18
-7.19756e-18
-2.69169e-18
2.99002e-18
-5.616e-19
4.61216e-19
-2.47181e-19
2.54805e-19
0
3.82262e-22
-1.18132e-20
4.29439e-20
-1.32613e-22
0
0
3.481e-17
-3.46796e-17
-1.54773e-17
1.40305e-17
1.30408e-17
-1.31177e-17
-1.34598e-18
1.35084e-18
-5.67042e-19
5.72668e-19
-2.47212e-19
4.22584e-19
-1.16455e-19
-6.11392e-20
-1.40992e-20
5.57305e-21
1.0271e-20
2.52158e-21
-1.87317e-21
0
-7.05291e-18
2.62969e-17
-2.94642e-17
1.29304e-17
-1.17404e-17
0
3.41089e-18
-3.12289e-18
0
4.79951e-19
-5.90131e-19
-2.2296e-19
2.33676e-19
3.23263e-20
0
0
-9.34354e-21
3.32884e-21
1.38168e-16
-2.23825e-16
1.68029e-16
-1.06877e-16
3.57899e-17
-1.49741e-17
1.46883e-17
9.87714e-19
-2.44057e-18
2.14004e-18
0
-6.88957e-19
6.28527e-19
-8.26507e-20
-3.16636e-20
4.03129e-20
2.73546e-20
9.07079e-21
-3.21641e-21
4.06647e-16
0
-6.93021e-17
5.42758e-17
3.79815e-18
-1.79704e-17
2.69321e-17
-1.70461e-17
5.67919e-18
-1.26443e-18
1.29425e-18
1.73321e-19
2.1257e-19
8.05026e-20
-5.01191e-20
-9.72128e-21
-5.86466e-20
0
4.73378e-21
2.50384e-16
-2.82125e-16
0
1.15601e-17
3.07261e-17
-2.8075e-17
2.77734e-18
1.72561e-18
5.75495e-19
6.74231e-19
0
0
-3.42441e-19
5.46156e-19
-1.78882e-19
-4.84159e-20
5.30073e-20
3.72167e-21
-8.68452e-21
1.11359e-16
2.51396e-16
-1.73527e-17
-7.22849e-17
6.49198e-17
4.38658e-18
-2.71814e-18
-1.6854e-18
3.26017e-18
-3.94155e-18
1.28153e-18
-1.30978e-18
9.11117e-20
-1.77529e-19
1.84725e-19
-1.24975e-19
0
0
5.53915e-21
0
5.21372e-17
-9.3346e-17
1.09616e-16
-4.24207e-17
4.23196e-17
0
4.75278e-18
-4.77456e-18
-1.76069e-18
2.40011e-18
0
4.35999e-19
-5.46642e-19
-6.35263e-20
0
-4.48641e-21
-5.98482e-21
-1.65075e-21
-6.78967e-16
2.71299e-16
0
-6.36442e-17
6.36379e-17
1.83149e-17
-1.16382e-17
2.30628e-18
0
-4.57267e-20
1.13274e-19
-2.28314e-19
-1.7155e-19
2.15121e-19
-2.28746e-19
0
2.44708e-20
-3.57879e-22
-3.96592e-21
3.69731e-16
-3.2489e-16
0
1.69127e-17
9.95534e-18
-6.83584e-18
0
-2.417e-18
-1.0834e-18
0
-1.57024e-19
0
1.95841e-19
0
0
2.71172e-20
8.75601e-20
-1.217e-19
0
-8.54519e-19
4.19636e-17
-2.41282e-17
7.54022e-18
-4.6025e-17
1.35034e-17
0
2.89957e-19
6.98449e-19
0
-3.28131e-19
4.5146e-19
-4.74285e-19
3.77998e-20
0
-1.30247e-20
0
0
0
-8.55573e-19
0
2.23005e-17
0
-1.03649e-17
1.05297e-17
0
9.26594e-19
-4.22048e-19
1.12893e-18
-4.61179e-19
6.9186e-20
-7.3178e-20
3.7692e-20
-7.72532e-20
-9.8218e-21
0
-5.91975e-22
0
1.16091e-16
-2.02513e-16
0
-9.40707e-18
4.93268e-18
0
0
-1.50378e-18
0
-2.31317e-19
-1.61767e-19
-6.35883e-20
6.70925e-20
0
9.76495e-21
0
0
5.00966e-22
-2.85665e-22
0
1.15953e-16
-8.78781e-17
8.7088e-18
-4.56768e-18
-7.859e-19
1.74239e-18
1.0573e-18
-6.26742e-19
1.8999e-19
4.70104e-20
-3.63338e-20
1.31547e-19
-3.56473e-20
-3.89231e-20
9.49676e-21
-8.65455e-22
2.49414e-22
-1.26061e-22
-3.63438e-16
1.13559e-16
0
0
1.21238e-18
-1.23286e-18
1.06973e-19
-1.14267e-19
4.42811e-19
1.19023e-19
-9.63284e-20
-1.36135e-20
-1.54378e-20
1.06711e-20
0
1.53103e-21
7.93253e-22
3.69099e-22
1.13942e-22
0
5.99596e-17
-3.55188e-17
8.35893e-18
2.95373e-18
-4.88263e-19
-6.4915e-19
-3.05964e-19
-5.16407e-19
1.05855e-19
-1.50101e-20
5.14018e-20
1.44362e-20
-8.28496e-21
8.79397e-21
2.28435e-21
-3.37483e-21
-3.40918e-22
0
-2.28038e-17
-5.3356e-17
9.67074e-18
4.52745e-18
-7.6251e-18
4.21062e-18
6.72939e-19
-6.87847e-19
2.17073e-19
-1.00462e-19
0
0
-1.3787e-20
2.10816e-20
-7.03304e-21
3.3241e-21
-3.59814e-21
6.45529e-22
-1.08957e-21
3.59751e-17
1.88851e-17
-8.90994e-18
1.76767e-18
-4.22391e-18
-1.81817e-18
0
0
0
0
0
0
7.96133e-21
-1.16513e-20
1.23226e-20
-2.0614e-21
2.7079e-21
1.20957e-21
-1.08425e-21
9.69186e-17
-5.38643e-17
6.33294e-17
-7.69075e-18
1.20077e-17
-2.45409e-18
3.60028e-18
-1.31143e-18
-2.29172e-19
2.34432e-19
0
1.65622e-20
-7.77781e-21
1.05745e-20
-5.82165e-21
-3.77863e-21
-5.02239e-21
2.78534e-22
9.70242e-22
1.61988e-16
1.89239e-17
0
-8.31903e-18
-2.68036e-18
4.68009e-18
-2.42452e-19
-6.18352e-19
2.40594e-19
-7.87273e-20
0
-1.31109e-20
0
-4.82187e-21
2.92551e-21
-1.79318e-21
-5.04833e-22
2.95888e-22
0
2.10135e-16
-2.00046e-17
4.01107e-17
-2.9943e-17
-2.41626e-18
4.19585e-18
-2.3969e-18
1.75883e-19
8.94016e-20
-9.47725e-20
6.84983e-20
0
0
7.6484e-21
-9.9147e-22
3.83918e-22
1.81211e-21
-5.8474e-22
0
-5.92405e-19
0
-1.10164e-17
3.3997e-17
-1.98504e-17
-7.85845e-18
4.03226e-18
-1.37425e-18
1.08962e-18
2.57464e-19
-1.13083e-19
3.22445e-20
-2.1023e-20
4.94509e-21
1.27239e-20
-5.27792e-22
-2.06568e-21
1.76897e-21
-3.75364e-22
4.23799e-16
-1.13726e-16
1.24051e-17
-5.139e-17
6.12253e-18
-5.21775e-18
3.27606e-18
0
0
-2.65533e-20
-5.2253e-20
-9.65247e-21
0
-1.60858e-20
-8.03805e-21
4.08049e-21
-2.29257e-22
6.72304e-22
8.53944e-22
0
-8.31257e-17
7.34351e-17
-5.24666e-18
-3.08836e-17
3.60506e-18
-2.82509e-18
1.4201e-18
1.36089e-18
0
0
7.80184e-21
3.77845e-20
0
-1.20654e-20
-3.65923e-21
6.12524e-22
-8.76147e-22
-1.27053e-21
0
-3.45805e-17
4.12046e-17
5.09381e-17
1.27106e-17
-2.02051e-17
6.73904e-18
-1.67337e-18
1.0651e-18
-5.78812e-19
0
0
0
-3.59325e-20
2.52947e-21
-6.4327e-21
0
-2.1726e-22
9.98028e-22
-2.84715e-16
2.36247e-16
1.10822e-16
-1.27589e-16
2.50792e-17
-2.06227e-17
0
1.9718e-18
-2.31565e-18
8.79077e-19
-3.40358e-19
1.7017e-19
8.61951e-20
3.71621e-20
1.9527e-20
0
0
0
0
4.0279e-16
-1.37903e-16
0
0
-1.16997e-17
1.4639e-17
-8.83095e-18
-2.28291e-18
2.25718e-18
7.1004e-19
7.48525e-19
-1.76568e-19
4.9551e-20
1.77603e-20
1.07149e-20
7.34698e-21
1.17552e-20
-5.03825e-22
5.13191e-22
-3.75858e-16
2.649e-16
6.60277e-17
-4.10724e-17
3.13207e-17
-1.88708e-17
-6.88342e-18
-3.49316e-18
0
-1.5215e-18
2.28105e-19
2.27509e-19
-1.06407e-19
-5.62701e-20
-1.38518e-20
-9.29157e-21
-7.73752e-21
0
0
-1.25396e-16
0
4.48885e-17
5.83847e-19
0
0
7.10047e-18
3.60444e-18
0
9.08767e-19
0
-3.28548e-19
-4.41556e-20
7.95116e-20
0
3.80085e-20
-4.9743e-21
5.07446e-21
0
3.16324e-16
0
7.28374e-17
-1.11035e-16
6.71707e-17
2.58964e-17
-3.46089e-18
0
4.83295e-19
1.46452e-18
0
-3.86449e-19
3.05688e-19
-2.07235e-19
-3.76418e-20
-2.84779e-20
-1.11064e-20
-3.11095e-21
-2.32723e-20
-2.14875e-16
2.90885e-16
-4.72014e-17
-7.86735e-17
-2.8487e-17
-1.5033e-17
-1.53819e-17
-2.98983e-18
9.46327e-19
3.94265e-19
-3.93524e-19
6.15206e-19
-2.06e-19
3.06852e-19
-5.33759e-20
0
1.15589e-19
-9.74933e-20
2.09123e-20
6.50536e-16
-3.29628e-17
-2.19964e-16
9.34436e-17
-6.13584e-17
3.25286e-17
-3.3518e-18
-3.84835e-18
2.01608e-18
4.1427e-19
-1.77091e-19
-5.70062e-19
1.07102e-19
1.95757e-19
-3.91755e-20
3.96223e-20
-1.19722e-19
-1.1884e-19
-1.18028e-19
3.19355e-16
7.96512e-17
9.19279e-17
-4.8919e-17
-2.04107e-17
6.60219e-18
-5.52664e-18
1.16321e-17
6.84358e-19
1.98326e-18
7.88237e-19
-5.82239e-19
0
-2.47492e-19
0
0
5.30895e-19
1.87425e-19
1.30011e-19
2.52198e-16
0
8.47591e-17
4.86033e-17
-2.43226e-17
1.36001e-17
0
-3.74969e-18
-3.4619e-18
-2.05582e-18
-7.95213e-19
5.88823e-19
0
0
0
0
-5.05435e-19
-9.64366e-19
0
-4.91291e-16
0
-2.07057e-17
-1.97506e-17
3.77446e-17
-8.03068e-18
-2.06238e-18
-2.5576e-18
3.48689e-18
0
6.42208e-19
-5.69588e-20
1.10761e-18
0
0
1.97302e-18
-1.66114e-19
1.1631e-18
-1.17923e-18
3.15225e-16
5.22795e-17
-5.17399e-17
-2.58595e-17
-4.51635e-17
1.99469e-17
1.39648e-17
-1.09333e-18
-2.73294e-18
3.49797e-18
5.64692e-19
-3.84054e-18
-2.25641e-18
-2.92039e-18
-3.42807e-18
-2.30872e-18
4.37375e-18
-1.75521e-19
1.20778e-18
-7.84594e-17
2.40605e-17
-9.08646e-17
7.11025e-18
-7.08438e-18
0
-7.14752e-18
-2.55642e-18
-6.65534e-18
2.85631e-18
6.7456e-18
3.2148e-18
-1.10586e-18
-2.344e-18
3.10457e-18
0
-1.25446e-17
-7.67551e-18
-1.36639e-19
2.05069e-16
-2.81244e-18
1.32083e-16
-3.88049e-17
3.35074e-19
5.55012e-19
1.41992e-17
-5.38265e-18
6.45459e-18
-6.09788e-18
-6.05056e-18
0
1.28905e-17
6.82519e-18
1.56624e-19
-2.44064e-19
8.3447e-18
7.78021e-18
0
-1.32323e-16
0
-6.94997e-18
4.12874e-17
2.32989e-18
5.80255e-18
-1.37304e-17
1.22563e-17
2.25965e-17
2.25627e-17
2.29977e-17
0
-1.25228e-17
0
1.21008e-18
-1.25677e-18
0
-2.37379e-19
1.76701e-17
1.19412e-16
3.01664e-17
-2.02633e-17
8.31969e-17
-2.18221e-17
0
0
-4.30721e-17
-2.18937e-17
-2.18582e-17
-5.85974e-17
-7.61702e-18
0
0
0
-4.69931e-18
4.97305e-18
5.22391e-17
-1.80188e-17
5.55145e-17
0
-8.15361e-17
-4.62421e-17
6.73338e-17
-8.26329e-17
-1.08582e-16
9.73987e-17
5.20909e-17
0
4.24607e-17
8.33748e-17
-1.51953e-17
1.05307e-16
-1.67024e-17
1.73831e-17
9.9077e-17
-4.97227e-17
0
-2.19873e-16
0
-1.63344e-16
1.52734e-16
0
1.84765e-16
7.75975e-17
-2.0423e-16
2.17436e-16
5.72334e-20
-5.17041e-17
-8.07239e-17
0
2.23536e-16
-3.22356e-16
3.61398e-16
-4.623e-16
0
0
2.40685e-16
-2.30166e-17
-3.01856e-17
-3.8288e-16
4.19737e-16
-1.80057e-16
1.79323e-16
1.78001e-16
-8.37637e-17
0
0
3.84404e-16
-3.91027e-16
-2.99238e-16
3.10422e-16
-3.18907e-16
3.70153e-16
-6.51136e-16
0
)
;

boundaryField
{
    up
    {
        type            calculated;
        value           nonuniform List<scalar> 
84
(
0
0
0
0
-9.11256e-18
1.39483e-17
-4.60613e-18
1.20789e-18
-1.11232e-18
0
-1.45279e-19
1.32312e-19
-2.75561e-20
1.35605e-20
6.07032e-21
6.0423e-21
0
0
-7.71074e-22
5.94089e-22
3.48311e-22
-3.38207e-22
2.36619e-23
0
-1.30969e-22
-1.73651e-22
-1.38727e-21
0
1.06169e-21
1.12224e-21
-2.58108e-22
4.85798e-22
-2.2289e-22
0
3.76301e-22
4.61058e-21
-6.51419e-21
1.11816e-20
0
-2.96189e-21
0
0
-1.83563e-21
3.32884e-21
-3.21641e-21
4.73378e-21
-8.68452e-21
5.53915e-21
-1.65075e-21
-3.96592e-21
0
0
0
-2.85665e-22
-5.46396e-22
1.13942e-22
0
-1.08957e-21
-1.08425e-21
1.09443e-21
0
0
-3.75364e-22
8.53944e-22
-1.27053e-21
9.98028e-22
0
5.13191e-22
0
0
-2.32723e-20
2.09123e-20
-1.18028e-19
1.30011e-19
0
-1.17923e-18
1.20778e-18
-1.36639e-19
0
1.76701e-17
-1.80188e-17
0
0
0
)
;
    }
    low
    {
        type            calculated;
        value           nonuniform List<scalar> 
84
(
-5.01056e-16
4.20559e-16
-1.29004e-16
3.33224e-16
7.0424e-17
-1.82093e-17
1.51159e-16
6.50122e-17
0
5.34497e-16
-1.29654e-16
9.18547e-18
-8.34426e-17
-7.96304e-16
1.25962e-16
0
-1.14726e-16
4.34679e-17
-4.26931e-17
-5.57737e-17
4.50645e-17
8.77846e-17
2.65574e-16
-1.47444e-16
0
-2.70456e-17
-1.41263e-17
0
-1.36082e-16
-4.88373e-17
-2.27994e-16
-2.42861e-16
2.60975e-16
6.99871e-17
5.03528e-16
3.8802e-17
0
2.90463e-16
3.768e-16
2.10175e-16
-1.10733e-16
3.48085e-17
3.481e-17
0
1.38168e-16
4.17437e-16
2.50384e-16
1.22078e-16
0
-6.89072e-16
3.69731e-16
-8.54519e-19
-8.55573e-19
1.16091e-16
0
-3.7659e-16
0
-2.28038e-17
3.59751e-17
1.04892e-16
1.78542e-16
2.26089e-16
-5.92405e-19
4.38335e-16
0
0
-2.84715e-16
4.15227e-16
-3.88095e-16
-1.25396e-16
3.28435e-16
-2.14875e-16
6.77309e-16
3.33375e-16
2.52198e-16
-4.91291e-16
3.06038e-16
-6.85809e-17
2.05069e-16
-1.26998e-16
1.19412e-16
7.43668e-17
-2.19873e-16
2.49809e-16
)
;
    }
    left
    {
        type            calculated;
        value           nonuniform List<scalar> 
19
(
-4.82807e-16
-1.68164e-16
2.30142e-16
6.08854e-17
-3.94543e-16
0
-1.39716e-16
-1.38728e-16
-7.02106e-17
-8.91396e-17
1.54807e-19
-9.10961e-17
5.1489e-16
-9.54579e-17
4.09193e-16
3.68391e-16
2.21608e-16
4.08012e-16
0
)
;
    }
    right
    {
        type            calculated;
        value           nonuniform List<scalar> 
19
(
2.40685e-16
-3.31835e-17
-3.01856e-17
-3.96696e-16
4.34216e-16
-1.80057e-16
1.79323e-16
1.78001e-16
-6.83796e-17
0
0
4.15474e-16
-4.21963e-16
-2.99238e-16
3.10422e-16
-3.18907e-16
3.70153e-16
-7.09527e-16
0
)
;
    }
    frontAndBackPlanes
    {
        type            empty;
    }
}


// ************************************************************************* //
