/*--------------------------------*- C++ -*----------------------------------*\
  =========                 |
  \\      /  F ield         | OpenFOAM: The Open Source CFD Toolbox
   \\    /   O peration     | Website:  https://openfoam.org
    \\  /    A nd           | Version:  7
     \\/     M anipulation  |
\*---------------------------------------------------------------------------*/
FoamFile
{
    version     2.0;
    format      ascii;
    class       volScalarField;
    location    "0.137";
    object      gradTy;
}
// * * * * * * * * * * * * * * * * * * * * * * * * * * * * * * * * * * * * * //

dimensions      [0 -1 0 1 0 0 0];

internalField   nonuniform List<scalar> 
1596
(
-0.131937
-0.243461
-0.33169
-0.412088
-0.483712
-0.556404
-0.624737
-0.699527
-0.78395
-0.880053
-1.01482
-1.18658
-1.43074
-1.78735
-2.35505
-3.25292
-4.87191
-7.86913
-18.5877
-0.399722
-0.488041
-0.541326
-0.583841
-0.618471
-0.657175
-0.696195
-0.746076
-0.810429
-0.889441
-1.00637
-1.15744
-1.36678
-1.65248
-2.06571
-2.6306
-3.47831
-4.72844
-8.27706
-0.709336
-0.732025
-0.735048
-0.734683
-0.731372
-0.736007
-0.74502
-0.76804
-0.80807
-0.864051
-0.955559
-1.07675
-1.24466
-1.46751
-1.77676
-2.17458
-2.7327
-3.49989
-5.14078
-1.02581
-0.963658
-0.909927
-0.865198
-0.824629
-0.796091
-0.775626
-0.771372
-0.785543
-0.816275
-0.879803
-0.969269
-1.09695
-1.26605
-1.49701
-1.78349
-2.16825
-2.66974
-3.52347
-1.30759
-1.16951
-1.06335
-0.97734
-0.902351
-0.842856
-0.794628
-0.764086
-0.752795
-0.758499
-0.794462
-0.853788
-0.945474
-1.07028
-1.24227
-1.45247
-1.72842
-2.0751
-2.57804
-1.52061
-1.33774
-1.19309
-1.07334
-0.968942
-0.882034
-0.808758
-0.753966
-0.718847
-0.701113
-0.711413
-0.743451
-0.803837
-0.892206
-1.01867
-1.17416
-1.37751
-1.62789
-1.95732
-1.65017
-1.46023
-1.29665
-1.15416
-1.02727
-0.917688
-0.822879
-0.746613
-0.690038
-0.651159
-0.638354
-0.646276
-0.679705
-0.737793
-0.827975
-0.942108
-1.09363
-1.2795
-1.51189
-1.70149
-1.53341
-1.37057
-1.21806
-1.07697
-0.950543
-0.838461
-0.744123
-0.669009
-0.611698
-0.578685
-0.56571
-0.576114
-0.60886
-0.669419
-0.750901
-0.863089
-1.00246
-1.17349
-1.69345
-1.5666
-1.41999
-1.26878
-1.12127
-0.98352
-0.85811
-0.748822
-0.65784
-0.584548
-0.534008
-0.503034
-0.493843
-0.505331
-0.541415
-0.596423
-0.677448
-0.78118
-0.908978
-1.64077
-1.55554
-1.43426
-1.29449
-1.14906
-1.00691
-0.873559
-0.753789
-0.650755
-0.564822
-0.500101
-0.454401
-0.429117
-0.423142
-0.439162
-0.472594
-0.528515
-0.604129
-0.699561
-1.58282
-1.525
-1.42745
-1.30279
-1.16434
-1.02264
-0.885463
-0.758814
-0.646934
-0.551244
-0.475325
-0.417871
-0.379709
-0.35975
-0.359679
-0.375768
-0.411501
-0.464571
-0.534612
-1.51732
-1.48651
-1.41051
-1.30132
-1.17189
-1.03337
-0.895069
-0.764107
-0.64579
-0.542576
-0.45786
-0.39109
-0.342737
-0.31173
-0.298951
-0.301306
-0.320996
-0.356105
-0.406061
-1.44049
-1.43306
-1.3771
-1.28361
-1.16483
-1.03215
-0.895667
-0.763425
-0.641617
-0.533619
-0.442892
-0.369498
-0.313733
-0.27456
-0.252252
-0.244171
-0.251539
-0.272733
-0.307101
-1.37579
-1.38009
-1.33863
-1.25821
-1.14927
-1.02291
-0.889448
-0.757612
-0.634253
-0.523474
-0.428921
-0.35112
-0.290296
-0.245437
-0.216354
-0.200705
-0.198965
-0.209688
-0.232182
-1.3186
-1.33183
-1.3004
-1.22978
-1.1288
-1.00805
-0.877786
-0.747154
-0.623464
-0.511353
-0.414672
-0.334262
-0.270322
-0.221841
-0.188275
-0.16746
-0.159302
-0.162455
-0.176195
-1.26405
-1.28648
-1.26301
-1.19965
-1.10467
-0.988406
-0.860991
-0.731872
-0.608656
-0.496338
-0.398922
-0.317432
-0.252029
-0.201671
-0.165534
-0.141539
-0.129171
-0.12713
-0.134669
-1.21625
-1.24502
-1.22758
-1.16937
-1.07843
-0.965209
-0.839864
-0.712116
-0.589779
-0.478048
-0.380997
-0.29969
-0.234209
-0.183431
-0.146288
-0.12072
-0.105901
-0.100544
-0.103879
-1.17583
-1.20929
-1.19626
-1.14137
-1.05263
-0.940812
-0.816388
-0.689408
-0.56788
-0.457106
-0.361119
-0.280905
-0.216392
-0.166312
-0.129363
-0.103454
-0.0875153
-0.0802511
-0.0808783
-1.13446
-1.17841
-1.17084
-1.11863
-1.03076
-0.918772
-0.79386
-0.666585
-0.545245
-0.435239
-0.340476
-0.261778
-0.198829
-0.150152
-0.114195
-0.0887858
-0.0726508
-0.0644694
-0.0634414
-1.0901
-1.14734
-1.14721
-1.0982
-1.0108
-0.897795
-0.771482
-0.64318
-0.521607
-0.412276
-0.318923
-0.242129
-0.181259
-0.134565
-0.10022
-0.0759401
-0.0602743
-0.0518737
-0.0499266
-1.05217
-1.11968
-1.12711
-1.08149
-0.994171
-0.879362
-0.750719
-0.620559
-0.498168
-0.389223
-0.297248
-0.222521
-0.16402
-0.119666
-0.0873291
-0.0645782
-0.0497985
-0.0416133
-0.0392169
-1.01775
-1.09572
-1.11079
-1.06875
-0.981436
-0.86435
-0.732695
-0.599966
-0.476164
-0.367208
-0.276404
-0.2037
-0.147635
-0.105759
-0.0756146
-0.0545907
-0.0408967
-0.0331202
-0.030508
-0.98439
-1.07429
-1.09765
-1.05963
-0.972523
-0.853054
-0.718041
-0.582271
-0.456583
-0.347218
-0.25728
-0.186397
-0.132648
-0.093203
-0.0652655
-0.0460182
-0.0334503
-0.0260323
-0.023113
-0.95301
-1.05491
-1.08651
-1.05222
-0.964995
-0.84268
-0.703897
-0.564677
-0.436795
-0.326886
-0.237707
-0.168688
-0.117364
-0.0805176
-0.0549907
-0.0377876
-0.0265757
-0.0195047
-0.0152841
-0.926261
-1.03964
-1.08215
-1.05658
-0.975537
-0.856581
-0.718974
-0.579174
-0.449703
-0.3379
-0.246633
-0.175802
-0.122885
-0.084781
-0.0582742
-0.0404225
-0.028662
-0.0209556
-0.0154618
-0.906406
-1.0275
-1.07837
-1.06146
-0.988319
-0.875382
-0.741445
-0.602858
-0.47254
-0.358543
-0.264193
-0.190079
-0.133996
-0.0930932
-0.0642608
-0.0446943
-0.0317727
-0.023507
-0.0181621
-0.904233
-1.02676
-1.08144
-1.07028
-1.00362
-0.896668
-0.767126
-0.630838
-0.500674
-0.385087
-0.287917
-0.210322
-0.150533
-0.106058
-0.0740521
-0.0519282
-0.0371262
-0.0276412
-0.0216415
-0.922016
-1.03949
-1.09236
-1.08267
-1.01981
-0.917699
-0.792628
-0.659471
-0.530609
-0.41454
-0.315389
-0.234798
-0.171386
-0.123041
-0.087265
-0.0618479
-0.0444385
-0.0331205
-0.02594
-0.95702
-1.06555
-1.11214
-1.10028
-1.03878
-0.940283
-0.819515
-0.690057
-0.563458
-0.44796
-0.347737
-0.264799
-0.198052
-0.145697
-0.105555
-0.0759284
-0.0548811
-0.0408254
-0.0317531
-1.00753
-1.10208
-1.13881
-1.12216
-1.0603
-0.964535
-0.847994
-0.72278
-0.599388
-0.485584
-0.385392
-0.301092
-0.231752
-0.17573
-0.130971
-0.0962629
-0.0702646
-0.0521458
-0.0401218
-1.07204
-1.14859
-1.17363
-1.15075
-1.08737
-0.993548
-0.880931
-0.7601
-0.640416
-0.529061
-0.429789
-0.34512
-0.274216
-0.215441
-0.166478
-0.126236
-0.0937932
-0.0695953
-0.0528187
-1.13884
-1.20036
-1.21419
-1.1848
-1.11949
-1.02732
-0.918537
-0.802282
-0.68677
-0.57856
-0.481088
-0.397167
-0.326142
-0.266417
-0.215078
-0.170461
-0.130969
-0.0980507
-0.0731837
-1.21314
-1.2591
-1.26114
-1.22466
-1.15692
-1.066
-0.960881
-0.849279
-0.738276
-0.633767
-0.538819
-0.456597
-0.386863
-0.328487
-0.278177
-0.233472
-0.190309
-0.148531
-0.10822
-1.2988
-1.32762
-1.31729
-1.27358
-1.20345
-1.11404
-1.013
-0.906684
-0.801035
-0.701197
-0.609921
-0.530553
-0.463533
-0.40885
-0.364097
-0.327414
-0.293253
-0.25887
-0.220769
-1.39181
-1.40208
-1.37653
-1.3224
-1.24655
-1.15543
-1.05536
-0.951649
-0.84918
-0.752143
-0.663066
-0.58483
-0.518286
-0.464148
-0.421704
-0.390977
-0.368995
-0.353602
-0.340924
-1.49558
-1.4815
-1.43702
-1.36955
-1.28521
-1.18964
-1.08799
-0.984778
-0.884076
-0.789242
-0.702729
-0.626743
-0.562137
-0.509423
-0.468374
-0.438872
-0.419829
-0.41078
-0.410835
-1.60946
-1.56681
-1.50259
-1.42169
-1.32867
-1.22805
-1.12403
-1.02043
-0.920753
-0.827814
-0.743884
-0.670741
-0.609067
-0.559076
-0.520321
-0.491883
-0.472143
-0.459471
-0.45189
-1.7106
-1.64261
-1.56087
-1.46788
-1.36687
-1.26137
-1.15485
-1.0505
-0.951328
-0.859726
-0.777656
-0.706613
-0.647066
-0.599045
-0.561999
-0.534913
-0.516198
-0.504303
-0.497383
-1.78936
-1.7046
-1.61011
-1.50792
-1.40069
-1.29136
-1.18287
-1.07797
-0.979254
-0.888789
-0.808307
-0.739082
-0.68144
-0.635294
-0.600055
-0.57464
-0.557493
-0.547048
-0.541477
-1.85091
-1.75359
-1.64944
-1.54023
-1.42824
-1.31597
-1.20598
-1.10065
-1.0023
-0.912735
-0.833524
-0.765769
-0.709695
-0.66513
-0.631455
-0.607527
-0.591809
-0.582718
-0.578437
-1.89546
-1.78881
-1.67742
-1.56307
-1.44767
-1.33334
-1.22232
-1.11672
-1.01866
-0.929765
-0.851486
-0.784813
-0.729903
-0.686521
-0.654024
-0.631214
-0.616554
-0.608425
-0.605
-1.92559
-1.8092
-1.69234
-1.57474
-1.45739
-1.34198
-1.23046
-1.12478
-1.02694
-0.938445
-0.860713
-0.794665
-0.740423
-0.697728
-0.665936
-0.643832
-0.629894
-0.622499
-0.619819
-1.92559
-1.80921
-1.69236
-1.57476
-1.45742
-1.342
-1.23048
-1.12481
-1.02697
-0.938476
-0.860745
-0.794698
-0.740457
-0.697764
-0.665972
-0.64387
-0.629934
-0.622542
-0.619864
-1.89547
-1.78884
-1.67747
-1.56313
-1.44773
-1.33341
-1.2224
-1.1168
-1.01875
-0.929853
-0.851577
-0.784908
-0.730001
-0.686623
-0.654132
-0.631329
-0.616677
-0.608558
-0.605145
-1.85093
-1.75364
-1.64951
-1.54032
-1.42834
-1.31609
-1.2061
-1.10078
-1.00244
-0.912878
-0.833672
-0.765922
-0.709853
-0.665294
-0.631627
-0.607709
-0.592003
-0.582926
-0.57866
-1.78939
-1.70466
-1.6102
-1.50803
-1.40082
-1.29151
-1.18303
-1.07814
-0.979434
-0.888975
-0.8085
-0.73928
-0.681643
-0.635504
-0.600273
-0.574868
-0.557733
-0.547303
-0.541748
-1.71063
-1.64268
-1.56097
-1.46801
-1.36703
-1.26155
-1.15504
-1.05071
-0.951545
-0.859951
-0.777888
-0.70685
-0.647309
-0.599294
-0.562256
-0.535179
-0.516476
-0.504596
-0.497693
-1.6095
-1.56689
-1.5027
-1.42184
-1.32885
-1.22825
-1.12424
-1.02067
-0.920998
-0.828068
-0.744144
-0.671006
-0.609336
-0.559349
-0.520598
-0.492165
-0.47243
-0.459764
-0.452191
-1.49562
-1.48159
-1.43717
-1.36975
-1.28545
-1.18992
-1.0883
-0.985118
-0.884438
-0.78962
-0.703122
-0.627147
-0.562552
-0.509851
-0.468814
-0.439316
-0.420264
-0.411177
-0.411151
-1.39184
-1.4021
-1.37657
-1.32246
-1.24665
-1.15556
-1.05552
-0.951843
-0.849393
-0.752363
-0.663283
-0.585031
-0.51846
-0.464286
-0.421807
-0.391056
-0.369102
-0.35383
-0.341419
-1.29881
-1.32768
-1.31742
-1.27379
-1.20374
-1.11442
-1.01345
-0.907198
-0.801595
-0.701786
-0.610523
-0.531157
-0.464135
-0.409456
-0.364729
-0.328109
-0.294064
-0.25985
-0.221952
-1.21314
-1.25912
-1.2612
-1.22478
-1.15711
-1.06625
-0.961194
-0.84964
-0.738669
-0.634177
-0.53923
-0.457001
-0.387257
-0.328878
-0.278576
-0.233892
-0.190741
-0.148938
-0.108529
-1.13883
-1.20037
-1.21424
-1.1849
-1.11967
-1.02756
-0.918842
-0.802632
-0.687149
-0.578949
-0.481473
-0.397539
-0.326498
-0.266761
-0.215412
-0.170782
-0.131262
-0.098292
-0.0733613
-1.07203
-1.14858
-1.17367
-1.15083
-1.08752
-0.993772
-0.881214
-0.760426
-0.640765
-0.529414
-0.430132
-0.345445
-0.274519
-0.215722
-0.166735
-0.126466
-0.0939869
-0.0697476
-0.0529296
-1.00752
-1.10207
-1.13883
-1.12224
-1.06044
-0.96474
-0.848254
-0.723079
-0.599704
-0.4859
-0.385693
-0.30137
-0.232003
-0.175954
-0.131166
-0.0964266
-0.0703962
-0.052247
-0.0401963
-0.957007
-1.06553
-1.11215
-1.10034
-1.0389
-0.940468
-0.819752
-0.690327
-0.56374
-0.448237
-0.347996
-0.265032
-0.198257
-0.145873
-0.105702
-0.0760468
-0.0549736
-0.0408959
-0.031806
-0.922003
-1.03947
-1.09236
-1.08272
-1.01992
-0.917864
-0.792839
-0.659709
-0.530856
-0.414778
-0.315608
-0.23499
-0.17155
-0.123178
-0.0873757
-0.061935
-0.0445055
-0.0331721
-0.0259802
-0.90422
-1.02674
-1.08144
-1.07033
-1.00371
-0.896812
-0.767309
-0.631043
-0.500884
-0.385287
-0.288098
-0.210479
-0.150665
-0.106165
-0.074137
-0.0519941
-0.0371768
-0.0276811
-0.0216748
-0.906392
-1.02748
-1.07836
-1.06149
-0.988386
-0.875487
-0.74158
-0.60301
-0.472694
-0.358689
-0.264324
-0.190191
-0.134089
-0.0931679
-0.0643189
-0.0447388
-0.0318069
-0.0235351
-0.0181898
-0.926275
-1.03965
-1.08217
-1.0566
-0.975578
-0.856636
-0.71904
-0.579248
-0.449779
-0.337974
-0.246702
-0.175865
-0.122941
-0.0848287
-0.0583144
-0.0404563
-0.0286902
-0.0209784
-0.0154769
-0.953025
-1.05492
-1.08651
-1.05221
-0.964967
-0.842638
-0.703846
-0.564621
-0.436739
-0.326834
-0.237663
-0.168651
-0.117334
-0.080495
-0.0549737
-0.0377747
-0.0265657
-0.0194958
-0.0152725
-0.984399
-1.07429
-1.09766
-1.05963
-0.972522
-0.853051
-0.718039
-0.582269
-0.456583
-0.347219
-0.257282
-0.186401
-0.132652
-0.0932065
-0.0652686
-0.0460208
-0.0334526
-0.0260343
-0.0231138
-1.01775
-1.09572
-1.11079
-1.06874
-0.981431
-0.864344
-0.732689
-0.599961
-0.476161
-0.367207
-0.276404
-0.203701
-0.147636
-0.105761
-0.0756162
-0.0545923
-0.0408982
-0.0331217
-0.0305091
-1.05217
-1.11968
-1.12711
-1.08148
-0.994166
-0.879357
-0.750714
-0.620556
-0.498167
-0.389222
-0.297248
-0.222522
-0.164021
-0.119667
-0.0873301
-0.0645794
-0.0497999
-0.0416149
-0.0392183
-1.0901
-1.14734
-1.14721
-1.0982
-1.01079
-0.897791
-0.771479
-0.643178
-0.521606
-0.412275
-0.318923
-0.242129
-0.18126
-0.134566
-0.100221
-0.0759412
-0.0602758
-0.0518757
-0.0499285
-1.13446
-1.17841
-1.17084
-1.11863
-1.03076
-0.91877
-0.793859
-0.666584
-0.545244
-0.435238
-0.340475
-0.261777
-0.198829
-0.150152
-0.114195
-0.0887869
-0.0726527
-0.0644721
-0.0634439
-1.17583
-1.20929
-1.19626
-1.14137
-1.05263
-0.940811
-0.816387
-0.689407
-0.567879
-0.457105
-0.361118
-0.280904
-0.216391
-0.166311
-0.129363
-0.103455
-0.0875177
-0.0802544
-0.0808812
-1.21625
-1.24502
-1.22758
-1.16937
-1.07843
-0.965209
-0.839864
-0.712116
-0.589779
-0.478047
-0.380996
-0.299688
-0.234208
-0.18343
-0.146288
-0.120722
-0.105904
-0.100547
-0.103883
-1.26405
-1.28648
-1.26301
-1.19965
-1.10467
-0.988407
-0.860992
-0.731872
-0.608656
-0.496336
-0.39892
-0.31743
-0.252027
-0.201671
-0.165535
-0.141541
-0.129174
-0.127134
-0.134672
-1.3186
-1.33183
-1.3004
-1.22978
-1.1288
-1.00805
-0.877787
-0.747154
-0.623462
-0.511351
-0.414669
-0.33426
-0.27032
-0.22184
-0.188276
-0.167462
-0.159305
-0.162458
-0.176197
-1.37578
-1.38009
-1.33863
-1.25821
-1.14927
-1.02291
-0.889449
-0.757612
-0.634252
-0.523471
-0.428918
-0.351118
-0.290294
-0.245437
-0.216355
-0.200708
-0.198967
-0.209689
-0.232182
-1.44049
-1.43306
-1.3771
-1.28361
-1.16483
-1.03216
-0.895668
-0.763424
-0.641615
-0.533616
-0.442889
-0.369495
-0.313732
-0.27456
-0.252253
-0.244172
-0.25154
-0.272732
-0.307099
-1.51732
-1.48651
-1.41051
-1.30132
-1.17189
-1.03337
-0.895069
-0.764106
-0.645787
-0.542572
-0.457857
-0.391088
-0.342736
-0.31173
-0.298952
-0.301306
-0.320994
-0.356101
-0.406056
-1.58282
-1.525
-1.42745
-1.30279
-1.16434
-1.02264
-0.885463
-0.758813
-0.646932
-0.551242
-0.475323
-0.417869
-0.379709
-0.35975
-0.359679
-0.375767
-0.411496
-0.464563
-0.534605
-1.64077
-1.55554
-1.43427
-1.29449
-1.14906
-1.00691
-0.873558
-0.753787
-0.650753
-0.56482
-0.5001
-0.4544
-0.429117
-0.423142
-0.439161
-0.47259
-0.528507
-0.604118
-0.699555
-1.69345
-1.56661
-1.41999
-1.26878
-1.12128
-0.98352
-0.858109
-0.748821
-0.657839
-0.584547
-0.534008
-0.503035
-0.493844
-0.505331
-0.541413
-0.596417
-0.677438
-0.781169
-0.908974
-1.70149
-1.53341
-1.37057
-1.21806
-1.07698
-0.950542
-0.838461
-0.744123
-0.669009
-0.611698
-0.578687
-0.565712
-0.576115
-0.60886
-0.669416
-0.750895
-0.863079
-1.00245
-1.17349
-1.65017
-1.46024
-1.29666
-1.15417
-1.02727
-0.917688
-0.822879
-0.746614
-0.69004
-0.651161
-0.638356
-0.646278
-0.679706
-0.737791
-0.82797
-0.9421
-1.09362
-1.27949
-1.51189
-1.52061
-1.33774
-1.19309
-1.07334
-0.968943
-0.882036
-0.80876
-0.753969
-0.71885
-0.701116
-0.711416
-0.743453
-0.803837
-0.892204
-1.01866
-1.17415
-1.3775
-1.62789
-1.95732
-1.3076
-1.16951
-1.06335
-0.977342
-0.902354
-0.842859
-0.794631
-0.76409
-0.752799
-0.758503
-0.794466
-0.85379
-0.945473
-1.07028
-1.24227
-1.45247
-1.72842
-2.0751
-2.57805
-1.02581
-0.96366
-0.909928
-0.8652
-0.824632
-0.796095
-0.775631
-0.771377
-0.785547
-0.816279
-0.879806
-0.96927
-1.09695
-1.26605
-1.49701
-1.78349
-2.16825
-2.66975
-3.52348
-0.709339
-0.732024
-0.735048
-0.734684
-0.731374
-0.73601
-0.745024
-0.768045
-0.808074
-0.864055
-0.955561
-1.07675
-1.24466
-1.46751
-1.77676
-2.17457
-2.7327
-3.4999
-5.14078
-0.399724
-0.488039
-0.541324
-0.583841
-0.618471
-0.657177
-0.696198
-0.746079
-0.810433
-0.889444
-1.00637
-1.15744
-1.36677
-1.65248
-2.06571
-2.6306
-3.47831
-4.72845
-8.27706
-0.131938
-0.243461
-0.331689
-0.412087
-0.483711
-0.556404
-0.624738
-0.699529
-0.783952
-0.880054
-1.01482
-1.18658
-1.43074
-1.78734
-2.35505
-3.25292
-4.87191
-7.86913
-18.5877
)
;

boundaryField
{
    up
    {
        type            calculated;
        value           nonuniform List<scalar> 
84
(
-16.8452
-9.12335
-5.5909
-3.79183
-2.75544
-2.08384
-1.60644
-1.24576
-0.964298
-0.741639
-0.565965
-0.428823
-0.323208
-0.243208
-0.183477
-0.13929
-0.106672
-0.0824528
-0.064226
-0.050222
-0.0392188
-0.0303168
-0.0225575
-0.0135159
-0.0129732
-0.0167031
-0.0200064
-0.0239405
-0.0291715
-0.036633
-0.0477678
-0.0646842
-0.0940553
-0.21389
-0.346023
-0.414161
-0.449075
-0.494994
-0.539716
-0.57728
-0.604247
-0.61945
-0.619495
-0.604398
-0.577511
-0.539996
-0.495312
-0.44938
-0.414401
-0.346551
-0.21525
-0.0943486
-0.0648356
-0.0478642
-0.0366986
-0.0292187
-0.0239769
-0.0200375
-0.0167363
-0.0129905
-0.013502
-0.0225573
-0.0303174
-0.03922
-0.0502236
-0.0642282
-0.0824553
-0.106675
-0.139292
-0.183478
-0.243208
-0.323205
-0.428818
-0.56596
-0.741637
-0.9643
-1.24577
-1.60645
-2.08385
-2.75545
-3.79183
-5.5909
-9.12334
-16.8452
)
;
    }
    low
    {
        type            calculated;
        value           nonuniform List<scalar> 
84
(
-0.141762
-0.418353
-0.749247
-1.09201
-1.39774
-1.62573
-1.75736
-1.80011
-1.77191
-1.69449
-1.62433
-1.54743
-1.45475
-1.38183
-1.32019
-1.25881
-1.2048
-1.16257
-1.11683
-1.06239
-1.01627
-0.975075
-0.933517
-0.894407
-0.854795
-0.828967
-0.827635
-0.854246
-0.900895
-0.965877
-1.04321
-1.11848
-1.20209
-1.29816
-1.39951
-1.51408
-1.64264
-1.75255
-1.83605
-1.90151
-1.94921
-1.98428
-1.98428
-1.94922
-1.90151
-1.83606
-1.75256
-1.64266
-1.5141
-1.39949
-1.29817
-1.20208
-1.11847
-1.0432
-0.965868
-0.900885
-0.854241
-0.827632
-0.828967
-0.8548
-0.89443
-0.933518
-0.97508
-1.01627
-1.06239
-1.11683
-1.16258
-1.2048
-1.25881
-1.32019
-1.38183
-1.45475
-1.54743
-1.62432
-1.69448
-1.7719
-1.8001
-1.75736
-1.62574
-1.39775
-1.09201
-0.749254
-0.418357
-0.141763
)
;
    }
    left
    {
        type            calculated;
        value           nonuniform List<scalar> 
19
(
-0.129546
-0.239262
-0.329513
-0.41295
-0.487979
-0.563991
-0.635608
-0.714142
-0.80278
-0.905076
-1.04918
-1.23444
-1.50106
-1.89694
-2.53263
-3.55424
-5.41667
-8.90386
-17.4699
)
;
    }
    right
    {
        type            calculated;
        value           nonuniform List<scalar> 
19
(
-0.129547
-0.239262
-0.329513
-0.412949
-0.487978
-0.563991
-0.635608
-0.714143
-0.802781
-0.905077
-1.04918
-1.23444
-1.50106
-1.89694
-2.53263
-3.55423
-5.41667
-8.90387
-17.4699
)
;
    }
    frontAndBackPlanes
    {
        type            empty;
    }
}


// ************************************************************************* //
