/*--------------------------------*- C++ -*----------------------------------*\
  =========                 |
  \\      /  F ield         | OpenFOAM: The Open Source CFD Toolbox
   \\    /   O peration     | Website:  https://openfoam.org
    \\  /    A nd           | Version:  7
     \\/     M anipulation  |
\*---------------------------------------------------------------------------*/
FoamFile
{
    version     2.0;
    format      ascii;
    class       volScalarField;
    location    "0.05";
    object      gradTx;
}
// * * * * * * * * * * * * * * * * * * * * * * * * * * * * * * * * * * * * * //

dimensions      [0 -1 0 1 0 0 0];

internalField   nonuniform List<scalar> 
1596
(
-0.142821
-0.7136
-1.24317
-1.66185
-1.96063
-2.14719
-2.25304
-2.30151
-2.31309
-2.30909
-2.2905
-2.27305
-2.27377
-2.32045
-2.44839
-2.73385
-3.27998
-4.28701
-6.15117
0.0478702
-0.547639
-1.05379
-1.44539
-1.7268
-1.90703
-2.01323
-2.06399
-2.07891
-2.0737
-2.05082
-2.01985
-1.98169
-1.94102
-1.89927
-1.86224
-1.81707
-1.72624
-1.48866
0.208811
-0.358546
-0.810739
-1.15476
-1.40314
-1.56612
-1.66526
-1.71578
-1.73425
-1.73303
-1.71559
-1.68815
-1.64718
-1.58948
-1.50852
-1.39878
-1.24643
-1.02899
-0.690776
0.249595
-0.209319
-0.570757
-0.847546
-1.05064
-1.18827
-1.27522
-1.32301
-1.34438
-1.34878
-1.34051
-1.32382
-1.29506
-1.24882
-1.17642
-1.06775
-0.909501
-0.687382
-0.372126
0.143533
-0.145458
-0.388483
-0.583533
-0.732523
-0.838492
-0.908832
-0.950722
-0.972715
-0.981331
-0.981064
-0.974921
-0.960515
-0.932872
-0.884007
-0.802562
-0.675614
-0.491087
-0.231483
-0.0785687
-0.182428
-0.296986
-0.403047
-0.49229
-0.561372
-0.610772
-0.642942
-0.662142
-0.671962
-0.676173
-0.676799
-0.672736
-0.660397
-0.633718
-0.582246
-0.494102
-0.357284
-0.158061
-0.357355
-0.30498
-0.299877
-0.317845
-0.345122
-0.373432
-0.397896
-0.416446
-0.429275
-0.437069
-0.442076
-0.445321
-0.446435
-0.443198
-0.431633
-0.403411
-0.34857
-0.255538
-0.111538
-0.632654
-0.473351
-0.372192
-0.311974
-0.280209
-0.26691
-0.264157
-0.266291
-0.270019
-0.273331
-0.276495
-0.279435
-0.281878
-0.282523
-0.279057
-0.265584
-0.234569
-0.175938
-0.0778537
-0.906053
-0.688618
-0.514908
-0.38482
-0.29414
-0.235518
-0.200764
-0.181949
-0.172897
-0.168971
-0.168097
-0.168811
-0.170313
-0.171609
-0.171383
-0.16583
-0.149776
-0.115362
-0.0524461
-1.06754
-0.844678
-0.638338
-0.465588
-0.333004
-0.238776
-0.176902
-0.139139
-0.11781
-0.1065
-0.101218
-0.0992624
-0.0991111
-0.0996938
-0.100133
-0.0981127
-0.0903849
-0.0714637
-0.0335687
-1.20318
-0.985478
-0.763644
-0.561954
-0.395975
-0.27048
-0.183066
-0.126474
-0.0923998
-0.0731258
-0.063016
-0.0581615
-0.0561851
-0.0556612
-0.0557445
-0.0549931
-0.0514806
-0.041712
-0.0202796
-1.34886
-1.13957
-0.907426
-0.681515
-0.484513
-0.327934
-0.213778
-0.136683
-0.0883026
-0.0598517
-0.0441666
-0.0360494
-0.0321359
-0.0304331
-0.0298519
-0.0293285
-0.0277047
-0.0229073
-0.0115072
-1.40729
-1.22395
-0.998998
-0.766139
-0.5532
-0.377253
-0.244489
-0.152046
-0.0923594
-0.0563348
-0.0359273
-0.0250223
-0.0194895
-0.0168298
-0.0156623
-0.0150286
-0.0141531
-0.0118505
-0.00612332
-1.44533
-1.28552
-1.07096
-0.836199
-0.612744
-0.422332
-0.274828
-0.169796
-0.100604
-0.0580825
-0.0335867
-0.0202714
-0.0133757
-0.00995437
-0.00834138
-0.0075437
-0.00693261
-0.00580585
-0.00306249
-1.47854
-1.33731
-1.13169
-0.895992
-0.664241
-0.462037
-0.302364
-0.186892
-0.109804
-0.061882
-0.0340048
-0.018714
-0.0107275
-0.00672554
-0.00479773
-0.00386625
-0.0033333
-0.00272732
-0.0014476
-1.48469
-1.3639
-1.16876
-0.934942
-0.698807
-0.48912
-0.321365
-0.198878
-0.116493
-0.0649706
-0.0348685
-0.0182978
-0.00962156
-0.00526719
-0.00316128
-0.00215531
-0.0016463
-0.00126272
-0.00065663
-1.45833
-1.35884
-1.17646
-0.947912
-0.711841
-0.499612
-0.328568
-0.203173
-0.118654
-0.0657498
-0.0348528
-0.0178599
-0.00897848
-0.00453339
-0.00238999
-0.00137589
-0.000889489
-0.000605264
-0.000295052
-1.41841
-1.3337
-1.16287
-0.940659
-0.70717
-0.495792
-0.325138
-0.200213
-0.116284
-0.063973
-0.0335795
-0.0169538
-0.00831517
-0.00401936
-0.00196243
-0.00099912
-0.000549902
-0.000319838
-0.000138647
-1.39138
-1.3185
-1.15417
-0.93382
-0.699886
-0.487948
-0.317618
-0.193872
-0.111505
-0.0606849
-0.0314731
-0.015666
-0.0075425
-0.00354791
-0.00165724
-0.000783353
-0.000384286
-0.000193411
-7.25643e-05
-1.30151
-1.25132
-1.10287
-0.893266
-0.667147
-0.461896
-0.297844
-0.179801
-0.102164
-0.0548879
-0.0280844
-0.0137792
-0.00652799
-0.00301073
-0.00136859
-0.000620257
-0.000284492
-0.000129908
-4.32252e-05
-1.18432
-1.15549
-1.0259
-0.831455
-0.618038
-0.424121
-0.270287
-0.160945
-0.0900992
-0.0476574
-0.0239994
-0.0115854
-0.00539723
-0.00244455
-0.00108807
-0.000479754
-0.000211555
-9.13189e-05
-2.82201e-05
-1.04535
-1.0333
-0.923895
-0.749124
-0.553935
-0.376458
-0.236827
-0.138898
-0.0764819
-0.0397597
-0.0196719
-0.00932912
-0.00426916
-0.00189873
-0.000829103
-0.000357805
-0.00015378
-6.43376e-05
-1.91585e-05
-0.870213
-0.870308
-0.784218
-0.637174
-0.46962
-0.316727
-0.197087
-0.114063
-0.0618808
-0.0316642
-0.0154127
-0.00718983
-0.00323625
-0.00141571
-0.000607973
-0.000258027
-0.000109243
-4.54398e-05
-1.38936e-05
-0.650305
-0.632453
-0.554726
-0.43908
-0.315683
-0.207986
-0.126605
-0.0717296
-0.0380962
-0.0190685
-0.00906401
-0.00411896
-0.0018001
-0.000761351
-0.000314526
-0.000127914
-5.23281e-05
-2.20985e-05
-7.83934e-06
-0.437002
-0.464477
-0.443996
-0.379026
-0.290719
-0.202446
-0.129402
-0.0766782
-0.042544
-0.0222822
-0.0111122
-0.00532643
-0.00247017
-0.00111669
-0.000496369
-0.000219492
-9.90686e-05
-4.90089e-05
-2.91669e-05
-0.144418
-0.152017
-0.151352
-0.138771
-0.116116
-0.0887496
-0.0622954
-0.0404179
-0.0244535
-0.0139028
-0.00748904
-0.00386424
-0.00192311
-0.000930846
-0.000441509
-0.000207293
-9.86544e-05
-5.19086e-05
-3.5025e-05
0.152879
0.144642
0.115637
0.0764488
0.0397145
0.0132354
-0.00152344
-0.00723962
-0.00776763
-0.00615787
-0.00417069
-0.00256584
-0.00147452
-0.000808711
-0.000428614
-0.000221735
-0.000113817
-6.29819e-05
-4.36669e-05
0.442107
0.428581
0.371751
0.287228
0.197771
0.121468
0.0664659
0.0321219
0.0133447
0.00436905
0.000725299
-0.000447924
-0.000635355
-0.000519335
-0.000354859
-0.000220164
-0.000126976
-7.39975e-05
-5.13227e-05
0.688255
0.663053
0.582278
0.464186
0.336071
0.221583
0.133579
0.0738497
0.0375002
0.0174326
0.00735767
0.00271515
0.000770216
4.34728e-05
-0.000169679
-0.000186932
-0.000137433
-8.63819e-05
-5.69553e-05
0.921037
0.876064
0.769771
0.622289
0.462824
0.317419
0.201564
0.118995
0.0656036
0.0338748
0.0164464
0.00747468
0.00312245
0.00111439
0.000250697
-7.54382e-05
-0.000140585
-0.000107469
-6.26899e-05
1.07012
1.00671
0.884857
0.723697
0.550577
0.390294
0.258722
0.161
0.0945218
0.0525792
0.0278906
0.0141327
0.00680649
0.0030206
0.00112751
0.000222537
-0.000116987
-0.000162232
-8.87015e-05
1.1885
1.11018
0.975486
0.804882
0.623756
0.454673
0.312717
0.203659
0.126207
0.0747672
0.0426489
0.0235223
0.0125422
0.00635229
0.00290502
0.000982967
3.68528e-05
-0.000283972
-0.000231723
1.27876
1.18236
1.03695
0.861778
0.678934
0.507653
0.361238
0.245382
0.15986
0.100342
0.0611337
0.0363538
0.0211637
0.0119551
0.00637314
0.00286743
0.000766408
-0.000309247
-0.000498656
1.30973
1.19052
1.03382
0.856783
0.677534
0.511312
0.368712
0.254379
0.168318
0.107019
0.0656147
0.0388347
0.0220938
0.0117803
0.00539867
0.00117362
-0.00171905
-0.00369525
-0.00468739
1.30371
1.17843
1.02793
0.864884
0.701652
0.548803
0.414221
0.302026
0.213231
0.146106
0.0975284
0.0636624
0.0407176
0.0254552
0.0153547
0.0084015
0.00328532
-0.000910839
-0.00462132
1.28474
1.15753
1.01438
0.862921
0.711814
0.569234
0.441656
0.332864
0.244262
0.174952
0.122752
0.0847331
0.0577012
0.038828
0.0257857
0.0166795
0.0101365
0.0051563
0.000998551
1.17121
1.02975
0.884612
0.740151
0.602314
0.47663
0.367062
0.275454
0.201907
0.144905
0.102176
0.0710693
0.0488431
0.0331532
0.0221085
0.0142042
0.00836793
0.00389346
0.000298206
0.997054
0.873377
0.748814
0.626656
0.511277
0.406647
0.315532
0.23914
0.177432
0.129162
0.092549
0.0655133
0.0458709
0.0317359
0.0215677
0.0141133
0.00846425
0.00401739
0.000352203
0.80812
0.707445
0.605915
0.506973
0.414139
0.330343
0.257515
0.196416
0.146912
0.107978
0.0782307
0.0560573
0.0397604
0.0278675
0.0191712
0.012674
0.00765119
0.00362374
0.000254713
0.597304
0.521324
0.445724
0.37284
0.304946
0.243911
0.190934
0.146445
0.110293
0.081722
0.0597547
0.0432509
0.0310046
0.0219658
0.0152711
0.0101982
0.00622203
0.00299805
0.00028156
0.371506
0.321262
0.273304
0.228074
0.186436
0.149241
0.117053
0.0900445
0.0680784
0.05068
0.0372578
0.0271275
0.019566
0.013943
0.00974027
0.00652108
0.00396854
0.00187681
9.99329e-05
0.141353
0.120574
0.101737
0.0843792
0.0685985
0.0546232
0.0426168
0.0326096
0.0245227
0.0181573
0.0132763
0.00961377
0.00689491
0.00488262
0.00338325
0.00223514
0.00132123
0.000565656
-8.45295e-05
-0.141286
-0.120418
-0.101524
-0.0841364
-0.0683483
-0.0543827
-0.0423975
-0.032418
-0.024361
-0.0180248
-0.0131702
-0.00953031
-0.00683035
-0.00483355
-0.00334679
-0.00220917
-0.00130429
-0.000556794
8.58149e-05
-0.371441
-0.321121
-0.273114
-0.22786
-0.186218
-0.149033
-0.116865
-0.0898817
-0.0679424
-0.0505697
-0.0371705
-0.0270597
-0.0195141
-0.0139042
-0.00971202
-0.00650162
-0.00395669
-0.0018718
-0.000101335
-0.597236
-0.521184
-0.445537
-0.372629
-0.304732
-0.243709
-0.190753
-0.146291
-0.110165
-0.08162
-0.0596751
-0.0431899
-0.0309585
-0.0219314
-0.0152459
-0.0101802
-0.00620988
-0.00299075
-0.000278466
-0.808064
-0.707336
-0.605774
-0.506819
-0.413988
-0.330205
-0.257397
-0.196321
-0.146838
-0.107923
-0.0781906
-0.0560289
-0.0397406
-0.027854
-0.0191623
-0.0126685
-0.00764829
-0.0036229
-0.000255536
-0.99701
-0.873293
-0.748705
-0.626539
-0.511167
-0.406553
-0.315458
-0.239088
-0.177398
-0.129142
-0.092539
-0.0655097
-0.045871
-0.0317378
-0.0215704
-0.0141161
-0.00846674
-0.00401926
-0.000352974
-1.17119
-1.0297
-0.884546
-0.740083
-0.602258
-0.476593
-0.367048
-0.275459
-0.201925
-0.144931
-0.102203
-0.0710953
-0.0488657
-0.0331717
-0.0221231
-0.0142152
-0.00837553
-0.00389784
-0.000299535
-1.28471
-1.15739
-1.01413
-0.862591
-0.711451
-0.568878
-0.441334
-0.332592
-0.244044
-0.174784
-0.122626
-0.0846414
-0.0576344
-0.038779
-0.0257485
-0.0166498
-0.0101116
-0.00513666
-0.00098806
-1.3039
-1.17895
-1.02877
-0.865981
-0.702909
-0.55011
-0.415479
-0.303159
-0.214195
-0.146888
-0.0981368
-0.0641207
-0.0410547
-0.0257003
-0.0155338
-0.00853682
-0.00339274
0.000823203
0.00455599
-1.30962
-1.19026
-1.03347
-0.856411
-0.677187
-0.511013
-0.368464
-0.254174
-0.168146
-0.106875
-0.0654917
-0.0387304
-0.0220059
-0.0117066
-0.00533652
-0.0011197
0.00177048
0.00375514
0.00477228
-1.27882
-1.18252
-1.03722
-0.862149
-0.679373
-0.508111
-0.361667
-0.245751
-0.160155
-0.100564
-0.061293
-0.0364653
-0.0212408
-0.0120082
-0.00640909
-0.00288937
-0.000775812
0.000309598
0.000503821
-1.18853
-1.11027
-0.975677
-0.805166
-0.624102
-0.455034
-0.313051
-0.203937
-0.126421
-0.0749218
-0.0427561
-0.0235953
-0.0125918
-0.00638635
-0.00292788
-0.00099589
-4.04702e-05
0.000285348
0.000228957
-1.07015
-1.00682
-0.885062
-0.723993
-0.550926
-0.390645
-0.259031
-0.161246
-0.0947019
-0.0527029
-0.0279723
-0.0141858
-0.0068413
-0.00304363
-0.00114233
-0.000230492
0.000114947
0.00016309
8.58131e-05
-0.921076
-0.876183
-0.769993
-0.622597
-0.46317
-0.31775
-0.201842
-0.119204
-0.0657479
-0.0339684
-0.0165047
-0.00751042
-0.0031444
-0.00112787
-0.000258553
7.17862e-05
0.000139925
0.000107938
6.0943e-05
-0.688294
-0.66318
-0.582503
-0.464481
-0.336385
-0.221867
-0.133803
-0.0740091
-0.0376039
-0.0174958
-0.00739456
-0.00273616
-0.000782043
-4.99209e-05
0.000166583
0.000186013
0.000137667
8.67427e-05
5.61074e-05
-0.442158
-0.428731
-0.371992
-0.287518
-0.198055
-0.121706
-0.0666399
-0.0322364
-0.0134138
-0.00440782
-0.000745938
0.000437422
0.000630296
0.000517215
0.000354372
0.000220524
0.00012755
7.43317e-05
5.10175e-05
-0.152929
-0.144797
-0.115871
-0.0767065
-0.0399448
-0.0134103
0.00140716
0.00717057
0.00773048
0.0061397
0.00416264
0.0025628
0.00147381
0.000809032
0.00042935
0.00022253
0.000114419
6.32843e-05
4.36396e-05
0.144292
0.151666
0.150868
0.138282
0.115713
0.0884649
0.0621179
0.0403182
0.0244025
0.0138789
0.00747893
0.00386058
0.00192223
0.000931042
0.000442029
0.000207795
9.89884e-05
5.20631e-05
3.50659e-05
0.437067
0.464707
0.444355
0.379429
0.291085
0.202729
0.129596
0.0767983
0.0426129
0.0223196
0.0111318
0.00533655
0.00247541
0.00111945
0.000497844
0.000220282
9.94768e-05
4.92131e-05
2.92612e-05
0.650201
0.632138
0.554283
0.438618
0.315285
0.207686
0.126402
0.071604
0.038024
0.0190296
0.00904421
0.00410938
0.00179568
0.000759403
0.000313699
0.000127568
5.21749e-05
2.20256e-05
7.81469e-06
0.870253
0.870386
0.784314
0.637266
0.469693
0.316778
0.197119
0.114082
0.0618911
0.0316696
0.0154154
0.00719112
0.00323686
0.00141599
0.000608092
0.000258075
0.000109258
4.54447e-05
1.38977e-05
1.04535
1.03329
0.923888
0.749115
0.553925
0.376452
0.236825
0.138899
0.0764836
0.0397615
0.0196732
0.00933001
0.00426966
0.001899
0.000829231
0.000357864
0.000153808
6.43515e-05
1.91621e-05
1.18432
1.1555
1.02589
0.831448
0.618031
0.424116
0.270285
0.160945
0.0901003
0.0476588
0.0240005
0.0115861
0.00539768
0.00244478
0.00108818
0.000479811
0.000211589
9.13413e-05
2.82233e-05
1.30151
1.25133
1.10287
0.893262
0.667142
0.461891
0.29784
0.179799
0.102164
0.0548887
0.0280852
0.0137799
0.00652843
0.00301099
0.00136874
0.000620348
0.000284566
0.000129967
4.32376e-05
1.39138
1.31851
1.15417
0.933822
0.699884
0.487944
0.317615
0.19387
0.111504
0.0606852
0.0314737
0.0156666
0.00754296
0.00354822
0.00165745
0.000783518
0.000384459
0.000193563
7.25995e-05
1.41841
1.33371
1.16288
0.940662
0.707169
0.495789
0.325135
0.20021
0.116283
0.063973
0.03358
0.0169544
0.00831569
0.00401974
0.00196273
0.000999445
0.000550302
0.000320198
0.000138729
1.45833
1.35884
1.17646
0.947915
0.711841
0.499609
0.328565
0.20317
0.118653
0.0657498
0.0348533
0.0178606
0.00897908
0.00453388
0.00239048
0.00137656
0.000890379
0.000606047
0.000295212
1.48468
1.36391
1.16877
0.934947
0.698809
0.489119
0.321362
0.198876
0.116492
0.0649705
0.0348689
0.0182984
0.00962214
0.00526778
0.00316214
0.00215669
0.00164813
0.00126424
0.000656881
1.47853
1.33731
1.1317
0.895998
0.664244
0.462037
0.302363
0.18689
0.109803
0.0618817
0.034005
0.0187144
0.010728
0.00672639
0.00479937
0.00386897
0.00333671
0.00272987
0.00144787
1.44533
1.28552
1.07096
0.836206
0.612749
0.422334
0.274828
0.169796
0.100604
0.0580824
0.0335868
0.0202717
0.0133764
0.00995599
0.00834456
0.00754857
0.00693807
0.00580935
0.00306248
1.40729
1.22396
0.999005
0.766147
0.553207
0.377257
0.244491
0.152047
0.0923598
0.0563349
0.0359273
0.0250227
0.0194909
0.0168329
0.0156677
0.015036
0.0141601
0.0118539
0.00612248
1.34886
1.13957
0.907429
0.68152
0.484518
0.327937
0.21378
0.136684
0.0883026
0.0598512
0.0441664
0.0360502
0.0321385
0.0304383
0.0298596
0.0293371
0.0277108
0.022908
0.0115048
1.20318
0.985485
0.763652
0.561963
0.395982
0.270486
0.18307
0.126476
0.0924006
0.073126
0.0630165
0.0581635
0.0561895
0.0556682
0.0557527
0.054999
0.0514809
0.0417069
0.0202756
1.06755
0.844686
0.638344
0.465592
0.333008
0.23878
0.176906
0.139141
0.117811
0.1065
0.101219
0.0992657
0.0991164
0.0996999
0.100136
0.0981094
0.0903737
0.0714505
0.0335644
0.906064
0.688624
0.514911
0.384822
0.294142
0.235521
0.200766
0.18195
0.172898
0.168972
0.168099
0.168813
0.170316
0.171609
0.171376
0.165812
0.149751
0.115343
0.0524444
0.632664
0.473355
0.372193
0.311975
0.280209
0.26691
0.264156
0.26629
0.270018
0.27333
0.276496
0.279434
0.281874
0.282511
0.279034
0.265551
0.234536
0.175922
0.0778578
0.357363
0.304985
0.299879
0.317846
0.345121
0.37343
0.397893
0.416443
0.429273
0.437067
0.442073
0.445314
0.446421
0.443173
0.431598
0.403373
0.348543
0.255535
0.111549
0.0785745
0.182434
0.296991
0.40305
0.49229
0.561369
0.610768
0.642937
0.662137
0.671957
0.676165
0.676784
0.672713
0.660365
0.633683
0.582222
0.4941
0.357303
0.158076
-0.143531
0.145466
0.388493
0.583539
0.732523
0.838489
0.908827
0.950717
0.972708
0.981322
0.981051
0.974902
0.960489
0.932845
0.883991
0.802568
0.675645
0.491123
0.231494
-0.249596
0.209328
0.570767
0.847551
1.05064
1.18827
1.27522
1.323
1.34438
1.34877
1.34049
1.3238
1.29504
1.24882
1.17643
1.06779
0.909552
0.687416
0.372124
-0.208813
0.358551
0.810741
1.15476
1.40314
1.56611
1.66525
1.71577
1.73425
1.73302
1.71559
1.68814
1.64718
1.5895
1.50856
1.39883
1.24647
1.02899
0.69076
-0.0478693
0.547635
1.05378
1.44538
1.72679
1.90703
2.01323
2.06399
2.07891
2.0737
2.05083
2.01986
1.98172
1.94105
1.89931
1.86226
1.81707
1.72622
1.48864
0.142825
0.713596
1.24315
1.66184
1.96062
2.14719
2.25304
2.30151
2.3131
2.3091
2.29051
2.27306
2.27379
2.32046
2.44838
2.73382
3.27994
4.28699
6.15118
)
;

boundaryField
{
    up
    {
        type            calculated;
        value           nonuniform List<scalar> 
84
(
-6.15117
-1.48866
-0.690776
-0.372126
-0.231483
-0.158061
-0.111538
-0.0778537
-0.0524461
-0.0335687
-0.0202796
-0.0115072
-0.00612332
-0.00306249
-0.0014476
-0.00065663
-0.000295052
-0.000138647
-7.25643e-05
-4.32252e-05
-2.82201e-05
-1.91585e-05
-1.38936e-05
-7.83934e-06
-2.19941e-05
-2.93389e-05
-3.80264e-05
-4.56724e-05
-4.92292e-05
-4.38352e-05
-2.54706e-05
-1.25403e-07
0.000128435
-0.00389389
-0.00437934
0.00102494
0.000336311
0.000380774
0.000275393
0.00029319
0.00010676
-8.14706e-05
8.27795e-05
-0.000108099
-0.000290066
-0.000276114
-0.000381437
-0.000337541
-0.00101454
0.00432115
0.0039937
-0.000126304
-1.01781e-05
1.75677e-05
3.96379e-05
4.73756e-05
4.50119e-05
3.7894e-05
2.93833e-05
2.20551e-05
7.81469e-06
1.38977e-05
1.91621e-05
2.82233e-05
4.32376e-05
7.25995e-05
0.000138729
0.000295212
0.000656881
0.00144787
0.00306248
0.00612248
0.0115048
0.0202756
0.0335644
0.0524444
0.0778578
0.111549
0.158076
0.231494
0.372124
0.69076
1.48864
6.15118
)
;
    }
    low
    {
        type            calculated;
        value           nonuniform List<scalar> 
84
(
-0.12721
0.0727316
0.246132
0.287014
0.1652
-0.0822642
-0.385647
-0.677723
-0.957443
-1.11174
-1.24585
-1.38963
-1.43711
-1.46996
-1.50129
-1.50185
-1.47006
-1.4301
-1.39964
-1.29883
-1.17382
-1.02938
-0.848986
-0.62756
-0.415005
-0.135584
0.142543
0.417801
0.660804
0.900053
1.06058
1.18672
1.28557
1.32552
1.32519
1.31312
1.20596
1.02959
0.835098
0.617705
0.384572
0.146675
-0.146607
-0.384505
-0.617633
-0.835035
-1.02954
-1.20593
-1.31308
-1.32534
-1.3254
-1.28561
-1.18674
-1.06061
-0.900087
-0.660842
-0.417852
-0.142593
0.13546
0.415066
0.627463
0.849019
1.02938
1.17382
1.29882
1.39964
1.4301
1.47005
1.50184
1.50128
1.46995
1.4371
1.38962
1.24586
1.11176
0.957454
0.677731
0.385655
0.0822704
-0.165197
-0.287017
-0.246141
-0.0727385
0.127211
)
;
    }
    left
    {
        type            calculated;
        value           nonuniform List<scalar> 
19
(
-0.13192
-0.700626
-1.25051
-1.69146
-2.00871
-2.2075
-2.321
-2.37484
-2.38939
-2.38997
-2.37661
-2.36582
-2.38072
-2.45747
-2.63909
-3.02773
-3.76291
-5.1206
-5.32989
)
;
    }
    right
    {
        type            calculated;
        value           nonuniform List<scalar> 
19
(
0.131925
0.700629
1.25051
1.69145
2.0087
2.2075
2.321
2.37484
2.3894
2.38997
2.37662
2.36583
2.38072
2.45746
2.63906
3.02767
3.76285
5.12057
5.32992
)
;
    }
    frontAndBackPlanes
    {
        type            empty;
    }
}


// ************************************************************************* //
