/*--------------------------------*- C++ -*----------------------------------*\
  =========                 |
  \\      /  F ield         | OpenFOAM: The Open Source CFD Toolbox
   \\    /   O peration     | Website:  https://openfoam.org
    \\  /    A nd           | Version:  7
     \\/     M anipulation  |
\*---------------------------------------------------------------------------*/
FoamFile
{
    version     2.0;
    format      ascii;
    class       volScalarField;
    location    "0.05";
    object      gradTy;
}
// * * * * * * * * * * * * * * * * * * * * * * * * * * * * * * * * * * * * * //

dimensions      [0 -1 0 1 0 0 0];

internalField   nonuniform List<scalar> 
1596
(
-0.301211
-0.542041
-0.709825
-0.838095
-0.929761
-1.01133
-1.07654
-1.14605
-1.22107
-1.29773
-1.40784
-1.53655
-1.72269
-2.00838
-2.50324
-3.33304
-4.90386
-7.87538
-18.589
-0.889359
-1.04512
-1.09155
-1.09225
-1.06981
-1.05951
-1.05782
-1.0795
-1.12131
-1.17261
-1.25875
-1.36475
-1.51882
-1.74251
-2.09962
-2.61799
-3.44216
-4.69007
-8.25438
-1.51348
-1.49393
-1.39272
-1.26467
-1.13574
-1.04075
-0.976515
-0.951737
-0.958835
-0.982998
-1.04185
-1.1195
-1.23583
-1.40287
-1.66525
-2.02926
-2.5805
-3.36585
-5.04606
-2.074
-1.86359
-1.62032
-1.37664
-1.15534
-0.986345
-0.866645
-0.799326
-0.773556
-0.772074
-0.804649
-0.855185
-0.936276
-1.0543
-1.24163
-1.49768
-1.87968
-2.40737
-3.31433
-2.49245
-2.14275
-1.79023
-1.45535
-1.15997
-0.929492
-0.762374
-0.657477
-0.602053
-0.577695
-0.586972
-0.614219
-0.665745
-0.744119
-0.872551
-1.04926
-1.31566
-1.68241
-2.23672
-2.73923
-2.3323
-1.91741
-1.52155
-1.17194
-0.892871
-0.686217
-0.548717
-0.467048
-0.422649
-0.41208
-0.420343
-0.448559
-0.496423
-0.579597
-0.696667
-0.878193
-1.13265
-1.49737
-2.83299
-2.44041
-2.00955
-1.58323
-1.199
-0.883954
-0.645291
-0.479944
-0.375289
-0.313365
-0.286202
-0.279417
-0.290094
-0.315673
-0.365526
-0.438575
-0.556688
-0.727814
-0.971958
-2.81638
-2.47814
-2.06667
-1.63662
-1.23606
-0.897417
-0.634386
-0.44613
-0.321843
-0.244774
-0.203935
-0.18543
-0.183397
-0.193551
-0.220289
-0.262438
-0.334632
-0.443976
-0.603571
-2.73553
-2.47093
-2.09963
-1.68405
-1.28059
-0.927917
-0.646549
-0.439339
-0.298109
-0.207714
-0.155438
-0.127694
-0.116565
-0.116481
-0.128169
-0.150046
-0.190974
-0.256531
-0.355957
-2.61482
-2.41459
-2.09146
-1.70387
-1.31074
-0.955486
-0.66439
-0.444563
-0.290888
-0.190182
-0.129151
-0.094539
-0.0771661
-0.0706033
-0.0731039
-0.082593
-0.103698
-0.140197
-0.198495
-2.50937
-2.34529
-2.06117
-1.70283
-1.32571
-0.974962
-0.680621
-0.453576
-0.29162
-0.183545
-0.116211
-0.0767157
-0.0551942
-0.0446942
-0.0419414
-0.0444448
-0.0539914
-0.072682
-0.104584
-2.40862
-2.27841
-2.02548
-1.69256
-1.33163
-0.988023
-0.693871
-0.463028
-0.295737
-0.182538
-0.110791
-0.067907
-0.043679
-0.0308385
-0.0252237
-0.0240444
-0.0273507
-0.0359586
-0.0521386
-2.30143
-2.1996
-1.97321
-1.66318
-1.31896
-0.985573
-0.695859
-0.465636
-0.296902
-0.181601
-0.107776
-0.0631842
-0.0375757
-0.02357
-0.0165707
-0.0136298
-0.0138441
-0.0171931
-0.0247252
-2.21995
-2.12778
-1.91695
-1.62306
-1.29251
-0.969459
-0.686369
-0.459903
-0.292927
-0.178243
-0.104483
-0.0597294
-0.0338698
-0.0195699
-0.0120943
-0.00846059
-0.00731188
-0.00815866
-0.0113071
-2.15479
-2.06754
-1.86339
-1.57829
-1.25702
-0.942804
-0.667078
-0.446353
-0.28352
-0.171656
-0.099746
-0.0561356
-0.0309451
-0.0170005
-0.00961331
-0.00586215
-0.00422898
-0.00400979
-0.00511741
-2.09734
-2.01514
-1.81265
-1.53042
-1.21422
-0.906997
-0.63888
-0.42541
-0.268713
-0.161581
-0.093075
-0.051738
-0.0279874
-0.0149056
-0.00798038
-0.00442935
-0.00273873
-0.00214588
-0.00239094
-2.05371
-1.97101
-1.7649
-1.4801
-1.16496
-0.862894
-0.602518
-0.397643
-0.248877
-0.148192
-0.0844582
-0.0463662
-0.0246914
-0.0128664
-0.00665676
-0.00348608
-0.0019393
-0.00128392
-0.0012112
-2.02474
-1.93775
-1.72274
-1.43003
-1.11201
-0.813098
-0.560272
-0.364893
-0.225379
-0.132417
-0.074448
-0.0402868
-0.0211166
-0.010799
-0.00545035
-0.00274995
-0.00143267
-0.000842226
-0.000682667
-1.99645
-1.91518
-1.69059
-1.38594
-1.0611
-0.762752
-0.516397
-0.33044
-0.200572
-0.115824
-0.0640126
-0.0340443
-0.0175279
-0.0087933
-0.00434145
-0.00212974
-0.00106293
-0.000578986
-0.000420297
-1.96492
-1.89574
-1.66305
-1.34446
-1.01027
-0.710973
-0.47076
-0.294592
-0.174935
-0.0988781
-0.0535175
-0.0278824
-0.014064
-0.00690988
-0.00333745
-0.00159717
-0.000771918
-0.000399775
-0.000270072
-1.94457
-1.88397
-1.64167
-1.30646
-0.960397
-0.658747
-0.424423
-0.258373
-0.149342
-0.0822415
-0.043414
-0.0220798
-0.0108797
-0.00522382
-0.00246558
-0.00115186
-0.000541543
-0.000270148
-0.000173944
-1.92838
-1.87987
-1.62772
-1.27394
-0.913838
-0.608452
-0.379488
-0.223447
-0.12499
-0.0666985
-0.0341742
-0.0168972
-0.0081063
-0.00379398
-0.00174694
-0.00079631
-0.000364775
-0.000176304
-0.000109473
-1.90934
-1.88004
-1.62093
-1.24851
-0.873121
-0.562698
-0.33814
-0.191398
-0.102896
-0.0528375
-0.0261051
-0.0124773
-0.00580066
-0.00263686
-0.00118159
-0.000524969
-0.000234509
-0.000110122
-6.60646e-05
-1.88567
-1.8803
-1.61832
-1.22916
-0.838727
-0.522497
-0.301317
-0.162804
-0.0833011
-0.0406871
-0.0191332
-0.00872546
-0.00388149
-0.00169368
-0.000730631
-0.000313749
-0.000136058
-6.20902e-05
-3.43113e-05
-1.8606
-1.88586
-1.63757
-1.24708
-0.848815
-0.524755
-0.299049
-0.159082
-0.0799662
-0.0383766
-0.017759
-0.00800857
-0.0035444
-0.00155107
-0.000676798
-0.000297576
-0.000134066
-6.45801e-05
-3.54037e-05
-1.83663
-1.89075
-1.66565
-1.28641
-0.887338
-0.55496
-0.319143
-0.170726
-0.0859642
-0.0411786
-0.0189586
-0.00849646
-0.00374084
-0.00163472
-0.000716536
-0.000319407
-0.000147861
-7.48115e-05
-4.45713e-05
-1.82969
-1.8954
-1.68975
-1.32641
-0.932629
-0.595405
-0.349481
-0.190494
-0.0974088
-0.047168
-0.0218199
-0.00976456
-0.00426778
-0.00184374
-0.000797556
-0.000351796
-0.000163065
-8.5034e-05
-5.40438e-05
-1.84423
-1.90279
-1.7094
-1.364
-0.981307
-0.643971
-0.389652
-0.219175
-0.11556
-0.0575465
-0.0272377
-0.0123834
-0.00544654
-0.00234027
-0.000991902
-0.000421411
-0.000185597
-9.37657e-05
-6.12017e-05
-1.87636
-1.91739
-1.73046
-1.40321
-1.03523
-0.701506
-0.440582
-0.258148
-0.142065
-0.0738898
-0.0364804
-0.0172478
-0.00784452
-0.00345376
-0.00147502
-0.000612244
-0.000248377
-0.0001092
-6.48412e-05
-1.9245
-1.9394
-1.75491
-1.4453
-1.09404
-0.766832
-0.501366
-0.307372
-0.177698
-0.0974025
-0.0507924
-0.0254047
-0.0122321
-0.00569987
-0.00256586
-0.00110554
-0.000439486
-0.000163058
-6.87878e-05
-1.98826
-1.97338
-1.78979
-1.49637
-1.16157
-0.841817
-0.572997
-0.367843
-0.223807
-0.129705
-0.0718169
-0.038304
-0.0197596
-0.00992435
-0.00485185
-0.00228852
-0.000986486
-0.000361892
-0.000101971
-2.0486
-2.01499
-1.8352
-1.55765
-1.23883
-0.927065
-0.656002
-0.440438
-0.281801
-0.17264
-0.101563
-0.0578588
-0.0320732
-0.0174508
-0.00935565
-0.00493846
-0.00244398
-0.00103574
-0.000299081
-2.11754
-2.06843
-1.89197
-1.62829
-1.32416
-1.02075
-0.748991
-0.524649
-0.352217
-0.22765
-0.142049
-0.0862932
-0.0513074
-0.0301626
-0.0176735
-0.0104292
-0.00600685
-0.00315249
-0.00112177
-2.20392
-2.13934
-1.96445
-1.71217
-1.42125
-1.12655
-0.855766
-0.624629
-0.43971
-0.299852
-0.198705
-0.129026
-0.0825891
-0.0527037
-0.0339374
-0.0224975
-0.0153192
-0.0106152
-0.00706818
-2.30097
-2.21924
-2.03916
-1.79107
-1.50822
-1.22043
-0.951802
-0.717096
-0.523618
-0.371951
-0.257866
-0.175699
-0.11831
-0.079508
-0.0539933
-0.0378744
-0.0278751
-0.0218721
-0.0180831
-2.41555
-2.30586
-2.10992
-1.8558
-1.57251
-1.28621
-1.01788
-0.781053
-0.582829
-0.424306
-0.302453
-0.212402
-0.147788
-0.102821
-0.0724434
-0.0527313
-0.0404725
-0.033546
-0.0302575
-2.54991
-2.40451
-2.18715
-1.92103
-1.63136
-1.34147
-1.07019
-0.829992
-0.62755
-0.464007
-0.336848
-0.241569
-0.172203
-0.123197
-0.0896563
-0.0675981
-0.0537381
-0.0457545
-0.0417124
-2.66987
-2.49368
-2.25696
-1.97915
-1.68271
-1.38879
-1.11458
-0.871481
-0.665723
-0.498347
-0.367094
-0.267755
-0.194648
-0.142438
-0.106375
-0.0824917
-0.0674777
-0.0589204
-0.0547544
-2.76181
-2.56701
-2.3168
-2.03007
-1.72805
-1.43057
-1.15367
-0.908012
-0.699421
-0.528844
-0.394218
-0.291546
-0.21538
-0.16056
-0.122475
-0.0971668
-0.0813155
-0.0724246
-0.0683094
-2.83427
-2.62549
-2.36482
-2.07095
-1.76431
-1.46385
-1.18474
-0.937046
-0.726296
-0.553323
-0.416195
-0.311058
-0.232636
-0.175903
-0.13636
-0.110056
-0.0936718
-0.0846429
-0.0806908
-2.88765
-2.66799
-2.39896
-2.09944
-1.78924
-1.48655
-1.20589
-0.956857
-0.744733
-0.570246
-0.431537
-0.324837
-0.244986
-0.187046
-0.146601
-0.119702
-0.103034
-0.0939816
-0.0901972
-2.92595
-2.69296
-2.41675
-2.11328
-1.80094
-1.49711
-1.21579
-0.966272
-0.753651
-0.57858
-0.439227
-0.331862
-0.251385
-0.19291
-0.152072
-0.124928
-0.108173
-0.0991701
-0.0955398
-2.92596
-2.69298
-2.41679
-2.11333
-1.80099
-1.49716
-1.21585
-0.966322
-0.753698
-0.578622
-0.439264
-0.331893
-0.251411
-0.192933
-0.152092
-0.124946
-0.10819
-0.0991867
-0.0955572
-2.88767
-2.66805
-2.39905
-2.09956
-1.78938
-1.4867
-1.20604
-0.957003
-0.744869
-0.570368
-0.431645
-0.32493
-0.245065
-0.187113
-0.146659
-0.119754
-0.103083
-0.0940306
-0.0902491
-2.8343
-2.62558
-2.36496
-2.07113
-1.76453
-1.46408
-1.18498
-0.937281
-0.726514
-0.553519
-0.416365
-0.311203
-0.232759
-0.176006
-0.136449
-0.110135
-0.0937454
-0.0847157
-0.0807672
-2.76184
-2.56712
-2.31698
-2.03031
-1.72833
-1.43088
-1.154
-0.908324
-0.699709
-0.5291
-0.394439
-0.291732
-0.215536
-0.160689
-0.122584
-0.0972619
-0.0814025
-0.0725094
-0.0683975
-2.66991
-2.49381
-2.25717
-1.97944
-1.68306
-1.38918
-1.11497
-0.871863
-0.666074
-0.498655
-0.367357
-0.267973
-0.194827
-0.142583
-0.106495
-0.0825941
-0.0675694
-0.0590081
-0.0548443
-2.54996
-2.40465
-2.18738
-1.92136
-1.63176
-1.34191
-1.07065
-0.830433
-0.627951
-0.464356
-0.33714
-0.241806
-0.172392
-0.123347
-0.0897769
-0.0676978
-0.0538247
-0.0458347
-0.0417918
-2.4156
-2.30603
-2.11021
-1.85622
-1.57303
-1.28678
-1.01847
-0.781617
-0.583336
-0.424738
-0.302808
-0.212684
-0.148009
-0.102992
-0.072578
-0.0528397
-0.0405641
-0.033628
-0.0303358
-2.301
-2.21931
-2.03933
-1.7914
-1.50869
-1.22101
-0.952432
-0.717719
-0.524189
-0.372439
-0.258263
-0.176007
-0.118541
-0.0796769
-0.0541149
-0.037962
-0.0279442
-0.0219426
-0.0181787
-2.20396
-2.13954
-1.96485
-1.71278
-1.42204
-1.12745
-0.856684
-0.625491
-0.440465
-0.300475
-0.199195
-0.129399
-0.0828654
-0.0529066
-0.0340883
-0.0226152
-0.0154206
-0.0107159
-0.00718018
-2.11755
-2.06853
-1.89225
-1.62877
-1.32479
-1.02145
-0.749697
-0.525286
-0.352747
-0.228063
-0.142352
-0.0865073
-0.0514538
-0.0302617
-0.0177425
-0.0104819
-0.00605119
-0.00318797
-0.0011408
-2.04859
-2.01508
-1.83547
-1.55812
-1.23944
-0.927733
-0.656645
-0.440994
-0.282242
-0.172966
-0.10179
-0.0580096
-0.0321703
-0.0175126
-0.00939655
-0.00496847
-0.00246768
-0.00105068
-0.000298641
-1.98825
-1.97345
-1.79004
-1.49681
-1.16215
-0.84243
-0.573565
-0.368313
-0.224161
-0.129954
-0.0719803
-0.0384065
-0.0198217
-0.00996149
-0.00487479
-0.00230381
-0.000996879
-0.000366712
-9.82793e-05
-1.92449
-1.93946
-1.75514
-1.44572
-1.09458
-0.767387
-0.501859
-0.307761
-0.177977
-0.0975877
-0.0509075
-0.0254726
-0.0122708
-0.00572152
-0.00257815
-0.00111267
-0.000443223
-0.000163808
-6.58699e-05
-1.87633
-1.91743
-1.73067
-1.4036
-1.03571
-0.701993
-0.440997
-0.258461
-0.142279
-0.0740243
-0.0365594
-0.0172918
-0.007868
-0.00346597
-0.00148127
-0.000615248
-0.000249378
-0.000108822
-6.31641e-05
-1.8442
-1.90283
-1.70959
-1.36435
-0.981736
-0.644384
-0.38999
-0.219419
-0.115718
-0.0576414
-0.0272906
-0.0124113
-0.00546051
-0.00234698
-0.000994953
-0.000422574
-0.00018572
-9.33478e-05
-6.04351e-05
-1.82966
-1.89543
-1.68993
-1.32671
-0.93299
-0.59574
-0.349746
-0.190677
-0.0975235
-0.047234
-0.0218553
-0.00978238
-0.00427628
-0.00184758
-0.000799147
-0.000352305
-0.000163059
-8.48413e-05
-5.38048e-05
-1.83661
-1.89079
-1.66579
-1.28665
-0.887614
-0.55521
-0.319335
-0.170856
-0.0860434
-0.0412231
-0.0189818
-0.00850786
-0.00374615
-0.00163706
-0.000717495
-0.000319733
-0.000147917
-7.47959e-05
-4.45749e-05
-1.86062
-1.88589
-1.63762
-1.24715
-0.848895
-0.524826
-0.299104
-0.159119
-0.0799892
-0.0383896
-0.0177656
-0.00801183
-0.00354589
-0.00155172
-0.000677056
-0.000297663
-0.00013409
-6.4599e-05
-3.53983e-05
-1.88568
-1.8803
-1.61828
-1.22909
-0.838649
-0.522425
-0.30126
-0.162762
-0.0832727
-0.0406689
-0.0191222
-0.00871908
-0.00387795
-0.00169177
-0.000729629
-0.00031323
-0.000135794
-6.19574e-05
-3.4203e-05
-1.90935
-1.88005
-1.62093
-1.2485
-0.873121
-0.562703
-0.338146
-0.191403
-0.102899
-0.0528386
-0.0261053
-0.012477
-0.00580029
-0.00263654
-0.00118136
-0.00052482
-0.000234418
-0.000110069
-6.60087e-05
-1.92838
-1.87987
-1.62772
-1.27393
-0.913834
-0.608452
-0.37949
-0.22345
-0.124991
-0.0666994
-0.0341745
-0.0168973
-0.00810621
-0.00379385
-0.00174683
-0.000796227
-0.000364718
-0.000176268
-0.00010943
-1.94458
-1.88397
-1.64166
-1.30646
-0.960394
-0.658745
-0.424424
-0.258374
-0.149343
-0.0822424
-0.0434146
-0.0220802
-0.0108798
-0.00522385
-0.00246556
-0.00115182
-0.00054151
-0.00027013
-0.000173909
-1.96493
-1.89574
-1.66305
-1.34445
-1.01027
-0.710971
-0.470759
-0.294591
-0.174935
-0.0988789
-0.0535182
-0.027883
-0.0140643
-0.00691005
-0.00333752
-0.00159718
-0.000771919
-0.000399797
-0.000270065
-1.99645
-1.91518
-1.69059
-1.38594
-1.0611
-0.76275
-0.516395
-0.330439
-0.200572
-0.115824
-0.0640133
-0.0340449
-0.0175284
-0.0087936
-0.0043416
-0.00212981
-0.00106298
-0.000579107
-0.000420372
-2.02474
-1.93775
-1.72274
-1.43003
-1.11201
-0.813097
-0.560269
-0.364891
-0.225378
-0.132417
-0.0744484
-0.0402874
-0.0211171
-0.0107995
-0.00545059
-0.00275006
-0.00143283
-0.000842583
-0.000682953
-2.05371
-1.97101
-1.7649
-1.4801
-1.16496
-0.862893
-0.602515
-0.39764
-0.248876
-0.148191
-0.0844584
-0.0463669
-0.0246921
-0.0128669
-0.00665704
-0.00348622
-0.00193966
-0.00128484
-0.00121198
-2.09733
-2.01514
-1.81266
-1.53043
-1.21422
-0.906996
-0.638877
-0.425407
-0.268711
-0.16158
-0.0930751
-0.0517386
-0.0279882
-0.0149061
-0.00798056
-0.00442944
-0.00273953
-0.00214802
-0.00239272
-2.15478
-2.06754
-1.86339
-1.57829
-1.25703
-0.942805
-0.667075
-0.446349
-0.283517
-0.171655
-0.0997459
-0.0561361
-0.0309457
-0.0170007
-0.00961307
-0.0058621
-0.00423075
-0.00401434
-0.00512094
-2.21994
-2.12777
-1.91695
-1.62307
-1.29252
-0.96946
-0.686367
-0.459899
-0.292924
-0.178242
-0.104483
-0.0597298
-0.03387
-0.0195693
-0.0120933
-0.00846044
-0.00731558
-0.00816734
-0.011313
-2.30143
-2.1996
-1.97322
-1.66319
-1.31897
-0.985574
-0.695857
-0.465633
-0.2969
-0.1816
-0.107776
-0.0631842
-0.037575
-0.023568
-0.0165684
-0.0136299
-0.0138512
-0.0172075
-0.0247331
-2.40861
-2.27841
-2.02549
-1.69257
-1.33164
-0.988024
-0.693869
-0.463026
-0.295736
-0.182537
-0.110791
-0.0679059
-0.0436765
-0.0308343
-0.0252199
-0.0240454
-0.0273623
-0.0359787
-0.0521457
-2.50937
-2.34528
-2.06118
-1.70284
-1.32572
-0.974964
-0.680621
-0.453576
-0.29162
-0.183545
-0.11621
-0.076713
-0.0551891
-0.0446876
-0.0419368
-0.044448
-0.0540074
-0.0727039
-0.104584
-2.61481
-2.41459
-2.09147
-1.70387
-1.31074
-0.955487
-0.664391
-0.444564
-0.290888
-0.190181
-0.129149
-0.0945338
-0.0771582
-0.0705948
-0.0731001
-0.0825993
-0.103715
-0.140212
-0.198481
-2.73553
-2.47093
-2.09963
-1.68405
-1.28059
-0.927916
-0.646548
-0.439339
-0.298109
-0.207712
-0.155433
-0.127686
-0.116556
-0.116473
-0.128168
-0.150055
-0.190984
-0.256525
-0.355923
-2.81638
-2.47814
-2.06667
-1.63662
-1.23606
-0.897414
-0.634385
-0.446129
-0.321842
-0.24477
-0.203928
-0.185421
-0.183388
-0.193548
-0.220295
-0.262448
-0.334628
-0.44394
-0.603524
-2.83299
-2.44042
-2.00956
-1.58323
-1.19899
-0.883952
-0.64529
-0.479943
-0.375286
-0.313359
-0.286194
-0.279409
-0.29009
-0.315678
-0.365539
-0.438584
-0.556666
-0.727752
-0.971917
-2.73924
-2.33231
-1.91742
-1.52154
-1.17193
-0.892869
-0.686215
-0.548715
-0.467044
-0.422644
-0.412075
-0.42034
-0.448563
-0.496438
-0.579615
-0.69667
-0.878157
-1.13258
-1.49736
-2.49246
-2.14276
-1.79023
-1.45536
-1.15997
-0.929492
-0.762373
-0.657475
-0.602049
-0.577692
-0.586971
-0.614224
-0.665759
-0.74414
-0.872568
-1.04925
-1.31562
-1.68236
-2.23676
-2.074
-1.86359
-1.62033
-1.37664
-1.15534
-0.986348
-0.866646
-0.799325
-0.773555
-0.772074
-0.804654
-0.855197
-0.936296
-1.05433
-1.24163
-1.49766
-1.87965
-2.40736
-3.31439
-1.51348
-1.49392
-1.39273
-1.26468
-1.13575
-1.04076
-0.976518
-0.951738
-0.958837
-0.983003
-1.04186
-1.11951
-1.23585
-1.40289
-1.66525
-2.02925
-2.58049
-3.36587
-5.04611
-0.889359
-1.04511
-1.09154
-1.09225
-1.06981
-1.05951
-1.05782
-1.0795
-1.12131
-1.17262
-1.25876
-1.36476
-1.51883
-1.74252
-2.09961
-2.61796
-3.44215
-4.69009
-8.2544
-0.301215
-0.542037
-0.709818
-0.83809
-0.929759
-1.01133
-1.07654
-1.14605
-1.22107
-1.29773
-1.40785
-1.53656
-1.72269
-2.00837
-2.50321
-3.333
-4.90383
-7.87538
-18.589
)
;

boundaryField
{
    up
    {
        type            calculated;
        value           nonuniform List<scalar> 
84
(
-16.8531
-9.12122
-5.52756
-3.61707
-2.44278
-1.64068
-1.0695
-0.666926
-0.394637
-0.220618
-0.116337
-0.0579266
-0.0273655
-0.0124067
-0.00552269
-0.00250927
-0.00122271
-0.000660965
-0.000392956
-0.000246282
-0.000155874
-9.67746e-05
-5.7289e-05
-2.7082e-05
-2.69468e-05
-3.80872e-05
-4.76118e-05
-5.47585e-05
-5.60309e-05
-4.72873e-05
-2.98668e-05
-3.49842e-05
-0.000406681
-0.00616334
-0.0174597
-0.0295133
-0.0405525
-0.0536186
-0.0672599
-0.0797613
-0.089374
-0.0948062
-0.0948242
-0.0894277
-0.07984
-0.0673505
-0.0537108
-0.0406327
-0.0295894
-0.0175647
-0.00629235
-0.00042225
-2.5948e-05
-2.04572e-05
-4.15751e-05
-5.32069e-05
-5.35867e-05
-4.7253e-05
-3.80948e-05
-2.69406e-05
-2.69575e-05
-5.72169e-05
-9.67169e-05
-0.000155818
-0.000246239
-0.000392965
-0.000661117
-0.00122319
-0.00251037
-0.00552467
-0.0124093
-0.0273667
-0.0579216
-0.116318
-0.220579
-0.394579
-0.66687
-1.06948
-1.64072
-2.44289
-3.6172
-5.52765
-9.12122
-16.8531
)
;
    }
    low
    {
        type            calculated;
        value           nonuniform List<scalar> 
84
(
-0.325265
-0.936812
-1.60916
-2.22239
-2.68127
-2.94533
-3.03144
-2.99193
-2.87445
-2.71434
-2.59247
-2.47712
-2.34794
-2.25645
-2.18697
-2.12101
-2.06998
-2.0412
-2.00807
-1.96094
-1.92759
-1.89949
-1.86414
-1.82368
-1.76938
-1.72806
-1.71954
-1.75104
-1.8069
-1.88352
-1.9715
-2.04566
-2.12836
-2.22935
-2.33725
-2.46678
-2.62224
-2.7537
-2.85095
-2.92792
-2.98517
-3.03061
-3.03062
-2.98518
-2.92793
-2.85096
-2.75371
-2.62227
-2.46681
-2.33723
-2.22938
-2.12833
-2.04564
-1.97147
-1.88349
-1.80686
-1.75102
-1.71951
-1.72804
-1.76937
-1.82371
-1.86413
-1.8995
-1.9276
-1.96094
-2.00807
-2.0412
-2.06998
-2.121
-2.18696
-2.25644
-2.34792
-2.47711
-2.59247
-2.71433
-2.87444
-2.99192
-3.03144
-2.94533
-2.68127
-2.2224
-1.60917
-0.936828
-0.325272
)
;
    }
    left
    {
        type            calculated;
        value           nonuniform List<scalar> 
19
(
-0.297358
-0.537352
-0.712539
-0.849555
-0.949208
-1.03727
-1.10744
-1.18164
-1.26082
-1.3428
-1.46034
-1.59816
-1.8004
-2.11762
-2.67239
-3.61982
-5.43218
-8.89683
-17.4651
)
;
    }
    right
    {
        type            calculated;
        value           nonuniform List<scalar> 
19
(
-0.297363
-0.537351
-0.712535
-0.849552
-0.949206
-1.03727
-1.10744
-1.18165
-1.26082
-1.34281
-1.46034
-1.59816
-1.80039
-2.1176
-2.67235
-3.61976
-5.43214
-8.89683
-17.4651
)
;
    }
    frontAndBackPlanes
    {
        type            empty;
    }
}


// ************************************************************************* //
