/*--------------------------------*- C++ -*----------------------------------*\
  =========                 |
  \\      /  F ield         | OpenFOAM: The Open Source CFD Toolbox
   \\    /   O peration     | Website:  https://openfoam.org
    \\  /    A nd           | Version:  7
     \\/     M anipulation  |
\*---------------------------------------------------------------------------*/
FoamFile
{
    version     2.0;
    format      ascii;
    class       volScalarField;
    location    "0.05";
    object      T;
}
// * * * * * * * * * * * * * * * * * * * * * * * * * * * * * * * * * * * * * //

dimensions      [0 0 0 1 0 0 0];

internalField   nonuniform List<scalar> 
1596
(
0.990742
0.964878
0.940329
0.920241
0.905499
0.89557
0.889398
0.885652
0.883552
0.882107
0.880977
0.879559
0.876205
0.868575
0.853093
0.822703
0.76568
0.65998
0.46217
0.961142
0.882999
0.815057
0.761383
0.722456
0.696263
0.679847
0.670013
0.664575
0.661449
0.659688
0.658197
0.654591
0.645578
0.626626
0.589974
0.525256
0.417213
0.239677
0.929454
0.803891
0.699745
0.619194
0.561213
0.522244
0.497748
0.48318
0.475236
0.47112
0.469439
0.468902
0.46727
0.46152
0.447546
0.418476
0.365749
0.278415
0.140005
0.903122
0.739721
0.607389
0.506086
0.433293
0.384236
0.353213
0.334731
0.32463
0.319595
0.317855
0.318021
0.318224
0.316091
0.308399
0.289631
0.25291
0.189845
0.0890573
0.886575
0.697136
0.544356
0.427344
0.342847
0.285451
0.24876
0.226667
0.21437
0.208138
0.205841
0.205971
0.206986
0.207145
0.204143
0.193865
0.171007
0.128945
0.0590917
0.880158
0.67615
0.509702
0.380932
0.286892
0.222194
0.180213
0.15451
0.139821
0.132062
0.128744
0.128191
0.129046
0.130031
0.129585
0.124843
0.11193
0.0857137
0.0394614
0.881149
0.671934
0.497423
0.36005
0.258092
0.18679
0.139711
0.110331
0.0930826
0.0835816
0.0789939
0.0774291
0.0775713
0.0784048
0.0788838
0.0771206
0.0704585
0.0551114
0.0258826
0.885986
0.677983
0.499774
0.356435
0.24799
0.170752
0.118812
0.0857749
0.0659163
0.0546094
0.0487052
0.046081
0.0453574
0.0456184
0.0461123
0.0456345
0.0424715
0.0340041
0.0164138
0.892541
0.689463
0.510559
0.3633
0.249602
0.167078
0.110573
0.0739824
0.0515495
0.0384642
0.0313046
0.0277184
0.0262034
0.0258345
0.0259889
0.0258834
0.0244632
0.0200338
0.00996619
0.898085
0.701003
0.523323
0.373975
0.256457
0.169654
0.109237
0.0694969
0.0447455
0.0300598
0.0218062
0.0174321
0.0152993
0.0144214
0.0142038
0.0140923
0.0134444
0.0112272
0.00575454
0.901496
0.709546
0.533959
0.384003
0.264157
0.174319
0.110918
0.0686729
0.0420342
0.0260369
0.0169049
0.0119322
0.00936093
0.00813133
0.00763009
0.00740969
0.00705956
0.00597477
0.00314559
0.904605
0.716674
0.542933
0.392835
0.271455
0.179413
0.113745
0.0695446
0.0414141
0.0243787
0.0145654
0.00915241
0.00628377
0.00483227
0.00415024
0.00382944
0.0035751
0.00303201
0.00162834
0.906761
0.721585
0.549114
0.398996
0.276673
0.183214
0.116055
0.0705533
0.0414275
0.0237042
0.0134501
0.00776536
0.00472645
0.00315777
0.0023824
0.00200268
0.00177621
0.00148059
0.000801348
0.907038
0.722812
0.550944
0.400953
0.278358
0.184396
0.116671
0.0706649
0.0411552
0.0231755
0.0127671
0.00699593
0.00390862
0.00230847
0.00150526
0.00110617
0.000892712
0.000708701
0.000378555
0.906539
0.721524
0.549259
0.39917
0.276663
0.18288
0.115366
0.0695662
0.0402406
0.0224144
0.0121257
0.00644155
0.00341313
0.00184919
0.00106418
0.000674331
0.000475495
0.000344421
0.000175531
0.905592
0.718422
0.544712
0.394103
0.271836
0.178756
0.112117
0.0671625
0.0385441
0.0212536
0.0113398
0.00590157
0.00302654
0.00155393
0.000820297
0.000459091
0.000279928
0.000178268
8.30293e-05
0.903712
0.713025
0.536961
0.38552
0.263725
0.171923
0.106856
0.0634019
0.0360137
0.0196324
0.010336
0.00529009
0.00265168
0.00131576
0.000657999
0.000338316
0.000183162
0.000102036
4.2069e-05
0.901147
0.705641
0.526359
0.373798
0.252698
0.162712
0.0998572
0.0584867
0.032783
0.0176253
0.0091433
0.00460354
0.00226327
0.00109534
0.000528728
0.000257644
0.000128711
6.4504e-05
2.36074e-05
0.899263
0.698304
0.51489
0.360639
0.240121
0.152163
0.091869
0.0529264
0.0291767
0.015424
0.00786456
0.00388907
0.00187525
0.000887722
0.000417038
0.000195933
9.29376e-05
4.3403e-05
1.45467e-05
0.897724
0.690973
0.502696
0.346257
0.22624
0.140531
0.0831288
0.0469196
0.0253437
0.0131292
0.00656061
0.00317886
0.00150112
0.000695135
0.000318725
0.000145509
6.65767e-05
2.97135e-05
9.43365e-06
0.895716
0.6827
0.489111
0.330302
0.210952
0.12787
0.0737676
0.0406096
0.0214046
0.0108265
0.00528518
0.00250281
0.0011553
0.000522858
0.000234119
0.000104193
4.63335e-05
2.00363e-05
6.16216e-06
0.894052
0.674567
0.475258
0.313822
0.19515
0.114884
0.0642977
0.0343421
0.0175757
0.00864136
0.00410558
0.00189428
0.000852722
0.000376583
0.000164581
7.14636e-05
3.09797e-05
1.30611e-05
3.93669e-06
0.893272
0.66779
0.46258
0.298187
0.179962
0.102399
0.0552669
0.0284498
0.0140427
0.00666899
0.00306651
0.0013721
0.000600143
0.000257943
0.000109853
4.65073e-05
1.96502e-05
8.07317e-06
2.3898e-06
0.893452
0.663135
0.452352
0.284801
0.166603
0.0912954
0.0472286
0.0232373
0.0109526
0.00497045
0.00218834
0.000940057
0.000395967
0.000164399
6.7816e-05
2.78305e-05
1.13431e-05
4.40155e-06
1.1536e-06
0.896295
0.666698
0.454132
0.284383
0.164781
0.0890842
0.0453112
0.0218698
0.0101048
0.00450059
0.00195084
0.000829152
0.000347746
0.000144798
6.0357e-05
2.51685e-05
1.03805e-05
3.93518e-06
8.72318e-07
0.900645
0.676648
0.465976
0.295049
0.172722
0.0941592
0.0481625
0.0233011
0.0107561
0.00477422
0.00205962
0.000871925
0.000365492
0.000153066
6.47667e-05
2.77625e-05
1.19325e-05
4.76483e-06
1.13e-06
0.903648
0.685825
0.47888
0.308303
0.183794
0.102043
0.0530815
0.0260379
0.0121304
0.00540258
0.00232283
0.000973339
0.000401563
0.000165036
6.87134e-05
2.93392e-05
1.28532e-05
5.35896e-06
1.35699e-06
0.905262
0.69371
0.492107
0.323595
0.197861
0.112978
0.0605113
0.0305432
0.0146034
0.00664285
0.00289475
0.00121605
0.00049563
0.000197493
7.81284e-05
3.13629e-05
1.31786e-05
5.53175e-06
1.48035e-06
0.906318
0.701141
0.505953
0.340815
0.21476
0.126982
0.0706762
0.0371542
0.0185155
0.00877125
0.00396761
0.00171867
0.000713502
0.000283184
0.00010724
3.88186e-05
1.40533e-05
5.29794e-06
1.421e-06
0.906971
0.708291
0.520184
0.359348
0.233804
0.143578
0.0834138
0.0459628
0.0240913
0.012037
0.00575282
0.00263399
0.00115314
0.000478473
0.00018476
6.39331e-05
1.93151e-05
5.26734e-06
1.10994e-06
0.907731
0.715893
0.535169
0.379118
0.254686
0.162491
0.0986322
0.0570803
0.0315767
0.0167315
0.00852029
0.00417689
0.00196759
0.000882422
0.000368512
0.000135745
4.02436e-05
8.0708e-06
6.01592e-07
0.909785
0.725377
0.552003
0.400777
0.277729
0.183899
0.116525
0.0707871
0.0413319
0.0232453
0.012638
0.00665796
0.00339691
0.00166695
0.000772209
0.000321186
0.000108671
2.32311e-05
3.53799e-07
0.912262
0.735369
0.569283
0.423085
0.301947
0.207133
0.13676
0.0870627
0.0535748
0.0319394
0.018519
0.0104759
0.00578681
0.00311011
0.00160599
0.000766991
0.000312979
8.82976e-05
2.53713e-06
0.91485
0.745351
0.586471
0.445556
0.326939
0.231919
0.159242
0.106018
0.0686099
0.0432616
0.0266856
0.0161637
0.00963535
0.00565028
0.00324118
0.00177786
0.000888445
0.000359617
6.8711e-05
0.916967
0.753714
0.601104
0.465134
0.349347
0.254896
0.180881
0.12503
0.0843775
0.0557128
0.0361277
0.023093
0.0145878
0.00911624
0.00562384
0.00337429
0.00189905
0.000910001
0.000237771
0.917259
0.756843
0.60785
0.475206
0.361763
0.268399
0.194277
0.137397
0.0951504
0.0646537
0.0432626
0.0286082
0.0187401
0.0121735
0.00782988
0.00492267
0.00293086
0.00151298
0.00044786
0.916172
0.756177
0.608857
0.478211
0.366501
0.274304
0.200703
0.143771
0.101052
0.0698284
0.0476108
0.0321381
0.0215202
0.0143
0.00940485
0.00603449
0.00365412
0.00191092
0.000572594
0.915502
0.756027
0.610127
0.481128
0.37085
0.279633
0.206492
0.149543
0.10645
0.0746238
0.0517006
0.0355125
0.0242234
0.0164037
0.0109899
0.00717307
0.00440815
0.00233389
0.000708788
0.915428
0.756642
0.611897
0.484144
0.374923
0.284417
0.211591
0.154594
0.111175
0.078841
0.0553262
0.038534
0.0266711
0.0183303
0.0124573
0.00823711
0.00511799
0.00273431
0.000838729
0.915411
0.757166
0.613288
0.486468
0.378049
0.288095
0.215529
0.15852
0.114878
0.0821781
0.0582245
0.0409754
0.0286697
0.0199193
0.013678
0.00912836
0.00571536
0.00307226
0.00094891
0.915317
0.757324
0.61399
0.487806
0.37996
0.290422
0.21808
0.16111
0.117357
0.0844401
0.0602122
0.0426677
0.0300687
0.0210407
0.0145452
0.00976421
0.00614222
0.00331355
0.00102751
0.914848
0.756765
0.613714
0.48794
0.380491
0.29127
0.219134
0.162259
0.118509
0.0855271
0.0611911
0.0435172
0.0307818
0.0216194
0.0149972
0.0100983
0.00636792
0.00344183
0.00106964
0.914851
0.756772
0.613724
0.487951
0.380503
0.291282
0.219145
0.162269
0.118517
0.0855337
0.0611965
0.0435215
0.0307852
0.021622
0.0149992
0.0100997
0.00636894
0.00344243
0.00106985
0.915325
0.757344
0.614018
0.487839
0.379994
0.290456
0.218112
0.161138
0.117381
0.0844599
0.0602283
0.0426805
0.0300788
0.0210485
0.0145512
0.00976859
0.00614525
0.00331534
0.00102814
0.915424
0.757199
0.613334
0.486522
0.378105
0.28815
0.21558
0.158565
0.114916
0.0822096
0.05825
0.0409955
0.0286855
0.0199314
0.0136872
0.00913505
0.00571995
0.00307497
0.000949845
0.915445
0.756686
0.611959
0.484217
0.374999
0.284492
0.211659
0.154654
0.111226
0.0788826
0.0553594
0.0385601
0.0266912
0.0183457
0.0124688
0.00824543
0.00512365
0.00273763
0.000839872
0.915524
0.756082
0.610205
0.48122
0.370945
0.279726
0.206577
0.149617
0.106512
0.0746738
0.0517401
0.035543
0.0242466
0.0164211
0.0110027
0.00718227
0.00441434
0.00233749
0.000710018
0.916197
0.756242
0.60895
0.47832
0.366615
0.274413
0.200803
0.143856
0.101122
0.0698846
0.0476542
0.032171
0.0215447
0.014318
0.00941785
0.00604362
0.00366015
0.00191436
0.000573743
0.917288
0.756918
0.607958
0.475333
0.361895
0.268526
0.194391
0.137494
0.095229
0.0647151
0.0433091
0.0286427
0.0187652
0.0121916
0.00784272
0.00493155
0.00293669
0.00151633
0.000449021
0.917004
0.753823
0.601269
0.465335
0.349562
0.255105
0.18107
0.125191
0.0845072
0.0558132
0.0362028
0.0231478
0.014627
0.00914399
0.00564346
0.00338815
0.0019087
0.000916103
0.000240106
0.914896
0.74548
0.586664
0.445786
0.32718
0.232147
0.159444
0.106184
0.0687403
0.0433596
0.0267569
0.0162145
0.00967094
0.00567515
0.00325858
0.00178996
0.00089653
0.000364326
7.02727e-05
0.912303
0.735486
0.569457
0.423291
0.302157
0.207327
0.136924
0.0871926
0.053672
0.032009
0.0185671
0.0105083
0.00580853
0.0031246
0.00161564
0.000773212
0.000316548
8.97727e-05
2.68787e-06
0.909823
0.72549
0.552172
0.400973
0.277925
0.184074
0.116668
0.0708956
0.0414093
0.0232979
0.0126724
0.00667994
0.00341077
0.00167563
0.000777585
0.000324297
0.000110107
2.34925e-05
1.71625e-07
0.907767
0.716002
0.535331
0.379303
0.254867
0.162647
0.0987544
0.0571689
0.0316368
0.0167701
0.00854412
0.00419115
0.00197595
0.000887238
0.000371174
0.000137031
4.06306e-05
7.94682e-06
4.13321e-07
0.907004
0.708394
0.520337
0.35952
0.233967
0.143714
0.0835158
0.0460333
0.0241367
0.0120645
0.00576876
0.00264286
0.00115789
0.000480911
0.000185888
6.43064e-05
1.92845e-05
5.08573e-06
9.88399e-07
0.906348
0.701235
0.506093
0.34097
0.214903
0.127096
0.070759
0.0372087
0.0185488
0.0087903
0.00397791
0.00172395
0.000716052
0.000284298
0.000107615
3.883e-05
1.39234e-05
5.16255e-06
1.35735e-06
0.905288
0.693794
0.492232
0.32373
0.197982
0.113072
0.0605761
0.0305839
0.014627
0.00665565
0.00290123
0.0012191
0.000496938
0.000197957
7.8206e-05
3.1287e-05
1.30733e-05
5.45675e-06
1.4531e-06
0.903671
0.685898
0.478986
0.308416
0.183892
0.102117
0.0531306
0.0260677
0.012147
0.00541113
0.00232693
0.000975144
0.000402266
0.000165245
6.8722e-05
2.92854e-05
1.28007e-05
5.32981e-06
1.3491e-06
0.900664
0.676708
0.466062
0.295139
0.172798
0.0942153
0.0481992
0.0233228
0.0107679
0.00478015
0.0020624
0.000873131
0.000365964
0.000153221
6.47984e-05
2.77562e-05
1.19237e-05
4.76261e-06
1.13089e-06
0.896298
0.666712
0.454154
0.284406
0.164801
0.0890986
0.0453206
0.0218752
0.0101077
0.00450194
0.00195141
0.000829359
0.0003478
0.000144798
6.03429e-05
2.51565e-05
1.03743e-05
3.93269e-06
8.70448e-07
0.893445
0.663119
0.452332
0.284779
0.166584
0.0912807
0.0472181
0.0232302
0.0109482
0.00496781
0.00218683
0.000939232
0.00039553
0.000164174
6.77032e-05
2.77754e-05
1.13172e-05
4.38943e-06
1.14828e-06
0.893272
0.667789
0.462579
0.298187
0.179963
0.1024
0.0552676
0.02845
0.0140426
0.00666877
0.00306629
0.00137193
0.000600024
0.000257869
0.000109809
4.64832e-05
1.96375e-05
8.06655e-06
2.38679e-06
0.894052
0.674566
0.475257
0.313822
0.195151
0.114885
0.0642983
0.0343424
0.0175758
0.00864132
0.0041055
0.0018942
0.000852659
0.00037654
0.000164553
7.14471e-05
3.09704e-05
1.30561e-05
3.93434e-06
0.895716
0.682699
0.48911
0.330302
0.210952
0.12787
0.073768
0.0406099
0.0214048
0.0108266
0.0052852
0.0025028
0.00115528
0.000522837
0.000234102
0.000104182
4.63269e-05
2.00327e-05
6.15997e-06
0.897724
0.690973
0.502695
0.346257
0.22624
0.140531
0.083129
0.0469198
0.025344
0.0131294
0.00656071
0.00317891
0.00150114
0.000695136
0.00031872
0.000145505
6.65748e-05
2.97133e-05
9.43202e-06
0.899263
0.698304
0.51489
0.360639
0.240121
0.152163
0.091869
0.0529266
0.0291769
0.0154242
0.00786471
0.00388917
0.0018753
0.000887746
0.000417049
0.000195939
9.2946e-05
4.34116e-05
1.45471e-05
0.901147
0.705642
0.526359
0.373798
0.252697
0.162711
0.0998571
0.0584868
0.0327832
0.0176255
0.00914347
0.00460367
0.00226335
0.00109539
0.000528759
0.000257671
0.000128743
6.45342e-05
2.36129e-05
0.903712
0.713026
0.536961
0.38552
0.263725
0.171922
0.106856
0.0634018
0.0360138
0.0196326
0.0103362
0.00529026
0.00265181
0.00131584
0.000658062
0.000338384
0.000183249
0.000102116
4.20856e-05
0.905592
0.718423
0.544712
0.394103
0.271836
0.178755
0.112116
0.0671623
0.0385442
0.0212539
0.01134
0.0059018
0.00302671
0.00155406
0.000820415
0.000459247
0.000280134
0.000178453
8.30658e-05
0.906539
0.721525
0.54926
0.39917
0.276662
0.182879
0.115366
0.0695659
0.0402407
0.0224146
0.012126
0.00644181
0.00341334
0.00184937
0.0010644
0.000674667
0.00047594
0.000344798
0.000175594
0.907038
0.722813
0.550945
0.400953
0.278358
0.184395
0.116671
0.0706646
0.0411553
0.0231757
0.0127674
0.0069962
0.00390886
0.00230874
0.0015057
0.00110686
0.000893581
0.000709379
0.000378634
0.906761
0.721586
0.549114
0.398996
0.276673
0.183213
0.116054
0.0705531
0.0414276
0.0237045
0.0134504
0.00776565
0.00472677
0.00315826
0.00238326
0.00200397
0.00177772
0.00148163
0.000801384
0.904605
0.716675
0.542934
0.392835
0.271455
0.179413
0.113745
0.0695447
0.0414143
0.0243789
0.0145657
0.00915274
0.00628427
0.00483317
0.00415178
0.00383158
0.00357731
0.00303329
0.0016282
0.901496
0.709547
0.53396
0.384003
0.264157
0.174319
0.110918
0.0686731
0.0420345
0.0260372
0.0169052
0.0119326
0.00936179
0.0081329
0.00763251
0.00741267
0.00706217
0.00597583
0.00314508
0.898086
0.701004
0.523324
0.373976
0.256458
0.169655
0.109237
0.0694972
0.0447458
0.0300601
0.0218066
0.0174328
0.0153008
0.0144237
0.014207
0.0140956
0.0134466
0.0112273
0.00575352
0.892541
0.689463
0.510559
0.3633
0.249602
0.167078
0.110573
0.0739827
0.0515498
0.0384645
0.0313052
0.0277195
0.0262054
0.0258374
0.025992
0.0258857
0.0244634
0.0200321
0.00996475
0.885987
0.677983
0.499773
0.356435
0.24799
0.170752
0.118812
0.0857751
0.0659165
0.0546097
0.048706
0.0460825
0.0453597
0.0456209
0.046114
0.045634
0.0424684
0.0340003
0.0164125
0.881149
0.671933
0.497422
0.360049
0.258091
0.18679
0.139711
0.110331
0.0930827
0.0835819
0.0789947
0.0774304
0.0775728
0.0784055
0.0788823
0.0771161
0.0704519
0.0551063
0.0258821
0.880158
0.676149
0.509701
0.380931
0.286892
0.222194
0.180212
0.15451
0.139821
0.132062
0.128745
0.128192
0.129046
0.130028
0.129579
0.124834
0.111922
0.0857094
0.0394625
0.886575
0.697136
0.544355
0.427343
0.342846
0.28545
0.248759
0.226666
0.214369
0.208138
0.20584
0.205969
0.206983
0.20714
0.204134
0.193856
0.171001
0.128944
0.0590943
0.903122
0.739722
0.607389
0.506086
0.433293
0.384236
0.353212
0.33473
0.324629
0.319594
0.317854
0.318018
0.318219
0.316084
0.30839
0.289624
0.252908
0.189848
0.0890607
0.929453
0.803892
0.699747
0.619195
0.561213
0.522243
0.497747
0.483178
0.475234
0.471119
0.469436
0.468899
0.467264
0.461513
0.44754
0.418475
0.365753
0.278421
0.140007
0.961141
0.883
0.815058
0.761384
0.722457
0.696262
0.679846
0.670012
0.664574
0.661447
0.659686
0.658194
0.654587
0.645575
0.626626
0.589978
0.525262
0.417217
0.239677
0.990742
0.964878
0.940329
0.920241
0.905499
0.89557
0.889398
0.885652
0.883552
0.882107
0.880976
0.879558
0.876205
0.868576
0.853095
0.822706
0.765682
0.65998
0.462168
)
;

boundaryField
{
    up
    {
        type            fixedValue;
        value           uniform 0;
    }
    low
    {
        type            fixedValue;
        value           uniform 1;
    }
    left
    {
        type            fixedValue;
        value           uniform 1;
    }
    right
    {
        type            fixedValue;
        value           uniform 1;
    }
    frontAndBackPlanes
    {
        type            empty;
    }
}


// ************************************************************************* //
