/*--------------------------------*- C++ -*----------------------------------*\
  =========                 |
  \\      /  F ield         | OpenFOAM: The Open Source CFD Toolbox
   \\    /   O peration     | Website:  https://openfoam.org
    \\  /    A nd           | Version:  7
     \\/     M anipulation  |
\*---------------------------------------------------------------------------*/
FoamFile
{
    version     2.0;
    format      ascii;
    class       volScalarField;
    location    "0.3";
    object      T;
}
// * * * * * * * * * * * * * * * * * * * * * * * * * * * * * * * * * * * * * //

dimensions      [0 0 0 1 0 0 0];

internalField   nonuniform List<scalar> 
1596
(
3.99039
3.9628
3.93444
3.90732
3.88192
3.85785
3.83457
3.8109
3.78599
3.7579
3.72509
3.68551
3.63443
3.56519
3.46726
3.31708
3.07059
2.63963
1.84764
3.95844
3.87247
3.79095
3.71528
3.64515
3.57924
3.51598
3.4529
3.3879
3.3174
3.23836
3.14716
3.03693
2.89911
2.72292
2.4876
2.16077
1.68649
0.958831
3.92058
3.7759
3.64511
3.52631
3.41745
3.31613
3.21988
3.12547
3.03011
2.92959
2.82041
2.69856
2.55731
2.38887
2.1846
1.92921
1.60139
1.16807
0.567408
3.88312
3.68336
3.50808
3.3514
3.20931
3.07834
2.9553
2.83653
2.71887
2.59797
2.47029
2.33194
2.17689
1.99864
1.79065
1.54205
1.23914
0.862688
0.376749
3.8519
3.6044
3.39016
3.20046
3.02979
2.87383
2.72887
2.59101
2.45692
2.32228
2.18367
2.03742
1.8782
1.70059
1.49958
1.26729
0.994712
0.670539
0.273504
3.8308
3.54561
3.29847
3.08017
2.8846
2.70706
2.54355
2.3901
2.24328
2.0989
1.95366
1.80408
1.64537
1.47285
1.28253
1.06838
0.82419
0.543063
0.211969
3.8204
3.50889
3.23533
2.99254
2.77503
2.57828
2.39834
2.23128
2.07373
1.92162
1.77175
1.62079
1.4643
1.29813
1.11883
0.92153
0.701641
0.454698
0.172313
3.81852
3.49167
3.19836
2.93515
2.69829
2.48411
2.28903
2.10939
1.94197
1.78286
1.62899
1.47709
1.323
1.16283
0.993483
0.810754
0.61097
0.391004
0.145105
3.823
3.4903
3.18356
2.9039
2.6501
2.4199
2.21052
2.01876
1.84168
1.67561
1.51757
1.36441
1.2121
1.05696
0.895998
0.725429
0.542077
0.343524
0.125516
3.82918
3.49694
3.18237
2.8903
2.62224
2.37769
2.15496
1.95156
1.76499
1.59185
1.42937
1.27446
1.12323
0.972075
0.818083
0.657657
0.487883
0.30669
0.110701
3.83426
3.5052
3.18687
2.88611
2.60662
2.34969
2.11489
1.90061
1.70491
1.5248
1.35772
1.2007
1.04997
0.901995
0.753846
0.602026
0.443729
0.277016
0.0990008
3.84063
3.51659
3.19693
2.88998
2.6012
2.33346
2.08763
1.86306
1.65848
1.47138
1.29948
1.13996
0.989151
0.843565
0.700242
0.555704
0.407153
0.252646
0.0895397
3.84677
3.52873
3.20937
2.89812
2.6018
2.32469
2.06889
1.83471
1.62164
1.42768
1.2509
1.08865
0.93738
0.793629
0.654385
0.516141
0.376044
0.232063
0.0816558
3.85071
3.53792
3.21969
2.9056
2.60335
2.31835
2.05379
1.81094
1.59006
1.38969
1.20826
1.04334
0.891517
0.749351
0.613769
0.481203
0.348707
0.214109
0.0748673
3.85412
3.54556
3.22843
2.91217
2.60499
2.31314
2.04078
1.79007
1.56197
1.35561
1.1698
1.00236
0.849975
0.709258
0.577061
0.449735
0.324209
0.198133
0.068899
3.85746
3.55255
3.23622
2.91796
2.60636
2.30834
2.02886
1.77088
1.53606
1.3241
1.13419
0.96437
0.811487
0.672172
0.543201
0.420824
0.30182
0.183635
0.0635459
3.85987
3.55787
3.24201
2.92179
2.60608
2.30239
2.01636
1.75168
1.51066
1.29353
1.09986
0.927936
0.774726
0.636895
0.511139
0.393591
0.28086
0.170164
0.0586308
3.86169
3.56181
3.24605
2.92375
2.60407
2.29499
2.00281
1.73187
1.48506
1.26314
1.06602
0.892233
0.738878
0.602648
0.480161
0.367424
0.260851
0.157405
0.0540294
3.86477
3.56734
3.25146
2.92684
2.60299
2.28843
1.99005
1.71285
1.4603
1.23361
1.03307
0.857418
0.7039
0.569238
0.449979
0.342002
0.241508
0.145164
0.0496681
3.86843
3.57415
3.2583
2.93124
2.60306
2.28285
1.97815
1.6946
1.4362
1.20467
1.00063
0.823027
0.669244
0.536048
0.419939
0.316695
0.222306
0.1331
0.0454349
3.87124
3.5801
3.26447
2.9351
2.60263
2.2768
1.96582
1.67594
1.41173
1.17536
0.967781
0.788157
0.634007
0.502156
0.3891
0.290579
0.202441
0.120674
0.0411558
3.87402
3.5859
3.27056
2.93894
2.60221
2.27076
1.95346
1.65719
1.38707
1.14572
0.934417
0.752538
0.597745
0.46693
0.356628
0.26264
0.180838
0.107033
0.036534
3.87715
3.59217
3.27712
2.94325
2.60224
2.26511
1.94139
1.63859
1.36234
1.11572
0.900332
0.715776
0.559861
0.429551
0.321432
0.231447
0.155737
0.0904128
0.0307223
3.88039
3.59855
3.28368
2.94745
2.60208
2.25922
1.92902
1.61956
1.33696
1.08473
0.864784
0.676988
0.519321
0.38881
0.282057
0.19511
0.124509
0.0672523
0.020332
3.88542
3.61124
3.30209
2.96959
2.62599
2.28302
1.95101
1.63827
1.35125
1.09384
0.868449
0.675458
0.513304
0.379342
0.27036
0.182442
0.112235
0.0571535
0.0152513
3.89091
3.62727
3.32824
3.00493
2.66901
2.33172
2.00304
1.69112
1.40247
1.14125
0.910352
0.710868
0.541994
0.401769
0.287416
0.195135
0.121353
0.0630678
0.0176937
3.89357
3.63652
3.3449
3.02925
2.70059
2.36948
2.04535
1.73594
1.4475
1.18422
0.949258
0.744255
0.569156
0.42279
0.303007
0.206278
0.128953
0.0677119
0.0194868
3.89345
3.63871
3.35153
3.04178
2.71975
2.39516
2.07668
1.77139
1.48506
1.22162
0.984243
0.774934
0.594298
0.442029
0.316814
0.215621
0.134886
0.07106
0.0206748
3.89146
3.63579
3.35075
3.0456
2.72976
2.41204
2.10015
1.80035
1.51774
1.25581
1.01751
0.804979
0.619339
0.461147
0.330142
0.224104
0.139808
0.0735592
0.0214722
3.88778
3.62901
3.3448
3.04361
2.73393
2.42351
2.11908
1.82596
1.54847
1.28951
1.05166
0.836958
0.646778
0.482423
0.34482
0.232961
0.144417
0.0755635
0.0220142
3.8831
3.62047
3.33673
3.03947
2.73619
2.43359
2.13736
1.85188
1.58067
1.32597
1.08988
0.874122
0.679997
0.509225
0.363826
0.244346
0.149874
0.0775065
0.0224104
3.87927
3.61329
3.3303
3.03724
2.7407
2.44636
2.15889
1.88177
1.61777
1.36851
1.13555
0.920145
0.723195
0.546299
0.392045
0.262436
0.158784
0.0802742
0.0226869
3.87555
3.60661
3.32489
3.03664
2.74748
2.46209
2.18416
1.91633
1.66072
1.41838
1.19042
0.977614
0.780249
0.599255
0.436846
0.295461
0.178268
0.0877271
0.0229408
3.87182
3.60054
3.32092
3.03837
2.75748
2.4819
2.21442
1.95693
1.71099
1.47725
1.25648
1.04918
0.855127
0.67444
0.508221
0.357793
0.225925
0.116645
0.0323036
3.86745
3.59265
3.31376
3.03537
2.76109
2.49365
2.23503
1.98652
1.74922
1.52348
1.30993
1.10895
0.920173
0.743382
0.578805
0.426181
0.285941
0.159936
0.0497567
3.86024
3.57663
3.29326
3.01372
2.74066
2.47601
2.22107
1.97662
1.74338
1.52142
1.31125
1.11316
0.926837
0.752122
0.589359
0.438193
0.298623
0.171267
0.0556527
3.85093
3.55529
3.26453
2.9809
2.70607
2.4412
2.18701
1.94381
1.71202
1.49147
1.28253
1.08552
0.90013
0.726395
0.56498
0.415942
0.279863
0.157994
0.0503053
3.84293
3.53706
3.24007
2.95303
2.67674
2.41174
2.15826
1.91623
1.68584
1.46675
1.25927
1.06372
0.879863
0.707838
0.548474
0.401963
0.269013
0.150955
0.0477654
3.83701
3.52317
3.22116
2.9313
2.65375
2.38856
2.13557
1.89447
1.66523
1.44739
1.24123
1.04707
0.86468
0.694258
0.536703
0.392256
0.261666
0.14631
0.0461602
3.83243
3.51244
3.20658
2.91454
2.63603
2.3707
2.11812
1.87775
1.64945
1.43264
1.22758
1.03457
0.853405
0.684283
0.528149
0.385269
0.256418
0.143014
0.0450388
3.82909
3.50465
3.19605
2.90253
2.62339
2.35801
2.10576
1.86595
1.63834
1.4223
1.21805
1.0259
0.845611
0.677411
0.522267
0.38046
0.252794
0.140725
0.0442549
3.8265
3.49929
3.18926
2.89507
2.61576
2.35051
2.09857
1.85919
1.63207
1.41655
1.21284
1.02122
0.84148
0.673835
0.519265
0.378053
0.251014
0.139622
0.0438891
3.8265
3.4993
3.18927
2.89509
2.61578
2.35053
2.0986
1.85921
1.6321
1.41657
1.21286
1.02124
0.841497
0.673849
0.519276
0.378062
0.251021
0.139626
0.0438905
3.82911
3.50468
3.1961
2.90259
2.62345
2.35808
2.10583
1.86602
1.63841
1.42237
1.21812
1.02596
0.845663
0.677456
0.522306
0.38049
0.252816
0.140738
0.0442597
3.83246
3.5125
3.20666
2.91464
2.63614
2.37081
2.11824
1.87786
1.64956
1.43274
1.22768
1.03466
0.853485
0.684352
0.528207
0.385314
0.256451
0.143033
0.0450454
3.83704
3.52325
3.22127
2.93143
2.65389
2.38871
2.13573
1.89462
1.66538
1.44753
1.24136
1.04718
0.864783
0.694345
0.536775
0.392312
0.261706
0.146333
0.046168
3.84297
3.53716
3.2402
2.95319
2.67692
2.41193
2.15844
1.91642
1.68602
1.46691
1.25942
1.06386
0.879984
0.707941
0.548557
0.402027
0.269057
0.150981
0.0477735
3.85097
3.5554
3.26468
2.98108
2.70627
2.44141
2.18722
1.94402
1.71223
1.49166
1.28271
1.08567
0.90026
0.726501
0.565061
0.416
0.279899
0.158012
0.0503094
3.86029
3.57674
3.29343
3.01392
2.74089
2.47625
2.22131
1.97685
1.7436
1.52163
1.31143
1.11332
0.926957
0.752206
0.589406
0.438206
0.298611
0.171245
0.055639
3.8675
3.59282
3.31403
3.03573
2.76152
2.49414
2.23557
1.9871
1.74983
1.5241
1.31056
1.10958
0.920806
0.74401
0.579423
0.426775
0.286476
0.160345
0.0499363
3.87189
3.60074
3.32125
3.03881
2.75801
2.48252
2.21511
1.95768
1.71179
1.47808
1.25734
1.05005
0.855997
0.675293
0.50903
0.358519
0.226511
0.117031
0.0324446
3.8756
3.60678
3.32517
3.03702
2.74795
2.46264
2.18476
1.91698
1.6614
1.41909
1.19114
0.978323
0.780932
0.59989
0.4374
0.2959
0.178564
0.0878741
0.0229691
3.87932
3.61345
3.33056
3.0376
2.74114
2.44687
2.15946
1.88238
1.61841
1.36916
1.1362
0.920768
0.723774
0.54681
0.392462
0.262741
0.158973
0.0803659
0.0227106
3.88314
3.62061
3.33697
3.0398
2.7366
2.43407
2.13789
1.85245
1.58126
1.32657
1.09047
0.87467
0.68049
0.509643
0.364153
0.244577
0.150017
0.0775799
0.0224315
3.88782
3.62913
3.34501
3.04392
2.73431
2.42396
2.11957
1.82648
1.54902
1.29005
1.05218
0.83744
0.647202
0.482774
0.345089
0.233151
0.144537
0.0756277
0.0220336
3.8915
3.6359
3.35094
3.04588
2.73011
2.41244
2.1006
1.80084
1.51824
1.2563
1.01797
0.805405
0.619708
0.461449
0.330372
0.224268
0.139914
0.0736179
0.0214908
3.89348
3.6388
3.3517
3.04203
2.72006
2.39553
2.0771
1.77183
1.48551
1.22206
0.984661
0.77531
0.594622
0.442292
0.317016
0.215768
0.134984
0.0711159
0.0206935
3.8936
3.6366
3.34505
3.02946
2.70087
2.36981
2.04572
1.73633
1.4479
1.18462
0.94963
0.744588
0.569442
0.423024
0.303189
0.206413
0.129046
0.0677679
0.0195069
3.89092
3.62734
3.32837
3.00512
2.66926
2.33201
2.00337
1.69148
1.40283
1.1416
0.910682
0.711164
0.542249
0.40198
0.287584
0.195264
0.121447
0.0631272
0.0177171
3.88542
3.61126
3.30212
2.96964
2.62605
2.2831
1.95109
1.63836
1.35135
1.09393
0.868528
0.675522
0.513351
0.379372
0.270375
0.182444
0.112228
0.0571438
0.0152454
3.88038
3.59853
3.28365
2.9474
2.60202
2.25915
1.92894
1.61948
1.33688
1.08465
0.864708
0.676915
0.519252
0.388746
0.281999
0.195058
0.124466
0.0672215
0.0203182
3.87714
3.59216
3.27711
2.94323
2.60222
2.26509
1.94137
1.63857
1.36233
1.11572
0.90033
0.715777
0.559864
0.429556
0.321439
0.231454
0.155744
0.0904175
0.0307238
3.87402
3.5859
3.27055
2.93893
2.6022
2.27075
1.95345
1.65718
1.38706
1.14572
0.934417
0.752541
0.597749
0.466935
0.356634
0.262645
0.180842
0.107035
0.0365348
3.87124
3.5801
3.26447
2.93509
2.60262
2.27679
1.96581
1.67593
1.41173
1.17536
0.967783
0.78816
0.634011
0.50216
0.389105
0.290583
0.202443
0.120676
0.0411564
3.86843
3.57414
3.25829
2.93123
2.60305
2.28284
1.97815
1.69459
1.4362
1.20467
1.00063
0.82303
0.669248
0.536051
0.419943
0.316698
0.222308
0.133102
0.0454352
3.86477
3.56734
3.25146
2.92683
2.60299
2.28843
1.99005
1.71285
1.4603
1.23361
1.03307
0.857421
0.703903
0.569241
0.449981
0.342004
0.241509
0.145165
0.0496684
3.86169
3.56181
3.24604
2.92375
2.60407
2.29499
2.00281
1.73187
1.48506
1.26314
1.06603
0.892235
0.73888
0.60265
0.480163
0.367425
0.260851
0.157405
0.0540295
3.85987
3.55787
3.24201
2.92179
2.60608
2.30239
2.01636
1.75168
1.51066
1.29353
1.09987
0.927938
0.774728
0.636896
0.51114
0.393592
0.280861
0.170164
0.0586309
3.85746
3.55255
3.23622
2.91796
2.60636
2.30834
2.02886
1.77088
1.53606
1.3241
1.13419
0.964371
0.811488
0.672173
0.543201
0.420824
0.30182
0.183635
0.0635459
3.85412
3.54556
3.22843
2.91217
2.60499
2.31314
2.04079
1.79007
1.56197
1.35561
1.16981
1.00236
0.849976
0.709258
0.577061
0.449735
0.324209
0.198133
0.068899
3.85071
3.53792
3.21969
2.9056
2.60335
2.31835
2.05379
1.81094
1.59006
1.38969
1.20826
1.04334
0.891517
0.749351
0.613768
0.481203
0.348707
0.214109
0.0748673
3.84677
3.52873
3.20937
2.89812
2.6018
2.32469
2.06889
1.83471
1.62164
1.42768
1.2509
1.08865
0.937379
0.793628
0.654385
0.51614
0.376044
0.232063
0.0816559
3.84063
3.51659
3.19693
2.88999
2.6012
2.33346
2.08763
1.86306
1.65848
1.47138
1.29947
1.13996
0.98915
0.843564
0.700241
0.555703
0.407153
0.252645
0.0895398
3.83426
3.5052
3.18687
2.88611
2.60662
2.34969
2.11489
1.90061
1.7049
1.52479
1.35772
1.2007
1.04997
0.901994
0.753845
0.602025
0.443729
0.277016
0.099001
3.82918
3.49694
3.18237
2.8903
2.62224
2.37769
2.15496
1.95156
1.76499
1.59185
1.42937
1.27446
1.12323
0.972074
0.818082
0.657657
0.487883
0.30669
0.110702
3.823
3.4903
3.18356
2.9039
2.65009
2.4199
2.21052
2.01876
1.84168
1.6756
1.51757
1.36441
1.2121
1.05695
0.895997
0.725429
0.542077
0.343524
0.125516
3.81852
3.49167
3.19836
2.93515
2.69829
2.4841
2.28903
2.10939
1.94197
1.78286
1.62899
1.47709
1.323
1.16283
0.993482
0.810754
0.61097
0.391005
0.145106
3.8204
3.50889
3.23532
2.99254
2.77502
2.57828
2.39834
2.23128
2.07373
1.92161
1.77175
1.62078
1.4643
1.29813
1.11883
0.92153
0.701641
0.454698
0.172313
3.8308
3.54561
3.29847
3.08017
2.8846
2.70706
2.54355
2.39009
2.24328
2.0989
1.95366
1.80408
1.64536
1.47285
1.28253
1.06838
0.82419
0.543063
0.211969
3.8519
3.6044
3.39016
3.20046
3.02979
2.87382
2.72886
2.59101
2.45692
2.32228
2.18367
2.03742
1.8782
1.70059
1.49958
1.26729
0.994712
0.670539
0.273504
3.88311
3.68336
3.50808
3.35139
3.20931
3.07834
2.95529
2.83653
2.71887
2.59797
2.47028
2.33194
2.17689
1.99864
1.79065
1.54205
1.23914
0.862688
0.376749
3.92058
3.7759
3.64511
3.5263
3.41745
3.31613
3.21987
3.12547
3.03011
2.92959
2.8204
2.69856
2.55731
2.38887
2.1846
1.92921
1.60139
1.16807
0.567408
3.95844
3.87247
3.79095
3.71528
3.64514
3.57924
3.51598
3.4529
3.3879
3.31739
3.23836
3.14716
3.03693
2.89911
2.72292
2.4876
2.16077
1.68649
0.95883
3.99039
3.9628
3.93444
3.90732
3.88192
3.85785
3.83457
3.8109
3.78599
3.7579
3.72509
3.68551
3.63443
3.56519
3.46726
3.31708
3.07059
2.63963
1.84764
)
;

boundaryField
{
    up
    {
        type            fixedValue;
        value           uniform 0;
    }
    low
    {
        type            fixedValue;
        value           uniform 4;
    }
    left
    {
        type            fixedValue;
        value           uniform 4;
    }
    right
    {
        type            fixedValue;
        value           uniform 4;
    }
    frontAndBackPlanes
    {
        type            empty;
    }
}


// ************************************************************************* //
