/*--------------------------------*- C++ -*----------------------------------*\
  =========                 |
  \\      /  F ield         | OpenFOAM: The Open Source CFD Toolbox
   \\    /   O peration     | Website:  https://openfoam.org
    \\  /    A nd           | Version:  7
     \\/     M anipulation  |
\*---------------------------------------------------------------------------*/
FoamFile
{
    version     2.0;
    format      ascii;
    class       volScalarField;
    location    "0.17";
    object      gradTz;
}
// * * * * * * * * * * * * * * * * * * * * * * * * * * * * * * * * * * * * * //

dimensions      [0 -1 0 1 0 0 0];

internalField   nonuniform List<scalar> 
1596
(
-6.45412e-16
-3.12009e-16
3.19009e-16
8.7175e-18
-6.02539e-16
0
-2.78195e-16
-2.74355e-16
-2.09052e-17
-1.45995e-16
-1.14725e-18
-1.45767e-16
6.45271e-16
-1.44746e-16
6.75227e-16
5.83574e-16
3.47365e-16
4.39338e-16
0
6.42786e-16
0
8.93146e-16
-7.61472e-18
-2.68617e-16
2.65779e-16
5.55121e-16
2.01095e-17
2.61561e-16
-1.26686e-16
2.5327e-16
-3.32262e-18
-3.52159e-16
-2.20793e-16
-5.45658e-16
-5.33323e-16
-4.8582e-16
2.77002e-16
0
-3.12259e-16
0
-5.76369e-16
1.20565e-17
5.17102e-16
-1.50684e-16
1.42964e-17
-3.53925e-18
-3.34332e-18
-3.38082e-18
9.11863e-17
0
1.826e-16
5.15881e-16
-5.10278e-17
4.15884e-17
9.75428e-17
1.54063e-16
0
4.94329e-16
-1.444e-16
1.43872e-16
0
-1.36991e-16
-1.43384e-16
2.35148e-16
-1.98686e-16
0
0
-7.978e-17
4.76986e-17
0
-1.50727e-16
-1.8956e-16
1.32564e-16
-1.39707e-16
-7.16744e-18
0
8.67995e-17
2.23615e-16
-1.95688e-16
0
-5.5851e-17
-1.71269e-16
0
2.51565e-16
-2.46763e-17
-2.23653e-17
-2.80222e-17
1.28489e-16
1.60811e-16
1.72606e-17
1.02659e-17
-1.43297e-16
7.18068e-18
6.66559e-17
-2.91025e-17
-2.25404e-17
-3.06119e-16
2.84566e-16
-2.4083e-16
-6.36633e-19
-2.03385e-16
5.66814e-18
-5.68695e-18
-1.54448e-16
0
-2.33968e-17
-1.52502e-16
-1.45061e-16
1.14981e-16
1.26273e-16
-1.70611e-18
-7.58342e-17
-6.76082e-17
5.20322e-17
1.88375e-16
-3.10513e-16
3.37775e-16
1.84578e-16
0
1.56969e-16
8.91749e-17
-4.25308e-17
1.95157e-16
-3.60526e-17
-1.55664e-16
1.23803e-18
-8.99386e-17
-1.15476e-16
-8.79093e-17
7.65559e-17
7.65017e-17
-1.03228e-18
-2.15134e-17
2.29563e-17
4.95637e-16
-5.64142e-16
0
0
-1.87926e-16
0
0
0
1.18457e-16
0
0
8.31496e-17
2.64658e-18
2.66767e-17
-6.72973e-17
0
3.58036e-17
1.44589e-17
0
-3.15842e-16
6.0308e-16
0
0
1.93538e-16
0
-6.84056e-17
6.83365e-17
-1.20572e-16
4.88235e-17
-4.91806e-17
0
7.05846e-17
7.41699e-17
0
-4.26667e-17
-3.65632e-17
-1.27026e-17
7.92745e-16
-3.66637e-16
0
-2.37127e-16
2.34473e-16
0
1.57939e-16
0
0
0
4.32716e-17
-4.3479e-17
0
-5.48407e-17
-1.52769e-17
0
6.81826e-18
2.36549e-17
0
-2.01302e-16
0
0
2.37953e-16
-4.36272e-16
2.88924e-17
1.11282e-17
-6.12321e-17
8.71653e-18
3.51391e-18
-4.47239e-17
-6.85616e-17
0
5.12297e-17
-1.07569e-17
1.09183e-17
3.08211e-17
-1.87689e-17
-8.36833e-18
1.58444e-16
-2.21719e-17
1.52558e-16
5.00165e-16
-3.46571e-17
-1.99694e-16
0
0
0
9.23806e-17
3.50152e-17
1.24181e-16
-2.98492e-17
-5.03132e-17
-2.82088e-17
-1.62572e-17
7.32698e-18
-1.62019e-17
7.90905e-18
-1.80953e-16
1.77651e-16
-3.23323e-16
-4.94417e-16
4.49575e-16
1.65494e-16
-2.99654e-16
2.47453e-16
-2.0403e-16
5.35951e-17
3.80187e-17
-3.3806e-17
1.94575e-17
-1.82958e-17
5.46209e-17
0
-4.21931e-18
3.17434e-17
-4.75936e-18
-1.20039e-15
5.42848e-16
4.16666e-19
-1.07322e-16
1.83624e-17
1.6064e-16
-3.01389e-16
-1.16528e-16
9.43614e-17
-7.59861e-17
-6.15452e-17
0
-6.57502e-17
-1.92327e-17
-3.29473e-17
-1.9459e-17
1.5223e-18
-1.86427e-17
7.60868e-19
1.96173e-16
-1.70572e-16
2.31407e-19
-1.23343e-16
-2.92153e-16
2.71464e-16
1.47437e-18
1.13556e-16
-9.18733e-17
1.4497e-16
3.35895e-17
2.61019e-17
7.5149e-17
0
5.91373e-17
2.70572e-17
0
9.73909e-18
5.99726e-19
0
1.65475e-16
1.22041e-16
-2.58652e-16
2.82656e-16
-4.12258e-16
2.81272e-16
9.66903e-17
-1.87665e-17
-1.44679e-16
2.39123e-17
-2.37943e-17
-6.6639e-17
2.4932e-17
-1.28838e-17
-2.6017e-17
1.06888e-17
-6.71203e-18
2.93171e-18
-1.82616e-16
5.96097e-16
-4.46443e-16
2.29256e-16
0
0
-5.16452e-17
1.12882e-16
-7.15116e-17
1.31859e-16
0
0
4.37992e-17
-3.70733e-17
-2.4324e-17
7.72025e-18
-8.38032e-18
4.51438e-18
0
1.91046e-17
1.70842e-16
-1.30201e-16
-1.10404e-16
-1.66442e-16
-4.49752e-17
7.27965e-17
0
-6.63824e-17
-4.9762e-17
4.33558e-17
-3.3033e-17
2.50668e-17
0
9.50496e-18
1.70442e-17
0
0
0
-1.84517e-17
2.57011e-16
8.91916e-17
-3.34944e-16
8.70138e-17
7.15156e-17
0
0
6.17733e-17
-3.25747e-17
-4.19345e-17
3.19489e-17
-2.42415e-17
0
-5.57873e-18
4.32695e-18
0
-3.70081e-18
-1.31155e-18
-1.4237e-16
4.17894e-16
-4.9458e-16
-1.8438e-16
9.85028e-17
-6.66534e-17
5.28097e-17
0
-3.1599e-17
2.50471e-17
0
0
8.86792e-18
-8.87813e-18
2.36677e-18
-3.49455e-18
5.06107e-18
8.19151e-19
9.88222e-19
7.53229e-17
-6.59279e-17
3.21803e-16
-2.06209e-16
-7.77427e-17
1.26427e-17
1.11126e-16
3.82034e-17
3.02355e-17
0
1.44455e-17
-1.32231e-17
9.76772e-18
-7.73865e-18
8.81709e-18
-1.47019e-17
-3.93326e-18
3.3793e-18
8.57592e-19
1.97694e-16
-2.0244e-16
0
1.6437e-16
-8.84956e-17
-5.97008e-17
3.57602e-17
-1.18808e-16
0
-2.17168e-18
-1.76137e-17
-1.13483e-17
1.49407e-17
-1.4496e-18
-8.52156e-18
5.9671e-18
0
1.94057e-18
-8.32715e-19
3.47884e-16
-5.90307e-17
2.37721e-16
-1.85393e-16
9.1103e-17
2.6072e-18
-9.90729e-17
-2.93488e-17
5.10775e-17
-2.73946e-18
-2.45668e-17
1.97534e-17
-8.23587e-18
-9.57198e-18
0
0
0
-1.95707e-18
7.08947e-20
-3.02855e-16
2.93117e-16
2.13397e-19
4.05973e-17
3.31108e-17
-7.35393e-17
8.2955e-17
-6.33241e-17
5.06317e-17
-1.45022e-17
2.7101e-17
8.56858e-18
-3.43419e-18
1.63118e-19
-9.70462e-19
-1.71033e-18
0
0
0
0
0
1.32688e-16
-7.20134e-17
-1.92196e-16
0
0
-1.8406e-17
-2.71966e-17
2.11216e-17
0
-1.08065e-17
7.70062e-18
-2.32783e-17
2.62009e-17
-7.69983e-18
8.15304e-18
8.47707e-19
0
-5.86075e-17
5.93289e-17
0
-4.34357e-17
4.36725e-17
6.71004e-17
0
1.85817e-17
2.06728e-17
-9.65025e-17
0
-1.25201e-17
9.00255e-18
5.77912e-18
-3.99623e-18
5.58508e-18
0
-1.88523e-18
0
-3.01657e-17
-2.91434e-17
1.72273e-18
4.4629e-17
-1.1411e-16
0
-2.62136e-17
0
6.38969e-17
2.35656e-17
0
4.9642e-17
-4.91415e-17
5.65794e-18
-8.52356e-18
3.35231e-18
1.08347e-17
3.7774e-18
-2.99615e-18
0
6.14734e-17
-5.1116e-17
6.29224e-17
7.07872e-17
0
5.27506e-17
-4.86363e-17
-3.45978e-17
4.73183e-17
-7.05205e-17
-3.09471e-17
0
0
5.31559e-18
0
0
1.34991e-18
0
-2.76807e-16
2.13424e-16
0
4.13899e-18
-4.06176e-17
-2.12907e-18
3.36765e-17
2.13381e-17
-2.87954e-17
-6.323e-17
9.2447e-17
-2.55117e-17
0
-1.01162e-17
0
0
0
-5.25803e-18
4.21371e-18
-7.93038e-17
7.24141e-17
1.85706e-16
-1.792e-16
5.31617e-17
3.6852e-18
-3.41637e-17
2.78154e-17
4.45166e-17
3.15882e-17
-6.20433e-17
0
2.68997e-17
1.81798e-18
-1.15835e-17
-2.28641e-17
1.85538e-17
-2.61825e-18
5.13856e-18
-2.72047e-16
3.73035e-16
-3.67668e-16
6.19648e-17
4.9948e-17
-4.65286e-17
3.81372e-17
-2.82069e-17
0
-2.17497e-17
3.18103e-17
1.36658e-17
2.09598e-17
2.3809e-17
-3.50142e-17
-1.10159e-18
0
-2.19402e-18
7.46293e-19
-2.9411e-16
-8.44109e-17
-1.42127e-16
7.68826e-17
-1.17373e-16
9.76362e-17
-5.69912e-17
4.53324e-17
-4.06245e-18
-3.9732e-18
-3.48136e-17
2.1311e-17
-9.704e-18
3.05221e-17
-3.27657e-17
3.22718e-18
3.20888e-18
0
-1.33169e-18
3.17997e-16
-9.13316e-17
0
0
-1.20607e-16
2.31658e-16
-5.26816e-17
-9.36538e-18
7.46159e-17
-2.06229e-18
0
0
-1.44488e-17
0
-2.94241e-17
6.93116e-17
-4.73687e-17
0
5.59269e-19
1.07436e-16
1.96626e-16
0
-8.00237e-17
-6.16813e-17
-5.17243e-17
-5.51114e-17
2.15419e-17
-5.88912e-17
-3.04675e-17
0
0
2.13185e-17
0
0
-4.14122e-17
6.87026e-17
0
0
7.37615e-16
-9.36735e-17
-4.33191e-16
-2.24709e-16
3.05795e-16
9.33348e-17
5.34373e-17
0
-1.83922e-17
1.69186e-17
4.24044e-17
-1.34234e-17
-1.87071e-17
2.86716e-17
-3.04978e-17
-8.78845e-18
0
0
0
5.90677e-17
-4.542e-16
4.44276e-16
-4.13758e-17
-3.09056e-16
4.77572e-16
-2.36574e-16
0
0
1.14121e-16
-9.26473e-17
0
-2.61234e-17
4.59784e-17
-4.81016e-18
1.30699e-17
3.90044e-18
5.0124e-20
8.28317e-19
0
0
0
3.60446e-16
-2.42361e-16
2.4276e-16
-3.758e-16
1.05324e-16
0
-3.57605e-17
5.5503e-17
-5.67274e-17
-1.06612e-17
8.70351e-20
-7.07245e-18
-9.51016e-19
-5.65055e-18
-1.60927e-18
-8.66448e-19
4.91399e-16
-8.6897e-16
4.08265e-16
0
1.03478e-16
-1.41373e-16
1.3604e-16
-1.07786e-16
0
-4.93811e-17
6.92563e-17
0
0
9.5011e-20
0
-7.64505e-18
5.19783e-18
8.76609e-19
1.39346e-18
4.84446e-16
0
-1.83876e-16
2.05205e-16
-1.24055e-16
2.6909e-16
-1.25908e-16
-9.47995e-17
9.57896e-17
-9.52121e-18
0
0
5.85313e-18
-9.5983e-18
-6.72385e-18
1.26825e-17
-2.74338e-18
1.37398e-18
0
2.74808e-16
2.08777e-16
-1.0268e-17
-1.96135e-16
-1.92708e-17
-1.35635e-16
1.67128e-17
1.11869e-16
-5.64473e-18
9.7e-18
0
0
-5.99614e-18
0
6.97162e-18
-7.45797e-18
0
9.51043e-19
-2.6217e-19
-1.45811e-16
-1.0484e-16
9.82314e-17
-1.09681e-17
-4.84397e-18
1.28445e-17
0
-3.28327e-18
4.79984e-17
-4.04175e-17
0
1.31577e-17
-2.68896e-18
-1.15053e-17
-1.04374e-18
-8.10202e-19
0
-7.44762e-19
0
5.88286e-17
-1.11126e-16
-6.84352e-19
4.6689e-17
4.13904e-17
-4.10409e-17
-2.81577e-17
3.18387e-17
-1.0599e-17
8.31626e-18
-7.84545e-18
8.08742e-18
0
2.01742e-20
-7.70823e-19
2.7629e-18
-9.42202e-21
0
0
5.88307e-17
-5.86102e-17
-4.64429e-17
4.11926e-17
7.30535e-17
-7.34847e-17
-1.40794e-17
1.41138e-17
-1.06894e-17
1.08013e-17
-7.84581e-18
1.47326e-17
-4.13251e-18
-2.93088e-18
-8.88482e-19
2.97047e-19
7.0036e-19
1.84636e-19
-1.38415e-19
0
-1.38494e-17
8.07521e-17
-8.76705e-17
7.28218e-17
-6.46465e-17
0
4.88128e-17
-4.37316e-17
0
1.55543e-17
-1.96536e-17
-1.09794e-17
1.15071e-17
2.08151e-18
0
0
-7.44945e-19
2.70332e-19
2.33969e-16
-4.27865e-16
4.29868e-16
-3.71272e-16
1.44907e-16
-1.18666e-16
1.12815e-16
1.29801e-17
-4.73674e-17
4.2269e-17
0
-2.93613e-17
2.67788e-17
-4.9708e-18
-2.03884e-18
3.14223e-18
2.29999e-18
7.23199e-19
-2.61202e-19
5.4576e-16
0
-2.08237e-16
1.61964e-16
1.90495e-17
-1.42355e-16
2.49946e-16
-2.17692e-16
8.47642e-17
-3.49236e-17
3.57473e-17
6.96111e-18
1.16185e-17
4.84161e-18
-3.90401e-18
-5.48922e-19
-4.96287e-18
0
4.93652e-19
4.30904e-16
-4.85061e-16
0
4.26838e-17
1.78924e-16
-1.74501e-16
2.88139e-17
2.49857e-17
1.08077e-17
1.84325e-17
0
0
-2.01396e-17
3.70893e-17
-1.34437e-17
-4.74971e-18
5.20014e-18
4.12451e-19
-9.33254e-19
4.72199e-17
4.26277e-16
-4.78947e-17
-3.18178e-16
2.79664e-16
3.24448e-17
-2.81996e-17
-2.44036e-17
7.73973e-17
-9.59332e-17
5.5527e-17
-5.67511e-17
8.36617e-18
-1.11083e-17
1.92616e-17
-1.29026e-17
0
0
8.78133e-19
0
1.0575e-16
-3.08221e-16
3.52803e-16
-2.72931e-16
2.72281e-16
0
8.76745e-17
-8.80763e-17
-6.30591e-17
9.27297e-17
0
3.63777e-17
-4.60212e-17
-6.7399e-18
0
-7.21544e-19
-1.35197e-18
-7.39788e-20
-1.02191e-15
4.82629e-16
0
-3.05757e-16
3.05726e-16
1.78533e-16
-1.1706e-16
4.57577e-17
0
-1.93763e-18
1.32208e-17
-1.34081e-17
-1.86874e-17
2.86387e-17
-3.04525e-17
0
6.07282e-18
-1.14616e-18
-8.41617e-19
6.24744e-16
-6.10707e-16
0
7.94382e-17
7.02292e-17
-6.29768e-17
0
-4.79545e-17
-3.90864e-17
0
-2.63912e-18
0
2.13335e-17
0
0
8.37044e-18
3.09761e-17
-4.04082e-17
0
4.67025e-20
9.13774e-17
-8.21599e-17
6.32857e-17
-3.23466e-16
1.21706e-16
0
9.3736e-18
2.63125e-17
0
-2.52281e-17
6.81852e-17
-7.16325e-17
1.10954e-17
0
-1.71253e-18
0
0
0
5.73187e-20
0
7.59363e-17
0
-1.08478e-16
1.10203e-16
0
3.53691e-17
-2.69033e-17
9.47263e-17
-4.50789e-17
1.48866e-17
-2.28916e-17
2.05124e-17
-3.28191e-17
-5.0973e-18
0
-2.81761e-18
0
2.40635e-16
-4.07538e-16
0
-6.16518e-17
5.33166e-17
0
0
-6.39719e-17
0
-2.17704e-17
-3.18431e-17
-1.36822e-17
2.09879e-17
0
9.58758e-18
0
0
6.00588e-18
-6.44913e-18
0
3.4542e-16
-2.75728e-16
5.70755e-17
-4.93714e-17
-1.89273e-17
5.34167e-17
5.68186e-17
-6.47677e-17
2.06995e-17
2.38311e-18
-1.61985e-17
6.52057e-17
-2.00929e-17
-4.23659e-17
1.40773e-17
-3.25702e-18
1.97774e-18
-5.42812e-19
-5.79955e-16
2.13466e-16
0
0
2.0423e-17
-2.07679e-17
1.30342e-17
7.14233e-18
5.737e-17
2.71802e-17
-2.61666e-17
-1.68611e-18
-1.26588e-17
1.01292e-17
0
4.23651e-18
2.9853e-18
1.46344e-18
4.90625e-19
0
1.80954e-16
-1.64562e-16
5.18877e-17
5.00761e-17
-9.51382e-18
-2.85501e-17
-2.30383e-17
-7.11046e-17
2.65236e-17
-1.39547e-17
2.07052e-17
1.18375e-17
-1.31939e-17
1.40045e-17
7.77508e-18
-1.04381e-17
-1.3517e-18
0
-3.32731e-17
-1.44679e-16
5.00189e-17
4.46423e-17
-1.45681e-16
1.02005e-16
4.58303e-17
-4.68456e-17
3.28399e-17
-2.51722e-17
0
0
-1.62225e-17
2.83342e-17
-1.20154e-17
1.00494e-17
-1.10462e-17
1.69342e-18
-3e-18
6.17968e-17
5.63019e-17
-4.94961e-17
3.55118e-17
-4.34058e-17
-6.00569e-17
0
0
0
0
0
0
8.23487e-18
-1.99259e-17
2.10738e-17
-6.10749e-18
7.57573e-18
3.34399e-18
-2.81467e-18
1.29225e-16
-2.09079e-16
2.60724e-16
-1.12161e-16
1.56341e-16
-1.02371e-16
1.85956e-16
-1.00599e-16
-4.72469e-17
4.83314e-17
0
1.08006e-17
-8.04504e-18
1.76425e-17
-6.65003e-18
-7.49249e-18
-1.41683e-17
1.12096e-18
2.36427e-18
2.01772e-16
5.58408e-17
0
-8.09432e-17
-5.94617e-17
1.32662e-16
1.01434e-17
-4.74983e-17
2.7144e-17
-1.73432e-17
0
-8.5499e-18
0
-6.0019e-18
4.65834e-18
-3.93954e-18
-1.27127e-18
8.45837e-19
0
2.80903e-16
-5.90299e-17
2.37681e-16
-1.8546e-16
-3.49416e-17
1.27922e-16
-7.66085e-17
4.61606e-18
3.55794e-18
-1.69256e-17
1.59766e-17
0
0
7.56466e-18
-2.40811e-18
1.45627e-18
4.60263e-18
-1.59875e-18
0
5.68511e-20
0
-5.3454e-17
2.99183e-16
-1.99711e-16
-1.95557e-16
1.06287e-16
-9.89397e-17
8.98091e-17
4.0667e-17
-2.84004e-17
1.08983e-17
-9.35605e-18
1.86585e-18
1.3321e-17
2.31266e-19
-4.49004e-18
4.40901e-18
-9.24134e-19
6.76124e-16
-2.1396e-16
9.60785e-17
-3.00933e-16
7.77424e-17
-1.14271e-16
6.27883e-17
0
0
-2.27269e-18
-3.30928e-18
-9.69969e-19
0
-1.23145e-17
-8.81737e-18
6.16599e-18
-4.43496e-19
9.26827e-19
1.88805e-18
0
-2.09181e-16
3.40379e-16
6.7072e-17
-2.64532e-16
6.66533e-17
-9.55185e-17
2.02436e-17
7.35203e-17
0
0
1.2807e-18
1.19827e-17
0
-9.43008e-18
-4.03884e-18
6.04209e-19
-1.92824e-18
-2.33101e-18
0
-1.28194e-16
3.62442e-17
2.29417e-16
1.58731e-16
-2.85926e-16
1.26843e-16
-7.99177e-17
4.36499e-17
-5.46021e-17
0
0
0
-1.83104e-17
4.03112e-18
-5.60615e-18
0
-3.3394e-19
1.65135e-18
-5.05075e-16
4.75183e-16
4.83621e-16
-5.85037e-16
2.57134e-16
-2.39008e-16
0
8.50855e-17
-1.13927e-16
6.31354e-17
-4.5821e-17
3.53935e-17
2.72718e-17
1.8937e-17
1.42632e-17
0
0
0
0
5.66701e-16
-3.17733e-16
0
0
-9.55962e-17
2.20372e-16
-1.40277e-16
-9.08573e-17
8.98332e-17
6.11918e-17
9.77132e-17
-3.67242e-17
1.55072e-17
1.09705e-17
7.68061e-18
6.4892e-18
1.02871e-17
-4.97531e-19
5.0678e-19
-5.70631e-16
5.17065e-16
2.63504e-16
-1.38921e-16
2.82322e-16
-1.80207e-16
-1.33951e-16
-1.08082e-16
0
-1.29318e-16
8.16341e-18
4.36173e-17
-3.19161e-17
-2.49322e-17
-9.04261e-18
-9.03326e-18
-7.2645e-18
0
0
-1.96311e-16
0
1.45577e-16
-8.56813e-20
0
0
1.38174e-16
1.11525e-16
0
7.10507e-17
0
-6.60958e-17
-1.82543e-17
3.18103e-17
0
2.02335e-17
-2.81506e-18
2.87174e-18
0
4.21766e-16
0
2.76523e-16
-5.05856e-16
4.40132e-16
3.36204e-16
-1.3562e-17
0
1.01822e-17
8.60296e-17
0
-7.72064e-17
8.30936e-17
-7.32498e-17
-1.58052e-17
-1.60927e-17
-4.96113e-18
-9.28712e-19
-3.61698e-18
-3.84891e-16
5.52425e-16
-1.5146e-16
-3.84939e-16
-2.15617e-16
-1.79666e-16
-2.97952e-16
-1.12466e-16
1.17021e-17
3.80902e-17
-3.80187e-17
1.15505e-16
-5.08138e-17
9.91904e-17
-1.85228e-17
0
2.25813e-17
-1.37588e-17
3.57889e-18
8.67382e-16
-2.22911e-17
-6.29775e-16
5.00168e-16
-4.38624e-16
3.69108e-16
-1.48318e-17
-1.29939e-16
1.09468e-16
4.12947e-17
-6.26875e-18
-9.66631e-17
2.6801e-17
3.16937e-17
-9.00312e-18
9.10581e-18
-2.33887e-17
-3.73493e-18
-6.43927e-18
4.25807e-16
1.74797e-16
2.99897e-16
-2.55872e-16
-2.01501e-16
1.39898e-17
-1.4437e-16
3.47009e-16
1.45582e-17
1.51539e-16
8.70305e-17
-7.63297e-17
0
-5.12295e-17
0
0
3.71825e-17
1.58563e-17
7.45359e-18
3.95555e-16
0
2.95432e-16
2.5422e-16
-2.19035e-16
1.85342e-16
0
-1.35131e-16
-1.84267e-16
-1.56125e-16
-8.78009e-17
7.71928e-17
0
0
0
0
-3.49219e-17
-2.84226e-17
0
-7.74812e-16
0
-1.85498e-17
-1.6502e-17
3.35505e-16
-1.80842e-16
-8.14413e-17
-8.20785e-17
1.89886e-16
0
4.88231e-17
-5.05292e-18
4.67371e-17
0
0
6.35798e-17
-4.78827e-18
3.41679e-17
-1.41172e-17
5.42613e-16
1.51749e-16
-1.50183e-16
-1.28932e-16
-4.31528e-16
2.89856e-16
3.41956e-16
-1.2469e-17
-1.31572e-16
1.33115e-16
2.74528e-17
-1.42351e-16
-1.13779e-16
-7.41255e-17
-7.93279e-17
-7.34155e-17
6.5471e-17
-3.05507e-18
1.4459e-17
-1.65298e-16
7.35331e-17
-3.51372e-16
5.78969e-17
-5.76862e-17
0
-1.71311e-16
-1.62862e-17
-1.59251e-16
1.84595e-17
1.55663e-16
1.11355e-16
-2.83048e-17
7.27528e-18
7.51488e-17
0
-1.39164e-16
-5.30002e-17
-1.09153e-18
3.40873e-16
-8.99115e-18
5.53098e-16
-2.59279e-16
6.36632e-19
6.6713e-18
1.98687e-16
-2.04151e-17
1.54447e-16
-1.44378e-16
-1.36319e-16
0
1.4506e-16
1.13157e-16
1.64764e-18
-2.40724e-18
7.65721e-17
5.38627e-17
0
-2.41362e-16
0
-5.33554e-17
2.48295e-16
4.28718e-18
5.59256e-17
-1.92127e-16
1.80343e-16
1.96556e-16
1.88944e-16
1.82826e-16
0
-1.40923e-16
0
7.88332e-18
-8.18753e-18
0
-8.11032e-19
4.03896e-17
1.69792e-16
1.08953e-17
-1.27133e-16
3.95805e-16
-1.25952e-16
0
0
-2.27248e-16
-1.90443e-16
-1.83045e-16
-3.39941e-16
-4.76984e-17
0
0
0
-1.66645e-17
1.76352e-17
1.14666e-16
-4.10143e-17
1.14026e-17
0
-2.80803e-16
-2.51619e-16
2.67052e-16
-2.65686e-16
-3.78344e-16
4.57283e-16
1.31436e-16
0
2.03324e-16
2.3768e-16
-5.13094e-17
2.81365e-16
-4.62818e-17
4.81681e-17
1.89362e-16
-1.08967e-16
0
-3.23399e-16
0
-3.07202e-16
3.00058e-16
0
5.31307e-16
2.47625e-16
-5.26563e-16
4.2703e-16
-2.37555e-18
-1.27983e-16
-2.30123e-16
0
3.27269e-16
-5.45658e-16
5.86592e-16
-7.47787e-16
0
0
3.22583e-16
-2.65665e-18
-6.51705e-18
-6.08484e-16
6.16423e-16
-2.96443e-16
2.95235e-16
2.9105e-16
-2.52197e-16
0
0
4.90089e-16
-4.98531e-16
-5.28786e-16
5.25456e-16
-5.12849e-16
5.55466e-16
-8.70865e-16
0
)
;

boundaryField
{
    up
    {
        type            calculated;
        value           nonuniform List<scalar> 
84
(
0
0
0
0
-2.91025e-17
5.20322e-17
-2.15134e-17
1.44589e-17
-1.27026e-17
0
-8.36833e-18
7.90905e-18
-4.75936e-18
7.60868e-19
5.99726e-19
2.93171e-18
0
0
-1.31155e-18
9.88222e-19
8.57592e-19
-8.32715e-19
7.08947e-20
0
3.25334e-19
1.77459e-19
-2.80532e-18
0
4.21371e-18
5.48562e-18
7.46293e-19
-1.33169e-18
5.59269e-19
0
-2.61871e-19
8.48e-19
-8.59669e-19
1.3874e-18
0
-2.60829e-19
0
0
-1.38367e-19
2.70332e-19
-2.61202e-19
4.93652e-19
-9.33254e-19
8.78133e-19
-7.39788e-20
-8.41617e-19
0
0
0
-6.44913e-18
-8.90399e-19
4.90625e-19
0
-3e-18
-2.81467e-18
2.03989e-18
0
0
-9.24134e-19
1.88805e-18
-2.33101e-18
1.65135e-18
0
5.0678e-19
0
0
-3.61698e-18
3.57889e-18
-6.43927e-18
7.45359e-18
0
-1.41172e-17
1.4459e-17
-1.09153e-18
0
4.03896e-17
-4.10143e-17
0
0
0
)
;
    }
    low
    {
        type            calculated;
        value           nonuniform List<scalar> 
84
(
-6.45998e-16
6.42786e-16
-3.11186e-16
4.95191e-16
8.73773e-17
-2.27093e-17
1.89779e-16
2.4288e-17
0
7.94291e-16
-2.01302e-16
1.57553e-16
-1.80953e-16
-1.20051e-15
1.96173e-16
0
-1.82616e-16
1.91046e-17
-1.84517e-17
-1.4237e-16
7.53229e-17
1.97694e-16
3.46362e-16
-3.02855e-16
0
-5.86075e-17
-3.01657e-17
0
-2.76807e-16
-7.93038e-17
-2.71118e-16
-2.93413e-16
3.17576e-16
1.07436e-16
7.37775e-16
5.90677e-17
0
4.91399e-16
4.85708e-16
2.75485e-16
-1.46168e-16
5.88286e-17
5.88307e-17
0
2.33969e-16
5.47022e-16
4.30904e-16
4.81353e-17
0
-1.02207e-15
6.24744e-16
4.67025e-20
5.73187e-20
2.40635e-16
0
-5.78357e-16
0
-3.32731e-17
6.17968e-17
1.28259e-16
2.00107e-16
2.7938e-16
5.68511e-20
6.74928e-16
0
0
-5.05075e-16
5.66216e-16
-5.70354e-16
-1.96311e-16
4.21882e-16
-3.84891e-16
8.69162e-16
4.27023e-16
3.95555e-16
-7.74812e-16
5.41281e-16
-1.63894e-16
3.40873e-16
-2.40784e-16
1.69792e-16
1.24757e-17
-3.23399e-16
3.22875e-16
)
;
    }
    left
    {
        type            calculated;
        value           nonuniform List<scalar> 
19
(
-6.45412e-16
-3.12303e-16
3.19009e-16
8.74478e-18
-6.02772e-16
0
-2.78195e-16
-2.74355e-16
-2.19055e-17
-1.45995e-16
-1.14725e-18
-1.45767e-16
6.51674e-16
-1.44746e-16
6.75227e-16
5.83574e-16
3.47365e-16
5.10147e-16
0
)
;
    }
    right
    {
        type            calculated;
        value           nonuniform List<scalar> 
19
(
3.22583e-16
-2.36238e-18
-6.51705e-18
-6.08512e-16
6.16656e-16
-2.96443e-16
2.95235e-16
2.9105e-16
-2.51197e-16
0
0
4.94677e-16
-5.04934e-16
-5.28786e-16
5.25456e-16
-5.12849e-16
5.55466e-16
-9.41674e-16
0
)
;
    }
    frontAndBackPlanes
    {
        type            empty;
    }
}


// ************************************************************************* //
