/*--------------------------------*- C++ -*----------------------------------*\
  =========                 |
  \\      /  F ield         | OpenFOAM: The Open Source CFD Toolbox
   \\    /   O peration     | Website:  https://openfoam.org
    \\  /    A nd           | Version:  7
     \\/     M anipulation  |
\*---------------------------------------------------------------------------*/
FoamFile
{
    version     2.0;
    format      ascii;
    class       volScalarField;
    location    "0.183";
    object      gradTz;
}
// * * * * * * * * * * * * * * * * * * * * * * * * * * * * * * * * * * * * * //

dimensions      [0 -1 0 1 0 0 0];

internalField   nonuniform List<scalar> 
1596
(
-8.0678e-16
-3.9053e-16
3.98716e-16
1.03781e-17
-7.54575e-16
0
-3.49303e-16
-3.44472e-16
-2.54538e-17
-1.8288e-16
-1.49056e-18
-1.8245e-16
8.06589e-16
-1.81011e-16
8.44725e-16
7.29805e-16
4.34334e-16
5.49143e-16
0
8.04088e-16
0
1.12087e-15
-9.15007e-18
-3.38552e-16
3.35113e-16
6.97838e-16
2.44385e-17
3.2922e-16
-1.59279e-16
3.18297e-16
-4.32086e-18
-4.42351e-16
-2.77118e-16
-6.82707e-16
-6.66997e-16
-6.07409e-16
3.46194e-16
0
-3.91427e-16
0
-7.25087e-16
1.44989e-17
6.53727e-16
-1.88951e-16
1.71914e-17
-4.48979e-18
-4.31313e-18
-4.41624e-18
1.15912e-16
0
2.29388e-16
6.48663e-16
-6.41118e-17
5.21071e-17
1.2229e-16
1.92663e-16
0
6.18598e-16
-1.81858e-16
1.81194e-16
0
-1.72941e-16
-1.80584e-16
2.98597e-16
-2.54164e-16
0
0
-9.96244e-17
6.06068e-17
0
-1.89864e-16
-2.3949e-16
1.67085e-16
-1.75112e-16
-8.98973e-18
0
1.08499e-16
2.81465e-16
-2.47984e-16
0
-7.13311e-17
-2.18384e-16
0
3.22046e-16
-3.1695e-17
-2.87221e-17
-3.40881e-17
1.65192e-16
2.05916e-16
2.19186e-17
1.18338e-17
-1.80624e-16
9.0626e-18
8.394e-17
-3.65312e-17
-2.81755e-17
-3.85533e-16
3.60226e-16
-3.06934e-16
-7.72374e-19
-2.61963e-16
7.32191e-18
-7.34622e-18
-2.00773e-16
0
-2.8472e-17
-1.95901e-16
-1.85809e-16
1.48109e-16
1.60628e-16
-2.17523e-18
-9.64342e-17
-8.51392e-17
6.54312e-17
2.35468e-16
-3.91334e-16
4.28548e-16
2.35479e-16
0
2.01945e-16
1.15616e-16
-5.5268e-17
2.53908e-16
-4.7084e-17
-2.02374e-16
1.65989e-18
-1.17603e-16
-1.48761e-16
-1.13919e-16
9.8705e-17
9.7283e-17
-1.30974e-18
-2.7107e-17
2.75682e-17
6.23988e-16
-7.1534e-16
0
0
-2.43418e-16
0
0
0
1.56688e-16
0
0
1.08535e-16
3.58731e-18
3.36442e-17
-8.66633e-17
0
4.61102e-17
1.84839e-17
0
-3.99078e-16
7.6331e-16
0
0
2.50686e-16
0
-9.01853e-17
9.00941e-17
-1.59486e-16
6.50052e-17
-6.54807e-17
0
9.41164e-17
9.72323e-17
0
-5.59744e-17
-4.70945e-17
-1.6219e-17
9.93109e-16
-4.6044e-16
0
-3.03719e-16
3.0032e-16
0
2.06621e-16
0
0
0
5.81356e-17
-5.84143e-17
0
-7.30267e-17
-2.04692e-17
0
8.31271e-18
3.12261e-17
0
-2.52154e-16
0
0
3.04621e-16
-5.60644e-16
3.53352e-17
1.35483e-17
-8.11997e-17
1.09787e-17
4.39326e-18
-6.02349e-17
-9.33848e-17
0
7.00141e-17
-1.45478e-17
1.47662e-17
4.09721e-17
-2.47172e-17
-1.1098e-17
2.00686e-16
-2.67212e-17
1.93113e-16
6.38652e-16
-4.21847e-17
-2.57631e-16
0
0
0
1.24262e-16
4.77162e-17
1.69935e-16
-4.08957e-17
-6.87616e-17
-3.90733e-17
-2.22524e-17
1.0004e-17
-2.20407e-17
1.0504e-17
-2.27716e-16
2.23463e-16
-4.08001e-16
-6.31176e-16
5.76079e-16
2.15385e-16
-3.91785e-16
3.26879e-16
-2.72401e-16
7.1442e-17
5.15874e-17
-4.61397e-17
2.72817e-17
-2.54418e-17
7.56389e-17
0
-5.81692e-18
4.35587e-17
-6.51887e-18
-1.50351e-15
6.8198e-16
5.30314e-19
-1.37793e-16
2.23195e-17
2.0903e-16
-3.93191e-16
-1.54115e-16
1.26248e-16
-1.02885e-16
-8.43218e-17
0
-9.15418e-17
-2.68955e-17
-4.65621e-17
-2.75605e-17
2.15928e-18
-2.59588e-17
9.52378e-19
2.45718e-16
-2.14687e-16
3.2664e-19
-1.57154e-16
-3.76171e-16
3.50558e-16
1.8615e-18
1.50185e-16
-1.22919e-16
1.96431e-16
4.57818e-17
3.59989e-17
1.05366e-16
0
8.40715e-17
3.85357e-17
0
1.36935e-17
7.63122e-19
0
2.08272e-16
1.5558e-16
-3.2849e-16
3.64045e-16
-5.34077e-16
3.67136e-16
1.28692e-16
-2.37078e-17
-1.9554e-16
3.30708e-17
-3.29076e-17
-9.39215e-17
3.56226e-17
-1.83158e-17
-3.73396e-17
1.55209e-17
-9.72895e-18
4.15429e-18
-2.28777e-16
7.52589e-16
-5.63055e-16
2.92506e-16
0
0
-6.83834e-17
1.48696e-16
-9.65218e-17
1.78682e-16
0
0
6.20313e-17
-5.29075e-17
-3.53312e-17
1.12086e-17
-1.2151e-17
6.52041e-18
0
2.29125e-17
2.14007e-16
-1.6495e-16
-1.40743e-16
-2.15127e-16
-6.04173e-17
9.4629e-17
0
-8.98036e-17
-6.85148e-17
6.00483e-17
-4.64344e-17
3.57583e-17
0
1.37348e-17
2.50964e-17
0
0
0
-2.20917e-17
3.25946e-16
1.15352e-16
-4.26668e-16
1.12211e-16
9.29822e-17
0
0
8.38131e-17
-4.4084e-17
-5.80798e-17
4.49106e-17
-3.4581e-17
0
-8.23515e-18
6.50343e-18
0
-5.57421e-18
-1.97104e-18
-1.79395e-16
5.26524e-16
-6.26278e-16
-2.36771e-16
1.26041e-16
-8.69922e-17
6.97309e-17
0
-4.28421e-17
3.4314e-17
0
0
1.28396e-17
-1.28544e-17
3.52223e-18
-5.10444e-18
7.67844e-18
1.18377e-18
1.48172e-18
9.43811e-17
-8.31017e-17
4.09485e-16
-2.62779e-16
-1.00559e-16
1.57224e-17
1.46153e-16
5.12731e-17
4.09935e-17
0
2.03812e-17
-1.86952e-17
1.40314e-17
-1.12793e-17
1.32131e-17
-2.22179e-17
-5.97212e-18
5.15068e-18
1.3208e-18
2.48678e-16
-2.54145e-16
0
2.11599e-16
-1.13468e-16
-7.80882e-17
4.81923e-17
-1.58813e-16
0
-2.91036e-18
-2.45933e-17
-1.62108e-17
2.18063e-17
-2.02462e-18
-1.27702e-17
9.05746e-18
0
3.0199e-18
-1.28248e-18
4.35058e-16
-7.44284e-17
3.03075e-16
-2.36569e-16
1.18971e-16
5.33699e-18
-1.30787e-16
-3.98844e-17
6.9893e-17
-3.60847e-18
-3.50197e-17
2.8433e-17
-1.19763e-17
-1.4295e-17
0
0
0
-3.0462e-18
1.10961e-19
-3.80369e-16
3.68595e-16
2.72707e-19
5.20913e-17
4.29472e-17
-9.70338e-17
1.10454e-16
-8.56051e-17
6.9379e-17
-2.048e-17
3.8401e-17
1.2457e-17
-5.05776e-18
2.40252e-19
-1.50835e-18
-2.65158e-18
0
0
0
0
0
1.69625e-16
-9.01497e-17
-2.48116e-16
0
0
-2.49041e-17
-3.74601e-17
2.95667e-17
0
-1.57105e-17
1.1399e-17
-3.52054e-17
3.98017e-17
-1.19692e-17
1.26853e-17
1.33415e-18
0
-7.36285e-17
7.45347e-17
0
-5.56479e-17
5.60738e-17
8.74544e-17
0
2.51419e-17
2.89964e-17
-1.34145e-16
0
-1.80819e-17
1.32291e-17
8.68245e-18
-6.09744e-18
8.61184e-18
0
-2.96087e-18
0
-3.78907e-17
-3.68309e-17
2.17788e-18
5.71768e-17
-1.47707e-16
0
-3.4757e-17
0
8.74469e-17
3.28666e-17
0
7.17194e-17
-7.18692e-17
8.07854e-18
-1.31535e-17
4.85579e-18
1.6689e-17
5.91849e-18
-4.69347e-18
0
7.7439e-17
-6.50993e-17
8.02658e-17
9.15556e-17
0
7.01072e-17
-6.49828e-17
-4.72588e-17
6.59831e-17
-9.84997e-17
-4.42382e-17
0
0
8.00597e-18
0
0
2.08714e-18
0
-3.47621e-16
2.67797e-16
0
4.98816e-18
-5.27287e-17
-2.79236e-18
4.43708e-17
2.88671e-17
-3.83509e-17
-8.68656e-17
1.2932e-16
-3.5568e-17
0
-1.46939e-17
0
0
0
-8.11739e-18
6.50137e-18
-9.93362e-17
9.11879e-17
2.35866e-16
-2.28237e-16
6.82177e-17
4.54518e-18
-4.50267e-17
3.71221e-17
6.02085e-17
4.34404e-17
-8.54442e-17
0
3.85392e-17
3.19874e-18
-1.68259e-17
-3.39842e-17
2.76735e-17
-4.02482e-18
7.83481e-18
-3.39836e-16
4.70665e-16
-4.64494e-16
7.89972e-17
6.43861e-17
-6.02536e-17
4.9674e-17
-3.7318e-17
0
-2.93994e-17
4.38773e-17
1.88933e-17
2.93014e-17
3.40919e-17
-5.03315e-17
-1.43203e-18
0
-3.30885e-18
1.12195e-18
-3.67407e-16
-1.06249e-16
-1.80452e-16
9.72648e-17
-1.50667e-16
1.26547e-16
-7.42053e-17
5.98419e-17
-5.11176e-18
-5.02292e-18
-4.76117e-17
2.89237e-17
-1.37906e-17
4.30531e-17
-4.62179e-17
4.80153e-18
4.60327e-18
0
-1.98904e-18
3.97248e-16
-1.14882e-16
0
0
-1.5489e-16
2.98346e-16
-6.82606e-17
-1.23448e-17
9.90784e-17
-2.69457e-18
0
0
-1.99527e-17
0
-4.12352e-17
9.77651e-17
-6.70358e-17
0
8.25631e-19
1.34539e-16
2.47281e-16
0
-1.01628e-16
-7.93058e-17
-6.73132e-17
-7.13335e-17
2.8244e-17
-7.75948e-17
-4.06559e-17
0
0
2.88107e-17
0
0
-5.75688e-17
9.53682e-17
0
0
9.2361e-16
-1.15637e-16
-5.45864e-16
-2.86138e-16
3.89116e-16
1.19898e-16
6.91667e-17
0
-2.41639e-17
2.24717e-17
5.62397e-17
-1.78751e-17
-2.52816e-17
3.8863e-17
-4.13383e-17
-1.20871e-17
0
0
0
7.39626e-17
-5.71857e-16
5.59632e-16
-5.24483e-17
-3.9476e-16
6.11768e-16
-3.0398e-16
0
0
1.50054e-16
-1.2214e-16
0
-3.49952e-17
6.14593e-17
-6.53282e-18
1.75808e-17
5.27164e-18
6.55829e-20
1.12584e-18
0
0
0
4.57675e-16
-3.07566e-16
3.11435e-16
-4.82905e-16
1.35844e-16
0
-4.67625e-17
7.31016e-17
-7.47142e-17
-1.41802e-17
4.20835e-20
-9.4806e-18
-1.29932e-18
-7.57399e-18
-2.1508e-18
-1.16142e-18
6.16163e-16
-1.09157e-15
5.13823e-16
0
1.32005e-16
-1.80233e-16
1.75075e-16
-1.38757e-16
0
-6.45063e-17
9.04527e-17
0
0
6.33697e-20
0
-1.01587e-17
6.91563e-18
1.18776e-18
1.86468e-18
6.05497e-16
0
-2.32226e-16
2.59213e-16
-1.58059e-16
3.43441e-16
-1.61083e-16
-1.22398e-16
1.23676e-16
-1.23638e-17
0
0
7.67969e-18
-1.26746e-17
-8.88421e-18
1.67762e-17
-3.62996e-18
1.82626e-18
0
3.43537e-16
2.6261e-16
-1.2039e-17
-2.47645e-16
-2.44843e-17
-1.73327e-16
2.07458e-17
1.43598e-16
-7.28898e-18
1.2596e-17
0
0
-7.86733e-18
0
9.17711e-18
-9.81732e-18
0
1.25345e-18
-3.45937e-19
-1.82292e-16
-1.3185e-16
1.23523e-16
-1.3872e-17
-6.14885e-18
1.63757e-17
0
-4.21917e-18
6.20455e-17
-5.2248e-17
0
1.71791e-17
-3.47639e-18
-1.50576e-17
-1.36904e-18
-1.06393e-18
0
-9.81216e-19
0
7.37445e-17
-1.39511e-16
-1.08008e-18
5.89182e-17
5.26228e-17
-5.22018e-17
-3.60977e-17
4.08272e-17
-1.36945e-17
1.07375e-17
-1.02054e-17
1.05201e-17
0
2.6405e-20
-1.0108e-18
3.62495e-18
-1.23736e-20
0
0
7.3747e-17
-7.34707e-17
-5.86081e-17
5.19683e-17
9.28979e-17
-9.34463e-17
-1.80496e-17
1.80933e-17
-1.38111e-17
1.39557e-17
-1.02058e-17
1.91881e-17
-5.38214e-18
-3.83186e-18
-1.16527e-18
3.88769e-19
9.19344e-19
2.42555e-19
-1.81853e-19
0
-1.73905e-17
1.01942e-16
-1.10635e-16
9.26267e-17
-8.22011e-17
0
6.28598e-17
-5.62963e-17
0
2.02498e-17
-2.55987e-17
-1.43692e-17
1.50599e-17
2.73506e-18
0
0
-9.81439e-19
3.56263e-19
2.93325e-16
-5.37252e-16
5.41647e-16
-4.69582e-16
1.83593e-16
-1.51673e-16
1.44131e-16
1.67116e-17
-6.12965e-17
5.47148e-17
0
-3.84173e-17
3.50285e-17
-6.5382e-18
-2.67899e-18
4.14736e-18
3.03892e-18
9.5279e-19
-3.44231e-19
6.8226e-16
0
-2.6293e-16
2.04471e-16
2.42031e-17
-1.82068e-16
3.20449e-16
-2.80371e-16
1.0939e-16
-4.5481e-17
4.65538e-17
9.10592e-18
1.52978e-17
6.36827e-18
-5.16718e-18
-7.16391e-19
-6.56242e-18
0
6.56681e-19
5.40427e-16
-6.08343e-16
0
5.40366e-17
2.2802e-16
-2.22598e-16
3.7038e-17
3.22844e-17
1.40031e-17
2.40617e-17
0
0
-2.65415e-17
4.90646e-17
-1.78183e-17
-6.31917e-18
6.91844e-18
5.50036e-19
-1.24302e-18
5.71057e-17
5.3456e-16
-6.04364e-17
-4.04094e-16
3.55084e-16
4.14934e-17
-3.62484e-17
-3.15322e-17
1.00907e-16
-1.25103e-16
7.31312e-17
-7.47435e-17
1.11736e-17
-1.46917e-17
2.57748e-17
-1.72483e-17
0
0
1.18907e-18
0
1.32909e-16
-3.90009e-16
4.46258e-16
-3.48739e-16
3.47908e-16
0
1.13994e-16
-1.14517e-16
-8.29746e-17
1.22245e-16
0
4.86325e-17
-6.1514e-17
-9.0344e-18
0
-9.78327e-19
-1.85887e-18
-8.59367e-20
-1.27961e-15
6.05649e-16
0
-3.89063e-16
3.89024e-16
2.29761e-16
-1.50736e-16
5.96496e-17
0
-2.56302e-18
1.78472e-17
-1.78538e-17
-2.52536e-17
3.88159e-17
-4.12742e-17
0
8.39474e-18
-1.64436e-18
-1.15577e-18
7.83413e-16
-7.66886e-16
0
1.01012e-16
8.98818e-17
-8.096e-17
0
-6.25133e-17
-5.16096e-17
0
-3.23565e-18
0
2.88293e-17
0
0
1.16724e-17
4.33617e-17
-5.6456e-17
0
6.87914e-20
1.14939e-16
-1.03951e-16
8.11484e-17
-4.14219e-16
1.56471e-16
0
1.23552e-17
3.47653e-17
0
-3.3881e-17
9.31801e-17
-9.78911e-17
1.54622e-17
0
-2.24444e-18
0
0
0
7.91067e-20
0
9.60767e-17
0
-1.39794e-16
1.42017e-16
0
4.67668e-17
-3.60246e-17
1.27758e-16
-6.1002e-17
2.05797e-17
-3.19998e-17
2.9101e-17
-4.62891e-17
-7.23661e-18
0
-4.17609e-18
0
3.02398e-16
-5.1197e-16
0
-7.86867e-17
6.86306e-17
0
0
-8.47846e-17
0
-2.9426e-17
-4.39202e-17
-1.89147e-17
2.93387e-17
0
1.39224e-17
0
0
8.95647e-18
-9.6847e-18
0
4.35969e-16
-3.48237e-16
7.28459e-17
-6.35523e-17
-2.47552e-17
7.02071e-17
7.56538e-17
-8.76836e-17
2.80859e-17
2.96807e-18
-2.29304e-17
9.26686e-17
-2.86242e-17
-6.17867e-17
2.07221e-17
-4.92601e-18
2.98228e-18
-8.39025e-19
-7.26557e-16
2.67834e-16
0
0
2.64844e-17
-2.69317e-17
1.74448e-17
1.00155e-17
7.80192e-17
3.76526e-17
-3.64881e-17
-2.15655e-18
-1.83125e-17
1.47115e-17
0
6.40603e-18
4.51504e-18
2.26246e-18
7.5836e-19
0
2.28169e-16
-2.08744e-16
6.60818e-17
6.48145e-17
-1.23595e-17
-3.7746e-17
-3.08734e-17
-9.68911e-17
3.68177e-17
-2.01044e-17
2.92287e-17
1.71245e-17
-1.96147e-17
2.08198e-17
1.19416e-17
-1.59105e-17
-2.08971e-18
0
-4.15804e-17
-1.82153e-16
6.34717e-17
5.71933e-17
-1.89025e-16
1.33045e-16
6.12494e-17
-6.26062e-17
4.48561e-17
-3.49418e-17
0
0
-2.39338e-17
4.20723e-17
-1.80126e-17
1.54781e-17
-1.69944e-17
2.65138e-18
-4.69917e-18
7.74141e-17
7.09418e-17
-6.28727e-17
4.60545e-17
-5.56658e-17
-7.88087e-17
0
0
0
0
0
0
1.21632e-17
-3.0059e-17
3.17906e-17
-9.47031e-18
1.17262e-17
5.2552e-18
-4.43009e-18
1.61531e-16
-2.64552e-16
3.30143e-16
-1.44918e-16
2.0162e-16
-1.35468e-16
2.47617e-16
-1.35292e-16
-6.55805e-17
6.70859e-17
0
1.57017e-17
-1.18828e-17
2.67372e-17
-9.81563e-18
-1.1402e-17
-2.21201e-17
1.73006e-18
3.73085e-18
2.52024e-16
7.04064e-17
0
-1.03849e-16
-7.7617e-17
1.74239e-16
1.43118e-17
-6.4169e-17
3.70283e-17
-2.42391e-17
0
-1.24297e-17
0
-9.02799e-18
7.08391e-18
-6.08353e-18
-1.97499e-18
1.33504e-18
0
3.51128e-16
-7.44273e-17
3.03001e-16
-2.36614e-16
-4.52636e-17
1.6861e-16
-1.01031e-16
5.871e-18
4.60755e-18
-2.36204e-17
2.24369e-17
0
0
1.12757e-17
-3.71226e-18
2.28778e-18
7.15275e-18
-2.48729e-18
0
7.24184e-20
0
-6.79041e-17
3.8431e-16
-2.57253e-16
-2.56817e-16
1.39797e-16
-1.33684e-16
1.21935e-16
5.63762e-17
-4.0092e-17
1.55964e-17
-1.35081e-17
2.61867e-18
1.99307e-17
4.35022e-19
-6.92826e-18
6.82305e-18
-1.42415e-18
8.47223e-16
-2.68586e-16
1.23034e-16
-3.84093e-16
1.00559e-16
-1.49919e-16
8.19524e-17
0
0
-3.02657e-18
-4.33054e-18
-1.27365e-18
0
-1.81794e-17
-1.32135e-17
9.35934e-18
-6.77795e-19
1.37294e-18
2.88897e-18
0
-2.63568e-16
4.32906e-16
8.78838e-17
-3.40148e-16
8.6992e-17
-1.2665e-16
2.5572e-17
9.87393e-17
0
0
1.74868e-18
1.70813e-17
0
-1.38779e-17
-6.03524e-18
8.98201e-19
-2.95017e-18
-3.52333e-18
0
-1.62519e-16
4.37387e-17
2.91785e-16
2.05614e-16
-3.718e-16
1.65861e-16
-1.06996e-16
5.81651e-17
-7.45406e-17
0
0
0
-2.64844e-17
6.10482e-18
-8.2756e-18
0
-4.99941e-19
2.47976e-18
-6.33783e-16
5.9729e-16
6.14913e-16
-7.44466e-16
3.31924e-16
-3.09346e-16
0
1.13624e-16
-1.52887e-16
8.56084e-17
-6.3253e-17
4.95563e-17
3.87154e-17
2.73908e-17
2.08803e-17
0
0
0
0
7.08883e-16
-4.00039e-16
0
0
-1.22853e-16
2.86817e-16
-1.82827e-16
-1.21092e-16
1.19727e-16
8.32997e-17
1.34698e-16
-5.14195e-17
2.18677e-17
1.57369e-17
1.1151e-17
9.38428e-18
1.49375e-17
-7.25622e-19
7.39111e-19
-7.14775e-16
6.49734e-16
3.34652e-16
-1.75905e-16
3.63691e-16
-2.32448e-16
-1.75316e-16
-1.43023e-16
0
-1.75903e-16
1.05403e-17
6.06466e-17
-4.50969e-17
-3.56228e-17
-1.30082e-17
-1.31672e-17
-1.05798e-17
0
0
-2.45901e-16
0
1.84246e-16
-1.44415e-19
0
0
1.80844e-16
1.4758e-16
0
9.63444e-17
0
-9.19911e-17
-2.56047e-17
4.48047e-17
0
2.86527e-17
-4.00291e-18
4.0835e-18
0
5.27207e-16
0
3.51045e-16
-6.44312e-16
5.63924e-16
4.36477e-16
-1.66278e-17
0
1.29511e-17
1.15666e-16
0
-1.06682e-16
1.15955e-16
-1.02576e-16
-2.22091e-17
-2.28379e-17
-6.97553e-18
-1.29282e-18
-4.93292e-18
-4.83153e-16
6.9403e-16
-1.91688e-16
-4.90562e-16
-2.76879e-16
-2.32761e-16
-3.89836e-16
-1.49423e-16
1.4721e-17
5.16845e-17
-5.15874e-17
1.58829e-16
-7.00508e-17
1.37781e-16
-2.57575e-17
0
3.09544e-17
-1.87164e-17
4.90265e-18
1.08423e-15
-2.69191e-17
-7.96099e-16
6.38656e-16
-5.63353e-16
4.78197e-16
-1.83122e-17
-1.71674e-16
1.45986e-16
5.58579e-17
-8.12734e-18
-1.32263e-16
3.7061e-17
4.28219e-17
-1.23473e-17
1.24881e-17
-3.20612e-17
-4.67878e-18
-8.52409e-18
5.32259e-16
2.20031e-16
3.79754e-16
-3.26447e-16
-2.60096e-16
1.69366e-17
-1.89732e-16
4.56949e-16
1.83807e-17
2.02864e-16
1.17188e-16
-1.03106e-16
0
-7.00139e-17
0
0
4.94729e-17
2.12535e-17
9.88459e-18
4.9558e-16
0
3.74451e-16
3.24339e-16
-2.81736e-16
2.40356e-16
0
-1.78317e-16
-2.44395e-16
-2.08709e-16
-1.18225e-16
1.04272e-16
0
0
0
0
-4.64462e-17
-3.70259e-17
0
-9.70815e-16
0
-2.22843e-17
-1.97804e-17
4.31003e-16
-2.35169e-16
-1.06512e-16
-1.07257e-16
2.51188e-16
0
6.50047e-17
-6.75472e-18
6.13645e-17
0
0
8.2894e-17
-6.22702e-18
4.44992e-17
-1.80471e-17
6.80599e-16
1.91803e-16
-1.89823e-16
-1.64128e-16
-5.54734e-16
3.74879e-16
4.4518e-16
-1.5333e-17
-1.73463e-16
1.74654e-16
3.61933e-17
-1.86756e-16
-1.5016e-16
-9.62547e-17
-1.02757e-16
-9.56844e-17
8.39793e-17
-3.92918e-18
1.8484e-17
-2.0777e-16
9.29389e-17
-4.45066e-16
7.40767e-17
-7.38072e-17
0
-2.22656e-16
-1.9887e-17
-2.07017e-16
2.25162e-17
2.02373e-16
1.4588e-16
-3.67946e-17
1.08659e-17
9.74279e-17
0
-1.77649e-16
-6.71079e-17
-1.38492e-18
4.2717e-16
-1.13576e-17
7.00496e-16
-3.29813e-16
7.72373e-19
8.55754e-18
2.55534e-16
-2.48052e-17
2.00772e-16
-1.87776e-16
-1.77149e-16
0
1.85808e-16
1.45774e-16
2.10069e-18
-3.06566e-18
9.73714e-17
6.82027e-17
0
-3.02741e-16
0
-6.83484e-17
3.15469e-16
5.20184e-18
7.14264e-17
-2.47098e-16
2.32378e-16
2.51463e-16
2.41548e-16
2.33385e-16
0
-1.80509e-16
0
9.97937e-18
-1.03645e-17
0
-1.01843e-18
5.05772e-17
2.12185e-16
1.30001e-17
-1.61144e-16
5.00604e-16
-1.5966e-16
0
0
-2.8868e-16
-2.43642e-16
-2.34007e-16
-4.32286e-16
-6.06067e-17
0
0
0
-2.09389e-17
2.21586e-17
1.43551e-16
-5.1357e-17
1.35796e-17
0
-3.5372e-16
-3.18638e-16
3.37084e-16
-3.35189e-16
-4.78037e-16
5.79912e-16
1.65376e-16
0
2.57672e-16
2.99083e-16
-6.45707e-17
3.53318e-16
-5.80619e-17
6.04283e-17
2.36943e-16
-1.36415e-16
0
-4.04431e-16
0
-3.84934e-16
3.76292e-16
0
6.69497e-16
3.12641e-16
-6.62822e-16
5.35686e-16
-3.09586e-18
-1.6091e-16
-2.89574e-16
0
4.08959e-16
-6.82707e-16
7.33633e-16
-9.35163e-16
0
0
4.03243e-16
-3.15628e-18
-7.75011e-18
-7.6194e-16
7.71178e-16
-3.71337e-16
3.69824e-16
3.64559e-16
-3.17425e-16
0
0
6.1243e-16
-6.22981e-16
-6.61947e-16
6.57431e-16
-6.41391e-16
6.94472e-16
-1.08858e-15
0
)
;

boundaryField
{
    up
    {
        type            calculated;
        value           nonuniform List<scalar> 
84
(
0
0
0
0
-3.65312e-17
6.54312e-17
-2.7107e-17
1.84839e-17
-1.6219e-17
0
-1.1098e-17
1.0504e-17
-6.51887e-18
9.52378e-19
7.63122e-19
4.15429e-18
0
0
-1.97104e-18
1.48172e-18
1.3208e-18
-1.28248e-18
1.10961e-19
0
5.05797e-19
2.67902e-19
-4.41005e-18
0
6.50137e-18
8.32534e-18
1.12195e-18
-1.98904e-18
8.25631e-19
0
-3.94206e-19
1.15525e-18
-1.15389e-18
1.85769e-18
0
-3.44435e-19
0
0
-1.8183e-19
3.56263e-19
-3.44231e-19
6.56681e-19
-1.24302e-18
1.18907e-18
-8.59367e-20
-1.15577e-18
0
0
0
-9.6847e-18
-1.33019e-18
7.5836e-19
0
-4.69917e-18
-4.43009e-18
3.2266e-18
0
0
-1.42415e-18
2.88897e-18
-3.52333e-18
2.47976e-18
0
7.39111e-19
0
0
-4.93292e-18
4.90265e-18
-8.52409e-18
9.88459e-18
0
-1.80471e-17
1.8484e-17
-1.38492e-18
0
5.05772e-17
-5.1357e-17
0
0
0
)
;
    }
    low
    {
        type            calculated;
        value           nonuniform List<scalar> 
84
(
-8.07474e-16
8.04088e-16
-3.90155e-16
6.19622e-16
1.09188e-16
-2.83772e-17
2.3715e-16
2.91667e-17
0
9.94968e-16
-2.52154e-16
1.99627e-16
-2.27716e-16
-1.50362e-15
2.45718e-16
0
-2.28777e-16
2.29125e-17
-2.20917e-17
-1.79395e-16
9.43811e-17
2.48678e-16
4.33215e-16
-3.80369e-16
0
-7.36285e-17
-3.78907e-17
0
-3.47621e-16
-9.93362e-17
-3.38697e-16
-3.66543e-16
3.96712e-16
1.34539e-16
9.23773e-16
7.39626e-17
0
6.16163e-16
6.07008e-16
3.44351e-16
-1.82722e-16
7.37445e-17
7.3747e-17
0
2.93325e-16
6.8377e-16
5.40427e-16
5.81855e-17
0
-1.27977e-15
7.83413e-16
6.87914e-20
7.91067e-20
3.02398e-16
0
-7.24633e-16
0
-4.15804e-17
7.74141e-17
1.60372e-16
2.50017e-16
3.49284e-16
7.24184e-20
8.45756e-16
0
0
-6.33783e-16
7.08256e-16
-7.14401e-16
-2.45901e-16
5.27318e-16
-4.83153e-16
1.08634e-15
5.33716e-16
4.9558e-16
-9.70815e-16
6.79001e-16
-2.06088e-16
4.2717e-16
-3.02053e-16
2.12185e-16
1.48514e-17
-4.04431e-16
4.0359e-16
)
;
    }
    left
    {
        type            calculated;
        value           nonuniform List<scalar> 
19
(
-8.0678e-16
-3.90884e-16
3.98716e-16
1.04018e-17
-7.54844e-16
0
-3.49303e-16
-3.44472e-16
-2.66789e-17
-1.8288e-16
-1.49056e-18
-1.8245e-16
8.14622e-16
-1.81011e-16
8.44725e-16
7.29805e-16
4.34334e-16
6.3768e-16
0
)
;
    }
    right
    {
        type            calculated;
        value           nonuniform List<scalar> 
19
(
4.03243e-16
-2.80196e-18
-7.75011e-18
-7.61963e-16
7.71447e-16
-3.71337e-16
3.69824e-16
3.64559e-16
-3.162e-16
0
0
6.18174e-16
-6.31013e-16
-6.61947e-16
6.57431e-16
-6.41391e-16
6.94472e-16
-1.17712e-15
0
)
;
    }
    frontAndBackPlanes
    {
        type            empty;
    }
}


// ************************************************************************* //
