/*--------------------------------*- C++ -*----------------------------------*\
  =========                 |
  \\      /  F ield         | OpenFOAM: The Open Source CFD Toolbox
   \\    /   O peration     | Website:  https://openfoam.org
    \\  /    A nd           | Version:  7
     \\/     M anipulation  |
\*---------------------------------------------------------------------------*/
FoamFile
{
    version     2.0;
    format      ascii;
    class       volScalarField;
    location    "0.18";
    object      gradTz;
}
// * * * * * * * * * * * * * * * * * * * * * * * * * * * * * * * * * * * * * //

dimensions      [0 -1 0 1 0 0 0];

internalField   nonuniform List<scalar> 
1596
(
-6.45421e-16
-3.12333e-16
3.18981e-16
8.39284e-18
-6.03416e-16
0
-2.79171e-16
-2.75311e-16
-2.04812e-17
-1.46237e-16
-1.18256e-18
-1.45918e-16
6.45271e-16
-1.44795e-16
6.7566e-16
5.83786e-16
3.47445e-16
4.39319e-16
0
6.43165e-16
0
8.95925e-16
-7.38435e-18
-2.70357e-16
2.67586e-16
5.57584e-16
1.96727e-17
2.6298e-16
-1.27263e-16
2.54339e-16
-3.42737e-18
-3.53507e-16
-2.21498e-16
-5.46056e-16
-5.33538e-16
-4.85904e-16
2.76965e-16
0
-3.12949e-16
0
-5.79262e-16
1.16991e-17
5.21698e-16
-1.51058e-16
1.38726e-17
-3.58035e-18
-3.42703e-18
-3.49963e-18
9.23923e-17
0
1.83312e-16
5.18267e-16
-5.12326e-17
4.16646e-17
9.77692e-17
1.54116e-16
0
4.94758e-16
-1.45249e-16
1.44719e-16
0
-1.38056e-16
-1.44232e-16
2.38062e-16
-2.02313e-16
0
0
-7.97189e-17
4.83135e-17
0
-1.51638e-16
-1.9115e-16
1.33428e-16
-1.40006e-16
-7.18651e-18
0
8.67995e-17
2.2483e-16
-1.97795e-16
0
-5.67989e-17
-1.73955e-16
0
2.56307e-16
-2.52069e-17
-2.28434e-17
-2.74379e-17
1.3135e-16
1.63873e-16
1.7475e-17
9.64252e-18
-1.44238e-16
7.23498e-18
6.70442e-17
-2.91984e-17
-2.25404e-17
-3.0792e-16
2.87388e-16
-2.4451e-16
-6.22027e-19
-2.0821e-16
5.81589e-18
-5.8352e-18
-1.59259e-16
0
-2.29173e-17
-1.55796e-16
-1.47861e-16
1.17717e-16
1.28016e-16
-1.73274e-18
-7.68606e-17
-6.8002e-17
5.22771e-17
1.88375e-16
-3.12504e-16
3.41723e-16
1.87547e-16
0
1.60547e-16
9.17616e-17
-4.38431e-17
2.0137e-16
-3.7311e-17
-1.60526e-16
1.30799e-18
-9.31675e-17
-1.18233e-16
-9.04252e-17
7.84352e-17
7.75371e-17
-1.04441e-18
-2.16482e-17
2.22537e-17
4.98407e-16
-5.70478e-16
0
0
-1.93228e-16
0
0
0
1.23822e-16
0
0
8.60165e-17
2.82022e-18
2.68657e-17
-6.88844e-17
0
3.665e-17
1.47153e-17
0
-3.18506e-16
6.08974e-16
0
0
1.98998e-16
0
-7.13175e-17
7.12454e-17
-1.26033e-16
5.12975e-17
-5.16727e-17
0
7.42466e-17
7.69869e-17
0
-4.43125e-17
-3.74314e-17
-1.29156e-17
7.94101e-16
-3.67971e-16
0
-2.41678e-16
2.38973e-16
0
1.63659e-16
0
0
0
4.57865e-17
-4.6006e-17
0
-5.76259e-17
-1.61308e-17
0
6.68976e-18
2.46871e-17
0
-2.0163e-16
0
0
2.4242e-16
-4.45793e-16
2.84088e-17
1.09022e-17
-6.41274e-17
8.76912e-18
3.51711e-18
-4.74127e-17
-7.33285e-17
0
5.49385e-17
-1.14414e-17
1.16131e-17
3.23431e-17
-1.95513e-17
-8.76519e-18
1.60081e-16
-2.15537e-17
1.54061e-16
5.08528e-16
-3.39519e-17
-2.04676e-16
0
0
0
9.78348e-17
3.74632e-17
1.33302e-16
-3.20716e-17
-5.39557e-17
-3.0571e-17
-1.74553e-17
7.85162e-18
-1.73121e-17
8.29342e-18
-1.81901e-16
1.78521e-16
-3.25716e-16
-5.02597e-16
4.58347e-16
1.70785e-16
-3.10346e-16
2.58354e-16
-2.14801e-16
5.63549e-17
4.05376e-17
-3.62135e-17
2.12878e-17
-1.98886e-17
5.91829e-17
0
-4.55584e-18
3.41496e-17
-5.11276e-18
-1.20227e-15
5.44976e-16
4.22594e-19
-1.09585e-16
1.79691e-17
1.6575e-16
-3.11605e-16
-1.21772e-16
9.95033e-17
-8.088e-17
-6.61187e-17
0
-7.15362e-17
-2.09982e-17
-3.62711e-17
-2.14595e-17
1.68076e-18
-2.02871e-17
7.62278e-19
1.96485e-16
-1.71488e-16
2.54831e-19
-1.25193e-16
-2.98975e-16
2.78439e-16
1.48713e-18
1.18667e-16
-9.68796e-17
1.54392e-16
3.59396e-17
2.81868e-17
8.22107e-17
0
6.54048e-17
2.99685e-17
0
1.06792e-17
6.08651e-19
0
1.66364e-16
1.23924e-16
-2.61871e-16
2.89319e-16
-4.23904e-16
2.9092e-16
1.01541e-16
-1.89257e-17
-1.53773e-16
2.58774e-17
-2.57497e-17
-7.31949e-17
2.76798e-17
-1.42489e-17
-2.89893e-17
1.20196e-17
-7.53736e-18
3.23437e-18
-1.82932e-16
6.00745e-16
-4.49556e-16
2.32949e-16
0
0
-5.40171e-17
1.1759e-16
-7.59249e-17
1.40431e-16
0
0
4.829e-17
-4.11204e-17
-2.73558e-17
8.67962e-18
-9.41292e-18
5.05554e-18
0
1.85017e-17
1.71125e-16
-1.3157e-16
-1.12106e-16
-1.70837e-16
-4.75781e-17
7.50527e-17
0
-7.06044e-17
-5.36615e-17
4.69688e-17
-3.62035e-17
2.77912e-17
0
1.06463e-17
1.93737e-17
0
0
0
-1.78457e-17
2.59927e-16
9.15954e-17
-3.39916e-16
8.91549e-17
7.37436e-17
0
0
6.58524e-17
-3.46563e-17
-4.54291e-17
3.50153e-17
-2.68762e-17
0
-6.35344e-18
4.99729e-18
0
-4.28224e-18
-1.51499e-18
-1.43263e-16
4.20484e-16
-4.99597e-16
-1.88297e-16
1.00316e-16
-6.89366e-17
5.51169e-17
0
-3.36673e-17
2.69038e-17
0
0
9.94634e-18
-9.9578e-18
2.7125e-18
-3.94756e-18
5.88896e-18
9.17934e-19
1.13947e-18
7.54649e-17
-6.63594e-17
3.26307e-16
-2.09334e-16
-7.9846e-17
1.25954e-17
1.15625e-16
4.03835e-17
3.22145e-17
0
1.58774e-17
-1.45572e-17
1.08879e-17
-8.72488e-18
1.01596e-17
-1.70534e-17
-4.5796e-18
3.94651e-18
1.00973e-18
1.98668e-16
-2.03123e-16
0
1.6819e-16
-9.02697e-17
-6.1852e-17
3.79239e-17
-1.25195e-16
0
-2.29377e-18
-1.9203e-17
-1.25947e-17
1.68629e-17
-1.581e-18
-9.81912e-18
6.94531e-18
0
2.30336e-18
-9.80441e-19
3.48011e-16
-5.94301e-17
2.41413e-16
-1.88402e-16
9.42689e-17
3.89301e-18
-1.03387e-16
-3.13288e-17
5.48173e-17
-2.85477e-18
-2.7222e-17
2.20547e-17
-9.26908e-18
-1.09998e-17
0
0
0
-2.32332e-18
8.45281e-20
-3.03979e-16
2.9449e-16
2.17275e-19
4.14354e-17
3.4081e-17
-7.67141e-17
8.71511e-17
-6.7321e-17
5.44003e-17
-1.59529e-17
2.98903e-17
9.64247e-18
-3.90412e-18
1.8534e-19
-1.15085e-18
-2.02407e-18
0
0
0
0
0
1.35036e-16
-7.20996e-17
-1.97099e-16
0
0
-1.9582e-17
-2.93398e-17
2.30766e-17
0
-1.21609e-17
8.78899e-18
-2.7019e-17
3.0517e-17
-9.13158e-18
9.67589e-18
1.01514e-18
0
-5.8838e-17
5.95622e-17
0
-4.42795e-17
4.45978e-17
6.93281e-17
0
1.9769e-17
2.2622e-17
-1.0486e-16
0
-1.40178e-17
1.02172e-17
6.67324e-18
-4.67074e-18
6.58196e-18
0
-2.25394e-18
0
-3.02804e-17
-2.93941e-17
1.738e-18
4.54961e-17
-1.17268e-16
0
-2.74504e-17
0
6.859e-17
2.56734e-17
0
5.55962e-17
-5.55645e-17
6.27925e-18
-1.00523e-17
3.76311e-18
1.27587e-17
4.50787e-18
-3.57499e-18
0
6.18463e-17
-5.18672e-17
6.39282e-17
7.27008e-17
0
5.53409e-17
-5.12368e-17
-3.70836e-17
5.15449e-17
-7.6919e-17
-3.43729e-17
0
0
6.15056e-18
0
0
1.59441e-18
0
-2.77814e-16
2.14059e-16
0
4.02367e-18
-4.18363e-17
-2.21058e-18
3.50913e-17
2.26994e-17
-3.02602e-17
-6.8078e-17
1.00954e-16
-2.7787e-17
0
-1.13779e-17
0
0
0
-6.20312e-18
4.96885e-18
-7.94326e-17
7.28325e-17
1.88035e-16
-1.81842e-16
5.42623e-17
3.64748e-18
-3.56076e-17
2.92768e-17
4.73469e-17
3.40376e-17
-6.69291e-17
0
2.9931e-17
2.38394e-18
-1.30287e-17
-2.61846e-17
2.13063e-17
-3.07867e-18
6.00356e-18
-2.71908e-16
3.75762e-16
-3.70731e-16
6.29256e-17
5.1163e-17
-4.78314e-17
3.93835e-17
-2.94868e-17
0
-2.31221e-17
3.43578e-17
1.47869e-17
2.28778e-17
2.64804e-17
-3.90614e-17
-1.13709e-18
0
-2.54148e-18
8.6236e-19
-2.93966e-16
-8.48697e-17
-1.43869e-16
7.76069e-17
-1.19835e-16
1.00439e-16
-5.88371e-17
4.73069e-17
-4.08448e-18
-4.00946e-18
-3.73512e-17
2.27283e-17
-1.07295e-17
3.35498e-17
-3.60161e-17
3.69915e-18
3.5741e-18
0
-1.53097e-18
3.17842e-16
-9.17789e-17
0
0
-1.2318e-16
2.37122e-16
-5.4181e-17
-9.76209e-18
7.82251e-17
-2.1348e-18
0
0
-1.56201e-17
0
-3.21787e-17
7.61857e-17
-5.22018e-17
0
6.37103e-19
1.07588e-16
1.9756e-16
0
-8.10201e-17
-6.30542e-17
-5.33791e-17
-5.66334e-17
2.23609e-17
-6.13666e-17
-3.20651e-17
0
0
2.26607e-17
0
0
-4.50038e-17
7.45764e-17
0
0
7.38607e-16
-9.27664e-17
-4.3592e-16
-2.27983e-16
3.10079e-16
9.53471e-17
5.49131e-17
0
-1.91224e-17
1.77409e-17
4.44155e-17
-1.41045e-17
-1.9885e-17
3.05481e-17
-3.24938e-17
-9.47098e-18
0
0
0
5.91476e-17
-4.56762e-16
4.4695e-16
-4.18302e-17
-3.14317e-16
4.86798e-16
-2.41723e-16
0
0
1.18728e-16
-9.65868e-17
0
-2.75784e-17
4.84568e-17
-5.133e-18
1.38426e-17
4.14645e-18
5.19571e-20
8.84452e-19
0
0
0
3.64886e-16
-2.45239e-16
2.47739e-16
-3.84002e-16
1.07935e-16
0
-3.70449e-17
5.78213e-17
-5.90968e-17
-1.11923e-17
4.60325e-20
-7.47039e-18
-1.01957e-18
-5.96824e-18
-1.69591e-18
-9.15193e-19
4.92594e-16
-8.72315e-16
4.10444e-16
0
1.05136e-16
-1.43567e-16
1.39174e-16
-1.10296e-16
0
-5.11143e-17
7.16765e-17
0
0
6.09418e-20
0
-8.02026e-18
5.45836e-18
9.33749e-19
1.4699e-18
4.84408e-16
0
-1.85362e-16
2.06895e-16
-1.25921e-16
2.73509e-16
-1.28216e-16
-9.72323e-17
9.82477e-17
-9.80975e-18
0
0
6.07978e-18
-1.00201e-17
-7.02275e-18
1.32579e-17
-2.86852e-18
1.44175e-18
0
2.74825e-16
2.09801e-16
-9.77083e-18
-1.97682e-16
-1.95179e-17
-1.37998e-16
1.66223e-17
1.14218e-16
-5.79028e-18
9.99395e-18
0
0
-6.22832e-18
0
7.26028e-18
-7.76677e-18
0
9.91387e-19
-2.73541e-19
-1.45829e-16
-1.0534e-16
9.86898e-17
-1.10692e-17
-4.90264e-18
1.30445e-17
0
-3.35517e-18
4.92773e-17
-4.14957e-17
0
1.36148e-17
-2.76092e-18
-1.19274e-17
-1.08393e-18
-8.42159e-19
0
-7.76133e-19
0
5.89591e-17
-1.11503e-16
-8.24738e-19
4.70371e-17
4.19434e-17
-4.16038e-17
-2.87204e-17
3.24815e-17
-1.08775e-17
8.53005e-18
-8.09442e-18
8.34407e-18
0
2.09158e-20
-8.0035e-19
2.8699e-18
-9.79428e-21
0
0
5.89611e-17
-5.87401e-17
-4.67895e-17
4.14911e-17
7.40415e-17
-7.44786e-17
-1.43608e-17
1.43956e-17
-1.09701e-17
1.1085e-17
-8.09478e-18
1.5215e-17
-4.26775e-18
-3.03598e-18
-9.22626e-19
3.07952e-19
7.27774e-19
1.9198e-19
-1.43932e-19
0
-1.38986e-17
8.13779e-17
-8.83245e-17
7.38211e-17
-6.55169e-17
0
4.99646e-17
-4.4751e-17
0
1.60582e-17
-2.02978e-17
-1.13821e-17
1.19292e-17
2.16464e-18
0
0
-7.76312e-19
2.81783e-19
2.34508e-16
-4.29377e-16
4.32562e-16
-3.74703e-16
1.46443e-16
-1.20752e-16
1.14759e-16
1.32838e-17
-4.86706e-17
4.34418e-17
0
-3.0432e-17
2.77494e-17
-5.17335e-18
-2.12026e-18
3.27918e-18
2.40223e-18
7.53651e-19
-2.72267e-19
5.45797e-16
0
-2.09881e-16
1.63223e-16
1.92938e-17
-1.4493e-16
2.54949e-16
-2.22845e-16
8.69075e-17
-3.60631e-17
3.69137e-17
7.21352e-18
1.21014e-17
5.0389e-18
-4.08297e-18
-5.67833e-19
-5.18662e-18
0
5.18329e-19
4.32025e-16
-4.86319e-16
0
4.31094e-17
1.81648e-16
-1.77291e-16
2.94504e-17
2.56418e-17
1.11155e-17
1.90689e-17
0
0
-2.09918e-17
3.87733e-17
-1.40751e-17
-4.98763e-18
5.46062e-18
4.33913e-19
-9.80863e-19
4.60226e-17
4.27346e-16
-4.8249e-17
-3.22152e-16
2.83097e-16
3.30295e-17
-2.88225e-17
-2.50444e-17
7.99896e-17
-9.91648e-17
5.7845e-17
-5.91203e-17
8.81147e-18
-1.16105e-17
2.03176e-17
-1.35994e-17
0
0
9.34893e-19
0
1.062e-16
-3.11172e-16
3.5608e-16
-2.77653e-16
2.76992e-16
0
9.04155e-17
-9.08298e-17
-6.56424e-17
9.66704e-17
0
3.83425e-17
-4.85004e-17
-7.11887e-18
0
-7.68977e-19
-1.45664e-18
-7.00332e-20
-1.0233e-15
4.84103e-16
0
-3.10037e-16
3.10006e-16
1.82641e-16
-1.19808e-16
4.72841e-17
0
-2.0253e-18
1.40408e-17
-1.40879e-17
-1.98632e-17
3.05115e-17
-3.24439e-17
0
6.57052e-18
-1.2768e-18
-9.05914e-19
6.26293e-16
-6.12891e-16
0
8.0507e-17
7.15347e-17
-6.43716e-17
0
-4.95541e-17
-4.07971e-17
0
-2.60119e-18
0
2.26757e-17
0
0
9.11854e-18
3.38464e-17
-4.40857e-17
0
5.32295e-20
9.18247e-17
-8.29401e-17
6.45575e-17
-3.29625e-16
1.24408e-16
0
9.77039e-18
2.7478e-17
0
-2.66845e-17
7.31122e-17
-7.68085e-17
1.20809e-17
0
-1.77788e-18
0
0
0
6.2007e-20
0
7.66574e-17
0
-1.11092e-16
1.12858e-16
0
3.69574e-17
-2.83906e-17
1.00528e-16
-4.79654e-17
1.61071e-17
-2.49851e-17
2.26494e-17
-3.60723e-17
-5.63136e-18
0
-3.21968e-18
0
2.41636e-16
-4.09127e-16
0
-6.2663e-17
5.45532e-17
0
0
-6.69671e-17
0
-2.31432e-17
-3.43918e-17
-1.48039e-17
2.29073e-17
0
1.07812e-17
0
0
6.89612e-18
-7.44562e-18
0
3.48037e-16
-2.7796e-16
5.80116e-17
-5.05166e-17
-1.96092e-17
5.55538e-17
5.96951e-17
-6.89382e-17
2.20709e-17
2.3785e-18
-1.7855e-17
7.20954e-17
-2.2258e-17
-4.78017e-17
1.59997e-17
-3.7812e-18
2.29072e-18
-6.41e-19
-5.80962e-16
2.14091e-16
0
0
2.10181e-17
-2.13731e-17
1.37498e-17
7.81593e-18
6.12802e-17
2.94559e-17
-2.85038e-17
-1.71825e-18
-1.41922e-17
1.13918e-17
0
4.91737e-18
3.46574e-18
1.72837e-18
5.79373e-19
0
1.82188e-16
-1.6646e-16
5.26501e-17
5.14586e-17
-9.80477e-18
-2.98297e-17
-2.43269e-17
-7.60696e-17
2.87898e-17
-1.5595e-17
2.27722e-17
1.32715e-17
-1.51117e-17
1.60401e-17
9.13549e-18
-1.21918e-17
-1.5964e-18
0
-3.32663e-17
-1.45493e-16
5.06106e-17
4.55093e-17
-1.49993e-16
1.05453e-16
4.82902e-17
-4.936e-17
3.51985e-17
-2.73229e-17
0
0
-1.84691e-17
3.24207e-17
-1.38518e-17
1.18332e-17
-1.29957e-17
2.01978e-18
-3.57939e-18
6.19018e-17
5.66543e-17
-5.01217e-17
3.65486e-17
-4.4284e-17
-6.2382e-17
0
0
0
0
0
0
9.38309e-18
-2.3083e-17
2.44128e-17
-7.22931e-18
8.9547e-18
3.99994e-18
-3.37078e-18
1.29225e-16
-2.11078e-16
2.63369e-16
-1.15099e-16
1.602e-16
-1.07034e-16
1.95376e-16
-1.06518e-16
-5.12787e-17
5.24557e-17
0
1.21541e-17
-9.16679e-18
2.05106e-17
-7.5736e-18
-8.73906e-18
-1.68599e-17
1.32198e-18
2.8371e-18
2.01652e-16
5.62186e-17
0
-8.26074e-17
-6.15082e-17
1.37891e-16
1.11533e-17
-5.04702e-17
2.90622e-17
-1.89237e-17
0
-9.62137e-18
0
-6.93629e-18
5.42982e-18
-4.6476e-18
-1.50686e-18
1.01517e-18
0
2.80902e-16
-5.94293e-17
2.41358e-16
-1.88444e-16
-3.59289e-17
1.33331e-16
-7.9883e-17
4.6802e-18
3.65875e-18
-1.84452e-17
1.74977e-17
0
0
8.68012e-18
-2.83715e-18
1.74141e-18
5.45707e-18
-1.89725e-18
0
5.77355e-20
0
-5.41315e-17
3.05616e-16
-2.0445e-16
-2.03241e-16
1.10595e-16
-1.05138e-16
9.57961e-17
4.40892e-17
-3.12294e-17
1.21126e-17
-1.04706e-17
2.04276e-18
1.53301e-17
3.19543e-19
-5.29388e-18
5.21049e-18
-1.08859e-18
6.77414e-16
-2.14669e-16
9.79067e-17
-3.0587e-16
7.98456e-17
-1.18666e-16
6.49422e-17
0
0
-2.3885e-18
-3.43058e-18
-1.00831e-18
0
-1.40235e-17
-1.016e-17
7.17679e-18
-5.19008e-19
1.05867e-18
2.21173e-18
0
-2.10485e-16
3.45008e-16
6.95856e-17
-2.7043e-16
6.89365e-17
-1.00014e-16
2.04153e-17
7.77544e-17
0
0
1.37222e-18
1.32769e-17
0
-1.07135e-17
-4.64377e-18
6.9186e-19
-2.25863e-18
-2.70468e-18
0
-1.29611e-16
3.52706e-17
2.32537e-16
1.63205e-16
-2.94864e-16
1.31379e-16
-8.43132e-17
4.58818e-17
-5.84884e-17
0
0
0
-2.05224e-17
4.68349e-18
-6.38466e-18
0
-3.84585e-19
1.90633e-18
-5.06594e-16
4.77246e-16
4.90084e-16
-5.93232e-16
2.63662e-16
-2.45584e-16
0
8.9586e-17
-1.20413e-16
6.72714e-17
-4.95121e-17
3.86719e-17
3.01223e-17
2.12247e-17
1.61384e-17
0
0
0
0
5.67017e-16
-3.19522e-16
0
0
-9.76829e-17
2.27419e-16
-1.4492e-16
-9.55158e-17
9.44391e-17
6.54024e-17
1.0547e-16
-4.01258e-17
1.70408e-17
1.22183e-17
8.63503e-18
7.27397e-18
1.15678e-17
-5.61412e-19
5.71848e-19
-5.71556e-16
5.19183e-16
2.66783e-16
-1.40323e-16
2.89025e-16
-1.84673e-16
-1.38839e-16
-1.12993e-16
0
-1.38138e-16
8.37454e-18
4.74018e-17
-3.51247e-17
-2.76799e-17
-1.00938e-17
-1.01883e-17
-8.18795e-18
0
0
-1.9663e-16
0
1.46992e-16
-1.08945e-19
0
0
1.43217e-16
1.16593e-16
0
7.57118e-17
0
-7.18865e-17
-1.99775e-17
3.4926e-17
0
2.23106e-17
-3.11416e-18
3.17686e-18
0
4.21766e-16
0
2.79876e-16
-5.13312e-16
4.48685e-16
3.4628e-16
-1.33609e-17
0
1.0324e-17
9.10676e-17
0
-8.35038e-17
9.05685e-17
-8.00606e-17
-1.73219e-17
-1.77745e-17
-5.44003e-18
-1.01043e-18
-3.87252e-18
-3.8616e-16
5.54602e-16
-1.5293e-16
-3.90778e-16
-2.2019e-16
-1.84747e-16
-3.08756e-16
-1.17951e-16
1.17633e-17
4.06139e-17
-4.05376e-17
1.24454e-16
-5.48623e-17
1.07732e-16
-2.01354e-17
0
2.42735e-17
-1.47011e-17
3.84504e-18
8.67382e-16
-2.17035e-17
-6.35301e-16
5.08531e-16
-4.47997e-16
3.79558e-16
-1.46929e-17
-1.35686e-16
1.15151e-16
4.39248e-17
-6.45027e-18
-1.03751e-16
2.90055e-17
3.36858e-17
-9.68141e-18
9.79184e-18
-2.51414e-17
-3.74292e-18
-6.73499e-18
4.25807e-16
1.75752e-16
3.02935e-16
-2.59984e-16
-2.06614e-16
1.36464e-17
-1.50132e-16
3.61421e-16
1.46776e-17
1.59889e-16
9.22488e-17
-8.1109e-17
0
-5.49383e-17
0
0
3.9046e-17
1.67474e-17
7.80688e-18
3.96262e-16
0
2.98647e-16
2.58306e-16
-2.2398e-16
1.90741e-16
0
-1.40977e-16
-1.9301e-16
-1.64547e-16
-9.30653e-17
8.20261e-17
0
0
0
0
-3.66604e-17
-2.93565e-17
0
-7.76245e-16
0
-1.79864e-17
-1.59729e-17
3.42744e-16
-1.86521e-16
-8.43757e-17
-8.4981e-17
1.98493e-16
0
5.12971e-17
-5.32554e-18
4.85715e-17
0
0
6.57119e-17
-4.93902e-18
3.52838e-17
-1.43675e-17
5.44067e-16
1.53069e-16
-1.51489e-16
-1.30778e-16
-4.41078e-16
2.97681e-16
3.53007e-16
-1.2316e-17
-1.37175e-16
1.38263e-16
2.86223e-17
-1.47846e-16
-1.18722e-16
-7.63701e-17
-8.15728e-17
-7.58569e-17
6.68081e-17
-3.12398e-18
1.47154e-17
-1.66013e-16
7.4171e-17
-3.55023e-16
5.89609e-17
-5.87464e-17
0
-1.76621e-16
-1.59971e-17
-1.64212e-16
1.81161e-17
1.60525e-16
1.15523e-16
-2.91866e-17
8.37782e-18
7.73275e-17
0
-1.41473e-16
-5.35368e-17
-1.10436e-18
3.41547e-16
-9.06522e-18
5.58794e-16
-2.62848e-16
6.22027e-19
6.80765e-18
2.03167e-16
-1.99735e-17
1.59258e-16
-1.48934e-16
-1.4053e-16
0
1.47861e-16
1.15859e-16
1.67336e-18
-2.44263e-18
7.76078e-17
5.44097e-17
0
-2.42011e-16
0
-5.43873e-17
2.5148e-16
4.1891e-18
5.68747e-17
-1.96459e-16
1.84681e-16
2.00159e-16
1.92298e-16
1.85858e-16
0
-1.43644e-16
0
7.96167e-18
-8.2689e-18
0
-8.1394e-19
4.04462e-17
1.69758e-16
1.05083e-17
-1.28525e-16
3.99461e-16
-1.2734e-16
0
0
-2.30136e-16
-1.93934e-16
-1.86294e-16
-3.44541e-16
-4.83134e-17
0
0
0
-1.67323e-17
1.7707e-17
1.14803e-16
-4.10702e-17
1.09813e-17
0
-2.82502e-16
-2.54192e-16
2.69096e-16
-2.67613e-16
-3.81537e-16
4.62478e-16
1.32112e-16
0
2.05523e-16
2.38921e-16
-5.1581e-17
2.82374e-16
-4.64131e-17
4.83048e-17
1.89513e-16
-1.09096e-16
0
-3.23513e-16
0
-3.07785e-16
3.00821e-16
0
5.34662e-16
2.4957e-16
-5.29451e-16
4.28218e-16
-2.45455e-18
-1.28566e-16
-2.31325e-16
0
3.2719e-16
-5.46055e-16
5.86839e-16
-7.48056e-16
0
0
3.22592e-16
-2.55368e-18
-6.26915e-18
-6.09319e-16
6.16829e-16
-2.96933e-16
2.95723e-16
2.91517e-16
-2.5356e-16
0
0
4.89975e-16
-4.98416e-16
-5.2939e-16
5.25839e-16
-5.13056e-16
5.55553e-16
-8.70866e-16
0
)
;

boundaryField
{
    up
    {
        type            calculated;
        value           nonuniform List<scalar> 
84
(
0
0
0
0
-2.91984e-17
5.22771e-17
-2.16482e-17
1.47153e-17
-1.29156e-17
0
-8.76519e-18
8.29342e-18
-5.11276e-18
7.62278e-19
6.08651e-19
3.23437e-18
0
0
-1.51499e-18
1.13947e-18
1.00973e-18
-9.80441e-19
8.45281e-20
0
3.85879e-19
2.0574e-19
-3.35652e-18
0
4.96885e-18
6.38583e-18
8.6236e-19
-1.53097e-18
6.37103e-19
0
-3.03055e-19
9.071e-19
-9.08986e-19
1.4642e-18
0
-2.72308e-19
0
0
-1.43907e-19
2.81783e-19
-2.72267e-19
5.18329e-19
-9.80863e-19
9.34893e-19
-7.00332e-20
-9.05914e-19
0
0
0
-7.44562e-18
-1.02378e-18
5.79373e-19
0
-3.57939e-18
-3.37078e-18
2.45238e-18
0
0
-1.08859e-18
2.21173e-18
-2.70468e-18
1.90633e-18
0
5.71848e-19
0
0
-3.87252e-18
3.84504e-18
-6.73499e-18
7.80688e-18
0
-1.43675e-17
1.47154e-17
-1.10436e-18
0
4.04462e-17
-4.10702e-17
0
0
0
)
;
    }
    low
    {
        type            calculated;
        value           nonuniform List<scalar> 
84
(
-6.45983e-16
6.43165e-16
-3.11919e-16
4.95587e-16
8.7356e-17
-2.27035e-17
1.89733e-16
2.35442e-17
0
7.95601e-16
-2.0163e-16
1.59224e-16
-1.81901e-16
-1.20237e-15
1.96485e-16
0
-1.82932e-16
1.85017e-17
-1.78457e-17
-1.43263e-16
7.54649e-17
1.98668e-16
3.46525e-16
-3.03979e-16
0
-5.8838e-17
-3.02804e-17
0
-2.77814e-16
-7.94326e-17
-2.70993e-16
-2.93274e-16
3.17415e-16
1.07588e-16
7.38744e-16
5.91476e-17
0
4.92594e-16
4.85629e-16
2.75482e-16
-1.46176e-16
5.89591e-17
5.89611e-17
0
2.34508e-16
5.47017e-16
4.32025e-16
4.68978e-17
0
-1.02343e-15
6.26293e-16
5.32295e-20
6.2007e-20
2.41636e-16
0
-5.7941e-16
0
-3.32663e-17
6.19018e-17
1.28289e-16
2.00034e-16
2.79417e-16
5.77355e-20
6.76235e-16
0
0
-5.06594e-16
5.66519e-16
-5.71262e-16
-1.9663e-16
4.2186e-16
-3.8616e-16
8.69095e-16
4.26984e-16
3.96262e-16
-7.76245e-16
5.42776e-16
-1.64655e-16
3.41547e-16
-2.41454e-16
1.69758e-16
1.20109e-17
-3.23513e-16
3.22873e-16
)
;
    }
    left
    {
        type            calculated;
        value           nonuniform List<scalar> 
19
(
-6.45421e-16
-3.12619e-16
3.18981e-16
8.41355e-18
-6.03635e-16
0
-2.79171e-16
-2.75311e-16
-2.14655e-17
-1.46237e-16
-1.18256e-18
-1.45918e-16
6.51692e-16
-1.44795e-16
6.7566e-16
5.83786e-16
3.47445e-16
5.10144e-16
0
)
;
    }
    right
    {
        type            calculated;
        value           nonuniform List<scalar> 
19
(
3.22592e-16
-2.26782e-18
-6.26915e-18
-6.0934e-16
6.17048e-16
-2.96933e-16
2.95723e-16
2.91517e-16
-2.52576e-16
0
0
4.94569e-16
-5.04837e-16
-5.2939e-16
5.25839e-16
-5.13056e-16
5.55553e-16
-9.41692e-16
0
)
;
    }
    frontAndBackPlanes
    {
        type            empty;
    }
}


// ************************************************************************* //
