/*--------------------------------*- C++ -*----------------------------------*\
  =========                 |
  \\      /  F ield         | OpenFOAM: The Open Source CFD Toolbox
   \\    /   O peration     | Website:  https://openfoam.org
    \\  /    A nd           | Version:  7
     \\/     M anipulation  |
\*---------------------------------------------------------------------------*/
FoamFile
{
    version     2.0;
    format      ascii;
    class       volScalarField;
    location    "0.191";
    object      gradTy;
}
// * * * * * * * * * * * * * * * * * * * * * * * * * * * * * * * * * * * * * //

dimensions      [0 -1 0 1 0 0 0];

internalField   nonuniform List<scalar> 
1596
(
-0.730063
-1.3527
-1.85621
-2.33065
-2.77399
-3.24486
-3.71533
-4.25157
-4.87745
-5.61
-6.623
-7.91334
-9.71618
-12.3051
-16.359
-22.7081
-34.0809
-55.0801
-130.113
-2.22005
-2.72739
-3.05782
-3.34868
-3.61596
-3.92707
-4.26061
-4.67901
-5.20665
-5.84771
-6.7492
-7.89292
-9.43713
-11.5056
-14.4476
-18.4356
-24.381
-33.1278
-57.9531
-3.96333
-4.11901
-4.18895
-4.26424
-4.34391
-4.48708
-4.67075
-4.95055
-5.34546
-5.85094
-6.58917
-7.52728
-8.77551
-10.3903
-12.5839
-15.3785
-19.2701
-24.6096
-36.0546
-5.77796
-5.46534
-5.23125
-5.07533
-4.96331
-4.93538
-4.96388
-5.09484
-5.34126
-5.6929
-6.25058
-6.9739
-7.94146
-9.17538
-10.8111
-12.8124
-15.4718
-18.9288
-24.8381
-7.43575
-6.6897
-6.16521
-5.78624
-5.49005
-5.29572
-5.1718
-5.15364
-5.24941
-5.44596
-5.82601
-6.34816
-7.06991
-7.99677
-9.21962
-10.6837
-12.5736
-14.9341
-18.3696
-8.73565
-7.71928
-6.97243
-6.40373
-5.9438
-5.5964
-5.33
-5.17016
-5.12194
-5.17161
-5.38651
-5.72855
-6.24064
-6.92079
-7.83275
-8.91979
-10.305
-11.9904
-14.2043
-9.57449
-8.4986
-7.63328
-6.92986
-6.33894
-5.86004
-5.4671
-5.1785
-4.99824
-4.91384
-4.97969
-5.16334
-5.49715
-5.97628
-6.64692
-7.45716
-8.4922
-9.73584
-11.2759
-9.95986
-8.99576
-8.12271
-7.35292
-6.67415
-6.09305
-5.595
-5.19505
-4.89828
-4.69512
-4.62927
-4.67495
-4.85674
-5.16921
-5.64655
-6.24405
-7.02212
-7.95831
-9.08479
-9.98362
-9.2543
-8.46598
-7.69447
-6.97079
-6.31738
-5.73545
-5.24111
-4.8427
-4.53482
-4.35301
-4.27824
-4.32929
-4.50122
-4.81959
-5.24696
-5.82658
-6.53506
-7.38113
-9.72185
-9.24053
-8.5961
-7.8839
-7.16458
-6.47793
-5.84209
-5.27804
-4.79917
-4.40528
-4.12637
-3.94978
-3.89033
-3.94409
-4.13054
-4.41915
-4.84126
-5.37531
-6.02003
-9.40545
-9.09647
-8.59357
-7.96685
-7.28306
-6.59232
-5.92677
-5.3138
-4.77277
-4.30935
-3.95024
-3.68863
-3.53669
-3.49173
-3.56867
-3.74287
-4.037
-4.43206
-4.92253
-9.02244
-8.88828
-8.51989
-7.98583
-7.35319
-6.67679
-5.99865
-5.35245
-4.76362
-4.24378
-3.81826
-3.48542
-3.2559
-3.12824
-3.11395
-3.19326
-3.38231
-3.66477
-4.03354
-8.55355
-8.57415
-8.33537
-7.89969
-7.33151
-6.6876
-6.0157
-5.35489
-4.73592
-4.17589
-3.70027
-3.31181
-3.02061
-2.82643
-2.73841
-2.74079
-2.84504
-3.03742
-3.31049
-8.1433
-8.2492
-8.10989
-7.76122
-7.25668
-6.65128
-5.99491
-5.33069
-4.69358
-4.10537
-3.59254
-3.16145
-2.82219
-2.57565
-2.42922
-2.37022
-2.40668
-2.52704
-2.72411
-7.76818
-7.941
-7.87591
-7.59786
-7.14948
-6.58174
-5.94435
-5.28295
-4.63572
-4.02828
-3.48843
-3.02545
-2.64973
-2.36304
-2.17144
-2.06457
-2.04789
-2.11155
-2.24891
-7.40249
-7.64095
-7.63776
-7.41739
-7.01653
-6.48278
-5.86475
-5.20964
-4.558
-3.93842
-3.38013
-2.89461
-2.49265
-2.17663
-1.95157
-1.80874
-1.75163
-1.77176
-1.86304
-7.07355
-7.35767
-7.4042
-7.23022
-6.86773
-6.36214
-5.76109
-5.11298
-4.46011
-3.83345
-3.26342
-2.76318
-2.34372
-2.0078
-1.75943
-1.59096
-1.50432
-1.492
-1.54843
-6.78736
-7.10431
-7.18969
-7.05205
-6.71901
-6.23436
-5.64562
-5.00237
-4.34862
-3.7173
-3.13979
-2.63044
-2.20024
-1.85192
-1.5885
-1.40283
-1.29554
-1.25977
-1.29033
-6.49751
-6.87681
-7.0051
-6.9001
-6.5904
-6.11997
-5.53764
-4.89481
-4.23755
-3.60085
-3.01697
-2.50119
-2.06425
-1.7085
-1.43579
-1.23909
-1.11776
-1.06533
-1.07686
-6.19427
-6.64737
-6.82705
-6.75678
-6.46876
-6.00937
-5.43011
-4.78506
-4.1229
-3.48086
-2.89204
-2.3725
-1.9325
-1.57374
-1.29668
-1.09395
-0.963783
-0.899993
-0.897884
-5.93371
-6.43982
-6.66882
-6.63311
-6.3649
-5.91319
-5.33315
-4.6824
-4.01278
-3.36408
-2.77035
-2.24828
-1.80747
-1.44868
-1.1707
-0.965344
-0.829622
-0.757673
-0.745493
-5.70035
-6.25758
-6.53353
-6.53173
-6.28234
-5.83623
-5.25262
-4.59325
-3.91374
-3.25673
-2.65737
-2.13299
-1.69248
-1.33545
-1.05875
-0.852782
-0.712824
-0.633231
-0.611992
-5.48133
-6.09584
-6.41975
-6.45193
-6.22105
-5.77956
-5.19086
-4.52113
-3.83009
-3.16353
-2.55774
-2.03081
-1.59094
-1.23663
-0.962727
-0.757496
-0.613266
-0.522788
-0.487705
-5.28269
-5.95439
-6.32364
-6.38511
-6.16753
-5.72491
-5.1262
-4.4418
-3.7361
-3.05853
-2.44523
-1.91621
-1.47838
-1.1293
-0.861492
-0.661343
-0.515903
-0.41131
-0.336886
-5.11897
-5.84398
-6.26837
-6.38014
-6.20642
-5.79795
-5.22446
-4.55547
-3.8567
-3.1801
-2.56084
-2.02258
-1.5724
-1.21042
-0.929844
-0.719123
-0.562668
-0.443824
-0.341795
-5.00262
-5.7606
-6.22033
-6.37169
-6.23913
-5.86911
-5.32836
-4.68356
-3.99928
-3.32822
-2.70482
-2.15542
-1.68865
-1.30723
-1.00675
-0.779499
-0.611414
-0.489262
-0.396851
-4.99524
-5.7582
-6.23143
-6.40575
-6.30284
-5.9661
-5.45754
-4.84058
-4.17687
-3.51767
-2.89683
-2.34072
-1.85904
-1.45675
-1.13273
-0.883137
-0.696835
-0.562443
-0.46461
-5.10964
-5.84832
-6.3077
-6.4812
-6.38942
-6.07347
-5.59074
-5.00053
-4.36046
-3.719
-3.10787
-2.55211
-2.06078
-1.63978
-1.29085
-1.01484
-0.804864
-0.652387
-0.542512
-5.3314
-6.02857
-6.4517
-6.60399
-6.5072
-6.20072
-5.7376
-5.17246
-4.5582
-3.93961
-3.34523
-2.79774
-2.3038
-1.86822
-1.4939
-1.18669
-0.945655
-0.767572
-0.638837
-5.65227
-6.28134
-6.64844
-6.76395
-6.65032
-6.34514
-5.89736
-5.35657
-4.77059
-4.18022
-3.61033
-3.08094
-2.59502
-2.15376
-1.75779
-1.41618
-1.13503
-0.920679
-0.763975
-6.0651
-6.6023
-6.90175
-6.97101
-6.83275
-6.52286
-6.08667
-5.56863
-5.01156
-4.45249
-3.91282
-3.4108
-2.94563
-2.51315
-2.10679
-1.7333
-1.40252
-1.13512
-0.934603
-6.50457
-6.96305
-7.19442
-7.21379
-7.04724
-6.72975
-6.30333
-5.80735
-5.27973
-4.75414
-4.2492
-3.78315
-3.35355
-2.95203
-2.56122
-2.17688
-1.79893
-1.45713
-1.18174
-7.00051
-7.37288
-7.52956
-7.49379
-7.29501
-6.967
-6.54825
-6.07287
-5.57385
-5.08159
-4.61233
-4.18613
-3.80271
-3.45531
-3.11957
-2.77831
-2.40142
-1.99595
-1.57313
-7.57549
-7.84771
-7.92326
-7.83004
-7.59928
-7.26284
-6.85463
-6.40342
-5.937
-5.482
-5.05307
-4.67152
-4.34261
-4.06927
-3.83536
-3.62853
-3.4028
-3.13458
-2.79409
-8.20742
-8.36717
-8.3428
-8.17284
-7.89025
-7.52514
-7.10598
-6.65699
-6.2008
-5.75836
-5.34304
-4.97214
-4.65347
-4.3957
-4.19873
-4.06957
-3.99135
-3.95069
-3.91951
-8.91596
-8.92595
-8.77993
-8.51873
-8.17234
-7.76748
-7.32693
-6.87136
-6.41933
-5.98686
-5.58703
-5.23185
-4.92823
-4.68164
-4.49458
-4.37064
-4.3095
-4.31396
-4.38577
-9.69375
-9.5242
-9.2511
-8.90055
-8.49368
-8.05102
-7.59028
-7.12848
-6.68095
-6.26057
-5.87897
-5.54487
-5.26308
-5.0357
-4.8619
-4.73697
-4.65382
-4.60319
-4.57493
-10.3972
-10.0624
-9.67318
-9.24041
-8.77703
-8.29753
-7.8155
-7.34419
-6.89605
-6.48128
-6.10913
-5.78626
-5.51546
-5.29714
-5.12919
-5.00651
-4.92212
-4.86829
-4.83646
-10.9594
-10.5091
-10.032
-9.53466
-9.02624
-8.51722
-8.01809
-7.53913
-7.09045
-6.68013
-6.31563
-6.00217
-5.74131
-5.5326
-5.37349
-5.25873
-5.18145
-5.13419
-5.10857
-11.4041
-10.8647
-10.3195
-9.7722
-9.22887
-8.69702
-8.18462
-7.69967
-7.25045
-6.84346
-6.48488
-6.17891
-5.92629
-5.72597
-5.57512
-5.46829
-5.39861
-5.35866
-5.3402
-11.7264
-11.1204
-10.5242
-9.94035
-9.37209
-8.82424
-8.30271
-7.81375
-7.36433
-6.95984
-6.60562
-6.30521
-6.05879
-5.86495
-5.72057
-5.61997
-5.55611
-5.52143
-5.50756
-11.9377
-11.2668
-10.6335
-10.027
-9.44481
-8.88854
-8.36247
-7.87171
-7.4225
-7.01961
-6.66795
-6.37076
-6.12795
-5.93798
-5.79768
-5.70139
-5.64209
-5.61225
-5.60348
-11.9378
-11.2669
-10.6336
-10.0272
-9.44496
-8.8887
-8.36264
-7.87189
-7.42268
-7.01979
-6.66814
-6.37095
-6.12815
-5.9382
-5.79791
-5.70163
-5.64234
-5.61251
-5.60375
-11.7264
-11.1207
-10.5245
-9.94069
-9.37247
-8.82466
-8.30316
-7.81422
-7.36482
-6.96035
-6.60616
-6.30578
-6.05939
-5.86558
-5.72124
-5.6207
-5.55689
-5.52228
-5.5085
-11.4042
-10.865
-10.3199
-9.77275
-9.22949
-8.6977
-8.18533
-7.70042
-7.25125
-6.84429
-6.48575
-6.17983
-5.92725
-5.72699
-5.5762
-5.46945
-5.39985
-5.36
-5.34163
-10.9596
-10.5095
-10.0325
-9.53537
-9.02703
-8.51809
-8.01901
-7.54011
-7.09148
-6.6812
-6.31675
-6.00335
-5.74254
-5.53389
-5.37484
-5.26016
-5.18296
-5.13578
-5.11026
-10.3974
-10.0629
-9.67385
-9.24122
-8.77795
-8.29855
-7.81659
-7.34535
-6.89728
-6.48257
-6.11047
-5.78766
-5.51692
-5.29866
-5.13078
-5.00816
-4.92385
-4.8701
-4.83836
-9.69397
-9.52471
-9.25183
-8.90144
-8.4947
-8.05214
-7.5915
-7.12978
-6.68233
-6.26202
-5.88048
-5.54643
-5.26469
-5.03736
-4.86359
-4.73868
-4.65554
-4.6049
-4.57663
-8.91621
-8.92654
-8.78083
-8.5199
-8.17375
-7.7691
-7.32874
-6.87336
-6.4215
-5.98919
-5.58955
-5.23455
-4.93111
-4.68472
-4.49784
-4.37397
-4.3127
-4.31666
-4.3874
-8.20758
-8.36727
-8.34296
-8.17309
-7.8906
-7.52561
-7.10653
-6.65761
-6.20146
-5.75899
-5.3436
-4.97253
-4.65363
-4.39552
-4.19822
-4.06882
-3.99085
-3.95139
-3.92287
-7.57556
-7.84807
-7.92394
-7.83109
-7.60074
-7.26472
-6.85692
-6.40609
-5.94
-5.48527
-5.05658
-4.67525
-4.34659
-4.07362
-3.84034
-3.63457
-3.41046
-3.14435
-2.80627
-7.00053
-7.37294
-7.5298
-7.49429
-7.29581
-6.96812
-6.54968
-6.07459
-5.57581
-5.08374
-4.61463
-4.18859
-3.80534
-3.45824
-3.12291
-2.78215
-2.40562
-2.00003
-1.57622
-6.50456
-6.96306
-7.19459
-7.21421
-7.04798
-6.73082
-6.30473
-5.80905
-5.28167
-4.75628
-4.25149
-3.78559
-3.35615
-2.95484
-2.56421
-2.17995
-1.80184
-1.45959
-1.18365
-6.06507
-6.60225
-6.90183
-6.97133
-6.83337
-6.52382
-6.08795
-5.57021
-5.01338
-4.45449
-3.91496
-3.41305
-2.94798
-2.51557
-2.1092
-1.73558
-1.40452
-1.13676
-0.93591
-5.65223
-6.28126
-6.64846
-6.76419
-6.65085
-6.346
-5.89854
-5.35803
-4.77227
-4.18206
-3.61228
-3.08296
-2.59706
-2.15577
-1.75969
-1.41788
-1.13647
-0.921859
-0.764944
-5.33134
-6.02845
-6.45166
-6.60414
-6.50763
-6.20147
-5.73865
-5.17378
-4.55972
-3.94127
-3.34697
-2.7995
-2.30553
-1.86986
-1.49539
-1.18798
-0.94674
-0.768469
-0.639596
-5.10959
-5.84819
-6.30763
-6.48131
-6.38978
-6.07413
-5.59168
-5.00171
-4.36183
-3.72047
-3.10939
-2.55362
-2.06222
-1.64112
-1.29203
-1.01585
-0.805709
-0.6531
-0.543142
-4.99518
-5.75807
-6.23135
-6.40583
-6.30314
-5.96667
-5.45836
-4.84162
-4.17806
-3.51895
-2.89814
-2.342
-1.86024
-1.45784
-1.13368
-0.883941
-0.697516
-0.563039
-0.465171
-5.00255
-5.76046
-6.2202
-6.37168
-6.23929
-5.86947
-5.32892
-4.68429
-4.00012
-3.32913
-2.70574
-2.15631
-1.68947
-1.30797
-1.00738
-0.780025
-0.611864
-0.489685
-0.39734
-5.11906
-5.84403
-6.26844
-6.38026
-6.20663
-5.79825
-5.22486
-4.55595
-3.85725
-3.18071
-2.56148
-2.02322
-1.57303
-1.21101
-0.930395
-0.71963
-0.563125
-0.44422
-0.342095
-5.28279
-5.95448
-6.32369
-6.38509
-6.16742
-5.72471
-5.12593
-4.44147
-3.73574
-3.05817
-2.44488
-1.91589
-1.4781
-1.12906
-0.861286
-0.661165
-0.515741
-0.411146
-0.336678
-5.48139
-6.09589
-6.41979
-6.45197
-6.22106
-5.77956
-5.19085
-4.52112
-3.83008
-3.16352
-2.55774
-2.03082
-1.59096
-1.23665
-0.962755
-0.757526
-0.6133
-0.522824
-0.487734
-5.7004
-6.25761
-6.53355
-6.53173
-6.28232
-5.8362
-5.25258
-4.59321
-3.9137
-3.2567
-2.65735
-2.13298
-1.69248
-1.33546
-1.05877
-0.852802
-0.712847
-0.633255
-0.612013
-5.93375
-6.43984
-6.66884
-6.6331
-6.36488
-5.91316
-5.33312
-4.68236
-4.01276
-3.36406
-2.77034
-2.24827
-1.80748
-1.44869
-1.17071
-0.965359
-0.82964
-0.757692
-0.745509
-6.19429
-6.64739
-6.82705
-6.75676
-6.46874
-6.00934
-5.43008
-4.78504
-4.12288
-3.48084
-2.89203
-2.3725
-1.9325
-1.57375
-1.29669
-1.09396
-0.963798
-0.900008
-0.897898
-6.49753
-6.87682
-7.0051
-6.90009
-6.59038
-6.11995
-5.53763
-4.89479
-4.23753
-3.60085
-3.01697
-2.50119
-2.06425
-1.70851
-1.4358
-1.2391
-1.11777
-1.06535
-1.07687
-6.78737
-7.10432
-7.18969
-7.05203
-6.71899
-6.23434
-5.6456
-5.00236
-4.34861
-3.71729
-3.13978
-2.63043
-2.20024
-1.85193
-1.5885
-1.40284
-1.29555
-1.25978
-1.29034
-7.07355
-7.35767
-7.40419
-7.23021
-6.86772
-6.36213
-5.76108
-5.11297
-4.46011
-3.83344
-3.26342
-2.76317
-2.34372
-2.0078
-1.75944
-1.59097
-1.50432
-1.49201
-1.54844
-7.40249
-7.64095
-7.63775
-7.41738
-7.01652
-6.48278
-5.86474
-5.20964
-4.55799
-3.93842
-3.38012
-2.89461
-2.49264
-2.17663
-1.95157
-1.80874
-1.75163
-1.77176
-1.86304
-7.76817
-7.94098
-7.8759
-7.59785
-7.14948
-6.58174
-5.94435
-5.28295
-4.63572
-4.02827
-3.48843
-3.02545
-2.64973
-2.36304
-2.17144
-2.06457
-2.04789
-2.11154
-2.2489
-8.14329
-8.24919
-8.10988
-7.76122
-7.25668
-6.65128
-5.99492
-5.33069
-4.69358
-4.10537
-3.59254
-3.16144
-2.82219
-2.57565
-2.42922
-2.37021
-2.40668
-2.52702
-2.7241
-8.55353
-8.57413
-8.33536
-7.8997
-7.33152
-6.68761
-6.0157
-5.35489
-4.73592
-4.17589
-3.70027
-3.31181
-3.0206
-2.82643
-2.73841
-2.74078
-2.84502
-3.03739
-3.31047
-9.0224
-8.88826
-8.51989
-7.98584
-7.3532
-6.6768
-5.99865
-5.35245
-4.76362
-4.24377
-3.81826
-3.48542
-3.2559
-3.12823
-3.11394
-3.19324
-3.38228
-3.66474
-4.03352
-9.40542
-9.09646
-8.59358
-7.96687
-7.28308
-6.59233
-5.92678
-5.3138
-4.77277
-4.30934
-3.95024
-3.68862
-3.53669
-3.49172
-3.56865
-3.74285
-4.03697
-4.43202
-4.92251
-9.72183
-9.24054
-8.59612
-7.88392
-7.1646
-6.47794
-5.8421
-5.27805
-4.79917
-4.40528
-4.12637
-3.94978
-3.89033
-3.94409
-4.13052
-4.41912
-4.84122
-5.37527
-6.02001
-9.98362
-9.25432
-8.466
-7.69449
-6.97081
-6.31739
-5.73546
-5.24111
-4.8427
-4.53482
-4.35301
-4.27824
-4.32929
-4.50121
-4.81957
-5.24694
-5.82655
-6.53503
-7.38113
-9.95988
-8.99579
-8.12273
-7.35293
-6.67416
-6.09306
-5.595
-5.19505
-4.89829
-4.69513
-4.62928
-4.67495
-4.85674
-5.1692
-5.64653
-6.24402
-7.0221
-7.95829
-9.0848
-9.57452
-8.49863
-7.6333
-6.92988
-6.33895
-5.86005
-5.46711
-5.17851
-4.99825
-4.91385
-4.9797
-5.16334
-5.49715
-5.97627
-6.6469
-7.45713
-8.49218
-9.73583
-11.276
-8.7357
-7.71931
-6.97245
-6.40375
-5.94381
-5.59642
-5.33001
-5.17017
-5.12195
-5.17162
-5.38652
-5.72855
-6.24063
-6.92077
-7.83273
-8.91978
-10.305
-11.9904
-14.2044
-7.4358
-6.68972
-6.16523
-5.78625
-5.49006
-5.29574
-5.17181
-5.15366
-5.24942
-5.44597
-5.82602
-6.34815
-7.06989
-7.99675
-9.2196
-10.6836
-12.5736
-14.9341
-18.3696
-5.778
-5.46536
-5.23126
-5.07535
-4.96333
-4.93539
-4.9639
-5.09485
-5.34127
-5.69291
-6.25058
-6.9739
-7.94145
-9.17536
-10.811
-12.8124
-15.4718
-18.9288
-24.8381
-3.96335
-4.11901
-4.18896
-4.26425
-4.34392
-4.48709
-4.67076
-4.95056
-5.34548
-5.85095
-6.58917
-7.52727
-8.7755
-10.3902
-12.5838
-15.3785
-19.2701
-24.6096
-36.0546
-2.22006
-2.72739
-3.05782
-3.34868
-3.61596
-3.92707
-4.26061
-4.67902
-5.20666
-5.84772
-6.7492
-7.89291
-9.43711
-11.5056
-14.4476
-18.4356
-24.381
-33.1278
-57.953
-0.730068
-1.3527
-1.85621
-2.33065
-2.77399
-3.24486
-3.71533
-4.25157
-4.87745
-5.61
-6.623
-7.91333
-9.71617
-12.305
-16.3589
-22.7081
-34.0809
-55.0801
-130.113
)
;

boundaryField
{
    up
    {
        type            calculated;
        value           nonuniform List<scalar> 
84
(
-117.91
-63.8601
-39.1746
-26.674
-19.562
-15.04
-11.8931
-9.55579
-7.74575
-6.30482
-5.14377
-4.20363
-3.44015
-2.8214
-2.32065
-1.91503
-1.58534
-1.31587
-1.0939
-0.908752
-0.751866
-0.614454
-0.481267
-0.301191
-0.290625
-0.37049
-0.436994
-0.510959
-0.601225
-0.717486
-0.873095
-1.08581
-1.42193
-2.75046
-4.01526
-4.44685
-4.56181
-4.82394
-5.09953
-5.33491
-5.50469
-5.60343
-5.60371
-5.50567
-5.33639
-5.10126
-4.82589
-4.56351
-4.44756
-4.01888
-2.76458
-1.42482
-1.08748
-0.874299
-0.718399
-0.601952
-0.51157
-0.43755
-0.371118
-0.290998
-0.300957
-0.481287
-0.614472
-0.751881
-0.908764
-1.09391
-1.31588
-1.58535
-1.91503
-2.32065
-2.82138
-3.44014
-4.20362
-5.14377
-6.30483
-7.74578
-9.55583
-11.8931
-15.0401
-19.562
-26.674
-39.1746
-63.8601
-117.91
)
;
    }
    low
    {
        type            calculated;
        value           nonuniform List<scalar> 
84
(
-0.783782
-2.32109
-4.18208
-6.14511
-7.94201
-9.33386
-10.1927
-10.5355
-10.4453
-10.038
-9.64612
-9.19059
-8.62214
-8.15783
-7.75188
-7.34269
-6.9753
-6.67747
-6.36282
-6.00352
-5.69899
-5.43084
-5.16976
-4.93177
-4.70037
-4.55416
-4.55237
-4.71442
-4.9982
-5.39697
-5.87905
-6.36472
-6.91337
-7.54896
-8.23067
-9.00483
-9.87297
-10.6329
-11.2279
-11.7
-12.0444
-12.2877
-12.2878
-12.0445
-11.7001
-11.228
-10.633
-9.87309
-9.00498
-8.23062
-7.54904
-6.91329
-6.36467
-5.87901
-5.39694
-4.99816
-4.71441
-4.55237
-4.55418
-4.70041
-4.93191
-5.16978
-5.43088
-5.69902
-6.00354
-6.36283
-6.67748
-6.97531
-7.3427
-7.75187
-8.15781
-8.62212
-9.19054
-9.64607
-10.0379
-10.4452
-10.5355
-10.1927
-9.33391
-7.94206
-6.14517
-4.18212
-2.32112
-0.783789
)
;
    }
    left
    {
        type            calculated;
        value           nonuniform List<scalar> 
19
(
-0.716284
-1.32778
-1.84148
-2.33207
-2.79444
-3.28495
-3.77655
-4.33867
-4.99586
-5.7751
-6.85819
-8.24966
-10.2165
-13.0862
-17.6201
-24.8364
-37.9109
-62.3344
-122.293
)
;
    }
    right
    {
        type            calculated;
        value           nonuniform List<scalar> 
19
(
-0.716289
-1.32778
-1.84148
-2.33207
-2.79444
-3.28496
-3.77655
-4.33868
-4.99586
-5.77509
-6.85818
-8.24965
-10.2165
-13.0861
-17.6201
-24.8364
-37.9109
-62.3345
-122.293
)
;
    }
    frontAndBackPlanes
    {
        type            empty;
    }
}


// ************************************************************************* //
