/*--------------------------------*- C++ -*----------------------------------*\
  =========                 |
  \\      /  F ield         | OpenFOAM: The Open Source CFD Toolbox
   \\    /   O peration     | Website:  https://openfoam.org
    \\  /    A nd           | Version:  7
     \\/     M anipulation  |
\*---------------------------------------------------------------------------*/
FoamFile
{
    version     2.0;
    format      ascii;
    class       volScalarField;
    location    "0.3";
    object      gradTz;
}
// * * * * * * * * * * * * * * * * * * * * * * * * * * * * * * * * * * * * * //

dimensions      [0 -1 0 1 0 0 0];

internalField   nonuniform List<scalar> 
1596
(
-1.61371e-16
-7.86199e-17
7.9696e-17
1.56169e-18
-1.52308e-16
0
-7.14114e-17
-7.04117e-17
-4.42356e-18
-3.69586e-17
-3.55116e-19
-3.67241e-17
1.61318e-16
-3.62754e-17
1.69597e-16
1.46275e-16
8.69851e-17
1.09801e-16
0
1.61423e-16
0
2.28606e-16
-1.46303e-18
-7.04818e-17
6.99177e-17
1.43486e-16
4.19385e-18
6.80975e-17
-3.27641e-17
6.53388e-17
-1.03308e-18
-9.05652e-17
-5.65092e-17
-1.3714e-16
-1.33719e-16
-1.21605e-16
6.9184e-17
0
-7.9401e-17
0
-1.49661e-16
2.32499e-18
1.38168e-16
-3.83415e-17
2.717e-18
-9.66994e-19
-1.00222e-18
-1.0806e-18
2.51246e-17
0
4.69863e-17
1.33437e-16
-1.31375e-17
1.05361e-17
2.47995e-17
3.86101e-17
0
1.24419e-16
-3.7759e-17
3.76211e-17
0
-3.62982e-17
-3.74113e-17
6.4445e-17
-5.68111e-17
0
0
-1.97454e-17
1.31099e-17
0
-3.93948e-17
-5.03925e-17
3.47577e-17
-3.54741e-17
-1.82673e-18
0
2.16999e-17
5.83609e-17
-5.31585e-17
0
-1.58425e-17
-4.80928e-17
0
7.22364e-17
-7.22235e-18
-6.53661e-18
-5.73298e-18
3.77858e-17
4.62046e-17
4.72557e-18
1.32474e-18
-3.75853e-17
1.89699e-18
1.7386e-17
-7.4512e-18
-5.63511e-18
-8.01532e-17
7.6804e-17
-6.77289e-17
-1.29636e-19
-6.07047e-17
1.71577e-18
-1.72147e-18
-4.84442e-17
0
-4.71161e-18
-4.46344e-17
-4.17584e-17
3.418e-17
3.4921e-17
-4.77964e-19
-2.09283e-17
-1.76344e-17
1.3461e-17
4.70936e-17
-8.18112e-17
9.26788e-17
5.21934e-17
0
4.65282e-17
2.76368e-17
-1.33442e-17
6.15129e-17
-1.16096e-17
-4.88027e-17
4.5903e-19
-2.91333e-17
-3.43469e-17
-2.70463e-17
2.28786e-17
2.11125e-17
-2.81148e-19
-5.62888e-18
4.24265e-18
1.29749e-16
-1.54429e-16
0
0
-5.83002e-17
0
0
0
4.11095e-17
0
0
2.66665e-17
1.03704e-18
6.91413e-18
-1.99711e-17
0
1.06309e-17
4.11357e-18
0
-8.47205e-17
1.63432e-16
0
0
6.00411e-17
0
-2.34162e-17
2.33925e-17
-4.18436e-17
1.75556e-17
-1.7684e-17
0
2.55568e-17
2.43784e-17
0
-1.40853e-17
-1.08644e-17
-3.58801e-18
2.01185e-16
-9.46098e-17
0
-6.92858e-17
6.85104e-17
0
5.22772e-17
0
0
0
1.6419e-17
-1.64978e-17
0
-1.97076e-17
-5.68331e-18
0
1.31513e-18
8.09179e-18
0
-5.10634e-17
0
0
6.94855e-17
-1.3041e-16
6.08124e-18
2.37915e-18
-2.19048e-17
2.27108e-18
7.07227e-19
-1.73511e-17
-2.82594e-17
0
2.13853e-17
-4.21915e-18
4.28247e-18
1.09702e-17
-6.33191e-18
-2.93935e-18
4.33044e-17
-4.14081e-18
4.15453e-17
1.44051e-16
-7.00184e-18
-6.12963e-17
0
0
0
3.57705e-17
1.45498e-17
5.26624e-17
-1.27254e-17
-2.10027e-17
-1.27148e-17
-6.82961e-18
3.03343e-18
-6.57496e-18
2.8015e-18
-4.73878e-17
4.64048e-17
-8.62498e-17
-1.42306e-16
1.3261e-16
5.37264e-17
-1.00004e-16
8.76975e-17
-7.67877e-17
1.99852e-17
1.56144e-17
-1.41625e-17
9.52019e-18
-8.45434e-18
2.46042e-17
0
-1.84554e-18
1.35407e-17
-2.00803e-18
-3.04336e-16
1.40524e-16
1.19628e-19
-3.20824e-17
3.67788e-18
5.22439e-17
-9.96467e-17
-4.1868e-17
3.62693e-17
-3.12422e-17
-2.69808e-17
0
-3.11027e-17
-9.28748e-18
-1.67722e-17
-9.98039e-18
7.86827e-19
-8.64858e-18
1.5706e-19
4.9741e-17
-4.47002e-17
1.01346e-19
-3.50928e-17
-8.9043e-17
8.43174e-17
2.85742e-19
4.08003e-17
-3.53129e-17
6.00597e-17
1.42531e-17
1.19129e-17
3.73031e-17
0
3.12742e-17
1.437e-17
0
4.77178e-18
1.33772e-19
0
4.33644e-17
3.48323e-17
-7.20174e-17
8.63265e-17
-1.30772e-16
9.35526e-17
3.62993e-17
-4.84763e-18
-5.93852e-17
1.11882e-17
-1.1133e-17
-3.44155e-17
1.38795e-17
-6.83305e-18
-1.45245e-17
6.36602e-18
-3.93786e-18
1.50254e-18
-4.63396e-17
1.59423e-16
-1.18571e-16
6.57309e-17
0
0
-1.88244e-17
3.98262e-17
-2.93019e-17
5.53672e-17
0
0
2.33948e-17
-2.05736e-17
-1.48537e-17
4.67158e-18
-4.94771e-18
2.58708e-18
0
3.44311e-18
4.33322e-17
-3.56147e-17
-3.15158e-17
-5.19385e-17
-1.76809e-17
2.35671e-17
0
-2.76488e-17
-2.29509e-17
2.07949e-17
-1.72539e-17
1.42008e-17
0
5.64081e-18
1.12955e-17
0
0
0
-3.28836e-18
7.06397e-17
2.76997e-17
-9.48838e-17
2.66675e-17
2.31626e-17
0
0
2.62109e-17
-1.3623e-17
-2.01132e-17
1.66876e-17
-1.37333e-17
0
-3.79043e-18
3.32047e-18
0
-2.76876e-18
-9.62838e-19
-3.75035e-17
1.10057e-16
-1.34556e-16
-5.49444e-17
2.86496e-17
-2.20126e-17
1.87885e-17
0
-1.32914e-17
1.12669e-17
0
0
5.51487e-18
-5.52123e-18
1.69923e-18
-2.18665e-18
4.01052e-18
4.47334e-19
7.13863e-19
1.91258e-17
-1.73916e-17
9.02694e-17
-5.83782e-17
-2.41743e-17
2.86416e-18
3.84352e-17
1.50033e-17
1.27179e-17
0
7.75111e-18
-7.20286e-18
5.83359e-18
-5.01384e-18
6.65052e-18
-1.15224e-17
-3.12162e-18
2.73111e-18
7.35381e-19
5.14605e-17
-5.20312e-17
0
4.95505e-17
-2.5975e-17
-1.99247e-17
1.43197e-17
-4.54404e-17
0
-7.78433e-19
-8.82662e-18
-6.53794e-18
9.75332e-18
-7.10239e-19
-6.42761e-18
4.80727e-18
0
1.77952e-18
-7.14049e-19
8.723e-17
-1.55843e-17
6.73075e-17
-5.27868e-17
2.99756e-17
3.92779e-18
-3.48535e-17
-1.23582e-17
2.2462e-17
-8.78753e-19
-1.38069e-17
1.18101e-17
-5.22584e-18
-7.07381e-18
0
0
0
-1.79672e-18
6.7127e-20
-7.80238e-17
7.61072e-17
5.12158e-20
1.19364e-17
1.04226e-17
-2.57104e-17
3.06632e-17
-2.56807e-17
2.22338e-17
-7.65181e-18
1.46223e-17
5.33881e-18
-2.29518e-18
1.22302e-19
-8.73944e-19
-1.53772e-18
0
0
0
0
0
3.81259e-17
-1.80192e-17
-5.86315e-17
0
0
-7.44183e-18
-1.22914e-17
1.045e-17
0
-6.73322e-18
5.33046e-18
-1.81413e-17
2.09598e-17
-6.9954e-18
7.46047e-18
8.24692e-19
0
-1.51216e-17
1.53077e-17
0
-1.26342e-17
1.28388e-17
2.16657e-17
0
7.51289e-18
1.03229e-17
-4.57258e-17
0
-7.38736e-18
5.87152e-18
4.31799e-18
-3.26128e-18
4.81818e-18
0
-1.80768e-18
0
-7.77476e-18
-7.79773e-18
4.62046e-19
1.29813e-17
-3.532e-17
0
-9.35834e-18
0
2.75055e-17
1.13486e-17
0
2.92752e-17
-3.11324e-17
3.0428e-18
-7.27624e-18
1.89754e-18
9.22445e-18
3.55882e-18
-2.81795e-18
0
1.61286e-17
-1.43428e-17
1.78335e-17
2.17973e-17
0
1.90969e-17
-1.81583e-17
-1.4706e-17
2.26518e-17
-3.40626e-17
-1.70805e-17
0
0
3.96325e-18
0
0
1.16397e-18
0
-7.12577e-17
5.46489e-17
0
7.72316e-19
-1.27758e-17
-7.12625e-19
1.15763e-17
8.55682e-18
-1.04897e-17
-2.77383e-17
4.49784e-17
-1.21271e-17
0
-6.08278e-18
0
0
0
-4.48647e-18
3.58079e-18
-2.00893e-17
1.89605e-17
5.12771e-17
-5.03244e-17
1.56101e-17
8.19273e-19
-1.1765e-17
1.03067e-17
1.7819e-17
1.39088e-17
-2.75286e-17
0
1.49466e-17
2.36521e-18
-6.96178e-18
-1.56377e-17
1.29366e-17
-2.164e-18
4.05896e-18
-6.77271e-17
9.89025e-17
-9.8261e-17
1.75102e-17
1.50975e-17
-1.44588e-17
1.22546e-17
-9.92848e-18
0
-8.66149e-18
1.42336e-17
6.18586e-18
1.01068e-17
1.31636e-17
-1.98056e-17
-2.56949e-19
0
-1.62656e-18
5.41985e-19
-7.3232e-17
-2.20495e-17
-3.91778e-17
2.07289e-17
-3.45783e-17
3.0474e-17
-1.82788e-17
1.57552e-17
-1.00384e-18
-1.00585e-18
-1.48078e-17
8.65848e-18
-5.11703e-18
1.54755e-17
-1.66131e-17
2.18526e-18
1.7921e-18
0
-9.32693e-19
7.91798e-17
-2.37604e-17
0
0
-3.56347e-17
6.95981e-17
-1.64096e-17
-3.22377e-18
2.67987e-17
-6.83489e-19
0
0
-6.48641e-18
0
-1.4359e-17
3.51173e-17
-2.44625e-17
0
3.65951e-19
2.71733e-17
5.1093e-17
0
-2.20886e-17
-1.8339e-17
-1.64916e-17
-1.70366e-17
7.18078e-18
-2.0196e-17
-1.12204e-17
0
0
8.42603e-18
0
0
-1.92664e-17
3.17079e-17
0
0
1.86459e-16
-2.15332e-17
-1.13955e-16
-6.30247e-17
8.54068e-17
2.75885e-17
1.65191e-17
0
-6.18971e-18
6.08897e-18
1.50331e-17
-4.87353e-18
-7.39391e-18
1.15e-17
-1.22324e-17
-3.841e-18
0
0
0
1.49318e-17
-1.18834e-16
1.16585e-16
-1.1279e-17
-8.82121e-17
1.38654e-16
-6.99255e-17
0
0
3.84607e-17
-3.17e-17
0
-9.76657e-18
1.69623e-17
-1.94493e-18
4.99072e-18
1.53175e-18
1.58143e-20
3.36322e-19
0
0
0
9.92131e-17
-6.64867e-17
7.09621e-17
-1.10888e-16
3.17429e-17
0
-1.16405e-17
1.87888e-17
-1.92032e-17
-3.81857e-18
-9.59274e-20
-2.64492e-18
-3.99389e-19
-2.10622e-18
-5.88184e-19
-3.22617e-19
1.25263e-16
-2.23993e-16
1.06463e-16
0
2.92201e-17
-3.97852e-17
4.0399e-17
-3.20565e-17
0
-1.59019e-17
2.22978e-17
0
0
-7.24254e-20
0
-2.6979e-18
1.84873e-18
3.48317e-19
5.13333e-19
1.21037e-16
0
-4.89249e-17
5.466e-17
-3.47365e-17
7.60849e-17
-3.60839e-17
-2.85774e-17
2.88759e-17
-2.95616e-18
0
0
1.91878e-18
-3.26971e-18
-2.29141e-18
4.35127e-18
-9.42018e-19
4.85039e-19
0
6.87357e-17
5.42022e-17
-1.59297e-18
-5.20711e-17
-5.30634e-18
-3.8553e-17
3.99341e-18
3.25922e-17
-1.69677e-18
3.01167e-18
0
0
-1.96566e-18
0
2.31908e-18
-2.48086e-18
0
3.18033e-19
-8.83228e-20
-3.64868e-17
-2.71796e-17
2.54458e-17
-2.93933e-18
-1.32453e-18
3.60062e-18
0
-9.60379e-19
1.44963e-17
-1.22083e-17
0
4.18455e-18
-8.12326e-19
-3.70393e-18
-3.39513e-19
-2.65067e-19
0
-2.48468e-19
0
1.49585e-17
-2.85086e-17
-4.42069e-19
1.23434e-17
1.14151e-17
-1.1347e-17
-8.12766e-18
9.20328e-18
-3.18941e-18
2.49283e-18
-2.44485e-18
2.52025e-18
0
6.48654e-21
-2.49885e-19
8.99375e-19
-3.08077e-21
0
0
1.4959e-17
-1.4903e-17
-1.22788e-17
1.08732e-17
2.01704e-17
-2.02894e-17
-4.06396e-18
4.07353e-18
-3.21632e-18
3.25011e-18
-2.44493e-18
4.6204e-18
-1.29583e-18
-9.37141e-19
-2.88608e-19
9.54794e-20
2.28489e-19
6.04709e-20
-4.53553e-20
0
-3.55841e-18
2.1401e-17
-2.31866e-17
2.0146e-17
-1.78501e-17
0
1.44473e-17
-1.29171e-17
0
4.87421e-18
-6.1754e-18
-3.53442e-18
3.7043e-18
6.84895e-19
0
0
-2.48499e-19
9.03368e-20
5.95516e-17
-1.09933e-16
1.12751e-16
-9.95498e-17
3.92362e-17
-3.37631e-17
3.20209e-17
3.84838e-18
-1.44147e-17
1.28845e-17
0
-9.47398e-18
8.62289e-18
-1.6506e-18
-6.70854e-19
1.06243e-18
7.82059e-19
2.41245e-19
-8.72859e-20
1.36515e-16
0
-5.53263e-17
4.29848e-17
5.24529e-18
-4.07224e-17
7.24784e-17
-6.47359e-17
2.54807e-17
-1.10277e-17
1.12878e-17
2.24635e-18
3.89738e-18
1.6077e-18
-1.34633e-18
-1.72624e-19
-1.69653e-18
0
1.75126e-19
1.09991e-16
-1.23808e-16
0
1.15238e-17
5.02513e-17
-4.92848e-17
8.50844e-18
7.5971e-18
3.32611e-18
5.93074e-18
0
0
-6.78445e-18
1.27883e-17
-4.68602e-18
-1.68893e-18
1.8491e-18
1.48663e-19
-3.33736e-19
9.35814e-18
1.08752e-16
-1.27012e-17
-8.76878e-17
7.69559e-17
9.30569e-18
-8.32706e-18
-7.42011e-18
2.47785e-17
-3.07415e-17
1.87937e-17
-1.9208e-17
3.06299e-18
-3.83409e-18
7.11938e-18
-4.73715e-18
0
0
3.48411e-19
0
2.73648e-17
-8.31583e-17
9.4972e-17
-7.80665e-17
7.78805e-17
0
2.77342e-17
-2.78613e-17
-2.13314e-17
3.17221e-17
0
1.34362e-17
-1.69735e-17
-2.51982e-18
0
-2.88708e-19
-5.88926e-19
-2.63163e-21
-2.58354e-16
1.2371e-16
0
-8.53902e-17
8.53816e-17
5.33431e-17
-3.50884e-17
1.47419e-17
0
-6.77565e-19
5.20243e-18
-4.86658e-18
-7.38366e-18
1.14821e-17
-1.22093e-17
0
2.7348e-18
-6.32715e-19
-3.64227e-19
1.59395e-16
-1.57205e-16
0
2.21015e-17
2.03197e-17
-1.87026e-17
0
-1.54497e-17
-1.35763e-17
0
-4.93427e-19
0
8.42916e-18
0
0
3.97024e-18
1.50124e-17
-1.93693e-17
0
2.42193e-20
2.37718e-17
-2.21652e-17
1.85208e-17
-9.39366e-17
3.61929e-17
0
3.22595e-18
9.17004e-18
0
-9.65022e-18
2.88164e-17
-3.02733e-17
5.24718e-18
0
-5.16606e-19
0
0
0
2.27659e-20
0
2.04861e-17
0
-3.27211e-17
3.32413e-17
0
1.24093e-17
-1.01486e-17
3.72431e-17
-1.80574e-17
6.73602e-18
-1.10337e-17
1.07357e-17
-1.66318e-17
-2.68236e-18
0
-1.89086e-18
0
6.22194e-17
-1.05153e-16
0
-1.75359e-17
1.59656e-17
0
0
-2.27569e-17
0
-8.66738e-18
-1.42438e-17
-6.19103e-18
1.01161e-17
0
5.74518e-18
0
0
4.1698e-18
-4.65891e-18
0
9.17527e-17
-7.35372e-17
1.62342e-17
-1.47842e-17
-6.23283e-18
1.81037e-17
2.07702e-17
-2.60715e-17
8.43951e-18
4.45468e-19
-8.39873e-18
3.46291e-17
-1.08037e-17
-2.6041e-17
9.11532e-18
-2.4615e-18
1.46522e-18
-4.65676e-19
-1.47045e-16
5.46428e-17
0
0
6.39144e-18
-6.49938e-18
4.90581e-18
3.44422e-18
2.37053e-17
1.24984e-17
-1.25299e-17
-3.6677e-19
-7.46157e-18
6.0877e-18
0
3.21154e-18
2.25614e-18
1.26118e-18
4.20905e-19
0
4.77637e-17
-4.50646e-17
1.45587e-17
1.54889e-17
-3.00913e-18
-1.00152e-17
-8.74809e-18
-2.97788e-17
1.23787e-17
-8.03184e-18
1.06507e-17
6.97749e-18
-9.10748e-18
9.66703e-18
6.46499e-18
-8.29725e-18
-1.16488e-18
0
-8.30334e-18
-3.78304e-17
1.37251e-17
1.29846e-17
-4.57512e-17
3.30569e-17
1.71635e-17
-1.75437e-17
1.3956e-17
-1.1748e-17
0
0
-1.07914e-17
1.95707e-17
-8.75859e-18
8.5519e-18
-9.32494e-18
1.58589e-18
-2.8203e-18
1.56619e-17
1.47943e-17
-1.36717e-17
1.1122e-17
-1.27107e-17
-2.01938e-17
0
0
0
0
0
0
5.57836e-18
-1.51835e-17
1.60582e-17
-5.43687e-18
6.69181e-18
3.21873e-18
-2.73652e-18
3.23062e-17
-5.64052e-17
7.06564e-17
-3.43908e-17
4.74001e-17
-3.63188e-17
6.85257e-17
-3.934e-17
-2.23187e-17
2.2831e-17
0
6.72894e-18
-5.44977e-18
1.39267e-17
-4.45159e-18
-6.02891e-18
-1.32175e-17
9.75351e-19
2.33934e-18
5.01985e-17
1.47422e-17
0
-2.37994e-17
-1.94481e-17
4.50674e-17
5.12748e-18
-1.92141e-17
1.162e-17
-8.62792e-18
0
-5.32672e-18
0
-4.59819e-18
3.79097e-18
-3.48842e-18
-1.16393e-18
8.37708e-19
0
7.0223e-17
-1.55841e-17
6.72786e-17
-5.27682e-17
-1.09382e-17
4.45893e-17
-2.67331e-17
1.22004e-18
1.02583e-18
-8.47195e-18
8.22847e-18
0
0
5.5285e-18
-2.10614e-18
1.40608e-18
4.20699e-18
-1.46278e-18
0
1.37146e-20
0
-1.48019e-17
8.89641e-17
-6.04809e-17
-6.68715e-17
3.67598e-17
-4.04002e-17
3.78079e-17
1.94805e-17
-1.52364e-17
6.33622e-18
-5.73161e-18
9.37892e-19
9.96925e-18
4.46546e-19
-3.95262e-18
3.91169e-18
-7.95718e-19
1.7175e-16
-5.49788e-17
2.80335e-17
-8.60346e-17
2.41742e-17
-3.90498e-17
2.07395e-17
0
0
-7.9593e-19
-1.05629e-18
-3.10601e-19
0
-8.5661e-18
-6.6506e-18
4.96739e-18
-3.66627e-19
6.15391e-19
1.55501e-18
0
-5.50951e-17
9.52601e-17
2.25747e-17
-7.95331e-17
2.20125e-17
-3.49835e-17
5.10819e-18
2.92107e-17
0
0
5.53375e-19
6.82954e-18
0
-6.34464e-18
-2.9574e-18
4.33285e-19
-1.58871e-18
-1.77647e-18
0
-3.51874e-17
6.79672e-18
6.43552e-17
5.00996e-17
-9.26688e-17
4.26058e-17
-3.12065e-17
1.65401e-17
-2.40326e-17
0
0
0
-1.1159e-17
3.21349e-18
-3.80901e-18
0
-2.39794e-19
1.20683e-18
-1.29583e-16
1.23319e-16
1.35468e-16
-1.64738e-16
7.95443e-17
-7.52672e-17
0
3.27182e-17
-4.51918e-17
2.67399e-17
-2.14571e-17
1.79497e-17
1.48983e-17
1.15409e-17
9.23063e-18
0
0
0
0
1.42361e-16
-8.33966e-17
0
0
-2.87686e-17
7.19964e-17
-4.62515e-17
-3.44782e-17
3.40895e-17
2.64112e-17
4.52397e-17
-1.86246e-17
7.93904e-18
6.17209e-18
4.64755e-18
3.75686e-18
6.12669e-18
-3.02746e-19
3.08374e-19
-1.44723e-16
1.33988e-16
7.33682e-17
-3.79037e-17
8.63328e-17
-5.55822e-17
-4.52909e-17
-3.91013e-17
0
-5.50696e-17
2.37278e-18
2.08839e-17
-1.68094e-17
-1.38795e-17
-5.14136e-18
-5.51787e-18
-4.39958e-18
0
0
-4.97845e-17
0
3.96182e-17
-7.44282e-20
0
0
4.6719e-17
4.0347e-17
0
2.96672e-17
0
-3.17467e-17
-8.94742e-18
1.6009e-17
0
1.03765e-17
-1.47291e-18
1.50257e-18
0
1.05441e-16
0
7.68092e-17
-1.43649e-16
1.29809e-16
1.07734e-16
-2.92821e-18
0
2.68143e-18
3.38976e-17
0
-3.50397e-17
3.9881e-17
-3.55983e-17
-7.79338e-18
-8.36164e-18
-2.43336e-18
-4.29317e-19
-1.48772e-18
-9.90934e-17
1.43029e-16
-4.12128e-17
-1.09556e-16
-6.44809e-17
-5.67863e-17
-9.98078e-17
-4.11824e-17
2.8739e-18
1.56437e-17
-1.56144e-17
5.07659e-17
-2.24513e-17
4.56596e-17
-8.55926e-18
0
9.56827e-18
-5.58186e-18
1.51154e-18
2.16845e-16
-4.23805e-18
-1.69882e-16
1.44052e-16
-1.31e-16
1.16216e-16
-3.23565e-18
-4.56919e-17
4.05065e-17
1.65317e-17
-1.97764e-18
-4.11338e-17
1.20999e-17
1.23147e-17
-3.82526e-18
3.86889e-18
-9.9104e-18
-8.58182e-19
-2.23772e-18
1.06452e-16
4.58459e-17
8.17975e-17
-7.30801e-17
-6.18536e-17
2.82327e-18
-4.91551e-17
1.19451e-16
3.55826e-18
5.68458e-17
3.35701e-17
-2.98834e-17
0
-2.13853e-17
0
0
1.33016e-17
5.91681e-18
2.61775e-18
1.0045e-16
0
8.08624e-17
7.26084e-17
-6.55263e-17
5.83612e-17
0
-4.69165e-17
-6.5535e-17
-5.79859e-17
-3.38672e-17
3.02213e-17
0
0
0
0
-1.24643e-17
-9.01347e-18
0
-1.96838e-16
0
-3.49377e-18
-3.08535e-18
9.94698e-17
-5.73502e-17
-2.65745e-17
-2.66592e-17
6.61701e-17
0
1.75555e-17
-1.87766e-18
1.5479e-17
0
0
2.02553e-17
-1.50313e-18
1.08195e-17
-4.01634e-18
1.38772e-16
4.07323e-17
-4.03118e-17
-3.62208e-17
-1.28138e-16
8.91077e-17
1.0886e-16
-2.51268e-18
-4.49037e-17
4.40291e-17
9.32209e-18
-4.70059e-17
-3.88589e-17
-2.30709e-17
-2.4351e-17
-2.33416e-17
1.89939e-17
-8.99838e-19
4.11358e-18
-4.28418e-17
1.9705e-17
-9.53331e-17
1.66703e-17
-1.66096e-17
0
-5.39264e-17
-3.2298e-18
-4.99508e-17
3.66645e-18
4.88026e-17
3.64657e-17
-8.86409e-18
4.18315e-18
2.31823e-17
0
-3.92786e-17
-1.42663e-17
-2.97286e-19
8.65812e-17
-2.39794e-18
1.49822e-16
-7.19724e-17
1.29636e-19
1.9434e-18
5.86512e-17
-4.01391e-18
4.84441e-17
-4.53844e-17
-4.26346e-17
0
4.17583e-17
3.36574e-17
4.61586e-19
-6.69981e-19
2.11304e-17
1.45018e-17
0
-6.16527e-17
0
-1.54756e-17
6.84588e-17
8.7714e-19
1.58637e-17
-5.67147e-17
5.37792e-17
5.62204e-17
5.38088e-17
5.16231e-17
0
-4.05675e-17
0
2.11929e-18
-2.20107e-18
0
-2.08095e-19
1.01995e-17
4.23769e-17
1.96922e-18
-3.45399e-17
1.06062e-16
-3.41969e-17
0
0
-6.24151e-17
-5.44719e-17
-5.21287e-17
-9.39101e-17
-1.31099e-17
0
0
0
-4.29136e-18
4.54134e-18
2.89143e-17
-1.03543e-17
2.03033e-18
0
-7.34743e-17
-6.78938e-17
7.07034e-17
-7.01252e-17
-1.00729e-16
1.24364e-16
3.41458e-17
0
5.50579e-17
6.17644e-17
-1.33365e-17
7.22218e-17
-1.18123e-17
1.22937e-17
4.7613e-17
-2.74759e-17
0
-8.10677e-17
0
-7.79131e-17
7.64704e-17
0
1.39259e-16
6.56413e-17
-1.37156e-16
1.09001e-16
-7.48751e-19
-3.30997e-17
-5.98006e-17
0
8.16604e-17
-1.3714e-16
1.47093e-16
-1.87431e-16
0
0
8.06639e-17
-4.68259e-19
-1.15421e-18
-1.53714e-16
1.54879e-16
-7.50436e-17
7.47377e-17
7.36492e-17
-6.56422e-17
0
0
1.22312e-16
-1.24419e-16
-1.3331e-16
1.32063e-16
-1.28585e-16
1.39022e-16
-2.17718e-16
0
)
;

boundaryField
{
    up
    {
        type            calculated;
        value           nonuniform List<scalar> 
84
(
0
0
0
0
-7.4512e-18
1.3461e-17
-5.62888e-18
4.11357e-18
-3.58801e-18
0
-2.93935e-18
2.8015e-18
-2.00803e-18
1.5706e-19
1.33772e-19
1.50254e-18
0
0
-9.62838e-19
7.13863e-19
7.35381e-19
-7.14049e-19
6.7127e-20
0
2.95024e-19
1.30477e-19
-2.69511e-18
0
3.58079e-18
4.22009e-18
5.41985e-19
-9.32693e-19
3.65951e-19
0
-1.80021e-19
3.49106e-19
-3.22705e-19
5.12895e-19
0
-8.82496e-20
0
0
-4.53884e-20
9.03368e-20
-8.72859e-20
1.75126e-19
-3.33736e-19
3.48411e-19
-2.63163e-21
-3.64227e-19
0
0
0
-4.65891e-18
-6.26902e-19
4.20905e-19
0
-2.8203e-18
-2.73652e-18
2.04535e-18
0
0
-7.95718e-19
1.55501e-18
-1.77647e-18
1.20683e-18
0
3.08374e-19
0
0
-1.48772e-18
1.51154e-18
-2.23772e-18
2.61775e-18
0
-4.01634e-18
4.11358e-18
-2.97286e-19
0
1.01995e-17
-1.03543e-17
0
0
0
)
;
    }
    low
    {
        type            calculated;
        value           nonuniform List<scalar> 
84
(
-1.61472e-16
1.61423e-16
-7.92181e-17
1.24568e-16
2.18011e-17
-5.66509e-18
4.7346e-17
4.48427e-18
0
2.01464e-16
-5.10634e-17
4.31583e-17
-4.73878e-17
-3.04324e-16
4.9741e-17
0
-4.63396e-17
3.44311e-18
-3.28836e-18
-3.75035e-17
1.91258e-17
5.14605e-17
8.69407e-17
-7.80238e-17
0
-1.51216e-17
-7.77476e-18
0
-7.12577e-17
-2.00893e-17
-6.75319e-17
-7.30728e-17
7.90667e-17
2.71733e-17
1.86453e-16
1.49318e-17
0
1.25263e-16
1.21268e-16
6.88648e-17
-3.65566e-17
1.49585e-17
1.4959e-17
0
5.95516e-17
1.36746e-16
1.09991e-16
9.50473e-18
0
-2.58348e-16
1.59395e-16
2.42193e-20
2.27659e-20
6.22194e-17
0
-1.46747e-16
0
-8.30334e-18
1.56619e-17
3.21317e-17
4.98902e-17
6.99336e-17
1.37146e-20
1.71505e-16
0
0
-1.29583e-16
1.42229e-16
-1.44631e-16
-4.97845e-17
1.0543e-16
-9.90934e-17
2.17138e-16
1.06665e-16
1.0045e-16
-1.96838e-16
1.3853e-16
-4.25895e-17
8.65812e-17
-6.15514e-17
4.23769e-17
2.21329e-18
-8.10677e-17
8.07142e-17
)
;
    }
    left
    {
        type            calculated;
        value           nonuniform List<scalar> 
19
(
-1.61371e-16
-7.86753e-17
7.9696e-17
1.56035e-18
-1.52345e-16
0
-7.14114e-17
-7.04117e-17
-4.64868e-18
-3.69586e-17
-3.55116e-19
-3.67241e-17
1.62959e-16
-3.62754e-17
1.69597e-16
1.46275e-16
8.69851e-17
1.27534e-16
0
)
;
    }
    right
    {
        type            calculated;
        value           nonuniform List<scalar> 
19
(
8.06639e-17
-4.1288e-19
-1.15421e-18
-1.53713e-16
1.54916e-16
-7.50436e-17
7.47377e-17
7.36492e-17
-6.54171e-17
0
0
1.23476e-16
-1.2606e-16
-1.3331e-16
1.32063e-16
-1.28585e-16
1.39022e-16
-2.3545e-16
0
)
;
    }
    frontAndBackPlanes
    {
        type            empty;
    }
}


// ************************************************************************* //
