/*--------------------------------*- C++ -*----------------------------------*\
  =========                 |
  \\      /  F ield         | OpenFOAM: The Open Source CFD Toolbox
   \\    /   O peration     | Website:  https://openfoam.org
    \\  /    A nd           | Version:  7
     \\/     M anipulation  |
\*---------------------------------------------------------------------------*/
FoamFile
{
    version     2.0;
    format      ascii;
    class       volScalarField;
    location    "0.28";
    object      gradTz;
}
// * * * * * * * * * * * * * * * * * * * * * * * * * * * * * * * * * * * * * //

dimensions      [0 -1 0 1 0 0 0];

internalField   nonuniform List<scalar> 
1596
(
-4.84109e-16
-2.35695e-16
2.39104e-16
4.84914e-18
-4.5648e-16
0
-2.13741e-16
-2.10754e-16
-1.34803e-17
-1.10755e-16
-1.0471e-18
-1.101e-16
4.83954e-16
-1.08804e-16
5.08594e-16
4.38731e-16
2.6092e-16
3.29412e-16
0
4.84075e-16
0
6.84394e-16
-4.50556e-18
-2.10559e-16
2.08823e-16
4.29211e-16
1.2801e-17
2.03579e-16
-9.80072e-17
1.9549e-16
-3.0453e-18
-2.71044e-16
-1.69193e-16
-4.11239e-16
-4.0106e-16
-3.64778e-16
2.07568e-16
0
-2.37839e-16
0
-4.47484e-16
7.15856e-18
4.12102e-16
-1.1486e-16
8.39224e-18
-2.87701e-18
-2.95997e-18
-3.17677e-18
7.47544e-17
0
1.40614e-16
3.9916e-16
-3.93153e-17
3.15733e-17
7.42945e-17
1.15807e-16
0
3.73027e-16
-1.12822e-16
1.1241e-16
0
-1.08343e-16
-1.11835e-16
1.9181e-16
-1.68484e-16
0
0
-5.93125e-17
3.90148e-17
0
-1.17741e-16
-1.50397e-16
1.03857e-16
-1.06285e-16
-5.47144e-18
0
6.50996e-17
1.74381e-16
-1.58276e-16
0
-4.70067e-17
-1.42835e-16
0
2.14154e-16
-2.13766e-17
-1.93512e-17
-1.75796e-17
1.11811e-16
1.36993e-16
1.40686e-17
4.31418e-18
-1.12303e-16
5.66472e-18
5.19736e-17
-2.23094e-17
-1.69053e-17
-2.39431e-16
2.28812e-16
-2.01021e-16
-3.97071e-19
-1.79293e-16
5.06321e-18
-5.08002e-18
-1.42543e-16
0
-1.4501e-17
-1.32129e-16
-1.23791e-16
1.01053e-16
1.03876e-16
-1.42022e-18
-6.22649e-17
-5.27161e-17
4.02679e-17
1.41281e-16
-2.44186e-16
2.75605e-16
1.54846e-16
0
1.37507e-16
8.13684e-17
-3.92509e-17
1.80922e-16
-3.40855e-17
-1.4363e-16
1.33263e-18
-8.55127e-17
-1.01542e-16
-7.97331e-17
6.7612e-17
6.2813e-17
-8.37407e-19
-1.68226e-17
1.31815e-17
3.87497e-16
-4.5927e-16
0
0
-1.715e-16
0
0
0
1.1991e-16
0
0
7.8337e-17
2.99915e-18
2.07128e-17
-5.9055e-17
0
3.14342e-17
1.22073e-17
0
-2.52388e-16
4.86426e-16
0
0
1.76621e-16
0
-6.83372e-17
6.82681e-17
-1.22051e-16
5.10672e-17
-5.14407e-17
0
7.4318e-17
7.14715e-17
0
-4.12796e-17
-3.21227e-17
-1.06543e-17
6.02607e-16
-2.82896e-16
0
-2.04735e-16
2.02443e-16
0
1.52801e-16
0
0
0
4.75319e-17
-4.77598e-17
0
-5.73446e-17
-1.64903e-17
0
4.09161e-18
2.3644e-17
0
-1.52951e-16
0
0
2.05271e-16
-3.84431e-16
1.86093e-17
7.21979e-18
-6.36095e-17
6.78348e-18
2.23557e-18
-5.00879e-17
-8.11986e-17
0
6.14318e-17
-1.21882e-17
1.23711e-17
3.19488e-17
-1.85237e-17
-8.56975e-18
1.28715e-16
-1.28802e-17
1.23528e-16
4.25976e-16
-2.15506e-17
-1.80197e-16
0
0
0
1.03212e-16
4.17523e-17
1.50924e-16
-3.64596e-17
-6.03329e-17
-3.62887e-17
-1.9615e-17
8.72354e-18
-1.89395e-17
8.16189e-18
-1.41462e-16
1.38559e-16
-2.56987e-16
-4.208e-16
3.91166e-16
1.57086e-16
-2.91676e-16
2.54469e-16
-2.2172e-16
5.77484e-17
4.47848e-17
-4.06152e-17
2.69433e-17
-2.4071e-17
7.0219e-17
0
-5.28305e-18
3.88387e-17
-5.76536e-18
-9.1163e-16
4.20004e-16
3.51953e-19
-9.45037e-17
1.13292e-17
1.52669e-16
-2.90728e-16
-1.21237e-16
1.04421e-16
-8.9456e-17
-7.68734e-17
0
-8.82132e-17
-2.63094e-17
-4.73404e-17
-2.81688e-17
2.2193e-18
-2.46296e-17
4.92556e-19
1.48998e-16
-1.33435e-16
2.92431e-19
-1.03871e-16
-2.61755e-16
2.47405e-16
9.29257e-19
1.18146e-16
-1.01668e-16
1.71787e-16
4.07334e-17
3.38191e-17
1.05278e-16
0
8.79482e-17
4.04246e-17
0
1.35272e-17
4.18112e-19
0
1.29447e-16
1.03071e-16
-2.13634e-16
2.53707e-16
-3.829e-16
2.72693e-16
1.04626e-16
-1.45446e-17
-1.69879e-16
3.16623e-17
-3.15061e-17
-9.66991e-17
3.87672e-17
-1.92045e-17
-4.06597e-17
1.77278e-17
-1.09858e-17
4.243e-18
-1.38805e-16
4.74918e-16
-3.53472e-16
1.94435e-16
0
0
-5.43881e-17
1.15421e-16
-8.37691e-17
1.5793e-16
0
0
6.55061e-17
-5.74574e-17
-4.11753e-17
1.29688e-17
-1.37889e-17
7.23439e-18
0
1.07536e-17
1.298e-16
-1.05857e-16
-9.32526e-17
-1.52341e-16
-5.07863e-17
6.88764e-17
0
-7.89016e-17
-6.49315e-17
5.86087e-17
-4.8286e-17
3.94896e-17
0
1.56721e-17
3.10851e-17
0
0
0
-1.02812e-17
2.09908e-16
8.13568e-17
-2.81061e-16
7.83877e-17
6.76979e-17
0
0
7.46653e-17
-3.88516e-17
-5.66873e-17
4.67014e-17
-3.81894e-17
0
-1.03983e-17
9.00134e-18
0
-7.54901e-18
-2.63093e-18
-1.11924e-16
3.28444e-16
-4.00262e-16
-1.61969e-16
8.46697e-17
-6.42519e-17
5.44473e-17
0
-3.79095e-17
3.19285e-17
0
0
1.52042e-17
-1.52217e-17
4.63606e-18
-6.05417e-18
1.08652e-17
1.2638e-18
1.95385e-18
5.72895e-17
-5.19002e-17
2.67741e-16
-1.72999e-16
-7.09989e-17
8.74607e-18
1.11724e-16
4.3092e-17
3.62737e-17
0
2.16286e-17
-2.00672e-17
1.61283e-17
-1.37718e-17
1.80533e-17
-3.12103e-17
-8.45843e-18
7.39174e-18
1.98058e-18
1.53772e-16
-1.55671e-16
0
1.45977e-16
-7.67318e-17
-5.8121e-17
4.10812e-17
-1.30856e-16
0
-2.27729e-18
-2.47932e-17
-1.81362e-17
2.6774e-17
-2.00311e-18
-1.74482e-17
1.29887e-17
0
4.76285e-18
-1.92313e-18
2.61614e-16
-4.65086e-17
1.99523e-16
-1.56393e-16
8.76002e-17
1.0625e-17
-1.01223e-16
-3.52972e-17
6.38948e-17
-2.59953e-18
-3.84327e-17
3.26853e-17
-1.43902e-17
-1.9236e-17
0
0
0
-4.80844e-18
1.79205e-19
-2.33394e-16
2.2749e-16
1.57977e-19
3.5267e-17
3.05932e-17
-7.4741e-17
8.86833e-17
-7.36469e-17
6.33223e-17
-2.14341e-17
4.08697e-17
1.47495e-17
-6.30676e-18
3.28987e-19
-2.34482e-18
-4.12175e-18
0
0
0
0
0
1.12891e-16
-5.40991e-17
-1.72652e-16
0
0
-2.13676e-17
-3.49251e-17
2.94767e-17
0
-1.86018e-17
1.45955e-17
-4.92094e-17
5.67277e-17
-1.8743e-17
1.99737e-17
2.19767e-18
0
-4.52285e-17
4.57852e-17
0
-3.73728e-17
3.7951e-17
6.34788e-17
0
2.15716e-17
2.91018e-17
-1.29499e-16
0
-2.05393e-17
1.61868e-17
1.17586e-17
-8.81648e-18
1.29713e-17
0
-4.82402e-18
0
-2.32568e-17
-2.32449e-17
1.37699e-18
3.83996e-17
-1.03894e-16
0
-2.7183e-17
0
7.85916e-17
3.21067e-17
0
8.14227e-17
-8.60544e-17
8.55086e-18
-1.96328e-17
5.32867e-18
2.48778e-17
9.51435e-18
-7.53513e-18
0
4.81658e-17
-4.25675e-17
5.28782e-17
6.4152e-17
0
5.54034e-17
-5.25434e-17
-4.20737e-17
6.41604e-17
-9.64148e-17
-4.78019e-17
0
0
1.08123e-17
0
0
3.1384e-18
0
-2.13179e-16
1.63573e-16
0
2.40064e-18
-3.75341e-17
-2.08193e-18
3.37437e-17
2.46102e-17
-3.04398e-17
-7.91718e-17
1.27262e-16
-3.43957e-17
0
-1.69128e-17
0
0
0
-1.21095e-17
9.66897e-18
-6.01918e-17
5.66331e-17
1.52407e-16
-1.49345e-16
4.61421e-17
2.49304e-18
-3.42885e-17
2.98492e-17
5.12667e-17
3.9699e-17
-7.85283e-17
0
4.18398e-17
6.28988e-18
-1.93593e-17
-4.30224e-17
3.55349e-17
-5.86045e-18
1.10331e-17
-2.03264e-16
2.95062e-16
-2.92931e-16
5.19351e-17
4.45085e-17
-4.25196e-17
3.59339e-17
-2.88871e-17
0
-2.49394e-17
4.05774e-17
1.76218e-17
2.86394e-17
3.68728e-17
-5.53673e-17
-8.12341e-19
0
-4.44554e-18
1.48422e-18
-2.19782e-16
-6.58733e-17
-1.16462e-16
6.17462e-17
-1.02177e-16
8.95909e-17
-5.36092e-17
4.5889e-17
-3.03312e-18
-3.03415e-18
-4.24073e-17
2.48984e-17
-1.43958e-17
4.36726e-17
-4.6883e-17
6.02535e-18
5.01612e-18
0
-2.56182e-18
2.37632e-16
-7.10119e-17
0
0
-1.05276e-16
2.05314e-16
-4.82543e-17
-9.39917e-18
7.78517e-17
-1.99557e-18
0
0
-1.8495e-17
0
-4.06585e-17
9.91168e-17
-6.89315e-17
0
1.0111e-18
8.1429e-17
1.52717e-16
0
-6.56589e-17
-5.41545e-17
-4.84091e-17
-5.01413e-17
2.0997e-17
-5.89131e-17
-3.25394e-17
0
0
2.42959e-17
0
0
-5.47844e-17
9.02209e-17
0
0
5.58783e-16
-6.51445e-17
-3.4023e-16
-1.87083e-16
2.53614e-16
8.15156e-17
4.86182e-17
0
-1.80895e-17
1.76856e-17
4.37522e-17
-1.41543e-17
-2.13198e-17
3.31262e-17
-3.52361e-17
-1.09813e-17
0
0
0
4.4748e-17
-3.54985e-16
3.48173e-16
-3.35702e-17
-2.61479e-16
4.10393e-16
-2.0665e-16
0
0
1.12429e-16
-9.25474e-17
0
-2.83097e-17
4.92271e-17
-5.6005e-18
1.44439e-17
4.42223e-18
4.66838e-20
9.68128e-19
0
0
0
2.95057e-16
-1.97789e-16
2.09959e-16
-3.27836e-16
9.3681e-17
0
-3.41393e-17
5.49335e-17
-5.61453e-17
-1.11111e-17
-2.43876e-19
-7.66915e-18
-1.14597e-18
-6.1106e-18
-1.7098e-18
-9.36182e-19
3.75114e-16
-6.70097e-16
3.18164e-16
0
8.67283e-17
-1.18117e-16
1.19404e-16
-9.47381e-17
0
-4.67039e-17
6.54839e-17
0
0
-1.81881e-19
0
-7.8675e-18
5.38732e-18
1.00488e-18
1.4911e-18
3.63131e-16
0
-1.45967e-16
1.63063e-16
-1.0319e-16
2.25843e-16
-1.0699e-16
-8.43921e-17
8.52735e-17
-8.71136e-18
0
0
5.63129e-18
-9.56316e-18
-6.70368e-18
1.27223e-17
-2.75432e-18
1.41459e-18
0
2.06198e-16
1.62067e-16
-5.03992e-18
-1.55396e-16
-1.57866e-17
-1.14411e-16
1.2031e-17
9.65322e-17
-5.0139e-18
8.87494e-18
0
0
-5.76888e-18
0
6.80048e-18
-7.27489e-18
0
9.32349e-19
-2.58746e-19
-1.09451e-16
-8.12819e-17
7.61025e-17
-8.76538e-18
-3.94364e-18
1.06983e-17
0
-2.84427e-18
4.28254e-17
-3.6066e-17
0
1.23154e-17
-2.39986e-18
-1.08913e-17
-9.97683e-19
-7.786e-19
0
-7.28574e-19
0
4.48095e-17
-8.53348e-17
-1.25495e-18
3.68538e-17
3.39648e-17
-3.37553e-17
-2.40968e-17
2.72826e-17
-9.42614e-18
7.36973e-18
-7.2071e-18
7.42938e-18
0
1.90788e-20
-7.34662e-19
2.64293e-18
-9.05071e-21
0
0
4.4811e-17
-4.46431e-17
-3.66608e-17
3.24687e-17
6.001e-17
-6.03642e-17
-1.20488e-17
1.20773e-17
-9.50575e-18
9.60558e-18
-7.20734e-18
1.36141e-17
-3.81824e-18
-2.75748e-18
-8.48266e-19
2.80839e-19
6.71363e-19
1.77631e-19
-1.33225e-19
0
-1.06496e-17
6.38821e-17
-6.92236e-17
5.99239e-17
-5.31037e-17
0
4.27466e-17
-3.82255e-17
0
1.43605e-17
-1.81899e-17
-1.03929e-17
1.08924e-17
2.01037e-18
0
0
-7.28675e-19
2.64855e-19
1.7837e-16
-3.29001e-16
3.36834e-16
-2.9684e-16
1.16902e-16
-1.0019e-16
9.50384e-17
1.13811e-17
-4.25508e-17
3.80286e-17
0
-2.78418e-17
2.53464e-17
-4.83961e-18
-1.96916e-18
3.11084e-18
2.2889e-18
7.07404e-19
-2.5591e-19
4.09523e-16
0
-1.65086e-16
1.28276e-16
1.5605e-17
-1.20763e-16
2.14699e-16
-1.91379e-16
7.52659e-17
-3.24492e-17
3.32146e-17
6.60042e-18
1.14124e-17
4.71383e-18
-3.93398e-18
-5.08997e-19
-4.96266e-18
0
5.1052e-19
3.2934e-16
-3.70715e-16
0
3.4336e-17
1.49212e-16
-1.46272e-16
2.51565e-17
2.24082e-17
9.80462e-18
1.7414e-17
0
0
-1.98613e-17
3.73577e-17
-1.36764e-17
-4.92177e-18
5.38851e-18
4.32724e-19
-9.72151e-19
2.8768e-17
3.25638e-16
-3.78962e-17
-2.60755e-16
2.2887e-16
2.75804e-17
-2.46202e-17
-2.18862e-17
7.27688e-17
-9.02778e-17
5.49488e-17
-5.61602e-17
8.89755e-18
-1.11967e-17
2.06671e-17
-1.37609e-17
0
0
1.00504e-18
0
8.18288e-17
-2.47722e-16
2.82972e-16
-2.31361e-16
2.3081e-16
0
8.14974e-17
-8.18709e-17
-6.23397e-17
9.26135e-17
0
3.89883e-17
-4.9261e-17
-7.30659e-18
0
-8.3216e-19
-1.68446e-18
-1.49642e-20
-7.74231e-16
3.70247e-16
0
-2.53566e-16
2.53541e-16
1.57465e-16
-1.03552e-16
4.32354e-17
0
-1.97394e-18
1.50028e-17
-1.41345e-17
-2.1291e-17
3.30761e-17
-3.51709e-17
0
7.79823e-18
-1.77469e-18
-1.0423e-18
4.77254e-16
-4.703e-16
0
6.56474e-17
6.01438e-17
-5.52353e-17
0
-4.53111e-17
-3.95572e-17
0
-1.55666e-18
0
2.43057e-17
0
0
1.12692e-17
4.25359e-17
-5.49319e-17
0
6.90466e-20
7.1046e-17
-6.60206e-17
5.47615e-17
-2.77938e-16
1.06862e-16
0
9.4057e-18
2.67123e-17
0
-2.78928e-17
8.25919e-17
-8.67676e-17
1.4896e-17
0
-1.54208e-18
0
0
0
6.59895e-20
0
6.10195e-17
0
-9.64849e-17
9.80188e-17
0
3.61146e-17
-2.93565e-17
1.07355e-16
-5.19727e-17
1.91897e-17
-3.12672e-17
3.02185e-17
-4.69376e-17
-7.54591e-18
0
-5.21196e-18
0
1.8606e-16
-3.1451e-16
0
-5.19805e-17
4.71076e-17
0
0
-6.61469e-17
0
-2.4957e-17
-4.06076e-17
-1.76371e-17
2.8667e-17
0
1.59829e-17
0
0
1.14617e-17
-1.27631e-17
0
2.73686e-16
-2.1927e-16
4.81221e-17
-4.36219e-17
-1.82362e-17
5.28348e-17
6.02251e-17
-7.49751e-17
2.42447e-17
1.43055e-18
-2.36506e-17
9.72981e-17
-3.03268e-17
-7.22825e-17
2.51928e-17
-6.71466e-18
4.00479e-18
-1.25652e-18
-4.4054e-16
1.6356e-16
0
0
1.87837e-17
-1.91009e-17
1.41868e-17
9.76881e-18
6.80135e-17
3.55344e-17
-3.54893e-17
-1.16304e-18
-2.07729e-17
1.69272e-17
0
8.75469e-18
6.15448e-18
3.40065e-18
1.13571e-18
0
1.42558e-16
-1.34044e-16
4.32086e-17
4.5566e-17
-8.83475e-18
-2.91396e-17
-2.52786e-17
-8.53166e-17
3.51328e-17
-2.24028e-17
2.99792e-17
1.94253e-17
-2.50148e-17
2.65517e-17
1.74817e-17
-2.25247e-17
-3.14101e-18
0
-2.49146e-17
-1.1301e-16
4.08183e-17
3.84095e-17
-1.34401e-16
9.68335e-17
4.96383e-17
-5.07379e-17
3.99288e-17
-3.33428e-17
0
0
-2.97109e-17
5.37085e-17
-2.39301e-17
2.30649e-17
-2.51706e-17
4.24263e-18
-7.5417e-18
4.69244e-17
4.41745e-17
-4.06321e-17
3.26777e-17
-3.75725e-17
-5.89527e-17
0
0
0
0
0
0
1.53162e-17
-4.12956e-17
4.36746e-17
-1.45999e-17
1.79775e-17
8.58667e-18
-7.2934e-18
9.69186e-17
-1.67997e-16
2.10355e-16
-1.01224e-16
1.39655e-16
-1.05476e-16
1.98328e-16
-1.13254e-16
-6.31841e-17
6.46344e-17
0
1.85902e-17
-1.49631e-17
3.77334e-17
-1.22437e-17
-1.63159e-17
-3.53316e-17
2.62315e-18
6.22431e-18
1.50667e-16
4.39954e-17
0
-7.03111e-17
-5.68885e-17
1.31367e-16
1.44608e-17
-5.51062e-17
3.31637e-17
-2.42851e-17
0
-1.47163e-17
0
-1.24733e-17
1.02347e-17
-9.3558e-18
-3.11333e-18
2.22878e-18
0
2.1067e-16
-4.6508e-17
1.99438e-16
-1.56342e-16
-3.21143e-17
1.29605e-16
-7.77163e-17
3.66105e-18
3.06609e-18
-2.37949e-17
2.30758e-17
0
0
1.50479e-17
-5.65539e-18
3.74818e-18
1.12583e-17
-3.91607e-18
0
4.20858e-20
0
-4.39691e-17
2.62433e-16
-1.78085e-16
-1.9464e-16
1.06858e-16
-1.15654e-16
1.07923e-16
5.49488e-17
-4.25316e-17
1.75668e-17
-1.58187e-17
2.64032e-18
2.70762e-17
1.14741e-18
-1.06073e-17
1.04992e-17
-2.14223e-18
5.14429e-16
-1.64489e-16
8.28394e-17
-2.54721e-16
7.09985e-17
-1.13595e-16
6.05354e-17
0
0
-2.32888e-18
-3.10928e-18
-9.15565e-19
0
-2.33968e-17
-1.80536e-17
1.34213e-17
-9.89734e-19
1.69908e-18
4.20336e-18
0
-1.64422e-16
2.82578e-16
6.5806e-17
-2.34239e-16
6.42516e-17
-1.01069e-16
1.54167e-17
8.37386e-17
0
0
1.57625e-18
1.89601e-17
0
-1.74054e-17
-8.05866e-18
1.1816e-18
-4.29391e-18
-4.83677e-18
0
-1.04563e-16
2.11439e-17
1.90808e-16
1.46831e-16
-2.70836e-16
1.24089e-16
-8.95833e-17
4.76169e-17
-6.82418e-17
0
0
0
-3.08651e-17
8.6873e-18
-1.04493e-17
0
-6.56466e-19
3.2989e-18
-3.87709e-16
3.68529e-16
4.01687e-16
-4.88225e-16
2.33524e-16
-2.20564e-16
0
9.40526e-17
-1.29531e-16
7.61681e-17
-6.06329e-17
5.03973e-17
4.1595e-17
3.19213e-17
2.5428e-17
0
0
0
0
4.26869e-16
-2.48925e-16
0
0
-8.46761e-17
2.10203e-16
-1.34914e-16
-9.92475e-17
9.81288e-17
7.51501e-17
1.2801e-16
-5.22921e-17
2.23549e-17
1.72466e-17
1.2902e-17
1.04927e-17
1.70613e-17
-8.41871e-19
8.57521e-19
-4.33505e-16
4.00446e-16
2.17641e-16
-1.12676e-16
2.53696e-16
-1.63192e-16
-1.31822e-16
-1.13104e-16
0
-1.57053e-16
7.05981e-18
5.90388e-17
-4.7126e-17
-3.87672e-17
-1.43628e-17
-1.53271e-17
-1.22347e-17
0
0
-1.49127e-16
0
1.17797e-16
-2.04735e-19
0
0
1.35978e-16
1.16707e-16
0
8.47638e-17
0
-8.97498e-17
-2.53205e-17
4.51907e-17
0
2.92841e-17
-4.15145e-18
4.23504e-18
0
3.16324e-16
0
2.27902e-16
-4.25262e-16
3.82883e-16
3.1528e-16
-8.92261e-18
0
8.05793e-18
9.7433e-17
0
-9.97068e-17
1.12957e-16
-1.00805e-16
-2.20546e-17
-2.35695e-17
-6.89635e-18
-1.22323e-18
-4.28109e-18
-2.96345e-16
4.27484e-16
-1.22543e-16
-3.24315e-16
-1.89946e-16
-1.66411e-16
-2.9102e-16
-1.19175e-16
8.69663e-18
4.48691e-17
-4.47848e-17
1.44917e-16
-6.41294e-17
1.30007e-16
-2.43697e-17
0
2.74616e-17
-1.60792e-17
4.33938e-18
6.50536e-16
-1.31474e-17
-5.05633e-16
4.25979e-16
-3.86076e-16
3.40866e-16
-9.90667e-18
-1.32811e-16
1.17271e-16
4.75604e-17
-5.79578e-18
-1.17795e-16
3.4483e-17
3.56151e-17
-1.09754e-17
1.11006e-17
-2.84435e-17
-2.62444e-18
-6.53014e-18
3.19355e-16
1.36845e-16
2.43198e-16
-2.16364e-16
-1.81905e-16
8.64272e-18
-1.433e-16
3.47922e-16
1.081e-17
1.64545e-16
9.70058e-17
-8.62794e-17
0
-6.14317e-17
0
0
3.87223e-17
1.71636e-17
7.63215e-18
3.00856e-16
0
2.40413e-16
2.14967e-16
-1.93259e-16
1.71295e-16
0
-1.36611e-16
-1.9055e-16
-1.68023e-16
-9.78645e-17
8.7255e-17
0
0
0
0
-3.62918e-17
-2.65046e-17
0
-5.89532e-16
0
-1.08027e-17
-9.53712e-18
2.93655e-16
-1.68404e-16
-7.78836e-17
-7.81616e-17
1.92852e-16
0
5.10669e-17
-5.43884e-18
4.53567e-17
0
0
5.95391e-17
-4.42396e-18
3.18194e-17
-1.19187e-17
4.15362e-16
1.21356e-16
-1.20104e-16
-1.07437e-16
-3.78353e-16
2.62341e-16
3.19655e-16
-7.80638e-18
-1.31126e-16
1.28974e-16
2.72517e-17
-1.37741e-16
-1.13552e-16
-6.79488e-17
-7.18007e-17
-6.86231e-17
5.62723e-17
-2.66256e-18
1.22073e-17
-1.28067e-16
5.87274e-17
-2.83829e-16
4.93726e-17
-4.9193e-17
0
-1.58533e-16
-1.00081e-17
-1.46976e-16
1.13425e-17
1.43629e-16
1.06932e-16
-2.60925e-17
1.18535e-17
6.83267e-17
0
-1.16636e-16
-4.25344e-17
-8.85475e-19
2.59354e-16
-7.15086e-18
4.46164e-16
-2.13904e-16
3.97071e-19
5.7522e-18
1.73446e-16
-1.24085e-17
1.42543e-16
-1.3353e-16
-1.25502e-16
0
1.23791e-16
9.95036e-17
1.37156e-18
-1.99188e-18
6.28666e-17
4.32355e-17
0
-1.84583e-16
0
-4.58025e-17
2.03577e-16
2.6842e-18
4.70695e-17
-1.6772e-16
1.58917e-16
1.66735e-16
1.59647e-16
1.53277e-16
0
-1.2026e-16
0
6.31918e-18
-6.56303e-18
0
-6.2294e-19
3.05731e-17
1.27151e-16
6.11381e-18
-1.02853e-16
3.16252e-16
-1.01852e-16
0
0
-1.85739e-16
-1.61549e-16
-1.54662e-16
-2.79342e-16
-3.90147e-17
0
0
0
-1.28423e-17
1.35904e-17
8.66815e-17
-3.10381e-17
6.31551e-18
0
-2.19541e-16
-2.02331e-16
2.11051e-16
-2.09386e-16
-3.0055e-16
3.70403e-16
1.021e-16
0
1.64054e-16
1.84684e-16
-3.98782e-17
2.16184e-16
-3.53757e-17
3.68175e-17
1.42771e-16
-8.23696e-17
0
-2.43145e-16
0
-2.33442e-16
2.29023e-16
0
4.16064e-16
1.9593e-16
-4.10012e-16
3.26419e-16
-2.20403e-18
-9.90108e-17
-1.78812e-16
0
2.45024e-16
-4.11239e-16
4.4117e-16
-5.62173e-16
0
0
2.41987e-16
-1.45695e-18
-3.59014e-18
-4.60719e-16
4.64432e-16
-2.24885e-16
2.23968e-16
2.20715e-16
-1.96246e-16
0
0
3.66989e-16
-3.73312e-16
-3.99648e-16
3.96013e-16
-3.85664e-16
4.17029e-16
-6.53153e-16
0
)
;

boundaryField
{
    up
    {
        type            calculated;
        value           nonuniform List<scalar> 
84
(
0
0
0
0
-2.23094e-17
4.02679e-17
-1.68226e-17
1.22073e-17
-1.06543e-17
0
-8.56975e-18
8.16189e-18
-5.76536e-18
4.92556e-19
4.18112e-19
4.243e-18
0
0
-2.63093e-18
1.95385e-18
1.98058e-18
-1.92313e-18
1.79205e-19
0
7.90776e-19
3.57383e-19
-7.19333e-18
0
9.66897e-18
1.14967e-17
1.48422e-18
-2.56182e-18
1.0111e-18
0
-4.9777e-19
1.00368e-18
-9.35749e-19
1.48937e-18
0
-2.58441e-19
0
0
-1.33312e-19
2.64855e-19
-2.5591e-19
5.1052e-19
-9.72151e-19
1.00504e-18
-1.49642e-20
-1.0423e-18
0
0
0
-1.27631e-17
-1.72045e-18
1.13571e-18
0
-7.5417e-18
-7.2934e-18
5.43626e-18
0
0
-2.14223e-18
4.20336e-18
-4.83677e-18
3.2989e-18
0
8.57521e-19
0
0
-4.28109e-18
4.33938e-18
-6.53014e-18
7.63215e-18
0
-1.19187e-17
1.22073e-17
-8.85475e-19
0
3.05731e-17
-3.10381e-17
0
0
0
)
;
    }
    low
    {
        type            calculated;
        value           nonuniform List<scalar> 
84
(
-4.84423e-16
4.84075e-16
-2.37267e-16
3.73493e-16
6.54158e-17
-1.69989e-17
1.42068e-16
1.39355e-17
0
6.0348e-16
-1.52951e-16
1.28251e-16
-1.41462e-16
-9.11607e-16
1.48998e-16
0
-1.38805e-16
1.07536e-17
-1.02812e-17
-1.11924e-16
5.72895e-17
1.53772e-16
2.60715e-16
-2.33394e-16
0
-4.52285e-17
-2.32568e-17
0
-2.13179e-16
-6.01918e-17
-2.02665e-16
-2.19298e-16
2.37294e-16
8.1429e-17
5.58777e-16
4.4748e-17
0
3.75114e-16
3.63849e-16
2.06596e-16
-1.09666e-16
4.48095e-17
4.4811e-17
0
1.7837e-16
4.10242e-16
3.2934e-16
2.92314e-17
0
-7.74224e-16
4.77254e-16
6.90466e-20
6.59895e-20
1.8606e-16
0
-4.39614e-16
0
-2.49146e-17
4.69244e-17
9.63739e-17
1.49707e-16
2.09771e-16
4.20858e-20
5.13671e-16
0
0
-3.87709e-16
4.2647e-16
-4.3323e-16
-1.49127e-16
3.16301e-16
-2.96345e-16
6.51464e-16
3.20026e-16
3.00856e-16
-5.89532e-16
4.14608e-16
-1.2728e-16
2.59354e-16
-1.84266e-16
1.27151e-16
6.88811e-18
-2.43145e-16
2.42144e-16
)
;
    }
    left
    {
        type            calculated;
        value           nonuniform List<scalar> 
19
(
-4.84109e-16
-2.35867e-16
2.39104e-16
4.84601e-18
-4.56595e-16
0
-2.13741e-16
-2.10754e-16
-1.41606e-17
-1.10755e-16
-1.0471e-18
-1.101e-16
4.88865e-16
-1.08804e-16
5.08594e-16
4.38731e-16
2.6092e-16
3.82602e-16
0
)
;
    }
    right
    {
        type            calculated;
        value           nonuniform List<scalar> 
19
(
2.41987e-16
-1.28531e-18
-3.59014e-18
-4.60716e-16
4.64547e-16
-2.24885e-16
2.23968e-16
2.20715e-16
-1.95565e-16
0
0
3.70476e-16
-3.78223e-16
-3.99648e-16
3.96013e-16
-3.85664e-16
4.17029e-16
-7.06343e-16
0
)
;
    }
    frontAndBackPlanes
    {
        type            empty;
    }
}


// ************************************************************************* //
