/*--------------------------------*- C++ -*----------------------------------*\
  =========                 |
  \\      /  F ield         | OpenFOAM: The Open Source CFD Toolbox
   \\    /   O peration     | Website:  https://openfoam.org
    \\  /    A nd           | Version:  7
     \\/     M anipulation  |
\*---------------------------------------------------------------------------*/
FoamFile
{
    version     2.0;
    format      ascii;
    class       volScalarField;
    location    "0.13";
    object      gradTz;
}
// * * * * * * * * * * * * * * * * * * * * * * * * * * * * * * * * * * * * * //

dimensions      [0 -1 0 1 0 0 0];

internalField   nonuniform List<scalar> 
1596
(
-8.06704e-16
-3.8776e-16
3.98943e-16
1.31418e-17
-7.4716e-16
0
-3.41094e-16
-3.36438e-16
-2.90362e-17
-1.80841e-16
-1.19882e-18
-1.81162e-16
8.06589e-16
-1.80584e-16
8.40928e-16
7.27932e-16
4.33612e-16
5.49317e-16
0
8.00871e-16
0
1.09731e-15
-1.10784e-17
-3.23853e-16
3.19912e-16
6.77106e-16
2.81038e-17
3.17297e-16
-1.5441e-16
3.09245e-16
-3.45471e-18
-4.30846e-16
-2.71049e-16
-6.79224e-16
-6.65094e-16
-6.06656e-16
3.46521e-16
0
-3.8561e-16
0
-7.00645e-16
1.7471e-17
6.15196e-16
-1.85679e-16
2.06053e-17
-4.14002e-18
-3.62315e-18
-3.44649e-18
1.0589e-16
0
2.23308e-16
6.28253e-16
-6.23488e-17
5.14386e-17
1.20307e-16
1.92187e-16
0
6.14985e-16
-1.74745e-16
1.74107e-16
0
-1.63971e-16
-1.73255e-16
2.74369e-16
-2.24372e-16
0
0
-9.98453e-17
5.54893e-17
0
-1.82103e-16
-2.2601e-16
1.5969e-16
-1.72485e-16
-8.82276e-18
0
1.08499e-16
2.71493e-16
-2.3068e-16
0
-6.35341e-17
-1.96189e-16
0
2.83154e-16
-2.73616e-17
-2.48188e-17
-3.84654e-17
1.41904e-16
1.80785e-16
2.0122e-17
1.6864e-17
-1.72571e-16
8.59878e-18
8.05965e-17
-3.56932e-17
-2.81755e-17
-3.7071e-16
3.37017e-16
-2.77083e-16
-8.87854e-19
-2.23084e-16
6.1294e-18
-6.14975e-18
-1.62382e-16
0
-3.18016e-17
-1.69054e-16
-1.62841e-16
1.25904e-16
1.46093e-16
-1.9539e-18
-8.78499e-17
-8.17479e-17
6.33132e-17
2.35468e-16
-3.7535e-16
3.96812e-16
2.11357e-16
0
1.73035e-16
9.49917e-17
-4.48242e-17
2.04401e-16
-3.71213e-17
-1.63586e-16
1.12016e-18
-9.21321e-17
-1.26388e-16
-9.37383e-17
8.34758e-17
8.86231e-17
-1.20755e-18
-2.59467e-17
3.31701e-17
6.01789e-16
-6.64737e-16
0
0
-2.01763e-16
0
0
0
1.15323e-16
0
0
8.58455e-17
2.26828e-18
3.1708e-17
-7.37638e-17
0
3.92366e-17
1.63666e-17
0
-3.78026e-16
7.16595e-16
0
0
2.07788e-16
0
-6.77672e-17
6.76987e-17
-1.17382e-16
4.61217e-17
-4.64591e-17
0
6.62601e-17
7.51336e-17
0
-4.30958e-17
-4.00466e-17
-1.44531e-17
9.82472e-16
-4.49975e-16
0
-2.68241e-16
2.65239e-16
0
1.62928e-16
0
0
0
3.93012e-17
-3.94896e-17
0
-5.1788e-17
-1.40273e-17
0
8.97245e-18
2.32501e-17
0
-2.49597e-16
0
0
2.70041e-16
-4.87207e-16
3.87281e-17
1.53151e-17
-5.94778e-17
1.04119e-17
4.07463e-18
-4.03646e-17
-5.87185e-17
0
4.30763e-17
-9.47363e-18
9.61582e-18
2.93546e-17
-1.86397e-17
-8.05931e-18
1.87915e-16
-3.15335e-17
1.81446e-16
5.74177e-16
-4.73261e-17
-2.19552e-16
0
0
0
8.41049e-17
3.00192e-17
1.04256e-16
-2.49074e-17
-4.23057e-17
-2.23356e-17
-1.35672e-17
6.18374e-18
-1.39197e-17
7.57032e-18
-2.20328e-16
2.16729e-16
-3.89392e-16
-5.68209e-16
5.089e-16
1.75518e-16
-3.11685e-16
2.46158e-16
-1.93586e-16
5.11623e-17
3.34766e-17
-2.87621e-17
1.46844e-17
-1.42516e-17
4.33193e-17
0
-3.41007e-18
2.62422e-17
-3.96685e-18
-1.48881e-15
6.65369e-16
4.76096e-19
-1.20523e-16
2.52304e-17
1.70678e-16
-3.16813e-16
-1.15596e-16
8.90395e-17
-6.80021e-17
-5.21922e-17
0
-5.14443e-17
-1.47168e-17
-2.39408e-17
-1.39613e-17
1.08285e-18
-1.44339e-17
8.69572e-19
2.43269e-16
-2.0751e-16
1.24515e-19
-1.42904e-16
-3.24361e-16
2.9781e-16
1.66218e-18
1.12648e-16
-8.66917e-17
1.29527e-16
2.9092e-17
2.15306e-17
5.72674e-17
0
4.1959e-17
1.89707e-17
0
7.20994e-18
6.35147e-19
0
2.01309e-16
1.41038e-16
-3.03561e-16
3.13458e-16
-4.46449e-16
2.95256e-16
9.3576e-17
-2.19749e-17
-1.31035e-16
1.95737e-17
-1.94771e-17
-4.9913e-17
1.75475e-17
-9.15676e-18
-1.76905e-17
6.88765e-18
-4.3466e-18
2.09669e-18
-2.26262e-16
7.16161e-16
-5.38642e-16
2.63932e-16
0
0
-5.11103e-17
1.14122e-16
-6.52928e-17
1.1841e-16
0
0
3.22228e-17
-2.62884e-17
-1.58945e-17
5.03494e-18
-5.43408e-18
2.96427e-18
0
2.76632e-17
2.11765e-16
-1.54242e-16
-1.27608e-16
-1.81804e-16
-4.13717e-17
7.76639e-17
0
-6.00742e-17
-4.16703e-17
3.55081e-17
-2.53694e-17
1.80298e-17
0
6.35835e-18
1.05117e-17
0
0
0
-2.68912e-17
3.02881e-16
9.66543e-17
-3.87906e-16
9.57921e-17
7.62101e-17
0
0
5.52249e-17
-2.94476e-17
-3.43441e-17
2.45368e-17
-1.74362e-17
0
-3.42562e-18
2.48987e-18
0
-2.05015e-18
-7.30566e-19
-1.7224e-16
5.05887e-16
-5.86501e-16
-2.06471e-16
1.11876e-16
-6.97694e-17
5.26939e-17
0
-2.82734e-17
2.14896e-17
0
0
6.00472e-18
-6.01163e-18
1.41007e-18
-2.21816e-18
2.7476e-18
5.23678e-19
5.55026e-19
9.32252e-17
-7.96196e-17
3.73894e-16
-2.38129e-16
-8.43325e-17
1.57004e-17
1.12577e-16
3.55677e-17
2.70534e-17
0
1.09449e-17
-9.94945e-18
6.86284e-18
-5.09872e-18
5.12729e-18
-8.18737e-18
-2.1231e-18
1.78821e-18
4.33257e-19
2.40784e-16
-2.48586e-16
0
1.81825e-16
-9.94781e-17
-6.18331e-17
3.26097e-17
-1.1242e-16
0
-1.96407e-18
-1.39055e-17
-8.14765e-18
9.78384e-18
-1.12042e-18
-4.95544e-18
3.26513e-18
0
9.42871e-19
-4.20689e-19
4.34019e-16
-7.11731e-17
2.73608e-16
-2.12605e-16
9.48096e-17
-3.65787e-18
-9.84934e-17
-2.58389e-17
4.37226e-17
-2.66096e-18
-1.76765e-17
1.36777e-17
-5.45709e-18
-5.6491e-18
0
0
0
-9.50033e-19
3.35733e-20
-3.7117e-16
3.57376e-16
2.2083e-19
4.54208e-17
3.5409e-17
-7.31281e-17
7.94039e-17
-5.68419e-17
4.28495e-17
-1.08136e-17
1.99453e-17
5.62394e-18
-2.12391e-18
1.07088e-19
-4.69165e-19
-8.46828e-19
0
0
0
0
0
1.50813e-16
-8.8982e-17
-2.09498e-16
0
0
-1.63806e-17
-2.24796e-17
1.62358e-17
0
-7.09282e-18
4.6762e-18
-1.2834e-17
1.41761e-17
-3.75407e-18
3.96554e-18
3.90739e-19
0
-7.17335e-17
7.26163e-17
0
-4.88874e-17
4.86009e-17
7.01687e-17
0
1.6537e-17
1.57219e-17
-7.63943e-17
0
-8.37086e-18
5.57819e-18
3.26939e-18
-2.11221e-18
2.80816e-18
0
-8.7496e-19
0
-3.69479e-17
-3.47755e-17
2.05322e-18
5.02306e-17
-1.22851e-16
0
-2.54294e-17
0
5.40098e-17
1.83528e-17
0
3.30939e-17
-3.10721e-17
3.90802e-18
-4.21008e-18
2.13672e-18
5.44066e-18
1.76563e-18
-1.40098e-18
0
7.43785e-17
-5.90417e-17
7.21843e-17
7.64862e-17
0
5.06675e-17
-4.5655e-17
-2.94733e-17
3.68094e-17
-5.44477e-17
-2.15603e-17
0
0
2.938e-18
0
0
6.61319e-19
0
-3.39376e-16
2.62592e-16
0
5.85187e-18
-4.31781e-17
-2.16774e-18
3.36143e-17
1.89408e-17
-2.73244e-17
-5.2556e-17
7.08936e-17
-1.98053e-17
0
-6.54376e-18
0
0
0
-2.58881e-18
2.07862e-18
-9.82833e-17
8.77738e-17
2.17152e-16
-2.07055e-16
5.94627e-17
4.7686e-18
-3.40535e-17
2.6249e-17
3.96173e-17
2.61206e-17
-5.09718e-17
0
1.85053e-17
1.09613e-20
-7.48825e-18
-1.33077e-17
1.06237e-17
-1.30452e-18
2.66042e-18
-3.40974e-16
4.48647e-16
-4.39783e-16
7.13481e-17
5.49007e-17
-5.01561e-17
4.00562e-17
-2.76842e-17
0
-1.94146e-17
2.59447e-17
1.10276e-17
1.60888e-17
1.64103e-17
-2.37272e-17
-1.04371e-18
0
-1.19263e-18
4.10315e-19
-3.68568e-16
-1.02537e-16
-1.66551e-16
9.14613e-17
-1.31289e-16
1.04821e-16
-5.99926e-17
4.49368e-17
-4.80462e-18
-4.59695e-18
-2.94874e-17
1.86461e-17
-6.88508e-18
2.24967e-17
-2.41504e-17
1.83648e-18
2.19355e-18
0
-7.54736e-19
3.98502e-16
-1.11288e-16
0
0
-1.34723e-16
2.55662e-16
-5.66395e-17
-9.34388e-18
7.20741e-17
-2.14793e-18
0
0
-1.17101e-17
0
-2.23137e-17
5.10786e-17
-3.43984e-17
0
3.33846e-19
1.33318e-16
2.39784e-16
0
-9.37086e-17
-6.85584e-17
-5.44678e-17
-5.9499e-17
2.1991e-17
-5.88306e-17
-2.87375e-17
0
0
1.89777e-17
0
0
-3.25199e-17
5.43132e-17
0
0
9.15658e-16
-1.22863e-16
-5.24048e-16
-2.60196e-16
3.55149e-16
1.04095e-16
5.76917e-17
0
-1.85843e-17
1.63333e-17
4.10294e-17
-1.27623e-17
-1.6653e-17
2.5142e-17
-2.67434e-17
-7.23291e-18
0
0
0
7.33218e-17
-5.51341e-16
5.38228e-16
-4.88158e-17
-3.53057e-16
5.38874e-16
-2.63407e-16
0
0
1.14672e-16
-9.2011e-17
0
-2.40935e-17
4.27946e-17
-4.16962e-18
1.18095e-17
3.4518e-18
5.02604e-20
7.15247e-19
0
0
0
4.22158e-16
-2.84524e-16
2.7191e-16
-4.17878e-16
1.1521e-16
0
-3.6748e-17
5.51615e-17
-5.63783e-17
-1.01383e-17
2.92137e-19
-6.48553e-18
-8.05544e-19
-5.17136e-18
-1.48871e-18
-7.91989e-19
6.06499e-16
-1.06453e-15
4.96209e-16
0
1.18672e-16
-1.62604e-16
1.50088e-16
-1.18732e-16
0
-5.08234e-17
7.13766e-17
0
0
2.73434e-19
0
-7.25011e-18
4.903e-18
7.65379e-19
1.28265e-18
6.05799e-16
0
-2.20143e-16
2.45468e-16
-1.42952e-16
3.07705e-16
-1.4244e-16
-1.02868e-16
1.03943e-16
-1.00479e-17
0
0
5.87475e-18
-9.36886e-18
-6.53016e-18
1.22566e-17
-2.64607e-18
1.29993e-18
0
3.43395e-16
2.54225e-16
-1.61025e-17
-2.34996e-16
-2.24732e-17
-1.5409e-16
2.1436e-17
1.24529e-16
-6.10811e-18
1.02366e-17
0
0
-6.01829e-18
0
6.87366e-18
-7.35318e-18
0
9.31151e-19
-2.55459e-19
-1.82149e-16
-1.27734e-16
1.19746e-16
-1.30426e-17
-5.6665e-18
1.47398e-17
0
-3.63158e-18
5.16495e-17
-4.34817e-17
0
1.34844e-17
-2.8898e-18
-1.16504e-17
-1.04452e-18
-8.06087e-19
0
-7.30285e-19
0
7.26669e-17
-1.36395e-16
7.60048e-20
5.60462e-17
4.80746e-17
-4.75731e-17
-3.14864e-17
3.55614e-17
-1.14222e-17
8.99132e-18
-8.18142e-18
8.43375e-18
0
2.03977e-20
-7.71218e-19
2.75994e-18
-9.364e-21
0
0
7.26694e-17
-7.23971e-17
-5.57492e-17
4.95051e-17
8.47703e-17
-8.52707e-17
-1.57439e-17
1.57835e-17
-1.15205e-17
1.16407e-17
-8.18187e-18
1.5269e-17
-4.28341e-18
-2.97998e-18
-8.89008e-19
3.00413e-19
6.97652e-19
1.83188e-19
-1.3726e-19
0
-1.6986e-17
9.67922e-17
-1.05254e-16
8.44306e-17
-7.50586e-17
0
5.34731e-17
-4.79831e-17
0
1.61692e-17
-2.03869e-17
-1.11183e-17
1.16527e-17
2.0684e-18
0
0
-7.30518e-19
2.6472e-19
2.88902e-16
-5.24868e-16
5.19597e-16
-4.41537e-16
1.71034e-16
-1.34681e-16
1.28295e-16
1.42596e-17
-5.07652e-17
4.52417e-17
0
-2.98445e-17
2.72443e-17
-4.92847e-18
-2.02599e-18
3.06269e-18
2.23029e-18
7.09193e-19
-2.55779e-19
6.81959e-16
0
-2.49561e-16
1.9422e-16
2.22156e-17
-1.61264e-16
2.80088e-16
-2.38932e-16
9.21657e-17
-3.63909e-17
3.72493e-17
7.09089e-18
1.15015e-17
4.80038e-18
-3.76817e-18
-5.60083e-19
-4.7986e-18
0
4.65428e-19
5.31359e-16
-5.98166e-16
0
5.0592e-17
2.06147e-16
-2.00207e-16
3.19739e-17
2.70876e-17
1.1549e-17
1.90679e-17
0
0
-1.98414e-17
3.59589e-17
-1.29216e-17
-4.48099e-18
4.90593e-18
3.84956e-19
-8.75458e-19
6.67373e-17
5.2595e-16
-5.75962e-17
-3.72298e-16
3.27629e-16
3.68226e-17
-3.12922e-17
-2.64565e-17
8.06322e-17
-9.98115e-17
5.51912e-17
-5.64079e-17
7.79932e-18
-1.07992e-17
1.77806e-17
-1.19549e-17
0
0
7.702e-19
0
1.29295e-16
-3.66448e-16
4.20087e-16
-3.11332e-16
3.10591e-16
0
9.26625e-17
-9.30871e-17
-6.31421e-17
9.21047e-17
0
3.385e-17
-4.28419e-17
-6.18172e-18
0
-6.29582e-19
-1.11255e-18
-1.01596e-19
-1.26846e-15
5.93835e-16
0
-3.5512e-16
3.55085e-16
1.9758e-16
-1.29224e-16
4.78879e-17
0
-1.89892e-18
1.18399e-17
-1.27503e-17
-1.66395e-17
2.512e-17
-2.67109e-17
0
4.88878e-18
-7.73507e-19
-6.96538e-19
7.70973e-16
-7.49353e-16
0
9.25227e-17
7.95917e-17
-7.00242e-17
0
-5.01869e-17
-3.8686e-17
0
-3.34667e-18
0
1.89956e-17
0
0
6.49032e-18
2.35997e-17
-3.10547e-17
0
1.1021e-20
1.11346e-16
-9.77013e-17
7.11301e-17
-3.65747e-16
1.35303e-16
0
9.35344e-18
2.59652e-17
0
-2.31472e-17
5.78816e-17
-6.08079e-17
8.63253e-18
0
-1.66439e-18
0
0
0
3.55518e-20
0
9.03004e-17
0
-1.19356e-16
1.21253e-16
0
3.48016e-17
-2.50448e-17
8.54222e-17
-4.00381e-17
1.2016e-17
-1.75774e-17
1.47161e-17
-2.41997e-17
-3.6512e-18
0
-1.65709e-18
0
2.94269e-16
-4.99064e-16
0
-7.06187e-17
5.88905e-17
0
0
-6.22948e-17
0
-1.94369e-17
-2.59778e-17
-1.10438e-17
1.61157e-17
0
6.2045e-18
0
0
3.43125e-18
-3.56888e-18
0
4.14755e-16
-3.30158e-16
6.53768e-17
-5.45329e-17
-1.95171e-17
5.39096e-17
5.4187e-17
-5.74024e-17
1.81717e-17
2.76546e-18
-1.17629e-17
4.65482e-17
-1.41682e-17
-2.68999e-17
8.56359e-18
-1.75257e-18
1.07575e-18
-2.65319e-19
-7.18312e-16
2.62716e-16
0
0
2.18366e-17
-2.22054e-17
1.21086e-17
5.24861e-18
4.98098e-17
2.17583e-17
-2.03652e-17
-1.73939e-18
-8.3513e-18
6.5548e-18
0
2.28988e-18
1.60636e-18
7.17223e-19
2.39811e-19
0
2.18073e-16
-1.93354e-16
5.99348e-17
5.39408e-17
-1.0089e-17
-2.80551e-17
-2.13406e-17
-6.12164e-17
2.10524e-17
-9.3533e-18
1.52621e-17
7.8095e-18
-7.71449e-18
8.18845e-18
3.92994e-18
-5.45058e-18
-6.62462e-19
0
-4.16331e-17
-1.75462e-16
5.86629e-17
5.0247e-17
-1.55267e-16
1.06311e-16
4.29794e-17
-4.39316e-17
2.79797e-17
-1.99798e-17
0
0
-9.85763e-18
1.6746e-17
-6.80166e-18
5.04792e-18
-5.56853e-18
7.92707e-19
-1.40315e-18
7.65472e-17
6.80476e-17
-5.77968e-17
3.79179e-17
-4.86515e-17
-6.09679e-17
0
0
0
0
0
0
5.01783e-18
-1.10428e-17
1.16789e-17
-2.99519e-18
3.75142e-18
1.54823e-18
-1.29604e-18
1.61531e-16
-2.48286e-16
3.08635e-16
-1.21806e-16
1.71184e-16
-1.00396e-16
1.7762e-16
-9.20553e-17
-3.77567e-17
3.86234e-17
0
7.08912e-18
-4.90215e-18
9.64719e-18
-4.03977e-18
-4.00879e-18
-6.78726e-18
5.63095e-19
1.07869e-18
2.53004e-16
6.7327e-17
0
-9.06319e-17
-6.18836e-17
1.34518e-16
7.26584e-18
-4.27924e-17
2.34332e-17
-1.35378e-17
0
-5.61184e-18
0
-3.42199e-18
2.52908e-18
-1.99558e-18
-6.26399e-19
3.85388e-19
0
3.51127e-16
-7.1172e-17
2.73678e-16
-2.12872e-16
-3.76197e-17
1.28029e-16
-7.64098e-17
5.20851e-18
3.7113e-18
-1.34111e-17
1.22613e-17
0
0
4.50046e-18
-1.22505e-18
6.77479e-19
2.25905e-18
-7.77213e-19
0
5.99319e-20
0
-6.2473e-17
3.3398e-16
-2.20419e-16
-1.99097e-16
1.07603e-16
-8.94511e-17
7.96049e-17
3.30551e-17
-2.14328e-17
7.76501e-18
-6.41657e-18
1.40998e-18
7.80746e-18
-1.63502e-21
-2.27868e-18
2.19309e-18
-4.65859e-19
8.36807e-16
-2.62849e-16
1.08673e-16
-3.45205e-16
8.43322e-17
-1.17147e-16
6.56904e-17
0
0
-2.12505e-18
-3.32807e-18
-9.49414e-19
0
-7.66604e-18
-5.12744e-18
3.37396e-18
-2.33206e-19
5.44952e-19
9.79347e-19
0
-2.53144e-16
3.96453e-16
6.87084e-17
-2.94655e-16
6.97693e-17
-9.38063e-17
2.36234e-17
6.84952e-17
0
0
1.09597e-18
8.68982e-18
0
-5.8955e-18
-2.35798e-18
3.62553e-19
-1.00127e-18
-1.26963e-18
0
-1.51379e-16
5.11478e-17
2.67441e-16
1.7161e-16
-3.04563e-16
1.32031e-16
-7.55046e-17
4.20372e-17
-4.7548e-17
0
0
0
-1.23535e-17
2.22954e-18
-3.4425e-18
0
-1.89227e-19
9.23134e-19
-6.21723e-16
5.8096e-16
5.64579e-16
-6.80697e-16
2.82281e-16
-2.59619e-16
0
8.12776e-17
-1.06699e-16
5.66419e-17
-3.79963e-17
2.75702e-17
1.99504e-17
1.27763e-17
9.07889e-18
0
0
0
0
7.06369e-16
-3.85942e-16
0
0
-1.06931e-16
2.34066e-16
-1.48167e-16
-8.74957e-17
8.65094e-17
5.38875e-17
8.14107e-17
-2.86067e-17
1.15263e-17
7.52578e-18
5.0092e-18
4.24507e-18
6.62902e-18
-3.13606e-19
3.19436e-19
-7.07513e-16
6.33078e-16
3.09255e-16
-1.64982e-16
3.12797e-16
-1.98619e-16
-1.39005e-16
-1.07101e-16
0
-1.13883e-16
8.69196e-18
3.47271e-17
-2.37094e-17
-1.75479e-17
-6.10519e-18
-5.73178e-18
-4.61815e-18
0
0
-2.43389e-16
0
1.73259e-16
4.53773e-20
0
0
1.43388e-16
1.10513e-16
0
6.33746e-17
0
-5.23315e-17
-1.3753e-17
2.35769e-17
0
1.45338e-17
-1.98113e-18
2.02102e-18
0
5.27207e-16
0
3.25152e-16
-5.86966e-16
4.98477e-16
3.60563e-16
-1.79959e-17
0
1.15144e-17
7.93492e-17
0
-6.25546e-17
6.442e-17
-5.565e-17
-1.17875e-17
-1.14534e-17
-3.67174e-18
-7.18768e-19
-3.07125e-18
-4.73258e-16
6.77061e-16
-1.80281e-16
-4.45514e-16
-2.41933e-16
-1.94322e-16
-3.08828e-16
-1.09044e-16
1.38769e-17
3.35397e-17
-3.34767e-17
9.5366e-17
-4.12559e-17
7.77616e-17
-1.44287e-17
0
1.87347e-17
-1.1823e-17
2.98205e-18
1.08423e-15
-3.14518e-17
-7.53109e-16
5.74181e-16
-4.91463e-16
3.98688e-16
-1.90446e-17
-1.28576e-16
1.03776e-16
3.67034e-17
-6.67456e-18
-8.14065e-17
2.15142e-17
2.79321e-17
-7.4468e-18
7.53174e-18
-1.94046e-17
-4.39691e-18
-6.25087e-18
5.32259e-16
2.12575e-16
3.56112e-16
-2.94409e-16
-2.20777e-16
1.96172e-17
-1.46124e-16
3.48027e-16
1.67902e-17
1.40575e-16
7.84139e-17
-6.76898e-17
0
-4.30765e-17
0
0
3.52714e-17
1.45615e-17
7.17973e-18
4.90026e-16
0
3.49145e-16
2.92509e-16
-2.43083e-16
1.98792e-16
0
-1.34015e-16
-1.78127e-16
-1.45583e-16
-7.9108e-17
6.84552e-17
0
0
0
0
-3.31872e-17
-2.96205e-17
0
-9.59515e-16
0
-2.67974e-17
-2.40967e-17
3.74067e-16
-1.90677e-16
-8.35077e-17
-8.44842e-17
1.85147e-16
0
4.61214e-17
-4.69906e-18
4.69719e-17
0
0
6.59986e-17
-5.02585e-18
3.56452e-17
-1.59798e-17
6.69028e-16
1.81268e-16
-1.79397e-16
-1.49562e-16
-4.79136e-16
3.13231e-16
3.58258e-16
-1.59074e-17
-1.30121e-16
1.34288e-16
2.70935e-17
-1.43651e-16
-1.11823e-16
-7.83087e-17
-8.47378e-17
-7.63228e-17
7.30215e-17
-3.36718e-18
1.63667e-17
-2.02051e-16
8.77858e-17
-4.15426e-16
6.55113e-17
-6.52729e-17
0
-1.8062e-16
-2.15825e-17
-1.67431e-16
2.45924e-17
1.63585e-16
1.13107e-16
-2.97545e-17
2.48375e-18
7.99696e-17
0
-1.5855e-16
-6.25657e-17
-1.27686e-18
4.21641e-16
-1.07517e-17
6.53929e-16
-3.00516e-16
8.87851e-19
7.44971e-18
2.19102e-16
-2.78342e-17
1.62381e-16
-1.51451e-16
-1.4353e-16
0
1.6284e-16
1.23849e-16
1.88694e-18
-2.77074e-18
8.87092e-17
6.35728e-17
0
-2.97418e-16
0
-6.00456e-17
2.89309e-16
5.98752e-18
6.3619e-17
-2.11868e-16
1.9719e-16
2.21891e-16
2.13997e-16
2.08405e-16
0
-1.58196e-16
0
9.31678e-18
-9.6763e-18
0
-9.93074e-19
5.00758e-17
2.12461e-16
1.62395e-17
-1.49607e-16
4.7001e-16
-1.48082e-16
0
0
-2.64709e-16
-2.1499e-16
-2.07315e-16
-3.94206e-16
-5.5489e-17
0
0
0
-2.03512e-17
2.15366e-17
1.42336e-16
-5.08612e-17
1.71217e-17
0
-3.39393e-16
-2.97092e-16
3.19881e-16
-3.19005e-16
-4.51312e-16
5.36681e-16
1.59687e-16
0
2.39332e-16
2.88572e-16
-6.22525e-17
3.44653e-16
-5.69206e-17
5.92404e-17
2.35605e-16
-1.35267e-16
0
-4.03459e-16
0
-3.79976e-16
3.69821e-16
0
6.41293e-16
2.9637e-16
-6.38545e-16
5.25627e-16
-2.44743e-18
-1.55991e-16
-2.79397e-16
0
4.09595e-16
-6.79223e-16
7.31449e-16
-9.32768e-16
0
0
4.03167e-16
-4.03547e-18
-9.85475e-18
-7.54863e-16
7.67728e-16
-3.67199e-16
3.65702e-16
3.60623e-16
-3.05948e-16
0
0
6.13404e-16
-6.23971e-16
-6.56705e-16
6.54077e-16
-6.39562e-16
6.93688e-16
-1.08857e-15
0
)
;

boundaryField
{
    up
    {
        type            calculated;
        value           nonuniform List<scalar> 
84
(
0
0
0
0
-3.56932e-17
6.33132e-17
-2.59467e-17
1.63666e-17
-1.44531e-17
0
-8.05931e-18
7.57032e-18
-3.96685e-18
8.69572e-19
6.35147e-19
2.09669e-18
0
0
-7.30566e-19
5.55026e-19
4.33257e-19
-4.20689e-19
3.35733e-20
0
1.58171e-19
9.55018e-20
-1.2931e-18
0
2.07862e-18
2.9005e-18
4.10315e-19
-7.54736e-19
3.33846e-19
0
-1.29903e-19
7.25064e-19
-7.8129e-19
1.27361e-18
0
-2.53221e-19
0
0
-1.37062e-19
2.6472e-19
-2.55779e-19
4.65428e-19
-8.75458e-19
7.702e-19
-1.01596e-19
-6.96538e-19
0
0
0
-3.56888e-18
-5.06107e-19
2.39811e-19
0
-1.40315e-18
-1.29604e-18
9.20905e-19
0
0
-4.65859e-19
9.79347e-19
-1.26963e-18
9.23134e-19
0
3.19436e-19
0
0
-3.07125e-18
2.98205e-18
-6.25087e-18
7.17973e-18
0
-1.59798e-17
1.63667e-17
-1.27686e-18
0
5.00758e-17
-5.08612e-17
0
0
0
)
;
    }
    low
    {
        type            calculated;
        value           nonuniform List<scalar> 
84
(
-8.07601e-16
8.00871e-16
-3.8397e-16
6.16289e-16
1.09364e-16
-2.84253e-17
2.37521e-16
3.50958e-17
0
9.84693e-16
-2.49597e-16
1.86579e-16
-2.20328e-16
-1.48911e-15
2.43269e-16
0
-2.26262e-16
2.76632e-17
-2.68912e-17
-1.7224e-16
9.32252e-17
2.40784e-16
4.31916e-16
-3.7117e-16
0
-7.17335e-17
-3.69479e-17
0
-3.39376e-16
-9.82833e-17
-3.39745e-16
-3.67695e-16
3.98039e-16
1.33318e-16
9.16023e-16
7.33218e-17
0
6.06499e-16
6.0765e-16
3.44376e-16
-1.82662e-16
7.26669e-17
7.26694e-17
0
2.88902e-16
6.83809e-16
5.31359e-16
6.81457e-17
0
-1.26883e-15
7.70973e-16
1.1021e-20
3.55518e-20
2.94269e-16
0
-7.16039e-16
0
-4.16331e-17
7.65472e-17
1.60144e-16
2.50659e-16
3.49024e-16
5.99319e-20
8.35248e-16
0
0
-6.21723e-16
7.05878e-16
-7.07308e-16
-2.43389e-16
5.27511e-16
-4.73258e-16
1.0869e-15
5.34026e-16
4.90026e-16
-9.59515e-16
6.67102e-16
-1.99998e-16
4.21641e-16
-2.96554e-16
2.12461e-16
1.87617e-17
-4.03459e-16
4.03615e-16
)
;
    }
    left
    {
        type            calculated;
        value           nonuniform List<scalar> 
19
(
-8.06704e-16
-3.88179e-16
3.98943e-16
1.32357e-17
-7.47563e-16
0
-3.41094e-16
-3.36438e-16
-3.04157e-17
-1.80841e-16
-1.19882e-18
-1.81162e-16
8.14492e-16
-1.80584e-16
8.40928e-16
7.27932e-16
4.33612e-16
6.37705e-16
0
)
;
    }
    right
    {
        type            calculated;
        value           nonuniform List<scalar> 
19
(
4.03167e-16
-3.61652e-18
-9.85475e-18
-7.54957e-16
7.68131e-16
-3.67199e-16
3.65702e-16
3.60623e-16
-3.04568e-16
0
0
6.19137e-16
-6.31873e-16
-6.56705e-16
6.54077e-16
-6.39562e-16
6.93688e-16
-1.17696e-15
0
)
;
    }
    frontAndBackPlanes
    {
        type            empty;
    }
}


// ************************************************************************* //
