/*--------------------------------*- C++ -*----------------------------------*\
  =========                 |
  \\      /  F ield         | OpenFOAM: The Open Source CFD Toolbox
   \\    /   O peration     | Website:  https://openfoam.org
    \\  /    A nd           | Version:  7
     \\/     M anipulation  |
\*---------------------------------------------------------------------------*/
FoamFile
{
    version     2.0;
    format      ascii;
    class       volScalarField;
    location    "0.16";
    object      gradTy;
}
// * * * * * * * * * * * * * * * * * * * * * * * * * * * * * * * * * * * * * //

dimensions      [0 -1 0 1 0 0 0];

internalField   nonuniform List<scalar> 
1596
(
-0.117866
-0.217925
-0.297913
-0.371975
-0.439483
-0.509504
-0.577309
-0.653004
-0.739879
-0.840195
-0.979875
-1.1579
-1.4088
-1.77212
-2.34568
-3.24827
-4.87022
-7.86884
-18.5876
-0.357781
-0.438143
-0.488477
-0.530674
-0.567263
-0.608976
-0.652371
-0.707171
-0.776945
-0.862132
-0.984902
-1.14211
-1.35713
-1.64784
-2.06472
-2.63214
-3.48073
-4.73059
-8.27809
-0.636928
-0.659555
-0.666343
-0.671882
-0.676236
-0.689
-0.706701
-0.738134
-0.786197
-0.850099
-0.94843
-1.07596
-1.24909
-1.47595
-1.78739
-2.18603
-2.74312
-3.50809
-5.14596
-0.925043
-0.87191
-0.828732
-0.795703
-0.767829
-0.751833
-0.7437
-0.750806
-0.775238
-0.815409
-0.886743
-0.982967
-1.11588
-1.28863
-1.52108
-1.80741
-2.18983
-2.68751
-3.53639
-1.18512
-1.06299
-0.972875
-0.903327
-0.845126
-0.801778
-0.768839
-0.75207
-0.752894
-0.769323
-0.814041
-0.880687
-0.977937
-1.10655
-1.28003
-1.48989
-1.76301
-2.10504
-2.60188
-1.3856
-1.22156
-1.09624
-0.996253
-0.911641
-0.843631
-0.787935
-0.74883
-0.727323
-0.721374
-0.741289
-0.781251
-0.847731
-0.940412
-1.06889
-1.22449
-1.42537
-1.67115
-1.99411
-1.51148
-1.33945
-1.19609
-1.07503
-0.969766
-0.880985
-0.805423
-0.746291
-0.704494
-0.678223
-0.675744
-0.69213
-0.73221
-0.795245
-0.888276
-1.00342
-1.15344
-1.33555
-1.56203
-1.56565
-1.41244
-1.26878
-1.13789
-1.0192
-0.91464
-0.822877
-0.746672
-0.687165
-0.643031
-0.620843
-0.616704
-0.634191
-0.672455
-0.736734
-0.82029
-0.932324
-1.06933
-1.23576
-1.56397
-1.44819
-1.31866
-1.18823
-1.06306
-0.947634
-0.84317
-0.75268
-0.677877
-0.618129
-0.578701
-0.556734
-0.554843
-0.572204
-0.612696
-0.670732
-0.752967
-0.855938
-0.98085
-1.51922
-1.4421
-1.33554
-1.21504
-1.09119
-0.971159
-0.858845
-0.758091
-0.671442
-0.599118
-0.545501
-0.508693
-0.490623
-0.490561
-0.51136
-0.548501
-0.60681
-0.683228
-0.777633
-1.46773
-1.41676
-1.33223
-1.22541
-1.10758
-0.987459
-0.871092
-0.763374
-0.66781
-0.585558
-0.520483
-0.471552
-0.440223
-0.425874
-0.430553
-0.45062
-0.489505
-0.544609
-0.615275
-1.40754
-1.38271
-1.31865
-1.22622
-1.11656
-0.99905
-0.881209
-0.768942
-0.666709
-0.576608
-0.502293
-0.443482
-0.401337
-0.375344
-0.366912
-0.373094
-0.396228
-0.434135
-0.48596
-1.33542
-1.33347
-1.28879
-1.21128
-1.11158
-0.999314
-0.882822
-0.768861
-0.662712
-0.567319
-0.486361
-0.42018
-0.369798
-0.334809
-0.316141
-0.311389
-0.322074
-0.346379
-0.383411
-1.27353
-1.28364
-1.2534
-1.18871
-1.0985
-0.992146
-0.878267
-0.76425
-0.656011
-0.557197
-0.471638
-0.400164
-0.34375
-0.302075
-0.275702
-0.262609
-0.263694
-0.277412
-0.302888
-1.21789
-1.23734
-1.2175
-1.16282
-1.08063
-0.979774
-0.868828
-0.755584
-0.64643
-0.54556
-0.456994
-0.381929
-0.321332
-0.274937
-0.243019
-0.223815
-0.217742
-0.223449
-0.240099
-1.16421
-1.19305
-1.18172
-1.13486
-1.0591
-0.962906
-0.85473
-0.742643
-0.633366
-0.531501
-0.441247
-0.364047
-0.300868
-0.251459
-0.215856
-0.192452
-0.1813
-0.181174
-0.191278
-1.11652
-1.15189
-1.14725
-1.10637
-1.03542
-0.942736
-0.836751
-0.725774
-0.616778
-0.514657
-0.423741
-0.345612
-0.281204
-0.230231
-0.192517
-0.166524
-0.152018
-0.147849
-0.153255
-1.07555
-1.11573
-1.1162
-1.07969
-1.012
-0.921504
-0.816784
-0.706431
-0.597673
-0.495626
-0.404687
-0.326491
-0.261882
-0.210483
-0.1719
-0.144601
-0.128107
-0.121304
-0.123448
-1.03381
-1.08381
-1.09023
-1.05754
-0.992037
-0.902472
-0.797883
-0.687276
-0.57822
-0.476067
-0.385242
-0.307374
-0.243158
-0.192069
-0.153473
-0.125779
-0.108289
-0.0998868
-0.0998327
-0.98959
-1.05161
-1.0656
-1.03717
-0.973563
-0.884297
-0.779142
-0.667709
-0.558013
-0.455675
-0.365133
-0.287964
-0.224666
-0.17451
-0.136597
-0.109225
-0.0914935
-0.0822676
-0.0808072
-0.951638
-1.02266
-1.04413
-1.02006
-0.958058
-0.868477
-0.762019
-0.649078
-0.538237
-0.435443
-0.34514
-0.268821
-0.206742
-0.157921
-0.121158
-0.0945881
-0.0771054
-0.0675506
-0.0652094
-0.917404
-0.99735
-1.02615
-1.00651
-0.946025
-0.855767
-0.747478
-0.632459
-0.519982
-0.416388
-0.326143
-0.25065
-0.189892
-0.142602
-0.10725
-0.0817531
-0.0647618
-0.055074
-0.0520904
-0.884761
-0.974769
-1.01128
-0.996269
-0.937393
-0.846354
-0.735967
-0.618516
-0.504042
-0.399346
-0.308934
-0.234133
-0.174646
-0.128922
-0.0950925
-0.0708013
-0.0543635
-0.0443822
-0.0404819
-0.854618
-0.954691
-0.998645
-0.987763
-0.929934
-0.837464
-0.724428
-0.604046
-0.487218
-0.381275
-0.290592
-0.216564
-0.158529
-0.114651
-0.0826902
-0.0600505
-0.0445222
-0.0341223
-0.0273824
-0.829354
-0.938911
-0.992278
-0.989451
-0.938008
-0.849808
-0.739252
-0.619673
-0.50244
-0.395445
-0.303091
-0.227315
-0.167466
-0.121958
-0.088574
-0.0648751
-0.048358
-0.0367683
-0.0277416
-0.810999
-0.926676
-0.98668
-0.99102
-0.946565
-0.864301
-0.758127
-0.641057
-0.524524
-0.416815
-0.322525
-0.244167
-0.181403
-0.132989
-0.09694
-0.071144
-0.053153
-0.040928
-0.0324115
-0.809377
-0.926069
-0.988848
-0.997634
-0.95854
-0.881747
-0.780237
-0.666483
-0.551623
-0.443999
-0.348411
-0.267689
-0.201829
-0.149968
-0.110513
-0.0817438
-0.061435
-0.0476526
-0.0383227
-0.826535
-0.938938
-0.999714
-1.00904
-0.972553
-0.899666
-0.802338
-0.692223
-0.579865
-0.473367
-0.377486
-0.295202
-0.226693
-0.171396
-0.128126
-0.0957065
-0.0723142
-0.0562524
-0.0454014
-0.860063
-0.965012
-1.01993
-1.02647
-0.990147
-0.919669
-0.82594
-0.71961
-0.610409
-0.505985
-0.410835
-0.32794
-0.257465
-0.198966
-0.151543
-0.114659
-0.0871269
-0.0677869
-0.0545732
-0.908498
-1.00156
-1.0474
-1.0487
-1.01078
-0.94164
-0.851132
-0.748794
-0.643414
-0.542048
-0.44879
-0.366535
-0.295261
-0.234381
-0.182939
-0.140913
-0.107926
-0.083875
-0.0671098
-0.970545
-1.04797
-1.08296
-1.0776
-1.03694
-0.968311
-0.880589
-0.782191
-0.680937
-0.583255
-0.492788
-0.412376
-0.34176
-0.279995
-0.225529
-0.178293
-0.138414
-0.107449
-0.0851028
-1.03565
-1.09983
-1.12414
-1.11172
-1.06787
-0.999393
-0.914292
-0.819884
-0.723036
-0.629566
-0.542694
-0.465347
-0.397209
-0.337054
-0.282297
-0.231874
-0.184937
-0.14422
-0.112442
-1.1085
-1.1586
-1.17147
-1.15135
-1.10378
-1.03508
-0.952369
-0.861889
-0.769561
-0.680591
-0.597783
-0.524316
-0.460184
-0.404481
-0.353939
-0.306223
-0.257211
-0.207345
-0.157401
-1.19262
-1.22683
-1.22752
-1.19947
-1.14827
-1.07965
-0.999755
-0.913783
-0.826684
-0.742988
-0.66518
-0.596568
-0.53783
-0.489256
-0.448558
-0.414014
-0.379641
-0.342489
-0.298744
-1.28438
-1.30111
-1.28687
-1.24795
-1.19006
-1.11845
-1.03827
-0.953865
-0.869277
-0.788139
-0.712714
-0.645761
-0.588325
-0.54144
-0.504771
-0.478856
-0.46098
-0.449127
-0.439338
-1.38685
-1.38055
-1.34801
-1.29577
-1.22897
-1.15223
-1.06973
-0.985159
-0.901873
-0.822725
-0.749911
-0.685458
-0.630338
-0.585255
-0.550301
-0.525714
-0.510904
-0.505837
-0.510145
-1.49915
-1.46563
-1.41405
-1.34863
-1.27311
-1.19113
-1.10601
-1.02086
-0.938509
-0.861318
-0.791278
-0.729961
-0.678097
-0.635995
-0.603403
-0.579567
-0.563167
-0.552741
-0.546561
-1.5996
-1.54156
-1.47288
-1.39552
-1.31195
-1.22491
-1.13706
-1.05094
-0.968912
-0.89294
-0.824686
-0.765426
-0.715631
-0.675388
-0.644299
-0.621517
-0.605747
-0.595663
-0.589713
-1.67866
-1.60401
-1.52269
-1.43613
-1.34625
-1.25522
-1.16522
-1.07835
-0.996632
-0.92168
-0.854922
-0.797411
-0.749452
-0.711004
-0.681611
-0.660376
-0.646026
-0.637241
-0.632495
-1.74072
-1.65348
-1.56251
-1.4689
-1.37417
-1.28009
-1.18845
-1.10102
-1.01953
-0.945374
-0.879795
-0.823678
-0.777217
-0.74028
-0.712371
-0.692542
-0.679532
-0.672015
-0.66848
-1.78563
-1.68904
-1.59084
-1.49208
-1.39391
-1.29769
-1.20493
-1.11713
-1.03584
-0.962264
-0.897542
-0.842446
-0.797092
-0.761284
-0.734497
-0.715732
-0.703717
-0.697097
-0.694353
-1.81558
-1.70951
-1.60596
-1.50398
-1.40385
-1.30651
-1.2132
-1.12526
-1.04413
-0.970912
-0.906687
-0.852173
-0.807451
-0.772301
-0.746191
-0.728115
-0.71681
-0.710923
-0.708931
-1.81559
-1.70953
-1.60598
-1.504
-1.40388
-1.30653
-1.21323
-1.12529
-1.04416
-0.970941
-0.906717
-0.852204
-0.807483
-0.772335
-0.746226
-0.728152
-0.71685
-0.710965
-0.708974
-1.78564
-1.68907
-1.59089
-1.49214
-1.39397
-1.29775
-1.205
-1.1172
-1.03592
-0.962346
-0.897628
-0.842535
-0.797185
-0.761382
-0.734601
-0.715843
-0.703837
-0.697228
-0.694495
-1.74074
-1.65353
-1.56258
-1.46898
-1.37427
-1.28019
-1.18857
-1.10114
-1.01966
-0.945506
-0.879932
-0.823821
-0.777367
-0.740437
-0.712538
-0.69272
-0.679722
-0.672219
-0.6687
-1.67868
-1.60407
-1.52278
-1.43623
-1.34637
-1.25535
-1.16537
-1.07851
-0.996796
-0.92185
-0.8551
-0.797595
-0.749644
-0.711204
-0.681821
-0.660597
-0.646259
-0.63749
-0.632759
-1.59963
-1.54163
-1.47299
-1.39565
-1.3121
-1.22507
-1.13724
-1.05112
-0.969108
-0.893145
-0.824899
-0.765647
-0.715861
-0.675626
-0.644546
-0.621775
-0.606018
-0.595948
-0.590014
-1.49918
-1.46571
-1.41416
-1.34877
-1.27327
-1.19131
-1.1062
-1.02107
-0.938729
-0.861548
-0.791516
-0.730207
-0.678351
-0.636255
-0.603669
-0.579838
-0.563443
-0.553021
-0.546845
-1.38688
-1.38064
-1.34815
-1.29595
-1.22919
-1.15249
-1.07002
-0.98547
-0.902209
-0.823081
-0.750287
-0.685854
-0.630755
-0.585693
-0.550759
-0.526181
-0.51136
-0.506241
-0.510438
-1.2844
-1.30112
-1.2869
-1.248
-1.19013
-1.11855
-1.03839
-0.954005
-0.86943
-0.788296
-0.712866
-0.645896
-0.588431
-0.541508
-0.5048
-0.478858
-0.461018
-0.449312
-0.439843
-1.19263
-1.22689
-1.22764
-1.19965
-1.14852
-1.07997
-1.00014
-0.914231
-0.827181
-0.74352
-0.665738
-0.597144
-0.538423
-0.489877
-0.449236
-0.414796
-0.380592
-0.343668
-0.300187
-1.1085
-1.15862
-1.17152
-1.15144
-1.10393
-1.03529
-0.952628
-0.862194
-0.7699
-0.680953
-0.598159
-0.5247
-0.460577
-0.404891
-0.354382
-0.306708
-0.257725
-0.207836
-0.157774
-1.03564
-1.09983
-1.12417
-1.1118
-1.06801
-0.99959
-0.914543
-0.820181
-0.723366
-0.629918
-0.543056
-0.465714
-0.397579
-0.33743
-0.28268
-0.232254
-0.18529
-0.144515
-0.112665
-0.970539
-1.04797
-1.08298
-1.07766
-1.03706
-0.96849
-0.880822
-0.782468
-0.681244
-0.583579
-0.493118
-0.412704
-0.342084
-0.280311
-0.22583
-0.17857
-0.138652
-0.107641
-0.0852494
-0.908491
-1.00154
-1.04741
-1.04875
-1.01088
-0.941803
-0.851346
-0.749049
-0.643695
-0.542343
-0.449085
-0.366823
-0.295536
-0.234638
-0.183172
-0.141116
-0.108093
-0.0840077
-0.0672137
-0.860052
-0.964993
-1.01993
-1.02651
-0.990237
-0.919814
-0.826134
-0.719841
-0.610663
-0.506247
-0.411093
-0.328187
-0.257694
-0.199173
-0.151723
-0.11481
-0.0872486
-0.0678838
-0.054651
-0.826525
-0.938918
-0.999709
-1.00907
-0.972631
-0.899794
-0.80251
-0.692429
-0.580089
-0.473596
-0.377708
-0.29541
-0.226881
-0.17156
-0.128265
-0.0958207
-0.072406
-0.0563265
-0.0454632
-0.809366
-0.926048
-0.988841
-0.997658
-0.958608
-0.881859
-0.780388
-0.666662
-0.551816
-0.444195
-0.348598
-0.267861
-0.201982
-0.150099
-0.110622
-0.0818326
-0.0615068
-0.0477124
-0.0383759
-0.810988
-0.926654
-0.986667
-0.99103
-0.946608
-0.864379
-0.758236
-0.641187
-0.524665
-0.416957
-0.322659
-0.24429
-0.181511
-0.13308
-0.0970141
-0.0712036
-0.0532013
-0.0409704
-0.0324565
-0.829368
-0.938919
-0.99229
-0.989472
-0.938043
-0.849857
-0.739314
-0.619745
-0.502518
-0.395526
-0.303171
-0.227392
-0.167537
-0.122023
-0.088631
-0.0649254
-0.0484018
-0.0368051
-0.0277677
-0.854633
-0.954704
-0.99865
-0.987755
-0.929912
-0.837429
-0.724383
-0.603994
-0.487164
-0.381223
-0.290544
-0.216522
-0.158494
-0.114623
-0.0826679
-0.0600327
-0.0445073
-0.0341081
-0.027364
-0.88477
-0.974776
-1.01128
-0.996272
-0.937393
-0.846352
-0.735965
-0.618513
-0.50404
-0.399346
-0.308935
-0.234135
-0.17465
-0.128926
-0.0950962
-0.0708049
-0.0543671
-0.0443857
-0.0404841
-0.91741
-0.997355
-1.02615
-1.0065
-0.946021
-0.855761
-0.747472
-0.632454
-0.519977
-0.416386
-0.326142
-0.250651
-0.189893
-0.142604
-0.107252
-0.0817554
-0.0647643
-0.0550764
-0.0520923
-0.951643
-1.02266
-1.04413
-1.02006
-0.958054
-0.868472
-0.762014
-0.649074
-0.538235
-0.435441
-0.345139
-0.268821
-0.206743
-0.157922
-0.121159
-0.0945899
-0.0771074
-0.0675527
-0.0652112
-0.989593
-1.05162
-1.0656
-1.03717
-0.97356
-0.884294
-0.779139
-0.667707
-0.558011
-0.455674
-0.365133
-0.287964
-0.224666
-0.174511
-0.136598
-0.109227
-0.0914954
-0.0822698
-0.0808092
-1.03381
-1.08381
-1.09023
-1.05754
-0.992034
-0.90247
-0.797881
-0.687274
-0.578219
-0.476067
-0.385242
-0.307373
-0.243157
-0.192069
-0.153474
-0.12578
-0.108291
-0.0998892
-0.0998348
-1.07555
-1.11573
-1.1162
-1.07969
-1.012
-0.921502
-0.816783
-0.70643
-0.597672
-0.495625
-0.404686
-0.32649
-0.261881
-0.210483
-0.171901
-0.144602
-0.128109
-0.121306
-0.12345
-1.11652
-1.15189
-1.14725
-1.10637
-1.03542
-0.942736
-0.836751
-0.725773
-0.616778
-0.514656
-0.42374
-0.345611
-0.281203
-0.230231
-0.192517
-0.166525
-0.15202
-0.147852
-0.153257
-1.16421
-1.19305
-1.18172
-1.13486
-1.0591
-0.962906
-0.85473
-0.742643
-0.633366
-0.5315
-0.441245
-0.364046
-0.300867
-0.251458
-0.215857
-0.192454
-0.181302
-0.181176
-0.19128
-1.21789
-1.23734
-1.2175
-1.16282
-1.08063
-0.979775
-0.868828
-0.755584
-0.646429
-0.545559
-0.456993
-0.381927
-0.321331
-0.274937
-0.24302
-0.223816
-0.217744
-0.22345
-0.240099
-1.27353
-1.28364
-1.2534
-1.18871
-1.0985
-0.992147
-0.878268
-0.76425
-0.65601
-0.557195
-0.471636
-0.400162
-0.343749
-0.302074
-0.275702
-0.26261
-0.263694
-0.277411
-0.302886
-1.33542
-1.33347
-1.28879
-1.21128
-1.11158
-0.999316
-0.882823
-0.768861
-0.662711
-0.567318
-0.486359
-0.420179
-0.369798
-0.334809
-0.316141
-0.311389
-0.322072
-0.346376
-0.383408
-1.40754
-1.38271
-1.31865
-1.22622
-1.11656
-0.999051
-0.881209
-0.768941
-0.666707
-0.576606
-0.502291
-0.443481
-0.401337
-0.375344
-0.366911
-0.373092
-0.396225
-0.43413
-0.485956
-1.46773
-1.41676
-1.33223
-1.22541
-1.10759
-0.987461
-0.871093
-0.763374
-0.667809
-0.585557
-0.520482
-0.471551
-0.440223
-0.425874
-0.430552
-0.450617
-0.4895
-0.544602
-0.61527
-1.51922
-1.4421
-1.33554
-1.21504
-1.09119
-0.971161
-0.858845
-0.758091
-0.671441
-0.599118
-0.545501
-0.508693
-0.490624
-0.490561
-0.511358
-0.548497
-0.606803
-0.68322
-0.777629
-1.56396
-1.44819
-1.31866
-1.18823
-1.06307
-0.947635
-0.84317
-0.75268
-0.677877
-0.618129
-0.578702
-0.556734
-0.554843
-0.572203
-0.612694
-0.670728
-0.75296
-0.85593
-0.980849
-1.56565
-1.41244
-1.26879
-1.13789
-1.0192
-0.914641
-0.822878
-0.746672
-0.687166
-0.643032
-0.620844
-0.616704
-0.634191
-0.672454
-0.73673
-0.820284
-0.932317
-1.06932
-1.23576
-1.51148
-1.33946
-1.19609
-1.07503
-0.969768
-0.880987
-0.805424
-0.746292
-0.704495
-0.678225
-0.675746
-0.692131
-0.73221
-0.795243
-0.888272
-1.00341
-1.15344
-1.33555
-1.56203
-1.38561
-1.22156
-1.09625
-0.996255
-0.911643
-0.843633
-0.787937
-0.748832
-0.727326
-0.721376
-0.741291
-0.781252
-0.84773
-0.940409
-1.06889
-1.22449
-1.42536
-1.67115
-1.99411
-1.18513
-1.06299
-0.972878
-0.903329
-0.845129
-0.801781
-0.768842
-0.752073
-0.752897
-0.769325
-0.814043
-0.880687
-0.977935
-1.10655
-1.28003
-1.48988
-1.76301
-2.10505
-2.60189
-0.925048
-0.871911
-0.828734
-0.795705
-0.767831
-0.751836
-0.743704
-0.75081
-0.775241
-0.815411
-0.886745
-0.982967
-1.11587
-1.28863
-1.52108
-1.80741
-2.18984
-2.68752
-3.53639
-0.636931
-0.659556
-0.666344
-0.671883
-0.676238
-0.689003
-0.706704
-0.738137
-0.7862
-0.850102
-0.948431
-1.07596
-1.24909
-1.47595
-1.78739
-2.18603
-2.74312
-3.50809
-5.14596
-0.357783
-0.438142
-0.488476
-0.530674
-0.567264
-0.608977
-0.652373
-0.707173
-0.776947
-0.862134
-0.984903
-1.14211
-1.35712
-1.64783
-2.06472
-2.63214
-3.48073
-4.73059
-8.27809
-0.117867
-0.217925
-0.297913
-0.371975
-0.439482
-0.509504
-0.577309
-0.653005
-0.73988
-0.840196
-0.979875
-1.1579
-1.40879
-1.77212
-2.34567
-3.24827
-4.87022
-7.86884
-18.5876
)
;

boundaryField
{
    up
    {
        type            calculated;
        value           nonuniform List<scalar> 
84
(
-16.8447
-9.12312
-5.59381
-3.80164
-2.77575
-2.11713
-1.65356
-1.3058
-1.03489
-0.819377
-0.6471
-0.509781
-0.400935
-0.315469
-0.248897
-0.197262
-0.157195
-0.125936
-0.101305
-0.0815939
-0.0655385
-0.0520697
-0.0397545
-0.0243603
-0.0234369
-0.030032
-0.0357313
-0.0423297
-0.0507615
-0.0621913
-0.0783165
-0.101496
-0.139721
-0.291827
-0.448017
-0.515778
-0.544091
-0.587551
-0.630926
-0.6675
-0.69376
-0.708736
-0.70878
-0.693908
-0.667726
-0.631197
-0.58786
-0.544379
-0.515971
-0.448558
-0.293492
-0.140072
-0.10169
-0.0784485
-0.0622866
-0.050834
-0.0423882
-0.0357826
-0.0300878
-0.0234679
-0.0243387
-0.0397555
-0.0520711
-0.0655401
-0.0815956
-0.101306
-0.125937
-0.157196
-0.197262
-0.248896
-0.315467
-0.400933
-0.509778
-0.647097
-0.819376
-1.03489
-1.30581
-1.65357
-2.11714
-2.77576
-3.80164
-5.59381
-9.12312
-16.8447
)
;
    }
    low
    {
        type            calculated;
        value           nonuniform List<scalar> 
84
(
-0.126596
-0.374278
-0.672455
-0.984325
-1.26637
-1.48099
-1.60941
-1.6563
-1.63638
-1.56881
-1.50577
-1.43464
-1.34742
-1.27751
-1.21741
-1.15716
-1.10357
-1.06084
-1.01511
-0.961811
-0.916601
-0.876487
-0.836742
-0.799936
-0.763425
-0.739981
-0.739199
-0.764186
-0.807972
-0.869219
-0.942647
-1.01531
-1.09663
-1.19033
-1.28985
-1.40245
-1.52858
-1.63745
-1.72122
-1.78717
-1.83522
-1.86991
-1.86992
-1.83523
-1.78718
-1.72123
-1.63746
-1.52859
-1.40247
-1.28984
-1.19034
-1.09662
-1.0153
-0.942639
-0.869212
-0.807964
-0.764183
-0.739198
-0.739983
-0.763431
-0.799957
-0.836744
-0.876492
-0.916605
-0.961813
-1.01512
-1.06084
-1.10357
-1.15716
-1.21741
-1.27751
-1.34742
-1.43464
-1.50576
-1.56881
-1.63638
-1.6563
-1.60941
-1.48099
-1.26637
-0.984333
-0.672461
-0.374282
-0.126597
)
;
    }
    left
    {
        type            calculated;
        value           nonuniform List<scalar> 
19
(
-0.115683
-0.214031
-0.29574
-0.372459
-0.443014
-0.516088
-0.587038
-0.666449
-0.757665
-0.864412
-1.01377
-1.20579
-1.47965
-1.88269
-2.52455
-3.55098
-5.41621
-8.90441
-17.4702
)
;
    }
    right
    {
        type            calculated;
        value           nonuniform List<scalar> 
19
(
-0.115684
-0.214031
-0.29574
-0.372458
-0.443014
-0.516089
-0.587038
-0.66645
-0.757666
-0.864412
-1.01377
-1.20578
-1.47964
-1.88268
-2.52455
-3.55097
-5.41621
-8.90441
-17.4702
)
;
    }
    frontAndBackPlanes
    {
        type            empty;
    }
}


// ************************************************************************* //
