/*--------------------------------*- C++ -*----------------------------------*\
  =========                 |
  \\      /  F ield         | OpenFOAM: The Open Source CFD Toolbox
   \\    /   O peration     | Website:  https://openfoam.org
    \\  /    A nd           | Version:  7
     \\/     M anipulation  |
\*---------------------------------------------------------------------------*/
FoamFile
{
    version     2.0;
    format      ascii;
    class       volScalarField;
    location    "0.16";
    object      gradTx;
}
// * * * * * * * * * * * * * * * * * * * * * * * * * * * * * * * * * * * * * //

dimensions      [0 -1 0 1 0 0 0];

internalField   nonuniform List<scalar> 
1596
(
-0.0566227
-0.283839
-0.506249
-0.702883
-0.870951
-1.00897
-1.12347
-1.21876
-1.30119
-1.3825
-1.46669
-1.56795
-1.70225
-1.89152
-2.16063
-2.56917
-3.20718
-4.26813
-6.15204
0.0130266
-0.23463
-0.453398
-0.63951
-0.796282
-0.923956
-1.02854
-1.11231
-1.18017
-1.23858
-1.28919
-1.34014
-1.39532
-1.45994
-1.53336
-1.61284
-1.6741
-1.66608
-1.47907
0.0704648
-0.188053
-0.398525
-0.571247
-0.714152
-0.829523
-0.922616
-0.994998
-1.05005
-1.09148
-1.11966
-1.13923
-1.15042
-1.15403
-1.14709
-1.12358
-1.06455
-0.935732
-0.668169
0.0807253
-0.16031
-0.350425
-0.5041
-0.630052
-0.731448
-0.812406
-0.874175
-0.918945
-0.948715
-0.963487
-0.965676
-0.954543
-0.929536
-0.88816
-0.82558
-0.730052
-0.581719
-0.340247
0.0281527
-0.162227
-0.317546
-0.445387
-0.551004
-0.636751
-0.70511
-0.756952
-0.793495
-0.815561
-0.823145
-0.817185
-0.796789
-0.761013
-0.708186
-0.634877
-0.53449
-0.396225
-0.197552
-0.0817044
-0.198216
-0.306698
-0.402315
-0.484207
-0.552428
-0.607431
-0.649447
-0.678811
-0.695448
-0.699393
-0.69054
-0.668019
-0.630714
-0.577516
-0.505866
-0.412215
-0.290816
-0.129412
-0.226974
-0.265237
-0.321119
-0.380095
-0.435384
-0.484111
-0.524613
-0.556209
-0.578397
-0.590369
-0.59209
-0.582718
-0.561368
-0.526777
-0.478087
-0.413154
-0.330032
-0.225586
-0.0931988
-0.378025
-0.350052
-0.355853
-0.37768
-0.405295
-0.433373
-0.458472
-0.47891
-0.493418
-0.500598
-0.500216
-0.490932
-0.471781
-0.441368
-0.398868
-0.3423
-0.270451
-0.181437
-0.0716226
-0.53357
-0.46013
-0.422362
-0.40739
-0.405425
-0.410187
-0.417238
-0.424051
-0.428727
-0.429381
-0.425453
-0.415256
-0.397657
-0.3711
-0.334643
-0.286306
-0.225078
-0.149556
-0.0575106
-0.626659
-0.53776
-0.47496
-0.434044
-0.408877
-0.394107
-0.3854
-0.379888
-0.375357
-0.369681
-0.36201
-0.350514
-0.333928
-0.310631
-0.279565
-0.238784
-0.187304
-0.123906
-0.047023
-0.703214
-0.608683
-0.531327
-0.471489
-0.426898
-0.394206
-0.370065
-0.351829
-0.3373
-0.324315
-0.311806
-0.297891
-0.28119
-0.26003
-0.233227
-0.198844
-0.155808
-0.102906
-0.0388294
-0.782433
-0.688431
-0.602286
-0.527756
-0.465866
-0.415652
-0.375332
-0.343007
-0.316843
-0.294834
-0.275793
-0.257836
-0.239464
-0.218938
-0.194929
-0.165491
-0.129408
-0.0853833
-0.0321364
-0.806762
-0.725577
-0.641982
-0.563069
-0.49252
-0.431566
-0.380071
-0.337191
-0.301749
-0.272149
-0.247305
-0.225475
-0.205157
-0.184642
-0.162543
-0.136972
-0.106636
-0.0702009
-0.0263838
-0.816337
-0.748741
-0.671916
-0.59339
-0.518454
-0.450176
-0.389966
-0.338167
-0.294419
-0.257684
-0.227121
-0.201196
-0.178468
-0.15728
-0.136215
-0.113449
-0.0876391
-0.057428
-0.0215305
-0.820235
-0.764762
-0.695946
-0.620412
-0.543941
-0.470865
-0.403906
-0.344586
-0.293433
-0.250052
-0.213954
-0.183859
-0.158423
-0.136057
-0.115327
-0.0944691
-0.0721046
-0.0468693
-0.0174808
-0.806295
-0.76387
-0.704703
-0.634941
-0.560296
-0.485785
-0.415072
-0.3507
-0.294061
-0.245434
-0.204765
-0.17108
-0.143181
-0.119579
-0.0988573
-0.0793163
-0.0595701
-0.0382688
-0.0141504
-0.77299
-0.743204
-0.694766
-0.632984
-0.563154
-0.490495
-0.419223
-0.352647
-0.29291
-0.240932
-0.197125
-0.160857
-0.131127
-0.106576
-0.0858399
-0.0672984
-0.0495843
-0.031382
-0.0114679
-0.732094
-0.71062
-0.671792
-0.618483
-0.554964
-0.486206
-0.416638
-0.350064
-0.289212
-0.23556
-0.189959
-0.152119
-0.121254
-0.0961524
-0.0755224
-0.0578256
-0.0417293
-0.0259629
-0.00935248
-0.698026
-0.683154
-0.651585
-0.60501
-0.546767
-0.481456
-0.413583
-0.347292
-0.285771
-0.230956
-0.184065
-0.145094
-0.113431
-0.0879794
-0.0674987
-0.0505036
-0.035682
-0.0217981
-0.0077245
-0.632991
-0.627241
-0.604606
-0.566901
-0.516785
-0.458271
-0.395633
-0.333064
-0.274005
-0.220728
-0.174761
-0.136393
-0.10522
-0.0803068
-0.0605149
-0.0444483
-0.030845
-0.0185294
-0.00645622
-0.558593
-0.560087
-0.545638
-0.516569
-0.474981
-0.424282
-0.368365
-0.311261
-0.25647
-0.206444
-0.162914
-0.126403
-0.0966973
-0.0730321
-0.0543907
-0.0394796
-0.0270869
-0.0160809
-0.00551125
-0.479
-0.48507
-0.477384
-0.456273
-0.423168
-0.380829
-0.332672
-0.282404
-0.233406
-0.188153
-0.148451
-0.114983
-0.0876887
-0.0659732
-0.0489668
-0.0355045
-0.024423
-0.0145686
-0.00496947
-0.388673
-0.396843
-0.394662
-0.381277
-0.357245
-0.324505
-0.285825
-0.244378
-0.203234
-0.164725
-0.1306
-0.101636
-0.0778914
-0.0589599
-0.0441728
-0.0325714
-0.0230971
-0.0145332
-0.00551406
-0.28489
-0.281135
-0.270035
-0.251864
-0.227995
-0.200397
-0.171265
-0.142591
-0.116044
-0.0926572
-0.0729448
-0.0569144
-0.0441837
-0.0342457
-0.0265701
-0.0205783
-0.0156159
-0.0107878
-0.00476157
-0.190414
-0.2104
-0.229088
-0.241987
-0.246402
-0.241342
-0.227571
-0.206986
-0.182259
-0.15601
-0.130393
-0.106996
-0.08652
-0.0693185
-0.0554018
-0.044566
-0.0362681
-0.029714
-0.02353
-0.0639314
-0.0721137
-0.0821372
-0.0916036
-0.0987331
-0.10237
-0.102211
-0.0985053
-0.0921386
-0.0841487
-0.0753839
-0.0666703
-0.0582424
-0.0503477
-0.0431712
-0.0370753
-0.032177
-0.0286089
-0.0261486
0.0628939
0.0533343
0.038913
0.0217783
0.00410709
-0.0122227
-0.0259417
-0.0363837
-0.0435992
-0.0480502
-0.0502113
-0.0507007
-0.0496627
-0.0473026
-0.0438697
-0.0400296
-0.0363165
-0.0333255
-0.0311668
0.188797
0.175803
0.155544
0.130338
0.102649
0.0748174
0.0487349
0.0256586
0.00611245
-0.00994852
-0.0227228
-0.0326148
-0.0396044
-0.0436693
-0.0448532
-0.0438791
-0.0416015
-0.0391399
-0.0370293
0.301365
0.282378
0.255082
0.222109
0.185986
0.149159
0.113698
0.0810385
0.0519304
0.0265072
0.00469936
-0.0137698
-0.0287163
-0.0397643
-0.046436
-0.0491145
-0.0486698
-0.0467462
-0.0444862
0.416155
0.389316
0.353816
0.312367
0.267595
0.22204
0.177846
0.136483
0.0987699
0.0648654
0.0346904
0.00791811
-0.0152813
-0.0342839
-0.0479349
-0.0558367
-0.0582902
-0.0572199
-0.054601
0.500275
0.464642
0.421546
0.373558
0.323201
0.272744
0.224008
0.178154
0.135808
0.0969767
0.0614617
0.0287478
-0.00121761
-0.0278486
-0.0494259
-0.0644479
-0.0717017
-0.0724498
-0.0692017
0.576641
0.533662
0.483231
0.428939
0.373428
0.318709
0.266268
0.216945
0.171158
0.128746
0.0893707
0.0522384
0.0168241
-0.0168559
-0.0471914
-0.0720134
-0.087936
-0.0938865
-0.0914912
0.644743
0.592093
0.533903
0.4738
0.414128
0.356427
0.301736
0.250519
0.202971
0.158785
0.117552
0.0783065
0.040046
0.00185289
-0.0357146
-0.0713626
-0.100468
-0.11854
-0.121194
0.685101
0.617997
0.548398
0.479523
0.413186
0.350392
0.291734
0.237354
0.18724
0.140982
0.0980709
0.0574963
0.0179764
-0.0222258
-0.0642138
-0.109187
-0.154907
-0.197306
-0.228661
0.706247
0.633745
0.564053
0.499074
0.439115
0.383955
0.333224
0.286466
0.243323
0.203388
0.166359
0.131794
0.0991018
0.0673707
0.0354328
0.000924338
-0.038174
-0.0840755
-0.137223
0.719084
0.644973
0.578108
0.517722
0.462685
0.412104
0.365266
0.321658
0.280976
0.242953
0.207477
0.174473
0.143769
0.115264
0.08894
0.0644956
0.0415482
0.0191386
-0.00447396
0.673321
0.589059
0.516485
0.452921
0.396491
0.345942
0.300314
0.258885
0.221145
0.186602
0.154937
0.1259
0.0991797
0.074604
0.0521882
0.0319675
0.0141664
-0.000834254
-0.0128891
0.585443
0.510043
0.445931
0.390396
0.341585
0.298215
0.259311
0.224138
0.192184
0.162982
0.13624
0.11174
0.0892148
0.0685036
0.0495617
0.0323092
0.0167366
0.00294067
-0.00911922
0.482374
0.420004
0.366637
0.320461
0.280044
0.244303
0.21239
0.183647
0.157616
0.133879
0.112174
0.0923014
0.074018
0.0571654
0.0416799
0.0274662
0.0144974
0.00285553
-0.00748289
0.360808
0.313187
0.272771
0.238082
0.207928
0.181404
0.157815
0.136626
0.117469
0.100013
0.084052
0.0694276
0.0559511
0.0434986
0.0320225
0.021453
0.01178
0.00308114
-0.00464797
0.226172
0.194473
0.168444
0.146544
0.127736
0.111313
0.0967754
0.0837562
0.0720065
0.0613084
0.0515271
0.0425567
0.0342754
0.0266015
0.0195033
0.0129367
0.00689778
0.0014435
-0.00341803
0.0865273
0.0735754
0.0633508
0.0548781
0.0476392
0.0413313
0.0357588
0.0307841
0.0263145
0.0222679
0.0185901
0.0152359
0.0121534
0.00930423
0.00666708
0.00421673
0.00194298
-0.000140475
-0.00203302
-0.0864859
-0.0734814
-0.0632201
-0.0547226
-0.047468
-0.0411518
-0.0355768
-0.0306047
-0.0261418
-0.0221053
-0.0184404
-0.0151015
-0.0120363
-0.00920615
-0.00658931
-0.0041603
-0.00190853
0.000152898
0.00202384
-0.226133
-0.194388
-0.168328
-0.146407
-0.127585
-0.111156
-0.096617
-0.0836012
-0.0718586
-0.0611707
-0.0514022
-0.0424468
-0.0341824
-0.026527
-0.0194485
-0.0129025
-0.00688479
-0.0014516
0.00338947
-0.360768
-0.313104
-0.272657
-0.237945
-0.207777
-0.181244
-0.157651
-0.136465
-0.117313
-0.0998658
-0.0839168
-0.0693057
-0.0558443
-0.0434078
-0.0319482
-0.0213956
-0.0117392
-0.0030562
0.00465816
-0.482343
-0.419944
-0.366555
-0.320362
-0.279936
-0.244189
-0.212274
-0.183535
-0.157509
-0.133781
-0.112087
-0.0922262
-0.0739561
-0.0571177
-0.0416468
-0.0274475
-0.0144927
-0.00286412
0.00746214
-0.585421
-0.510001
-0.445871
-0.390323
-0.341503
-0.298127
-0.259222
-0.224051
-0.192102
-0.162907
-0.136175
-0.111685
-0.0891716
-0.0684726
-0.0495429
-0.032302
-0.0167396
-0.00295186
0.0091027
-0.673317
-0.589042
-0.516455
-0.452879
-0.396441
-0.345888
-0.30026
-0.258835
-0.221102
-0.186567
-0.154912
-0.125887
-0.099179
-0.0746167
-0.0522141
-0.0320048
-0.0142106
0.000790725
0.012855
-0.719078
-0.644905
-0.577962
-0.517496
-0.462385
-0.41174
-0.364851
-0.321204
-0.280497
-0.24246
-0.206979
-0.173975
-0.143275
-0.114775
-0.0884574
-0.0640288
-0.0411207
-0.0188033
0.00462892
-0.706367
-0.634067
-0.564581
-0.499798
-0.440013
-0.385003
-0.334392
-0.287727
-0.24465
-0.20476
-0.167762
-0.133222
-0.100559
-0.0688776
-0.0370219
-0.0026447
0.0362795
0.0819983
0.135036
-0.685044
-0.617849
-0.548151
-0.479184
-0.412766
-0.349907
-0.2912
-0.236788
-0.186657
-0.140394
-0.0974876
-0.0569266
-0.017427
0.0227518
0.0647238
0.109708
0.155509
0.198102
0.229801
-0.644783
-0.59219
-0.534048
-0.473986
-0.414345
-0.356666
-0.301988
-0.250778
-0.203231
-0.159042
-0.117803
-0.0785496
-0.0402795
-0.00206915
0.0355333
0.0712488
0.100459
0.118658
0.121405
-0.576665
-0.533722
-0.483323
-0.429058
-0.373569
-0.318865
-0.266434
-0.217117
-0.17133
-0.128915
-0.0895322
-0.052389
-0.0169574
0.0167517
0.0471343
0.0720235
0.088022
0.094033
0.0916657
-0.500301
-0.464705
-0.421643
-0.373683
-0.323349
-0.272908
-0.22418
-0.178328
-0.135977
-0.0971367
-0.0616075
-0.0288743
0.00111749
0.0277847
0.0494085
0.0644831
0.0717837
0.07256
0.069317
-0.41618
-0.38938
-0.353916
-0.312499
-0.267751
-0.222212
-0.178024
-0.136659
-0.0989363
-0.0650164
-0.0348211
-0.00802372
0.0152061
0.0342447
0.0479351
0.055874
0.0583552
0.0572993
0.0546832
-0.301388
-0.282439
-0.25518
-0.222238
-0.186138
-0.149324
-0.113867
-0.0812012
-0.0520799
-0.0266375
-0.00480644
0.0136894
0.0286653
0.0397445
0.0464463
0.0491499
0.0487217
0.0468063
0.0445484
-0.188823
-0.175869
-0.155648
-0.130474
-0.102808
-0.0749864
-0.048903
-0.0258159
-0.00625131
0.00983308
0.0226335
0.0325529
0.0395702
0.0436614
0.0448681
0.0439113
0.0416444
0.0391883
0.0370799
-0.0629167
-0.0533982
-0.0390157
-0.0219121
-0.00426054
0.0120625
0.025787
0.0362443
0.0434818
0.0479582
0.0501456
0.0506606
0.0496461
0.0473065
0.0438897
0.040061
0.0363547
0.0333679
0.031212
0.0638765
0.0719495
0.0818642
0.091239
0.0983065
0.101917
0.101763
0.0980914
0.0917766
0.0838481
0.0751457
0.0664911
0.0581148
0.0502627
0.0431189
0.0370471
0.0321665
0.0286146
0.0261762
0.19045
0.210538
0.229346
0.242362
0.246873
0.241878
0.228136
0.207545
0.182786
0.156484
0.130805
0.107345
0.0868103
0.0695572
0.0555981
0.0447299
0.0364082
0.0298373
0.0236397
0.284847
0.280989
0.269787
0.251532
0.227608
0.199987
0.17086
0.142213
0.115709
0.0923728
0.0727114
0.0567288
0.0440405
0.0341381
0.0264914
0.0205225
0.0155783
0.0107649
0.00475275
0.388694
0.396886
0.394727
0.381357
0.357331
0.32459
0.285902
0.244442
0.203283
0.16476
0.130622
0.101648
0.0778971
0.0589615
0.0441724
0.0325701
0.0230956
0.0145322
0.005514
0.479003
0.485073
0.477387
0.456276
0.423171
0.38083
0.332672
0.282402
0.233402
0.188147
0.148444
0.114977
0.0876832
0.0659687
0.0489634
0.0355022
0.0244217
0.0145682
0.0049696
0.558595
0.56009
0.545641
0.516572
0.474983
0.424282
0.368363
0.311258
0.256466
0.206439
0.162909
0.126398
0.0966936
0.0730294
0.0543889
0.0394787
0.0270866
0.0160809
0.00551132
0.632992
0.627243
0.604608
0.566903
0.516786
0.458271
0.395632
0.333061
0.274001
0.220724
0.174758
0.13639
0.105218
0.0803053
0.0605142
0.0444481
0.0308452
0.0185296
0.00645628
0.698028
0.683157
0.651589
0.605013
0.546769
0.481457
0.413582
0.34729
0.285768
0.230953
0.184062
0.145092
0.11343
0.0879789
0.0674986
0.0505039
0.0356823
0.0217983
0.00772454
0.732095
0.710623
0.671795
0.618485
0.554965
0.486206
0.416637
0.350063
0.289209
0.235558
0.189957
0.152118
0.121254
0.0961523
0.0755226
0.0578259
0.0417295
0.025963
0.00935244
0.772991
0.743205
0.694768
0.632986
0.563155
0.490495
0.419222
0.352646
0.292908
0.240931
0.197124
0.160856
0.131127
0.106576
0.0858399
0.0672984
0.0495841
0.0313817
0.0114678
0.806296
0.763873
0.704706
0.634944
0.560298
0.485786
0.415072
0.350699
0.29406
0.245434
0.204764
0.171079
0.143181
0.119579
0.0988569
0.0793157
0.0595693
0.0382681
0.0141502
0.820235
0.764764
0.695948
0.620414
0.543942
0.470865
0.403906
0.344585
0.293432
0.250051
0.213953
0.183858
0.158422
0.136056
0.115326
0.0944676
0.072103
0.0468681
0.0174805
0.816338
0.748744
0.671919
0.593392
0.518455
0.450176
0.389965
0.338166
0.294418
0.257683
0.22712
0.201195
0.178466
0.157278
0.136212
0.113447
0.0876368
0.0574266
0.0215302
0.806765
0.72558
0.641985
0.563072
0.492521
0.431567
0.380071
0.337191
0.301748
0.272148
0.247304
0.225473
0.205154
0.184639
0.16254
0.136968
0.106634
0.0701994
0.0263836
0.782431
0.688431
0.602285
0.527755
0.465864
0.41565
0.37533
0.343005
0.31684
0.294831
0.27579
0.257833
0.23946
0.218934
0.194925
0.165487
0.129405
0.085382
0.0321365
0.703217
0.608687
0.53133
0.47149
0.426899
0.394206
0.370064
0.351828
0.337298
0.324313
0.311803
0.297887
0.281186
0.260026
0.233222
0.19884
0.155806
0.102906
0.0388298
0.626666
0.537764
0.474962
0.434045
0.408877
0.394106
0.385399
0.379887
0.375355
0.369678
0.362006
0.350509
0.333923
0.310626
0.279562
0.238782
0.187304
0.123906
0.0470237
0.533575
0.460133
0.422363
0.40739
0.405425
0.410187
0.417237
0.42405
0.428724
0.429378
0.425449
0.415251
0.397653
0.371097
0.334641
0.286305
0.225079
0.149558
0.0575114
0.378029
0.350053
0.355853
0.37768
0.405295
0.433373
0.458471
0.478908
0.493416
0.500595
0.500212
0.490928
0.471779
0.441366
0.398869
0.342302
0.270454
0.181439
0.0716232
0.226977
0.265239
0.32112
0.380096
0.435385
0.484112
0.524613
0.556208
0.578395
0.590366
0.592087
0.582716
0.561367
0.526778
0.478089
0.413157
0.330036
0.225588
0.093199
0.0817066
0.198218
0.3067
0.402317
0.484209
0.552428
0.60743
0.649446
0.67881
0.695447
0.699391
0.69054
0.668021
0.630717
0.57752
0.50587
0.412219
0.290818
0.129412
-0.0281515
0.162229
0.317548
0.445389
0.551006
0.636751
0.70511
0.756951
0.793494
0.81556
0.823145
0.817187
0.796792
0.761017
0.70819
0.634881
0.534493
0.396226
0.197552
-0.0807251
0.160311
0.350427
0.504101
0.630052
0.731448
0.812406
0.874174
0.918945
0.948716
0.963488
0.965679
0.954547
0.92954
0.888164
0.825583
0.730053
0.581718
0.340246
-0.0704652
0.188053
0.398525
0.571246
0.714151
0.829523
0.922616
0.994998
1.05005
1.09148
1.11967
1.13923
1.15042
1.15403
1.14709
1.12358
1.06455
0.935729
0.668167
-0.0130266
0.234629
0.453396
0.639509
0.79628
0.923955
1.02854
1.11231
1.18017
1.23859
1.28919
1.34014
1.39532
1.45994
1.53336
1.61284
1.67409
1.66607
1.47907
0.0566233
0.283839
0.506248
0.702881
0.87095
1.00897
1.12347
1.21876
1.30119
1.3825
1.4667
1.56796
1.70225
1.89151
2.16063
2.56916
3.20718
4.26813
6.15205
)
;

boundaryField
{
    up
    {
        type            calculated;
        value           nonuniform List<scalar> 
84
(
-6.15204
-1.47907
-0.668169
-0.340247
-0.197552
-0.129412
-0.0931988
-0.0716226
-0.0575106
-0.047023
-0.0388294
-0.0321364
-0.0263838
-0.0215305
-0.0174808
-0.0141504
-0.0114679
-0.00935248
-0.0077245
-0.00645622
-0.00551125
-0.00496947
-0.00551406
-0.00476157
-0.0198789
-0.024062
-0.0288943
-0.0343356
-0.0411435
-0.0502878
-0.0632505
-0.0818928
-0.105689
-0.222596
-0.140593
-0.00467377
-0.0128079
-0.00906482
-0.00745197
-0.0046357
-0.00341311
-0.00203221
0.00202303
0.00338464
0.00464598
0.00743143
0.0090486
0.0127741
0.00482518
0.13837
0.22393
0.105882
0.0820414
0.063353
0.0503624
0.0412011
0.0343833
0.0289378
0.024099
0.0199763
0.00475275
0.005514
0.0049696
0.00551132
0.00645628
0.00772454
0.00935244
0.0114678
0.0141502
0.0174805
0.0215302
0.0263836
0.0321365
0.0388298
0.0470237
0.0575114
0.0716232
0.093199
0.129412
0.197552
0.340246
0.668167
1.47907
6.15205
)
;
    }
    low
    {
        type            calculated;
        value           nonuniform List<scalar> 
84
(
-0.0509573
0.0216696
0.0843242
0.0956739
0.0374758
-0.0834147
-0.240935
-0.401298
-0.560361
-0.648687
-0.722746
-0.798564
-0.814456
-0.819021
-0.819892
-0.801183
-0.763659
-0.721642
-0.684738
-0.614262
-0.536936
-0.456377
-0.366119
-0.264825
-0.174516
-0.0581535
0.0563091
0.172536
0.280779
0.396045
0.484406
0.564309
0.63727
0.683675
0.709484
0.727724
0.68746
0.600136
0.495254
0.370928
0.232817
0.0892901
-0.0892484
-0.232776
-0.370886
-0.495219
-0.600109
-0.687449
-0.727711
-0.709585
-0.68362
-0.637301
-0.56433
-0.48443
-0.39607
-0.280803
-0.172563
-0.0563324
0.0581
0.174552
0.264785
0.366137
0.45638
0.536938
0.614263
0.68474
0.721644
0.76366
0.801185
0.819892
0.819022
0.814459
0.798561
0.722749
0.648693
0.560365
0.401302
0.240938
0.0834172
-0.0374746
-0.0956743
-0.0843257
-0.0216706
0.0509576
)
;
    }
    left
    {
        type            calculated;
        value           nonuniform List<scalar> 
19
(
-0.0504456
-0.273065
-0.500369
-0.704131
-0.879682
-1.02429
-1.14487
-1.24647
-1.33533
-1.42595
-1.5223
-1.64007
-1.79976
-2.03019
-2.36229
-2.87936
-3.70625
-5.11323
-5.33545
)
;
    }
    right
    {
        type            calculated;
        value           nonuniform List<scalar> 
19
(
0.0504462
0.273066
0.500369
0.70413
0.879681
1.02428
1.14487
1.24647
1.33533
1.42595
1.5223
1.64007
1.79976
2.03018
2.36229
2.87935
3.70625
5.11323
5.33545
)
;
    }
    frontAndBackPlanes
    {
        type            empty;
    }
}


// ************************************************************************* //
