/*--------------------------------*- C++ -*----------------------------------*\
  =========                 |
  \\      /  F ield         | OpenFOAM: The Open Source CFD Toolbox
   \\    /   O peration     | Website:  https://openfoam.org
    \\  /    A nd           | Version:  7
     \\/     M anipulation  |
\*---------------------------------------------------------------------------*/
FoamFile
{
    version     2.0;
    format      ascii;
    class       volScalarField;
    location    "0.04";
    object      T;
}
// * * * * * * * * * * * * * * * * * * * * * * * * * * * * * * * * * * * * * //

dimensions      [0 0 0 1 0 0 0];

internalField   nonuniform List<scalar> 
1596
(
0.988583
0.957008
0.927847
0.905097
0.889477
0.879765
0.87423
0.871115
0.869542
0.868558
0.868041
0.867622
0.865818
0.860348
0.847461
0.819617
0.764558
0.659912
0.462297
0.952574
0.858183
0.778498
0.718598
0.677983
0.652762
0.638286
0.630339
0.62643
0.624565
0.624216
0.624777
0.624336
0.619931
0.606968
0.576957
0.518396
0.414854
0.23956
0.91533
0.76598
0.645695
0.557178
0.497605
0.460675
0.439459
0.427993
0.422487
0.420236
0.420311
0.42201
0.42375
0.423092
0.416182
0.395684
0.3519
0.272269
0.138972
0.88613
0.695297
0.544998
0.435383
0.361647
0.315785
0.289296
0.275011
0.26813
0.26539
0.265453
0.267504
0.270387
0.272446
0.270997
0.260525
0.233445
0.17987
0.0867258
0.869452
0.652225
0.481453
0.356543
0.2719
0.218731
0.187652
0.170707
0.162323
0.158763
0.15826
0.159826
0.162585
0.165514
0.166989
0.163298
0.148984
0.116443
0.0555671
0.864446
0.634209
0.450667
0.314651
0.221142
0.161472
0.125981
0.106259
0.0961493
0.0914895
0.0900865
0.0907228
0.0926182
0.0951267
0.0973568
0.0970546
0.0906354
0.0726054
0.0352444
0.867159
0.63388
0.44342
0.299383
0.198403
0.13268
0.0927797
0.0701139
0.058107
0.0522113
0.0498293
0.0494864
0.0503614
0.0519587
0.0537975
0.054623
0.0522916
0.0431465
0.0216151
0.873392
0.643286
0.450137
0.300523
0.193265
0.121926
0.077679
0.0519876
0.0380033
0.0308442
0.027547
0.0263794
0.0264038
0.0271326
0.0282568
0.0291126
0.028528
0.0242759
0.0126357
0.880961
0.657242
0.46409
0.310703
0.198178
0.121676
0.0732138
0.0444891
0.0285027
0.0200911
0.0159692
0.0141603
0.0135806
0.01368
0.0141829
0.0147236
0.0147044
0.0128834
0.00698121
0.887091
0.670286
0.478769
0.323304
0.206854
0.126096
0.0739625
0.042501
0.0246782
0.0151246
0.0102975
0.00801037
0.00703909
0.00675184
0.00684633
0.00708142
0.00715627
0.00643065
0.00362499
0.890731
0.679541
0.490343
0.334244
0.21536
0.131557
0.0766049
0.0429475
0.0236125
0.0131102
0.0077151
0.00507908
0.00386253
0.00335969
0.00322658
0.00326094
0.00329498
0.0030156
0.00176234
0.893985
0.687001
0.499687
0.343354
0.22282
0.136788
0.079687
0.0443099
0.0237715
0.0125096
0.0066686
0.00377694
0.00240429
0.00178555
0.00153908
0.00146639
0.00144991
0.00133468
0.000802743
0.896151
0.691876
0.505754
0.349321
0.227804
0.140396
0.0819377
0.045457
0.02414
0.0123865
0.00626125
0.00321395
0.0017553
0.00108178
0.000786877
0.000667357
0.000621391
0.000562709
0.000343889
0.896223
0.692653
0.50704
0.350766
0.229097
0.141352
0.0825073
0.0456916
0.0241327
0.0122282
0.00601989
0.00293107
0.00145235
0.000767154
0.000460146
0.000326444
0.000269424
0.00023057
0.000139825
0.895417
0.690636
0.50451
0.348283
0.226982
0.139716
0.08132
0.0448636
0.0235647
0.0118354
0.00573841
0.00271681
0.00127684
0.000612622
0.000314924
0.000183562
0.000126163
9.58491e-05
5.52208e-05
0.894077
0.686563
0.498858
0.342378
0.221778
0.135657
0.0784415
0.0429727
0.0223947
0.0111423
0.00533621
0.00248108
0.00113176
0.000514918
0.000240752
0.000120477
6.80931e-05
4.32488e-05
2.21769e-05
0.891643
0.679867
0.489706
0.33284
0.213393
0.129159
0.0738898
0.0400414
0.0206346
0.0101453
0.00479536
0.00219499
0.00098064
0.000432314
0.000191661
8.74286e-05
4.26351e-05
2.24985e-05
9.70435e-06
0.888371
0.670856
0.477422
0.320091
0.202256
0.120607
0.0679696
0.0362856
0.0184211
0.00892094
0.00415155
0.0018691
0.00081957
0.000352986
0.000151409
6.55066e-05
2.92286e-05
1.34677e-05
4.89583e-06
0.88577
0.661711
0.464081
0.305873
0.189731
0.110999
0.0613641
0.0321395
0.0160107
0.00760935
0.0034753
0.00153508
0.000659849
0.000278072
0.000116227
4.85701e-05
2.05684e-05
8.73925e-06
2.8218e-06
0.883436
0.65227
0.449692
0.290302
0.176009
0.10056
0.0542845
0.0277706
0.013519
0.00628153
0.00280586
0.00121239
0.000509754
0.000209999
8.56713e-05
3.48177e-05
1.42345e-05
5.76566e-06
1.74284e-06
0.880469
0.641461
0.433496
0.272991
0.160995
0.0893636
0.046864
0.0233048
0.0110382
0.00499491
0.00217487
0.000916703
0.000376172
0.000151274
6.0226e-05
2.38574e-05
9.48188e-06
3.71879e-06
1.08495e-06
0.877821
0.630506
0.416676
0.25497
0.145512
0.0780144
0.0395085
0.0189903
0.0087069
0.00382025
0.00161548
0.000662236
0.000264603
0.0001037
4.02566e-05
1.55494e-05
6.02257e-06
2.30141e-06
6.57032e-07
0.876169
0.620853
0.40082
0.237609
0.130573
0.0671728
0.0326053
0.0150327
0.00662392
0.00280016
0.00114393
0.000454157
0.000176136
6.7126e-05
2.53765e-05
9.55307e-06
3.60631e-06
1.3431e-06
3.76507e-07
0.875703
0.613596
0.387513
0.222423
0.117302
0.0575281
0.0265121
0.0115894
0.00484598
0.00194891
0.000760183
0.000289298
0.000107972
3.97383e-05
1.45507e-05
5.31123e-06
1.9369e-06
6.8357e-07
1.70271e-07
0.878533
0.615996
0.387311
0.220135
0.114345
0.0549666
0.0247403
0.0105451
0.00430301
0.00169474
0.00065127
0.000246127
9.20546e-05
3.42726e-05
1.28093e-05
4.8034e-06
1.79297e-06
6.2358e-07
1.29498e-07
0.883371
0.626238
0.398362
0.228933
0.120002
0.058015
0.0261469
0.0111061
0.0044966
0.00175271
0.000666615
0.00025029
9.3755e-05
3.53768e-05
1.35996e-05
5.33485e-06
2.11446e-06
7.86066e-07
1.75136e-07
0.886957
0.636697
0.41195
0.241504
0.129277
0.0637552
0.0292146
0.0125459
0.0050953
0.00197363
0.000738423
0.000270367
9.83317e-05
3.61414e-05
1.37286e-05
5.4701e-06
2.28226e-06
9.15717e-07
2.22407e-07
0.889209
0.646739
0.427347
0.257513
0.142338
0.0726564
0.0344643
0.0152829
0.00637378
0.00251222
0.000943301
0.000340032
0.000118821
4.08321e-05
1.42133e-05
5.24947e-06
2.17487e-06
9.41993e-07
2.57315e-07
0.891033
0.656968
0.444435
0.276552
0.158947
0.0847945
0.0421776
0.0196439
0.00860126
0.00354945
0.00138611
0.000513056
0.000179813
5.93376e-05
1.83454e-05
5.38751e-06
1.75096e-06
7.53739e-07
2.5007e-07
0.892535
0.667189
0.462405
0.29753
0.178215
0.0997181
0.0522958
0.0257894
0.0119981
0.00527569
0.00219899
0.000868711
0.000323599
0.00011179
3.44283e-05
8.51748e-06
1.40125e-06
2.0276e-07
1.28126e-07
0.894206
0.677869
0.481172
0.319937
0.199587
0.117103
0.0647886
0.0338955
0.0168206
0.00793377
0.00356879
0.00153224
0.000625666
0.000239573
8.28431e-05
2.30522e-05
3.49616e-06
-6.11588e-07
-2.66928e-07
0.897311
0.690417
0.501689
0.344239
0.223251
0.137097
0.0798936
0.0442963
0.0234409
0.0118688
0.00577397
0.00270557
0.00122044
0.000525839
0.000211293
7.33556e-05
1.78462e-05
3.5206e-07
-1.20314e-06
0.900799
0.703212
0.522353
0.369086
0.248222
0.159133
0.0974397
0.0571286
0.0321767
0.0174601
0.00917206
0.00468295
0.00232863
0.00112529
0.000522397
0.000222919
7.86636e-05
1.59073e-05
-2.62035e-06
0.904286
0.715646
0.542557
0.393937
0.274078
0.182974
0.117429
0.0726259
0.0434308
0.0251914
0.0142472
0.00789585
0.00430481
0.00231339
0.00122266
0.000622442
0.000290671
0.000109694
1.84532e-05
0.907129
0.726015
0.559752
0.41571
0.297555
0.205529
0.137223
0.0887502
0.0557761
0.0341598
0.020489
0.0120949
0.00705576
0.00408089
0.00234271
0.0013191
0.000704502
0.000323778
8.11881e-05
0.907839
0.730385
0.568198
0.427412
0.311039
0.219241
0.149911
0.0996423
0.0645717
0.0409091
0.025461
0.0156412
0.00952189
0.00576283
0.00347292
0.00206353
0.00117484
0.000587419
0.000170028
0.906923
0.730327
0.570116
0.431373
0.31651
0.225461
0.15616
0.105383
0.0694981
0.0449119
0.028579
0.0179914
0.0112466
0.00699944
0.0043394
0.00264893
0.00154422
0.000787089
0.00023207
0.906391
0.730639
0.572074
0.435014
0.321412
0.231019
0.161781
0.110609
0.0740521
0.0486787
0.0315709
0.0202942
0.0129737
0.00826538
0.00524581
0.00327426
0.00194667
0.00100886
0.000302669
0.906453
0.731646
0.574399
0.438599
0.325914
0.235971
0.166731
0.115203
0.0780738
0.0520348
0.0342689
0.0224006
0.0145785
0.00946105
0.00611552
0.00388284
0.00234289
0.00122916
0.000373519
0.906531
0.732447
0.576185
0.441334
0.329353
0.239774
0.170562
0.118792
0.0812513
0.0547191
0.0364558
0.0241324
0.0159171
0.0104725
0.00686087
0.0044102
0.00268915
0.00142285
0.000436253
0.90649
0.732767
0.577128
0.442931
0.331468
0.242191
0.173054
0.121171
0.0833909
0.0565534
0.0379712
0.0253485
0.0168692
0.0112004
0.00740261
0.00479647
0.002944
0.00156571
0.000482602
0.906005
0.732233
0.576928
0.443169
0.332097
0.243093
0.174095
0.122235
0.0843921
0.0574405
0.0387229
0.0259643
0.0173595
0.0115806
0.00768897
0.00500261
0.00308103
0.00164299
0.000507873
0.906008
0.73224
0.576939
0.443181
0.332109
0.243104
0.174105
0.122243
0.0843989
0.0574458
0.0387269
0.0259674
0.0173618
0.0115823
0.0076902
0.00500349
0.00308162
0.00164334
0.000507993
0.906499
0.73279
0.577159
0.442967
0.331504
0.242225
0.173084
0.121196
0.0834111
0.0565693
0.0379833
0.0253576
0.016876
0.0112054
0.00740625
0.00479906
0.00294574
0.00156673
0.000482954
0.906546
0.732483
0.576235
0.441391
0.329411
0.239828
0.170609
0.118832
0.0812833
0.0547441
0.0364748
0.0241466
0.0159276
0.0104802
0.00686639
0.00441409
0.00269174
0.00142436
0.00043677
0.906472
0.731695
0.574467
0.438676
0.325992
0.236044
0.166794
0.115256
0.0781162
0.0520675
0.0342935
0.0224188
0.0145917
0.00947055
0.00612229
0.00388756
0.00234601
0.00123096
0.000374133
0.906415
0.7307
0.572159
0.435111
0.32151
0.231109
0.161859
0.110673
0.0741031
0.0487176
0.0315998
0.0203152
0.0129886
0.00827597
0.00525323
0.00327935
0.00194998
0.00101075
0.000303308
0.906952
0.730399
0.570217
0.431488
0.316625
0.225567
0.156251
0.105457
0.0695558
0.0449551
0.0286103
0.0180137
0.0112622
0.00701022
0.00434679
0.00265389
0.00154739
0.00078886
0.000232653
0.907872
0.730468
0.568316
0.427546
0.311173
0.219363
0.150015
0.0997257
0.0646354
0.0409558
0.0254941
0.0156641
0.00953755
0.00577339
0.00348
0.00206818
0.00117777
0.000589059
0.000170582
0.90717
0.726136
0.559933
0.415923
0.297773
0.20573
0.137394
0.088887
0.0558793
0.034234
0.0205404
0.0121294
0.00707849
0.00409565
0.00235227
0.0013253
0.000708495
0.000326163
8.20759e-05
0.904338
0.71579
0.542766
0.394177
0.274317
0.183188
0.117606
0.0727626
0.0435302
0.0252602
0.0142931
0.00792567
0.00432382
0.00232542
0.00123029
0.000627281
0.000293669
0.000111355
1.89978e-05
0.900845
0.703342
0.522541
0.369298
0.248428
0.159311
0.0975802
0.0572314
0.0322472
0.017506
0.00920066
0.00470024
0.00233886
0.00113128
0.000525888
0.000224902
7.96665e-05
1.62317e-05
-2.64947e-06
0.897355
0.690544
0.50187
0.34444
0.22344
0.137255
0.080012
0.0443784
0.0234939
0.0119011
0.00579269
0.00271603
0.00122611
0.000528845
0.000212841
7.40803e-05
1.80778e-05
2.90156e-07
-1.32585e-06
0.894248
0.677991
0.481345
0.320124
0.199757
0.117239
0.064886
0.0339593
0.0168592
0.00795574
0.00358059
0.00153828
0.000628628
0.000240953
8.34264e-05
2.32281e-05
3.4663e-06
-7.2391e-07
-3.50057e-07
0.892574
0.667303
0.462567
0.297702
0.178366
0.099833
0.0523738
0.0258376
0.0120255
0.00529016
0.00220615
0.000872049
0.000325051
0.000112358
3.45958e-05
8.50902e-06
1.32907e-06
1.2853e-07
8.95387e-08
0.891068
0.657074
0.444584
0.276705
0.159076
0.0848885
0.0422381
0.0196791
0.00861994
0.00355862
0.00139028
0.000514814
0.000180479
5.9542e-05
1.83676e-05
5.34706e-06
1.70206e-06
7.19413e-07
2.36223e-07
0.889239
0.646833
0.427479
0.257645
0.142444
0.0727302
0.0345092
0.0153075
0.00638602
0.00251781
0.000945645
0.000340924
0.000119113
4.08981e-05
1.4204e-05
5.22308e-06
2.15346e-06
9.3094e-07
2.53884e-07
0.886984
0.636779
0.412061
0.241612
0.129361
0.0638109
0.0292468
0.0125625
0.00510314
0.00197699
0.000739744
0.000270835
9.84736e-05
3.61712e-05
1.3726e-05
5.46245e-06
2.27788e-06
9.14861e-07
2.22448e-07
0.883393
0.626306
0.398452
0.229018
0.120066
0.0580556
0.0261695
0.0111173
0.00450172
0.00175485
0.000667444
0.000250591
9.38581e-05
3.54107e-05
1.3611e-05
5.3398e-06
2.11789e-06
7.88539e-07
1.76005e-07
0.878536
0.616014
0.387334
0.220156
0.114361
0.0549758
0.024745
0.0105473
0.0043039
0.00169507
0.000651387
0.000246168
9.20707e-05
3.42804e-05
1.2814e-05
4.80671e-06
1.79525e-06
6.24698e-07
1.29516e-07
0.875695
0.613581
0.387492
0.222402
0.117284
0.0575151
0.0265037
0.0115845
0.00484338
0.00194761
0.000759573
0.000289026
0.000107856
3.96901e-05
1.45314e-05
5.30377e-06
1.93408e-06
6.82407e-07
1.69722e-07
0.876169
0.620853
0.40082
0.237609
0.130574
0.0671729
0.0326053
0.0150327
0.00662391
0.00280014
0.00114391
0.000454147
0.00017613
6.71226e-05
2.53747e-05
9.55217e-06
3.60585e-06
1.34283e-06
3.76323e-07
0.877821
0.630506
0.416676
0.25497
0.145513
0.0780145
0.0395086
0.0189903
0.00870692
0.00382026
0.00161548
0.000662237
0.000264603
0.000103699
4.02559e-05
1.55489e-05
6.02224e-06
2.30121e-06
6.5687e-07
0.880469
0.641461
0.433496
0.272991
0.160995
0.0893636
0.046864
0.0233048
0.0110382
0.00499493
0.00217488
0.000916709
0.000376175
0.000151276
6.02263e-05
2.38573e-05
9.48173e-06
3.71867e-06
1.08477e-06
0.883436
0.65227
0.449692
0.290302
0.176009
0.10056
0.0542845
0.0277707
0.013519
0.00628155
0.00280588
0.0012124
0.000509762
0.000210004
8.56735e-05
3.48184e-05
1.42347e-05
5.76578e-06
1.74263e-06
0.88577
0.661711
0.464081
0.305873
0.189731
0.110999
0.0613641
0.0321395
0.0160108
0.00760938
0.00347532
0.0015351
0.000659864
0.000278081
0.000116232
4.85716e-05
2.05689e-05
8.73988e-06
2.82158e-06
0.888371
0.670856
0.477422
0.320091
0.202256
0.120607
0.0679696
0.0362856
0.0184212
0.00892098
0.00415159
0.00186913
0.000819592
0.000353
0.000151415
6.55079e-05
2.9229e-05
1.34698e-05
4.89573e-06
0.891643
0.679867
0.489706
0.332841
0.213393
0.129159
0.0738898
0.0400414
0.0206346
0.0101454
0.00479542
0.00219504
0.000980673
0.000432332
0.000191666
8.74267e-05
4.26354e-05
2.25054e-05
9.70499e-06
0.894078
0.686563
0.498859
0.342379
0.221778
0.135657
0.0784416
0.0429727
0.0223948
0.0111424
0.00533629
0.00248114
0.0011318
0.000514933
0.000240748
0.000120467
6.80968e-05
4.32714e-05
2.21801e-05
0.895418
0.690637
0.504511
0.348283
0.226982
0.139716
0.08132
0.0448637
0.0235648
0.0118355
0.00573851
0.00271689
0.00127688
0.00061262
0.000314897
0.000183541
0.000126187
9.59154e-05
5.52303e-05
0.896224
0.692654
0.507041
0.350767
0.229097
0.141352
0.0825074
0.0456917
0.0241329
0.0122284
0.00602001
0.00293113
0.00145236
0.000767112
0.000460085
0.000326428
0.000269522
0.000230738
0.000139843
0.896151
0.691877
0.505755
0.349321
0.227804
0.140397
0.0819379
0.0454573
0.0241402
0.0123867
0.00626137
0.00321398
0.00175525
0.00108168
0.000786796
0.000667417
0.000621677
0.000563064
0.000343902
0.893986
0.687002
0.499688
0.343354
0.22282
0.136789
0.0796873
0.0443102
0.0237718
0.0125098
0.00666866
0.00377689
0.00240416
0.0017854
0.00153906
0.00146669
0.00145055
0.00133529
0.0008027
0.890731
0.679542
0.490345
0.334245
0.215361
0.131558
0.0766054
0.042948
0.0236128
0.0131103
0.00771507
0.00507894
0.00386233
0.0033596
0.00322682
0.00326171
0.00329611
0.0030164
0.00176212
0.887091
0.670287
0.47877
0.323305
0.206855
0.126096
0.0739631
0.0425014
0.0246784
0.0151246
0.0102973
0.00801014
0.00703894
0.00675203
0.00684711
0.00708282
0.00715778
0.0064313
0.00362445
0.880962
0.657243
0.464091
0.310703
0.198178
0.121676
0.0732142
0.0444893
0.0285027
0.020091
0.015969
0.0141601
0.0135807
0.0136807
0.0141844
0.0147254
0.0147056
0.0128833
0.00698029
0.873392
0.643287
0.450137
0.300524
0.193265
0.121927
0.0776791
0.0519876
0.0380031
0.0308439
0.0275467
0.0263795
0.0264044
0.0271339
0.0282587
0.0291141
0.028528
0.0242744
0.0126346
0.867159
0.63388
0.44342
0.299383
0.198403
0.13268
0.0927795
0.0701136
0.0581066
0.052211
0.0498292
0.0494868
0.0503624
0.0519603
0.0537989
0.0546229
0.0522895
0.0431435
0.0216144
0.864446
0.634209
0.450667
0.31465
0.221142
0.161472
0.125981
0.106258
0.0961487
0.0914891
0.0900865
0.0907234
0.0926192
0.0951276
0.0973565
0.0970522
0.0906311
0.072602
0.0352449
0.869451
0.652224
0.481452
0.356543
0.271899
0.21873
0.187651
0.170706
0.162323
0.158763
0.15826
0.159826
0.162585
0.165514
0.166986
0.163293
0.148979
0.116441
0.055569
0.88613
0.695296
0.544997
0.435382
0.361646
0.315784
0.289295
0.27501
0.268129
0.26539
0.265452
0.267504
0.270386
0.272443
0.270993
0.26052
0.233442
0.179871
0.0867285
0.915329
0.76598
0.645694
0.557177
0.497604
0.460673
0.439457
0.427991
0.422486
0.420235
0.42031
0.422009
0.423748
0.423089
0.416178
0.395681
0.351901
0.272273
0.138974
0.952573
0.858183
0.778498
0.718598
0.677982
0.652761
0.638285
0.630338
0.626429
0.624565
0.624215
0.624776
0.624334
0.619928
0.606967
0.576958
0.518399
0.414857
0.23956
0.988583
0.957008
0.927847
0.905097
0.889477
0.879765
0.87423
0.871115
0.869542
0.868558
0.868041
0.867621
0.865818
0.860348
0.847462
0.819618
0.76456
0.659912
0.462295
)
;

boundaryField
{
    up
    {
        type            fixedValue;
        value           uniform 0;
    }
    low
    {
        type            fixedValue;
        value           uniform 1;
    }
    left
    {
        type            fixedValue;
        value           uniform 1;
    }
    right
    {
        type            fixedValue;
        value           uniform 1;
    }
    frontAndBackPlanes
    {
        type            empty;
    }
}


// ************************************************************************* //
