/*--------------------------------*- C++ -*----------------------------------*\
  =========                 |
  \\      /  F ield         | OpenFOAM: The Open Source CFD Toolbox
   \\    /   O peration     | Website:  https://openfoam.org
    \\  /    A nd           | Version:  7
     \\/     M anipulation  |
\*---------------------------------------------------------------------------*/
FoamFile
{
    version     2.0;
    format      ascii;
    class       volScalarField;
    location    "0.45";
    object      T;
}
// * * * * * * * * * * * * * * * * * * * * * * * * * * * * * * * * * * * * * //

dimensions      [0 0 0 1 0 0 0];

internalField   nonuniform List<scalar> 
1596
(
3.99193
3.96866
3.94445
3.92078
3.89787
3.87526
3.85238
3.82817
3.80187
3.77174
3.73644
3.69416
3.64049
3.56898
3.46929
3.31793
3.07078
2.63959
1.8476
3.96506
3.89247
3.82272
3.75646
3.69304
3.63103
3.5689
3.50443
3.43581
3.35992
3.27424
3.17572
3.0582
2.91369
2.73188
2.49233
2.16272
1.68697
0.958806
3.93323
3.81105
3.69908
3.59497
3.49649
3.4012
3.30679
3.2104
3.10967
3.00107
2.88179
2.74867
2.59592
2.41662
2.20285
1.93984
1.60656
1.16987
0.567594
3.90181
3.73321
3.58323
3.44604
3.31769
3.1948
3.07445
2.95344
2.82916
2.69808
2.5575
2.40454
2.2343
2.04133
1.82005
1.5603
1.24887
0.866633
0.377411
3.87577
3.66714
3.4841
3.3184
3.16472
3.01901
2.87787
2.73795
2.59655
2.45024
2.29655
2.13293
1.95531
1.75948
1.54156
1.29457
1.0102
0.677427
0.274924
3.85838
3.61843
3.40779
3.21777
3.04253
2.87765
2.71951
2.56469
2.41046
2.25353
2.09164
1.9225
1.74267
1.5488
1.33816
1.10583
0.846435
0.553605
0.214423
3.85011
3.58865
3.35621
3.14579
2.95203
2.77066
2.59807
2.43087
2.26638
2.10145
1.93395
1.76179
1.58195
1.39166
1.1889
0.970027
0.731474
0.469511
0.176052
3.84907
3.57556
3.32719
3.10015
2.89051
2.69466
2.50929
2.33122
2.15786
1.98623
1.81429
1.64007
1.46083
1.27417
1.07848
0.87094
0.649045
0.410601
0.15035
3.85339
3.57594
3.31719
3.07713
2.85396
2.64521
2.4482
2.2601
2.07854
1.9007
1.72465
1.5485
1.36969
1.18604
0.996158
0.797722
0.588875
0.368312
0.132451
3.85915
3.58314
3.31883
3.06932
2.83506
2.61504
2.40745
2.21
2.02067
1.83687
1.65678
1.4786
1.29987
1.11854
0.933321
0.742189
0.543655
0.336926
0.11946
3.86398
3.59175
3.32534
3.06955
2.82666
2.59709
2.38009
2.17405
1.97742
1.78791
1.60387
1.42356
1.24464
1.06512
0.883741
0.698626
0.508488
0.312801
0.109656
3.86988
3.60298
3.33656
3.07665
2.82695
2.58921
2.3637
2.14964
1.94599
1.75084
1.56276
1.38014
1.2007
1.02247
0.84418
0.664011
0.480749
0.29397
0.102124
3.87555
3.61482
3.34982
3.08739
2.83238
2.58765
2.3545
2.13295
1.92258
1.7219
1.52977
1.34471
1.16451
0.987228
0.811527
0.635569
0.458128
0.278771
0.0961432
3.87939
3.62422
3.36131
3.09759
2.83856
2.588
2.34813
2.11976
1.9031
1.69717
1.50114
1.31369
1.13273
0.956301
0.782994
0.610899
0.438707
0.265895
0.0911744
3.88276
3.63229
3.37147
3.10701
2.84476
2.58918
2.34325
2.10856
1.88595
1.67497
1.47514
1.28536
1.10364
0.928051
0.757064
0.588661
0.421394
0.254579
0.0868983
3.88602
3.63976
3.3808
3.11575
2.85068
2.59054
2.33899
2.09829
1.86995
1.65402
1.45042
1.25832
1.07586
0.901128
0.73248
0.567751
0.405297
0.244211
0.0830676
3.8885
3.64579
3.3884
3.12277
2.85509
2.59072
2.33386
2.08741
1.85349
1.6327
1.42538
1.23099
1.04785
0.874071
0.707916
0.547032
0.389528
0.234205
0.079456
3.89042
3.65057
3.3944
3.12808
2.85784
2.58937
2.32735
2.07527
1.83581
1.61015
1.39906
1.20234
1.01852
0.845797
0.682339
0.525594
0.37337
0.224095
0.0758889
3.89328
3.65644
3.40129
3.13404
2.86106
2.58832
2.32096
2.06302
1.81776
1.5869
1.3717
1.17233
0.987603
0.815827
0.655144
0.502814
0.356294
0.213534
0.0722438
3.89652
3.66313
3.40904
3.14073
2.8648
2.58756
2.3146
2.05047
1.79901
1.5625
1.3427
1.14022
0.954179
0.783108
0.625192
0.477572
0.337358
0.201914
0.0683247
3.89899
3.66888
3.41585
3.14643
2.86747
2.58558
2.30681
2.03622
1.77819
1.5356
1.31072
1.10461
0.916789
0.746081
0.590835
0.448215
0.315108
0.188254
0.0638162
3.90133
3.67421
3.42209
3.15143
2.86925
2.58249
2.29759
2.02014
1.75507
1.5058
1.27517
1.06473
0.874447
0.703488
0.550499
0.41288
0.287594
0.171014
0.0581803
3.90385
3.67956
3.4281
3.15593
2.87023
2.57824
2.2868
2.00199
1.72924
1.47255
1.23533
1.01966
0.825983
0.653863
0.502302
0.369119
0.251808
0.147183
0.049971
3.90637
3.68464
3.4334
3.15924
2.86955
2.57186
2.27339
1.98063
1.6995
1.43455
1.18979
0.967869
0.769733
0.595343
0.44402
0.313986
0.203523
0.110914
0.0335824
3.9102
3.69429
3.4474
3.17605
2.88754
2.5894
2.28888
1.99257
1.70662
1.43594
1.18505
0.957221
0.753996
0.575793
0.422237
0.291673
0.182629
0.0941146
0.0252863
3.91431
3.70622
3.46694
3.20271
2.92053
2.62751
2.3306
2.03612
1.75008
1.47745
1.223
0.990545
0.782296
0.59929
0.441532
0.307405
0.195066
0.102916
0.0292056
3.91612
3.71234
3.47794
3.21893
2.94195
2.65374
2.36081
2.06907
1.7842
1.51098
1.25422
1.01811
0.805437
0.61796
0.456249
0.318878
0.203798
0.10893
0.0318411
3.91561
3.71235
3.4799
3.22402
2.95102
2.66718
2.3785
2.09037
1.80794
1.53561
1.27798
1.03936
0.823019
0.631474
0.466074
0.325827
0.208663
0.112136
0.033255
3.91346
3.70773
3.47489
3.22056
2.95066
2.67097
2.3869
2.10321
1.82443
1.55439
1.29727
1.05724
0.837863
0.642358
0.473079
0.329824
0.210808
0.11332
0.0338114
3.90976
3.69938
3.4647
3.21103
2.94386
2.66844
2.38951
2.11116
1.83722
1.57084
1.31562
1.07533
0.853487
0.653872
0.479955
0.332787
0.211413
0.113134
0.0337586
3.905
3.68894
3.45181
3.19856
2.93422
2.66343
2.3903
2.11819
1.85024
1.58888
1.33702
1.09779
0.874302
0.670451
0.490684
0.337682
0.212182
0.112302
0.0333061
3.90068
3.67898
3.43943
3.18676
2.92559
2.65995
2.39329
2.12828
1.86742
1.61247
1.3656
1.12918
0.905529
0.69802
0.511408
0.349829
0.216521
0.112075
0.032548
3.89617
3.66884
3.42717
3.17563
2.91833
2.65866
2.3994
2.14262
1.89021
1.64336
1.40366
1.17272
0.951849
0.743311
0.551014
0.379254
0.233215
0.117305
0.0316688
3.89141
3.65872
3.41559
3.16608
2.91364
2.66101
2.41028
2.16297
1.9205
1.68364
1.45358
1.23143
1.01774
0.813523
0.621046
0.442889
0.283362
0.1484
0.0419217
3.88586
3.64653
3.40063
3.15175
2.90264
2.65538
2.41149
2.17201
1.938
1.70996
1.48889
1.27572
1.07073
0.874405
0.68779
0.511367
0.346342
0.195582
0.0615887
3.87761
3.62672
3.37325
3.12
2.86901
2.62171
2.37911
2.14184
1.91066
1.68585
1.46828
1.25882
1.05773
0.865549
0.683404
0.511617
0.350846
0.202402
0.0662127
3.86729
3.60183
3.33817
3.07796
2.82241
2.57231
2.32819
2.0903
1.85917
1.63488
1.41821
1.21004
1.01071
0.820906
0.642095
0.475029
0.320972
0.181886
0.0581507
3.85804
3.57972
3.30719
3.04103
2.78167
2.52935
2.28417
2.04609
1.81544
1.59218
1.37704
1.17093
0.974208
0.787691
0.612942
0.450798
0.302573
0.170205
0.0539925
3.85077
3.562
3.28215
3.01107
2.74858
2.49447
2.24852
2.01044
1.78041
1.55827
1.34474
1.14071
0.946529
0.763035
0.591803
0.433654
0.289868
0.162337
0.0512937
3.84501
3.54803
3.2625
2.98764
2.72278
2.46739
2.22096
1.98302
1.75364
1.53256
1.32047
1.11822
0.926156
0.745089
0.576585
0.421435
0.280893
0.156824
0.0494287
3.84081
3.53792
3.2484
2.97095
2.70455
2.44836
2.20171
1.96398
1.73516
1.51491
1.30391
1.10297
0.912417
0.733043
0.566404
0.413273
0.274892
0.153129
0.0481757
3.83781
3.53143
3.23982
2.96115
2.6941
2.43766
2.19105
1.95358
1.72518
1.5055
1.29517
1.09502
0.905339
0.726915
0.561293
0.409231
0.271961
0.151349
0.0475857
3.83782
3.53144
3.23984
2.96117
2.69412
2.43768
2.19107
1.9536
1.72519
1.50551
1.29518
1.09503
0.90535
0.726924
0.561301
0.409237
0.271965
0.151352
0.0475865
3.84082
3.53795
3.24844
2.971
2.7046
2.44842
2.20177
1.96404
1.73521
1.51496
1.30395
1.10301
0.912451
0.733072
0.566429
0.413293
0.274907
0.153138
0.0481788
3.84503
3.54808
3.26257
2.98772
2.72287
2.46748
2.22105
1.98311
1.75372
1.53263
1.32053
1.11828
0.926206
0.745131
0.576619
0.421462
0.280911
0.156835
0.0494323
3.8508
3.56207
3.28225
3.01118
2.74869
2.49458
2.24863
2.01055
1.78051
1.55836
1.34482
1.14077
0.946588
0.763083
0.591841
0.433682
0.289887
0.162347
0.051297
3.85807
3.5798
3.3073
3.04116
2.78181
2.52949
2.2843
2.04622
1.81556
1.59228
1.37713
1.171
0.97427
0.787739
0.612977
0.450822
0.302588
0.170212
0.0539941
3.86733
3.60192
3.33829
3.07811
2.82257
2.57247
2.32834
2.09045
1.8593
1.63499
1.41831
1.21012
1.01076
0.820941
0.642113
0.475032
0.320967
0.181878
0.0581451
3.87765
3.62682
3.37339
3.12016
2.86918
2.62188
2.37928
2.14199
1.9108
1.68596
1.46837
1.25887
1.05775
0.865537
0.68336
0.511549
0.350767
0.202334
0.0661808
3.88591
3.64667
3.40086
3.15205
2.903
2.65579
2.41195
2.1725
1.93852
1.7105
1.48945
1.2763
1.07132
0.875008
0.688402
0.511975
0.34691
0.19603
0.0617904
3.89147
3.65888
3.41586
3.16645
2.9141
2.66154
2.41089
2.16364
1.92123
1.68443
1.45441
1.2323
1.01862
0.814415
0.621915
0.443686
0.284018
0.148839
0.0420844
3.89621
3.66898
3.4274
3.17595
2.91872
2.65913
2.39993
2.1432
1.89083
1.64402
1.40435
1.17342
0.952543
0.743972
0.551604
0.379728
0.233537
0.117465
0.0316979
3.90072
3.67911
3.43963
3.18705
2.92595
2.66038
2.39377
2.12882
1.868
1.61307
1.36622
1.1298
0.906113
0.698546
0.511844
0.350151
0.216722
0.112173
0.0325733
3.90504
3.68905
3.452
3.19882
2.93455
2.66383
2.39075
2.11869
1.85077
1.58943
1.33757
1.09833
0.874795
0.670878
0.491023
0.337924
0.212334
0.112381
0.0333294
3.90979
3.69948
3.46487
3.21127
2.94417
2.6688
2.38993
2.11162
1.8377
1.57134
1.31611
1.0758
0.853911
0.654229
0.480235
0.332988
0.211543
0.113205
0.0337809
3.91349
3.70781
3.47504
3.22078
2.95094
2.6713
2.38728
2.10363
1.82487
1.55484
1.29771
1.05766
0.838232
0.642667
0.473321
0.330001
0.210927
0.113388
0.0338339
3.91563
3.71243
3.48003
3.22421
2.95127
2.66749
2.37885
2.09075
1.80834
1.53601
1.27837
1.03972
0.823345
0.631748
0.466291
0.32599
0.208776
0.112204
0.0332789
3.91613
3.7124
3.47805
3.21909
2.94217
2.65401
2.36112
2.06941
1.78456
1.51135
1.25458
1.01844
0.805729
0.618208
0.45645
0.319035
0.203911
0.109002
0.0318685
3.91432
3.70628
3.46703
3.20286
2.92072
2.62775
2.33088
2.03643
1.7504
1.47778
1.22331
0.990841
0.782561
0.599519
0.441724
0.307561
0.195186
0.102997
0.0292396
3.9102
3.69429
3.44742
3.17607
2.88758
2.58945
2.28893
1.99263
1.70668
1.43599
1.18508
0.957243
0.754003
0.575785
0.422217
0.291645
0.182599
0.0940895
0.0252753
3.90636
3.68461
3.43336
3.15919
2.86949
2.57178
2.2733
1.98053
1.69939
1.43444
1.18968
0.967753
0.769618
0.595232
0.443917
0.313895
0.203449
0.110863
0.0335611
3.90385
3.67955
3.42809
3.15591
2.87021
2.57821
2.28677
2.00196
1.72921
1.47252
1.2353
1.01964
0.825969
0.653854
0.502298
0.36912
0.251812
0.147188
0.0499731
3.90133
3.6742
3.42208
3.15142
2.86923
2.58246
2.29757
2.02012
1.75505
1.50578
1.27515
1.06472
0.874437
0.703481
0.550496
0.41288
0.287596
0.171016
0.0581809
3.89899
3.66887
3.41584
3.14642
2.86746
2.58557
2.30679
2.0362
1.77818
1.53558
1.3107
1.1046
0.916782
0.746076
0.590832
0.448215
0.315109
0.188254
0.0638163
3.89652
3.66313
3.40903
3.14072
2.86479
2.58755
2.31458
2.05045
1.79899
1.56249
1.34269
1.14021
0.954173
0.783104
0.62519
0.477571
0.337358
0.201914
0.0683246
3.89328
3.65644
3.40129
3.13404
2.86105
2.58831
2.32095
2.06301
1.81775
1.58689
1.37169
1.17233
0.987598
0.815824
0.655142
0.502812
0.356293
0.213534
0.0722436
3.89042
3.65057
3.3944
3.12807
2.85784
2.58936
2.32734
2.07526
1.8358
1.61014
1.39905
1.20233
1.01852
0.845795
0.682337
0.525593
0.37337
0.224095
0.0758887
3.8885
3.64578
3.3884
3.12277
2.85509
2.59071
2.33385
2.08741
1.85348
1.63269
1.42537
1.23099
1.04785
0.87407
0.707915
0.547031
0.389527
0.234204
0.0794558
3.88602
3.63976
3.3808
3.11575
2.85067
2.59053
2.33899
2.09829
1.86995
1.65401
1.45042
1.25832
1.07586
0.901127
0.73248
0.56775
0.405297
0.244211
0.0830674
3.88276
3.63229
3.37147
3.10701
2.84475
2.58917
2.34325
2.10856
1.88595
1.67497
1.47513
1.28536
1.10364
0.928051
0.757063
0.58866
0.421394
0.254579
0.0868982
3.87939
3.62422
3.36131
3.09759
2.83856
2.588
2.34813
2.11976
1.9031
1.69717
1.50114
1.31369
1.13273
0.956301
0.782994
0.610899
0.438707
0.265895
0.0911744
3.87555
3.61482
3.34982
3.08739
2.83238
2.58765
2.3545
2.13295
1.92258
1.7219
1.52977
1.34471
1.16451
0.987228
0.811527
0.635569
0.458128
0.278771
0.0961433
3.86988
3.60298
3.33656
3.07665
2.82695
2.58921
2.3637
2.14964
1.94599
1.75084
1.56276
1.38014
1.2007
1.02247
0.844181
0.664012
0.48075
0.29397
0.102124
3.86398
3.59175
3.32534
3.06955
2.82666
2.59709
2.38009
2.17405
1.97743
1.78791
1.60387
1.42357
1.24465
1.06512
0.883742
0.698627
0.508489
0.312802
0.109656
3.85915
3.58314
3.31883
3.06932
2.83506
2.61504
2.40745
2.21
2.02067
1.83687
1.65678
1.4786
1.29987
1.11854
0.933322
0.74219
0.543656
0.336927
0.11946
3.85339
3.57594
3.31719
3.07713
2.85396
2.64521
2.4482
2.2601
2.07854
1.9007
1.72465
1.5485
1.36969
1.18604
0.996159
0.797723
0.588876
0.368313
0.132452
3.84907
3.57556
3.32719
3.10015
2.89051
2.69466
2.50929
2.33122
2.15786
1.98623
1.81429
1.64007
1.46083
1.27417
1.07848
0.870941
0.649045
0.410602
0.15035
3.85011
3.58865
3.35621
3.14579
2.95203
2.77066
2.59807
2.43087
2.26638
2.10145
1.93395
1.76179
1.58195
1.39166
1.1889
0.970027
0.731474
0.469511
0.176052
3.85838
3.61843
3.40779
3.21777
3.04253
2.87765
2.71951
2.56469
2.41045
2.25353
2.09163
1.9225
1.74267
1.5488
1.33816
1.10583
0.846435
0.553605
0.214423
3.87577
3.66714
3.4841
3.31839
3.16472
3.019
2.87787
2.73795
2.59655
2.45024
2.29655
2.13293
1.95531
1.75948
1.54155
1.29457
1.0102
0.677427
0.274924
3.90181
3.73321
3.58322
3.44604
3.31769
3.1948
3.07444
2.95343
2.82916
2.69808
2.5575
2.40454
2.2343
2.04133
1.82004
1.5603
1.24887
0.866633
0.377411
3.93323
3.81105
3.69908
3.59497
3.49649
3.4012
3.30678
3.21039
3.10967
3.00106
2.88178
2.74867
2.59592
2.41662
2.20285
1.93984
1.60656
1.16987
0.567594
3.96506
3.89247
3.82272
3.75646
3.69304
3.63102
3.5689
3.50443
3.43581
3.35992
3.27424
3.17572
3.0582
2.91368
2.73188
2.49233
2.16272
1.68697
0.958806
3.99193
3.96866
3.94445
3.92078
3.89787
3.87526
3.85238
3.82817
3.80187
3.77174
3.73644
3.69416
3.64049
3.56898
3.46929
3.31793
3.07078
2.63959
1.8476
)
;

boundaryField
{
    up
    {
        type            fixedValue;
        value           uniform 0;
    }
    low
    {
        type            fixedValue;
        value           uniform 4;
    }
    left
    {
        type            fixedValue;
        value           uniform 4;
    }
    right
    {
        type            fixedValue;
        value           uniform 4;
    }
    frontAndBackPlanes
    {
        type            empty;
    }
}


// ************************************************************************* //
