/*--------------------------------*- C++ -*----------------------------------*\
  =========                 |
  \\      /  F ield         | OpenFOAM: The Open Source CFD Toolbox
   \\    /   O peration     | Website:  https://openfoam.org
    \\  /    A nd           | Version:  7
     \\/     M anipulation  |
\*---------------------------------------------------------------------------*/
FoamFile
{
    version     2.0;
    format      ascii;
    class       volScalarField;
    location    "0.287";
    object      T;
}
// * * * * * * * * * * * * * * * * * * * * * * * * * * * * * * * * * * * * * //

dimensions      [0 0 0 1 0 0 0];

internalField   nonuniform List<scalar> 
1596
(
1.99508
1.98097
1.96647
1.95266
1.93976
1.92762
1.91594
1.90414
1.89178
1.87789
1.86167
1.84208
1.81675
1.7823
1.73347
1.65848
1.53528
1.31982
0.923822
1.97873
1.93475
1.89312
1.85457
1.81899
1.78573
1.754
1.72255
1.69031
1.65545
1.61642
1.57138
1.51682
1.44842
1.36076
1.24343
1.08023
0.843205
0.479417
1.95936
1.88536
1.81857
1.75807
1.70285
1.65172
1.60342
1.55634
1.50904
1.45937
1.40552
1.34543
1.27568
1.19228
1.09088
0.963775
0.800293
0.583897
0.28369
1.9402
1.83805
1.74854
1.66875
1.59667
1.53055
1.46879
1.40954
1.35116
1.29144
1.22854
1.16044
1.08405
0.996035
0.893055
0.769606
0.61881
0.431036
0.188323
1.92424
1.79769
1.68829
1.59167
1.50506
1.42629
1.35348
1.28465
1.21809
1.15159
1.08337
1.01151
0.933252
0.8458
0.746571
0.631538
0.496156
0.334734
0.136641
1.91346
1.76765
1.64145
1.53024
1.43095
1.34121
1.25901
1.18231
1.10938
1.03805
0.966602
0.893209
0.815383
0.730692
0.637039
0.531327
0.410385
0.270717
0.105794
1.90815
1.74889
1.60919
1.48548
1.37498
1.27545
1.18489
1.1013
1.02295
0.947741
0.874019
0.800021
0.723442
0.642092
0.554155
0.4571
0.348551
0.226215
0.085868
1.90719
1.7401
1.59031
1.45615
1.33576
1.22732
1.12902
1.03901
0.955637
0.876889
0.801162
0.726743
0.651448
0.573238
0.490451
0.400889
0.302624
0.194018
0.0721521
1.90948
1.73939
1.58273
1.44015
1.31109
1.19445
1.08882
0.992603
0.90429
0.821982
0.744142
0.669098
0.594751
0.51915
0.440703
0.357405
0.267573
0.169911
0.0622344
1.91262
1.74276
1.58209
1.43315
1.29678
1.17278
1.06032
0.95813
0.864942
0.779015
0.698896
0.622961
0.549178
0.475644
0.400796
0.322727
0.239879
0.151122
0.0546993
1.9152
1.74694
1.58433
1.43093
1.28871
1.15837
1.03972
0.931951
0.834081
0.744571
0.662088
0.585071
0.511545
0.439646
0.367807
0.294172
0.217235
0.135923
0.0487211
1.91843
1.75269
1.58938
1.43281
1.28583
1.14995
1.02565
0.912614
0.810197
0.717103
0.632142
0.553835
0.480263
0.409587
0.340227
0.270339
0.198421
0.123398
0.043867
1.92153
1.75881
1.59562
1.43683
1.28598
1.14531
1.01591
0.897973
0.79122
0.694624
0.607164
0.527455
0.453638
0.383897
0.316624
0.249967
0.182398
0.112797
0.0398104
1.9235
1.76341
1.60074
1.44047
1.28658
1.14188
1.00803
0.88568
0.774951
0.675095
0.585272
0.504205
0.430101
0.361162
0.295755
0.232
0.168328
0.10355
0.0363145
1.9252
1.76719
1.60503
1.44361
1.28719
1.13901
1.00119
0.874858
0.760484
0.657606
0.565578
0.483235
0.40885
0.340645
0.276955
0.215867
0.155752
0.0953393
0.0332443
1.92686
1.77063
1.60881
1.44632
1.28763
1.13629
0.994875
0.864881
0.747139
0.641458
0.547384
0.463864
0.389241
0.321751
0.259693
0.201111
0.144308
0.0879157
0.0304988
1.92805
1.77321
1.61154
1.448
1.28718
1.13296
0.988238
0.854891
0.734064
0.625827
0.529909
0.445367
0.370608
0.30388
0.243447
0.187297
0.133659
0.0810581
0.0279908
1.92894
1.77508
1.61337
1.4487
1.28582
1.12886
0.981043
0.844577
0.720896
0.610319
0.512741
0.427327
0.352543
0.286646
0.227863
0.174124
0.12357
0.074611
0.025659
1.93048
1.77777
1.6159
1.44997
1.28492
1.12516
0.974232
0.83466
0.70816
0.595281
0.496081
0.409821
0.335023
0.269953
0.212799
0.161435
0.113904
0.0684797
0.0234672
1.93232
1.78113
1.61918
1.45191
1.2846
1.12195
0.967848
0.825128
0.695783
0.580587
0.47975
0.392624
0.317783
0.253504
0.197946
0.148932
0.104411
0.0625026
0.0213614
1.93373
1.78407
1.62213
1.4536
1.28404
1.11852
0.961264
0.815424
0.683261
0.565772
0.463307
0.375308
0.300398
0.236867
0.182862
0.136184
0.0947157
0.0564283
0.0192605
1.93514
1.78695
1.62507
1.45531
1.28353
1.11515
0.95472
0.805738
0.670725
0.550891
0.44673
0.357767
0.282674
0.219757
0.167166
0.122725
0.0843261
0.0498641
0.0170273
1.93673
1.7901
1.6283
1.45732
1.28332
1.11204
0.948412
0.796227
0.658272
0.535969
0.429953
0.339838
0.264347
0.201801
0.150357
0.107894
0.0724287
0.0419964
0.0142709
1.93839
1.79334
1.63159
1.45936
1.28311
1.10894
0.942087
0.786656
0.645665
0.520737
0.412654
0.321129
0.244947
0.18244
0.131755
0.0908108
0.0578
0.0311731
0.0094217
1.94098
1.79986
1.64102
1.47068
1.29531
1.12106
0.953275
0.796198
0.653011
0.525533
0.414786
0.320733
0.242375
0.178195
0.126425
0.0849926
0.0521371
0.0264993
0.00706385
1.94381
1.80813
1.65449
1.48884
1.31735
1.14592
0.979728
0.822954
0.678822
0.549316
0.435706
0.338321
0.256544
0.189194
0.134719
0.0911008
0.0564745
0.0292806
0.00820035
1.9452
1.81294
1.66317
1.50147
1.3337
1.1654
1.00147
0.845885
0.701761
0.571113
0.455357
0.355115
0.270148
0.19967
0.142437
0.0965685
0.0601605
0.0315028
0.00904476
1.94516
1.81417
1.66677
1.50819
1.34387
1.17893
1.01787
0.864327
0.72119
0.590361
0.473287
0.370784
0.282953
0.209446
0.149433
0.10128
0.0631276
0.0331547
0.00961842
1.94418
1.81282
1.66664
1.51055
1.34951
1.18814
1.03046
0.879684
0.73837
0.608206
0.490555
0.386322
0.295878
0.219314
0.156325
0.105677
0.0656808
0.0344438
0.0100208
1.94233
1.80952
1.66393
1.51003
1.35227
1.19473
1.0409
0.8935
0.754721
0.625961
0.508415
0.402959
0.310118
0.230362
0.163983
0.110346
0.0681476
0.0355339
0.0103145
1.94
1.80537
1.66021
1.5085
1.35416
1.20072
1.05111
0.907581
0.771917
0.645202
0.528404
0.422266
0.327303
0.244215
0.173842
0.116317
0.0710809
0.0366284
0.0105496
1.93811
1.80197
1.65738
1.50801
1.35727
1.20814
1.06303
0.923729
0.791641
0.667544
0.552159
0.446021
0.349469
0.263171
0.188266
0.125611
0.0757361
0.0381506
0.0107369
1.9363
1.79885
1.65513
1.5084
1.36157
1.2171
1.07687
0.942264
0.814329
0.693581
0.580526
0.47548
0.378504
0.289962
0.210838
0.142224
0.0855652
0.0419675
0.0109208
1.93451
1.79609
1.65365
1.51001
1.36754
1.22814
1.09325
0.963837
0.840693
0.724119
0.614473
0.511942
0.416354
0.327702
0.246449
0.173165
0.109127
0.0562222
0.0155239
1.93239
1.79242
1.65059
1.50926
1.3703
1.23515
1.10481
0.979943
0.861107
0.748456
0.642274
0.542704
0.449518
0.362545
0.281839
0.207215
0.138831
0.0775416
0.0240802
1.92885
1.78465
1.64078
1.49909
1.36095
1.22737
1.09902
0.976293
0.859556
0.748821
0.644306
0.546123
0.454057
0.367982
0.288009
0.21391
0.145639
0.0834537
0.0270912
1.92426
1.77421
1.62682
1.48327
1.34443
1.2109
1.08308
0.961101
0.845178
0.735199
0.631323
0.533656
0.442005
0.356329
0.276902
0.203703
0.136971
0.0772818
0.0245915
1.92034
1.76534
1.61501
1.46992
1.3305
1.19705
1.06969
0.948392
0.833228
0.724005
0.620852
0.523879
0.432922
0.347998
0.269467
0.197376
0.132033
0.0740624
0.0234261
1.91746
1.75864
1.60595
1.45959
1.31967
1.18622
1.0592
0.93842
0.823867
0.71528
0.612767
0.516441
0.426148
0.341932
0.264193
0.193008
0.128711
0.0719502
0.022695
1.91525
1.75349
1.59899
1.45164
1.31133
1.1779
1.05114
0.930764
0.816697
0.708625
0.606641
0.510853
0.42111
0.33747
0.260356
0.18986
0.126333
0.0704491
0.0221835
1.91364
1.74974
1.59396
1.44594
1.30538
1.17197
1.04541
0.92534
0.811632
0.70394
0.602344
0.506951
0.417607
0.334378
0.257701
0.187679
0.124679
0.0693986
0.021823
1.91236
1.74713
1.59067
1.44237
1.30175
1.16843
1.04205
0.922203
0.808744
0.701309
0.599969
0.504831
0.415739
0.33276
0.256341
0.186585
0.123867
0.0688928
0.0216551
1.91237
1.74714
1.59068
1.44238
1.30176
1.16844
1.04206
0.922216
0.808756
0.70132
0.599979
0.50484
0.415747
0.332768
0.256347
0.18659
0.12387
0.0688949
0.0216558
1.91364
1.74976
1.59398
1.44597
1.30541
1.17201
1.04545
0.925377
0.811668
0.703975
0.602377
0.506982
0.417635
0.334402
0.257721
0.187695
0.124691
0.0694057
0.0218254
1.91526
1.75352
1.59903
1.4517
1.31139
1.17796
1.0512
0.930823
0.816754
0.70868
0.606692
0.5109
0.421152
0.337506
0.260387
0.189884
0.12635
0.0704593
0.022187
1.91748
1.75868
1.60601
1.45965
1.31974
1.1863
1.05928
0.938498
0.823943
0.715352
0.612834
0.516502
0.426201
0.341978
0.264231
0.193038
0.128732
0.0719627
0.0226992
1.92036
1.76539
1.61508
1.47
1.33059
1.19715
1.06979
0.948488
0.833321
0.724092
0.620933
0.523952
0.432986
0.348053
0.269511
0.19741
0.132057
0.0740761
0.0234305
1.92428
1.77426
1.6269
1.48336
1.34453
1.21101
1.08319
0.961211
0.845284
0.735298
0.631414
0.533737
0.442074
0.356386
0.276946
0.203734
0.136991
0.0772922
0.0245942
1.92888
1.78471
1.64087
1.49919
1.36107
1.22749
1.09914
0.976416
0.859673
0.748929
0.644402
0.546205
0.454123
0.368029
0.288038
0.213922
0.145637
0.0834452
0.0270854
1.93242
1.79251
1.65073
1.50944
1.37052
1.2354
1.10508
0.980235
0.861413
0.74877
0.642592
0.543024
0.449836
0.36286
0.282148
0.20751
0.139095
0.0777432
0.0241683
1.93454
1.79619
1.65382
1.51023
1.36781
1.22845
1.0936
0.964219
0.841097
0.724538
0.614903
0.512376
0.416787
0.328125
0.246848
0.173522
0.109414
0.0564112
0.0155927
1.93633
1.79894
1.65527
1.50859
1.36181
1.21737
1.07718
0.942594
0.814675
0.693937
0.580884
0.475834
0.378843
0.290276
0.211112
0.142439
0.0857102
0.0420397
0.0109348
1.93814
1.80205
1.65752
1.50819
1.35749
1.2084
1.06332
0.924039
0.791964
0.667871
0.552482
0.446332
0.349757
0.263424
0.188471
0.125761
0.0758292
0.0381957
0.0107486
1.94002
1.80544
1.66033
1.50866
1.35437
1.20096
1.05138
0.907869
0.772215
0.645502
0.528695
0.422539
0.327548
0.244422
0.174004
0.116431
0.0711514
0.0366644
0.0105599
1.94235
1.80959
1.66404
1.51019
1.35247
1.19496
1.04115
0.893768
0.754997
0.626234
0.508676
0.4032
0.310328
0.230536
0.164116
0.110439
0.0682065
0.0355653
0.0103239
1.9442
1.81288
1.66674
1.51069
1.34969
1.18835
1.03069
0.87993
0.738622
0.608453
0.490789
0.386534
0.296061
0.219462
0.156438
0.105758
0.0657327
0.0344724
0.0100298
1.94518
1.81422
1.66685
1.50831
1.34403
1.17912
1.01808
0.864551
0.721418
0.590584
0.473496
0.370971
0.283113
0.209575
0.149532
0.101351
0.063175
0.0331817
0.00962734
1.94522
1.81299
1.66324
1.50158
1.33384
1.16557
1.00166
0.846087
0.701966
0.571311
0.455542
0.35528
0.270289
0.199785
0.142526
0.0966342
0.0602056
0.0315296
0.00905431
1.94382
1.80816
1.65456
1.48893
1.31747
1.14607
0.979897
0.823134
0.679004
0.549493
0.43587
0.338468
0.256669
0.189298
0.1348
0.091163
0.0565192
0.0293088
0.00821139
1.94098
1.79986
1.64104
1.4707
1.29534
1.1211
0.953321
0.796247
0.65306
0.525579
0.414827
0.320767
0.2424
0.178211
0.126434
0.084995
0.052135
0.0264952
0.00706116
1.93839
1.79332
1.63157
1.45934
1.28308
1.10891
0.94205
0.786617
0.645626
0.520699
0.412618
0.321095
0.244915
0.18241
0.131728
0.0907869
0.0577802
0.0311588
0.00941525
1.93673
1.79009
1.6283
1.45732
1.28331
1.11204
0.948406
0.796222
0.658269
0.535967
0.429952
0.339839
0.26435
0.201804
0.15036
0.107898
0.072432
0.0419987
0.0142716
1.93514
1.78695
1.62507
1.45531
1.28353
1.11514
0.954715
0.805735
0.670723
0.550891
0.44673
0.357768
0.282676
0.21976
0.167169
0.122727
0.0843283
0.0498655
0.0170277
1.93373
1.78407
1.62213
1.45359
1.28404
1.11852
0.961262
0.815422
0.683261
0.565772
0.463308
0.37531
0.3004
0.23687
0.182864
0.136186
0.0947173
0.0564291
0.0192607
1.93232
1.78113
1.61917
1.45191
1.28459
1.12195
0.967847
0.825128
0.695783
0.580588
0.479751
0.392625
0.317785
0.253506
0.197948
0.148934
0.104412
0.0625032
0.0213616
1.93048
1.77777
1.6159
1.44996
1.28492
1.12516
0.974231
0.83466
0.70816
0.595282
0.496083
0.409823
0.335024
0.269954
0.212801
0.161436
0.113905
0.0684801
0.0234673
1.92894
1.77508
1.61337
1.4487
1.28582
1.12886
0.981044
0.844577
0.720897
0.61032
0.512743
0.427329
0.352544
0.286647
0.227864
0.174125
0.123571
0.0746112
0.0256591
1.92805
1.77321
1.61154
1.448
1.28718
1.13296
0.988238
0.854892
0.734065
0.625828
0.52991
0.445368
0.370609
0.303881
0.243447
0.187298
0.133659
0.0810582
0.0279908
1.92686
1.77063
1.60881
1.44632
1.28763
1.13629
0.994876
0.864882
0.747139
0.641459
0.547384
0.463865
0.389242
0.321751
0.259693
0.201111
0.144308
0.0879157
0.0304988
1.9252
1.76719
1.60503
1.44361
1.28719
1.13901
1.00119
0.874859
0.760485
0.657607
0.565579
0.483235
0.40885
0.340645
0.276955
0.215866
0.155752
0.0953392
0.0332443
1.9235
1.76341
1.60074
1.44047
1.28659
1.14188
1.00803
0.88568
0.774952
0.675095
0.585273
0.504205
0.430101
0.361162
0.295755
0.232
0.168328
0.10355
0.0363145
1.92153
1.75881
1.59562
1.43683
1.28598
1.14531
1.01592
0.897973
0.79122
0.694624
0.607164
0.527455
0.453638
0.383896
0.316624
0.249966
0.182397
0.112796
0.0398104
1.91843
1.75269
1.58938
1.43281
1.28583
1.14995
1.02565
0.912614
0.810196
0.717102
0.632142
0.553834
0.480262
0.409587
0.340227
0.270339
0.198421
0.123397
0.0438671
1.9152
1.74694
1.58433
1.43094
1.28871
1.15837
1.03972
0.93195
0.83408
0.74457
0.662087
0.58507
0.511544
0.439645
0.367806
0.294172
0.217234
0.135923
0.0487213
1.91262
1.74276
1.58209
1.43315
1.29678
1.17278
1.06032
0.958129
0.864941
0.779014
0.698895
0.62296
0.549176
0.475643
0.400795
0.322727
0.239879
0.151122
0.0546994
1.90948
1.73939
1.58273
1.44015
1.31109
1.19444
1.08882
0.992602
0.904288
0.821981
0.744141
0.669097
0.59475
0.519149
0.440703
0.357405
0.267573
0.169911
0.0622345
1.90719
1.7401
1.5903
1.45615
1.33576
1.22732
1.12902
1.03901
0.955635
0.876888
0.80116
0.726741
0.651447
0.573237
0.49045
0.400888
0.302624
0.194019
0.0721522
1.90815
1.74889
1.60919
1.48547
1.37498
1.27545
1.18489
1.10129
1.02295
0.947739
0.874017
0.80002
0.723441
0.642091
0.554154
0.4571
0.348551
0.226215
0.0858681
1.91346
1.76765
1.64145
1.53024
1.43094
1.34121
1.259
1.18231
1.10938
1.03805
0.9666
0.893208
0.815382
0.730691
0.637038
0.531327
0.410386
0.270717
0.105794
1.92424
1.79769
1.68829
1.59167
1.50506
1.42629
1.35348
1.28465
1.21809
1.15159
1.08337
1.0115
0.933251
0.8458
0.746571
0.631538
0.496156
0.334734
0.136641
1.9402
1.83804
1.74854
1.66875
1.59667
1.53055
1.46879
1.40953
1.35116
1.29144
1.22853
1.16044
1.08405
0.996034
0.893055
0.769606
0.61881
0.431036
0.188323
1.95936
1.88536
1.81857
1.75807
1.70285
1.65172
1.60342
1.55634
1.50904
1.45936
1.40552
1.34543
1.27568
1.19228
1.09088
0.963775
0.800293
0.583897
0.28369
1.97873
1.93475
1.89312
1.85457
1.81899
1.78573
1.754
1.72255
1.69031
1.65545
1.61642
1.57138
1.51682
1.44842
1.36076
1.24343
1.08023
0.843205
0.479417
1.99508
1.98097
1.96647
1.95266
1.93976
1.92761
1.91594
1.90414
1.89178
1.87789
1.86167
1.84208
1.81675
1.7823
1.73347
1.65848
1.53528
1.31982
0.923822
)
;

boundaryField
{
    up
    {
        type            fixedValue;
        value           uniform 0;
    }
    low
    {
        type            fixedValue;
        value           uniform 2;
    }
    left
    {
        type            fixedValue;
        value           uniform 2;
    }
    right
    {
        type            fixedValue;
        value           uniform 2;
    }
    frontAndBackPlanes
    {
        type            empty;
    }
}


// ************************************************************************* //
