/*--------------------------------*- C++ -*----------------------------------*\
  =========                 |
  \\      /  F ield         | OpenFOAM: The Open Source CFD Toolbox
   \\    /   O peration     | Website:  https://openfoam.org
    \\  /    A nd           | Version:  7
     \\/     M anipulation  |
\*---------------------------------------------------------------------------*/
FoamFile
{
    version     2.0;
    format      ascii;
    class       volScalarField;
    location    "0.417";
    object      gradTz;
}
// * * * * * * * * * * * * * * * * * * * * * * * * * * * * * * * * * * * * * //

dimensions      [0 -1 0 1 0 0 0];

internalField   nonuniform List<scalar> 
1596
(
-3.22755e-16
-1.57639e-16
1.59351e-16
2.72607e-18
-3.05691e-16
0
-1.44004e-16
-1.41971e-16
-8.35111e-18
-7.42035e-17
-7.53947e-19
-7.3619e-17
3.22636e-16
-7.26024e-17
3.39656e-16
2.92771e-16
1.74052e-16
2.19584e-16
0
3.23326e-16
0
4.60676e-16
-2.64798e-18
-1.43104e-16
1.42088e-16
2.89966e-16
7.86602e-18
1.37897e-16
-6.62027e-17
1.31919e-16
-2.19494e-18
-1.82657e-16
-1.13801e-16
-2.74704e-16
-2.67661e-16
-2.43295e-16
1.3833e-16
0
-1.59697e-16
0
-3.02979e-16
4.20999e-18
2.82186e-16
-7.70563e-17
4.83621e-18
-1.99751e-18
-2.12188e-18
-2.3215e-18
5.17257e-17
0
9.47809e-17
2.69567e-16
-2.65022e-17
2.1153e-17
4.98405e-17
7.72739e-17
0
2.49403e-16
-7.66402e-17
7.63603e-17
0
-7.39391e-17
-7.57606e-17
1.32584e-16
-1.18366e-16
0
0
-3.92796e-17
2.69696e-17
0
-7.98295e-17
-1.0262e-16
7.04899e-17
-7.12675e-17
-3.67384e-18
0
4.33998e-17
1.18499e-16
-1.09334e-16
0
-3.2971e-17
-9.9719e-17
0
1.50693e-16
-1.51557e-17
-1.37009e-17
-1.05037e-17
7.93042e-17
9.62947e-17
9.70697e-18
1.83084e-18
-7.62325e-17
3.85554e-18
3.52039e-17
-1.50053e-17
-1.12702e-17
-1.629e-16
1.57626e-16
-1.40951e-16
-2.39588e-19
-1.285e-16
3.64001e-18
-3.6521e-18
-1.03805e-16
0
-8.46406e-18
-9.35465e-17
-8.70772e-17
7.19448e-17
7.19477e-17
-9.88417e-19
-4.30883e-17
-3.57068e-17
2.71914e-17
9.41873e-17
-1.66869e-16
1.91633e-16
1.08773e-16
0
9.82726e-17
5.91581e-17
-2.86526e-17
1.32e-16
-2.50689e-17
-1.04427e-16
1.03141e-18
-6.291e-17
-7.23083e-17
-5.75038e-17
4.82254e-17
4.34676e-17
-5.76556e-19
-1.14076e-17
7.29314e-18
2.6406e-16
-3.19334e-16
0
0
-1.2541e-16
0
0
0
9.09086e-17
0
0
5.74158e-17
2.35742e-18
1.38523e-17
-4.20075e-17
0
2.23657e-17
8.54562e-18
0
-1.74149e-16
3.37075e-16
0
0
1.29155e-16
0
-5.17646e-17
5.17123e-17
-9.25317e-17
3.91723e-17
-3.94588e-17
0
5.70392e-17
5.28517e-17
0
-3.05726e-17
-2.28619e-17
-7.43738e-18
4.04942e-16
-1.91749e-16
0
-1.46901e-16
1.45257e-16
0
1.15282e-16
0
0
0
3.72941e-17
-3.74729e-17
0
-4.38883e-17
-1.27827e-17
0
2.22537e-18
1.77489e-17
0
-1.02786e-16
0
0
1.47586e-16
-2.79174e-16
1.12134e-17
4.63672e-18
-4.94232e-17
4.64432e-18
1.01374e-18
-3.98981e-17
-6.59953e-17
0
4.98871e-17
-9.63795e-18
9.7826e-18
2.43455e-17
-1.38299e-17
-6.4978e-18
8.99143e-17
-7.01291e-18
8.61461e-17
3.05055e-16
-1.25351e-17
-1.32677e-16
0
0
0
8.25031e-17
3.41805e-17
1.24176e-16
-3.00226e-17
-4.89947e-17
-3.03561e-17
-1.59289e-17
7.04063e-18
-1.51701e-17
6.20926e-18
-9.67183e-17
9.46296e-17
-1.77361e-16
-3.01492e-16
2.83669e-16
1.18746e-16
-2.2299e-16
1.99142e-16
-1.77332e-16
4.60462e-17
3.68637e-17
-3.33429e-17
2.34965e-17
-2.03729e-17
5.876e-17
0
-4.35419e-18
3.17256e-17
-4.68733e-18
-6.12486e-16
2.85395e-16
2.65441e-19
-6.90136e-17
6.56519e-18
1.15816e-16
-2.22247e-16
-9.59846e-17
8.48502e-17
-7.44688e-17
-6.53676e-17
0
-7.62845e-17
-2.28511e-17
-4.17288e-17
-2.48058e-17
1.96058e-18
-2.07932e-17
2.42872e-19
1.00104e-16
-9.12417e-17
2.3323e-19
-7.41051e-17
-1.93146e-16
1.84201e-16
2.80768e-19
9.3537e-17
-8.26129e-17
1.4383e-16
3.41462e-17
2.92458e-17
9.32617e-17
0
7.89075e-17
3.61627e-17
0
1.1662e-17
2.0562e-19
0
8.8515e-17
7.36406e-17
-1.50765e-16
1.87461e-16
-2.88073e-16
2.09597e-16
8.47683e-17
-9.65302e-18
-1.42367e-16
2.78293e-17
-2.7692e-17
-8.75776e-17
3.60355e-17
-1.72877e-17
-3.72421e-17
1.66222e-17
-1.02063e-17
3.72382e-18
-9.32594e-17
3.28077e-16
-2.43322e-16
1.39119e-16
0
0
-4.36098e-17
9.12226e-17
-7.05327e-17
1.34374e-16
0
0
6.03314e-17
-5.34774e-17
-3.95854e-17
1.23714e-17
-1.28823e-17
6.64502e-18
0
5.72543e-18
8.72018e-17
-7.39505e-17
-6.66468e-17
-1.13631e-16
-4.18047e-17
5.22821e-17
0
-6.70377e-17
-5.73518e-17
5.26971e-17
-4.47906e-17
3.76491e-17
0
1.49184e-17
3.08955e-17
0
0
0
-5.44705e-18
1.46742e-16
6.0188e-17
-1.99637e-16
5.78103e-17
5.1363e-17
0
0
6.39815e-17
-3.31313e-17
-5.09695e-17
4.33207e-17
-3.64095e-17
0
-1.05005e-17
9.60743e-18
0
-7.81184e-18
-2.69337e-18
-7.65768e-17
2.24756e-16
-2.78308e-16
-1.17762e-16
6.07799e-17
-4.90008e-17
4.29899e-17
0
-3.22736e-17
2.80202e-17
0
0
1.50827e-17
-1.51001e-17
4.80368e-18
-5.84403e-18
1.15944e-17
1.0935e-18
1.98444e-18
3.84818e-17
-3.55102e-17
1.88809e-16
-1.22519e-16
-5.251e-17
5.2294e-18
8.68511e-17
3.54626e-17
3.0881e-17
0
2.03549e-17
-1.90264e-17
1.58166e-17
-1.38944e-17
1.91581e-17
-3.33887e-17
-9.01548e-18
7.91484e-18
2.16708e-18
1.04526e-16
-1.0517e-16
0
1.06335e-16
-5.51403e-17
-4.44216e-17
3.3948e-17
-1.06321e-16
0
-1.67849e-18
-2.26201e-17
-1.75175e-17
2.70828e-17
-1.79038e-18
-1.8516e-17
1.40542e-17
0
5.36277e-18
-2.10421e-18
1.74656e-16
-3.18061e-17
1.40972e-16
-1.10794e-16
6.62901e-17
1.11321e-17
-7.88945e-17
-2.9762e-17
5.49149e-17
-1.81048e-18
-3.64652e-17
3.18499e-17
-1.43405e-17
-2.02568e-17
0
0
0
-5.41632e-18
2.04042e-19
-1.57807e-16
1.54377e-16
8.38714e-20
2.53013e-17
2.26563e-17
-5.79389e-17
7.04222e-17
-6.0847e-17
5.39975e-17
-1.97353e-17
3.8027e-17
1.44428e-17
-6.32109e-18
3.68329e-19
-2.60981e-18
-4.61353e-18
0
0
0
0
0
8.01413e-17
-3.58792e-17
-1.25824e-16
0
0
-1.75176e-17
-3.00874e-17
2.62222e-17
0
-1.82151e-17
1.4875e-17
-5.22439e-17
6.08319e-17
-2.10061e-17
2.24672e-17
2.52229e-18
0
-3.05936e-17
3.09701e-17
0
-2.66453e-17
2.71361e-17
4.73499e-17
0
1.76849e-17
2.59469e-17
-1.13037e-16
0
-1.94793e-17
1.59504e-17
1.2261e-17
-9.49553e-18
1.42209e-17
0
-5.49968e-18
0
-1.57225e-17
-1.5975e-17
9.47608e-19
2.73773e-17
-7.60453e-17
0
-2.10884e-17
0
6.57864e-17
2.81362e-17
0
7.70489e-17
-8.37541e-17
7.68876e-18
-2.12686e-17
4.77098e-18
2.70305e-17
1.07538e-17
-8.50875e-18
0
3.28207e-17
-2.98711e-17
3.72701e-17
4.68169e-17
0
4.32169e-17
-4.14653e-17
-3.49914e-17
5.58257e-17
-8.4137e-17
-4.3921e-17
0
0
1.11511e-17
0
0
3.40928e-18
0
-1.44031e-16
1.1025e-16
0
1.32132e-18
-2.76067e-17
-1.57162e-18
2.57321e-17
1.9968e-17
-2.36667e-17
-6.64733e-17
1.11177e-16
-2.96911e-17
0
-1.59785e-17
0
0
0
-1.30894e-17
1.0431e-17
-4.03719e-17
3.85532e-17
1.06189e-16
-1.04814e-16
3.29826e-17
1.54736e-18
-2.61652e-17
2.34448e-17
4.14918e-17
3.32999e-17
-6.60277e-17
0
3.83232e-17
7.15698e-18
-1.82763e-17
-4.262e-17
3.5455e-17
-6.23425e-18
1.15429e-17
-1.35245e-16
2.01982e-16
-2.01226e-16
3.65352e-17
3.2198e-17
-3.1119e-17
2.66498e-17
-2.21919e-17
0
-2.00848e-17
3.42071e-17
1.48937e-17
2.47927e-17
3.36501e-17
-5.0997e-17
-3.40444e-19
0
-4.5365e-18
1.50046e-18
-1.46248e-16
-4.47959e-17
-8.10711e-17
4.2569e-17
-7.31244e-17
6.56313e-17
-3.97091e-17
3.5084e-17
-1.92624e-18
-1.93889e-18
-3.49821e-17
2.01501e-17
-1.28762e-17
3.85088e-17
-4.13395e-17
5.89931e-18
4.59117e-18
0
-2.55501e-18
1.58126e-16
-4.81984e-17
0
0
-7.5388e-17
1.48015e-16
-3.53009e-17
-7.14765e-18
6.01848e-17
-1.51623e-18
0
0
-1.55562e-17
0
-3.52889e-17
8.73115e-17
-6.11768e-17
0
9.81463e-19
5.45745e-17
1.03595e-16
0
-4.5696e-17
-3.88469e-17
-3.56861e-17
-3.65144e-17
1.57504e-17
-4.46717e-17
-2.533e-17
0
0
1.93997e-17
0
0
-4.66191e-17
7.65505e-17
0
0
3.74399e-16
-4.17133e-17
-2.31984e-16
-1.31013e-16
1.77317e-16
5.83083e-17
3.54052e-17
0
-1.35923e-17
1.36808e-17
3.34817e-17
-1.09363e-17
-1.70233e-17
2.65567e-17
-2.82482e-17
-9.11437e-18
0
0
0
2.99819e-17
-2.41416e-16
2.37086e-16
-2.3214e-17
-1.84233e-16
2.91099e-16
-1.47599e-16
0
0
8.43187e-17
-6.98111e-17
0
-2.20458e-17
3.81182e-17
-4.49405e-18
1.13223e-17
3.50593e-18
3.32183e-20
7.77958e-19
0
0
0
2.04745e-16
-1.3706e-16
1.49091e-16
-2.33602e-16
6.72808e-17
0
-2.52085e-17
4.11188e-17
-4.20259e-17
-8.50025e-18
-3.14393e-19
-5.95972e-18
-9.351e-19
-4.73384e-18
-1.31211e-18
-7.24373e-19
2.52156e-16
-4.52542e-16
2.1589e-16
0
6.06871e-17
-8.25637e-17
8.51406e-17
-6.75748e-17
0
-3.42286e-17
4.80172e-17
0
0
-2.42736e-19
0
-5.94887e-18
4.08732e-18
7.98861e-19
1.14832e-18
2.42024e-16
0
-9.97791e-17
1.11508e-16
-7.19066e-17
1.57923e-16
-7.51769e-17
-6.03541e-17
6.09844e-17
-6.28547e-18
0
0
4.13518e-18
-7.13527e-18
-4.99277e-18
9.50187e-18
-2.05669e-18
1.06889e-18
0
1.37493e-16
1.09678e-16
-2.57165e-18
-1.06072e-16
-1.09268e-17
-8.00458e-17
7.867e-18
6.81166e-17
-3.57276e-18
6.40349e-18
0
0
-4.23622e-18
0
5.00898e-18
-5.35841e-18
0
6.87366e-19
-1.91394e-19
-7.29949e-17
-5.49595e-17
5.144e-17
-6.0022e-18
-2.7188e-18
7.44356e-18
0
-2.00657e-18
3.05423e-17
-2.5721e-17
0
8.92562e-18
-1.71123e-18
-7.92293e-18
-7.27606e-19
-5.68809e-19
0
-5.36564e-19
0
3.00706e-17
-5.74613e-17
-1.04976e-18
2.50964e-17
2.34822e-17
-2.33578e-17
-1.69198e-17
1.91665e-17
-6.70864e-18
5.23793e-18
-5.18556e-18
5.34549e-18
0
1.38573e-20
-5.34418e-19
1.92703e-18
-6.60638e-21
0
0
3.00716e-17
-2.99589e-17
-2.49653e-17
2.20971e-17
4.15045e-17
-4.17495e-17
-8.46013e-18
8.47987e-18
-6.7651e-18
6.83623e-18
-5.18569e-18
9.81446e-18
-2.75245e-18
-1.99951e-18
-6.17976e-19
2.03958e-19
4.89724e-19
1.29721e-19
-9.73062e-20
0
-7.1771e-18
4.35512e-17
-4.71586e-17
4.14917e-17
-3.67422e-17
0
3.02842e-17
-2.70604e-17
0
1.03605e-17
-1.31368e-17
-7.56019e-18
7.92356e-18
1.47398e-18
0
0
-5.36608e-19
1.95176e-19
1.19777e-16
-2.2175e-16
2.28855e-16
-2.03367e-16
8.0373e-17
-7.01136e-17
6.64535e-17
8.08591e-18
-3.04628e-17
2.72424e-17
0
-2.03208e-17
1.84789e-17
-3.56844e-18
-1.44376e-18
2.30732e-18
1.70097e-18
5.20944e-19
-1.88584e-19
2.73079e-16
0
-1.12782e-16
8.75844e-17
1.0801e-17
-8.47924e-17
1.51483e-16
-1.36221e-16
5.37659e-17
-2.35705e-17
2.41264e-17
4.82235e-18
8.47115e-18
3.4757e-18
-2.94738e-18
-3.65139e-19
-3.69761e-18
0
3.86554e-19
2.21514e-16
-2.49338e-16
0
2.3613e-17
1.04233e-16
-1.02398e-16
1.79149e-17
1.61279e-17
7.07014e-18
1.27862e-17
0
0
-1.47569e-17
2.80361e-17
-1.03067e-17
-3.73368e-18
4.08775e-18
3.29996e-19
-7.38753e-19
1.7016e-17
2.19015e-16
-2.59122e-17
-1.81021e-16
1.58803e-16
1.94304e-17
-1.7533e-17
-1.57522e-17
5.34113e-17
-6.6267e-17
4.11272e-17
-4.20338e-17
6.85689e-18
-8.41847e-18
1.5971e-17
-1.05997e-17
0
0
7.99709e-19
0
5.53868e-17
-1.70652e-16
1.94748e-16
-1.63157e-16
1.62769e-16
0
5.97118e-17
-5.99854e-17
-4.68041e-17
6.98548e-17
0
3.02116e-17
-3.81397e-17
-5.6772e-18
0
-6.64651e-19
-1.39462e-18
1.59959e-20
-5.18784e-16
2.49628e-16
0
-1.77278e-16
1.7726e-16
1.13115e-16
-7.44668e-17
3.19888e-17
0
-1.50429e-18
1.198e-17
-1.09196e-17
-1.69979e-17
2.65119e-17
-2.81909e-17
0
6.55093e-18
-1.60581e-18
-8.61001e-19
3.21126e-16
-3.17705e-16
0
4.5858e-17
4.26977e-17
-3.95969e-17
0
-3.35245e-17
-3.01598e-17
0
-7.52293e-19
0
1.94047e-17
0
0
9.67185e-18
3.67968e-17
-4.73197e-17
0
5.83968e-20
4.82212e-17
-4.55303e-17
3.90733e-17
-1.97675e-16
7.67408e-17
0
7.15203e-18
2.03861e-17
0
-2.20487e-17
6.78357e-17
-7.12654e-17
1.27811e-17
0
-1.0186e-18
0
0
0
5.20182e-20
0
4.20814e-17
0
-6.97261e-17
7.08346e-17
0
2.77124e-17
-2.31472e-17
8.60074e-17
-4.19174e-17
1.62164e-17
-2.70629e-17
2.6958e-17
-4.13792e-17
-6.74916e-18
0
-5.11585e-18
0
1.25956e-16
-2.12713e-16
0
-3.6673e-17
3.39558e-17
0
0
-5.10585e-17
0
-2.00968e-17
-3.42281e-17
-1.49044e-17
2.48123e-17
0
1.5052e-17
0
0
1.13923e-17
-1.28828e-17
0
1.87507e-16
-1.50492e-16
3.39509e-17
-3.14432e-17
-1.36673e-17
4.00634e-17
4.70309e-17
-6.08009e-17
1.97499e-17
5.63061e-19
-2.10763e-17
8.76375e-17
-2.74313e-17
-6.87896e-17
2.44471e-17
-6.91512e-18
4.0857e-18
-1.3598e-18
-2.95605e-16
1.10225e-16
0
0
1.37965e-17
-1.40295e-17
1.12312e-17
8.43144e-18
5.57619e-17
3.03652e-17
-3.08826e-17
-4.85176e-19
-1.95316e-17
1.59891e-17
0
9.05102e-18
6.33821e-18
3.6934e-18
1.22906e-18
0
9.74022e-17
-9.30831e-17
3.03205e-17
3.33252e-17
-6.52098e-18
-2.24205e-17
-2.00718e-17
-7.04707e-17
3.03059e-17
-2.08998e-17
2.685e-17
1.82645e-17
-2.50132e-17
2.655e-17
1.87531e-17
-2.37331e-17
-3.4114e-18
0
-1.65951e-17
-7.68942e-17
2.83676e-17
2.73838e-17
-9.8978e-17
7.22722e-17
3.93059e-17
-4.01766e-17
3.32047e-17
-2.87618e-17
0
0
-2.94301e-17
5.39836e-17
-2.45336e-17
2.50561e-17
-2.72367e-17
4.7798e-18
-8.51462e-18
3.1481e-17
3.01243e-17
-2.83373e-17
2.40585e-17
-2.68858e-17
-4.47227e-17
0
0
0
0
0
0
1.53953e-17
-4.3271e-17
4.57638e-17
-1.61851e-17
1.98989e-17
9.80434e-18
-8.36439e-18
6.46124e-17
-1.15974e-16
1.45503e-16
-7.39277e-17
1.01517e-16
-8.20693e-17
1.56807e-16
-9.17917e-17
-5.53291e-17
5.65992e-17
0
1.82027e-17
-1.50404e-17
4.02728e-17
-1.22001e-17
-1.74924e-17
-4.00178e-17
2.88979e-18
7.19602e-18
1.00212e-16
3.00874e-17
0
-5.0473e-17
-4.28161e-17
1.00525e-16
1.2867e-17
-4.55276e-17
2.80173e-17
-2.1891e-17
0
-1.44095e-17
0
-1.32678e-17
1.1114e-17
-1.04541e-17
-3.51828e-18
2.57675e-18
0
1.40441e-16
-3.18057e-17
1.4092e-16
-1.10757e-16
-2.37731e-17
1.00633e-16
-6.02562e-17
2.4149e-18
2.02749e-18
-2.17249e-17
2.11761e-17
0
0
1.57812e-17
-6.28491e-18
4.29712e-18
1.26932e-17
-4.40408e-18
0
2.35668e-20
0
-3.07605e-17
1.89964e-16
-1.30077e-16
-1.50283e-16
8.30516e-17
-9.65936e-17
9.13608e-17
4.91677e-17
-3.99334e-17
1.70013e-17
-1.56249e-17
2.37716e-18
2.86738e-17
1.52486e-18
-1.18166e-17
1.16738e-17
-2.34832e-18
3.45675e-16
-1.1114e-16
5.94739e-17
-1.81198e-16
5.25096e-17
-8.80719e-17
4.61699e-17
0
0
-1.72457e-18
-2.25836e-18
-6.58848e-19
0
-2.41877e-17
-1.91581e-17
1.45221e-17
-1.07295e-18
1.65483e-18
4.52362e-18
0
-1.12507e-16
1.99207e-16
5.04769e-17
-1.71086e-16
4.90004e-17
-8.10191e-17
9.81687e-18
6.9644e-17
0
0
1.35042e-18
1.82505e-17
0
-1.76006e-17
-8.3914e-18
1.228e-18
-4.62462e-18
-5.03524e-18
0
-7.31059e-17
1.1489e-17
1.34925e-16
1.0987e-16
-2.05499e-16
9.57468e-17
-7.40588e-17
3.88391e-17
-5.93256e-17
0
0
0
-3.00943e-17
9.38337e-18
-1.05519e-17
0
-6.66372e-19
3.3714e-18
-2.61992e-16
2.50527e-16
2.83959e-16
-3.46012e-16
1.734e-16
-1.65265e-16
0
7.72533e-17
-1.07854e-16
6.53125e-17
-5.38167e-17
4.60014e-17
3.88859e-17
3.11242e-17
2.52028e-17
0
0
0
0
2.85302e-16
-1.70263e-16
0
0
-6.21065e-17
1.6036e-16
-1.03382e-16
-8.09671e-17
8.00544e-17
6.46732e-17
1.12838e-16
-4.77309e-17
1.99905e-17
1.59626e-17
1.23078e-17
9.69797e-18
1.59973e-17
-7.93953e-19
8.08713e-19
-2.9128e-16
2.72151e-16
1.53593e-16
-7.86798e-17
1.87561e-16
-1.21158e-16
-1.02018e-16
-9.00963e-17
0
-1.33416e-16
4.83312e-18
5.20436e-17
-4.31539e-17
-3.60354e-17
-1.32934e-17
-1.45481e-17
-1.15444e-17
0
0
-1.0019e-16
0
8.21748e-17
-2.06357e-19
0
0
1.05234e-16
9.29667e-17
0
7.13868e-17
0
-7.90616e-17
-2.20831e-17
3.98849e-17
0
2.58034e-17
-3.67655e-18
3.75058e-18
0
2.10883e-16
0
1.60633e-16
-3.03129e-16
2.77803e-16
2.37499e-16
-5.53201e-18
0
5.24655e-18
7.96686e-17
0
-8.49813e-17
9.83071e-17
-8.7672e-17
-1.92152e-17
-2.0887e-17
-5.95539e-18
-1.02997e-18
-3.44432e-18
-2.00778e-16
2.90492e-16
-8.54647e-17
-2.31128e-16
-1.38662e-16
-1.24526e-16
-2.22784e-16
-9.43937e-17
5.46398e-18
3.69331e-17
-3.68637e-17
1.21626e-16
-5.35502e-17
1.10074e-16
-2.06258e-17
0
2.23677e-17
-1.28774e-17
3.52985e-18
4.33691e-16
-7.28777e-18
-3.50772e-16
3.05057e-16
-2.8093e-16
2.53657e-16
-5.86291e-18
-1.02873e-16
9.24184e-17
3.85387e-17
-4.34819e-18
-9.73531e-17
2.91243e-17
2.80056e-17
-8.95493e-18
9.05707e-18
-2.31675e-17
-1.55322e-18
-4.93047e-18
2.12904e-16
9.35922e-17
1.69597e-16
-1.53904e-16
-1.33562e-16
5.27099e-18
-1.09462e-16
2.66809e-16
6.59404e-18
1.29498e-16
7.68252e-17
-6.85283e-17
0
-4.98871e-17
0
0
2.95628e-17
1.33158e-17
5.78682e-18
2.02236e-16
0
1.67526e-16
1.52911e-16
-1.39825e-16
1.26844e-16
0
-1.04806e-16
-1.46943e-16
-1.31536e-16
-7.75052e-17
6.93032e-17
0
0
0
0
-2.76836e-17
-1.93345e-17
0
-3.9631e-16
0
-6.19805e-18
-5.49832e-18
2.11421e-16
-1.24128e-16
-5.78483e-17
-5.79554e-17
1.46911e-16
0
3.91721e-17
-4.27085e-18
3.36156e-17
0
0
4.35073e-17
-3.21416e-18
2.3198e-17
-8.34363e-18
2.80067e-16
8.36606e-17
-8.2797e-17
-7.56835e-17
-2.71987e-16
1.91097e-16
2.35444e-16
-4.20351e-18
-9.8967e-17
9.58485e-17
2.04295e-17
-1.02136e-16
-8.52518e-17
-4.92166e-17
-5.17393e-17
-5.01064e-17
3.9687e-17
-1.8884e-18
8.54563e-18
-8.68857e-17
4.04064e-17
-1.96205e-16
3.4966e-17
-3.48388e-17
0
-1.16096e-16
-5.54716e-18
-1.07034e-16
6.37945e-18
1.04427e-16
7.90267e-17
-1.89481e-17
1.01063e-17
4.93277e-17
0
-8.1417e-17
-2.91563e-17
-6.09651e-19
1.74151e-16
-4.90459e-18
3.07998e-16
-1.48982e-16
2.39587e-19
4.08178e-18
1.23497e-16
-7.03447e-18
1.03805e-16
-9.72421e-17
-9.11646e-17
0
8.7077e-17
7.08568e-17
9.54547e-19
-1.38284e-18
4.35035e-17
2.96394e-17
0
-1.24257e-16
0
-3.25481e-17
1.41423e-16
1.62844e-18
3.3015e-17
-1.1942e-16
1.13512e-16
1.17108e-16
1.11909e-16
1.07068e-16
0
-8.45937e-17
0
4.32972e-18
-4.4968e-18
0
-4.19326e-19
2.04578e-17
8.47017e-17
3.43126e-18
-7.09881e-17
2.16861e-16
-7.02056e-17
0
0
-1.28463e-16
-1.13465e-16
-1.08415e-16
-1.93535e-16
-2.69696e-17
0
0
0
-8.65683e-18
9.16109e-18
5.79714e-17
-2.07667e-17
3.5064e-18
0
-1.49101e-16
-1.39085e-16
1.43985e-16
-1.4264e-16
-2.05402e-16
2.55204e-16
6.90909e-17
0
1.12782e-16
1.24965e-16
-2.69809e-17
1.4557e-16
-2.37671e-17
2.47358e-17
9.53827e-17
-5.50867e-17
0
-1.62278e-16
0
-1.56548e-16
1.5388e-16
0
2.82647e-16
1.33666e-16
-2.77793e-16
2.19388e-16
-1.60063e-18
-6.68806e-17
-1.20991e-16
0
1.63219e-16
-2.74703e-16
2.94443e-16
-3.75139e-16
0
0
1.61341e-16
-8.09559e-19
-1.99727e-18
-3.08454e-16
3.10253e-16
-1.50678e-16
1.50063e-16
1.47851e-16
-1.32903e-16
0
0
2.44498e-16
-2.4871e-16
-2.67277e-16
2.64533e-16
-2.57386e-16
2.78133e-16
-4.35437e-16
0
)
;

boundaryField
{
    up
    {
        type            calculated;
        value           nonuniform List<scalar> 
84
(
0
0
0
0
-1.50053e-17
2.71914e-17
-1.14076e-17
8.54562e-18
-7.43738e-18
0
-6.4978e-18
6.20926e-18
-4.68733e-18
2.42872e-19
2.0562e-19
3.72382e-18
0
0
-2.69337e-18
1.98444e-18
2.16708e-18
-2.10421e-18
2.04042e-19
0
8.82847e-19
3.59633e-19
-8.19108e-18
0
1.0431e-17
1.19074e-17
1.50046e-18
-2.55501e-18
9.81463e-19
0
-4.77778e-19
8.11107e-19
-7.26491e-19
1.14856e-18
0
-1.91467e-19
0
0
-9.74001e-20
1.95176e-19
-1.88584e-19
3.86554e-19
-7.38753e-19
7.99709e-19
1.59959e-20
-8.61001e-19
0
0
0
-1.28828e-17
-1.72447e-18
1.22906e-18
0
-8.51462e-18
-8.36439e-18
6.31639e-18
0
0
-2.34832e-18
4.52362e-18
-5.03524e-18
3.3714e-18
0
8.08713e-19
0
0
-3.44432e-18
3.52985e-18
-4.93047e-18
5.78682e-18
0
-8.34363e-18
8.54563e-18
-6.09651e-19
0
2.04578e-17
-2.07667e-17
0
0
0
)
;
    }
    low
    {
        type            calculated;
        value           nonuniform List<scalar> 
84
(
-3.22926e-16
3.23326e-16
-1.59391e-16
2.49653e-16
4.35703e-17
-1.13207e-17
9.4611e-17
7.69668e-18
0
4.05391e-16
-1.02786e-16
8.96964e-17
-9.67183e-17
-6.12435e-16
1.00104e-16
0
-9.32594e-17
5.72543e-18
-5.44705e-18
-7.65768e-17
3.84818e-17
1.04526e-16
1.74165e-16
-1.57807e-16
0
-3.05936e-17
-1.57225e-17
0
-1.44031e-16
-4.03719e-17
-1.34887e-16
-1.45944e-16
1.57897e-16
5.45745e-17
3.74353e-16
2.99819e-17
0
2.52156e-16
2.4243e-16
1.37725e-16
-7.31223e-17
3.00706e-17
3.00716e-17
0
1.19777e-16
2.73486e-16
2.21514e-16
1.72504e-17
0
-5.18738e-16
3.21126e-16
5.83968e-20
5.20182e-20
1.25956e-16
0
-2.9509e-16
0
-1.65951e-17
3.1481e-17
6.43193e-17
9.96914e-17
1.3995e-16
2.35668e-20
3.4525e-16
0
0
-2.61992e-16
2.85052e-16
-2.91093e-16
-1.0019e-16
2.10832e-16
-2.00778e-16
4.34127e-16
2.13238e-16
2.02236e-16
-3.9631e-16
2.79663e-16
-8.6462e-17
1.74151e-16
-1.24086e-16
8.47017e-17
3.81286e-18
-1.62278e-16
1.61426e-16
)
;
    }
    left
    {
        type            calculated;
        value           nonuniform List<scalar> 
19
(
-3.22755e-16
-1.57736e-16
1.59351e-16
2.723e-18
-3.05757e-16
0
-1.44004e-16
-1.41971e-16
-8.79153e-18
-7.42035e-17
-7.53947e-19
-7.3619e-17
3.25947e-16
-7.26024e-17
3.39656e-16
2.92771e-16
1.74052e-16
2.55066e-16
0
)
;
    }
    right
    {
        type            calculated;
        value           nonuniform List<scalar> 
19
(
1.61341e-16
-7.12894e-19
-1.99727e-18
-3.08451e-16
3.10319e-16
-1.50678e-16
1.50063e-16
1.47851e-16
-1.32463e-16
0
0
2.46845e-16
-2.52022e-16
-2.67277e-16
2.64533e-16
-2.57386e-16
2.78133e-16
-4.70919e-16
0
)
;
    }
    frontAndBackPlanes
    {
        type            empty;
    }
}


// ************************************************************************* //
