/*--------------------------------*- C++ -*----------------------------------*\
  =========                 |
  \\      /  F ield         | OpenFOAM: The Open Source CFD Toolbox
   \\    /   O peration     | Website:  https://openfoam.org
    \\  /    A nd           | Version:  7
     \\/     M anipulation  |
\*---------------------------------------------------------------------------*/
FoamFile
{
    version     2.0;
    format      ascii;
    class       volScalarField;
    location    "0.126";
    object      gradTz;
}
// * * * * * * * * * * * * * * * * * * * * * * * * * * * * * * * * * * * * * //

dimensions      [0 -1 0 1 0 0 0];

internalField   nonuniform List<scalar> 
1596
(
-1.61339e-16
-7.74913e-17
7.97933e-17
2.68857e-18
-1.49272e-16
0
-6.80434e-17
-6.71164e-17
-5.88415e-18
-3.61247e-17
-2.33739e-19
-3.62044e-17
1.61318e-16
-3.6107e-17
1.68099e-16
1.45543e-16
8.67054e-17
1.09868e-16
0
1.60104e-16
0
2.18952e-16
-2.25644e-18
-6.44544e-17
6.36574e-17
1.34978e-16
5.69861e-18
6.32055e-17
-3.07776e-17
6.16541e-17
-6.73014e-19
-8.59178e-17
-5.40755e-17
-1.35765e-16
-1.32975e-16
-1.21313e-16
6.93117e-17
0
-7.69967e-17
0
-1.39602e-16
3.55636e-18
1.22219e-16
-3.70622e-17
4.18929e-18
-8.20316e-19
-7.10348e-19
-6.69615e-19
2.09682e-17
0
4.45289e-17
1.25203e-16
-1.24307e-17
1.02725e-17
2.40162e-17
3.84261e-17
0
1.2292e-16
-3.47975e-17
3.46704e-17
0
-3.26019e-17
-3.44886e-17
5.43655e-17
-4.42612e-17
0
0
-1.99645e-17
1.09904e-17
0
-3.62515e-17
-4.491e-17
3.17755e-17
-3.44372e-17
-1.76076e-18
0
2.16999e-17
5.40918e-17
-4.57773e-17
0
-1.25455e-17
-3.87758e-17
0
5.58316e-17
-5.38386e-18
-4.8842e-18
-7.76991e-18
2.79081e-17
3.56401e-17
3.98623e-18
3.47338e-18
-3.43372e-17
1.7096e-18
1.60452e-17
-7.11964e-18
-5.63511e-18
-7.38334e-17
6.69213e-17
-5.48093e-17
-1.79791e-19
-4.38362e-17
1.20194e-18
-1.20593e-18
-3.17201e-17
0
-6.41031e-18
-3.32647e-17
-3.20964e-17
2.47317e-17
2.89117e-17
-3.86133e-19
-1.73879e-17
-1.62744e-17
1.26154e-17
4.70936e-17
-7.47484e-17
7.87237e-17
4.17796e-17
0
3.4024e-17
1.85913e-17
-8.75953e-18
3.99075e-17
-7.23047e-18
-3.19543e-17
2.13984e-19
-1.79343e-17
-2.48253e-17
-1.8347e-17
1.63877e-17
1.7541e-17
-2.39317e-19
-5.16364e-18
6.74573e-18
1.19912e-16
-1.31938e-16
0
0
-3.95456e-17
0
0
0
2.22923e-17
0
0
1.67284e-17
4.29765e-19
6.2902e-18
-1.44911e-17
0
7.70807e-18
3.22929e-18
0
-7.51907e-17
1.42396e-16
0
0
4.07265e-17
0
-1.31346e-17
1.31213e-17
-2.26903e-17
8.87806e-18
-8.94299e-18
0
1.27445e-17
1.46033e-17
0
-8.3733e-18
-7.86658e-18
-2.85366e-18
1.96287e-16
-8.97906e-17
0
-5.29649e-17
5.23722e-17
0
3.17737e-17
0
0
0
7.52514e-18
-7.56121e-18
0
-9.96908e-18
-2.6897e-18
0
1.7966e-18
4.50083e-18
0
-4.98695e-17
0
0
5.33479e-17
-9.60482e-17
7.79826e-18
3.09513e-18
-1.15045e-17
2.06616e-18
8.01634e-19
-7.72585e-18
-1.11557e-17
0
8.16084e-18
-1.80621e-18
1.83332e-18
5.65801e-18
-3.61331e-18
-1.55588e-18
3.73348e-17
-6.40002e-18
3.60643e-17
1.13608e-16
-9.55299e-18
-4.31971e-17
0
0
0
1.61221e-17
5.70604e-18
1.97554e-17
-4.71536e-18
-8.01485e-18
-4.1967e-18
-2.5676e-18
1.17211e-18
-2.64546e-18
1.4603e-18
-4.39223e-17
4.32165e-17
-7.75187e-17
-1.12445e-16
1.00513e-16
3.43734e-17
-6.08849e-17
4.77989e-17
-3.73494e-17
9.87772e-18
6.39163e-18
-5.46083e-18
2.74264e-18
-2.67207e-18
8.1417e-18
0
-6.42551e-19
4.96127e-18
-7.50809e-19
-2.97475e-16
1.3275e-16
9.38591e-20
-2.37804e-17
5.09726e-18
3.34358e-17
-6.19775e-17
-2.24419e-17
1.71712e-17
-1.30203e-17
-9.91908e-18
0
-9.6612e-18
-2.7547e-18
-4.44736e-18
-2.58827e-18
2.00446e-19
-2.70433e-18
1.70485e-19
4.86058e-17
-4.13616e-17
2.04741e-20
-2.83089e-17
-6.39061e-17
5.85851e-17
3.26874e-19
2.18696e-17
-1.67185e-17
2.47984e-17
5.54363e-18
4.07722e-18
1.07217e-17
0
7.7713e-18
3.50651e-18
0
1.34231e-18
1.23217e-19
0
4.01255e-17
2.79293e-17
-6.02328e-17
6.17487e-17
-8.76799e-17
5.77525e-17
1.81112e-17
-4.3476e-18
-2.51384e-17
3.70433e-18
-3.68605e-18
-9.32834e-18
3.25134e-18
-1.69661e-18
-3.2574e-18
1.2587e-18
-7.94627e-19
3.88522e-19
-4.52022e-17
1.4252e-16
-1.07251e-16
5.22385e-17
0
0
-9.92136e-18
2.22143e-17
-1.25417e-17
2.26952e-17
0
0
6.0097e-18
-4.877e-18
-2.9151e-18
9.22794e-19
-9.93895e-19
5.4284e-19
0
5.62615e-18
4.23085e-17
-3.06395e-17
-2.52706e-17
-3.57418e-17
-7.94055e-18
1.52217e-17
0
-1.15264e-17
-7.91108e-18
6.72392e-18
-4.76309e-18
3.35516e-18
0
1.1699e-18
1.91328e-18
0
0
0
-5.47329e-18
6.01203e-17
1.89703e-17
-7.68305e-17
1.88487e-17
1.49341e-17
0
0
1.0579e-17
-5.64946e-18
-6.50349e-18
4.60677e-18
-3.2447e-18
0
-6.23582e-19
4.50006e-19
0
-3.67455e-19
-1.30974e-19
-3.43041e-17
1.00766e-16
-1.16512e-16
-4.07153e-17
2.21008e-17
-1.36377e-17
1.02365e-17
0
-5.41562e-18
4.09429e-18
0
0
1.10887e-18
-1.11015e-18
2.55777e-19
-4.0506e-19
4.91746e-19
9.53453e-20
9.95947e-20
1.86213e-17
-1.58532e-17
7.40777e-17
-4.71416e-17
-1.65585e-17
3.12892e-18
2.19104e-17
6.84652e-18
5.18194e-18
0
2.05164e-18
-1.86369e-18
1.27392e-18
-9.38269e-19
9.27591e-19
-1.47166e-18
-3.7959e-19
3.18747e-19
7.67382e-20
4.79955e-17
-4.96029e-17
0
3.57913e-17
-1.96215e-17
-1.2068e-17
6.25777e-18
-2.16848e-17
0
-3.7544e-19
-2.61999e-18
-1.51634e-18
1.79895e-18
-2.10018e-19
-8.965e-19
5.85623e-19
0
1.66253e-19
-7.45121e-20
8.67821e-17
-1.41676e-17
5.41336e-17
-4.20444e-17
1.85121e-17
-8.74975e-19
-1.91158e-17
-4.93596e-18
8.32245e-18
-5.13364e-19
-3.28865e-18
2.53269e-18
-1.00459e-18
-1.02402e-18
0
0
0
-1.67496e-19
5.89915e-21
-7.40433e-17
7.12433e-17
4.25407e-20
8.95179e-18
6.93758e-18
-1.41907e-17
1.53318e-17
-1.0883e-17
8.13926e-18
-2.02041e-18
3.72065e-18
1.03287e-18
-3.86863e-19
1.97506e-20
-8.25587e-20
-1.49751e-19
0
0
0
0
0
2.97856e-17
-1.77584e-17
-4.11459e-17
0
0
-3.13099e-18
-4.25595e-18
3.04335e-18
0
-1.30264e-18
8.5002e-19
-2.30226e-18
2.53679e-18
-6.62216e-19
6.99425e-19
6.83924e-20
0
-1.43072e-17
1.44833e-17
0
-9.64208e-18
9.56886e-18
1.37044e-17
0
3.16089e-18
2.94208e-18
-1.43752e-17
0
-1.53945e-18
1.0154e-18
5.88297e-19
-3.76613e-19
4.97129e-19
0
-1.53248e-19
0
-7.36993e-18
-6.91247e-18
4.08075e-19
9.90699e-18
-2.40861e-17
0
-4.9164e-18
0
1.02504e-17
3.44515e-18
0
6.08293e-18
-5.67123e-18
7.20491e-19
-7.42145e-19
3.89033e-19
9.62325e-19
3.09421e-19
-2.45516e-19
0
1.48121e-17
-1.16858e-17
1.42743e-17
1.50035e-17
0
9.78321e-18
-8.78843e-18
-5.59929e-18
6.90772e-18
-1.02071e-17
-3.98558e-18
0
0
5.26254e-19
0
0
1.16459e-19
0
-6.77045e-17
5.24102e-17
0
1.1858e-18
-8.45098e-18
-4.21901e-19
6.52491e-18
3.61792e-18
-5.26582e-18
-9.95285e-18
1.32783e-17
-3.71465e-18
0
-1.19709e-18
0
0
0
-4.56104e-19
3.66281e-19
-1.96349e-17
1.74844e-17
4.30537e-17
-4.09865e-17
1.17192e-17
9.55794e-19
-6.60893e-18
5.05685e-18
7.57189e-18
4.94297e-18
-9.63704e-18
0
3.41418e-18
-2.85792e-20
-1.3697e-18
-2.39861e-18
1.91031e-18
-2.29987e-19
4.71634e-19
-6.82184e-17
8.92829e-17
-8.74562e-17
1.41179e-17
1.07979e-17
-9.83941e-18
7.82988e-18
-5.36262e-18
0
-3.7126e-18
4.9003e-18
2.07974e-18
3.01342e-18
3.02829e-18
-4.36854e-18
-1.99187e-19
0
-2.12846e-19
7.33122e-20
-7.37372e-17
-2.04319e-17
-3.30333e-17
1.8176e-17
-2.58804e-17
2.05515e-17
-1.17316e-17
8.71648e-18
-9.51211e-19
-9.07263e-19
-5.5983e-18
3.55517e-18
-1.27474e-18
4.18988e-18
-4.49788e-18
3.2908e-19
4.04333e-19
0
-1.35439e-19
7.9726e-17
-2.21854e-17
0
0
-2.6555e-17
5.03118e-17
-1.11073e-17
-1.81409e-18
1.39317e-17
-4.19573e-19
0
0
-2.20958e-18
0
-4.17175e-18
9.51251e-18
-6.39325e-18
0
6.03364e-20
2.66391e-17
4.78063e-17
0
-1.85852e-17
-1.35045e-17
-1.06493e-17
-1.16742e-17
4.28256e-18
-1.14233e-17
-5.53568e-18
0
0
3.62626e-18
0
0
-6.10815e-18
1.02113e-17
0
0
1.82972e-16
-2.47158e-17
-1.04374e-16
-5.15292e-17
7.03612e-17
2.0513e-17
1.13196e-17
0
-3.61366e-18
3.15724e-18
7.92971e-18
-2.46075e-18
-3.18207e-18
4.79315e-18
-5.09844e-18
-1.36718e-18
0
0
0
1.46515e-17
-1.09858e-16
1.07218e-16
-9.69084e-18
-6.97925e-17
1.06351e-16
-5.18927e-17
0
0
2.2276e-17
-1.78453e-17
0
-4.6242e-18
8.22325e-18
-7.93377e-19
2.25957e-18
6.58596e-19
9.73544e-21
1.36015e-19
0
0
0
8.37246e-17
-5.64456e-17
5.36058e-17
-8.23016e-17
2.264e-17
0
-7.15901e-18
1.06953e-17
-1.09312e-17
-1.95375e-18
6.12806e-20
-1.24335e-18
-1.52858e-19
-9.90862e-19
-2.85593e-19
-1.51703e-19
1.21104e-16
-2.1236e-16
9.88858e-17
0
2.34677e-17
-3.21686e-17
2.95248e-17
-2.33513e-17
0
-9.89994e-18
1.3907e-17
0
0
5.71513e-20
0
-1.39549e-18
9.43055e-19
1.45719e-19
2.45907e-19
1.21166e-16
0
-4.37829e-17
4.88141e-17
-2.82858e-17
6.08215e-17
-2.81135e-17
-2.01858e-17
2.03966e-17
-1.9637e-18
0
0
1.13971e-18
-1.81072e-18
-1.26086e-18
2.36495e-18
-5.1039e-19
2.50093e-19
0
6.86761e-17
5.06728e-17
-3.30353e-18
-4.67401e-17
-4.45378e-18
-3.04278e-17
4.2994e-18
2.45208e-17
-1.19786e-18
2.00057e-18
0
0
-1.16756e-18
0
1.32971e-18
-1.42248e-18
0
1.79926e-19
-4.93318e-20
-3.64269e-17
-2.54616e-17
2.38711e-17
-2.59147e-18
-1.12337e-18
2.91453e-18
0
-7.14365e-19
1.01203e-17
-8.51957e-18
0
2.62325e-18
-5.66077e-19
-2.26238e-18
-2.02458e-19
-1.56103e-19
0
-1.4114e-19
0
1.4511e-17
-2.72143e-17
3.90533e-20
1.11498e-17
9.5213e-18
-9.4194e-18
-6.20309e-18
7.00477e-18
-2.23842e-18
1.76284e-18
-1.59559e-18
1.64481e-18
0
3.95962e-21
-1.49456e-19
5.34783e-19
-1.81296e-21
0
0
1.45115e-17
-1.44571e-17
-1.10906e-17
9.85e-18
1.67868e-17
-1.68859e-17
-3.10169e-18
3.10952e-18
-2.25771e-18
2.28124e-18
-1.59569e-18
2.97513e-18
-8.3462e-19
-5.78969e-19
-1.723e-19
5.83184e-20
1.3512e-19
3.54577e-20
-2.65658e-20
0
-3.38886e-18
1.92522e-17
-2.09399e-17
1.6718e-17
-1.48651e-17
0
1.05045e-17
-9.42809e-18
0
3.15223e-18
-3.97328e-18
-2.15905e-18
2.26282e-18
4.00557e-19
0
0
-1.41187e-19
5.11517e-20
5.76896e-17
-1.04719e-16
1.03467e-16
-8.77335e-17
3.39498e-17
-2.65913e-17
2.53375e-17
2.80281e-18
-9.94237e-18
8.85899e-18
0
-5.8002e-18
5.29533e-18
-9.54384e-19
-3.92346e-19
5.91565e-19
4.30456e-19
1.37065e-19
-4.94242e-20
1.36386e-16
0
-4.96402e-17
3.8635e-17
4.40272e-18
-3.18345e-17
5.5209e-17
-4.69606e-17
1.80905e-17
-7.09973e-18
7.26719e-18
1.37866e-18
2.22751e-18
9.2958e-19
-7.27065e-19
-1.08815e-19
-9.25847e-19
0
8.95022e-20
1.06088e-16
-1.19427e-16
0
1.00487e-17
4.07924e-17
-3.95947e-17
6.2951e-18
5.31603e-18
2.26156e-18
3.71766e-18
0
0
-3.83985e-18
6.94426e-18
-2.49234e-18
-8.61901e-19
9.43637e-19
7.39328e-20
-1.68244e-19
1.35412e-17
1.05017e-16
-1.14624e-17
-7.38265e-17
6.49795e-17
7.27192e-18
-6.1609e-18
-5.19218e-18
1.57385e-17
-1.9478e-17
1.07012e-17
-1.09371e-17
1.49863e-18
-2.08671e-18
3.41136e-18
-2.29464e-18
0
0
1.46759e-19
0
2.57866e-17
-7.2821e-17
8.34967e-17
-6.15326e-17
6.1386e-17
0
1.81264e-17
-1.82095e-17
-1.22596e-17
1.78638e-17
0
6.50451e-18
-8.2325e-18
-1.18513e-18
0
-1.1989e-19
-2.10255e-19
-2.02235e-20
-2.53469e-16
1.1853e-16
0
-7.0356e-17
7.03489e-17
3.88952e-17
-2.54303e-17
9.35678e-18
0
-3.67686e-19
2.26443e-18
-2.45849e-18
-3.17957e-18
4.78912e-18
-5.09243e-18
0
9.21354e-19
-1.42075e-19
-1.31742e-19
1.53944e-16
-1.49518e-16
0
1.83368e-17
1.57176e-17
-1.37935e-17
0
-9.80598e-18
-7.50232e-18
0
-6.66366e-19
0
3.62979e-18
0
0
1.21714e-18
4.41475e-18
-5.81634e-18
0
8.73448e-22
2.21969e-17
-1.94151e-17
1.40307e-17
-7.2206e-17
2.66518e-17
0
1.81598e-18
5.03327e-18
0
-4.4425e-18
1.09909e-17
-1.15466e-17
1.61974e-18
0
-3.20322e-19
0
0
0
6.04914e-21
0
1.79444e-17
0
-2.34773e-17
2.38505e-17
0
6.74363e-18
-4.81691e-18
1.63586e-17
-7.65123e-18
2.26623e-18
-3.29238e-18
2.73018e-18
-4.50733e-18
-6.77376e-19
0
-2.99009e-19
0
5.86876e-17
-9.95488e-17
0
-1.39632e-17
1.15882e-17
0
0
-1.20538e-17
0
-3.71698e-18
-4.90671e-18
-2.08288e-18
3.01859e-18
0
1.13503e-18
0
0
6.16552e-19
-6.38401e-19
0
8.25184e-17
-6.56631e-17
1.29267e-17
-1.07308e-17
-3.8054e-18
1.04805e-17
1.04546e-17
-1.09653e-17
3.46694e-18
5.4327e-19
-2.18657e-18
8.63274e-18
-2.62263e-18
-4.90825e-18
1.55311e-18
-3.1245e-19
1.92005e-19
-4.66857e-20
-1.43492e-16
5.24372e-17
0
0
4.27793e-18
-4.35018e-18
2.3266e-18
9.72349e-19
9.48724e-18
4.0991e-18
-3.82231e-18
-3.36278e-19
-1.53212e-18
1.19918e-18
0
4.08678e-19
2.86384e-19
1.2631e-19
4.21973e-20
0
4.34057e-17
-3.83567e-17
1.18626e-17
1.05766e-17
-1.97418e-18
-5.4338e-18
-4.10054e-18
-1.16467e-17
3.96143e-18
-1.71892e-18
2.84328e-18
1.43272e-18
-1.39222e-18
1.47776e-18
6.95194e-19
-9.68346e-19
-1.16666e-19
0
-8.32761e-18
-3.49533e-17
1.16341e-17
9.91027e-18
-3.04013e-17
2.07535e-17
8.27217e-18
-8.45543e-18
5.31563e-18
-3.75959e-18
0
0
-1.78929e-18
3.02846e-18
-1.22276e-18
8.92893e-19
-9.85295e-19
1.38919e-19
-2.45902e-19
1.52913e-17
1.35493e-17
-1.14557e-17
7.42578e-18
-9.59039e-18
-1.18598e-17
0
0
0
0
0
0
9.11929e-19
-1.98098e-18
2.0951e-18
-5.28455e-19
6.62894e-19
2.71093e-19
-2.26799e-19
3.23062e-17
-4.93234e-17
6.12859e-17
-2.39109e-17
3.36413e-17
-1.94431e-17
3.42798e-17
-1.76643e-17
-7.11599e-18
7.27933e-18
0
1.30196e-18
-8.90907e-19
1.72884e-18
-7.33392e-19
-7.1601e-19
-1.19463e-18
9.97151e-20
1.88573e-19
5.06213e-17
1.3402e-17
0
-1.78648e-17
-1.20808e-17
2.61707e-17
1.34099e-18
-8.19782e-18
4.46321e-18
-2.54511e-18
0
-1.03065e-18
0
-6.17272e-19
4.53166e-19
-3.54181e-19
-1.10742e-19
6.73562e-20
0
7.02253e-17
-1.41674e-17
5.41513e-17
-4.21028e-17
-7.37831e-18
2.48705e-17
-1.48349e-17
1.0246e-18
7.22675e-19
-2.52846e-18
2.30082e-18
0
0
8.16654e-19
-2.17445e-19
1.18736e-19
3.99071e-19
-1.37043e-19
0
1.1578e-20
0
-1.23854e-17
6.58204e-17
-4.33768e-17
-3.87698e-17
2.09393e-17
-1.7151e-17
1.52246e-17
6.25112e-18
-4.01493e-18
1.44383e-18
-1.187e-18
2.63454e-19
1.41409e-18
-3.27515e-21
-4.04446e-19
3.87875e-19
-8.24931e-20
1.6715e-16
-5.24529e-17
2.14544e-17
-6.82789e-17
1.65585e-17
-2.28386e-17
1.28391e-17
0
0
-4.08243e-19
-6.45153e-19
-1.83125e-19
0
-1.39992e-18
-9.27617e-19
6.0514e-19
-4.1559e-20
9.83316e-20
1.74038e-19
0
-5.04198e-17
7.85753e-17
1.33831e-17
-5.80656e-17
1.36377e-17
-1.81879e-17
4.67121e-18
1.31903e-17
0
0
2.08331e-19
1.61957e-18
0
-1.07624e-18
-4.26458e-19
6.58366e-20
-1.7797e-19
-2.26995e-19
0
-3.00576e-17
1.03678e-17
5.30162e-17
3.36892e-17
-5.96803e-17
2.57946e-17
-1.45678e-17
8.13051e-18
-9.07674e-18
0
0
0
-2.2785e-18
4.00443e-19
-6.26656e-19
0
-3.40045e-20
1.6558e-19
-1.24105e-16
1.15868e-16
1.11942e-16
-1.34907e-16
5.553e-17
-5.10035e-17
0
1.57047e-17
-2.05656e-17
1.08564e-17
-7.20599e-18
5.18483e-18
3.71959e-18
2.35647e-18
1.66058e-18
0
0
0
0
1.41224e-16
-7.69107e-17
0
0
-2.1087e-17
4.58524e-17
-2.90048e-17
-1.6924e-17
1.67333e-17
1.03016e-17
1.54476e-17
-5.37976e-18
2.15103e-18
1.38835e-18
9.1808e-19
7.77115e-19
1.21145e-18
-5.71226e-20
5.81845e-20
-1.4136e-16
1.26288e-16
6.13626e-17
-3.27846e-17
6.16105e-17
-3.90953e-17
-2.71484e-17
-2.07917e-17
0
-2.17658e-17
1.69811e-18
6.54493e-18
-4.42744e-18
-3.25141e-18
-1.12349e-18
-1.0454e-18
-8.42358e-19
0
0
-4.86283e-17
0
3.44397e-17
1.30322e-20
0
0
2.80045e-17
2.14541e-17
0
1.21321e-17
0
-9.85422e-18
-2.56815e-18
4.39393e-18
0
2.69494e-18
-3.66253e-19
3.73627e-19
0
1.05441e-16
0
6.45345e-17
-1.16302e-16
9.84616e-17
7.07191e-17
-3.61851e-18
0
2.26666e-18
1.52542e-17
0
-1.18056e-17
1.20845e-17
-1.04051e-17
-2.19766e-18
-2.12115e-18
-6.83499e-19
-1.34635e-19
-5.82737e-19
-9.44592e-17
1.35082e-16
-3.58363e-17
-8.82432e-17
-4.77297e-17
-3.81544e-17
-6.0295e-17
-2.11002e-17
2.74929e-18
6.40368e-18
-6.39165e-18
1.80389e-17
-7.78132e-18
1.45948e-17
-2.70528e-18
0
3.54313e-18
-2.24702e-18
5.64416e-19
2.16845e-16
-6.37671e-18
-1.49791e-16
1.13609e-16
-9.69376e-17
7.82608e-17
-3.81324e-18
-2.49378e-17
2.00076e-17
7.01339e-18
-1.30549e-18
-1.54365e-17
4.05253e-18
5.32355e-18
-1.40754e-18
1.42359e-18
-3.66982e-18
-8.67848e-19
-1.20803e-18
1.06452e-16
4.23702e-17
7.07655e-17
-5.82641e-17
-4.34137e-17
3.9734e-18
-2.84267e-17
6.76169e-17
3.31017e-18
2.7009e-17
1.50007e-17
-1.29189e-17
0
-8.1609e-18
0
0
6.79471e-18
2.79292e-18
1.38612e-18
9.78963e-17
0
6.93336e-17
5.7888e-17
-4.78708e-17
3.8975e-17
0
-2.59924e-17
-3.44164e-17
-2.79876e-17
-1.51335e-17
1.30649e-17
0
0
0
0
-6.39481e-18
-5.77965e-18
0
-1.91681e-16
0
-5.44896e-18
-4.90712e-18
7.37046e-17
-3.72781e-17
-1.62591e-17
-1.64584e-17
3.58036e-17
0
8.878e-18
-9.02636e-19
9.11885e-18
0
0
1.28706e-17
-9.81563e-19
6.95615e-18
-3.15297e-18
1.33575e-16
3.60435e-17
-3.56714e-17
-2.96263e-17
-9.43435e-17
6.14469e-17
6.99695e-17
-3.17496e-18
-2.52096e-17
2.60842e-17
5.24664e-18
-2.79047e-17
-2.16438e-17
-1.53074e-17
-1.65893e-17
-1.48869e-17
1.43791e-17
-6.61974e-19
3.2293e-18
-4.02956e-17
1.74527e-17
-8.24804e-17
1.293e-17
-1.2883e-17
0
-3.53028e-17
-4.33231e-18
-3.27065e-17
4.93966e-18
3.19541e-17
2.19914e-17
-5.81226e-18
3.44952e-19
1.56478e-17
0
-3.13117e-17
-1.2415e-17
-2.53054e-19
8.42134e-17
-2.13784e-18
1.29827e-16
-5.94973e-17
1.7979e-19
1.46741e-18
4.30804e-17
-5.61174e-18
3.17199e-17
-2.95761e-17
-2.80441e-17
0
3.20961e-17
2.43267e-17
3.72899e-19
-5.47929e-19
1.75581e-17
1.26146e-17
0
-5.93732e-17
0
-1.18422e-17
5.73199e-17
1.21292e-18
1.25622e-17
-4.16581e-17
3.8727e-17
4.37705e-17
4.22325e-17
4.11646e-17
0
-3.11808e-17
0
1.84906e-18
-1.92042e-18
0
-1.98042e-19
1.00035e-17
4.24976e-17
3.31681e-18
-2.96792e-17
9.33521e-17
-2.93716e-17
0
0
-5.24407e-17
-4.24092e-17
-4.09138e-17
-7.80482e-17
-1.09904e-17
0
0
0
-4.05707e-18
4.2934e-18
2.84391e-17
-1.01607e-17
3.50035e-18
0
-6.75705e-17
-5.89603e-17
6.36081e-17
-6.34561e-17
-8.96967e-17
1.06429e-16
3.18163e-17
0
4.748e-17
5.74875e-17
-1.23998e-17
6.87394e-17
-1.13585e-17
1.18214e-17
4.709e-17
-2.70267e-17
0
-8.06705e-17
0
-7.58874e-17
7.38239e-17
0
1.27657e-16
5.89298e-17
-1.27192e-16
1.04909e-16
-4.76224e-19
-3.10927e-17
-5.56597e-17
0
8.19315e-17
-1.35765e-16
1.46239e-16
-1.86498e-16
0
0
8.06317e-17
-8.26361e-19
-2.0167e-18
-1.5082e-16
1.53471e-16
-7.33509e-17
7.30519e-17
7.20403e-17
-6.09445e-17
0
0
1.22702e-16
-1.24816e-16
-1.31223e-16
1.30739e-16
-1.2787e-16
1.38719e-16
-2.17715e-16
0
)
;

boundaryField
{
    up
    {
        type            calculated;
        value           nonuniform List<scalar> 
84
(
0
0
0
0
-7.11964e-18
1.26154e-17
-5.16364e-18
3.22929e-18
-2.85366e-18
0
-1.55588e-18
1.4603e-18
-7.50809e-19
1.70485e-19
1.23217e-19
3.88522e-19
0
0
-1.30974e-19
9.95947e-20
7.67382e-20
-7.45121e-20
5.89915e-21
0
2.78838e-20
1.70189e-20
-2.26208e-19
0
3.66281e-19
5.15715e-19
7.33122e-20
-1.35439e-19
6.03364e-20
0
-2.24541e-20
1.37701e-19
-1.49539e-19
2.44083e-19
0
-4.88733e-20
0
0
-2.6523e-20
5.11517e-20
-4.94242e-20
8.95022e-20
-1.68244e-19
1.46759e-19
-2.02235e-20
-1.31742e-19
0
0
0
-6.38401e-19
-9.09088e-20
4.21973e-20
0
-2.45902e-19
-2.26799e-19
1.60756e-19
0
0
-8.24931e-20
1.74038e-19
-2.26995e-19
1.6558e-19
0
5.81845e-20
0
0
-5.82737e-19
5.64416e-19
-1.20803e-18
1.38612e-18
0
-3.15297e-18
3.2293e-18
-2.53054e-19
0
1.00035e-17
-1.01607e-17
0
0
0
)
;
    }
    low
    {
        type            calculated;
        value           nonuniform List<scalar> 
84
(
-1.61523e-16
1.60104e-16
-7.66607e-17
1.23186e-16
2.18765e-17
-5.68606e-18
4.75117e-17
7.13741e-18
0
1.96738e-16
-4.98695e-17
3.70618e-17
-4.39223e-17
-2.9754e-16
4.86058e-17
0
-4.52022e-17
5.62615e-18
-5.47329e-18
-3.43041e-17
1.86213e-17
4.79955e-17
8.63574e-17
-7.40433e-17
0
-1.43072e-17
-7.36993e-18
0
-6.77045e-17
-1.96349e-17
-6.79714e-17
-7.35633e-17
7.96354e-17
2.66391e-17
1.8305e-16
1.46515e-17
0
1.21104e-16
1.21543e-16
6.88757e-17
-3.65312e-17
1.4511e-17
1.45115e-17
0
5.76896e-17
1.36763e-16
1.06088e-16
1.38296e-17
0
-2.53546e-16
1.53944e-16
8.73448e-22
6.04914e-21
5.86876e-17
0
-1.43031e-16
0
-8.32761e-18
1.52913e-17
3.20245e-17
5.01464e-17
6.98006e-17
1.1578e-20
1.66837e-16
0
0
-1.24105e-16
1.41129e-16
-1.41323e-16
-4.86283e-17
1.05507e-16
-9.44592e-17
2.17391e-16
1.06812e-16
9.78963e-17
-1.91681e-16
1.33184e-16
-3.98776e-17
8.42134e-17
-5.91966e-17
4.24976e-17
3.83636e-18
-8.06705e-17
8.07237e-17
)
;
    }
    left
    {
        type            calculated;
        value           nonuniform List<scalar> 
19
(
-1.61339e-16
-7.75763e-17
7.97933e-17
2.70934e-18
-1.49356e-16
0
-6.80434e-17
-6.71164e-17
-6.16397e-18
-3.61247e-17
-2.33739e-19
-3.62044e-17
1.62896e-16
-3.6107e-17
1.68099e-16
1.45543e-16
8.67054e-17
1.27542e-16
0
)
;
    }
    right
    {
        type            calculated;
        value           nonuniform List<scalar> 
19
(
8.06317e-17
-7.41377e-19
-2.0167e-18
-1.5084e-16
1.53555e-16
-7.33509e-17
7.30519e-17
7.20403e-17
-6.06647e-17
0
0
1.2385e-16
-1.26395e-16
-1.31223e-16
1.30739e-16
-1.2787e-16
1.38719e-16
-2.35389e-16
0
)
;
    }
    frontAndBackPlanes
    {
        type            empty;
    }
}


// ************************************************************************* //
