/*--------------------------------*- C++ -*----------------------------------*\
  =========                 |
  \\      /  F ield         | OpenFOAM: The Open Source CFD Toolbox
   \\    /   O peration     | Website:  https://openfoam.org
    \\  /    A nd           | Version:  7
     \\/     M anipulation  |
\*---------------------------------------------------------------------------*/
FoamFile
{
    version     2.0;
    format      ascii;
    class       volScalarField;
    location    "0.11";
    object      gradTy;
}
// * * * * * * * * * * * * * * * * * * * * * * * * * * * * * * * * * * * * * //

dimensions      [0 -1 0 1 0 0 0];

internalField   nonuniform List<scalar> 
1596
(
-0.311784
-0.573506
-0.777192
-0.958276
-1.11407
-1.26727
-1.4051
-1.55179
-1.71335
-1.89295
-2.14768
-2.47157
-2.93808
-3.62879
-4.74399
-6.52294
-9.75015
-15.7394
-37.1758
-0.941388
-1.1438
-1.25846
-1.34227
-1.40289
-1.46898
-1.53239
-1.61691
-1.72956
-1.86932
-2.08565
-2.36855
-2.76852
-3.32266
-4.13594
-5.25622
-6.94796
-9.44894
-16.5501
-1.66107
-1.70458
-1.69492
-1.67095
-1.63591
-1.61666
-1.60621
-1.62634
-1.6828
-1.77183
-1.93487
-2.15783
-2.47658
-2.90814
-3.51801
-4.30953
-5.42834
-6.96995
-10.2623
-2.38385
-2.22707
-2.08049
-1.94769
-1.82096
-1.72069
-1.63974
-1.59649
-1.59508
-1.62993
-1.73492
-1.89397
-2.13281
-2.45822
-2.91357
-3.48521
-4.26105
-5.27607
-6.99995
-3.01175
-2.68097
-2.4113
-2.17991
-1.97067
-1.79672
-1.65103
-1.54818
-1.49097
-1.473
-1.52117
-1.61942
-1.78615
-2.023
-2.36036
-2.77965
-3.33858
-4.0458
-5.07141
-3.47006
-3.04176
-2.68493
-2.37544
-2.09768
-1.86013
-1.65734
-1.50055
-1.39193
-1.32511
-1.32074
-1.36405
-1.46783
-1.63114
-1.87602
-2.18413
-2.59586
-3.10912
-3.78752
-3.73297
-3.29483
-2.89816
-2.53826
-2.20979
-1.921
-1.67012
-1.46634
-1.31202
-1.20159
-1.15032
-1.14542
-1.19516
-1.29725
-1.46768
-1.69036
-1.99464
-2.37494
-2.85586
-3.82043
-3.43627
-3.04514
-2.6652
-2.30631
-1.9806
-1.69199
-1.44929
-1.25598
-1.10797
-1.01619
-0.970047
-0.974207
-1.02552
-1.13523
-1.28995
-1.51121
-1.79319
-2.14574
-3.7805
-3.49069
-3.13911
-2.76495
-2.39372
-2.04414
-1.72701
-1.45255
-1.22619
-1.04591
-0.919446
-0.838382
-0.804529
-0.814115
-0.874413
-0.974436
-1.12966
-1.33508
-1.59475
-3.64865
-3.45084
-3.15746
-2.81125
-2.44682
-2.08926
-1.75601
-1.45998
-1.20913
-1.00389
-0.850041
-0.74118
-0.677063
-0.653471
-0.674397
-0.730822
-0.833392
-0.978223
-1.1671
-3.51231
-3.37263
-3.13189
-2.82059
-2.47332
-2.11844
-1.77829
-1.4688
-1.2006
-0.976686
-0.801899
-0.671631
-0.584266
-0.535255
-0.525929
-0.548652
-0.610113
-0.707212
-0.840706
-3.36531
-3.28185
-3.08733
-2.81036
-2.48384
-2.13723
-1.79591
-1.47853
-1.19823
-0.960408
-0.769787
-0.623254
-0.518368
-0.450344
-0.418419
-0.415831
-0.446076
-0.506451
-0.597066
-3.19802
-3.16249
-3.00991
-2.76666
-2.46368
-2.13067
-1.79445
-1.47578
-1.1898
-0.943977
-0.743404
-0.586179
-0.469497
-0.388456
-0.340761
-0.320188
-0.327807
-0.36105
-0.419545
-3.06096
-3.04754
-2.92387
-2.70751
-2.42532
-2.10633
-1.77757
-1.46125
-1.17387
-0.924414
-0.718543
-0.555206
-0.431485
-0.342408
-0.2846
-0.252125
-0.244258
-0.258369
-0.293659
-2.94292
-2.94568
-2.84058
-2.64299
-2.37659
-2.06941
-1.74815
-1.4358
-1.14971
-0.899834
-0.692284
-0.526527
-0.399605
-0.306482
-0.243026
-0.203432
-0.185707
-0.187074
-0.206371
-2.83234
-2.85237
-2.76105
-2.57598
-2.32028
-2.02181
-1.70694
-1.39916
-1.11617
-0.868401
-0.662173
-0.497123
-0.37021
-0.27629
-0.210701
-0.167678
-0.144377
-0.137874
-0.146731
-2.7378
-2.7692
-2.68723
-2.50943
-2.25944
-1.96593
-1.65547
-1.35195
-1.0731
-0.829349
-0.626895
-0.465184
-0.340955
-0.248875
-0.183885
-0.140217
-0.114486
-0.103659
-0.106122
-2.66025
-2.69986
-2.62352
-2.44841
-2.19937
-1.90669
-1.59786
-1.29729
-1.02265
-0.783986
-0.586976
-0.430552
-0.311024
-0.22276
-0.160358
-0.118025
-0.0920459
-0.0793339
-0.0781781
-2.58057
-2.64232
-2.57409
-2.39977
-2.14798
-1.85197
-1.54127
-1.24125
-0.969604
-0.73586
-0.544836
-0.394657
-0.280973
-0.197717
-0.139132
-0.0993754
-0.0745228
-0.061476
-0.0584865
-2.49364
-2.585
-2.52982
-2.35725
-2.10124
-1.79941
-1.48442
-1.18323
-0.913791
-0.684994
-0.500534
-0.357478
-0.250606
-0.173297
-0.119423
-0.083083
-0.0602403
-0.0478305
-0.0441195
-2.4202
-2.53533
-2.49392
-2.32342
-2.06189
-1.75193
-1.43023
-1.12596
-0.8576
-0.63337
-0.455616
-0.320126
-0.220613
-0.149788
-0.101127
-0.0686646
-0.0483107
-0.0370744
-0.0332798
-2.35316
-2.49349
-2.46674
-2.29891
-2.03142
-1.71183
-1.38155
-1.07245
-0.803868
-0.583459
-0.412076
-0.284093
-0.192007
-0.127778
-0.0844533
-0.0559968
-0.0382885
-0.0284306
-0.024854
-2.28642
-2.45626
-2.44657
-2.28293
-2.01002
-1.68037
-1.34042
-1.02517
-0.755135
-0.537564
-0.371822
-0.250828
-0.165789
-0.107876
-0.0696942
-0.0451187
-0.0299877
-0.0214482
-0.0180708
-2.22159
-2.42167
-2.42985
-2.27079
-1.99261
-1.65249
-1.30231
-0.980186
-0.708057
-0.492926
-0.332449
-0.218287
-0.14022
-0.0886108
-0.0555969
-0.0350074
-0.0225687
-0.0153463
-0.0114916
-2.16473
-2.3946
-2.42898
-2.28826
-2.02034
-1.68287
-1.33051
-1.00336
-0.725538
-0.505504
-0.341001
-0.224112
-0.144167
-0.0913798
-0.0576202
-0.0366592
-0.0239462
-0.0163687
-0.0116048
-2.12103
-2.37213
-2.42916
-2.31022
-2.05977
-1.73287
-1.38395
-1.05412
-0.769648
-0.541348
-0.368381
-0.244117
-0.15821
-0.100911
-0.0638955
-0.0407854
-0.0267407
-0.0185126
-0.0137317
-2.1149
-2.37073
-2.43936
-2.33645
-2.10212
-1.78765
-1.4451
-1.11532
-0.825793
-0.589379
-0.407113
-0.273889
-0.180136
-0.116449
-0.0745273
-0.0479224
-0.0315643
-0.0219655
-0.016486
-2.15164
-2.39511
-2.46164
-2.36568
-2.14326
-1.84099
-1.50705
-1.18043
-0.888592
-0.645828
-0.454867
-0.312356
-0.209766
-0.138315
-0.0899657
-0.058441
-0.0385909
-0.0267687
-0.0199863
-2.22484
-2.44574
-2.49948
-2.40265
-2.18793
-1.89683
-1.57282
-1.25178
-0.960134
-0.712878
-0.514115
-0.362305
-0.250104
-0.169542
-0.112999
-0.0746457
-0.049518
-0.0340775
-0.0250132
-2.33044
-2.51688
-2.54977
-2.44665
-2.23661
-1.9559
-1.64286
-1.32958
-1.04064
-0.791118
-0.58606
-0.425679
-0.303835
-0.213414
-0.147182
-0.0998981
-0.0670799
-0.04586
-0.032908
-2.46486
-2.60828
-2.61668
-2.50436
-2.29677
-2.02519
-1.72306
-1.41846
-1.13373
-0.883542
-0.673522
-0.505511
-0.374535
-0.27429
-0.197614
-0.139596
-0.0961328
-0.065788
-0.0461421
-2.60141
-2.70997
-2.69589
-2.57425
-2.3684
-2.10544
-1.81434
-1.51925
-1.24015
-0.990982
-0.777616
-0.603449
-0.464738
-0.35609
-0.270087
-0.201438
-0.145167
-0.101121
-0.0696139
-2.75236
-2.82619
-2.7891
-2.65713
-2.45185
-2.19665
-1.91638
-1.63148
-1.35937
-1.11301
-0.898167
-0.719667
-0.575171
-0.460728
-0.368951
-0.293979
-0.227684
-0.168058
-0.113659
-2.92682
-2.96361
-2.9028
-2.76012
-2.55517
-2.30794
-2.03927
-1.76605
-1.50309
-1.26201
-1.04837
-0.867913
-0.719958
-0.602803
-0.510736
-0.439108
-0.377792
-0.321487
-0.263937
-3.11575
-3.11324
-3.02245
-2.86171
-2.64948
-2.40329
-2.14031
-1.8746
-1.61848
-1.38172
-1.16967
-0.987663
-0.836149
-0.714994
-0.621299
-0.553311
-0.50441
-0.469829
-0.442224
-3.32723
-3.27287
-3.14331
-2.95685
-2.72979
-2.47731
-2.21352
-1.95039
-1.69831
-1.46531
-1.2567
-1.07675
-0.926271
-0.805139
-0.711583
-0.643973
-0.598711
-0.573586
-0.565544
-3.56091
-3.44586
-3.27527
-3.06177
-2.81791
-2.5562
-2.28837
-2.0247
-1.77424
-1.54389
-1.33867
-1.16219
-1.01517
-0.897238
-0.806541
-0.740415
-0.694688
-0.665525
-0.648352
-3.76734
-3.59933
-3.39266
-3.15482
-2.89534
-2.62446
-2.35214
-2.08722
-1.83763
-1.60937
-1.40695
-1.23353
-1.08957
-0.97452
-0.886497
-0.822696
-0.779039
-0.751733
-0.736333
-3.92648
-3.72438
-3.49192
-3.2357
-2.96405
-2.68589
-2.40994
-2.144
-1.89515
-1.66869
-1.46874
-1.2981
-1.15706
-1.04492
-0.959831
-0.898857
-0.858013
-0.833434
-0.820665
-4.05058
-3.82316
-3.57123
-3.30098
-3.01993
-2.73608
-2.45727
-2.19051
-1.94225
-1.71725
-1.51937
-1.35109
-1.21258
-1.10303
-1.02059
-0.962209
-0.923968
-0.901934
-0.891649
-4.14062
-3.89432
-3.62768
-3.34704
-3.05918
-2.77129
-2.49048
-2.22318
-1.97542
-1.75155
-1.55524
-1.38878
-1.25223
-1.1447
-1.06432
-1.00795
-0.971678
-0.951497
-0.942917
-4.20261
-3.93579
-3.65772
-3.37036
-3.07856
-2.78852
-2.50676
-2.23934
-1.99199
-1.76887
-1.57356
-1.40821
-1.27284
-1.16652
-1.0874
-1.0323
-0.997345
-0.978511
-0.971299
-4.20263
-3.93583
-3.65777
-3.37041
-3.07862
-2.78858
-2.50683
-2.2394
-1.99206
-1.76894
-1.57363
-1.40828
-1.27291
-1.16659
-1.08747
-1.03237
-0.997423
-0.978594
-0.971387
-4.14064
-3.89439
-3.62779
-3.34717
-3.05933
-2.77145
-2.49065
-2.22337
-1.97561
-1.75175
-1.55545
-1.38899
-1.25244
-1.14491
-1.06454
-1.00817
-0.971917
-0.951753
-0.943195
-4.05062
-3.82327
-3.57139
-3.30118
-3.02017
-2.73635
-2.45756
-2.19081
-1.94256
-1.71757
-1.51969
-1.35142
-1.21291
-1.10337
-1.02093
-0.962564
-0.924342
-0.902332
-0.892076
-3.92654
-3.72452
-3.49213
-3.23596
-2.96436
-2.68623
-2.41031
-2.14439
-1.89556
-1.66911
-1.46917
-1.29852
-1.15748
-1.04535
-0.960264
-0.899302
-0.858476
-0.833922
-0.821184
-3.7674
-3.59949
-3.3929
-3.15512
-2.89571
-2.62488
-2.35259
-2.0877
-1.83813
-1.60988
-1.40746
-1.23403
-1.09008
-0.975024
-0.887003
-0.823211
-0.77957
-0.752288
-0.736921
-3.56098
-3.44604
-3.27554
-3.06211
-2.81833
-2.55667
-2.28888
-2.02525
-1.77481
-1.54446
-1.33924
-1.16276
-1.01573
-0.897788
-0.807086
-0.740959
-0.695237
-0.666084
-0.648928
-3.3273
-3.27308
-3.14364
-2.9573
-2.73034
-2.47796
-2.21425
-1.95117
-1.69912
-1.46614
-1.25752
-1.07757
-0.927074
-0.805932
-0.712371
-0.644749
-0.599466
-0.574289
-0.566151
-3.1158
-3.11328
-3.02255
-2.8619
-2.64978
-2.40368
-2.14081
-1.87517
-1.61909
-1.38234
-1.17028
-0.988229
-0.836652
-0.715418
-0.621647
-0.553602
-0.504725
-0.470311
-0.443088
-2.92685
-2.96378
-2.90314
-2.76065
-2.5559
-2.30887
-2.04037
-1.76728
-1.50438
-1.26332
-1.04966
-0.869151
-0.721129
-0.603911
-0.511815
-0.440216
-0.37901
-0.322903
-0.265615
-2.75236
-2.82623
-2.78926
-2.65746
-2.45235
-2.19731
-1.91718
-1.63237
-1.3603
-1.11394
-0.899053
-0.720486
-0.575918
-0.461413
-0.369598
-0.294617
-0.228315
-0.168641
-0.114099
-2.6014
-2.71
-2.69603
-2.57455
-2.36888
-2.10609
-1.81511
-1.52011
-1.24103
-0.991837
-0.778411
-0.604166
-0.465373
-0.356655
-0.270599
-0.201909
-0.145587
-0.101459
-0.0698463
-2.46484
-2.60828
-2.61679
-2.50462
-2.29721
-2.0258
-1.72378
-1.41924
-1.13452
-0.884299
-0.674208
-0.506111
-0.375051
-0.27473
-0.197993
-0.13992
-0.096399
-0.0659894
-0.0462729
-2.33041
-2.51686
-2.54985
-2.44688
-2.23701
-1.95646
-1.64353
-1.3303
-1.04135
-0.791778
-0.586642
-0.426173
-0.304245
-0.213751
-0.147457
-0.100119
-0.0672503
-0.0459832
-0.0329863
-2.22481
-2.44571
-2.49954
-2.40285
-2.18829
-1.89734
-1.57342
-1.25242
-0.960756
-0.713443
-0.5146
-0.362705
-0.250426
-0.169796
-0.113197
-0.0747971
-0.0496293
-0.0341555
-0.0250628
-2.1516
-2.39507
-2.46168
-2.36585
-2.14359
-1.84144
-1.50758
-1.18098
-0.889124
-0.6463
-0.455263
-0.312674
-0.210015
-0.138506
-0.0901092
-0.0585461
-0.0386657
-0.0268206
-0.0200208
-2.11486
-2.37069
-2.43939
-2.3366
-2.1024
-1.78804
-1.44556
-1.11579
-0.826236
-0.589766
-0.407431
-0.27414
-0.180329
-0.116593
-0.0746328
-0.0479977
-0.0316171
-0.0220029
-0.0165133
-2.12099
-2.37209
-2.42918
-2.31033
-2.05998
-1.73317
-1.38429
-1.05447
-0.769976
-0.541631
-0.368612
-0.244297
-0.158346
-0.101012
-0.0639673
-0.0408357
-0.0267755
-0.0185382
-0.0137541
-2.16476
-2.39462
-2.42902
-2.28833
-2.02044
-1.683
-1.33065
-1.00351
-0.725676
-0.505628
-0.341108
-0.2242
-0.144238
-0.0914358
-0.0576632
-0.0366922
-0.0239714
-0.0163877
-0.0116158
-2.22162
-2.42169
-2.42985
-2.27075
-1.99253
-1.65238
-1.3022
-0.980068
-0.707949
-0.492834
-0.332375
-0.218229
-0.140177
-0.0885799
-0.0555749
-0.0349917
-0.0225574
-0.0153373
-0.0114803
-2.28644
-2.45627
-2.44658
-2.28293
-2.01002
-1.68037
-1.34041
-1.02517
-0.75514
-0.537572
-0.37183
-0.250835
-0.165796
-0.107881
-0.0696974
-0.0451208
-0.029989
-0.0214491
-0.0180704
-2.35317
-2.4935
-2.46674
-2.2989
-2.03141
-1.71182
-1.38154
-1.07245
-0.803868
-0.583461
-0.412079
-0.284096
-0.19201
-0.12778
-0.0844549
-0.055998
-0.0382896
-0.0284317
-0.0248546
-2.42022
-2.53533
-2.49392
-2.32341
-2.06188
-1.75192
-1.43022
-1.12596
-0.857599
-0.633371
-0.455617
-0.320127
-0.220614
-0.14979
-0.101128
-0.0686657
-0.0483121
-0.0370763
-0.0332814
-2.49365
-2.58501
-2.52982
-2.35724
-2.10124
-1.79941
-1.48441
-1.18323
-0.913791
-0.684994
-0.500534
-0.357478
-0.250607
-0.173297
-0.119423
-0.0830842
-0.0602425
-0.0478338
-0.0441226
-2.58057
-2.64232
-2.57409
-2.39976
-2.14798
-1.85197
-1.54127
-1.24125
-0.969603
-0.735859
-0.544834
-0.394656
-0.280972
-0.197716
-0.139132
-0.099377
-0.0745262
-0.0614811
-0.0584915
-2.66025
-2.69986
-2.62352
-2.44841
-2.19937
-1.90669
-1.59786
-1.29729
-1.02265
-0.783983
-0.586973
-0.430549
-0.311021
-0.222758
-0.160358
-0.118028
-0.0920509
-0.0793414
-0.0781854
-2.7378
-2.7692
-2.68723
-2.50943
-2.25944
-1.96593
-1.65547
-1.35195
-1.0731
-0.829345
-0.62689
-0.46518
-0.340951
-0.248873
-0.183886
-0.140221
-0.114493
-0.10367
-0.106131
-2.83234
-2.85237
-2.76104
-2.57599
-2.32029
-2.02181
-1.70694
-1.39916
-1.11617
-0.868396
-0.662167
-0.497117
-0.370206
-0.276288
-0.210702
-0.167683
-0.144387
-0.137887
-0.146742
-2.94292
-2.94568
-2.84058
-2.64299
-2.37659
-2.06941
-1.74815
-1.4358
-1.14971
-0.899828
-0.692276
-0.52652
-0.3996
-0.30648
-0.243028
-0.203438
-0.185719
-0.187088
-0.206381
-3.06095
-3.04753
-2.92387
-2.70751
-2.42532
-2.10633
-1.77758
-1.46125
-1.17386
-0.924406
-0.718534
-0.555198
-0.431479
-0.342406
-0.284603
-0.252133
-0.24427
-0.258381
-0.293665
-3.19801
-3.16248
-3.00992
-2.76667
-2.46369
-2.13068
-1.79445
-1.47578
-1.1898
-0.943968
-0.743394
-0.58617
-0.469492
-0.388455
-0.340765
-0.320196
-0.327817
-0.361057
-0.419546
-3.3653
-3.28184
-3.08733
-2.81037
-2.48385
-2.13724
-1.79591
-1.47853
-1.19822
-0.960397
-0.769777
-0.623246
-0.518363
-0.450345
-0.418424
-0.415838
-0.44608
-0.506448
-0.597057
-3.5123
-3.37263
-3.1319
-2.8206
-2.47332
-2.11844
-1.77829
-1.46879
-1.2006
-0.976677
-0.801891
-0.671625
-0.584264
-0.535257
-0.525934
-0.548655
-0.610108
-0.707196
-0.840687
-3.64864
-3.45084
-3.15747
-2.81126
-2.44682
-2.08927
-1.756
-1.45997
-1.20912
-1.00388
-0.850034
-0.741177
-0.677064
-0.653475
-0.6744
-0.730819
-0.833376
-0.978195
-1.16707
-3.78049
-3.4907
-3.13912
-2.76496
-2.39372
-2.04414
-1.727
-1.45254
-1.22618
-1.04591
-0.919443
-0.838383
-0.804532
-0.814119
-0.874413
-0.974426
-1.12963
-1.33504
-1.59472
-3.82043
-3.43628
-3.04515
-2.6652
-2.30631
-1.98059
-1.69199
-1.44929
-1.25597
-1.10797
-1.01619
-0.970051
-0.974213
-1.02552
-1.13523
-1.28993
-1.51118
-1.79315
-2.14573
-3.73298
-3.29485
-2.89817
-2.53826
-2.20979
-1.92099
-1.67012
-1.46634
-1.31202
-1.20159
-1.15033
-1.14543
-1.19517
-1.29725
-1.46767
-1.69034
-1.99461
-2.37491
-2.85586
-3.47007
-3.04177
-2.68494
-2.37544
-2.09769
-1.86013
-1.65735
-1.50056
-1.39194
-1.32512
-1.32075
-1.36406
-1.46783
-1.63114
-1.87601
-2.18411
-2.59584
-3.10911
-3.78753
-3.01176
-2.68098
-2.41131
-2.17992
-1.97067
-1.79673
-1.65104
-1.54819
-1.49098
-1.47301
-1.52119
-1.61943
-1.78615
-2.02299
-2.36034
-2.77963
-3.33857
-4.04581
-5.07143
-2.38386
-2.22707
-2.08049
-1.9477
-1.82096
-1.7207
-1.63975
-1.5965
-1.59509
-1.62995
-1.73493
-1.89398
-2.13281
-2.45821
-2.91355
-3.48519
-4.26105
-5.27608
-6.99997
-1.66107
-1.70457
-1.69491
-1.67096
-1.63592
-1.61667
-1.60622
-1.62635
-1.68282
-1.77185
-1.93488
-2.15784
-2.47658
-2.90813
-3.518
-4.30952
-5.42834
-6.96997
-10.2623
-0.941391
-1.1438
-1.25846
-1.34227
-1.40289
-1.46899
-1.5324
-1.61692
-1.72957
-1.86933
-2.08566
-2.36856
-2.76852
-3.32265
-4.13593
-5.25621
-6.94796
-9.44895
-16.5501
-0.311786
-0.573504
-0.777188
-0.958272
-1.11407
-1.26727
-1.4051
-1.5518
-1.71336
-1.89296
-2.14768
-2.47157
-2.93808
-3.62878
-4.74398
-6.52292
-9.75014
-15.7394
-37.1758
)
;

boundaryField
{
    up
    {
        type            calculated;
        value           nonuniform List<scalar> 
84
(
-33.692
-18.2473
-11.1705
-7.54717
-5.43756
-4.05096
-3.05292
-2.29494
-1.7066
-1.24945
-0.89943
-0.637409
-0.446225
-0.3105
-0.216455
-0.152395
-0.109029
-0.0794449
-0.0588249
-0.0439735
-0.0329085
-0.0243866
-0.0174088
-0.0100393
-0.00962066
-0.0124802
-0.0150466
-0.0181567
-0.0224986
-0.0292211
-0.0403015
-0.0589144
-0.0946906
-0.252054
-0.445319
-0.567347
-0.642417
-0.731327
-0.81685
-0.888966
-0.941017
-0.970081
-0.970171
-0.941305
-0.889407
-0.817384
-0.731931
-0.643002
-0.567861
-0.446242
-0.253976
-0.0951113
-0.0591025
-0.0404039
-0.0292813
-0.0225368
-0.0181841
-0.0150697
-0.0125058
-0.00963236
-0.0100255
-0.017407
-0.0243866
-0.0329097
-0.0439762
-0.0588293
-0.0794511
-0.109037
-0.152404
-0.216462
-0.310502
-0.44622
-0.637396
-0.899411
-1.24943
-1.70659
-2.29494
-3.05295
-4.051
-5.4376
-7.5472
-11.1705
-18.2473
-33.692
)
;
    }
    low
    {
        type            calculated;
        value           nonuniform List<scalar> 
84
(
-0.335193
-0.985986
-1.75577
-2.53939
-3.22133
-3.71172
-3.97666
-4.04246
-3.95616
-3.76909
-3.6065
-3.43554
-3.23448
-3.08051
-2.9537
-2.82876
-2.72105
-2.64001
-2.55063
-2.44061
-2.34806
-2.26471
-2.17806
-2.09426
-2.0063
-1.94752
-1.94291
-2.00048
-2.10144
-2.24125
-2.40588
-2.56206
-2.73409
-2.93166
-3.13879
-3.37377
-3.63934
-3.86432
-4.03311
-4.16513
-4.26163
-4.3342
-4.33421
-4.26164
-4.16514
-4.03313
-3.86435
-3.63938
-3.37383
-3.13876
-2.93169
-2.73406
-2.56204
-2.40586
-2.24123
-2.10142
-2.00047
-1.9429
-1.94752
-2.0063
-2.09431
-2.17805
-2.26472
-2.34806
-2.44062
-2.55063
-2.64001
-2.72105
-2.82877
-2.9537
-3.0805
-3.23447
-3.43553
-3.60649
-3.76907
-3.95614
-4.04245
-3.97666
-3.71174
-3.22134
-2.53941
-1.75579
-0.985997
-0.335197
)
;
    }
    left
    {
        type            calculated;
        value           nonuniform List<scalar> 
19
(
-0.306354
-0.564258
-0.773127
-0.961676
-1.12555
-1.28633
-1.43123
-1.58555
-1.75519
-1.94645
-2.21878
-2.56806
-3.07769
-3.84523
-5.09505
-7.12088
-10.8354
-17.8058
-34.9389
)
;
    }
    right
    {
        type            calculated;
        value           nonuniform List<scalar> 
19
(
-0.306356
-0.564257
-0.773124
-0.961673
-1.12555
-1.28633
-1.43123
-1.58556
-1.75519
-1.94646
-2.21878
-2.56806
-3.07768
-3.84522
-5.09503
-7.12086
-10.8354
-17.8058
-34.9389
)
;
    }
    frontAndBackPlanes
    {
        type            empty;
    }
}


// ************************************************************************* //
