/*--------------------------------*- C++ -*----------------------------------*\
  =========                 |
  \\      /  F ield         | OpenFOAM: The Open Source CFD Toolbox
   \\    /   O peration     | Website:  https://openfoam.org
    \\  /    A nd           | Version:  7
     \\/     M anipulation  |
\*---------------------------------------------------------------------------*/
FoamFile
{
    version     2.0;
    format      ascii;
    class       volScalarField;
    location    "0.25";
    object      T;
}
// * * * * * * * * * * * * * * * * * * * * * * * * * * * * * * * * * * * * * //

dimensions      [0 0 0 1 0 0 0];

internalField   nonuniform List<scalar> 
1596
(
5.98405
5.93833
5.89158
5.8474
5.80669
5.76902
5.73358
5.69852
5.66251
5.62238
5.57569
5.5191
5.4452
5.34371
5.19871
4.97472
4.60567
3.95949
2.77149
5.93105
5.78872
5.65459
5.53147
5.4193
5.31625
5.21992
5.12642
5.03236
4.93187
4.81999
4.69065
4.53286
4.33312
4.07477
3.72631
3.23903
2.52921
1.43827
5.86837
5.62903
5.41403
5.22091
5.0469
4.88844
4.74173
4.60165
4.4636
4.32064
4.16687
3.99545
3.79532
3.5539
3.25746
2.88242
2.39652
1.75017
0.850911
5.80648
5.47632
5.18837
4.93375
4.70654
4.50147
4.31357
4.13698
3.96648
3.79479
3.61583
3.42279
3.20551
2.95315
2.65492
2.29365
1.84829
1.28979
0.564409
5.7551
5.3464
4.99459
4.68626
4.41302
4.16829
3.94624
3.74061
3.54585
3.35469
3.16114
2.95863
2.73798
2.48981
2.20551
1.87219
1.47564
0.998453
0.408728
5.72055
5.25002
4.84431
4.4893
4.17568
3.89627
3.6448
3.41486
3.20079
2.99546
2.79303
2.5872
2.36952
2.1317
1.86647
1.56364
1.21297
0.803454
0.315336
5.70368
5.19018
4.74122
4.34612
3.99664
3.68597
3.40793
3.15623
2.92527
2.70814
2.49919
2.29229
2.07954
1.85336
1.60727
1.33269
1.02165
0.666602
0.254526
5.70081
5.16243
4.68119
4.2526
3.87134
3.53202
3.22913
2.95686
2.70987
2.48156
2.26645
2.05856
1.85041
1.63485
1.40583
1.15573
0.877827
0.566406
0.212207
5.70829
5.16057
4.65744
4.20185
3.79268
3.4269
3.10034
2.80798
2.54499
2.30515
2.08323
1.87339
1.66843
1.46151
1.24677
1.01716
0.766615
0.490351
0.181191
5.71842
5.17158
4.65571
4.17978
3.74713
3.35765
3.00897
2.69726
2.41841
2.16674
1.93731
1.72448
1.52128
1.32105
1.11804
0.905489
0.6777
0.430297
0.157294
5.72658
5.18492
4.66292
4.17279
3.72142
3.31158
2.94301
2.61328
2.31925
2.05589
1.81865
1.60212
1.39957
1.20447
1.01113
0.812947
0.604385
0.381213
0.1381
5.73675
5.20303
4.67877
4.17851
3.71196
3.28446
2.89785
2.55125
2.2426
1.96764
1.72229
1.50141
1.29848
1.10712
0.921614
0.735456
0.543154
0.340457
0.122356
5.74641
5.22199
4.69795
4.19056
3.71175
3.26907
2.86632
2.50419
2.18179
1.89567
1.64228
1.41679
1.21288
1.02428
0.845259
0.669342
0.491005
0.305889
0.109132
5.75234
5.23577
4.71311
4.2009
3.71245
3.25712
2.84045
2.4646
2.12984
1.83356
1.57276
1.34293
1.13797
0.951716
0.778401
0.611537
0.445537
0.275886
0.0977566
5.75735
5.24672
4.72517
4.20908
3.71259
3.24641
2.81754
2.42952
2.08368
1.77825
1.51078
1.27706
1.0712
0.887115
0.718992
0.560311
0.405387
0.249521
0.0878442
5.76219
5.25638
4.73524
4.21536
3.71156
3.23561
2.79578
2.3968
2.041
1.72738
1.45399
1.21693
1.01046
0.828561
0.665354
0.514253
0.369454
0.226055
0.0790998
5.76551
5.26313
4.74167
4.21787
3.70715
3.22224
2.77249
2.36368
1.99905
1.67829
1.39989
1.1602
0.953639
0.774179
0.61587
0.472033
0.336724
0.204825
0.0712653
5.76784
5.26754
4.74497
4.2169
3.69935
3.20592
2.74694
2.32918
1.95666
1.62968
1.34714
1.10555
0.89943
0.722747
0.569439
0.432717
0.306471
0.185354
0.0641529
5.77234
5.27464
4.75048
4.21755
3.69267
3.19042
2.72216
2.29557
1.91541
1.58258
1.29625
1.0531
0.847683
0.673911
0.525592
0.395809
0.278261
0.16734
0.0576438
5.77791
5.28399
4.75843
4.22031
3.68766
3.17622
2.69843
2.26292
1.87519
1.53665
1.24674
1.00222
0.797647
0.626843
0.483476
0.360499
0.251423
0.150342
0.0515842
5.78215
5.29215
4.76553
4.22237
3.68197
3.16134
2.67407
2.22979
1.8347
1.49071
1.19749
0.951836
0.748253
0.580462
0.441999
0.325733
0.225045
0.133745
0.0457694
5.78646
5.30035
4.7729
4.22487
3.67677
3.14693
2.65016
2.1971
1.79467
1.44525
1.14871
0.901871
0.699159
0.534166
0.40031
0.290452
0.197998
0.116648
0.0398811
5.79147
5.30972
4.78165
4.2289
3.67316
3.1341
2.62775
2.16578
1.75583
1.40074
1.10058
0.852185
0.649905
0.487178
0.357291
0.253152
0.168428
0.0971968
0.0330277
5.79682
5.31972
4.79118
4.23381
3.67056
3.12239
2.60654
2.13564
1.718
1.3569
1.05264
0.802075
0.599519
0.438247
0.311365
0.211769
0.133495
0.0715921
0.0216136
5.80532
5.3409
4.82147
4.26973
3.7088
3.15997
2.64096
2.16494
1.74081
1.37247
1.06086
0.803481
0.595163
0.429508
0.299765
0.198793
0.120688
0.0609153
0.0161763
5.81471
5.36819
4.86562
4.32869
3.77954
3.23869
2.7235
2.24712
1.8188
1.44313
1.12196
0.853958
0.635055
0.459795
0.321995
0.214644
0.13154
0.0676224
0.0188213
5.81942
5.38456
4.89495
4.37106
3.83376
3.30245
2.7936
2.31989
1.89044
1.51013
1.18144
0.904021
0.674989
0.490025
0.343808
0.22968
0.141329
0.0732838
0.0208661
5.81953
5.38958
4.90855
4.39551
3.86982
3.34933
2.84924
2.38124
1.95387
1.5719
1.23809
0.952876
0.714469
0.51986
0.36492
0.243674
0.149924
0.077889
0.0223672
5.81664
5.38655
4.91078
4.40699
3.89279
3.38424
2.89489
2.43512
2.01257
1.63154
1.29477
1.00317
0.755922
0.551375
0.38693
0.257742
0.158069
0.0819296
0.023558
5.81107
5.37763
4.90534
4.41016
3.90776
3.41223
2.9353
2.48585
2.07039
1.69254
1.35476
1.05812
0.802471
0.587411
0.412098
0.273377
0.166577
0.0857967
0.0245844
5.80407
5.36638
4.89728
4.41088
3.92086
3.43932
2.9761
2.53853
2.13195
1.75916
1.42216
1.12191
0.85846
0.632285
0.444219
0.293292
0.176876
0.0899941
0.0255638
5.79873
5.35798
4.89272
4.41562
3.93855
3.47164
3.02296
2.59832
2.20195
1.83583
1.50143
1.19933
0.929385
0.692201
0.489656
0.322894
0.192299
0.095624
0.0265121
5.79379
5.35092
4.89048
4.42368
3.96052
3.50924
3.0762
2.66584
2.28134
1.92398
1.59474
1.29379
1.02041
0.774647
0.558191
0.37302
0.222146
0.107677
0.0275305
5.78909
5.34531
4.89109
4.43594
3.98793
3.55348
3.13736
2.74275
2.37198
2.02576
1.70475
1.4089
1.13703
0.888371
0.663412
0.462941
0.289717
0.148145
0.040478
5.7835
5.33713
4.887
4.44109
4.0057
3.58562
3.18423
2.80367
2.44557
2.11019
1.79804
1.50904
1.24195
0.995676
0.769724
0.562965
0.375297
0.208568
0.0643643
5.7735
5.31619
4.86195
4.41701
3.98604
3.57242
3.17843
2.80532
2.4541
2.12462
1.81718
1.53164
1.26685
1.02186
0.796415
0.589294
0.399872
0.228429
0.0738987
5.7603
5.28698
4.82396
4.37528
3.94397
3.53217
3.14116
2.77144
2.42351
2.09679
1.79143
1.50724
1.24316
0.998487
0.773451
0.567444
0.380676
0.214358
0.0680664
5.74928
5.26275
4.79256
4.34088
3.90937
3.49913
3.11063
2.74379
2.39869
2.07449
1.77122
1.48873
1.22602
0.982612
0.759
0.554827
0.370549
0.207581
0.065573
5.74149
5.24502
4.76922
4.31506
3.88323
3.47404
3.08738
2.72269
2.37976
2.05754
1.756
1.475
1.21359
0.971405
0.749092
0.546418
0.363966
0.203281
0.0640702
5.73557
5.23158
4.7515
4.29545
3.86335
3.45493
3.06963
2.70655
2.36527
2.04458
1.74441
1.46462
1.2043
0.963123
0.741852
0.540329
0.359228
0.200205
0.063014
5.73125
5.22176
4.73865
4.28128
3.84903
3.44118
3.05685
2.69492
2.35482
2.03524
1.73606
1.45717
1.19764
0.957198
0.736675
0.535967
0.355816
0.197973
0.0622395
5.72768
5.21463
4.7299
4.27203
3.83992
3.4326
3.049
2.68786
2.34855
2.02972
1.73122
1.45293
1.19395
0.954011
0.733973
0.533757
0.354135
0.196901
0.0618837
5.72769
5.21465
4.72993
4.27206
3.83996
3.43264
3.04904
2.6879
2.34859
2.02975
1.73125
1.45296
1.19398
0.954036
0.733994
0.533774
0.354147
0.196908
0.0618861
5.73128
5.22183
4.73873
4.28139
3.84914
3.4413
3.05698
2.69505
2.35494
2.03535
1.73617
1.45727
1.19773
0.957278
0.736743
0.536021
0.355855
0.197997
0.0622478
5.73561
5.23167
4.75164
4.29561
3.86353
3.45512
3.06982
2.70675
2.36546
2.04477
1.74458
1.46478
1.20444
0.963247
0.741956
0.540411
0.359287
0.20024
0.0630262
5.74154
5.24515
4.7694
4.31528
3.88347
3.4743
3.08764
2.72295
2.38001
2.05778
1.75622
1.4752
1.21378
0.971566
0.749225
0.546523
0.36404
0.203326
0.0640853
5.74934
5.26291
4.79278
4.34115
3.90967
3.49944
3.11095
2.74411
2.39901
2.07479
1.7715
1.48898
1.22624
0.982804
0.759158
0.554949
0.370636
0.207632
0.0655899
5.76037
5.28716
4.82421
4.37559
3.94432
3.53253
3.14153
2.77181
2.42387
2.09713
1.79174
1.50753
1.2434
0.998695
0.773618
0.567567
0.380759
0.214403
0.0680797
5.77358
5.31638
4.86223
4.41735
3.98642
3.57283
3.17884
2.80573
2.4545
2.12499
1.81752
1.53194
1.2671
1.02206
0.79655
0.589372
0.399902
0.228429
0.0738915
5.78359
5.33741
4.88745
4.44168
4.00641
3.58642
3.18511
2.8046
2.44653
2.11117
1.79903
1.51002
1.24292
0.996618
0.770632
0.56382
0.376053
0.209138
0.0646102
5.7892
5.34564
4.89163
4.43665
3.9888
3.55448
3.13847
2.74394
2.37323
2.02704
1.70604
1.41018
1.1383
0.88959
0.664551
0.463947
0.290519
0.148669
0.0406673
5.79389
5.3512
4.89094
4.42431
3.96128
3.51011
3.07717
2.66687
2.28241
1.92507
1.59582
1.29483
1.0214
0.775551
0.558969
0.37363
0.222553
0.107879
0.0275701
5.79882
5.35824
4.89315
4.41621
3.93927
3.47247
3.02387
2.59929
2.20294
1.83682
1.5024
1.20025
0.930223
0.692929
0.490242
0.323318
0.192561
0.0957506
0.0265446
5.80414
5.36661
4.89767
4.41142
3.92154
3.4401
2.97696
2.53944
2.13287
1.76007
1.42303
1.12271
0.859171
0.632879
0.444679
0.293614
0.177074
0.090094
0.0255921
5.81114
5.37784
4.9057
4.41066
3.90839
3.41296
2.9361
2.48668
2.07124
1.69336
1.35553
1.05883
0.803081
0.587908
0.412474
0.273638
0.166741
0.0858823
0.0246098
5.81669
5.38674
4.91111
4.40745
3.89337
3.38491
2.89562
2.43589
2.01334
1.63228
1.29546
1.00379
0.756448
0.551798
0.387249
0.257964
0.158211
0.0820061
0.0235816
5.81957
5.38974
4.90884
4.39592
3.87034
3.34994
2.84991
2.38193
1.95456
1.57257
1.23871
0.95342
0.714926
0.520225
0.365196
0.24387
0.150052
0.0779599
0.0223901
5.81946
5.3847
4.89521
4.37142
3.83423
3.30299
2.7942
2.32052
1.89106
1.51072
1.18198
0.904498
0.675389
0.490345
0.344052
0.229856
0.141447
0.0733528
0.0208899
5.81474
5.36831
4.86584
4.32901
3.77995
3.23917
2.72403
2.24767
1.81935
1.44366
1.12244
0.854378
0.635407
0.460079
0.322216
0.214808
0.131654
0.0676932
0.0188481
5.80532
5.34092
4.82153
4.26981
3.70891
3.1601
2.64111
2.1651
1.74097
1.37262
1.06099
0.803592
0.595249
0.429569
0.299802
0.198811
0.12069
0.0609092
0.0161706
5.7968
5.31968
4.79112
4.23373
3.67047
3.12229
2.60643
2.13553
1.71789
1.3568
1.05255
0.801991
0.599443
0.438179
0.311303
0.211715
0.13345
0.0715593
0.0215982
5.79147
5.30971
4.78164
4.22888
3.67315
3.13408
2.62774
2.16577
1.75583
1.40074
1.10059
0.852195
0.649917
0.487191
0.357304
0.253164
0.168438
0.0972028
0.0330293
5.78645
5.30034
4.77289
4.22485
3.67676
3.14692
2.65016
2.1971
1.79467
1.44526
1.14872
0.90188
0.699169
0.534177
0.400321
0.290461
0.198004
0.116651
0.0398822
5.78215
5.29214
4.76552
4.22236
3.68196
3.16133
2.67406
2.22978
1.83471
1.49072
1.1975
0.951845
0.748262
0.580471
0.442007
0.32574
0.22505
0.133747
0.0457702
5.77791
5.28399
4.75842
4.2203
3.68766
3.17622
2.69843
2.26292
1.8752
1.53665
1.24675
1.00223
0.797655
0.62685
0.483482
0.360504
0.251426
0.150343
0.0515847
5.77234
5.27463
4.75048
4.21755
3.69267
3.19042
2.72216
2.29557
1.91542
1.58259
1.29626
1.05311
0.847689
0.673916
0.525597
0.395812
0.278264
0.167341
0.0576441
5.76784
5.26754
4.74496
4.2169
3.69935
3.20592
2.74694
2.32918
1.95666
1.62969
1.34714
1.10555
0.899434
0.722751
0.569442
0.432719
0.306473
0.185354
0.0641531
5.76551
5.26313
4.74167
4.21787
3.70715
3.22224
2.77249
2.36369
1.99905
1.67829
1.3999
1.16021
0.953643
0.774182
0.615871
0.472034
0.336725
0.204825
0.0712654
5.76219
5.25638
4.73524
4.21536
3.71156
3.23561
2.79579
2.3968
2.041
1.72739
1.454
1.21693
1.01046
0.828563
0.665355
0.514253
0.369454
0.226055
0.0790997
5.75735
5.24672
4.72517
4.20908
3.71259
3.24641
2.81755
2.42952
2.08368
1.77826
1.51078
1.27706
1.0712
0.887115
0.718992
0.56031
0.405386
0.24952
0.0878441
5.75235
5.23578
4.71311
4.2009
3.71245
3.25713
2.84045
2.46461
2.12984
1.83356
1.57276
1.34293
1.13797
0.951715
0.778399
0.611536
0.445536
0.275886
0.0977565
5.74641
5.22199
4.69795
4.19057
3.71175
3.26907
2.86632
2.50419
2.18179
1.89567
1.64228
1.41679
1.21287
1.02427
0.845256
0.66934
0.491004
0.305888
0.109132
5.73675
5.20303
4.67877
4.17851
3.71196
3.28447
2.89785
2.55125
2.2426
1.96764
1.72229
1.50141
1.29848
1.10712
0.921611
0.735454
0.543152
0.340456
0.122356
5.72658
5.18492
4.66293
4.17279
3.72142
3.31158
2.94301
2.61328
2.31925
2.05588
1.81864
1.60212
1.39956
1.20447
1.01113
0.812944
0.604384
0.381213
0.1381
5.71842
5.17158
4.65571
4.17978
3.74713
3.35765
3.00897
2.69726
2.41841
2.16674
1.93731
1.72448
1.52127
1.32104
1.11804
0.905486
0.677699
0.430297
0.157294
5.70829
5.16057
4.65744
4.20184
3.79267
3.4269
3.10034
2.80798
2.54499
2.30515
2.08322
1.87338
1.66843
1.4615
1.24677
1.01715
0.766614
0.490351
0.181192
5.70081
5.16243
4.68119
4.2526
3.87134
3.53201
3.22913
2.95686
2.70987
2.48156
2.26644
2.05856
1.8504
1.63485
1.40583
1.15573
0.877827
0.566406
0.212208
5.70368
5.19018
4.74121
4.34611
3.99663
3.68597
3.40793
3.15622
2.92526
2.70813
2.49919
2.29228
2.07953
1.85336
1.60727
1.33269
1.02165
0.666603
0.254527
5.72055
5.25002
4.84431
4.4893
4.17568
3.89626
3.6448
3.41486
3.20078
2.99545
2.79303
2.5872
2.36951
2.1317
1.86647
1.56364
1.21297
0.803455
0.315336
5.7551
5.34639
4.99458
4.68625
4.41302
4.16829
3.94624
3.74061
3.54584
3.35468
3.16113
2.95863
2.73797
2.48981
2.20551
1.87219
1.47564
0.998454
0.408728
5.80648
5.47632
5.18837
4.93375
4.70654
4.50146
4.31356
4.13698
3.96647
3.79478
3.61582
3.42279
3.20551
2.95315
2.65492
2.29365
1.84829
1.28979
0.564409
5.86837
5.62903
5.41402
5.2209
5.0469
4.88844
4.74173
4.60164
4.46359
4.32064
4.16686
3.99545
3.79532
3.5539
3.25746
2.88242
2.39652
1.75017
0.850911
5.93105
5.78872
5.65459
5.53147
5.4193
5.31625
5.21991
5.12642
5.03236
4.93187
4.81999
4.69065
4.53286
4.33312
4.07477
3.72631
3.23903
2.52921
1.43827
5.98405
5.93833
5.89158
5.84739
5.80669
5.76902
5.73358
5.69852
5.66251
5.62238
5.57569
5.5191
5.4452
5.34371
5.19871
4.97472
4.60567
3.95949
2.77149
)
;

boundaryField
{
    up
    {
        type            fixedValue;
        value           uniform 0;
    }
    low
    {
        type            fixedValue;
        value           uniform 6;
    }
    left
    {
        type            fixedValue;
        value           uniform 6;
    }
    right
    {
        type            fixedValue;
        value           uniform 6;
    }
    frontAndBackPlanes
    {
        type            empty;
    }
}


// ************************************************************************* //
