/*--------------------------------*- C++ -*----------------------------------*\
  =========                 |
  \\      /  F ield         | OpenFOAM: The Open Source CFD Toolbox
   \\    /   O peration     | Website:  https://openfoam.org
    \\  /    A nd           | Version:  7
     \\/     M anipulation  |
\*---------------------------------------------------------------------------*/
FoamFile
{
    version     2.0;
    format      ascii;
    class       volScalarField;
    location    "0.18";
    object      gradTz;
}
// * * * * * * * * * * * * * * * * * * * * * * * * * * * * * * * * * * * * * //

dimensions      [0 -1 0 1 0 0 0];

internalField   nonuniform List<scalar> 
1596
(
-8.06777e-16
-3.90417e-16
3.98726e-16
1.0491e-17
-7.5427e-16
0
-3.48963e-16
-3.44138e-16
-2.56015e-17
-1.82796e-16
-1.47821e-18
-1.82397e-16
8.06589e-16
-1.80994e-16
8.44575e-16
7.29732e-16
4.34307e-16
5.49149e-16
0
8.03956e-16
0
1.11991e-15
-9.23044e-18
-3.37946e-16
3.34483e-16
6.96979e-16
2.45908e-17
3.28725e-16
-1.59078e-16
3.17924e-16
-4.28422e-18
-4.41883e-16
-2.76873e-16
-6.8257e-16
-6.66923e-16
-6.0738e-16
3.46206e-16
0
-3.91186e-16
0
-7.24078e-16
1.46238e-17
6.52122e-16
-1.88822e-16
1.73408e-17
-4.47544e-18
-4.28379e-18
-4.37454e-18
1.1549e-16
0
2.29141e-16
6.47834e-16
-6.40407e-17
5.20808e-17
1.22212e-16
1.92644e-16
0
6.18448e-16
-1.81562e-16
1.80899e-16
0
-1.7257e-16
-1.8029e-16
2.97578e-16
-2.52892e-16
0
0
-9.96486e-17
6.03919e-17
0
-1.89547e-16
-2.38937e-16
1.66784e-16
-1.75008e-16
-8.98314e-18
0
1.08499e-16
2.81038e-16
-2.47244e-16
0
-7.09986e-17
-2.17444e-16
0
3.20383e-16
-3.15087e-17
-2.85542e-17
-3.42973e-17
1.64187e-16
2.04842e-16
2.18438e-17
1.20532e-17
-1.80297e-16
9.04373e-18
8.38052e-17
-3.6498e-17
-2.81755e-17
-3.849e-16
3.59235e-16
-3.05638e-16
-7.77534e-19
-2.60262e-16
7.26986e-18
-7.29399e-18
-1.99074e-16
0
-2.86466e-17
-1.94745e-16
-1.84827e-16
1.47147e-16
1.6002e-16
-2.16592e-18
-9.60758e-17
-8.50025e-17
6.53463e-17
2.35468e-16
-3.9063e-16
4.27153e-16
2.34433e-16
0
2.00684e-16
1.14702e-16
-5.48039e-17
2.51713e-16
-4.66387e-17
-2.00658e-16
1.63499e-18
-1.16459e-16
-1.47791e-16
-1.13032e-16
9.8044e-17
9.69214e-17
-1.30551e-18
-2.70602e-17
2.78172e-17
6.23008e-16
-7.13097e-16
0
0
-2.41535e-16
0
0
0
1.54777e-16
0
0
1.07521e-16
3.52528e-18
3.35821e-17
-8.61055e-17
0
4.58126e-17
1.83941e-17
0
-3.98132e-16
7.61218e-16
0
0
2.48747e-16
0
-8.91468e-17
8.90567e-17
-1.57541e-16
6.41219e-17
-6.45909e-17
0
9.28082e-17
9.62337e-17
0
-5.53906e-17
-4.67892e-17
-1.61444e-17
9.92626e-16
-4.59964e-16
0
-3.02098e-16
2.98717e-16
0
2.04574e-16
0
0
0
5.72331e-17
-5.75075e-17
0
-7.20323e-17
-2.01635e-17
0
8.3622e-18
3.08588e-17
0
-2.52037e-16
0
0
3.03026e-16
-5.57241e-16
3.55111e-17
1.36277e-17
-8.01593e-17
1.09614e-17
4.39639e-18
-5.92659e-17
-9.16606e-17
0
6.86731e-17
-1.43017e-17
1.45164e-17
4.04289e-17
-2.44392e-17
-1.09565e-17
2.00101e-16
-2.69421e-17
1.92576e-16
6.3566e-16
-4.24398e-17
-2.55845e-16
0
0
0
1.22293e-16
4.6829e-17
1.66627e-16
-4.00896e-17
-6.74446e-17
-3.82138e-17
-2.18191e-17
9.81453e-18
-2.16402e-17
1.03668e-17
-2.27377e-16
2.23152e-16
-4.07146e-16
-6.28247e-16
5.72934e-16
2.13481e-16
-3.87933e-16
3.22943e-16
-2.68501e-16
7.04436e-17
5.0672e-17
-4.52668e-17
2.66097e-17
-2.48607e-17
7.39786e-17
0
-5.6948e-18
4.2687e-17
-6.39096e-18
-1.50284e-15
6.8122e-16
5.28242e-19
-1.36981e-16
2.24614e-17
2.07188e-16
-3.89506e-16
-1.52215e-16
1.24379e-16
-1.011e-16
-8.26484e-17
0
-8.94203e-17
-2.62477e-17
-4.53388e-17
-2.68243e-17
2.10095e-18
-2.53588e-17
9.52848e-19
2.45606e-16
-2.14361e-16
3.18539e-19
-1.56491e-16
-3.73718e-16
3.48048e-16
1.85891e-18
1.48334e-16
-1.211e-16
1.9299e-16
4.49245e-17
3.52335e-17
1.02763e-16
0
8.1756e-17
3.74607e-17
0
1.3349e-17
7.60814e-19
0
2.07955e-16
1.54905e-16
-3.27339e-16
3.61649e-16
-5.2988e-16
3.63651e-16
1.26927e-16
-2.36571e-17
-1.92216e-16
3.23468e-17
-3.21872e-17
-9.14937e-17
3.45997e-17
-1.78111e-17
-3.62366e-17
1.50245e-17
-9.4217e-18
4.04296e-18
-2.28664e-16
7.50932e-16
-5.61945e-16
2.91186e-16
0
0
-6.75214e-17
1.46988e-16
-9.49061e-17
1.75539e-16
0
0
6.03625e-17
-5.14005e-17
-3.41947e-17
1.08495e-17
-1.17662e-17
6.31942e-18
0
2.31271e-17
2.13906e-16
-1.64462e-16
-1.40133e-16
-2.13546e-16
-5.94726e-17
9.38159e-17
0
-8.82555e-17
-6.70769e-17
5.8711e-17
-4.52543e-17
3.4739e-17
0
1.33079e-17
2.42171e-17
0
0
0
-2.23071e-17
3.24909e-16
1.14494e-16
-4.24895e-16
1.11444e-16
9.21795e-17
0
0
8.23155e-17
-4.33203e-17
-5.67863e-17
4.37692e-17
-3.35952e-17
0
-7.9418e-18
6.24662e-18
0
-5.3528e-18
-1.89374e-18
-1.79079e-16
5.25605e-16
-6.24496e-16
-2.35371e-16
1.25395e-16
-8.61708e-17
6.88961e-17
0
-4.20841e-17
3.36297e-17
0
0
1.24329e-17
-1.24472e-17
3.39063e-18
-4.93445e-18
7.3612e-18
1.14742e-18
1.42434e-18
9.43311e-17
-8.29492e-17
4.07884e-16
-2.61668e-16
-9.98075e-17
1.57443e-17
1.44531e-16
5.04793e-17
4.02682e-17
0
1.98468e-17
-1.81965e-17
1.36099e-17
-1.09061e-17
1.26995e-17
-2.13167e-17
-5.7245e-18
4.93313e-18
1.26217e-18
2.48334e-16
-2.53904e-16
0
2.10238e-16
-1.12837e-16
-7.7315e-17
4.74048e-17
-1.56493e-16
0
-2.86721e-18
-2.40038e-17
-1.57434e-17
2.10786e-17
-1.97626e-18
-1.22739e-17
8.68164e-18
0
2.87921e-18
-1.22555e-18
4.35013e-16
-7.42876e-17
3.01767e-16
-2.35503e-16
1.17836e-16
4.86626e-18
-1.29234e-16
-3.9161e-17
6.85217e-17
-3.56846e-18
-3.40275e-17
2.75684e-17
-1.15863e-17
-1.37497e-17
0
0
0
-2.90415e-18
1.0566e-19
-3.79973e-16
3.68112e-16
2.71594e-19
5.17943e-17
4.26012e-17
-9.58926e-17
1.08939e-16
-8.41513e-17
6.80004e-17
-1.99412e-17
3.73629e-17
1.20531e-17
-4.88015e-18
2.31674e-19
-1.43857e-18
-2.53008e-18
0
0
0
0
0
1.68794e-16
-9.01245e-17
-2.46374e-16
0
0
-2.44775e-17
-3.66748e-17
2.88458e-17
0
-1.52012e-17
1.09862e-17
-3.37737e-17
3.81462e-17
-1.14145e-17
1.20949e-17
1.26893e-18
0
-7.35475e-17
7.44527e-17
0
-5.53494e-17
5.57473e-17
8.66602e-17
0
2.47112e-17
2.82775e-17
-1.31075e-16
0
-1.75223e-17
1.27715e-17
8.34155e-18
-5.83842e-18
8.22745e-18
0
-2.81743e-18
0
-3.78504e-17
-3.67427e-17
2.1725e-18
5.68701e-17
-1.46585e-16
0
-3.4313e-17
0
8.57375e-17
3.20917e-17
0
6.94953e-17
-6.94556e-17
7.84906e-18
-1.25654e-17
4.70389e-18
1.59484e-17
5.63484e-18
-4.46874e-18
0
7.73078e-17
-6.48341e-17
7.99103e-17
9.0876e-17
0
6.91762e-17
-6.4046e-17
-4.63545e-17
6.44311e-17
-9.61488e-17
-4.29662e-17
0
0
7.6882e-18
0
0
1.99301e-18
0
-3.47267e-16
2.67573e-16
0
5.02959e-18
-5.22954e-17
-2.76322e-18
4.38641e-17
2.83743e-17
-3.78253e-17
-8.50974e-17
1.26193e-16
-3.47338e-17
0
-1.42224e-17
0
0
0
-7.75389e-18
6.21106e-18
-9.92908e-17
9.10406e-17
2.35043e-16
-2.27303e-16
6.78278e-17
4.55935e-18
-4.45095e-17
3.65959e-17
5.91836e-17
4.25471e-17
-8.36614e-17
0
3.74137e-17
2.97992e-18
-1.62859e-17
-3.27308e-17
2.66329e-17
-3.84834e-18
7.50445e-18
-3.39885e-16
4.69702e-16
-4.63413e-16
7.8657e-17
6.39538e-17
-5.97892e-17
4.92294e-17
-3.68585e-17
0
-2.89026e-17
4.29472e-17
1.84837e-17
2.85973e-17
3.31005e-17
-4.88267e-17
-1.42137e-18
0
-3.17685e-18
1.07795e-18
-3.67458e-16
-1.06087e-16
-1.79836e-16
9.70086e-17
-1.49793e-16
1.25548e-16
-7.35464e-17
5.91336e-17
-5.1056e-18
-5.01183e-18
-4.6689e-17
2.84104e-17
-1.34119e-17
4.19373e-17
-4.50201e-17
4.62393e-18
4.46763e-18
0
-1.91371e-18
3.97302e-16
-1.14724e-16
0
0
-1.53975e-16
2.96402e-16
-6.77263e-17
-1.22026e-17
9.77813e-17
-2.6685e-18
0
0
-1.95252e-17
0
-4.02233e-17
9.52322e-17
-6.52522e-17
0
7.96378e-19
1.34485e-16
2.4695e-16
0
-1.01275e-16
-7.88178e-17
-6.67239e-17
-7.07917e-17
2.79511e-17
-7.67082e-17
-4.00814e-17
0
0
2.83259e-17
0
0
-5.62548e-17
9.32206e-17
0
0
9.23259e-16
-1.15958e-16
-5.44899e-16
-2.84978e-16
3.87599e-16
1.19184e-16
6.86414e-17
0
-2.3903e-17
2.21761e-17
5.55194e-17
-1.76307e-17
-2.48562e-17
3.81851e-17
-4.06173e-17
-1.18387e-17
0
0
0
7.39344e-17
-5.70952e-16
5.58687e-16
-5.22877e-17
-3.92897e-16
6.08497e-16
-3.02154e-16
0
0
1.4841e-16
-1.20734e-16
0
-3.4473e-17
6.0571e-17
-6.41625e-18
1.73033e-17
5.18306e-18
6.49463e-20
1.10557e-18
0
0
0
4.56107e-16
-3.06549e-16
3.09673e-16
-4.80002e-16
1.34919e-16
0
-4.63062e-17
7.22766e-17
-7.3871e-17
-1.39904e-17
5.75407e-20
-9.33798e-18
-1.27446e-18
-7.4603e-18
-2.11989e-18
-1.14399e-18
6.15742e-16
-1.09039e-15
5.13056e-16
0
1.3142e-16
-1.79459e-16
1.73967e-16
-1.3787e-16
0
-6.38928e-17
8.95956e-17
0
0
7.61773e-20
0
-1.00253e-17
6.82295e-18
1.16719e-18
1.83738e-18
6.05511e-16
0
-2.31703e-16
2.58619e-16
-1.57402e-16
3.41886e-16
-1.6027e-16
-1.2154e-16
1.2281e-16
-1.22622e-17
0
0
7.59972e-18
-1.25251e-17
-8.77844e-18
1.65724e-17
-3.58566e-18
1.80219e-18
0
3.43531e-16
2.62251e-16
-1.22135e-17
-2.47102e-16
-2.43974e-17
-1.72497e-16
2.07779e-17
1.42773e-16
-7.23785e-18
1.24924e-17
0
0
-7.78541e-18
0
9.07535e-18
-9.70846e-18
0
1.23923e-18
-3.41926e-19
-1.82286e-16
-1.31675e-16
1.23362e-16
-1.38365e-17
-6.1283e-18
1.63056e-17
0
-4.19396e-18
6.15966e-17
-5.18696e-17
0
1.70185e-17
-3.45115e-18
-1.49093e-17
-1.35491e-18
-1.0527e-18
0
-9.70166e-19
0
7.36988e-17
-1.39379e-16
-1.03092e-18
5.87964e-17
5.24292e-17
-5.20047e-17
-3.59005e-17
4.06019e-17
-1.35969e-17
1.06626e-17
-1.0118e-17
1.04301e-17
0
2.61447e-20
-1.00044e-18
3.58737e-18
-1.22428e-20
0
0
7.37014e-17
-7.34252e-17
-5.84868e-17
5.18639e-17
9.25519e-17
-9.30982e-17
-1.7951e-17
1.79946e-17
-1.37126e-17
1.38562e-17
-1.01185e-17
1.90188e-17
-5.33468e-18
-3.79497e-18
-1.15328e-18
3.8494e-19
9.09717e-19
2.39976e-19
-1.79915e-19
0
-1.73733e-17
1.01722e-16
-1.10406e-16
9.22764e-17
-8.18961e-17
0
6.24557e-17
-5.59387e-17
0
2.00728e-17
-2.53723e-17
-1.42277e-17
1.49115e-17
2.7058e-18
0
0
-9.7039e-19
3.52229e-19
2.93136e-16
-5.36721e-16
5.40702e-16
-4.68378e-16
1.83054e-16
-1.5094e-16
1.43448e-16
1.66047e-17
-6.08382e-17
5.43023e-17
0
-3.804e-17
3.46867e-17
-6.46669e-18
-2.65033e-18
4.09898e-18
3.00278e-18
9.42063e-19
-3.40333e-19
6.82247e-16
0
-2.62352e-16
2.04029e-16
2.41172e-17
-1.81162e-16
3.18687e-16
-2.78556e-16
1.08634e-16
-4.50788e-17
4.61422e-17
9.0169e-18
1.51267e-17
6.29863e-18
-5.10371e-18
-7.09792e-19
-6.48327e-18
0
6.47911e-19
5.40032e-16
-6.07899e-16
0
5.38867e-17
2.2706e-16
-2.21614e-16
3.68129e-17
3.20522e-17
1.38944e-17
2.38361e-17
0
0
-2.62397e-17
4.84666e-17
-1.75938e-17
-6.23454e-18
6.82577e-18
5.42391e-19
-1.22608e-18
5.75282e-17
5.34183e-16
-6.03112e-17
-4.0269e-16
3.53871e-16
4.12869e-17
-3.60282e-17
-3.13055e-17
9.9987e-17
-1.23956e-16
7.23063e-17
-7.39004e-17
1.10143e-17
-1.45131e-17
2.53969e-17
-1.69992e-17
0
0
1.16862e-18
0
1.3275e-16
-3.88965e-16
4.451e-16
-3.47066e-16
3.4624e-16
0
1.13019e-16
-1.13537e-16
-8.2053e-17
1.20838e-16
0
4.79281e-17
-6.06254e-17
-8.89858e-18
0
-9.61221e-19
-1.8208e-18
-8.75415e-20
-1.27912e-15
6.05129e-16
0
-3.87546e-16
3.87507e-16
2.28302e-16
-1.49759e-16
5.91051e-17
0
-2.53163e-18
1.7551e-17
-1.76099e-17
-2.4829e-17
3.81394e-17
-4.05548e-17
0
8.21314e-18
-1.596e-18
-1.13239e-18
7.82866e-16
-7.66114e-16
0
1.00634e-16
8.94184e-17
-8.04645e-17
0
-6.19427e-17
-5.09964e-17
0
-3.25149e-18
0
2.83446e-17
0
0
1.13982e-17
4.2308e-17
-5.51071e-17
0
6.65369e-20
1.14781e-16
-1.03675e-16
8.06969e-17
-4.12032e-16
1.5551e-16
0
1.2213e-17
3.43474e-17
0
-3.33557e-17
9.13902e-17
-9.60107e-17
1.51011e-17
0
-2.22235e-18
0
0
0
7.75088e-20
0
9.58217e-17
0
-1.38865e-16
1.41072e-16
0
4.61968e-17
-3.54882e-17
1.2566e-16
-5.99568e-17
2.01338e-17
-3.12313e-17
2.83117e-17
-4.50903e-17
-7.0392e-18
0
-4.0246e-18
0
3.02045e-16
-5.11409e-16
0
-7.83288e-17
6.81915e-17
0
0
-8.37088e-17
0
-2.8929e-17
-4.29897e-17
-1.85049e-17
2.86341e-17
0
1.34765e-17
0
0
8.62015e-18
-9.30703e-18
0
4.35046e-16
-3.4745e-16
7.25145e-17
-6.31457e-17
-2.45116e-17
6.94423e-17
7.46189e-17
-8.61727e-17
2.75886e-17
2.97312e-18
-2.23187e-17
9.01193e-17
-2.78225e-17
-5.97521e-17
1.99996e-17
-4.7265e-18
2.86339e-18
-8.0125e-19
-7.26203e-16
2.67614e-16
0
0
2.62727e-17
-2.67163e-17
1.71872e-17
9.76992e-18
7.66002e-17
3.68198e-17
-3.56298e-17
-2.14781e-18
-1.77403e-17
1.42398e-17
0
6.14672e-18
4.33218e-18
2.16046e-18
7.24217e-19
0
2.27735e-16
-2.08075e-16
6.58126e-17
6.43233e-17
-1.2256e-17
-3.72872e-17
-3.04087e-17
-9.5087e-17
3.59872e-17
-1.94937e-17
2.84653e-17
1.65893e-17
-1.88896e-17
2.00502e-17
1.14194e-17
-1.52398e-17
-1.9955e-18
0
-4.15828e-17
-1.81867e-16
6.32632e-17
5.68866e-17
-1.87491e-16
1.31816e-16
6.03628e-17
-6.17e-17
4.39981e-17
-3.41536e-17
0
0
-2.30864e-17
4.05259e-17
-1.73148e-17
1.47914e-17
-1.62446e-17
2.52473e-18
-4.47424e-18
7.73773e-17
7.08179e-17
-6.26521e-17
4.56858e-17
-5.5355e-17
-7.79774e-17
0
0
0
0
0
0
1.17289e-17
-2.88538e-17
3.0516e-17
-9.03664e-18
1.11934e-17
4.99993e-18
-4.21348e-18
1.61531e-16
-2.63848e-16
3.29211e-16
-1.43874e-16
2.0025e-16
-1.33792e-16
2.4422e-16
-1.33148e-16
-6.40983e-17
6.55697e-17
0
1.51927e-17
-1.14585e-17
2.56382e-17
-9.46699e-18
-1.09238e-17
-2.10749e-17
1.65247e-18
3.54637e-18
2.52066e-16
7.02733e-17
0
-1.03259e-16
-7.68853e-17
1.72364e-16
1.39417e-17
-6.30877e-17
3.63278e-17
-2.36546e-17
0
-1.20267e-17
0
-8.67036e-18
6.78727e-18
-5.8095e-18
-1.88358e-18
1.26897e-18
0
3.51128e-16
-7.42866e-17
3.01698e-16
-2.35556e-16
-4.49111e-17
1.66663e-16
-9.98538e-17
5.85025e-18
4.57344e-18
-2.30565e-17
2.18721e-17
0
0
1.08501e-17
-3.54644e-18
2.17676e-18
6.82134e-18
-2.37156e-18
0
7.21694e-20
0
-6.76644e-17
3.82019e-16
-2.55562e-16
-2.54051e-16
1.38244e-16
-1.31422e-16
1.19745e-16
5.51115e-17
-3.90367e-17
1.51407e-17
-1.30882e-17
2.55345e-18
1.91626e-17
3.99429e-19
-6.61735e-18
6.51311e-18
-1.36074e-18
8.46767e-16
-2.68336e-16
1.22383e-16
-3.82338e-16
9.98071e-17
-1.48333e-16
8.11777e-17
0
0
-2.98562e-18
-4.28822e-18
-1.26039e-18
0
-1.75294e-17
-1.27e-17
8.97099e-18
-6.4876e-19
1.32334e-18
2.76467e-18
0
-2.63106e-16
4.31259e-16
8.6982e-17
-3.38038e-16
8.61706e-17
-1.25018e-16
2.55191e-17
9.7193e-17
0
0
1.71528e-18
1.65962e-17
0
-1.33919e-17
-5.80471e-18
8.64825e-19
-2.82328e-18
-3.38084e-18
0
-1.62014e-16
4.40883e-17
2.90671e-16
2.04007e-16
-3.6858e-16
1.64223e-16
-1.05392e-16
5.73523e-17
-7.31105e-17
0
0
0
-2.5653e-17
5.85436e-18
-7.98082e-18
0
-4.80732e-19
2.38291e-18
-6.33243e-16
5.96557e-16
6.12606e-16
-7.4154e-16
3.29578e-16
-3.0698e-16
0
1.11982e-16
-1.50516e-16
8.40893e-17
-6.18901e-17
4.83398e-17
3.76529e-17
2.65309e-17
2.0173e-17
0
0
0
0
7.08771e-16
-3.99402e-16
0
0
-1.22104e-16
2.84274e-16
-1.8115e-16
-1.19395e-16
1.18049e-16
8.1753e-17
1.31837e-16
-5.01573e-17
2.13011e-17
1.52729e-17
1.07938e-17
9.09246e-18
1.44598e-17
-7.01765e-19
7.1481e-19
-7.14445e-16
6.48979e-16
3.33479e-16
-1.75404e-16
3.61281e-16
-2.30841e-16
-1.73549e-16
-1.41241e-16
0
-1.72672e-16
1.04682e-17
5.92523e-17
-4.39059e-17
-3.45999e-17
-1.26173e-17
-1.27353e-17
-1.02349e-17
0
0
-2.45787e-16
0
1.8374e-16
-1.36182e-19
0
0
1.79021e-16
1.45741e-16
0
9.46397e-17
0
-8.98581e-17
-2.49719e-17
4.36575e-17
0
2.78882e-17
-3.8927e-18
3.97107e-18
0
5.27207e-16
0
3.49845e-16
-6.4164e-16
5.60856e-16
4.3285e-16
-1.67011e-17
0
1.2905e-17
1.13834e-16
0
-1.0438e-16
1.13211e-16
-1.00076e-16
-2.16523e-17
-2.22182e-17
-6.80004e-18
-1.26303e-18
-4.84065e-18
-4.827e-16
6.93253e-16
-1.91163e-16
-4.88472e-16
-2.75238e-16
-2.30934e-16
-3.85945e-16
-1.47439e-16
1.47041e-17
5.07674e-17
-5.0672e-17
1.55568e-16
-6.85779e-17
1.34665e-16
-2.51693e-17
0
3.03419e-17
-1.83764e-17
4.8063e-18
1.08423e-15
-2.71294e-17
-7.94126e-16
6.35664e-16
-5.59996e-16
4.74448e-16
-1.83662e-17
-1.69607e-16
1.43938e-16
5.4906e-17
-8.06283e-18
-1.29689e-16
3.62569e-17
4.21073e-17
-1.21018e-17
1.22398e-17
-3.14268e-17
-4.67865e-18
-8.41873e-18
5.32259e-16
2.1969e-16
3.78669e-16
-3.2498e-16
-2.58267e-16
1.7058e-17
-1.87665e-16
4.51777e-16
1.8347e-17
1.99861e-16
1.15311e-16
-1.01386e-16
0
-6.86729e-17
0
0
4.88075e-17
2.09342e-17
9.7586e-18
4.95328e-16
0
3.73308e-16
3.22882e-16
-2.79975e-16
2.38427e-16
0
-1.76222e-16
-2.41263e-16
-2.05684e-16
-1.16332e-16
1.02533e-16
0
0
0
0
-4.58256e-17
-3.66956e-17
0
-9.70306e-16
0
-2.2483e-17
-1.99661e-17
4.2843e-16
-2.33151e-16
-1.0547e-16
-1.06226e-16
2.48116e-16
0
6.41214e-17
-6.65692e-18
6.07143e-17
0
0
8.21399e-17
-6.17377e-18
4.41047e-17
-1.79594e-17
6.80084e-16
1.91336e-16
-1.89361e-16
-1.63472e-16
-5.51348e-16
3.72101e-16
4.41259e-16
-1.5395e-17
-1.71468e-16
1.72828e-16
3.57779e-17
-1.84807e-16
-1.48403e-16
-9.54627e-17
-1.01966e-16
-9.48212e-17
8.35102e-17
-3.90497e-18
1.83942e-17
-2.07517e-16
9.27138e-17
-4.43779e-16
7.37011e-17
-7.3433e-17
0
-2.20776e-16
-1.99964e-17
-2.05265e-16
2.26451e-17
2.00657e-16
1.44404e-16
-3.64833e-17
1.04723e-17
9.66594e-17
0
-1.76841e-16
-6.6921e-17
-1.38045e-18
4.26933e-16
-1.13315e-17
6.98493e-16
-3.2856e-16
7.77533e-19
8.50956e-18
2.53959e-16
-2.49669e-17
1.99073e-16
-1.86167e-16
-1.75662e-16
0
1.84826e-16
1.44824e-16
2.0917e-18
-3.05329e-18
9.70097e-17
6.80122e-17
0
-3.02513e-16
0
-6.79841e-17
3.1435e-16
5.23637e-18
7.10934e-17
-2.45574e-16
2.30852e-16
2.50199e-16
2.40373e-16
2.32323e-16
0
-1.79555e-16
0
9.95208e-18
-1.03361e-17
0
-1.01742e-18
5.05577e-17
2.12197e-16
1.31354e-17
-1.60656e-16
4.99326e-16
-1.59175e-16
0
0
-2.8767e-16
-2.42418e-16
-2.32868e-16
-4.30677e-16
-6.03918e-17
0
0
0
-2.09154e-17
2.21337e-17
1.43504e-16
-5.13377e-17
1.37267e-17
0
-3.53128e-16
-3.1774e-16
3.36371e-16
-3.34517e-16
-4.76922e-16
5.78097e-16
1.6514e-16
0
2.56904e-16
2.98651e-16
-6.44763e-17
3.52968e-16
-5.80164e-17
6.0381e-17
2.36891e-16
-1.36371e-16
0
-4.04391e-16
0
-3.84731e-16
3.76026e-16
0
6.68327e-16
3.11962e-16
-6.61814e-16
5.35273e-16
-3.06818e-18
-1.60707e-16
-2.89156e-16
0
4.08987e-16
-6.82569e-16
7.33548e-16
-9.35071e-16
0
0
4.0324e-16
-3.1921e-18
-7.83644e-18
-7.61649e-16
7.71036e-16
-3.71167e-16
3.69654e-16
3.64397e-16
-3.1695e-16
0
0
6.12469e-16
-6.2302e-16
-6.61738e-16
6.57299e-16
-6.4132e-16
6.94442e-16
-1.08858e-15
0
)
;

boundaryField
{
    up
    {
        type            calculated;
        value           nonuniform List<scalar> 
84
(
0
0
0
0
-3.6498e-17
6.53463e-17
-2.70602e-17
1.83941e-17
-1.61444e-17
0
-1.09565e-17
1.03668e-17
-6.39096e-18
9.52848e-19
7.60814e-19
4.04296e-18
0
0
-1.89374e-18
1.42434e-18
1.26217e-18
-1.22555e-18
1.0566e-19
0
4.82349e-19
2.57175e-19
-4.19565e-18
0
6.21106e-18
7.98228e-18
1.07795e-18
-1.91371e-18
7.96378e-19
0
-3.78819e-19
1.13388e-18
-1.13623e-18
1.83025e-18
0
-3.40384e-19
0
0
-1.79884e-19
3.52229e-19
-3.40333e-19
6.47911e-19
-1.22608e-18
1.16862e-18
-8.75415e-20
-1.13239e-18
0
0
0
-9.30703e-18
-1.27972e-18
7.24217e-19
0
-4.47424e-18
-4.21348e-18
3.06548e-18
0
0
-1.36074e-18
2.76467e-18
-3.38084e-18
2.38291e-18
0
7.1481e-19
0
0
-4.84065e-18
4.8063e-18
-8.41873e-18
9.7586e-18
0
-1.79594e-17
1.83942e-17
-1.38045e-18
0
5.05577e-17
-5.13377e-17
0
0
0
)
;
    }
    low
    {
        type            calculated;
        value           nonuniform List<scalar> 
84
(
-8.07479e-16
8.03956e-16
-3.89899e-16
6.19484e-16
1.09195e-16
-2.83793e-17
2.37166e-16
2.94303e-17
0
9.94502e-16
-2.52037e-16
1.9903e-16
-2.27377e-16
-1.50296e-15
2.45606e-16
0
-2.28664e-16
2.31271e-17
-2.23071e-17
-1.79079e-16
9.43311e-17
2.48334e-16
4.33157e-16
-3.79973e-16
0
-7.35475e-17
-3.78504e-17
0
-3.47267e-16
-9.92908e-17
-3.38741e-16
-3.66592e-16
3.96768e-16
1.34485e-16
9.2343e-16
7.39344e-17
0
6.15742e-16
6.07036e-16
3.44352e-16
-1.8272e-16
7.36988e-17
7.37014e-17
0
2.93136e-16
6.83772e-16
5.40032e-16
5.86222e-17
0
-1.27929e-15
7.82866e-16
6.65369e-20
7.75088e-20
3.02045e-16
0
-7.24262e-16
0
-4.15828e-17
7.73773e-17
1.60362e-16
2.50043e-16
3.49271e-16
7.21694e-20
8.45294e-16
0
0
-6.33243e-16
7.08148e-16
-7.14077e-16
-2.45787e-16
5.27326e-16
-4.827e-16
1.08637e-15
5.3373e-16
4.95328e-16
-9.70306e-16
6.78471e-16
-2.05819e-16
4.26933e-16
-3.01818e-16
2.12197e-16
1.50137e-17
-4.04391e-16
4.03591e-16
)
;
    }
    left
    {
        type            calculated;
        value           nonuniform List<scalar> 
19
(
-8.06777e-16
-3.90774e-16
3.98726e-16
1.05169e-17
-7.54544e-16
0
-3.48963e-16
-3.44138e-16
-2.68319e-17
-1.82796e-16
-1.47821e-18
-1.82397e-16
8.14616e-16
-1.80994e-16
8.44575e-16
7.29732e-16
4.34307e-16
6.3768e-16
0
)
;
    }
    right
    {
        type            calculated;
        value           nonuniform List<scalar> 
19
(
4.0324e-16
-2.83477e-18
-7.83644e-18
-7.61675e-16
7.7131e-16
-3.71167e-16
3.69654e-16
3.64397e-16
-3.1572e-16
0
0
6.18211e-16
-6.31047e-16
-6.61738e-16
6.57299e-16
-6.4132e-16
6.94442e-16
-1.17711e-15
0
)
;
    }
    frontAndBackPlanes
    {
        type            empty;
    }
}


// ************************************************************************* //
