/*--------------------------------*- C++ -*----------------------------------*\
  =========                 |
  \\      /  F ield         | OpenFOAM: The Open Source CFD Toolbox
   \\    /   O peration     | Website:  https://openfoam.org
    \\  /    A nd           | Version:  7
     \\/     M anipulation  |
\*---------------------------------------------------------------------------*/
FoamFile
{
    version     2.0;
    format      ascii;
    class       volScalarField;
    location    "0.12";
    object      gradTy;
}
// * * * * * * * * * * * * * * * * * * * * * * * * * * * * * * * * * * * * * //

dimensions      [0 -1 0 1 0 0 0];

internalField   nonuniform List<scalar> 
1596
(
-0.874667
-1.61104
-2.18805
-2.70628
-3.15854
-3.6089
-4.02124
-4.46488
-4.95823
-5.51211
-6.29407
-7.28971
-8.71631
-10.8168
-14.1881
-19.5465
-29.2421
-47.2166
-111.527
-2.64477
-3.22003
-3.55478
-3.80893
-4.00273
-4.21587
-4.42447
-4.69654
-5.05361
-5.49463
-6.16463
-7.03692
-8.26018
-9.9446
-12.4015
-15.7748
-20.855
-28.3572
-49.6556
-4.67805
-4.812
-4.80439
-4.76351
-4.69553
-4.67428
-4.67839
-4.7702
-4.9676
-5.26173
-5.77457
-6.46704
-7.4446
-8.75746
-10.5986
-12.9791
-16.3327
-20.9486
-30.8121
-6.73554
-6.30732
-5.91876
-5.57703
-5.25574
-5.00983
-4.81663
-4.72891
-4.7598
-4.89539
-5.23616
-5.73704
-6.47396
-7.46662
-8.8418
-10.5593
-12.8797
-15.9099
-21.0609
-8.54186
-7.61906
-6.88414
-6.26686
-5.71522
-5.26292
-4.88678
-4.6286
-4.49763
-4.47754
-4.64933
-4.96786
-5.48813
-6.21484
-7.23615
-8.4966
-10.1657
-12.2708
-15.3232
-9.88019
-8.67412
-7.69021
-6.8518
-6.10668
-5.47442
-4.9355
-4.52193
-4.2409
-4.07607
-4.09102
-4.24448
-4.57571
-5.08219
-5.82767
-6.75687
-7.98735
-9.51285
-11.5245
-10.6675
-9.42608
-8.32472
-7.34099
-6.4507
-5.67195
-4.99486
-4.44507
-4.03
-3.73541
-3.60983
-3.61785
-3.78637
-4.10935
-4.63345
-5.30963
-6.22272
-7.35477
-8.77895
-10.9511
-9.85861
-8.76852
-7.72438
-6.74521
-5.85958
-5.07316
-4.4099
-3.87993
-3.47305
-3.22542
-3.10829
-3.13867
-3.30866
-3.65179
-4.12699
-4.79639
-5.64042
-6.68714
-10.862
-10.038
-9.05761
-8.02666
-7.00969
-6.05389
-5.18417
-4.42785
-3.80018
-3.29656
-2.94391
-2.72002
-2.63413
-2.67712
-2.87179
-3.18445
-3.65995
-4.28084
-5.05719
-10.4994
-9.94089
-9.12577
-8.17225
-7.17227
-6.1915
-5.27371
-4.45343
-3.7527
-3.17363
-2.73727
-2.42746
-2.24775
-2.18828
-2.26307
-2.4447
-2.76463
-3.20873
-3.78016
-10.1155
-9.72742
-9.06385
-8.20921
-7.25672
-6.28172
-5.34233
-4.48132
-3.72811
-3.0919
-2.59074
-2.21381
-1.9608
-1.82132
-1.80222
-1.88075
-2.07747
-2.381
-2.79156
-9.69371
-9.47181
-8.94311
-8.18728
-7.29366
-6.3411
-5.39688
-4.51132
-3.72087
-3.04154
-2.49063
-2.06183
-1.75246
-1.55175
-1.46082
-1.46009
-1.56132
-1.75491
-2.03953
-9.20809
-9.12863
-8.72352
-8.06597
-7.24018
-6.32604
-5.39531
-4.50435
-3.69531
-2.9901
-2.40682
-1.94281
-1.59426
-1.35025
-1.20763
-1.14893
-1.17916
-1.28977
-1.47846
-8.80587
-8.79446
-8.4762
-7.89841
-7.13357
-6.25972
-5.3496
-4.46378
-3.64846
-2.93006
-2.3281
-1.84254
-1.46919
-1.19702
-1.01975
-0.921155
-0.901167
-0.951594
-1.06933
-8.45589
-8.49515
-8.23449
-7.71401
-6.99664
-6.1574
-5.26829
-4.39238
-3.57851
-2.85614
-2.24609
-1.75003
-1.36358
-1.07557
-0.877419
-0.753552
-0.700178
-0.709092
-0.77648
-8.12558
-8.2182
-8.00165
-7.52125
-6.8375
-6.02451
-5.15352
-4.28924
-3.48193
-2.7628
-2.15343
-1.65621
-1.26651
-0.972821
-0.764894
-0.627371
-0.553852
-0.535955
-0.569313
-7.84021
-7.96882
-7.78392
-7.32916
-6.66537
-5.86843
-5.01001
-4.15634
-3.35833
-2.64772
-2.04606
-1.55549
-1.17074
-0.879727
-0.670833
-0.528686
-0.445095
-0.411477
-0.423081
-7.60297
-7.75804
-7.59433
-7.15272
-6.496
-5.70367
-4.84997
-4.00299
-3.21411
-2.51474
-1.92545
-1.44722
-1.07362
-0.791595
-0.588287
-0.448145
-0.361736
-0.320321
-0.318916
-7.35948
-7.58
-7.44462
-7.01135
-6.35196
-5.55304
-4.69428
-3.84696
-3.0634
-2.37443
-1.79881
-1.33568
-0.976727
-0.707578
-0.514038
-0.380214
-0.295759
-0.251808
-0.243243
-7.09567
-7.40173
-7.3084
-6.88668
-6.22112
-5.40912
-4.53872
-3.68609
-2.90529
-2.22643
-1.66593
-1.22038
-0.879091
-0.625925
-0.445286
-0.320837
-0.241561
-0.198547
-0.186651
-6.87142
-7.24522
-7.19563
-6.7866
-6.11182
-5.28074
-4.39208
-3.52861
-2.74698
-2.07676
-1.53149
-1.1047
-0.782764
-0.547427
-0.381556
-0.268287
-0.196073
-0.156032
-0.143111
-6.66708
-7.11155
-7.10747
-6.71282
-6.02794
-5.17409
-4.26215
-3.3829
-2.5966
-1.93263
-1.40143
-0.993177
-0.690868
-0.473892
-0.323451
-0.222065
-0.157685
-0.12148
-0.108667
-6.46594
-6.99214
-7.03939
-6.6629
-5.96952
-5.09196
-4.15403
-3.25549
-2.46112
-1.80061
-1.2814
-0.890239
-0.60657
-0.407311
-0.271957
-0.182322
-0.125751
-0.0932187
-0.0803629
-6.2732
-6.88245
-6.98215
-6.62378
-5.92132
-5.01826
-4.05245
-3.13242
-2.32815
-1.67015
-1.16205
-0.787829
-0.522939
-0.34177
-0.221999
-0.144885
-0.0968408
-0.0680198
-0.0519548
-6.10618
-6.79619
-6.96931
-6.66543
-5.99705
-5.10743
-4.14072
-3.21003
-2.39116
-1.71912
-1.19817
-0.8143
-0.542024
-0.355701
-0.232343
-0.153161
-0.10351
-0.0727907
-0.0524965
-5.97966
-6.72585
-6.95947
-6.71567
-6.09826
-5.24298
-4.29207
-3.35995
-2.52709
-1.83453
-1.29035
-0.884716
-0.593638
-0.392198
-0.257297
-0.170136
-0.115344
-0.0820954
-0.0619386
-5.96349
-6.72135
-6.98453
-6.7831
-6.21042
-5.39248
-4.4644
-3.53856
-2.69725
-1.9861
-1.4179
-0.987126
-0.672417
-0.450454
-0.298858
-0.199189
-0.135741
-0.09715
-0.0741855
-6.07262
-6.7961
-7.05064
-6.86468
-6.32229
-5.53814
-4.63695
-3.72509
-2.88332
-2.15975
-1.57087
-1.11564
-0.775691
-0.529916
-0.357325
-0.240709
-0.16467
-0.117711
-0.0896246
-6.28897
-6.95045
-7.1664
-6.97282
-6.44695
-5.69153
-4.81903
-3.92692
-3.09171
-2.36187
-1.75637
-1.27838
-0.912519
-0.640095
-0.441778
-0.302459
-0.208048
-0.147981
-0.111286
-6.60101
-7.16703
-7.3212
-7.10388
-6.58476
-5.85433
-5.01211
-4.14497
-3.32324
-2.59407
-1.97756
-1.48067
-1.09069
-0.791061
-0.563612
-0.395586
-0.275201
-0.194878
-0.144087
-6.99864
-7.44405
-7.52541
-7.27556
-6.75635
-6.04672
-5.23386
-4.39365
-3.58938
-2.86572
-2.24294
-1.73141
-1.32082
-0.996227
-0.739178
-0.537976
-0.382596
-0.271081
-0.196764
-7.40571
-7.75208
-7.76529
-7.48207
-6.96058
-6.27006
-5.48653
-4.6752
-3.89208
-3.17876
-2.55491
-2.03429
-1.60922
-1.26659
-0.986234
-0.754629
-0.558735
-0.401373
-0.286203
-7.85662
-8.10274
-8.04545
-7.72573
-7.19867
-6.52483
-5.76984
-4.98871
-4.22999
-3.53164
-2.912
-2.38809
-1.95567
-1.60536
-1.31624
-1.07204
-0.848375
-0.641165
-0.447783
-8.3769
-8.51476
-8.38436
-8.02717
-7.49436
-6.83825
-6.11414
-5.3674
-4.63894
-3.96236
-3.35465
-2.83472
-2.40285
-2.0563
-1.77927
-1.5591
-1.36436
-1.17905
-0.983563
-8.94058
-8.96272
-8.74124
-8.32585
-7.76567
-7.107
-6.39554
-5.66901
-4.96126
-4.3001
-3.70154
-3.18248
-2.74613
-2.39427
-2.12014
-1.92076
-1.77704
-1.67522
-1.59271
-9.57026
-9.44034
-9.1032
-8.60906
-8.0014
-7.3205
-6.60375
-5.88326
-5.18744
-4.53894
-3.9534
-3.44415
-3.015
-2.66724
-2.39731
-2.20216
-2.07268
-2.00374
-1.98759
-10.2637
-9.95579
-9.49719
-8.92192
-8.26299
-7.55326
-6.82353
-6.10132
-5.41117
-4.77239
-4.19966
-3.70403
-3.28871
-2.95381
-2.69511
-2.50578
-2.37443
-2.29028
-2.24027
-10.8772
-10.4131
-9.84738
-9.19915
-8.49284
-7.75486
-7.01111
-6.28501
-5.59794
-4.96652
-4.40376
-3.91919
-3.51504
-3.19061
-2.94137
-2.75996
-2.63525
-2.55669
-2.51178
-11.3517
-10.786
-10.1433
-9.43984
-8.69667
-7.9364
-7.18151
-6.4524
-5.76803
-5.14291
-4.58882
-4.11406
-3.72018
-3.40594
-3.16672
-2.99478
-2.8792
-2.80928
-2.77254
-11.7218
-11.0805
-10.3796
-9.6341
-8.86259
-8.08509
-7.32152
-6.59006
-5.90784
-5.28778
-4.74077
-4.27413
-3.88891
-3.58345
-3.35306
-3.18961
-3.08236
-3.02044
-2.99141
-11.99
-11.2925
-10.5478
-9.77128
-8.97934
-8.18967
-7.42011
-6.68716
-6.00666
-5.39042
-4.8487
-4.38815
-4.00949
-3.71071
-3.48706
-3.33007
-3.22905
-3.17289
-3.14906
-12.1735
-11.4157
-10.6374
-9.84098
-9.03732
-8.24119
-7.46876
-6.73543
-6.05628
-5.44247
-4.90395
-4.44701
-4.07219
-3.77735
-3.55776
-3.40483
-3.30799
-3.25607
-3.23653
-12.1735
-11.4158
-10.6375
-9.84113
-9.03749
-8.24137
-7.46895
-6.73563
-6.05648
-5.44267
-4.90415
-4.44721
-4.0724
-3.77757
-3.55798
-3.40506
-3.30823
-3.25632
-3.2368
-11.9901
-11.2927
-10.5481
-9.77164
-8.97977
-8.19014
-7.42061
-6.68769
-6.00722
-5.39099
-4.84928
-4.38875
-4.0101
-3.71134
-3.48771
-3.33076
-3.22978
-3.17367
-3.14992
-11.722
-11.0808
-10.3801
-9.63468
-8.86326
-8.08584
-7.32233
-6.59092
-5.90873
-5.2887
-4.74171
-4.27509
-3.88989
-3.58445
-3.3541
-3.19069
-3.08351
-3.02167
-2.99273
-11.3518
-10.7864
-10.1439
-9.44059
-8.69754
-7.93738
-7.18257
-6.45352
-5.7692
-5.14412
-4.59005
-4.1153
-3.72144
-3.40722
-3.16804
-2.99614
-2.88063
-2.81079
-2.77415
-10.8774
-10.4135
-9.84807
-9.20003
-8.49387
-7.75602
-7.01239
-6.28637
-5.59936
-4.96798
-4.40524
-3.92068
-3.51654
-3.19213
-2.94291
-2.76155
-2.63689
-2.55841
-2.51361
-10.2639
-9.9563
-9.49795
-8.92289
-8.26415
-7.55457
-6.82497
-6.10286
-5.41278
-4.77404
-4.20132
-3.7057
-3.29037
-2.95546
-2.69677
-2.50745
-2.37613
-2.29201
-2.24206
-9.57049
-9.44095
-9.10415
-8.61034
-8.00297
-7.32234
-6.60579
-5.88547
-5.18977
-4.54133
-3.95583
-3.4466
-3.01745
-2.6697
-2.3998
-2.20464
-2.0751
-2.00598
-1.98947
-8.94072
-8.96284
-8.7415
-8.32634
-7.76643
-7.10803
-6.39682
-5.67049
-4.96287
-4.30176
-3.70317
-3.184
-2.74748
-2.39539
-2.12104
-1.92151
-1.7779
-1.67667
-1.59549
-8.37697
-8.51521
-8.38528
-8.02862
-7.49638
-6.84083
-6.1172
-5.37083
-4.64262
-3.96615
-3.35844
-2.83843
-2.40643
-2.05978
-1.78274
-1.56276
-1.36849
-1.18393
-0.989385
-7.85662
-8.10286
-8.04589
-7.7266
-7.20001
-6.52663
-5.77203
-4.99118
-4.23262
-3.53431
-2.9146
-2.39055
-1.95798
-1.60754
-1.31837
-1.07419
-0.85054
-0.643183
-0.449311
-7.40568
-7.75213
-7.76565
-7.48285
-6.96185
-6.2718
-5.48865
-4.67758
-3.89458
-3.18125
-2.55729
-2.03649
-1.61123
-1.26844
-0.98796
-0.756244
-0.560187
-0.402553
-0.287041
-6.99859
-7.44403
-7.52567
-7.27623
-6.75751
-6.04834
-5.23584
-4.39585
-3.59166
-2.86795
-2.24502
-1.73329
-1.32249
-0.997699
-0.740476
-0.539105
-0.383534
-0.271803
-0.197259
-6.60095
-7.16697
-7.32138
-7.10446
-6.58581
-5.85582
-5.01394
-4.14698
-3.3253
-2.59603
-1.97935
-1.48223
-1.09204
-0.792206
-0.564571
-0.396372
-0.275817
-0.195336
-0.144399
-6.28887
-6.95033
-7.1665
-6.97331
-6.44788
-5.69288
-4.82068
-3.92872
-3.09352
-2.36357
-1.75788
-1.27967
-0.913594
-0.640974
-0.442483
-0.30301
-0.208463
-0.148284
-0.111495
-6.07254
-6.79597
-7.05071
-6.8651
-6.32312
-5.53934
-4.63842
-3.72667
-2.88488
-2.16118
-1.57212
-1.11668
-0.776536
-0.530587
-0.357845
-0.241102
-0.164959
-0.117921
-0.0897751
-5.9634
-6.72123
-6.98458
-6.78347
-6.21115
-5.39353
-4.46567
-3.53991
-2.69856
-1.98729
-1.41891
-0.98796
-0.67308
-0.450968
-0.299247
-0.199477
-0.135951
-0.0973065
-0.0743068
-5.97956
-6.72573
-6.95947
-6.71592
-6.0988
-5.24376
-4.29302
-3.36096
-2.52806
-1.8354
-1.29109
-0.885315
-0.594108
-0.392557
-0.257563
-0.17033
-0.115485
-0.0822037
-0.0620381
-6.10627
-6.79624
-6.96941
-6.66561
-5.99732
-5.10779
-4.14114
-3.21047
-2.39159
-1.71953
-1.19853
-0.814608
-0.542281
-0.355912
-0.232511
-0.153295
-0.103617
-0.0728741
-0.0525476
-6.27329
-6.88252
-6.98215
-6.62368
-5.92112
-5.01797
-4.05211
-3.13207
-2.32782
-1.66986
-1.1618
-0.787636
-0.522792
-0.341661
-0.22192
-0.144827
-0.0967982
-0.0679843
-0.051909
-6.466
-6.99218
-7.03941
-6.66291
-5.9695
-5.09194
-4.15402
-3.25548
-2.46113
-1.80063
-1.28142
-0.890262
-0.606591
-0.407328
-0.27197
-0.182332
-0.125759
-0.0932245
-0.0803634
-6.66712
-7.11158
-7.10747
-6.7128
-6.02791
-5.17405
-4.26212
-3.38288
-2.59659
-1.93263
-1.40143
-0.993187
-0.690877
-0.4739
-0.323458
-0.222071
-0.157691
-0.121485
-0.10867
-6.87145
-7.24525
-7.19564
-6.78658
-6.11179
-5.28072
-4.39206
-3.5286
-2.74698
-2.07676
-1.53149
-1.10471
-0.782769
-0.547431
-0.38156
-0.268292
-0.196079
-0.156039
-0.143117
-7.09569
-7.40175
-7.3084
-6.88666
-6.22109
-5.4091
-4.53871
-3.68609
-2.90529
-2.22643
-1.66593
-1.22038
-0.879092
-0.625926
-0.445288
-0.320841
-0.241569
-0.198558
-0.186662
-7.3595
-7.58001
-7.44461
-7.01134
-6.35194
-5.55303
-4.69428
-3.84695
-3.0634
-2.37443
-1.79881
-1.33567
-0.976724
-0.707576
-0.51404
-0.380219
-0.29577
-0.251824
-0.243259
-7.60298
-7.75804
-7.59432
-7.15271
-6.49599
-5.70367
-4.84997
-4.00299
-3.2141
-2.51473
-1.92544
-1.44722
-1.07361
-0.791591
-0.588288
-0.448152
-0.361751
-0.320343
-0.318937
-7.84021
-7.96882
-7.78391
-7.32915
-6.66537
-5.86843
-5.01001
-4.15634
-3.35833
-2.64771
-2.04605
-1.55547
-1.17073
-0.879721
-0.670834
-0.528697
-0.445115
-0.411505
-0.423107
-8.12558
-8.21819
-8.00164
-7.52125
-6.8375
-6.02452
-5.15352
-4.28924
-3.48193
-2.76278
-2.15341
-1.6562
-1.26649
-0.972815
-0.764897
-0.627385
-0.553877
-0.535988
-0.56934
-8.45588
-8.49514
-8.23449
-7.71402
-6.99665
-6.15742
-5.2683
-4.39238
-3.5785
-2.85612
-2.24607
-1.75002
-1.36357
-1.07556
-0.877424
-0.753569
-0.700207
-0.709125
-0.776503
-8.80585
-8.79445
-8.4762
-7.89842
-7.13359
-6.25974
-5.34961
-4.46377
-3.64845
-2.93004
-2.32807
-1.84252
-1.46917
-1.19701
-1.01976
-0.921175
-0.901195
-0.95162
-1.06934
-9.20807
-9.12862
-8.72353
-8.06599
-7.2402
-6.32606
-5.39531
-4.50434
-3.69529
-2.99008
-2.4068
-1.94279
-1.59425
-1.35025
-1.20764
-1.14895
-1.17918
-1.28978
-1.47846
-9.69368
-9.47179
-8.94311
-8.18729
-7.29367
-6.34111
-5.39687
-4.5113
-3.72084
-3.04151
-2.49061
-2.06181
-1.75245
-1.55176
-1.46083
-1.4601
-1.56132
-1.75489
-2.0395
-10.1154
-9.72741
-9.06387
-8.20924
-7.25674
-6.28173
-5.34232
-4.4813
-3.72809
-3.09188
-2.59072
-2.21379
-1.9608
-1.82133
-1.80223
-1.88075
-2.07745
-2.38095
-2.79151
-10.4994
-9.9409
-9.1258
-8.17227
-7.17229
-6.1915
-5.2737
-4.45341
-3.75268
-3.17361
-2.73726
-2.42745
-2.24776
-2.18829
-2.26307
-2.44468
-2.76458
-3.20865
-3.7801
-10.862
-10.038
-9.05764
-8.02668
-7.0097
-6.05388
-5.18416
-4.42784
-3.80017
-3.29655
-2.9439
-2.72002
-2.63413
-2.67713
-2.87178
-3.18441
-3.65988
-4.28074
-5.05714
-10.9511
-9.85865
-8.76855
-7.72439
-6.74521
-5.85958
-5.07315
-4.40989
-3.87992
-3.47305
-3.22543
-3.1083
-3.13868
-3.30866
-3.65177
-4.12694
-4.79631
-5.64033
-6.68711
-10.6676
-9.42612
-8.32474
-7.341
-6.4507
-5.67195
-4.99486
-4.44508
-4.03001
-3.73543
-3.60985
-3.61787
-3.78639
-4.10935
-4.63342
-5.30957
-6.22264
-7.35471
-8.77896
-9.88023
-8.67415
-7.69023
-6.85181
-6.10668
-5.47443
-4.93551
-4.52194
-4.24092
-4.07609
-4.09105
-4.2445
-4.57572
-5.08218
-5.82764
-6.75682
-7.98729
-9.51283
-11.5245
-8.54189
-7.61908
-6.88415
-6.26687
-5.71523
-5.26294
-4.8868
-4.62862
-4.49766
-4.47758
-4.64936
-4.96788
-5.48813
-6.21482
-7.23611
-8.49655
-10.1657
-12.2708
-15.3232
-6.73557
-6.30732
-5.91877
-5.57704
-5.25576
-5.00985
-4.81666
-4.72894
-4.75984
-4.89543
-5.23619
-5.73706
-6.47396
-7.4666
-8.84176
-10.5593
-12.8797
-15.91
-21.0609
-4.67806
-4.81198
-4.80438
-4.76352
-4.69555
-4.6743
-4.67842
-4.77023
-4.96763
-5.26177
-5.7746
-6.46706
-7.4446
-8.75743
-10.5986
-12.979
-16.3327
-20.9486
-30.8121
-2.64478
-3.22001
-3.55476
-3.80893
-4.00274
-4.21588
-4.42449
-4.69657
-5.05364
-5.49466
-6.16466
-7.03693
-8.26018
-9.94458
-12.4015
-15.7748
-20.855
-28.3572
-49.6556
-0.874673
-1.61103
-2.18804
-2.70627
-3.15853
-3.60889
-4.02124
-4.46489
-4.95825
-5.51213
-6.29409
-7.28972
-8.71629
-10.8167
-14.188
-19.5465
-29.2421
-47.2166
-111.527
)
;

boundaryField
{
    up
    {
        type            calculated;
        value           nonuniform List<scalar> 
84
(
-101.074
-54.7412
-33.5266
-22.6892
-16.4076
-12.3023
-9.36113
-7.13013
-5.39256
-4.03069
-2.97366
-2.16762
-1.56563
-1.12626
-0.812002
-0.590328
-0.434667
-0.324617
-0.245412
-0.18683
-0.142243
-0.107236
-0.0778715
-0.0456357
-0.0437446
-0.0565667
-0.0680549
-0.081941
-0.100993
-0.12951
-0.174557
-0.247018
-0.380176
-0.945056
-1.60915
-1.99801
-2.22254
-2.49685
-2.76133
-2.98373
-3.14379
-3.23343
-3.2337
-3.14468
-2.98509
-2.76298
-2.49872
-2.22435
-1.99955
-1.61211
-0.951732
-0.381632
-0.247715
-0.174966
-0.129768
-0.101166
-0.0820694
-0.0681628
-0.0566827
-0.0438007
-0.0455801
-0.077867
-0.107237
-0.142248
-0.186839
-0.245426
-0.324635
-0.434688
-0.590348
-0.812017
-1.12626
-1.56561
-2.16759
-2.97362
-4.03065
-5.39255
-7.13016
-9.36121
-12.3024
-16.4077
-22.6893
-33.5266
-54.7412
-101.074
)
;
    }
    low
    {
        type            calculated;
        value           nonuniform List<scalar> 
84
(
-0.940112
-2.76922
-4.94329
-7.17298
-9.1339
-10.5661
-11.3623
-11.5866
-11.3659
-10.8446
-10.384
-9.89174
-9.30729
-8.85489
-8.4784
-8.1058
-7.78177
-7.53382
-7.2623
-6.93269
-6.65437
-6.40447
-6.14791
-5.90264
-5.64905
-5.48133
-5.46998
-5.6377
-5.93176
-6.33994
-6.82259
-7.28531
-7.79656
-8.38344
-8.99994
-9.69791
-10.484
-11.1519
-11.6551
-12.0488
-12.3362
-12.5505
-12.5505
-12.3363
-12.0489
-11.6552
-11.152
-10.4841
-9.69806
-8.99986
-8.38352
-7.79646
-7.28523
-6.82252
-6.33987
-5.93169
-5.63766
-5.46995
-5.48132
-5.64908
-5.90279
-6.14791
-6.4045
-6.65439
-6.9327
-7.26231
-7.53384
-7.78178
-8.10581
-8.4784
-8.85488
-9.30727
-9.8917
-10.3839
-10.8445
-11.3658
-11.5866
-11.3623
-10.5661
-9.13395
-7.17304
-4.94334
-2.76925
-0.940123
)
;
    }
    left
    {
        type            calculated;
        value           nonuniform List<scalar> 
19
(
-0.859168
-1.58428
-2.17535
-2.71418
-3.18905
-3.66096
-4.09385
-4.56018
-5.07817
-5.66791
-6.50398
-7.57785
-9.13609
-11.4693
-15.2463
-21.3463
-32.5033
-53.4199
-104.818
)
;
    }
    right
    {
        type            calculated;
        value           nonuniform List<scalar> 
19
(
-0.859174
-1.58428
-2.17534
-2.71417
-3.18905
-3.66096
-4.09386
-4.56019
-5.07819
-5.66793
-6.50399
-7.57784
-9.13606
-11.4692
-15.2462
-21.3462
-32.5033
-53.4199
-104.818
)
;
    }
    frontAndBackPlanes
    {
        type            empty;
    }
}


// ************************************************************************* //
