/*--------------------------------*- C++ -*----------------------------------*\
  =========                 |
  \\      /  F ield         | OpenFOAM: The Open Source CFD Toolbox
   \\    /   O peration     | Website:  https://openfoam.org
    \\  /    A nd           | Version:  7
     \\/     M anipulation  |
\*---------------------------------------------------------------------------*/
FoamFile
{
    version     2.0;
    format      ascii;
    class       volScalarField;
    location    "0.12";
    object      gradTz;
}
// * * * * * * * * * * * * * * * * * * * * * * * * * * * * * * * * * * * * * //

dimensions      [0 -1 0 1 0 0 0];

internalField   nonuniform List<scalar> 
1596
(
-9.68019e-16
-4.64358e-16
4.78805e-16
1.6717e-17
-8.94084e-16
0
-4.06566e-16
-4.01045e-16
-3.60489e-17
-2.16327e-16
-1.34486e-18
-2.16953e-16
9.67907e-16
-2.16546e-16
1.00774e-15
8.72829e-16
5.20063e-16
6.59249e-16
0
9.59945e-16
0
1.30875e-15
-1.3931e-17
-3.83664e-16
3.78801e-16
8.05588e-16
3.49428e-17
3.76783e-16
-1.83655e-16
3.68036e-16
-3.86659e-18
-5.13061e-16
-3.23141e-16
-8.13812e-16
-7.97414e-16
-7.27704e-16
4.15945e-16
0
-4.60764e-16
0
-8.32505e-16
2.1935e-17
7.25388e-16
-2.21652e-16
2.57835e-17
-4.84682e-18
-4.12528e-18
-3.83041e-18
1.23791e-16
0
2.65882e-16
7.46859e-16
-7.42025e-17
6.14845e-17
1.43653e-16
2.30445e-16
0
7.36766e-16
-2.07319e-16
2.06562e-16
0
-1.93748e-16
-2.05348e-16
3.21305e-16
-2.59698e-16
0
0
-1.1972e-16
6.49089e-17
0
-2.15865e-16
-2.66625e-16
1.89069e-16
-2.06035e-16
-1.05272e-17
0
1.30199e-16
3.22563e-16
-2.71218e-16
0
-7.37249e-17
-2.28218e-16
0
3.27346e-16
-3.14584e-17
-2.8546e-17
-4.73215e-17
1.62943e-16
2.08895e-16
2.35486e-17
2.17949e-17
-2.04299e-16
1.01586e-17
9.55464e-17
-4.25311e-17
-3.38107e-17
-4.40033e-16
3.96894e-16
-3.23047e-16
-1.09955e-18
-2.55585e-16
6.98402e-18
-7.0072e-18
-1.83166e-16
0
-3.88959e-17
-1.94378e-16
-1.88064e-16
1.44112e-16
1.70511e-16
-2.27205e-18
-1.02569e-16
-9.69114e-17
7.52292e-17
2.82562e-16
-4.4542e-16
4.66247e-16
2.45974e-16
0
1.98588e-16
1.07691e-16
-5.06141e-17
2.30247e-16
-4.15553e-17
-1.84513e-16
1.19034e-18
-1.02973e-16
-1.44643e-16
-1.06282e-16
9.53972e-17
1.03472e-16
-1.41467e-18
-3.07306e-17
4.1539e-17
7.15221e-16
-7.82004e-16
0
0
-2.29651e-16
0
0
0
1.26544e-16
0
0
9.62163e-17
2.35774e-18
3.72222e-17
-8.44512e-17
0
4.49202e-17
1.89528e-17
0
-4.47204e-16
8.456e-16
0
0
2.36509e-16
0
-7.48926e-17
7.48168e-17
-1.28804e-16
5.00516e-17
-5.04176e-17
0
7.17611e-17
8.36419e-17
0
-4.79316e-17
-4.58383e-17
-1.67665e-17
1.17575e-15
-5.36802e-16
0
-3.11332e-16
3.07848e-16
0
1.83048e-16
0
0
0
4.20606e-17
-4.22622e-17
0
-5.62081e-17
-1.50687e-17
0
1.07744e-17
2.56117e-17
0
-2.98744e-16
0
0
3.13857e-16
-5.63167e-16
4.72535e-17
1.88638e-17
-6.54006e-17
1.223e-17
4.67269e-18
-4.3165e-17
-6.15734e-17
0
4.48313e-17
-1.00255e-17
1.0176e-17
3.19703e-17
-2.0607e-17
-8.81455e-18
2.21651e-16
-3.92858e-17
2.14254e-16
6.70062e-16
-5.81194e-17
-2.52482e-16
0
0
0
9.03089e-17
3.15243e-17
1.08579e-16
-2.58769e-17
-4.40293e-17
-2.27463e-17
-1.40807e-17
6.44448e-18
-1.46098e-17
8.26232e-18
-2.62172e-16
2.58075e-16
-4.61702e-16
-6.63371e-16
5.91138e-16
1.99416e-16
-3.51778e-16
2.7352e-16
-2.11505e-16
5.59934e-17
3.55811e-17
-3.01116e-17
1.47245e-17
-1.4433e-17
4.41497e-17
0
-3.49896e-18
2.71665e-17
-4.11885e-18
-1.78212e-15
7.93428e-16
5.49382e-19
-1.3963e-16
3.10551e-17
1.94078e-16
-3.58944e-16
-1.28384e-16
9.7178e-17
-7.28331e-17
-5.4816e-17
0
-5.23469e-17
-1.48443e-17
-2.36659e-17
-1.37258e-17
1.06017e-18
-1.45922e-17
9.87369e-19
2.91177e-16
-2.46834e-16
7.99206e-20
-1.67284e-16
-3.74356e-16
3.42343e-16
1.90797e-18
1.2511e-16
-9.46156e-17
1.38704e-16
3.07655e-17
2.2403e-17
5.78163e-17
0
4.11585e-17
1.85072e-17
0
7.16778e-18
7.01443e-19
0
2.39458e-16
1.64944e-16
-3.56856e-16
3.61628e-16
-5.11e-16
3.34402e-16
1.03102e-16
-2.56083e-17
-1.41082e-16
2.03366e-17
-2.02363e-17
-5.01707e-17
1.72426e-17
-8.99204e-18
-1.70885e-17
6.52204e-18
-4.11933e-18
2.05889e-18
-2.70734e-16
8.48353e-16
-6.38961e-16
3.08246e-16
0
0
-5.67483e-17
1.27626e-16
-7.05312e-17
1.27187e-16
0
0
3.22182e-17
-2.59189e-17
-1.52041e-17
4.8068e-18
-5.15684e-18
2.82166e-18
0
3.46467e-17
2.53427e-16
-1.81855e-16
-1.49249e-16
-2.08638e-16
-4.45541e-17
8.84195e-17
0
-6.47051e-17
-4.36512e-17
3.69544e-17
-2.58188e-17
1.79273e-17
0
6.13374e-18
9.85764e-18
0
0
0
-3.37451e-17
3.56381e-16
1.10409e-16
-4.53871e-16
1.10176e-16
8.67229e-17
0
0
5.9234e-17
-3.17089e-17
-3.57429e-17
2.49715e-17
-1.73371e-17
0
-3.21435e-18
2.29449e-18
0
-1.84575e-18
-6.58008e-19
-2.0445e-16
6.00665e-16
-6.91566e-16
-2.38827e-16
1.30007e-16
-7.88709e-17
5.86148e-17
0
-3.03165e-17
2.27245e-17
0
0
5.85278e-18
-5.85952e-18
1.31119e-18
-2.09756e-18
2.46567e-18
4.90578e-19
5.01057e-19
1.11499e-16
-9.44422e-17
4.37801e-16
-2.7825e-16
-9.6451e-17
1.8646e-17
1.25835e-16
3.86289e-17
2.90083e-17
0
1.10934e-17
-1.00663e-17
6.78105e-18
-4.92459e-18
4.73585e-18
-7.4337e-18
-1.89994e-18
1.58733e-18
3.78209e-19
2.86427e-16
-2.96522e-16
0
2.09325e-16
-1.15129e-16
-6.96175e-17
3.51262e-17
-1.22754e-16
0
-2.09219e-18
-1.42826e-17
-8.1043e-18
9.42946e-18
-1.13418e-18
-4.57712e-18
2.9479e-18
0
8.13745e-19
-3.67238e-19
5.20484e-16
-8.43618e-17
3.192e-16
-2.47727e-16
1.06859e-16
-6.53868e-18
-1.09276e-16
-2.7506e-17
4.61136e-17
-2.90338e-18
-1.75635e-17
1.34256e-17
-5.27515e-18
-5.24507e-18
0
0
0
-8.19667e-19
2.87102e-20
-4.42427e-16
4.2523e-16
2.38482e-19
5.24516e-17
4.02657e-17
-8.10949e-17
8.69144e-17
-6.08601e-17
4.49359e-17
-1.08627e-17
1.99537e-17
5.40073e-18
-1.99583e-18
1.04072e-19
-4.02484e-19
-7.36576e-19
0
0
0
0
0
1.75118e-16
-1.06153e-16
-2.39737e-16
0
0
-1.74576e-17
-2.33702e-17
1.64424e-17
0
-6.8113e-18
4.37157e-18
-1.15886e-17
1.27191e-17
-3.24359e-18
3.4254e-18
3.30768e-19
0
-8.54626e-17
8.65145e-17
0
-5.65617e-17
5.59676e-17
7.9127e-17
0
1.76243e-17
1.58504e-17
-7.81479e-17
0
-8.06321e-18
5.23089e-18
2.97551e-18
-1.87688e-18
2.44842e-18
0
-7.41854e-19
0
-4.40303e-17
-4.10646e-17
2.42377e-18
5.81157e-17
-1.39936e-16
0
-2.79229e-17
0
5.64959e-17
1.86543e-17
0
3.18316e-17
-2.93419e-17
3.7857e-18
-3.62642e-18
2.00178e-18
4.73132e-18
1.49896e-18
-1.18934e-18
0
8.82604e-17
-6.89439e-17
8.40942e-17
8.72417e-17
0
5.54493e-17
-4.95657e-17
-3.09107e-17
3.73831e-17
-5.5145e-17
-2.10472e-17
0
0
2.64025e-18
0
0
5.682e-19
0
-4.04585e-16
3.13421e-16
0
7.25728e-18
-4.89621e-17
-2.42241e-18
3.73032e-17
2.01477e-17
-2.97489e-17
-5.46675e-17
7.16348e-17
-2.00825e-17
0
-6.21432e-18
0
0
0
-2.22673e-18
1.78864e-18
-1.17601e-16
1.04231e-16
2.54726e-16
-2.41871e-16
6.86681e-17
5.74896e-18
-3.77721e-17
2.8558e-17
4.22142e-17
2.71173e-17
-5.27917e-17
0
1.79714e-17
-4.10784e-19
-7.10877e-18
-1.2152e-17
9.64036e-18
-1.12342e-18
2.32502e-18
-4.09536e-16
5.31428e-16
-5.19951e-16
8.32651e-17
6.30677e-17
-5.72324e-17
4.52769e-17
-3.05581e-17
0
-2.07177e-17
2.67995e-17
1.13464e-17
1.62565e-17
1.59452e-17
-2.29172e-17
-1.1037e-18
0
-1.06077e-18
3.65958e-19
-4.42649e-16
-1.21868e-16
-1.95564e-16
1.07947e-16
-1.5171e-16
1.19427e-16
-6.78859e-17
4.97805e-17
-5.6076e-18
-5.32118e-18
-3.0876e-17
1.97424e-17
-6.74555e-18
2.23953e-17
-2.40416e-17
1.64854e-18
2.12507e-18
0
-6.80967e-19
4.78601e-16
-1.32422e-16
0
0
-1.55648e-16
2.94129e-16
-6.45698e-17
-1.03758e-17
7.91177e-17
-2.42387e-18
0
0
-1.20642e-17
0
-2.2437e-17
5.08386e-17
-3.40564e-17
0
3.0689e-19
1.596e-16
2.85401e-16
0
-1.10024e-16
-7.90707e-17
-6.15979e-17
-6.79227e-17
2.46158e-17
-6.53488e-17
-3.12573e-17
0
0
2.02068e-17
0
0
-3.30982e-17
5.54185e-17
0
0
1.09632e-15
-1.49657e-16
-6.22096e-16
-3.04337e-16
4.15821e-16
1.20185e-16
6.58595e-17
0
-2.0719e-17
1.79312e-17
4.50145e-17
-1.39156e-17
-1.77317e-17
2.66067e-17
-2.83013e-17
-7.48489e-18
0
0
0
8.77861e-17
-6.5524e-16
6.39232e-16
-5.74569e-17
-4.10991e-16
6.2463e-16
-3.03898e-16
0
0
1.27506e-16
-1.01879e-16
0
-2.59489e-17
4.62334e-17
-4.38942e-18
1.26143e-17
3.65988e-18
5.54008e-20
7.51772e-19
0
0
0
4.95621e-16
-3.34305e-16
3.1428e-16
-4.81748e-16
1.32041e-16
0
-4.11648e-17
6.10203e-17
-6.23664e-17
-1.10359e-17
3.90601e-19
-6.96316e-18
-8.4215e-19
-5.54341e-18
-1.60074e-18
-8.4823e-19
7.24757e-16
-1.26894e-15
5.89915e-16
0
1.3827e-16
-1.8966e-16
1.72479e-16
-1.36364e-16
0
-5.69067e-17
7.9974e-17
0
0
3.62888e-19
0
-7.86397e-18
5.30836e-18
8.06816e-19
1.37692e-18
7.27054e-16
0
-2.6035e-16
2.90213e-16
-1.66812e-16
3.58077e-16
-1.65117e-16
-1.17437e-16
1.18663e-16
-1.13479e-17
0
0
6.50622e-18
-1.02733e-17
-7.14143e-18
1.33802e-17
-2.88589e-18
1.40821e-18
0
4.12029e-16
3.02387e-16
-2.06148e-17
-2.77961e-16
-2.63325e-17
-1.78845e-16
2.5907e-17
1.4346e-16
-6.96136e-18
1.1561e-17
0
0
-6.66519e-18
0
7.55428e-18
-8.08128e-18
0
1.02019e-18
-2.79435e-19
-2.18533e-16
-1.51954e-16
1.42478e-16
-1.53857e-17
-6.64521e-18
1.71679e-17
0
-4.1723e-18
5.87302e-17
-4.94374e-17
0
1.50424e-17
-3.28337e-18
-1.29339e-17
-1.15382e-18
-8.88301e-19
0
-8.00519e-19
0
8.68512e-17
-1.62665e-16
4.62699e-19
6.63286e-17
5.62322e-17
-5.56055e-17
-3.632e-17
4.10032e-17
-1.29927e-17
1.024e-17
-9.18753e-18
9.4709e-18
0
2.26228e-20
-8.51433e-19
3.04604e-18
-1.03122e-20
0
0
8.68543e-17
-8.65288e-17
-6.59764e-17
5.86108e-17
9.91204e-17
-9.97055e-17
-1.81609e-17
1.8207e-17
-1.31049e-17
1.32414e-17
-9.18807e-18
1.71047e-17
-4.7985e-18
-3.31259e-18
-9.81774e-19
3.33212e-19
7.69029e-19
2.01596e-19
-1.51021e-19
0
-2.02532e-17
1.14495e-16
-1.24576e-16
9.87013e-17
-8.77889e-17
0
6.12175e-17
-5.49641e-17
0
1.81398e-17
-2.28534e-17
-1.23433e-17
1.29366e-17
2.27956e-18
0
0
-8.00795e-19
2.9003e-19
3.45266e-16
-6.25879e-16
6.16472e-16
-5.20912e-16
2.01241e-16
-1.56259e-16
1.48959e-16
1.63503e-17
-5.76551e-17
5.13573e-17
0
-3.32083e-17
3.03218e-17
-5.43162e-18
-2.23283e-18
3.35234e-18
2.43624e-18
7.77418e-19
-2.80235e-19
8.18255e-16
0
-2.95242e-16
2.29812e-16
2.60307e-17
-1.87026e-16
3.23564e-16
-2.73926e-16
1.05293e-16
-4.09127e-17
4.18777e-17
7.89909e-18
1.26818e-17
5.29045e-18
-4.11368e-18
-6.22439e-19
-5.23731e-18
0
5.03585e-19
6.34778e-16
-7.14598e-16
0
5.96278e-17
2.40598e-16
-2.33321e-16
3.68262e-17
3.09368e-17
1.3113e-17
2.14037e-17
0
0
-2.18338e-17
3.93506e-17
-1.40949e-17
-4.8517e-18
5.3118e-18
4.15136e-19
-9.45666e-19
8.30952e-17
6.28447e-16
-6.8233e-17
-4.36937e-16
3.84679e-16
4.27524e-17
-3.60412e-17
-3.02161e-17
9.07833e-17
-1.12314e-16
6.10553e-17
-6.24014e-17
8.42416e-18
-1.18368e-17
1.91275e-17
-1.28745e-17
0
0
8.13764e-19
0
1.54029e-16
-4.32468e-16
4.96025e-16
-3.62239e-16
3.61376e-16
0
1.04942e-16
-1.05423e-16
-7.01144e-17
1.01987e-16
0
3.65711e-17
-4.6287e-17
-6.63737e-18
0
-6.64137e-19
-1.15059e-18
-1.1971e-19
-1.51868e-15
7.08922e-16
0
-4.15794e-16
4.15753e-16
2.27511e-16
-1.48669e-16
5.40714e-17
0
-2.09367e-18
1.26373e-17
-1.39035e-17
-1.77187e-17
2.65858e-17
-2.82695e-17
0
5.01996e-18
-7.41644e-19
-7.2191e-19
9.21277e-16
-8.93749e-16
0
1.08427e-16
9.24049e-17
-8.07644e-17
0
-5.66673e-17
-4.28308e-17
0
-3.95984e-18
0
2.02276e-17
0
0
6.57882e-18
2.37658e-17
-3.13725e-17
0
-7.86531e-21
1.32491e-16
-1.15297e-16
8.23352e-17
-4.24307e-16
1.56048e-16
0
1.03869e-17
2.8715e-17
0
-2.49367e-17
6.06308e-17
-6.36962e-17
8.76297e-18
0
-1.80235e-18
0
0
0
2.57209e-20
0
1.06563e-16
0
-1.37146e-16
1.39326e-16
0
3.8449e-17
-2.71335e-17
9.15028e-17
-4.26503e-17
1.23646e-17
-1.77627e-17
1.44998e-17
-2.40944e-17
-3.59782e-18
0
-1.51732e-18
0
3.50533e-16
-5.94762e-16
0
-8.22511e-17
6.77321e-17
0
0
-6.85648e-17
0
-2.07431e-17
-2.6836e-17
-1.13642e-17
1.62856e-17
0
5.89201e-18
0
0
3.10701e-18
-3.19333e-18
0
4.90966e-16
-3.9045e-16
7.61458e-17
-6.27203e-17
-2.19141e-17
6.0068e-17
5.91855e-17
-6.1081e-17
1.92741e-17
3.15697e-18
-1.16516e-17
4.58292e-17
-1.38785e-17
-2.53722e-17
7.94896e-18
-1.55484e-18
9.57056e-19
-2.27418e-19
-8.59308e-16
3.13604e-16
0
0
2.48244e-17
-2.52436e-17
1.30798e-17
5.13572e-18
5.2595e-17
2.23243e-17
-2.06911e-17
-1.904e-18
-7.991e-18
6.22576e-18
0
2.03772e-18
1.42512e-18
6.16309e-19
2.05553e-19
0
2.58427e-16
-2.27132e-16
6.99875e-17
6.1459e-17
-1.14338e-17
-3.09527e-17
-2.30584e-17
-6.44474e-17
2.15321e-17
-8.98819e-18
1.52059e-17
7.47257e-18
-7.07e-18
7.50437e-18
3.41725e-18
-4.79299e-18
-5.69253e-19
0
-4.99749e-17
-2.08379e-16
6.88604e-17
5.81354e-17
-1.76251e-16
1.19736e-16
4.6642e-17
-4.76752e-17
2.93456e-17
-2.04351e-17
0
0
-9.17436e-18
1.54363e-17
-6.17223e-18
4.39022e-18
-4.84668e-18
6.7292e-19
-1.19124e-18
9.15721e-17
8.0716e-17
-6.77401e-17
4.30628e-17
-5.62099e-17
-6.80311e-17
0
0
0
0
0
0
4.687e-18
-9.96881e-18
1.05431e-17
-2.58855e-18
3.25547e-18
1.31175e-18
-1.09643e-18
1.93837e-16
-2.92737e-16
3.63486e-16
-1.39203e-16
1.96205e-16
-1.10743e-16
1.94166e-16
-9.91247e-17
-3.87899e-17
3.96803e-17
0
6.80777e-18
-4.57896e-18
8.68855e-18
-3.76175e-18
-3.57839e-18
-5.83095e-18
4.91461e-19
9.10219e-19
3.03925e-16
7.9803e-17
0
-1.04702e-16
-6.97078e-17
1.50177e-16
7.03639e-18
-4.58891e-17
2.47495e-17
-1.38215e-17
0
-5.38912e-18
0
-3.13638e-18
2.2777e-18
-1.7528e-18
-5.44534e-19
3.24982e-19
0
4.2135e-16
-8.43605e-17
3.19341e-16
-2.48128e-16
-4.28976e-17
1.42381e-16
-8.48477e-17
5.97773e-18
4.14846e-18
-1.37991e-17
1.24593e-17
0
0
4.18989e-18
-1.07597e-18
5.75436e-19
1.95965e-18
-6.70741e-19
0
6.52114e-20
0
-7.32705e-17
3.85688e-16
-2.53584e-16
-2.22836e-16
1.20226e-16
-9.61538e-17
8.50103e-17
3.42791e-17
-2.1685e-17
7.70629e-18
-6.28287e-18
1.41533e-18
7.23339e-18
-4.04934e-20
-2.0015e-18
1.90775e-18
-4.06426e-19
1.00087e-15
-3.13597e-16
1.26069e-16
-4.02439e-16
9.64507e-17
-1.31531e-16
7.42381e-17
0
0
-2.29388e-18
-3.67669e-18
-1.03453e-18
0
-7.25678e-18
-4.73597e-18
3.04614e-18
-2.0694e-19
4.99073e-19
8.62288e-19
0
-3.00522e-16
4.64657e-16
7.693e-17
-3.40232e-16
7.88708e-17
-1.03827e-16
2.74921e-17
7.448e-17
0
0
1.15103e-18
8.67648e-18
0
-5.57409e-18
-2.17555e-18
3.38099e-19
-8.82083e-19
-1.13551e-18
0
-1.78272e-16
6.35042e-17
3.13622e-16
1.96196e-16
-3.46553e-16
1.49064e-16
-8.25125e-17
4.62321e-17
-5.05376e-17
0
0
0
-1.19994e-17
2.02015e-18
-3.23021e-18
0
-1.715e-19
8.32544e-19
-7.42342e-16
6.92127e-16
6.6242e-16
-7.97766e-16
3.24475e-16
-2.97388e-16
0
8.9164e-17
-1.163e-16
6.08424e-17
-3.96995e-17
2.8178e-17
1.99329e-17
1.241e-17
8.62584e-18
0
0
0
0
8.46862e-16
-4.5882e-16
0
0
-1.23705e-16
2.66133e-16
-1.68159e-16
-9.62501e-17
9.51652e-17
5.74885e-17
8.51736e-17
-2.92374e-17
1.154e-17
7.30769e-18
4.78228e-18
4.03731e-18
6.27726e-18
-2.94367e-19
2.9984e-19
-8.46806e-16
7.54616e-16
3.6355e-16
-1.94696e-16
3.60742e-16
-2.28669e-16
-1.56812e-16
-1.18936e-16
0
-1.21413e-16
9.80128e-18
3.5685e-17
-2.37832e-17
-1.7243e-17
-5.88908e-18
-5.39956e-18
-4.35115e-18
0
0
-2.91298e-16
0
2.04626e-16
1.16371e-19
0
0
1.61757e-16
1.22725e-16
0
6.78512e-17
0
-5.36505e-17
-1.37834e-17
2.35101e-17
0
1.42965e-17
-1.93333e-18
1.97226e-18
0
6.32649e-16
0
3.82515e-16
-6.87507e-16
5.79144e-16
4.11276e-16
-2.18748e-17
0
1.32424e-17
8.58861e-17
0
-6.44841e-17
6.53626e-17
-5.59667e-17
-1.1764e-17
-1.12302e-17
-3.64875e-18
-7.26109e-19
-3.2096e-18
-5.64927e-16
8.07362e-16
-2.12933e-16
-5.21335e-16
-2.80194e-16
-2.22273e-16
-3.4806e-16
-1.20056e-16
1.62301e-17
3.56482e-17
-3.55812e-17
9.88831e-17
-4.24444e-17
7.89716e-17
-1.46125e-17
0
1.94104e-17
-1.24097e-17
3.09639e-18
1.30107e-15
-3.90757e-17
-8.90869e-16
6.70066e-16
-5.68872e-16
4.55724e-16
-2.28995e-17
-1.42406e-16
1.1314e-16
3.90858e-17
-7.55119e-18
-8.49498e-17
2.20606e-17
2.95252e-17
-7.70296e-18
7.79083e-18
-2.01045e-17
-5.08586e-18
-6.85549e-18
6.38711e-16
2.52846e-16
4.20265e-16
-3.43741e-16
-2.53507e-16
2.43032e-17
-1.63121e-16
3.87184e-16
1.93768e-17
1.51843e-16
8.37281e-17
-7.18289e-17
0
-4.48318e-17
0
0
3.83588e-17
1.56562e-17
7.85327e-18
5.86344e-16
0
4.11298e-16
3.41522e-16
-2.80178e-16
2.26489e-16
0
-1.48406e-16
-1.95259e-16
-1.57488e-16
-8.44692e-17
7.26411e-17
0
0
0
0
-3.61159e-17
-3.33141e-17
0
-1.14797e-15
0
-3.35422e-17
-3.02795e-17
4.31731e-16
-2.15584e-16
-9.33889e-17
-9.46206e-17
2.03386e-16
0
5.00513e-17
-5.07118e-18
5.21261e-17
0
0
7.4118e-17
-5.66605e-18
4.0104e-17
-1.85048e-17
7.99256e-16
2.14258e-16
-2.12047e-16
-1.75043e-16
-5.51997e-16
3.57343e-16
4.03948e-16
-1.89506e-17
-1.43635e-16
1.49238e-16
2.98695e-17
-1.59677e-16
-1.23126e-16
-8.84893e-17
-9.61378e-17
-8.57569e-17
8.41189e-17
-3.86235e-18
1.89528e-17
-2.40681e-16
1.03718e-16
-4.89093e-16
7.59383e-17
-7.56621e-17
0
-2.04054e-16
-2.6104e-17
-1.88862e-16
2.97925e-17
1.84511e-16
1.26025e-16
-3.35621e-17
6.67267e-19
9.06058e-17
0
-1.84042e-16
-7.35377e-17
-1.49587e-18
5.04177e-16
-1.27071e-17
7.69755e-16
-3.51167e-16
1.09954e-18
8.58932e-18
2.51423e-16
-3.40605e-17
1.83165e-16
-1.70704e-16
-1.62004e-16
0
1.88062e-16
1.41738e-16
2.19417e-18
-3.22764e-18
1.03574e-16
7.47169e-17
0
-3.55177e-16
0
-6.94614e-17
3.38717e-16
7.42262e-18
7.38234e-17
-2.43122e-16
2.2559e-16
2.56811e-16
2.47972e-16
2.42042e-16
0
-1.82699e-16
0
1.09558e-17
-1.13786e-17
0
-1.18262e-18
5.99065e-17
2.55037e-16
2.0567e-17
-1.75742e-16
5.53834e-16
-1.73868e-16
0
0
-3.09828e-16
-2.48824e-16
-2.40229e-16
-4.60679e-16
-6.49085e-17
0
0
0
-2.42135e-17
2.56239e-17
1.70357e-16
-6.08507e-17
2.17387e-17
0
-4.02438e-16
-3.49338e-16
3.78086e-16
-3.77406e-16
-5.32726e-16
6.29843e-16
1.89728e-16
0
2.81161e-16
3.42727e-16
-7.3906e-17
4.10571e-16
-6.78991e-17
7.06664e-17
2.82233e-16
-1.61897e-16
0
-4.83816e-16
0
-4.54275e-16
4.41582e-16
0
7.60127e-16
3.50261e-16
-7.5816e-16
6.27356e-16
-2.73094e-18
-1.85536e-16
-3.3183e-16
0
4.91707e-16
-8.13811e-16
8.76936e-16
-1.11843e-15
0
0
4.83775e-16
-5.14589e-18
-1.25449e-17
-9.03432e-16
9.20098e-16
-4.39246e-16
4.37455e-16
4.31428e-16
-3.633e-16
0
0
7.36424e-16
-7.49111e-16
-7.86189e-16
7.83682e-16
-7.66802e-16
8.32131e-16
-1.30629e-15
0
)
;

boundaryField
{
    up
    {
        type            calculated;
        value           nonuniform List<scalar> 
84
(
0
0
0
0
-4.25311e-17
7.52292e-17
-3.07306e-17
1.89528e-17
-1.67665e-17
0
-8.81455e-18
8.26232e-18
-4.11885e-18
9.87369e-19
7.01443e-19
2.05889e-18
0
0
-6.58008e-19
5.01057e-19
3.78209e-19
-3.67238e-19
2.87102e-20
0
1.36424e-19
8.46356e-20
-1.09275e-18
0
1.78864e-18
2.55468e-18
3.65958e-19
-6.80967e-19
3.0689e-19
0
-1.04509e-19
7.59487e-19
-8.35093e-19
1.36586e-18
0
-2.76592e-19
0
0
-1.50734e-19
2.9003e-19
-2.80235e-19
5.03585e-19
-9.45666e-19
8.13764e-19
-1.1971e-19
-7.2191e-19
0
0
0
-3.19333e-18
-4.57942e-19
2.05553e-19
0
-1.19124e-18
-1.09643e-18
7.74105e-19
0
0
-4.06426e-19
8.62288e-19
-1.13551e-18
8.32544e-19
0
2.9984e-19
0
0
-3.2096e-18
3.09639e-18
-6.85549e-18
7.85327e-18
0
-1.85048e-17
1.89528e-17
-1.49587e-18
0
5.99065e-17
-6.08507e-17
0
0
0
)
;
    }
    low
    {
        type            calculated;
        value           nonuniform List<scalar> 
84
(
-9.69166e-16
9.59945e-16
-4.5867e-16
7.38425e-16
1.31295e-16
-3.4126e-17
2.85143e-16
4.39517e-17
0
1.17852e-15
-2.98744e-16
2.19957e-16
-2.62172e-16
-1.78256e-15
2.91177e-16
0
-2.70734e-16
3.46467e-17
-3.37451e-17
-2.0445e-16
1.11499e-16
2.86427e-16
5.179e-16
-4.42427e-16
0
-8.54626e-17
-4.40303e-17
0
-4.04585e-16
-1.17601e-16
-4.08047e-16
-4.41614e-16
4.78079e-16
1.596e-16
1.09682e-15
8.77861e-17
0
7.24757e-16
7.29385e-16
4.13259e-16
-2.19176e-16
8.68512e-17
8.68543e-17
0
3.45266e-16
8.20586e-16
6.34778e-16
8.48916e-17
0
-1.51919e-15
9.21277e-16
-7.86531e-21
2.57209e-20
3.50533e-16
0
-8.56483e-16
0
-4.99749e-17
9.15721e-17
1.92108e-16
3.01022e-16
4.18766e-16
6.52114e-20
9.98993e-16
0
0
-7.42342e-16
8.46332e-16
-8.46626e-16
-2.91298e-16
6.33084e-16
-5.64927e-16
1.30446e-15
6.40931e-16
5.86344e-16
-1.14797e-15
7.96844e-16
-2.381e-16
5.04177e-16
-3.54081e-16
2.55037e-16
2.38329e-17
-4.83816e-16
4.84348e-16
)
;
    }
    left
    {
        type            calculated;
        value           nonuniform List<scalar> 
19
(
-9.68019e-16
-4.64879e-16
4.78805e-16
1.68618e-17
-8.94622e-16
0
-4.06566e-16
-4.01045e-16
-3.77674e-17
-2.16327e-16
-1.34486e-18
-2.16953e-16
9.77362e-16
-2.16546e-16
1.00774e-15
8.72829e-16
5.20063e-16
7.65259e-16
0
)
;
    }
    right
    {
        type            calculated;
        value           nonuniform List<scalar> 
19
(
4.83775e-16
-4.62489e-18
-1.25449e-17
-9.03577e-16
9.20637e-16
-4.39246e-16
4.37455e-16
4.31428e-16
-3.61582e-16
0
0
7.4332e-16
-7.58565e-16
-7.86189e-16
7.83682e-16
-7.66802e-16
8.32131e-16
-1.4123e-15
0
)
;
    }
    frontAndBackPlanes
    {
        type            empty;
    }
}


// ************************************************************************* //
