/*--------------------------------*- C++ -*----------------------------------*\
  =========                 |
  \\      /  F ield         | OpenFOAM: The Open Source CFD Toolbox
   \\    /   O peration     | Website:  https://openfoam.org
    \\  /    A nd           | Version:  7
     \\/     M anipulation  |
\*---------------------------------------------------------------------------*/
FoamFile
{
    version     2.0;
    format      ascii;
    class       volScalarField;
    location    "0.12";
    object      T;
}
// * * * * * * * * * * * * * * * * * * * * * * * * * * * * * * * * * * * * * //

dimensions      [0 0 0 1 0 0 0];

internalField   nonuniform List<scalar> 
1596
(
5.97347
5.89794
5.82241
5.75414
5.69585
5.64764
5.60868
5.57644
5.54894
5.52174
5.49142
5.45321
5.39774
5.31303
5.18176
4.96742
4.60385
3.95976
2.77179
5.88611
5.65272
5.43794
5.2498
5.09085
4.9599
4.85399
4.76746
4.69504
4.62794
4.55865
4.47781
4.37026
4.21849
4.00219
3.68679
3.22213
2.52484
1.43843
5.78516
5.39684
5.05608
4.76382
4.51912
4.31844
4.15663
4.02591
3.91877
3.82428
3.73287
3.63328
3.50911
3.34242
3.11429
2.7964
2.3534
1.73467
0.849178
5.68938
5.16111
4.71014
4.32849
4.01084
3.75115
3.54234
3.37522
3.24082
3.12725
3.02407
2.9194
2.79729
2.64089
2.43336
2.15164
1.7701
1.25702
0.558641
5.61479
4.9715
4.4278
3.97005
3.58971
3.27894
3.02925
2.83058
2.67311
2.54458
2.43426
2.33025
2.21753
2.08064
1.90454
1.66989
1.35684
0.943708
0.396905
5.5699
4.84256
4.2245
3.7026
3.26768
2.91132
2.62441
2.39653
2.21745
2.07487
1.95802
1.8552
1.75239
1.63544
1.49076
1.30159
1.05146
0.723908
0.295895
5.55342
4.77415
4.10046
3.52569
3.04309
2.64526
2.32336
2.06719
1.86643
1.70896
1.58408
1.48032
1.38461
1.2839
1.1658
1.01547
0.818608
0.561466
0.226545
5.55718
4.75438
4.04321
3.42674
2.90321
2.46777
2.11288
1.82905
1.60625
1.43267
1.29773
1.1902
1.09775
1.00833
0.910525
0.791057
0.637204
0.436827
0.175481
5.57416
4.76986
4.03708
3.38943
2.8316
2.36251
1.97678
1.66618
1.42129
1.23071
1.08402
0.970199
0.877495
0.794632
0.71105
0.6148
0.494472
0.339109
0.136184
5.59246
4.79909
4.05747
3.38889
2.80423
2.3067
1.89364
1.55848
1.29273
1.08553
0.926646
0.80522
0.709929
0.630105
0.5559
0.476511
0.38171
0.261595
0.105135
5.60561
4.82629
4.08403
3.40335
2.79959
2.27982
1.84422
1.48809
1.20405
0.981873
0.811599
0.682493
0.583546
0.504548
0.436229
0.368778
0.293043
0.200149
0.0804037
5.61968
4.85498
4.11541
3.42758
2.80991
2.27261
1.81845
1.44458
1.1448
0.90953
0.729079
0.592813
0.489907
0.410458
0.345622
0.286396
0.224563
0.152226
0.0609329
5.63138
4.87991
4.144
3.45181
2.82401
2.27321
1.80436
1.41624
1.1037
0.857793
0.66905
0.52689
0.42057
0.340358
0.277703
0.224222
0.172479
0.115456
0.0458466
5.63649
4.89325
4.16018
3.46531
2.83057
2.27022
1.79083
1.39244
1.07076
0.817348
0.622866
0.476744
0.368247
0.28773
0.226829
0.177634
0.133336
0.0876789
0.0343646
5.63929
4.89899
4.1659
3.4679
2.82755
2.26016
1.77337
1.36809
1.04057
0.78262
0.584955
0.436912
0.327699
0.24768
0.188601
0.142899
0.104256
0.0670432
0.0258084
5.64116
4.89993
4.16344
3.46048
2.81437
2.24119
1.7492
1.33974
1.00923
0.7495
0.551096
0.403161
0.294767
0.21623
0.159346
0.116812
0.0826877
0.0518508
0.0195333
5.6403
4.8943
4.15121
3.44126
2.78882
2.21063
1.71528
1.30413
0.973407
0.714616
0.517934
0.372171
0.266197
0.190239
0.13612
0.0967438
0.0664822
0.0406248
0.0149553
5.63775
4.88355
4.13083
3.41165
2.75178
2.16876
1.6713
1.26047
0.931909
0.676484
0.483753
0.342052
0.239975
0.167634
0.116872
0.0807825
0.0540119
0.0322037
0.0115942
5.63861
4.87589
4.11107
3.37982
2.71029
2.12119
1.62145
1.21163
0.886503
0.635964
0.448701
0.312403
0.215295
0.147332
0.100367
0.0676702
0.0441416
0.0257402
0.00908485
5.64149
4.87149
4.09328
3.34772
2.66633
2.06968
1.56709
1.15856
0.837716
0.593221
0.412629
0.28281
0.191529
0.128547
0.0857221
0.0565062
0.0360514
0.020615
0.0071564
5.64293
4.86598
4.07418
3.31329
2.61887
2.01386
1.50824
1.10146
0.785778
0.54841
0.375561
0.253142
0.168388
0.110854
0.0724155
0.0467264
0.0292058
0.0164121
0.00562331
5.64536
4.86225
4.05707
3.28032
2.57195
1.95769
1.44851
1.04336
0.733102
0.503316
0.33871
0.224125
0.146214
0.0943025
0.0602915
0.038052
0.0232847
0.0128596
0.00436225
5.64999
4.86297
4.04541
3.25289
2.52999
1.90561
1.39202
0.987828
0.682549
0.460083
0.303561
0.196691
0.125501
0.0790671
0.0493053
0.0302977
0.0180299
0.0097054
0.00324839
5.65635
4.86825
4.04026
3.23304
2.49587
1.86101
1.34223
0.938082
0.636829
0.420795
0.271576
0.171753
0.106726
0.0653076
0.0394019
0.0232639
0.0131382
0.00656915
0.00194393
5.66928
4.89622
4.07466
3.26703
2.525
1.88316
1.35724
0.946978
0.64116
0.422094
0.271099
0.170391
0.105049
0.0636326
0.0378746
0.0219172
0.0119681
0.00562294
0.0014378
5.68485
4.9388
4.13829
3.34376
2.60635
1.96161
1.42736
1.00574
0.687699
0.457146
0.296293
0.187733
0.116507
0.0709238
0.0423674
0.0246077
0.0135171
0.00642911
0.0017019
5.69365
4.96851
4.18828
3.4097
2.68156
2.03879
1.50017
1.06973
0.740552
0.498437
0.326904
0.209305
0.130954
0.0801163
0.0479346
0.0278173
0.0152601
0.00726625
0.0019442
5.69575
4.98431
4.22249
3.462
2.74763
2.11213
1.57396
1.13826
0.799986
0.546939
0.364292
0.236556
0.149691
0.0922163
0.0552494
0.0319331
0.0173845
0.00820667
0.00218043
5.69401
4.99129
4.24649
3.50567
2.80864
2.18478
1.65123
1.21355
0.868204
0.604939
0.41079
0.271739
0.174725
0.108844
0.0654715
0.037681
0.020284
0.00943015
0.00245904
5.68913
4.99259
4.26463
3.54505
2.86813
2.25933
1.73384
1.29707
0.946629
0.674053
0.468277
0.316923
0.208138
0.131868
0.0800598
0.0460232
0.0244832
0.0111674
0.00283948
5.68332
4.99351
4.28335
3.58636
2.93135
2.33984
1.82479
1.39112
1.03724
0.756262
0.538933
0.374537
0.252513
0.163795
0.101146
0.0584661
0.0308097
0.0137481
0.00339705
5.68141
5.0015
4.3105
3.6368
3.00441
2.43113
1.92776
1.49852
1.14242
0.853861
0.625247
0.447432
0.311083
0.208085
0.132047
0.0776821
0.0408923
0.0177768
0.00419863
5.68114
5.0133
4.34283
3.69343
3.0847
2.53097
2.04095
1.61804
1.26161
0.96712
0.728428
0.537847
0.387168
0.269082
0.177828
0.108754
0.0587766
0.0253345
0.00533898
5.68196
5.02818
4.3797
3.75573
3.17179
2.63904
2.16416
1.74971
1.39522
1.09701
0.850206
0.648503
0.484766
0.352401
0.246004
0.160998
0.0945662
0.0451809
0.0111973
5.68199
5.03992
4.41028
3.80868
3.24715
2.7341
2.27438
1.86964
1.51935
1.22033
0.968649
0.759095
0.585508
0.442018
0.323517
0.225157
0.143422
0.0762884
0.0223103
5.67601
5.0339
4.41205
3.82282
3.2754
2.77602
2.32795
1.93194
1.58709
1.29021
1.03774
0.824957
0.646261
0.496315
0.370494
0.264142
0.173669
0.0965429
0.0303569
5.66574
5.01612
4.39506
3.81163
3.27257
2.78227
2.34273
1.9538
1.6141
1.32023
1.06865
0.854864
0.673511
0.519611
0.389005
0.277482
0.182005
0.100646
0.0314081
5.65835
5.00386
4.38421
3.80596
3.27394
2.79115
2.35855
1.97533
1.63972
1.34814
1.09712
0.882331
0.698636
0.541364
0.406728
0.290848
0.191023
0.105678
0.033021
5.65457
4.9978
4.37979
3.80565
3.27899
2.80183
2.37438
1.99533
1.66262
1.37254
1.12168
0.905822
0.720029
0.559856
0.421808
0.302254
0.198755
0.110024
0.0344424
5.65205
4.99393
4.3773
3.8063
3.28365
2.81065
2.38699
2.01098
1.68037
1.39134
1.1405
0.923778
0.736336
0.57391
0.43323
0.310854
0.20455
0.113259
0.0355009
5.6501
4.99071
4.37488
3.80598
3.28607
2.81594
2.3949
2.021
1.69185
1.40357
1.1528
0.935521
0.746991
0.583064
0.440627
0.31637
0.208211
0.115262
0.036145
5.64737
4.98641
4.37094
3.80336
3.28518
2.81685
2.39746
2.0249
1.69675
1.40906
1.15849
0.941072
0.752107
0.587514
0.444261
0.319109
0.210048
0.11628
0.036481
5.64738
4.98644
4.37098
3.80341
3.28524
2.81691
2.39751
2.02496
1.6968
1.40911
1.15854
0.941117
0.752146
0.587548
0.444289
0.319131
0.210064
0.11629
0.0364843
5.65013
4.99079
4.375
3.80612
3.28623
2.81611
2.39508
2.02117
1.69202
1.40373
1.15295
0.935656
0.747111
0.583168
0.440713
0.316439
0.20826
0.115292
0.0361554
5.65211
4.99407
4.3775
3.80653
3.28391
2.81093
2.38728
2.01126
1.68064
1.3916
1.14074
0.923995
0.736528
0.574075
0.433367
0.310962
0.204627
0.113306
0.035517
5.65464
4.99798
4.38004
3.80596
3.27935
2.80221
2.37477
1.99571
1.66299
1.37289
1.12199
0.90611
0.720284
0.560074
0.421989
0.302396
0.198857
0.110085
0.0344636
5.65844
5.00408
4.38454
3.80635
3.27438
2.79162
2.35903
1.9758
1.64018
1.34857
1.09752
0.882685
0.698947
0.54163
0.406948
0.29102
0.191146
0.105751
0.0330463
5.66584
5.01638
4.39544
3.81209
3.27309
2.78282
2.34329
1.95435
1.61463
1.32072
1.0691
0.855271
0.673866
0.519912
0.38925
0.277672
0.182138
0.100725
0.0314345
5.67612
5.03419
4.41248
3.82335
3.276
2.77665
2.32859
1.93258
1.58769
1.29077
1.03824
0.825408
0.646649
0.496638
0.370751
0.264334
0.173799
0.0966161
0.0303808
5.68213
5.04034
4.41094
3.80953
3.24815
2.7352
2.27552
1.87079
1.52046
1.22138
0.969621
0.759978
0.586298
0.442716
0.324125
0.225675
0.14384
0.0765788
0.0224275
5.68213
5.02868
4.38048
3.75675
3.17298
2.64035
2.16551
1.75105
1.39651
1.09821
0.851302
0.649484
0.485629
0.353148
0.246636
0.161511
0.0949492
0.0454192
0.0112801
5.68128
5.01373
4.34353
3.69434
3.08576
2.53212
2.04212
1.61919
1.26269
0.968101
0.729298
0.5386
0.387805
0.269606
0.178242
0.109058
0.0589707
0.0254291
0.00535817
5.68155
5.00191
4.31117
3.63767
3.00542
2.43221
1.92886
1.49958
1.14339
0.854727
0.625993
0.448058
0.311593
0.208486
0.132346
0.0778865
0.0410127
0.0178312
0.0042105
5.68344
4.99389
4.28398
3.58718
2.93231
2.34085
1.82581
1.39208
1.03811
0.757018
0.539567
0.375053
0.252919
0.164103
0.101365
0.0586088
0.0308907
0.0137844
0.00340505
5.68924
4.99294
4.26521
3.54582
2.86902
2.26027
1.73477
1.29794
0.947397
0.674705
0.468811
0.317345
0.20846
0.132103
0.0802213
0.0461252
0.02454
0.0111929
0.00284518
5.6941
4.99161
4.24702
3.50637
2.80945
2.18564
1.65207
1.21432
0.868871
0.605494
0.411234
0.272081
0.174978
0.109024
0.0655916
0.0377552
0.020325
0.00944869
0.00246334
5.69583
4.98459
4.22297
3.46263
2.74836
2.1129
1.5747
1.13892
0.800556
0.547404
0.364656
0.23683
0.149889
0.092354
0.0553398
0.0319884
0.0174152
0.0082209
0.00218395
5.69372
4.96875
4.1887
3.41025
2.68219
2.03945
1.5008
1.07029
0.741029
0.498821
0.3272
0.209524
0.131111
0.0802234
0.0480044
0.0278602
0.0152845
0.0072781
0.00194744
5.68491
4.93901
4.13864
3.34423
2.60689
1.96217
1.42789
1.00621
0.688093
0.457461
0.296534
0.187911
0.116632
0.0710096
0.0424236
0.0246428
0.0135377
0.00643979
0.00170522
5.66929
4.89627
4.07475
3.26716
2.52515
1.88332
1.35739
0.947121
0.641283
0.422195
0.271179
0.170452
0.105092
0.0636626
0.0378938
0.0219283
0.0119734
0.0056243
0.00143724
5.65632
4.8682
4.04018
3.23293
2.49576
1.86089
1.34213
0.937995
0.636758
0.420741
0.271536
0.171724
0.106706
0.065293
0.0393912
0.0232558
0.0131321
0.00656466
0.00194152
5.64999
4.86296
4.0454
3.25288
2.52999
1.90561
1.39202
0.987838
0.682561
0.460094
0.303571
0.1967
0.125508
0.0790715
0.0493081
0.0302994
0.0180308
0.00970562
0.00324821
5.64535
4.86224
4.05706
3.28031
2.57195
1.95769
1.44852
1.04337
0.733111
0.503324
0.338717
0.22413
0.146218
0.0943053
0.0602934
0.0380533
0.0232855
0.01286
0.0043623
5.64293
4.86597
4.07417
3.31328
2.61887
2.01386
1.50825
1.10146
0.785784
0.548415
0.375566
0.253145
0.168391
0.110857
0.0724173
0.0467279
0.029207
0.0164129
0.00562351
5.64149
4.87148
4.09328
3.34771
2.66633
2.06968
1.56709
1.15857
0.83772
0.593224
0.412632
0.282813
0.191531
0.128549
0.0857243
0.0565083
0.0360532
0.0206162
0.00715675
5.63861
4.87589
4.11106
3.37982
2.71029
2.1212
1.62145
1.21164
0.886505
0.635966
0.448703
0.312405
0.215297
0.147335
0.10037
0.0676732
0.0441442
0.025742
0.00908536
5.63775
4.88354
4.13083
3.41165
2.75178
2.16876
1.6713
1.26047
0.93191
0.676485
0.483755
0.342054
0.239978
0.167637
0.116876
0.0807866
0.0540155
0.032206
0.0115948
5.6403
4.8943
4.15121
3.44126
2.78882
2.21063
1.71528
1.30413
0.973407
0.714617
0.517935
0.372174
0.266201
0.190243
0.136126
0.0967492
0.0664867
0.0406277
0.0149561
5.64116
4.89993
4.16344
3.46048
2.81437
2.2412
1.7492
1.33974
1.00923
0.749501
0.551098
0.403164
0.294772
0.216236
0.159353
0.116818
0.082693
0.0518539
0.0195341
5.63929
4.89899
4.16591
3.46791
2.82755
2.26016
1.77337
1.36809
1.04057
0.782621
0.584957
0.436917
0.327705
0.247688
0.188609
0.142906
0.104261
0.0670461
0.0258089
5.63649
4.89325
4.16018
3.46532
2.83057
2.27022
1.79083
1.39244
1.07076
0.817349
0.62287
0.476749
0.368254
0.287738
0.226837
0.177641
0.13334
0.0876809
0.0343647
5.63139
4.87992
4.14401
3.45181
2.82401
2.27321
1.80436
1.41624
1.1037
0.857795
0.669054
0.526897
0.420577
0.340366
0.277711
0.224228
0.172482
0.115457
0.0458462
5.61968
4.85499
4.11541
3.42758
2.80991
2.27261
1.81845
1.44458
1.1448
0.909533
0.729084
0.59282
0.489915
0.410465
0.345627
0.286398
0.224562
0.152224
0.0609321
5.60561
4.82629
4.08403
3.40336
2.7996
2.27982
1.84422
1.48809
1.20405
0.981876
0.811603
0.682498
0.583551
0.504551
0.436229
0.368775
0.293038
0.200145
0.0804027
5.59246
4.7991
4.05747
3.38889
2.80423
2.30669
1.89363
1.55848
1.29273
1.08553
0.926648
0.805222
0.70993
0.630103
0.555895
0.476503
0.381702
0.26159
0.105134
5.57416
4.76986
4.03708
3.38943
2.83159
2.3625
1.97678
1.66617
1.42128
1.2307
1.08402
0.970197
0.87749
0.794623
0.711039
0.614788
0.494462
0.339104
0.136184
5.55718
4.75438
4.0432
3.42673
2.9032
2.46776
2.11287
1.82904
1.60625
1.43267
1.29772
1.19019
1.09774
1.00832
0.910509
0.791042
0.637193
0.436822
0.175482
5.55342
4.77414
4.10046
3.52568
3.04309
2.64525
2.32336
2.06718
1.86642
1.70895
1.58407
1.48031
1.38459
1.28388
1.16578
1.01545
0.818599
0.561464
0.226547
5.5699
4.84255
4.2245
3.7026
3.26768
2.91132
2.6244
2.39653
2.21744
2.07486
1.95801
1.85518
1.75237
1.63542
1.49074
1.30158
1.05146
0.723909
0.295897
5.61478
4.9715
4.4278
3.97005
3.58971
3.27894
3.02925
2.83057
2.6731
2.54457
2.43424
2.33023
2.21751
2.08062
1.90453
1.66989
1.35684
0.943711
0.396907
5.68937
5.16111
4.71014
4.32849
4.01083
3.75114
3.54234
3.37521
3.24081
3.12724
3.02405
2.91938
2.79728
2.64088
2.43335
2.15164
1.77011
1.25703
0.558643
5.78515
5.39684
5.05608
4.76382
4.51912
4.31844
4.15662
4.02591
3.91876
3.82426
3.73285
3.63326
3.5091
3.34241
3.11429
2.79641
2.35341
1.73467
0.849177
5.88611
5.65272
5.43794
5.2498
5.09085
4.9599
4.85399
4.76746
4.69503
4.62793
4.55864
4.4778
4.37026
4.21849
4.0022
3.6868
3.22214
2.52484
1.43843
5.97347
5.89794
5.82241
5.75414
5.69585
5.64764
5.60868
5.57644
5.54894
5.52174
5.49142
5.45321
5.39774
5.31304
5.18176
4.96742
4.60385
3.95976
2.77179
)
;

boundaryField
{
    up
    {
        type            fixedValue;
        value           uniform 0;
    }
    low
    {
        type            fixedValue;
        value           uniform 6;
    }
    left
    {
        type            fixedValue;
        value           uniform 6;
    }
    right
    {
        type            fixedValue;
        value           uniform 6;
    }
    frontAndBackPlanes
    {
        type            empty;
    }
}


// ************************************************************************* //
