/*--------------------------------*- C++ -*----------------------------------*\
  =========                 |
  \\      /  F ield         | OpenFOAM: The Open Source CFD Toolbox
   \\    /   O peration     | Website:  https://openfoam.org
    \\  /    A nd           | Version:  7
     \\/     M anipulation  |
\*---------------------------------------------------------------------------*/
FoamFile
{
    version     2.0;
    format      ascii;
    class       volScalarField;
    location    "0.09";
    object      T;
}
// * * * * * * * * * * * * * * * * * * * * * * * * * * * * * * * * * * * * * //

dimensions      [0 0 0 1 0 0 0];

internalField   nonuniform List<scalar> 
1596
(
3.97776
3.9147
3.85232
3.79719
3.7518
3.7162
3.6895
3.66941
3.65423
3.64054
3.62595
3.60704
3.57708
3.52749
3.44605
3.30774
3.06816
2.63993
1.84801
3.90502
3.71112
3.53482
3.38393
3.26103
3.16491
3.0925
3.03854
2.99838
2.96512
2.93329
2.89615
2.84273
2.76021
2.6336
2.43816
2.13922
1.68075
0.95898
3.82242
3.5024
3.22488
2.9923
2.80443
2.65793
2.54755
2.46592
2.40624
2.35971
2.31922
2.27661
2.22005
2.13635
2.01116
1.8234
1.54748
1.14833
0.565101
3.74644
3.31568
2.95192
2.65084
2.40875
2.22012
2.07783
1.97304
1.89743
1.84121
1.79639
1.75435
1.70373
1.63226
1.5271
1.37062
1.14329
0.821846
0.369373
3.69013
3.17201
2.73815
2.38037
2.0926
1.86784
1.69765
1.57224
1.48227
1.41742
1.36924
1.32903
1.28628
1.22999
1.14891
1.02819
0.85216
0.603778
0.258762
3.65921
3.08094
2.59329
2.18919
1.86244
1.60569
1.40994
1.26496
1.16078
1.08678
1.03421
0.994403
0.957702
0.914354
0.85457
0.765769
0.634896
0.44832
0.188316
3.65095
3.03916
2.51352
2.07262
1.71254
1.42698
1.20722
1.04306
0.924263
0.840031
0.781391
0.73968
0.705926
0.671439
0.627706
0.564081
0.469542
0.332594
0.139129
3.65768
3.03443
2.48529
2.01661
1.62866
1.31737
1.07516
0.892347
0.758727
0.663463
0.597362
0.551706
0.517992
0.488348
0.455323
0.409939
0.342916
0.244423
0.1027
3.67332
3.05454
2.49384
2.00545
1.59478
1.26089
0.997989
0.797367
0.649155
0.542578
0.468252
0.417327
0.381555
0.353619
0.326892
0.293792
0.246581
0.176937
0.0749612
3.68872
3.08234
2.51905
2.0185
1.59079
1.23834
0.957578
0.741061
0.5795
0.462313
0.379974
0.323473
0.284648
0.256519
0.233042
0.207758
0.17426
0.125639
0.053701
3.69923
3.10605
2.54546
2.03901
1.59997
1.2337
0.938805
0.709241
0.536467
0.410198
0.320854
0.259277
0.217294
0.188093
0.166019
0.145464
0.121124
0.0873703
0.0375933
3.70976
3.12881
2.57233
2.06302
1.61623
1.23955
0.9335
0.693369
0.51139
0.37761
0.282441
0.216587
0.171786
0.141272
0.119603
0.101774
0.0833268
0.059717
0.0257356
3.71798
3.14702
2.59438
2.08364
1.63155
1.24734
0.933012
0.68494
0.496029
0.356627
0.257144
0.188155
0.141279
0.109722
0.0881389
0.0719223
0.057227
0.0403637
0.01729
3.7208
3.15518
2.60499
2.09356
1.63833
1.24948
0.92998
0.676964
0.4838
0.341035
0.239069
0.16836
0.12042
0.0884044
0.0670148
0.0519044
0.0396584
0.0272267
0.0114776
3.72157
3.15655
2.60602
2.09314
1.63556
1.24393
0.921668
0.666262
0.471259
0.327248
0.224549
0.153499
0.105513
0.0737036
0.0527977
0.0386289
0.0280816
0.0185644
0.00761654
3.72139
3.15338
2.59938
2.08333
1.6232
1.22981
0.906569
0.650901
0.456204
0.312892
0.211098
0.141004
0.0939426
0.0629995
0.0429386
0.0297355
0.0204943
0.0129517
0.0051224
3.71887
3.14436
2.58402
2.06304
1.59999
1.20564
0.883083
0.629228
0.436963
0.296286
0.197015
0.129145
0.0839393
0.0545003
0.0356604
0.0235396
0.0154268
0.00930633
0.00353129
3.71484
3.13067
2.56123
2.03347
1.5668
1.17198
0.851419
0.601165
0.413226
0.276928
0.181631
0.1171
0.0745583
0.047165
0.0298688
0.0189564
0.0118963
0.00687861
0.00250771
3.71335
3.11871
2.53771
2.00073
1.5288
1.13287
0.814595
0.568828
0.386363
0.255595
0.165264
0.104845
0.0655164
0.0405292
0.0249832
0.015356
0.0092995
0.00518909
0.00182848
3.71339
3.10872
2.5146
1.96629
1.48743
1.08959
0.773649
0.533005
0.356931
0.232631
0.148069
0.0923666
0.0566651
0.0343365
0.0206721
0.0123689
0.00727477
0.00394454
0.00135394
3.71238
3.09761
2.4897
1.92896
1.44227
1.04221
0.728904
0.494127
0.325355
0.20839
0.130289
0.0797911
0.0480181
0.0285087
0.0167892
0.00980822
0.00562689
0.00298079
0.00100375
3.71235
3.088
2.46608
1.89211
1.3967
0.993831
0.683024
0.454322
0.293235
0.183999
0.112667
0.0675642
0.0398056
0.0231266
0.0133186
0.00760183
0.00426029
0.00221046
0.000734145
3.71442
3.08248
2.44713
1.85958
1.35465
0.948118
0.639125
0.416053
0.262382
0.160703
0.0960003
0.0561537
0.0322708
0.0182889
0.0102714
0.005712
0.00311535
0.00157483
0.000515048
3.71832
3.08166
2.4346
1.8341
1.31939
0.908402
0.600207
0.381747
0.234587
0.13971
0.0810343
0.0459751
0.0256122
0.0140637
0.0076438
0.00409753
0.00213227
0.00100582
0.000290903
3.72812
3.10074
2.45529
1.85135
1.33094
0.914264
0.601718
0.380629
0.232325
0.137293
0.0789663
0.0444142
0.0245288
0.0133542
0.00719435
0.00381075
0.00193727
0.000865536
0.000215182
3.7406
3.13345
2.50162
1.90347
1.38173
0.958648
0.637213
0.406962
0.250639
0.149349
0.086532
0.0489753
0.0271876
0.0148647
0.00804064
0.00428365
0.0021989
0.000999058
0.000257921
3.74805
3.15805
2.5413
1.95275
1.4338
1.00745
0.678718
0.439482
0.274368
0.165612
0.0970659
0.0554521
0.0309751
0.0169739
0.00916551
0.00486313
0.0024889
0.00113284
0.000296409
3.7505
3.17352
2.57235
1.99679
1.48505
1.05931
0.725852
0.478673
0.304572
0.187387
0.111842
0.0649176
0.0366928
0.0202146
0.0108805
0.0057058
0.00287164
0.00128577
0.000332313
3.75028
3.18359
2.59831
2.03822
1.53715
1.1154
0.77965
0.525735
0.342679
0.216238
0.132398
0.0787418
0.0454455
0.0253899
0.0137049
0.0071042
0.003487
0.00151129
0.00037603
3.74799
3.19039
2.62162
2.0789
1.59109
1.17604
0.840244
0.580966
0.38935
0.253186
0.159992
0.0982413
0.0584476
0.0334932
0.0183515
0.00949511
0.00455617
0.00189727
0.000446017
3.74535
3.19768
2.64637
2.12217
1.6492
1.24264
0.9085
0.645094
0.445458
0.299372
0.19601
0.124938
0.0772083
0.0458712
0.0258811
0.0135863
0.00645521
0.00259008
0.000572305
3.74612
3.2109
2.67783
2.17249
1.71481
1.31755
0.986046
0.719394
0.512242
0.356195
0.242081
0.160657
0.103647
0.0643924
0.0379355
0.0206164
0.00991533
0.00386947
0.000793238
3.7483
3.22701
2.71287
2.2269
1.78531
1.39857
1.07123
0.802856
0.589403
0.424084
0.299308
0.207077
0.139889
0.0914726
0.057012
0.0328661
0.0166362
0.00658387
0.00116854
3.75132
3.24506
2.75048
2.28446
1.85988
1.48502
1.16357
0.895311
0.677211
0.503852
0.369097
0.266211
0.188543
0.130305
0.0868555
0.0544836
0.0307388
0.014076
0.00327426
3.75359
3.26013
2.78244
2.33419
1.9254
1.56245
1.24805
0.981915
0.761637
0.582764
0.440312
0.328622
0.241868
0.174812
0.123049
0.0827618
0.0511813
0.0265077
0.00751509
3.75104
3.26098
2.79171
2.35414
1.95606
1.60221
1.29441
1.03199
0.812677
0.632387
0.486715
0.370589
0.278689
0.206189
0.148984
0.103351
0.066472
0.0363127
0.0112356
3.74498
3.2521
2.78559
2.35376
1.9625
1.61524
1.31294
1.05449
0.837476
0.657884
0.511539
0.393649
0.299158
0.223497
0.162823
0.113615
0.0732808
0.040026
0.0123639
3.74084
3.24656
2.78278
2.35586
1.97027
1.62842
1.33063
1.07543
0.860288
0.681226
0.534251
0.414798
0.318024
0.239581
0.175848
0.12347
0.0800173
0.0438626
0.0136138
3.73911
3.24485
2.78353
2.36045
1.97914
1.64136
1.34691
1.09408
0.880243
0.701445
0.553823
0.43298
0.334235
0.253408
0.187058
0.131963
0.0858297
0.0471784
0.0147025
3.73803
3.244
2.78461
2.36442
1.98632
1.65156
1.35962
1.10857
0.895719
0.717122
0.569005
0.447097
0.346831
0.264155
0.195766
0.13855
0.0903233
0.0497318
0.0155411
3.7371
3.24292
2.78472
2.36647
1.99058
1.65794
1.36778
1.11801
0.905906
0.727515
0.579124
0.45654
0.355274
0.271359
0.201594
0.14294
0.093297
0.0514045
0.0160856
3.73531
3.24037
2.78275
2.36569
1.99121
1.65992
1.37091
1.12203
0.910497
0.73237
0.583966
0.461137
0.359437
0.274947
0.20452
0.14516
0.0948105
0.052262
0.0163686
3.73532
3.24039
2.78278
2.36573
1.99125
1.65996
1.37096
1.12207
0.910536
0.732406
0.583998
0.461165
0.359461
0.274968
0.204537
0.145173
0.0948197
0.0522676
0.0163705
3.73712
3.24298
2.78481
2.36658
1.9907
1.65807
1.3679
1.11813
0.906021
0.727621
0.57922
0.456624
0.355347
0.271421
0.201645
0.14298
0.0933254
0.0514217
0.0160915
3.73807
3.2441
2.78476
2.36459
1.98652
1.65177
1.35983
1.10877
0.895904
0.717292
0.569158
0.447232
0.346948
0.264253
0.195846
0.138612
0.0903676
0.0497585
0.0155503
3.73916
3.24498
2.78373
2.36069
1.97941
1.64163
1.34719
1.09434
0.880492
0.701673
0.554026
0.433159
0.334389
0.253537
0.187163
0.132044
0.0858873
0.0472129
0.0147144
3.7409
3.24673
2.78302
2.35616
1.9706
1.62877
1.33098
1.07576
0.860596
0.681506
0.5345
0.415015
0.31821
0.239735
0.175973
0.123566
0.0800852
0.0439032
0.0136278
3.74505
3.2523
2.78588
2.35411
1.96289
1.61565
1.31334
1.05488
0.837835
0.658208
0.511825
0.393896
0.299367
0.223669
0.16296
0.11372
0.0733535
0.0400688
0.0123784
3.75112
3.2612
2.79204
2.35455
1.95651
1.60268
1.29487
1.03244
0.813085
0.632751
0.487034
0.37086
0.278915
0.206372
0.149127
0.103457
0.0665443
0.0363544
0.0112497
3.7537
3.26045
2.78295
2.33484
1.92615
1.56324
1.24885
0.982687
0.762353
0.583408
0.440876
0.329106
0.242276
0.175153
0.123329
0.0829883
0.0513563
0.0266257
0.00756169
3.75146
3.24545
2.75108
2.28523
1.86075
1.48594
1.16449
0.896182
0.678006
0.504553
0.369699
0.266717
0.188961
0.130646
0.0871287
0.0546959
0.0308924
0.0141698
0.00330644
3.74842
3.22735
2.71341
2.22758
1.78609
1.39938
1.07202
0.803586
0.59005
0.424638
0.299767
0.207448
0.140183
0.0917016
0.0571849
0.032989
0.0167133
0.00662083
0.00117581
3.74623
3.21123
2.67835
2.17315
1.71555
1.31831
0.986772
0.720052
0.51281
0.356666
0.242459
0.160952
0.103872
0.0645601
0.0380556
0.0206961
0.00996081
0.00388858
0.000796439
3.74545
3.19799
2.64686
2.1228
1.6499
1.24335
0.909163
0.64568
0.44595
0.299767
0.196317
0.125169
0.077378
0.0459923
0.0259634
0.0136377
0.00648267
0.00260075
0.000573733
3.74808
3.19067
2.62208
2.07948
1.59174
1.17668
0.84084
0.58148
0.38977
0.253512
0.160238
0.0984194
0.0585734
0.0335791
0.018407
0.0095278
0.0045726
0.00190326
0.000446661
3.75036
3.18384
2.59873
2.03876
1.53773
1.11598
0.780173
0.526176
0.34303
0.216503
0.132591
0.0788769
0.0455373
0.0254498
0.0137417
0.00712474
0.00349678
0.00151469
0.000376356
3.75056
3.17375
2.57273
1.99727
1.48557
1.05982
0.7263
0.479043
0.304858
0.187598
0.11199
0.0650186
0.0367591
0.0202561
0.0109049
0.00571885
0.00287767
0.00128789
0.000332574
3.74811
3.15825
2.54163
1.95316
1.43425
1.00787
0.679091
0.439784
0.274597
0.165777
0.0971799
0.0555276
0.0310232
0.0170032
0.00918225
0.00487194
0.00249306
0.00113448
0.000296742
3.74065
3.13362
2.5019
1.90382
1.3821
0.958998
0.637516
0.407204
0.250821
0.149478
0.0866201
0.0490329
0.0272237
0.0148864
0.00805301
0.00429031
0.00220229
0.00100063
0.000258376
3.72812
3.10078
2.45536
1.85144
1.33104
0.914362
0.601804
0.3807
0.23238
0.137333
0.0789944
0.0444329
0.0245407
0.0133612
0.00719814
0.00381259
0.00193799
0.000865625
0.000215006
3.7183
3.08162
2.43454
1.83403
1.31931
0.908328
0.600144
0.381697
0.23455
0.139683
0.0810155
0.0459623
0.0256035
0.0140578
0.00763979
0.00409484
0.00213051
0.0010047
0.000290349
3.71441
3.08247
2.44712
1.85958
1.35465
0.948121
0.639131
0.416059
0.262388
0.160707
0.0960031
0.0561552
0.0322713
0.0182889
0.0102711
0.00571168
0.00311508
0.00157462
0.000514917
3.71235
3.088
2.46608
1.89211
1.3967
0.993834
0.683028
0.454327
0.293239
0.184001
0.112669
0.067565
0.0398058
0.0231266
0.0133184
0.00760172
0.00426022
0.00221042
0.000734112
3.71238
3.0976
2.4897
1.92896
1.44227
1.04221
0.728907
0.49413
0.325358
0.208392
0.13029
0.0797918
0.0480185
0.0285089
0.0167894
0.00980843
0.00562711
0.00298096
0.00100379
3.71339
3.10872
2.51459
1.96629
1.48743
1.08959
0.77365
0.533006
0.356932
0.232632
0.148069
0.0923673
0.0566657
0.0343371
0.0206728
0.0123695
0.00727537
0.00394498
0.00135407
3.71335
3.11871
2.53771
2.00073
1.5288
1.13287
0.814596
0.568828
0.386363
0.255595
0.165264
0.104845
0.0655172
0.0405302
0.0249843
0.0153572
0.00930064
0.00518991
0.00182873
3.71484
3.13067
2.56123
2.03347
1.5668
1.17198
0.851419
0.601165
0.413226
0.276928
0.181631
0.117101
0.0745596
0.0471666
0.0298706
0.0189584
0.0118982
0.00687997
0.00250811
3.71887
3.14436
2.58402
2.06305
1.59999
1.20564
0.883082
0.629226
0.436962
0.296286
0.197016
0.129146
0.0839411
0.0545026
0.0356633
0.0235427
0.0154297
0.00930837
0.00353187
3.72139
3.15338
2.59938
2.08333
1.6232
1.2298
0.906567
0.6509
0.456203
0.312892
0.211098
0.141006
0.0939452
0.0630031
0.0429429
0.0297401
0.0204985
0.0129545
0.0051231
3.72157
3.15655
2.60602
2.09314
1.63556
1.24393
0.921666
0.66626
0.471258
0.327248
0.22455
0.153501
0.105517
0.0737086
0.0528037
0.0386352
0.028087
0.0185678
0.00761724
3.7208
3.15518
2.60499
2.09357
1.63833
1.24948
0.929978
0.676962
0.483799
0.341035
0.239071
0.168363
0.120425
0.0884113
0.0670226
0.0519121
0.0396647
0.0272301
0.0114781
3.71798
3.14703
2.59439
2.08364
1.63155
1.24734
0.93301
0.684938
0.496028
0.356627
0.257147
0.18816
0.141287
0.10973
0.0881481
0.0719306
0.057233
0.0403663
0.01729
3.70976
3.12882
2.57233
2.06302
1.61623
1.23955
0.933498
0.693368
0.51139
0.377612
0.282445
0.216593
0.171794
0.141281
0.119612
0.101781
0.0833308
0.0597176
0.0257348
3.69923
3.10606
2.54546
2.03901
1.59997
1.2337
0.938803
0.70924
0.536468
0.410201
0.320859
0.259285
0.217303
0.188102
0.166026
0.145467
0.121124
0.087368
0.0375918
3.68872
3.08234
2.51905
2.0185
1.59078
1.23834
0.957576
0.741061
0.579502
0.462317
0.37998
0.32348
0.284655
0.256525
0.233045
0.207756
0.174255
0.125633
0.0536991
3.67332
3.05454
2.49384
2.00545
1.59478
1.26088
0.997987
0.797367
0.649157
0.542582
0.468257
0.417332
0.381558
0.353619
0.326887
0.293783
0.246571
0.176929
0.0749597
3.65768
3.03443
2.48529
2.01661
1.62866
1.31737
1.07516
0.892347
0.758728
0.663465
0.597364
0.551706
0.517989
0.48834
0.45531
0.409924
0.342902
0.244415
0.1027
3.65095
3.03916
2.51352
2.07261
1.71254
1.42698
1.20722
1.04306
0.924263
0.84003
0.781388
0.739674
0.705916
0.671423
0.627687
0.564062
0.469528
0.332588
0.13913
3.6592
3.08094
2.59328
2.18919
1.86244
1.60569
1.40994
1.26496
1.16078
1.08677
1.0342
0.994391
0.957685
0.914333
0.854549
0.765751
0.634885
0.448318
0.188318
3.69013
3.17201
2.73815
2.38037
2.0926
1.86784
1.69765
1.57223
1.48227
1.41741
1.36923
1.32902
1.28626
1.22997
1.1489
1.02818
0.852156
0.603781
0.258766
3.74644
3.31568
2.95192
2.65084
2.40875
2.22012
2.07783
1.97304
1.89742
1.84119
1.79638
1.75433
1.70371
1.63224
1.52709
1.37061
1.1433
0.821852
0.369375
3.82242
3.5024
3.22489
2.9923
2.80443
2.65793
2.54754
2.46592
2.40623
2.3597
2.31921
2.27659
2.22004
2.13634
2.01116
1.82341
1.54749
1.14833
0.565102
3.90502
3.71112
3.53483
3.38394
3.26104
3.16491
3.09249
3.03854
2.99838
2.96511
2.93328
2.89615
2.84273
2.76021
2.63361
2.43817
2.13922
1.68075
0.958979
3.97776
3.9147
3.85232
3.79719
3.7518
3.7162
3.6895
3.66941
3.65423
3.64053
3.62595
3.60704
3.57708
3.52749
3.44605
3.30774
3.06816
2.63993
1.84801
)
;

boundaryField
{
    up
    {
        type            fixedValue;
        value           uniform 0;
    }
    low
    {
        type            fixedValue;
        value           uniform 4;
    }
    left
    {
        type            fixedValue;
        value           uniform 4;
    }
    right
    {
        type            fixedValue;
        value           uniform 4;
    }
    frontAndBackPlanes
    {
        type            empty;
    }
}


// ************************************************************************* //
