/*--------------------------------*- C++ -*----------------------------------*\
  =========                 |
  \\      /  F ield         | OpenFOAM: The Open Source CFD Toolbox
   \\    /   O peration     | Website:  https://openfoam.org
    \\  /    A nd           | Version:  7
     \\/     M anipulation  |
\*---------------------------------------------------------------------------*/
FoamFile
{
    version     2.0;
    format      ascii;
    class       volScalarField;
    location    "0.225";
    object      gradTy;
}
// * * * * * * * * * * * * * * * * * * * * * * * * * * * * * * * * * * * * * //

dimensions      [0 -1 0 1 0 0 0];

internalField   nonuniform List<scalar> 
1596
(
-0.562941
-1.04509
-1.43917
-1.81641
-2.17672
-2.56726
-2.96769
-3.43178
-3.98056
-4.62932
-5.52173
-6.65758
-8.23397
-10.483
-13.9832
-19.4453
-29.2055
-47.2104
-111.525
-1.71406
-2.11183
-2.37992
-2.62547
-2.86127
-3.14023
-3.44599
-3.82834
-4.30762
-4.88793
-5.68951
-6.69913
-8.04877
-9.8437
-12.3806
-15.809
-20.9081
-28.4039
-49.678
-3.06578
-3.19653
-3.27033
-3.35788
-3.45784
-3.61583
-3.81331
-4.09393
-4.47289
-4.94658
-5.61396
-6.44919
-7.54348
-8.945
-10.8336
-13.2311
-16.5611
-21.1275
-30.9246
-4.48054
-4.25162
-4.09527
-4.01028
-3.96845
-4.00002
-4.08203
-4.25003
-4.51383
-4.86484
-5.38394
-6.03869
-6.89349
-7.96741
-9.37439
-11.087
-13.3541
-16.2993
-21.3427
-5.78296
-5.21737
-4.83828
-4.58415
-4.4035
-4.30957
-4.27575
-4.32884
-4.47435
-4.70108
-5.07488
-5.56217
-6.20958
-7.02198
-8.07508
-9.32555
-10.9296
-12.9297
-15.8459
-6.81534
-6.03604
-5.4838
-5.08345
-4.77719
-4.56576
-4.42189
-4.3644
-4.396
-4.50484
-4.7442
-5.08296
-5.55558
-6.16047
-6.94996
-7.87891
-9.05038
-10.4699
-12.3352
-7.49301
-6.66253
-6.01556
-5.50931
-5.10073
-4.78667
-4.54364
-4.38458
-4.31104
-4.31209
-4.43054
-4.63968
-4.96532
-5.40334
-5.99104
-6.68696
-7.56147
-8.60395
-9.89145
-7.81642
-7.06944
-6.41317
-5.85273
-5.37383
-4.97852
-4.65188
-4.40393
-4.23692
-4.14204
-4.15366
-4.25032
-4.45159
-4.75279
-5.1811
-5.70066
-6.36057
-7.14411
-8.08021
-7.8528
-7.28821
-6.69553
-6.13101
-5.61461
-5.16062
-4.76627
-4.44219
-4.19299
-4.01308
-3.93039
-3.92884
-4.02348
-4.21004
-4.50861
-4.88898
-5.38572
-5.98055
-6.68194
-7.6588
-7.29003
-6.8089
-6.28855
-5.77303
-5.29039
-4.85116
-4.46959
-4.15418
-3.90334
-3.74074
-3.65541
-3.65944
-3.74952
-3.94096
-4.2089
-4.57811
-5.03112
-5.56735
-7.41536
-7.18539
-6.81607
-6.36182
-5.8724
-5.38425
-4.91909
-4.49614
-4.12856
-3.81932
-3.58965
-3.4333
-3.36054
-3.36922
-3.4713
-3.64653
-3.91277
-4.25413
-4.66602
-7.1131
-7.02543
-6.76425
-6.38337
-5.93352
-5.45511
-4.97793
-4.52607
-4.11752
-3.75996
-3.47365
-3.25663
-3.11822
-3.05752
-3.08415
-3.18177
-3.36323
-3.61451
-3.92943
-6.73756
-6.77684
-6.62122
-6.31962
-5.92102
-5.46751
-4.99363
-4.52773
-4.09205
-3.69869
-3.36812
-3.10214
-2.90992
-2.79189
-2.7562
-2.78986
-2.90231
-3.08151
-3.32076
-6.40415
-6.51555
-6.4426
-6.2127
-5.86613
-5.44346
-4.9811
-4.51051
-4.05737
-3.63762
-3.27265
-2.96743
-2.73149
-2.56649
-2.47967
-2.46075
-2.5168
-2.63754
-2.81639
-6.09553
-6.26387
-6.25406
-6.08395
-5.7848
-5.39357
-4.94648
-4.47686
-4.01301
-3.57403
-3.18254
-2.84621
-2.57512
-2.37209
-2.24377
-2.18206
-2.19236
-2.2659
-2.39658
-5.79264
-6.01576
-6.05916
-5.93922
-5.68169
-5.32019
-4.88974
-4.42468
-3.95515
-3.50282
-3.09156
-2.73129
-2.43273
-2.19968
-2.03845
-1.94263
-1.91644
-1.95243
-2.045
-5.518
-5.77895
-5.86547
-5.78705
-5.56469
-5.22935
-4.8147
-4.35561
-3.88354
-3.42218
-2.99657
-2.61841
-2.29904
-2.04303
-1.85641
-1.73407
-1.67938
-1.68593
-1.74865
-5.27715
-5.56464
-5.68505
-5.64021
-5.44654
-5.13255
-4.73099
-4.27707
-3.80339
-3.33533
-2.89892
-2.50732
-2.17233
-1.89904
-1.69317
-1.55057
-1.47392
-1.45765
-1.49713
-5.0346
-5.37012
-5.52663
-5.51221
-5.34276
-5.04563
-4.65351
-4.20222
-3.72569
-3.25095
-2.80496
-2.40217
-2.0547
-1.7679
-1.54706
-1.38869
-1.29486
-1.26073
-1.28204
-4.78345
-5.17436
-5.37235
-5.38929
-5.2427
-4.96038
-4.5758
-4.12593
-3.64622
-3.16544
-2.71146
-2.2999
-1.94302
-1.64623
-1.41421
-1.24373
-1.13647
-1.08835
-1.09561
-4.5678
-4.9969
-5.23378
-5.28131
-5.15591
-4.88603
-4.50651
-4.05601
-3.57179
-3.0845
-2.623
-2.20396
-1.83969
-1.53539
-1.29482
-1.11457
-0.995848
-0.935594
-0.931305
-4.37589
-4.84099
-5.11402
-5.19091
-5.08556
-4.8265
-4.45021
-3.99735
-3.50732
-3.01282
-2.54375
-2.11784
-1.74744
-1.43734
-1.1901
-1.00134
-0.871191
-0.797671
-0.781525
-4.19802
-4.70345
-5.01268
-5.11824
-5.03211
-4.78286
-4.40868
-3.95243
-3.45584
-2.95371
-2.47706
-2.04466
-1.66893
-1.35436
-1.10213
-0.905954
-0.763222
-0.670713
-0.63499
-4.03895
-4.58481
-4.92783
-5.05765
-4.98573
-4.74076
-4.36387
-3.89997
-3.3936
-2.88211
-2.39637
-1.9574
-1.57726
-1.26035
-1.00619
-0.806846
-0.653921
-0.536253
-0.445366
-3.90964
-4.49299
-4.87609
-5.0443
-5.0083
-4.7942
-4.44326
-3.99882
-3.50543
-3.00152
-2.51612
-2.07293
-1.68394
-1.3561
-1.08979
-0.879521
-0.713992
-0.578641
-0.4523
-3.8195
-4.4253
-4.83193
-5.0272
-5.02073
-4.83622
-4.51294
-4.09193
-3.61602
-3.12325
-2.64068
-2.1932
-1.79342
-1.45049
-1.16715
-0.942454
-0.767407
-0.632243
-0.522292
-3.81619
-4.42544
-4.84056
-5.0508
-5.06468
-4.90482
-4.60761
-4.21197
-3.75818
-3.28222
-2.80953
-2.36351
-1.95662
-1.59934
-1.29744
-1.0539
-0.863304
-0.718338
-0.605951
-3.90974
-4.50244
-4.90682
-5.11453
-5.13422
-4.98809
-4.71015
-4.33704
-3.90611
-3.45064
-2.99348
-2.55537
-2.14689
-1.77827
-1.45749
-1.19202
-0.981032
-0.820504
-0.698416
-4.08958
-4.65423
-5.0319
-5.22194
-5.23478
-5.09274
-4.82783
-4.4743
-4.06643
-3.63456
-3.19839
-2.77532
-2.37238
-1.99734
-1.65842
-1.3674
-1.12962
-0.946614
-0.808167
-4.35016
-4.86717
-5.20331
-5.3637
-5.36017
-5.21508
-4.95876
-4.6229
-4.23872
-3.83375
-3.42451
-3.02521
-2.63821
-2.26631
-1.9142
-1.59587
-1.3235
-1.10833
-0.945076
-4.68693
-5.13787
-5.42325
-5.54634
-5.52001
-5.36669
-5.11532
-4.79497
-4.43398
-4.0575
-3.67946
-3.31207
-2.95335
-2.59957
-2.24689
-1.90549
-1.59065
-1.32775
-1.12476
-5.05018
-5.44424
-5.67754
-5.75963
-5.70698
-5.54254
-5.29404
-4.98781
-4.6494
-4.30205
-3.958
-3.62955
-3.31292
-2.99938
-2.67319
-2.33185
-1.97936
-1.64916
-1.37646
-5.46365
-5.79373
-5.96853
-6.00454
-5.92175
-5.74332
-5.49538
-5.20123
-4.88346
-4.56351
-4.25236
-3.96449
-3.69841
-3.44681
-3.18657
-2.90098
-2.56255
-2.17946
-1.76576
-5.94566
-6.19901
-6.30882
-6.29598
-6.18274
-5.99175
-5.7465
-5.46705
-5.17263
-4.88234
-4.60659
-4.36157
-4.15159
-3.97908
-3.8295
-3.69118
-3.52108
-3.29571
-2.98671
-6.47996
-6.64514
-6.67403
-6.59644
-6.43661
-6.21644
-5.95572
-5.67144
-5.3792
-5.09371
-4.82461
-4.58469
-4.38066
-4.22044
-4.10532
-4.04322
-4.02137
-4.0286
-4.04072
-7.08251
-7.12845
-7.05872
-6.90543
-6.69083
-6.43445
-6.15196
-5.85781
-5.56466
-5.28337
-5.02351
-4.79335
-4.59857
-4.44382
-4.33227
-4.26794
-4.25332
-4.29283
-4.39129
-7.74642
-7.64691
-7.47325
-7.24593
-6.98024
-6.69085
-6.38953
-6.08791
-5.79615
-5.52268
-5.27576
-5.06091
-4.88177
-4.73973
-4.63445
-4.56192
-4.51752
-4.49379
-4.48345
-8.35426
-8.11766
-7.84705
-7.5503
-7.236
-6.91381
-6.5922
-6.27974
-5.98427
-5.71209
-5.46936
-5.25994
-5.08561
-4.94631
-4.84053
-4.76417
-4.71273
-4.68055
-4.66198
-8.84769
-8.51228
-8.1664
-7.81398
-7.46011
-7.11102
-6.77263
-6.45102
-6.15212
-5.88055
-5.6409
-5.43595
-5.26644
-5.13167
-5.02976
-4.95675
-4.90818
-4.87883
-4.8632
-9.24131
-8.82814
-8.42305
-8.02686
-7.64191
-7.2717
-6.92005
-6.5911
-6.28928
-6.01795
-5.7806
-5.57929
-5.41407
-5.28384
-5.18646
-5.118
-5.0739
-5.0491
-5.03815
-9.52732
-9.05566
-8.60597
-8.17759
-7.77031
-7.38521
-7.02434
-6.69035
-6.3866
-6.11559
-5.88006
-5.68163
-5.51989
-5.39349
-5.30005
-5.23553
-5.19515
-5.17376
-5.16578
-9.71214
-9.18516
-8.7036
-8.25556
-7.83582
-7.44286
-7.07734
-6.74094
-6.4364
-6.16577
-5.93143
-5.73476
-5.57519
-5.45125
-5.36054
-5.2991
-5.26212
-5.2445
-5.24061
-9.71219
-9.18525
-8.70371
-8.25568
-7.83595
-7.44299
-7.07747
-6.74107
-6.43654
-6.16592
-5.93157
-5.73492
-5.57535
-5.45142
-5.36072
-5.29928
-5.26231
-5.2447
-5.24082
-9.52739
-9.05584
-8.60621
-8.17787
-7.77063
-7.38554
-7.0247
-6.69072
-6.38698
-6.11599
-5.88047
-5.68206
-5.52035
-5.39398
-5.30057
-5.23609
-5.19576
-5.17443
-5.16651
-9.24142
-8.82842
-8.42343
-8.02731
-7.64241
-7.27224
-6.92062
-6.59169
-6.2899
-6.0186
-5.78127
-5.58
-5.41481
-5.28463
-5.1873
-5.11889
-5.07486
-5.05013
-5.03925
-8.84784
-8.51263
-8.16689
-7.81456
-7.46075
-7.11171
-6.77336
-6.45179
-6.15292
-5.88138
-5.64176
-5.43686
-5.26739
-5.13266
-5.03079
-4.95783
-4.90932
-4.88002
-4.86445
-8.35443
-8.11806
-7.8476
-7.55097
-7.23675
-6.91462
-6.59306
-6.28065
-5.98522
-5.71309
-5.4704
-5.26102
-5.08674
-4.94747
-4.84173
-4.76541
-4.71401
-4.68188
-4.66336
-7.74661
-7.64734
-7.47385
-7.24666
-6.98106
-6.69174
-6.39049
-6.08892
-5.79722
-5.5238
-5.27692
-5.06212
-4.88301
-4.74099
-4.63571
-4.56317
-4.51873
-4.49495
-4.48455
-7.08272
-7.12894
-7.05946
-6.90638
-6.69196
-6.43575
-6.15341
-5.85941
-5.56641
-5.28527
-5.02557
-4.79559
-4.60099
-4.44642
-4.33504
-4.27075
-4.25596
-4.2949
-4.39221
-6.48009
-6.64523
-6.67414
-6.59661
-6.43683
-6.2167
-5.95601
-5.67175
-5.37948
-5.09393
-4.82472
-4.58462
-4.38032
-4.21974
-4.10424
-4.04186
-4.0202
-4.02855
-4.04326
-5.94572
-6.19928
-6.30932
-6.29676
-6.18381
-5.99312
-5.74817
-5.469
-5.17485
-4.8848
-4.60928
-4.36449
-4.1548
-3.98271
-3.83386
-3.69669
-3.52832
-3.30518
-2.99869
-5.46367
-5.79378
-5.96869
-6.00488
-5.92229
-5.74408
-5.49636
-5.20242
-4.88483
-4.56505
-4.25406
-3.96637
-3.70053
-3.44929
-3.18955
-2.90455
-2.56655
-2.1834
-1.76873
-5.05018
-5.44425
-5.67764
-5.75991
-5.70747
-5.54327
-5.295
-4.989
-4.65079
-4.30363
-3.95975
-3.63149
-3.3151
-3.00185
-2.67593
-2.33474
-1.98215
-1.65155
-1.37834
-4.68692
-5.13783
-5.42329
-5.54653
-5.52041
-5.36732
-5.1162
-4.79608
-4.43529
-4.05899
-3.68112
-3.31391
-2.95537
-2.60174
-2.24913
-1.90766
-1.59258
-1.32937
-1.12608
-4.35014
-4.86711
-5.2033
-5.36383
-5.3605
-5.21564
-4.95956
-4.62391
-4.23994
-3.83514
-3.42605
-3.02689
-2.63999
-2.26813
-1.91598
-1.59751
-1.32492
-1.10952
-0.946083
-4.08954
-4.65414
-5.03185
-5.22201
-5.23504
-5.09321
-4.82854
-4.47522
-4.06755
-3.63583
-3.19979
-2.77681
-2.37391
-1.99886
-1.65984
-1.36867
-1.13071
-0.947544
-0.808983
-3.90971
-4.50234
-4.90675
-5.11457
-5.13442
-4.9885
-4.71078
-4.33787
-3.90711
-3.45178
-2.99472
-2.55666
-2.14818
-1.77951
-1.45864
-1.19303
-0.981903
-0.821265
-0.699115
-3.81616
-4.42534
-4.84048
-5.05081
-5.06485
-4.90517
-4.60815
-4.2127
-3.75906
-3.28322
-2.81061
-2.36462
-1.95771
-1.60036
-1.29836
-1.05472
-0.864021
-0.71899
-0.606596
-3.81945
-4.42519
-4.83181
-5.02714
-5.02078
-4.83642
-4.51329
-4.09241
-3.61662
-3.12394
-2.64142
-2.19395
-1.79415
-1.45116
-1.16774
-0.942969
-0.767866
-0.632704
-0.522869
-3.90972
-4.49304
-4.87615
-5.0444
-5.00846
-4.79444
-4.44358
-3.99923
-3.50591
-3.00207
-2.51672
-2.07356
-1.68457
-1.35673
-1.09039
-0.880087
-0.714515
-0.579108
-0.452669
-4.03903
-4.58489
-4.92788
-5.05765
-4.98567
-4.74063
-4.36367
-3.89972
-3.39332
-2.88181
-2.39607
-1.95711
-1.577
-1.2601
-1.00597
-0.806641
-0.653719
-0.536039
-0.445104
-4.19807
-4.7035
-5.01272
-5.11827
-5.03213
-4.78287
-4.40867
-3.95241
-3.45583
-2.9537
-2.47705
-2.04466
-1.66894
-1.35438
-1.10215
-0.905979
-0.763253
-0.670751
-0.635025
-4.37594
-4.84102
-5.11404
-5.19092
-5.08555
-4.82648
-4.45018
-3.99731
-3.50728
-3.01278
-2.54372
-2.11783
-1.74743
-1.43734
-1.19011
-1.00135
-0.871213
-0.797696
-0.781549
-4.56783
-4.99693
-5.23379
-5.28131
-5.1559
-4.88601
-4.50648
-4.05598
-3.57176
-3.08448
-2.62299
-2.20395
-1.83969
-1.53539
-1.29483
-1.11459
-0.995865
-0.935612
-0.931322
-4.78348
-5.17437
-5.37236
-5.38929
-5.24269
-4.96036
-4.57577
-4.12591
-3.6462
-3.16542
-2.71145
-2.29989
-1.94302
-1.64624
-1.41421
-1.24374
-1.13648
-1.08836
-1.09562
-5.03462
-5.37013
-5.52664
-5.5122
-5.34275
-5.04562
-4.65349
-4.20221
-3.72568
-3.25094
-2.80495
-2.40217
-2.0547
-1.7679
-1.54707
-1.3887
-1.29487
-1.26074
-1.28204
-5.27717
-5.56464
-5.68505
-5.64021
-5.44653
-5.13254
-4.73097
-4.27706
-3.80338
-3.33533
-2.89891
-2.50731
-2.17233
-1.89904
-1.69317
-1.55058
-1.47392
-1.45766
-1.49713
-5.51801
-5.77895
-5.86547
-5.78704
-5.56468
-5.22934
-4.81469
-4.3556
-3.88354
-3.42217
-2.99657
-2.6184
-2.29904
-2.04303
-1.85641
-1.73408
-1.67938
-1.68593
-1.74865
-5.79264
-6.01576
-6.05915
-5.93921
-5.68168
-5.32018
-4.88974
-4.42468
-3.95515
-3.50282
-3.09156
-2.73129
-2.43273
-2.19968
-2.03845
-1.94263
-1.91644
-1.95242
-2.045
-6.09552
-6.26386
-6.25405
-6.08395
-5.78479
-5.39357
-4.94648
-4.47686
-4.01301
-3.57403
-3.18254
-2.84621
-2.57512
-2.37209
-2.24377
-2.18206
-2.19235
-2.26589
-2.39657
-6.40414
-6.51554
-6.4426
-6.2127
-5.86613
-5.44346
-4.9811
-4.51051
-4.05737
-3.63762
-3.27265
-2.96743
-2.73148
-2.56648
-2.47967
-2.46074
-2.51679
-2.63752
-2.81638
-6.73755
-6.77683
-6.62121
-6.31962
-5.92103
-5.46751
-4.99363
-4.52773
-4.09205
-3.69869
-3.36812
-3.10214
-2.90992
-2.79188
-2.75619
-2.78985
-2.9023
-3.08149
-3.32075
-7.11308
-7.02541
-6.76425
-6.38337
-5.93352
-5.45512
-4.97793
-4.52607
-4.11752
-3.75996
-3.47365
-3.25663
-3.11821
-3.05751
-3.08414
-3.18175
-3.36321
-3.61449
-3.92942
-7.41534
-7.18539
-6.81608
-6.36183
-5.87241
-5.38426
-4.9191
-4.49615
-4.12856
-3.81932
-3.58965
-3.4333
-3.36054
-3.36922
-3.47129
-3.64652
-3.91275
-4.2541
-4.66601
-7.65879
-7.29004
-6.80892
-6.28857
-5.77305
-5.2904
-4.85116
-4.4696
-4.15418
-3.90334
-3.74074
-3.65541
-3.65944
-3.74952
-3.94095
-4.20888
-4.57809
-5.03109
-5.56735
-7.8528
-7.28823
-6.69555
-6.13103
-5.61462
-5.16062
-4.76628
-4.44219
-4.193
-4.01308
-3.93039
-3.92883
-4.02347
-4.21003
-4.5086
-4.88896
-5.3857
-5.98053
-6.68194
-7.81644
-7.06946
-6.41319
-5.85275
-5.37384
-4.97853
-4.65188
-4.40393
-4.23692
-4.14205
-4.15366
-4.25032
-4.45158
-4.75278
-5.18109
-5.70064
-6.36056
-7.1441
-8.08022
-7.49303
-6.66255
-6.01558
-5.50933
-5.10074
-4.78668
-4.54365
-4.38458
-4.31105
-4.31209
-4.43054
-4.63967
-4.96531
-5.40333
-5.99102
-6.68694
-7.56146
-8.60395
-9.89147
-6.81537
-6.03606
-5.48382
-5.08346
-4.77721
-4.56577
-4.4219
-4.36441
-4.396
-4.50484
-4.7442
-5.08296
-5.55557
-6.16045
-6.94995
-7.8789
-9.05038
-10.4699
-12.3353
-5.78299
-5.21739
-4.8383
-4.58416
-4.40351
-4.30958
-4.27576
-4.32885
-4.47435
-4.70108
-5.07487
-5.56216
-6.20957
-7.02197
-8.07507
-9.32555
-10.9296
-12.9297
-15.8459
-4.48057
-4.25164
-4.09528
-4.01029
-3.96846
-4.00003
-4.08204
-4.25004
-4.51384
-4.86484
-5.38394
-6.03868
-6.89348
-7.9674
-9.37438
-11.087
-13.3541
-16.2993
-21.3427
-3.0658
-3.19654
-3.27034
-3.35789
-3.45785
-3.61584
-3.81332
-4.09394
-4.47289
-4.94658
-5.61396
-6.44918
-7.54347
-8.94499
-10.8336
-13.2311
-16.5611
-21.1276
-30.9246
-1.71407
-2.11184
-2.37992
-2.62547
-2.86128
-3.14023
-3.446
-3.82834
-4.30762
-4.88793
-5.68951
-6.69912
-8.04876
-9.84369
-12.3806
-15.809
-20.9081
-28.4039
-49.678
-0.562945
-1.04509
-1.43917
-1.81641
-2.17672
-2.56726
-2.96769
-3.43179
-3.98056
-4.62932
-5.52173
-6.65758
-8.23396
-10.483
-13.9832
-19.4453
-29.2055
-47.2104
-111.525
)
;

boundaryField
{
    up
    {
        type            calculated;
        value           nonuniform List<scalar> 
84
(
-101.064
-54.736
-33.5892
-22.9026
-16.8514
-13.0337
-10.4032
-8.46878
-6.98248
-5.80328
-4.85136
-4.07444
-3.43408
-2.90415
-2.46383
-2.096
-1.78683
-1.52525
-1.30226
-1.10984
-0.940911
-0.786649
-0.628464
-0.399474
-0.386433
-0.490466
-0.573883
-0.662997
-0.767317
-0.896183
-1.0619
-1.28029
-1.61625
-2.95692
-4.15402
-4.4623
-4.4763
-4.65376
-4.85718
-5.03489
-5.16428
-5.24149
-5.2417
-5.16504
-5.03602
-4.85847
-4.65517
-4.47739
-4.46225
-4.15678
-2.97089
-1.61903
-1.28194
-1.06313
-0.897146
-0.768109
-0.663686
-0.574531
-0.49123
-0.386907
-0.399188
-0.628494
-0.786671
-0.940926
-1.10985
-1.30227
-1.52525
-1.78683
-2.096
-2.46382
-2.90414
-3.43407
-4.07443
-4.85136
-5.80329
-6.9825
-8.4688
-10.4032
-13.0338
-16.8514
-22.9026
-33.5892
-54.736
-101.064
)
;
    }
    low
    {
        type            calculated;
        value           nonuniform List<scalar> 
84
(
-0.604086
-1.79103
-3.23311
-4.76265
-6.17369
-7.27915
-7.97444
-8.26648
-8.21451
-7.90614
-7.60234
-7.24142
-6.78573
-6.40807
-6.07386
-5.73594
-5.43071
-5.18067
-4.91926
-4.62553
-4.377
-4.15963
-3.95084
-3.76286
-3.5829
-3.47082
-3.4719
-3.60124
-3.82744
-4.14658
-4.53536
-4.93332
-5.38713
-5.91629
-6.48977
-7.14461
-7.88131
-8.5358
-9.05744
-9.47494
-9.7802
-9.99166
-9.9917
-9.78023
-9.47499
-9.05751
-8.53588
-7.88142
-7.14474
-6.48973
-5.91636
-5.38708
-4.9333
-4.53534
-4.14656
-3.82742
-3.60124
-3.47191
-3.47084
-3.58295
-3.76298
-3.95086
-4.15967
-4.37703
-4.62555
-4.91928
-5.18068
-5.43072
-5.73594
-6.07385
-6.40806
-6.78571
-7.24138
-7.6023
-7.90611
-8.2145
-8.26649
-7.97447
-7.27919
-6.17374
-4.76269
-3.23314
-1.79104
-0.604091
)
;
    }
    left
    {
        type            calculated;
        value           nonuniform List<scalar> 
19
(
-0.552181
-1.02544
-1.42712
-1.81669
-2.19185
-2.59815
-3.01614
-3.50237
-4.07862
-4.7685
-5.72253
-6.94713
-8.66618
-11.1576
-15.0703
-21.2757
-32.4935
-53.4319
-104.823
)
;
    }
    right
    {
        type            calculated;
        value           nonuniform List<scalar> 
19
(
-0.552184
-1.02544
-1.42712
-1.81669
-2.19186
-2.59815
-3.01614
-3.50237
-4.07862
-4.7685
-5.72252
-6.94712
-8.66616
-11.1576
-15.0703
-21.2757
-32.4935
-53.4319
-104.823
)
;
    }
    frontAndBackPlanes
    {
        type            empty;
    }
}


// ************************************************************************* //
