/*--------------------------------*- C++ -*----------------------------------*\
  =========                 |
  \\      /  F ield         | OpenFOAM: The Open Source CFD Toolbox
   \\    /   O peration     | Website:  https://openfoam.org
    \\  /    A nd           | Version:  7
     \\/     M anipulation  |
\*---------------------------------------------------------------------------*/
FoamFile
{
    version     2.0;
    format      ascii;
    class       volScalarField;
    location    "0.09";
    object      gradTx;
}
// * * * * * * * * * * * * * * * * * * * * * * * * * * * * * * * * * * * * * //

dimensions      [0 -1 0 1 0 0 0];

internalField   nonuniform List<scalar> 
1596
(
-0.262157
-1.31336
-2.32488
-3.18589
-3.87548
-4.38602
-4.75094
-4.99507
-5.15082
-5.26827
-5.36379
-5.49203
-5.71197
-6.10261
-6.75182
-7.85234
-9.68114
-12.8182
-18.4549
0.0701264
-1.05858
-2.04417
-2.85714
-3.50543
-3.9895
-4.33981
-4.57267
-4.71546
-4.79911
-4.83343
-4.85132
-4.86897
-4.90925
-4.97856
-5.08035
-5.15208
-5.04907
-4.44433
0.348013
-0.793463
-1.71776
-2.45885
-3.04537
-3.48668
-3.80897
-4.02495
-4.15556
-4.22098
-4.22695
-4.1929
-4.12041
-4.01411
-3.86849
-3.67261
-3.37857
-2.89496
-2.02376
0.409159
-0.603235
-1.40266
-2.03889
-2.54295
-2.92728
-3.21171
-3.40643
-3.52643
-3.58459
-3.58508
-3.53848
-3.44141
-3.29096
-3.07889
-2.79275
-2.40257
-1.85878
-1.05139
0.189881
-0.549013
-1.15842
-1.65658
-2.05887
-2.37319
-2.61096
-2.77913
-2.8873
-2.94273
-2.94903
-2.91083
-2.82343
-2.6807
-2.47401
-2.19069
-1.81183
-1.31114
-0.630556
-0.272037
-0.657502
-1.03246
-1.36659
-1.65083
-1.88301
-2.06507
-2.19961
-2.29109
-2.34217
-2.35578
-2.33251
-2.26755
-2.15347
-1.98186
-1.73953
-1.4128
-0.98583
-0.427594
-0.871121
-0.914541
-1.04535
-1.20301
-1.35838
-1.49823
-1.6157
-1.70832
-1.77577
-1.81674
-1.83286
-1.82193
-1.77929
-1.69721
-1.56766
-1.37717
-1.1141
-0.766142
-0.314629
-1.48029
-1.25813
-1.17246
-1.16118
-1.18751
-1.2309
-1.27827
-1.32246
-1.35896
-1.38319
-1.39481
-1.38974
-1.36327
-1.30793
-1.21623
-1.07506
-0.873584
-0.600211
-0.241064
-2.09736
-1.71025
-1.44873
-1.27904
-1.17312
-1.11066
-1.07668
-1.06084
-1.0554
-1.05293
-1.05047
-1.04226
-1.02307
-0.985584
-0.922807
-0.82253
-0.674385
-0.46672
-0.186926
-2.46208
-2.03449
-1.68177
-1.40759
-1.20292
-1.05488
-0.951264
-0.881316
-0.835919
-0.806043
-0.786581
-0.770661
-0.752474
-0.725058
-0.681964
-0.61246
-0.507067
-0.354629
-0.14319
-2.7654
-2.3333
-1.93347
-1.58718
-1.303
-1.07906
-0.909358
-0.785279
-0.697913
-0.637556
-0.597268
-0.569178
-0.546665
-0.522821
-0.491539
-0.443576
-0.370507
-0.262136
-0.107277
-3.08656
-2.66841
-2.24227
-1.84099
-1.48692
-1.19013
-0.952806
-0.77075
-0.636732
-0.541121
-0.475505
-0.430854
-0.399365
-0.373696
-0.347666
-0.313196
-0.262896
-0.187844
-0.0779894
-3.20105
-2.84113
-2.432
-2.01733
-1.62959
-1.28889
-1.0054
-0.780415
-0.609744
-0.485045
-0.397579
-0.337753
-0.296954
-0.267456
-0.242954
-0.216325
-0.181199
-0.130149
-0.0547095
-3.26518
-2.96251
-2.58334
-2.17167
-1.76598
-1.39468
-1.07518
-0.814559
-0.612182
-0.46153
-0.354117
-0.280008
-0.229884
-0.19553
-0.170342
-0.147772
-0.122227
-0.0876155
-0.0371084
-3.31391
-3.05993
-2.71213
-2.31052
-1.89575
-1.50236
-1.15399
-0.863317
-0.633407
-0.459768
-0.334506
-0.24745
-0.188644
-0.149291
-0.122354
-0.101515
-0.0816722
-0.0577779
-0.0244424
-3.29683
-3.09525
-2.784
-2.40154
-1.98906
-1.58526
-1.2187
-0.907008
-0.656786
-0.465669
-0.326636
-0.229498
-0.163859
-0.120425
-0.0917447
-0.0715455
-0.0550135
-0.0378451
-0.0157924
-3.20362
-3.05447
-2.78466
-2.42979
-2.03061
-1.62835
-1.25519
-0.932785
-0.670878
-0.469117
-0.321499
-0.218033
-0.148124
-0.102165
-0.0724196
-0.0526095
-0.038099
-0.0250937
-0.0101759
-3.07822
-2.96522
-2.73344
-2.40863
-2.02866
-1.63562
-1.26419
-0.939097
-0.672639
-0.466188
-0.314677
-0.208396
-0.136706
-0.0898442
-0.0599158
-0.0406563
-0.0275623
-0.0171856
-0.00667892
-2.97871
-2.89453
-2.69053
-2.38778
-2.02181
-1.63528
-1.26501
-0.938137
-0.668949
-0.460003
-0.306758
-0.199552
-0.12758
-0.0808863
-0.0514271
-0.0329284
-0.0209731
-0.0123414
-0.00455968
-2.74308
-2.70325
-2.53971
-2.27306
-1.93668
-1.57254
-1.21835
-0.902786
-0.64166
-0.438659
-0.289937
-0.18623
-0.116959
-0.0723416
-0.0444807
-0.0272881
-0.0165402
-0.00925572
-0.00325943
-2.45604
-2.45352
-2.33027
-2.10291
-1.80217
-1.46832
-1.13886
-0.842928
-0.597148
-0.406009
-0.266283
-0.169269
-0.104854
-0.0636857
-0.0382353
-0.0227569
-0.0133099
-0.00717258
-0.00243089
-2.13366
-2.15608
-2.06873
-1.88166
-1.62142
-1.32518
-1.02879
-0.760563
-0.537137
-0.363417
-0.23675
-0.149205
-0.0914285
-0.0547829
-0.0323422
-0.018869
-0.0108002
-0.00570172
-0.00189013
-1.75031
-1.78569
-1.73095
-1.58831
-1.37793
-1.13137
-0.880631
-0.651508
-0.459696
-0.310274
-0.201362
-0.12627
-0.0768847
-0.0457134
-0.0267524
-0.0154873
-0.00885463
-0.00475418
-0.00167331
-1.29294
-1.27757
-1.20115
-1.07104
-0.905327
-0.726327
-0.554051
-0.402676
-0.27965
-0.186035
-0.119073
-0.0736781
-0.0442742
-0.025986
-0.0150356
-0.00867231
-0.00505402
-0.00289707
-0.00118598
-0.865664
-0.946665
-0.989311
-0.97364
-0.898884
-0.779151
-0.636097
-0.490978
-0.360122
-0.252221
-0.169658
-0.110395
-0.0698603
-0.0432994
-0.0265416
-0.0163566
-0.010398
-0.00705414
-0.00507907
-0.288194
-0.316026
-0.343022
-0.357725
-0.353647
-0.329798
-0.290103
-0.241052
-0.190059
-0.142884
-0.103006
-0.0718812
-0.0488169
-0.0324913
-0.0213441
-0.01406
-0.00952754
-0.0069801
-0.00575206
0.29336
0.265966
0.212388
0.143625
0.0729767
0.012031
-0.0321005
-0.0575241
-0.066911
-0.0650377
-0.0568095
-0.0464595
-0.0362421
-0.0273417
-0.0200837
-0.0145713
-0.0106558
-0.00823142
-0.00698091
0.865556
0.82881
0.744842
0.62554
0.488619
0.352803
0.233277
0.138676
0.070852
0.0267353
0.00102288
-0.0123239
-0.0178491
-0.0188418
-0.0172908
-0.0146789
-0.0119153
-0.00977339
-0.00846959
1.36662
1.30805
1.19134
1.02957
0.842003
0.650286
0.473606
0.324545
0.208311
0.123754
0.066157
0.0288592
0.00606247
-0.00684318
-0.0129019
-0.0145921
-0.0136999
-0.0120275
-0.0105916
1.86145
1.76914
1.61295
1.40703
1.17203
0.931197
0.705598
0.509759
0.3509
0.229285
0.140958
0.079131
0.0373075
0.0100527
-0.00620013
-0.0144013
-0.0167125
-0.0159058
-0.0141493
2.20371
2.07559
1.88794
1.65425
1.39424
1.12943
0.879519
0.658445
0.473988
0.327448
0.216061
0.133743
0.0741699
0.0317815
0.00316327
-0.0143478
-0.0221872
-0.0233019
-0.020913
2.49641
2.33859
2.1212
1.86243
1.58217
1.29999
1.03349
0.795109
0.592267
0.426654
0.296412
0.19615
0.119808
0.0616628
0.0183766
-0.0123636
-0.0302166
-0.0366409
-0.0347352
2.73949
2.54281
2.29567
2.01662
1.72369
1.43329
1.15991
0.913684
0.701012
0.523506
0.380032
0.266014
0.175817
0.103489
0.045302
-0.00171036
-0.0356314
-0.0548603
-0.0574027
2.85697
2.60543
2.31912
2.0153
1.70921
1.41366
1.13965
0.894549
0.682982
0.505736
0.361377
0.245639
0.152984
0.0769963
0.0126922
-0.0449193
-0.095489
-0.136858
-0.16254
2.89094
2.62179
2.33955
2.05565
1.7778
1.51218
1.2645
1.03889
0.838514
0.664527
0.516841
0.393631
0.291684
0.206896
0.134994
0.0702464
0.00852196
-0.0539026
-0.117754
2.89097
2.61682
2.3465
2.0816
1.82417
1.5774
1.34509
1.1306
0.936898
0.765445
0.616747
0.490146
0.383458
0.294127
0.219479
0.156281
0.101638
0.0525505
0.00561674
2.66563
2.355
2.0682
1.80048
1.55089
1.32036
1.11037
0.921993
0.75599
0.611905
0.488728
0.384793
0.297402
0.223918
0.161974
0.109282
0.0641807
0.0258129
-0.0066818
2.28845
2.01459
1.76492
1.5347
1.32238
1.12791
0.951726
0.794086
0.655141
0.534187
0.430249
0.341902
0.266944
0.203261
0.148969
0.102195
0.0615056
0.0261151
-0.00476275
1.86623
1.64227
1.43667
1.24763
1.07433
0.916585
0.774379
0.647556
0.535933
0.438704
0.354961
0.283475
0.222456
0.170214
0.125284
0.0861978
0.0518648
0.0217387
-0.004752
1.38519
1.21543
1.06103
0.920391
0.792449
0.676646
0.572638
0.480057
0.398595
0.327535
0.266166
0.213563
0.168423
0.129534
0.0958726
0.0664072
0.040398
0.0175118
-0.00262694
0.863802
0.750936
0.652084
0.563987
0.484871
0.41382
0.350307
0.293926
0.244376
0.201145
0.163762
0.13164
0.103972
0.080022
0.0591777
0.0408212
0.0245233
0.0101133
-0.00260769
0.329245
0.282542
0.243474
0.209338
0.178977
0.151887
0.127815
0.106581
0.0880477
0.0719971
0.058223
0.0464734
0.0364218
0.0277664
0.0202542
0.0136345
0.007729
0.00245839
-0.00225605
-0.329088
-0.282179
-0.242967
-0.208739
-0.178327
-0.151219
-0.127157
-0.105954
-0.0874649
-0.0714684
-0.0577535
-0.0460653
-0.0360754
-0.0274812
-0.0200288
-0.0134679
-0.00762032
-0.00240615
0.00225351
-0.863651
-0.750607
-0.65163
-0.563454
-0.484295
-0.413231
-0.349731
-0.29338
-0.243872
-0.200691
-0.163363
-0.131297
-0.103686
-0.0797908
-0.0590012
-0.0406984
-0.0244535
-0.0100953
0.00257582
-1.38503
-1.2151
-1.06058
-0.919857
-0.79187
-0.676053
-0.572057
-0.479507
-0.398088
-0.327078
-0.265764
-0.213217
-0.168132
-0.129294
-0.0956814
-0.0662618
-0.0402956
-0.0174491
0.00265289
-1.86611
-1.64202
-1.43633
-1.24723
-1.0739
-0.916152
-0.773962
-0.647168
-0.535584
-0.438399
-0.3547
-0.283259
-0.222282
-0.170079
-0.125185
-0.0861321
-0.0518297
-0.0217315
0.00473385
-2.28836
-2.0144
-1.76466
-1.53439
-1.32204
-1.12757
-0.951407
-0.793796
-0.654887
-0.533974
-0.430075
-0.341764
-0.26684
-0.203186
-0.148919
-0.102167
-0.0614952
-0.0261181
0.00475139
-2.66559
-2.3549
-2.06803
-1.80028
-1.55068
-1.32016
-1.11019
-0.921843
-0.755878
-0.611831
-0.488687
-0.38478
-0.297411
-0.223944
-0.162013
-0.109329
-0.0642286
-0.0258537
0.0066554
-2.89092
-2.6165
-2.34588
-2.08072
-1.82308
-1.57617
-1.34381
-1.12933
-0.935682
-0.764325
-0.615742
-0.489257
-0.382679
-0.293442
-0.218868
-0.155734
-0.10116
-0.0521812
-0.00543845
-2.89138
-2.623
-2.34154
-2.05832
-1.78101
-1.51577
-1.26829
-1.04271
-0.842224
-0.668021
-0.520053
-0.396537
-0.294292
-0.209247
-0.137151
-0.0722923
-0.0105228
0.0519304
0.1159
-2.85672
-2.60481
-2.31817
-2.0141
-1.70786
-1.41224
-1.13824
-0.893192
-0.68171
-0.504563
-0.360306
-0.244666
-0.152104
-0.0761973
-0.011955
0.04563
0.0962509
0.137812
0.163879
-2.73963
-2.54316
-2.29623
-2.01736
-1.72457
-1.43426
-1.16092
-0.914669
-0.701929
-0.524323
-0.380733
-0.266599
-0.176294
-0.103865
-0.0455775
0.001552
0.0356131
0.0549905
0.057645
-2.49649
-2.3388
-2.12156
-1.86294
-1.58279
-1.3007
-1.03423
-0.795827
-0.592927
-0.427229
-0.296891
-0.196534
-0.120105
-0.0618793
-0.0185096
0.0123262
0.0302797
0.0367751
0.0348797
-2.2038
-2.07582
-1.88833
-1.65479
-1.39489
-1.13016
-0.880257
-0.659144
-0.474607
-0.327967
-0.216478
-0.134065
-0.0744089
-0.0319472
-0.00325867
0.0143242
0.0222295
0.0233829
0.0209832
-1.86155
-1.76939
-1.61337
-1.40761
-1.17273
-0.931941
-0.70633
-0.510425
-0.351468
-0.229743
-0.141309
-0.0793921
-0.0374937
-0.0101758
0.00613288
0.0143846
0.0167359
0.0159497
0.0141845
-1.36671
-1.30831
-1.19177
-1.03015
-0.842677
-0.650987
-0.47427
-0.325126
-0.208786
-0.12412
-0.0664267
-0.0290507
-0.0061928
0.00676196
0.0128614
0.0145847
0.0137153
0.0120528
0.0106107
-0.865665
-0.829105
-0.745317
-0.626153
-0.489302
-0.353479
-0.233886
-0.139181
-0.0712419
-0.0270187
-0.00121947
0.012193
0.0177665
0.0187955
0.0172721
0.0146804
0.0119286
0.0097906
0.00848234
-0.293461
-0.266263
-0.212865
-0.14422
-0.0736096
-0.0126263
0.0315957
0.0571326
0.0666301
0.0648494
0.0566903
0.0463885
0.0362039
0.0273261
0.0200837
0.014581
0.0106698
0.00824581
0.00699216
0.287945
0.315293
0.341875
0.356331
0.352206
0.328478
0.289008
0.240217
0.189464
0.142486
0.102754
0.0717285
0.0487299
0.0324462
0.0213243
0.0140544
0.00952872
0.00698427
0.00575896
0.865814
0.947222
0.99028
0.974917
0.900308
0.780555
0.637354
0.492016
0.360923
0.252806
0.170066
0.11067
0.070042
0.0434188
0.0266208
0.0164105
0.0104361
0.00708266
0.00510083
1.29274
1.27692
1.20011
1.06977
0.903998
0.725086
0.552988
0.401829
0.279013
0.185579
0.118761
0.0734725
0.0441434
0.0259058
0.0149882
0.0086453
0.0050392
0.00288959
0.00118353
1.7504
1.78587
1.73119
1.58858
1.3782
1.1316
0.8808
0.651624
0.459768
0.310314
0.201382
0.126279
0.0768886
0.0457152
0.0267535
0.0154882
0.00885538
0.00475484
0.00167386
2.13367
2.15608
2.06873
1.88165
1.62141
1.32516
1.02876
0.760543
0.537121
0.363405
0.236743
0.149202
0.0914283
0.0547841
0.0323441
0.0188711
0.010802
0.00570309
0.00189074
2.45605
2.45353
2.33027
2.1029
1.80215
1.4683
1.13884
0.842912
0.597136
0.406002
0.26628
0.169268
0.104855
0.0636882
0.0382382
0.0227598
0.0133124
0.00717438
0.00243149
2.74308
2.70326
2.53972
2.27306
1.93667
1.57252
1.21833
0.902773
0.641649
0.438653
0.289934
0.18623
0.116961
0.0723448
0.0444844
0.027292
0.0165437
0.00925822
0.00326021
2.97872
2.89454
2.69054
2.38779
2.02181
1.63527
1.265
0.938127
0.668941
0.459998
0.306756
0.199553
0.127582
0.0808902
0.051432
0.0329338
0.0209782
0.012345
0.00456074
3.07823
2.96523
2.73345
2.40864
2.02866
1.63561
1.26419
0.939088
0.672631
0.466183
0.314675
0.208397
0.136709
0.0898495
0.0599227
0.0406639
0.0275694
0.0171904
0.0066802
3.20362
3.05448
2.78467
2.42979
2.03061
1.62835
1.25519
0.932778
0.670872
0.469113
0.321498
0.218035
0.148129
0.102173
0.0724292
0.0526198
0.0381082
0.0250994
0.0101772
3.29683
3.09526
2.78402
2.40155
1.98907
1.58526
1.2187
0.907004
0.656783
0.465667
0.326637
0.229502
0.163866
0.120435
0.0917571
0.0715581
0.0550238
0.0378507
0.0157932
3.3139
3.05993
2.71214
2.31053
1.89575
1.50236
1.15399
0.863315
0.633405
0.459768
0.334508
0.247456
0.188654
0.149304
0.122368
0.101528
0.0816811
0.0577813
0.024442
3.26519
2.96251
2.58336
2.17168
1.76599
1.39469
1.07518
0.814559
0.612183
0.461533
0.354122
0.280017
0.229896
0.195544
0.170355
0.147781
0.12223
0.0876139
0.0371061
3.20106
2.84114
2.43202
2.01734
1.6296
1.2889
1.0054
0.780419
0.609749
0.485051
0.397587
0.337764
0.296965
0.267467
0.242961
0.216325
0.181193
0.13014
0.0547053
3.08656
2.6684
2.24227
1.84099
1.48692
1.19013
0.952806
0.770751
0.636734
0.541126
0.475512
0.430861
0.399371
0.373697
0.347659
0.31318
0.262875
0.187826
0.0779843
2.76541
2.33332
1.93348
1.58719
1.303
1.07907
0.909364
0.785285
0.697919
0.637562
0.597273
0.569179
0.546659
0.522807
0.491514
0.443543
0.370473
0.262113
0.107273
2.46211
2.03451
1.68178
1.4076
1.20292
1.05488
0.951269
0.881321
0.835923
0.806044
0.786577
0.770649
0.752452
0.725023
0.68192
0.612412
0.507028
0.354609
0.143189
2.09738
1.71026
1.44874
1.27904
1.17313
1.11067
1.07669
1.06084
1.0554
1.05292
1.05046
1.04224
1.02303
0.985532
0.922751
0.822479
0.674351
0.466709
0.186931
1.4803
1.25813
1.17247
1.16118
1.18752
1.2309
1.27828
1.32246
1.35896
1.38317
1.39478
1.38969
1.36322
1.30787
1.21617
1.07502
0.873569
0.600216
0.241073
0.871135
0.914551
1.04536
1.20303
1.35839
1.49824
1.6157
1.70832
1.77575
1.81672
1.83282
1.82188
1.77924
1.69717
1.56763
1.37716
1.11412
0.766164
0.31464
0.272046
0.657516
1.03248
1.36661
1.65084
1.88301
2.06506
2.19959
2.29107
2.34214
2.35574
2.33246
2.26751
2.15345
1.98186
1.73955
1.41284
0.985862
0.427601
-0.189876
0.54903
1.15844
1.6566
2.05888
2.37319
2.61095
2.77911
2.88727
2.9427
2.949
2.9108
2.82342
2.6807
2.47404
2.19074
1.81188
1.31117
0.630556
-0.409157
0.60325
1.40268
2.0389
2.54295
2.92727
3.2117
3.40641
3.52641
3.58458
3.58507
3.53848
3.44143
3.291
3.07895
2.79281
2.40261
1.85879
1.05138
-0.348014
0.793468
1.71776
2.45884
3.04536
3.48667
3.80895
4.02494
4.15555
4.22098
4.22696
4.19293
4.12046
4.01417
3.86855
3.67265
3.37858
2.89494
2.02375
-0.0701248
1.05858
2.04415
2.85712
3.50541
3.98948
4.3398
4.57267
4.71547
4.79912
4.83346
4.85136
4.86902
4.9093
4.97859
5.08035
5.15206
5.04904
4.44432
0.262161
1.31336
2.32486
3.18587
3.87545
4.38601
4.75093
4.99507
5.15083
5.26829
5.36383
5.49207
5.71199
6.10261
6.75179
7.8523
9.6811
12.8181
18.455
)
;

boundaryField
{
    up
    {
        type            calculated;
        value           nonuniform List<scalar> 
84
(
-18.4549
-4.44433
-2.02376
-1.05139
-0.630556
-0.427594
-0.314629
-0.241064
-0.186926
-0.14319
-0.107277
-0.0779894
-0.0547095
-0.0371084
-0.0244424
-0.0157924
-0.0101759
-0.00667892
-0.00455968
-0.00325943
-0.00243089
-0.00189013
-0.00167331
-0.00118598
-0.0041471
-0.0051108
-0.00624256
-0.00751178
-0.00919365
-0.0118985
-0.016931
-0.0266058
-0.0418428
-0.150651
-0.117513
0.00565945
-0.00640929
-0.00458337
-0.0046405
-0.00257403
-0.00258115
-0.00224626
0.0022438
0.00254957
0.00260021
0.00462302
0.00457286
0.00638382
-0.005484
0.115691
0.152206
0.0420686
0.0267005
0.0169661
0.0119117
0.00919978
0.00751719
0.00624987
0.00511859
0.00416459
0.00118353
0.00167386
0.00189074
0.00243149
0.00326021
0.00456074
0.0066802
0.0101772
0.0157932
0.024442
0.0371061
0.0547053
0.0779843
0.107273
0.143189
0.186931
0.241073
0.31464
0.427601
0.630556
1.05138
2.02375
4.44432
18.455
)
;
    }
    low
    {
        type            calculated;
        value           nonuniform List<scalar> 
84
(
-0.235187
0.111821
0.413306
0.477721
0.231443
-0.279437
-0.929788
-1.57569
-2.20569
-2.55168
-2.84754
-3.15945
-3.24514
-3.29398
-3.33497
-3.30217
-3.19405
-3.0655
-2.95497
-2.69458
-2.39158
-2.06035
-1.67153
-1.21895
-0.803683
-0.265002
0.266768
0.801055
1.28808
1.79014
2.15413
2.46369
2.72747
2.86849
2.91917
2.93834
2.73143
2.35299
1.921
1.42726
0.89102
0.340441
-0.340283
-0.890866
-1.42709
-1.92086
-2.35287
-2.73137
-2.93826
-2.91955
-2.86824
-2.72757
-2.46375
-2.15421
-1.79023
-1.28817
-0.801169
-0.26687
0.264758
0.803827
1.21876
1.67161
2.06036
2.39158
2.69458
2.95498
3.0655
3.19405
3.30217
3.33497
3.29399
3.24515
3.15944
2.84755
2.5517
2.20571
1.5757
0.929802
0.279447
-0.231437
-0.477723
-0.413315
-0.111828
0.235188
)
;
    }
    left
    {
        type            calculated;
        value           nonuniform List<scalar> 
19
(
-0.236411
-1.27218
-2.31149
-3.20853
-3.93257
-4.46993
-4.85551
-5.11727
-5.28716
-5.42543
-5.54829
-5.71488
-6.00029
-6.50582
-7.33863
-8.76352
-11.1622
-15.3432
-16.0013
)
;
    }
    right
    {
        type            calculated;
        value           nonuniform List<scalar> 
19
(
0.236415
1.27218
2.31148
3.20851
3.93255
4.46992
4.8555
5.11727
5.28717
5.42545
5.54831
5.71491
6.00029
6.5058
7.33858
8.76346
11.1621
15.3432
16.0014
)
;
    }
    frontAndBackPlanes
    {
        type            empty;
    }
}


// ************************************************************************* //
