/*--------------------------------*- C++ -*----------------------------------*\
  =========                 |
  \\      /  F ield         | OpenFOAM: The Open Source CFD Toolbox
   \\    /   O peration     | Website:  https://openfoam.org
    \\  /    A nd           | Version:  7
     \\/     M anipulation  |
\*---------------------------------------------------------------------------*/
FoamFile
{
    version     2.0;
    format      ascii;
    class       volScalarField;
    location    "0.009";
    object      gradTz;
}
// * * * * * * * * * * * * * * * * * * * * * * * * * * * * * * * * * * * * * //

dimensions      [0 -1 0 1 0 0 0];

internalField   nonuniform List<scalar> 
1596
(
-1.60706e-16
-5.15057e-17
7.57978e-17
2.128e-17
-1.18055e-16
0
-3.86124e-17
-3.83883e-17
-2.31309e-17
-2.72573e-17
9.7487e-20
-2.79533e-17
1.61318e-16
-2.98175e-17
1.20332e-16
1.10519e-16
6.65033e-17
1.1988e-16
0
1.31265e-16
0
9.34058e-17
-2.48238e-18
-7.79819e-18
1.59396e-17
6.26467e-17
1.64174e-17
2.29633e-17
-1.15798e-17
2.35316e-17
2.27383e-19
-2.93495e-17
-1.79474e-17
-9.29195e-17
-9.83061e-17
-9.92577e-17
7.21359e-17
0
-3.69358e-17
0
-3.42392e-17
2.94883e-18
1.48684e-17
-1.47071e-17
2.84977e-18
-1.99216e-20
4.65709e-21
3.52714e-20
1.19951e-18
0
1.51565e-17
2.98323e-17
-2.62928e-18
3.25017e-18
6.1713e-18
2.55744e-17
0
1.01013e-16
-8.40762e-18
8.37692e-18
0
-4.44796e-18
-5.11163e-18
5.24697e-18
-1.47892e-18
0
0
-4.51266e-18
6.40065e-19
0
-5.7423e-18
-3.0552e-18
2.62105e-18
-9.60314e-18
-3.61161e-19
0
2.16999e-17
2.08191e-17
-4.58964e-18
0
-2.52037e-19
-1.41639e-18
0
1.68599e-18
-8.07109e-20
-8.11996e-20
-1.18644e-18
3.5116e-19
5.75196e-19
1.13649e-19
1.55317e-18
-2.78173e-18
8.75424e-20
1.29717e-18
-1.3195e-18
-5.63511e-18
-2.58718e-17
9.19331e-18
-3.13301e-18
-3.90505e-20
-3.1501e-19
5.8483e-21
-5.86772e-21
-1.02716e-19
0
-3.25573e-19
-4.57082e-19
-4.95034e-19
1.39485e-19
6.33047e-19
-4.45794e-21
-2.47102e-19
-1.31571e-18
1.75905e-18
4.70936e-17
-3.03918e-17
1.28746e-17
1.40091e-18
0
2.62079e-19
6.25162e-20
-1.80706e-20
1.16417e-19
-1.05497e-20
-1.14353e-19
-2.93292e-22
-2.36656e-20
-1.38607e-19
-3.73458e-20
4.3342e-20
2.49277e-19
-5.16856e-21
-4.21591e-19
2.29212e-17
5.76853e-17
-2.45172e-17
0
0
-3.33687e-19
0
0
0
6.79255e-21
0
0
2.70437e-20
-2.59996e-22
3.06739e-20
-4.16088e-20
0
1.89378e-20
3.15396e-20
0
-2.53553e-17
3.84381e-17
0
0
3.43651e-19
0
-7.69443e-21
7.68665e-21
-6.91383e-21
1.24224e-21
-1.25132e-21
0
1.68204e-21
8.4712e-21
0
-2.20959e-21
-1.91728e-20
-3.02197e-20
1.64583e-16
-5.86016e-17
0
-3.54611e-18
3.50643e-18
0
1.27823e-19
0
0
0
3.50046e-22
-3.51724e-22
0
-1.50889e-21
-1.57732e-22
0
1.75817e-21
5.98914e-22
0
-4.08478e-17
0
0
3.8975e-18
-5.03804e-18
8.48893e-19
2.02016e-19
-1.03722e-20
7.89484e-21
1.02621e-21
-5.7571e-22
-1.56965e-22
0
7.81172e-23
-3.35932e-23
3.40974e-23
3.7551e-22
-5.4339e-22
-2.99772e-22
-3.67089e-18
-1.97672e-17
8.83736e-18
1.06566e-17
-2.82824e-18
-1.29607e-18
0
0
0
1.94278e-21
1.46836e-22
1.66326e-22
-4.09797e-23
-7.67198e-23
-1.01031e-23
-1.3066e-23
6.35286e-24
-1.61516e-23
2.72497e-22
-2.14814e-17
2.89745e-17
-2.91999e-17
-1.06581e-17
6.30058e-18
3.89748e-19
-4.87303e-19
1.27563e-19
-3.13851e-20
5.29204e-21
6.7764e-22
-7.97289e-23
-8.28737e-24
-3.92717e-24
2.03614e-23
0
-9.38817e-25
1.5252e-23
-7.60159e-24
-2.47866e-16
8.03012e-17
-1.71161e-19
-1.09304e-18
2.05158e-18
3.81178e-19
-5.33367e-19
-3.9891e-20
9.5373e-21
-2.17314e-21
-4.83693e-22
0
-4.12647e-23
-7.46401e-24
-2.01283e-24
-6.47261e-25
8.99604e-26
-1.91178e-24
6.16453e-24
3.96016e-17
-1.92386e-17
-3.11703e-19
-3.0036e-18
-2.14247e-18
1.4783e-18
1.11341e-20
3.88738e-20
-9.28582e-21
4.05417e-21
3.31405e-22
1.38012e-22
4.25917e-23
0
2.98172e-24
6.8014e-25
0
2.87212e-25
9.23058e-25
0
1.86637e-17
2.54107e-18
-1.00408e-17
1.98361e-18
-1.65317e-18
4.46306e-19
2.03231e-20
-1.53127e-20
-6.59588e-21
1.17649e-22
-1.17068e-22
-3.55325e-23
3.43788e-24
-7.31515e-25
-5.59744e-25
5.24005e-26
-1.74729e-26
1.54689e-25
-3.56611e-17
4.77017e-17
-4.01584e-17
4.39472e-18
0
0
-1.85002e-20
6.64718e-20
-3.80358e-21
4.98224e-21
0
0
1.96294e-23
-7.42617e-24
-7.2153e-25
1.90602e-25
-4.4923e-26
1.11982e-26
0
1.80574e-17
3.35286e-17
-6.1684e-18
-2.37076e-18
-7.5853e-19
3.93861e-19
1.56168e-19
0
-2.8237e-21
7.39364e-22
1.85473e-22
-3.85932e-23
7.96167e-24
0
3.86229e-25
2.01012e-25
0
0
0
-1.76525e-17
1.96755e-18
-7.22113e-18
-8.51702e-18
4.35344e-19
1.43085e-19
0
0
2.00115e-21
-1.43005e-21
-1.79393e-22
3.73267e-23
-7.69954e-24
0
-7.81573e-26
5.0519e-26
0
-2.14855e-27
-4.67784e-28
-1.2554e-17
4.59495e-17
-2.54865e-17
-1.72578e-18
1.28365e-18
-8.31669e-20
1.94377e-20
0
-9.16952e-22
2.84489e-22
0
0
1.10059e-24
-1.10185e-24
2.21903e-26
-4.07176e-26
4.96151e-27
1.08807e-27
3.42319e-28
1.35619e-17
-5.25805e-18
8.59926e-18
-4.63914e-18
-2.44013e-19
5.4195e-20
7.64791e-20
2.75577e-21
8.77386e-22
0
1.63014e-23
-1.52715e-23
2.97237e-24
-6.09334e-25
5.90031e-26
-3.66434e-26
-2.67174e-27
1.30602e-27
1.00492e-28
2.21095e-17
-2.94145e-17
0
1.00687e-18
-7.63052e-19
-5.53181e-20
-3.38333e-22
-1.45794e-20
0
-1.49377e-23
-4.70586e-23
-3.99134e-24
1.07471e-24
-2.39854e-25
-5.70255e-26
1.13176e-26
0
2.27773e-28
-9.7577e-29
8.16531e-17
-3.90958e-18
4.04271e-18
-2.9329e-18
1.09434e-19
-1.18555e-19
-3.5707e-20
-7.14493e-22
8.46705e-22
-7.51812e-23
-1.02012e-23
5.37858e-24
-8.25785e-25
-1.03903e-25
0
0
0
-2.26416e-28
4.95654e-30
-3.9269e-17
3.1892e-17
-1.28498e-19
2.02289e-19
5.5675e-20
-2.22741e-20
1.25671e-20
-2.35298e-21
4.57262e-22
-1.13207e-23
1.67945e-23
5.08875e-25
-6.03951e-26
-3.54974e-27
2.3021e-27
-5.5203e-28
0
0
0
0
0
1.22579e-18
-1.90756e-18
-5.16556e-19
0
0
-2.41223e-22
-1.09322e-22
1.54696e-23
0
-6.41784e-25
1.17138e-25
-6.75003e-26
5.74909e-26
-1.9243e-27
1.92477e-27
4.81183e-29
0
-6.89182e-18
6.97664e-18
0
-2.15119e-19
7.96277e-20
4.80939e-20
0
2.43526e-22
1.48231e-23
-1.24834e-22
0
-4.66658e-25
9.81647e-26
2.15181e-26
-4.48229e-27
2.33262e-27
0
-1.5786e-28
0
-3.6348e-18
-3.0895e-19
7.50438e-20
2.2103e-19
-1.45922e-19
0
-1.93708e-21
0
1.79025e-22
1.37307e-23
0
1.34025e-24
-7.37333e-25
8.99155e-26
8.08687e-27
1.02136e-26
4.5549e-27
4.83191e-28
-4.06177e-28
0
4.15083e-18
-7.85164e-19
8.44456e-19
9.71947e-20
0
3.46681e-21
-2.05452e-21
-1.03499e-22
1.89933e-23
-2.29987e-23
-7.24071e-25
0
0
6.76142e-27
0
0
1.011e-27
0
-3.65025e-17
3.14198e-17
0
2.50846e-19
5.53144e-20
-8.85543e-22
7.56117e-21
-1.54807e-22
-7.98297e-22
-1.82142e-22
3.12909e-23
-4.91035e-24
0
1.50079e-26
0
0
0
-5.43393e-27
4.81618e-27
-1.49674e-17
5.9759e-18
5.24009e-18
-3.44473e-18
2.53632e-19
5.50064e-20
-7.22106e-21
1.39648e-21
4.91733e-22
6.16802e-23
-9.4317e-23
0
-3.9591e-26
-1.35783e-26
4.68556e-27
-3.05411e-26
3.47339e-26
-6.41982e-27
1.77117e-26
-7.32651e-17
2.83535e-17
-2.33123e-17
1.06731e-18
2.68313e-19
-1.58916e-19
4.38854e-20
-4.35721e-21
0
-2.61424e-22
3.31e-23
7.67609e-24
1.4681e-24
-2.45872e-25
3.02812e-25
8.74312e-26
0
-1.04566e-26
1.40469e-26
-7.82839e-17
-8.46591e-18
-4.89974e-18
3.80564e-18
-8.49591e-19
2.28301e-19
-8.24073e-20
1.12966e-20
-1.78856e-21
-8.68519e-22
-9.00726e-23
8.52547e-23
3.59976e-24
-6.97842e-25
7.4914e-25
1.12978e-25
-1.15604e-25
0
-1.05598e-26
8.4642e-17
-1.07902e-17
0
0
-1.00251e-18
1.27729e-18
-1.2947e-19
-2.53883e-21
8.39779e-21
-8.98073e-22
0
0
-5.7119e-24
0
1.38951e-24
-4.08482e-24
2.62632e-24
0
-6.41503e-27
2.21733e-17
2.39969e-17
0
-2.60089e-18
-4.19585e-19
3.21153e-19
-1.29219e-19
1.0317e-20
-1.66955e-20
1.58908e-22
0
0
1.17748e-22
0
0
1.61598e-24
2.43571e-24
0
0
1.57369e-16
-4.0106e-17
-4.28923e-17
-5.41869e-18
8.05393e-18
6.08606e-19
1.25294e-19
0
-5.47732e-21
2.68866e-21
2.74701e-21
-5.57826e-22
-1.03325e-22
6.97042e-23
-7.4144e-23
-2.97506e-24
0
0
0
1.23394e-17
-4.98298e-17
4.58853e-17
-1.66062e-18
-4.47348e-18
4.9739e-18
-1.44703e-18
0
0
2.1669e-20
-1.29355e-20
0
-2.24457e-22
4.93214e-22
-1.08529e-24
3.3415e-23
5.05516e-24
1.95486e-25
4.16566e-25
0
0
0
1.15992e-17
-8.37707e-18
1.62734e-18
-2.04912e-18
3.05849e-19
0
-1.0263e-20
4.77656e-21
-4.88192e-21
-1.94823e-22
3.15888e-23
-2.707e-23
-1.54039e-24
-1.10756e-23
-2.38306e-24
-1.02412e-24
8.7718e-17
-1.26197e-16
4.51473e-17
0
1.45654e-18
-2.23164e-18
4.66905e-19
-3.48253e-19
0
-1.13043e-20
1.74635e-20
0
0
4.0108e-23
0
-2.9098e-23
1.6919e-23
-2.45715e-26
1.90027e-24
1.22292e-16
0
-1.1789e-17
1.27372e-17
-1.95505e-18
3.3741e-18
-9.85378e-19
-1.48325e-19
1.49874e-19
-4.07352e-21
0
0
2.37768e-22
-1.5146e-22
-5.23213e-23
8.18704e-23
-1.30415e-23
3.17052e-24
0
6.81214e-17
2.36582e-17
-1.04196e-17
-1.25747e-17
-4.34235e-19
-1.1456e-18
6.33497e-19
4.2464e-19
-5.97467e-21
4.15001e-21
0
0
-2.43577e-22
0
7.02317e-23
-7.51311e-23
0
4.08267e-24
-1.00226e-24
-3.58694e-17
-1.19564e-17
1.13935e-17
-5.00348e-19
-1.14309e-19
1.45228e-19
0
-8.07155e-21
4.0428e-20
-3.36341e-20
0
1.04555e-21
-6.5427e-22
-4.5247e-22
-1.57286e-23
-7.54298e-24
0
-3.30751e-24
0
1.05055e-17
-1.6464e-17
2.34706e-18
3.09572e-18
7.71749e-19
-7.10177e-19
-1.14063e-19
1.23554e-19
-8.88937e-21
7.82889e-21
-1.38343e-21
1.4261e-21
0
5.63598e-25
-8.03753e-24
3.30587e-23
-6.47278e-26
0
0
1.0506e-17
-1.04667e-17
-3.0761e-18
2.84247e-18
1.31406e-18
-1.32182e-18
-5.70417e-20
5.73422e-20
-8.99276e-21
9.07383e-21
-1.38381e-21
1.98549e-21
-4.64435e-22
-1.22926e-22
-1.15877e-23
6.96556e-24
6.08124e-24
1.06227e-24
-7.50748e-25
0
-1.94689e-18
5.11962e-18
-5.90292e-18
1.29686e-18
-1.20767e-18
0
8.81444e-20
-8.32346e-20
0
2.61623e-21
-3.05367e-21
-4.32141e-22
4.52912e-22
2.77747e-23
0
0
-3.31321e-24
1.0844e-24
4.1669e-17
-6.31949e-17
3.87072e-17
-1.87868e-17
5.27424e-18
-9.63296e-19
9.81799e-19
2.87408e-20
-3.76629e-20
3.20987e-20
0
-2.09177e-21
1.8989e-21
-1.00666e-22
-2.72053e-23
2.03176e-23
1.00172e-23
3.21649e-24
-1.04778e-24
1.3526e-16
0
-1.3805e-17
1.08651e-17
4.29466e-19
-1.16436e-18
1.44659e-18
-5.67066e-19
1.40456e-19
-1.03974e-20
1.06427e-20
6.00597e-22
3.80644e-22
9.80498e-23
-3.2143e-23
-7.79279e-24
-2.27385e-23
0
9.84054e-25
7.49312e-17
-8.4475e-17
0
1.85306e-18
3.00374e-18
-2.54729e-18
1.20615e-19
4.48338e-20
9.40676e-21
5.80636e-21
0
0
-5.26876e-22
6.26184e-22
-1.50694e-22
-1.55056e-23
1.6976e-23
7.13339e-25
-1.73692e-24
4.59649e-17
7.58628e-17
-3.7039e-18
-9.90895e-18
9.10402e-18
3.07179e-19
-1.18044e-19
-4.37893e-20
3.92203e-20
-4.51757e-20
4.78923e-21
-4.89481e-21
3.68547e-23
-2.46809e-22
7.24352e-23
-4.79223e-23
0
0
5.48296e-25
0
1.41245e-17
-1.72571e-17
2.07468e-17
-3.78017e-18
3.77117e-18
0
9.29953e-20
-9.34214e-20
-1.06443e-20
1.29775e-20
0
4.12866e-22
-4.95173e-22
-2.58851e-23
0
-5.21294e-25
-1.87497e-25
-3.28455e-25
-2.16206e-16
7.98081e-17
0
-8.06487e-18
8.06406e-18
9.5487e-19
-5.8697e-19
4.06808e-20
0
-2.16535e-22
-2.81759e-22
-5.601e-22
-1.03952e-22
7.01921e-23
-7.46376e-23
0
8.9591e-25
6.37088e-25
-2.05379e-25
1.11828e-16
-9.25514e-17
0
2.15118e-18
7.87125e-19
-3.7645e-19
0
-4.26339e-20
-7.19039e-21
0
-7.45957e-22
0
1.18671e-22
0
0
1.02066e-25
-2.26673e-24
1.59225e-24
0
-4.16825e-19
1.0801e-17
-4.26386e-18
3.93816e-19
-3.96174e-18
8.26878e-19
0
2.55064e-21
3.9938e-21
0
-4.85588e-22
1.2361e-22
-1.29859e-22
3.76087e-25
0
-3.49207e-25
0
0
0
-4.34998e-19
0
3.94087e-18
0
-5.33662e-19
5.42146e-19
0
6.20731e-21
-1.12968e-21
1.91801e-21
-4.91491e-22
8.38427e-24
-1.57054e-24
-1.11744e-24
8.33492e-25
2.31692e-25
0
-1.10119e-26
0
3.09568e-17
-5.51421e-17
0
-8.23463e-19
2.31711e-19
0
0
-8.7191e-21
0
-2.62984e-22
-3.3289e-23
-7.70591e-24
1.43993e-24
0
-3.45816e-26
0
0
5.74638e-26
-7.07617e-26
0
2.35024e-17
-1.70605e-17
7.62339e-19
-2.14566e-19
-1.28153e-20
2.02682e-20
4.16633e-21
-6.89926e-22
2.00466e-22
2.0473e-23
-4.84848e-25
1.49456e-24
1.42291e-26
4.02266e-26
1.96521e-26
-8.86766e-27
1.3389e-26
-2.99178e-27
-1.12287e-16
3.19825e-17
0
0
3.31283e-20
-3.36878e-20
-1.59299e-21
-1.56748e-21
1.60405e-22
2.19694e-23
-1.67642e-23
-5.28304e-25
-4.44253e-26
-9.15874e-27
0
6.24475e-27
8.12785e-27
1.8931e-27
2.70415e-27
0
1.15139e-17
-4.78015e-18
7.97732e-19
7.03958e-20
-1.04734e-20
-3.45446e-21
-6.04672e-22
-2.96199e-22
1.5237e-23
8.63131e-25
2.24764e-24
4.15431e-26
-2.92911e-26
3.10907e-26
5.15837e-27
-1.06099e-26
-1.74855e-27
0
-7.1333e-18
-1.11735e-17
1.03317e-18
2.21292e-19
-1.58064e-19
6.59317e-20
1.77202e-21
-1.81128e-21
9.84376e-23
-1.44607e-23
0
0
-1.14892e-25
1.49949e-25
-3.13341e-26
5.33938e-27
-6.43899e-27
4.97216e-28
-7.46828e-28
1.04897e-17
3.55117e-18
-8.90871e-19
2.4926e-20
-2.00627e-19
-1.56177e-20
0
0
0
0
0
0
1.07823e-25
-5.4944e-26
5.81093e-26
-2.00243e-27
2.76842e-27
4.09014e-28
-2.71077e-28
3.23062e-17
-8.49923e-18
9.47792e-18
-2.60603e-19
4.76591e-19
-1.90166e-20
2.15239e-20
-3.66133e-21
-1.08239e-22
1.10723e-22
0
6.38725e-25
-1.05337e-25
4.68214e-26
-4.00329e-26
-8.87462e-27
-2.61246e-27
2.74167e-28
1.19179e-28
5.5462e-17
3.69817e-18
0
-4.52275e-19
-5.40403e-20
7.23249e-20
-6.24099e-21
-2.08167e-21
3.61771e-22
-3.01162e-23
0
-5.05623e-25
0
-3.6297e-26
1.09409e-26
-2.15789e-27
-2.93531e-28
3.19193e-29
0
6.99159e-17
-3.90937e-18
4.24901e-18
-3.01087e-18
-8.21521e-20
5.44627e-20
-3.0283e-20
8.80683e-22
3.98192e-22
-5.30952e-23
2.49244e-23
0
0
8.99146e-26
5.19262e-27
2.85982e-29
9.49781e-28
-1.70844e-28
0
-3.32692e-19
0
-1.36191e-18
2.27242e-18
-1.14107e-18
-1.30713e-19
5.96167e-20
-4.14132e-21
2.78504e-21
1.68873e-22
-2.97155e-23
6.59908e-24
-1.67244e-24
1.59058e-25
1.15846e-25
-4.79507e-27
-2.19144e-27
7.35324e-28
-1.0847e-28
1.31239e-16
-3.2285e-17
8.01924e-19
-5.59307e-18
2.44015e-19
-1.04166e-19
6.91085e-20
0
0
-2.83886e-23
-6.11211e-23
-3.01408e-24
0
-3.01561e-25
-5.87878e-26
1.16393e-26
-2.42648e-28
7.87217e-28
3.1091e-28
0
-1.90133e-17
9.87688e-18
-2.48018e-18
-2.1143e-18
8.3169e-20
-2.77624e-20
2.12468e-20
6.1516e-21
0
0
1.89367e-24
5.54609e-24
0
-1.78453e-25
-2.68635e-26
3.65101e-27
-9.20239e-29
-6.6759e-28
0
-5.71494e-18
1.21137e-17
6.97816e-18
5.16717e-19
-7.59315e-19
1.57213e-19
-9.03762e-21
6.99396e-21
-8.45679e-22
0
0
0
-1.59192e-24
-4.84689e-26
-7.86723e-26
0
-2.09377e-28
6.78318e-28
-8.37575e-17
6.43608e-17
1.57891e-17
-1.73681e-17
1.30351e-18
-9.29127e-19
0
1.2418e-20
-1.30951e-20
2.48769e-21
-2.55487e-22
5.42037e-23
1.13966e-23
1.64639e-24
3.46489e-25
0
0
0
0
1.31682e-16
-3.38255e-17
0
0
-7.71169e-19
4.48736e-19
-2.56362e-19
-1.64079e-20
1.62229e-20
1.2245e-21
6.0473e-22
-5.62416e-23
7.86755e-24
-8.00435e-25
1.9051e-25
-1.9765e-26
4.86874e-26
-9.86522e-28
1.00486e-27
-1.18947e-16
7.35367e-17
1.02291e-17
-7.27355e-18
1.90033e-18
-1.08213e-18
-1.38566e-19
-3.48067e-20
0
-2.95209e-21
7.14095e-22
9.03987e-23
-1.61542e-23
-3.45222e-24
-2.66492e-25
5.56926e-26
-1.61294e-26
0
0
-3.93194e-17
0
8.23592e-18
1.50885e-19
0
0
1.42935e-19
3.59156e-20
0
1.94174e-21
0
-1.23611e-22
7.56555e-24
5.26011e-24
0
7.18606e-25
-3.30368e-26
3.3702e-26
0
1.05441e-16
0
1.18983e-17
-1.56129e-17
6.12789e-18
9.80437e-19
-2.13917e-19
0
3.69211e-21
5.93322e-21
0
-1.41596e-22
6.37138e-23
-1.86353e-23
-1.9754e-24
-5.14633e-25
-2.34236e-25
-1.55896e-25
-7.35103e-24
-6.28807e-17
8.22147e-17
-8.76753e-18
-9.58181e-18
-2.08389e-18
-6.13259e-19
-3.2477e-19
-2.55939e-20
1.54091e-20
6.78897e-22
-6.77622e-22
2.26016e-22
-3.56396e-23
3.08631e-23
-3.9344e-24
0
1.19706e-23
-1.18519e-23
6.75984e-24
2.16845e-16
-1.1809e-17
-4.64095e-17
1.06568e-17
-5.4502e-18
1.66914e-18
-2.06085e-19
-3.62811e-20
8.50073e-21
6.29597e-22
-4.82768e-22
-2.63663e-22
1.82279e-23
7.53157e-23
-6.43724e-24
6.51066e-24
-1.23986e-23
-8.0825e-23
-2.70994e-22
1.06452e-16
2.03787e-17
1.69651e-17
-5.69147e-18
-1.19269e-18
6.86886e-19
-8.56751e-20
1.42053e-19
6.7061e-21
4.25429e-21
6.43338e-22
-3.89221e-22
0
-7.78361e-23
0
0
3.95444e-22
7.62594e-23
2.85105e-22
7.91638e-17
0
1.49944e-17
5.65474e-18
-1.53957e-18
4.94278e-19
0
-3.11196e-20
-1.21529e-20
-4.02406e-21
-6.49032e-22
3.93622e-22
0
0
0
0
-3.88499e-22
-3.55026e-21
0
-1.53888e-16
0
-5.32001e-18
-4.96229e-18
2.36421e-18
-1.93072e-20
2.91871e-20
-1.72068e-20
9.43369e-21
0
1.24296e-21
-4.45788e-24
5.65646e-21
0
0
9.30499e-21
-6.06258e-22
4.2764e-21
-3.09285e-20
9.50216e-17
1.12581e-17
-1.11419e-17
-3.00004e-18
-2.85573e-18
6.88026e-19
1.73046e-19
-1.4806e-20
-9.9699e-21
2.61018e-20
2.57022e-21
-3.03574e-20
-9.78935e-21
-3.00017e-20
-3.56953e-20
-1.1214e-20
5.77803e-20
-1.64571e-21
3.16773e-20
-2.11693e-17
4.99438e-18
-1.50013e-17
5.25615e-19
-5.23703e-19
0
-8.45722e-20
-7.53992e-20
-1.05911e-19
7.98421e-20
1.14352e-19
2.75643e-20
-1.21654e-20
-9.2424e-20
2.99417e-20
0
-3.05822e-19
-3.59124e-19
-5.47821e-21
6.25788e-17
-5.56896e-19
1.92167e-17
-2.99015e-18
3.90504e-20
1.89784e-20
4.44453e-19
-3.04832e-19
1.02716e-19
-1.0237e-19
-1.06017e-19
0
4.9498e-19
1.35734e-19
4.30378e-21
-7.157e-21
2.50181e-19
3.6316e-19
0
-3.85454e-17
0
-1.00678e-18
3.7395e-18
2.66189e-19
2.5237e-19
-4.2978e-19
4.012e-19
1.5307e-18
1.55028e-18
1.60472e-18
0
-4.80864e-19
0
6.68979e-20
-6.94794e-20
0
-3.02762e-20
3.68346e-18
3.83291e-17
1.20358e-17
-4.82034e-19
9.08102e-18
-1.82339e-18
0
0
-5.20751e-18
-1.48309e-18
-1.50187e-18
-6.36046e-18
-6.40055e-19
0
0
0
-5.5929e-19
5.91869e-19
1.12826e-17
-3.76248e-18
2.49791e-17
0
-1.22213e-17
-4.14522e-18
9.20548e-18
-1.59443e-17
-1.96953e-17
1.29631e-17
1.17429e-17
0
5.26722e-18
1.66845e-17
-2.31937e-18
2.09706e-17
-2.84986e-18
2.96601e-18
2.48189e-17
-1.0758e-17
0
-7.01675e-17
0
-4.4532e-17
4.14492e-17
0
3.88247e-17
1.52061e-17
-4.59041e-17
5.85265e-17
5.18237e-20
-1.16984e-17
-1.6154e-17
0
6.98826e-17
-9.29188e-17
1.06254e-16
-1.35691e-16
0
0
7.99984e-17
-1.05113e-17
-1.42093e-17
-1.18481e-16
1.34523e-16
-5.50265e-17
5.48022e-17
5.44553e-17
-1.52352e-17
0
0
1.30464e-16
-1.32712e-16
-8.47412e-17
8.94787e-17
-9.4531e-17
1.15114e-16
-2.1685e-16
0
)
;

boundaryField
{
    up
    {
        type            calculated;
        value           nonuniform List<scalar> 
84
(
0
0
0
0
-1.3195e-18
1.75905e-18
-4.21591e-19
3.15396e-20
-3.02197e-20
0
-2.99772e-22
2.72497e-22
-7.60159e-24
6.16453e-24
9.23058e-25
1.54689e-25
0
0
-4.67784e-28
3.42319e-28
1.00492e-28
-9.7577e-29
4.95654e-30
0
3.04218e-29
2.2194e-29
-4.63776e-28
0
4.81618e-27
5.44663e-27
1.40469e-26
-1.05598e-26
-6.41503e-27
0
4.25008e-25
2.97867e-25
-8.12922e-25
1.57238e-24
0
-7.05836e-25
0
0
-6.576e-25
1.0844e-24
-1.04778e-24
9.84054e-25
-1.73692e-24
5.48296e-25
-3.28455e-25
-2.05379e-25
0
0
0
-7.07617e-26
1.6898e-26
2.70415e-27
0
-7.46828e-28
-2.71077e-28
1.07899e-28
0
0
-1.0847e-28
3.1091e-28
-6.6759e-28
6.78318e-28
0
1.00486e-27
0
0
-7.35103e-24
6.75984e-24
-2.70994e-22
2.85105e-22
0
-3.09285e-20
3.16773e-20
-5.47821e-21
0
3.68346e-18
-3.76248e-18
0
0
0
)
;
    }
    low
    {
        type            calculated;
        value           nonuniform List<scalar> 
84
(
-1.6744e-16
1.31265e-16
-2.81046e-17
1.05814e-16
2.41009e-17
-6.20818e-18
5.13376e-17
2.67907e-17
0
1.70615e-16
-4.08478e-17
-9.05332e-18
-2.14814e-17
-2.52746e-16
3.96016e-17
0
-3.56611e-17
1.80574e-17
-1.76525e-17
-1.2554e-17
1.35619e-17
2.21095e-17
9.01543e-17
-3.9269e-17
0
-6.89182e-18
-3.6348e-18
0
-3.65025e-17
-1.49674e-17
-7.89171e-17
-8.32644e-17
8.90992e-17
2.21733e-17
1.61196e-16
1.23394e-17
0
8.7718e-17
1.26288e-16
7.01097e-17
-3.68639e-17
1.05055e-17
1.0506e-17
0
4.1669e-17
1.39255e-16
7.49312e-17
4.99607e-17
0
-2.20029e-16
1.11828e-16
-4.16825e-19
-4.34998e-19
3.09568e-17
0
-1.19114e-16
0
-7.1333e-18
1.04897e-17
3.6883e-17
6.46371e-17
7.84165e-17
-3.32692e-19
1.38331e-16
0
0
-8.37575e-17
1.36957e-16
-1.24018e-16
-3.93194e-17
1.10322e-16
-6.28807e-17
2.2761e-16
1.1212e-16
7.91638e-17
-1.53888e-16
9.11521e-17
-1.69254e-17
6.25788e-17
-3.61443e-17
3.83291e-17
3.38103e-17
-7.01675e-17
8.33655e-17
)
;
    }
    left
    {
        type            calculated;
        value           nonuniform List<scalar> 
19
(
-1.60706e-16
-4.71172e-17
7.57978e-17
2.76908e-17
-1.24731e-16
0
-3.86124e-17
-3.83883e-17
-3.01868e-17
-2.72573e-17
9.7487e-20
-2.79533e-17
1.75028e-16
-2.98175e-17
1.20332e-16
1.10519e-16
6.65033e-17
1.37814e-16
0
)
;
    }
    right
    {
        type            calculated;
        value           nonuniform List<scalar> 
19
(
7.99984e-17
-1.48998e-17
-1.42093e-17
-1.24892e-16
1.412e-16
-5.50265e-17
5.48022e-17
5.44553e-17
-8.17934e-18
0
0
1.44466e-16
-1.46422e-16
-8.47412e-17
8.94787e-17
-9.4531e-17
1.15114e-16
-2.3478e-16
0
)
;
    }
    frontAndBackPlanes
    {
        type            empty;
    }
}


// ************************************************************************* //
