/*--------------------------------*- C++ -*----------------------------------*\
  =========                 |
  \\      /  F ield         | OpenFOAM: The Open Source CFD Toolbox
   \\    /   O peration     | Website:  https://openfoam.org
    \\  /    A nd           | Version:  7
     \\/     M anipulation  |
\*---------------------------------------------------------------------------*/
FoamFile
{
    version     2.0;
    format      ascii;
    class       volScalarField;
    location    "0.305";
    object      gradTy;
}
// * * * * * * * * * * * * * * * * * * * * * * * * * * * * * * * * * * * * * //

dimensions      [0 -1 0 1 0 0 0];

internalField   nonuniform List<scalar> 
1596
(
-0.157899
-0.294213
-0.407898
-0.519831
-0.630754
-0.754926
-0.887284
-1.04437
-1.23342
-1.45981
-1.7689
-2.16168
-2.70171
-3.46531
-4.64366
-6.47338
-9.73222
-15.7363
-37.1748
-0.481539
-0.596443
-0.678676
-0.758808
-0.840675
-0.939615
-1.05117
-1.19015
-1.36303
-1.57135
-1.85238
-2.20278
-2.66481
-3.27318
-4.12571
-5.27294
-6.97398
-9.47181
-16.561
-0.862833
-0.904996
-0.936224
-0.97636
-1.02477
-1.0943
-1.17943
-1.29272
-1.4387
-1.61622
-1.85538
-2.14863
-2.52482
-2.99997
-3.63314
-4.43304
-5.5402
-7.05758
-10.3174
-1.26369
-1.20633
-1.17561
-1.17058
-1.18258
-1.21974
-1.27495
-1.3581
-1.47179
-1.61314
-1.80623
-2.04131
-2.33833
-2.70378
-3.17476
-3.74394
-4.49355
-5.46677
-7.13795
-1.63489
-1.48328
-1.39153
-1.34107
-1.31624
-1.32007
-1.34415
-1.39562
-1.47555
-1.58014
-1.72857
-1.9106
-2.14032
-2.4195
-2.77242
-3.18664
-3.71335
-4.36882
-5.32745
-1.93142
-1.71912
-1.57912
-1.48848
-1.42944
-1.4012
-1.39496
-1.41539
-1.46257
-1.53242
-1.64008
-1.77595
-1.95015
-2.16224
-2.42863
-2.73623
-3.11838
-3.57902
-4.18514
-2.12826
-1.90064
-1.73359
-1.61316
-1.52554
-1.46861
-1.43452
-1.42608
-1.4429
-1.48113
-1.55258
-1.64895
-1.77753
-1.93697
-2.13857
-2.37036
-2.65461
-2.98977
-3.40254
-2.22423
-2.01957
-1.84916
-1.71287
-1.60501
-1.52482
-1.46676
-1.43272
-1.42239
-1.43249
-1.47224
-1.53486
-1.62565
-1.74297
-1.89472
-2.07057
-2.28564
-2.53607
-2.83246
-2.23731
-2.0843
-1.93124
-1.79304
-1.67389
-1.57649
-1.4987
-1.44248
-1.40815
-1.3933
-1.40524
-1.43871
-1.49762
-1.58039
-1.69255
-1.82541
-1.98921
-2.17932
-2.3994
-2.18294
-2.08613
-1.96441
-1.83799
-1.71823
-1.61183
-1.52043
-1.447
-1.39292
-1.35692
-1.34508
-1.35362
-1.38558
-1.43963
-1.51979
-1.61883
-1.74381
-1.89004
-2.05799
-2.11259
-2.05646
-1.96677
-1.85879
-1.74582
-1.63705
-1.5374
-1.45122
-1.38123
-1.32748
-1.29538
-1.28253
-1.29151
-1.32131
-1.37497
-1.44652
-1.54083
-1.65344
-1.78331
-2.02363
-2.00955
-1.95142
-1.86448
-1.76255
-1.65603
-1.55222
-1.45688
-1.37412
-1.30537
-1.25582
-1.22435
-1.21334
-1.22223
-1.25341
-1.30197
-1.37131
-1.45731
-1.55826
-1.91222
-1.93584
-1.90885
-1.84507
-1.75787
-1.65818
-1.55472
-1.45447
-1.36279
-1.2824
-1.21865
-1.17159
-1.14368
-1.13483
-1.14715
-1.17666
-1.2258
-1.29089
-1.36991
-1.81171
-1.85734
-1.85526
-1.81295
-1.74122
-1.65052
-1.55011
-1.44782
-1.35003
-1.26061
-1.18525
-1.12506
-1.08274
-1.0587
-1.05497
-1.06836
-1.10073
-1.14881
-1.2105
-1.71758
-1.78058
-1.79794
-1.77405
-1.71699
-1.63595
-1.54009
-1.43769
-1.33588
-1.23947
-1.15461
-1.08332
-1.02865
-0.991537
-0.974044
-0.973681
-0.991982
-1.02606
-1.07387
-1.6248
-1.70408
-1.73792
-1.72991
-1.68622
-1.61483
-1.52437
-1.42326
-1.31911
-1.21746
-1.12495
-1.04438
-0.97921
-0.930874
-0.901594
-0.889511
-0.895991
-0.918525
-0.955192
-1.54013
-1.6304
-1.67762
-1.68308
-1.65123
-1.58889
-1.50403
-1.40501
-1.29971
-1.19422
-1.09559
-1.0073
-0.933216
-0.875254
-0.835856
-0.813739
-0.810244
-0.823216
-0.850859
-1.46541
-1.56299
-1.62071
-1.63736
-1.61569
-1.56141
-1.48183
-1.3851
-1.27926
-1.17081
-1.06714
-0.972306
-0.890543
-0.824191
-0.775942
-0.745063
-0.73298
-0.737898
-0.75815
-1.39095
-1.50128
-1.56971
-1.59652
-1.58389
-1.53672
-1.46183
-1.36717
-1.26087
-1.1498
-1.04162
-0.940902
-0.852183
-0.778177
-0.721811
-0.682874
-0.663002
-0.660825
-0.674859
-1.31508
-1.43963
-1.51978
-1.55672
-1.55268
-1.5122
-1.4418
-1.34927
-1.24283
-1.12967
-1.01768
-0.911867
-0.817019
-0.736125
-0.672286
-0.625746
-0.598508
-0.589827
-0.598581
-1.25019
-1.38387
-1.47467
-1.52128
-1.52529
-1.49096
-1.4246
-1.33397
-1.2274
-1.11237
-0.996971
-0.886588
-0.786201
-0.698957
-0.627989
-0.573794
-0.538807
-0.523243
-0.526955
-1.1931
-1.3351
-1.43553
-1.49123
-1.50285
-1.47424
-1.4116
-1.32269
-1.21598
-1.09922
-0.980698
-0.866147
-0.760707
-0.66759
-0.589758
-0.527555
-0.48353
-0.459063
-0.456433
-1.14116
-1.29265
-1.40255
-1.46695
-1.48578
-1.46257
-1.40341
-1.31614
-1.20936
-1.09107
-0.969742
-0.851402
-0.741383
-0.642958
-0.558787
-0.48849
-0.433667
-0.395587
-0.380821
-1.09571
-1.25691
-1.37563
-1.44734
-1.47173
-1.45203
-1.39463
-1.3074
-1.19922
-1.07845
-0.953327
-0.830624
-0.715777
-0.612309
-0.522488
-0.445309
-0.379655
-0.32256
-0.272376
-1.05964
-1.2299
-1.35878
-1.44092
-1.47605
-1.46677
-1.41941
-1.34117
-1.24049
-1.12566
-1.00377
-0.882179
-0.766081
-0.659935
-0.56627
-0.485164
-0.413935
-0.347545
-0.276925
-1.03544
-1.211
-1.34507
-1.4333
-1.47548
-1.47392
-1.43465
-1.36429
-1.27063
-1.1615
-1.04286
-0.921962
-0.803852
-0.693647
-0.594843
-0.509715
-0.436979
-0.374457
-0.317114
-1.03636
-1.2132
-1.34928
-1.44085
-1.48774
-1.49244
-1.46056
-1.39843
-1.31318
-1.21178
-1.09936
-0.982034
-0.864323
-0.751464
-0.648008
-0.557803
-0.481298
-0.417582
-0.3627
-1.06534
-1.23913
-1.37289
-1.46357
-1.51131
-1.51899
-1.49202
-1.43656
-1.35917
-1.26603
-1.16126
-1.04957
-0.934281
-0.820029
-0.711969
-0.615564
-0.533316
-0.465773
-0.409672
-1.11987
-1.28832
-1.41603
-1.50206
-1.54725
-1.555
-1.53071
-1.48044
-1.41029
-1.32579
-1.23007
-1.12633
-1.01612
-0.902542
-0.790408
-0.686594
-0.596149
-0.521957
-0.461705
-1.19897
-1.35717
-1.47502
-1.55315
-1.59304
-1.59858
-1.57524
-1.52901
-1.46565
-1.39022
-1.30509
-1.21218
-1.11095
-1.00199
-0.888129
-0.776579
-0.675075
-0.590452
-0.522637
-1.30204
-1.44494
-1.55029
-1.61824
-1.65081
-1.65238
-1.6286
-1.58533
-1.52809
-1.46173
-1.38819
-1.3088
-1.22125
-1.1231
-1.01311
-0.896172
-0.7809
-0.679773
-0.598425
-1.41586
-1.54563
-1.63762
-1.69387
-1.71767
-1.71403
-1.68877
-1.64755
-1.59565
-1.5379
-1.47624
-1.4124
-1.34353
-1.26502
-1.17038
-1.05842
-0.932356
-0.807291
-0.700299
-1.54759
-1.6616
-1.73773
-1.7802
-1.79362
-1.78347
-1.7556
-1.71528
-1.66743
-1.61687
-1.56571
-1.51692
-1.46898
-1.41806
-1.35467
-1.27131
-1.15739
-1.01611
-0.854396
-1.70301
-1.7967
-1.85427
-1.8815
-1.88397
-1.86742
-1.83734
-1.79848
-1.75519
-1.712
-1.67134
-1.63728
-1.61101
-1.59298
-1.57776
-1.56031
-1.52407
-1.45872
-1.35288
-1.87828
-1.94736
-1.981
-1.98783
-1.97427
-1.94606
-1.90784
-1.86368
-1.81705
-1.77128
-1.72869
-1.69235
-1.66437
-1.64743
-1.6426
-1.65328
-1.6762
-1.70763
-1.73954
-2.07845
-2.11288
-2.11696
-2.10023
-2.06869
-2.02754
-1.98031
-1.93046
-1.88069
-1.83325
-1.79052
-1.7541
-1.72565
-1.70652
-1.69818
-1.70218
-1.72079
-1.75639
-1.81239
-2.30108
-2.29149
-2.26359
-2.22358
-2.17543
-2.12289
-2.06838
-2.01452
-1.96332
-1.91633
-1.87548
-1.8415
-1.81528
-1.79689
-1.78634
-1.78204
-1.78319
-1.78737
-1.79287
-2.50967
-2.45653
-2.39748
-2.33471
-2.27008
-2.20569
-2.143
-2.08362
-2.02888
-1.97968
-1.93722
-1.90178
-1.87358
-1.85228
-1.83744
-1.82769
-1.82226
-1.81966
-1.81886
-2.68383
-2.5974
-2.51295
-2.43111
-2.35246
-2.27792
-2.20809
-2.1438
-2.08574
-2.03436
-1.9903
-1.95362
-1.92422
-1.90162
-1.88531
-1.87413
-1.86732
-1.86364
-1.86211
-2.82492
-2.7113
-2.60622
-2.50893
-2.41896
-2.3362
-2.26056
-2.19221
-2.13138
-2.07815
-2.03282
-1.99528
-1.96525
-1.94219
-1.92552
-1.91423
-1.90743
-1.90403
-1.90301
-2.92798
-2.7936
-2.6728
-2.56401
-2.4658
-2.37715
-2.29741
-2.2262
-2.16345
-2.109
-2.06287
-2.02492
-1.99471
-1.97168
-1.95516
-1.94417
-1.93771
-1.93468
-1.93399
-2.99301
-2.84003
-2.70831
-2.5926
-2.48981
-2.39805
-2.31619
-2.24355
-2.17986
-2.12483
-2.07838
-2.04031
-2.01014
-1.98732
-1.97116
-1.96074
-1.95503
-1.95297
-1.95342
-2.99302
-2.84006
-2.70835
-2.59264
-2.48985
-2.39809
-2.31623
-2.24359
-2.1799
-2.12487
-2.07842
-2.04035
-2.01019
-1.98736
-1.97121
-1.96079
-1.95508
-1.95301
-1.95346
-2.92801
-2.79366
-2.67288
-2.5641
-2.46589
-2.37725
-2.29751
-2.22631
-2.16356
-2.10911
-2.06299
-2.02504
-1.99483
-1.9718
-1.95529
-1.94431
-1.93786
-1.93485
-1.93418
-2.82496
-2.7114
-2.60635
-2.50907
-2.41911
-2.33636
-2.26073
-2.19238
-2.13155
-2.07833
-2.033
-1.99547
-1.96544
-1.9424
-1.92574
-1.91445
-1.90766
-1.90428
-1.90328
-2.68388
-2.59751
-2.51311
-2.43129
-2.35266
-2.27813
-2.20831
-2.14402
-2.08597
-2.03459
-1.99054
-1.95386
-1.92446
-1.90187
-1.88556
-1.87439
-1.86758
-1.86391
-1.86238
-2.50973
-2.45666
-2.39766
-2.33492
-2.27031
-2.20594
-2.14325
-2.08389
-2.02915
-1.97996
-1.9375
-1.90206
-1.87387
-1.85257
-1.83773
-1.82797
-1.82254
-1.81994
-1.81914
-2.30114
-2.29163
-2.26379
-2.22381
-2.17569
-2.12316
-2.06866
-2.01482
-1.96363
-1.91665
-1.8758
-1.84183
-1.8156
-1.7972
-1.78662
-1.7823
-1.7834
-1.78753
-1.79297
-2.07852
-2.11304
-2.11719
-2.10052
-2.06904
-2.02794
-1.98076
-1.93094
-1.88122
-1.83383
-1.79116
-1.7548
-1.72641
-1.70734
-1.69905
-1.70304
-1.72154
-1.75686
-1.81233
-1.87832
-1.94739
-1.98104
-1.98787
-1.97431
-1.9461
-1.90786
-1.86368
-1.81701
-1.77119
-1.72854
-1.6921
-1.66399
-1.64687
-1.64185
-1.65237
-1.67531
-1.70714
-1.74006
-1.70303
-1.79678
-1.85441
-1.8817
-1.88424
-1.86776
-1.83776
-1.79897
-1.75575
-1.71264
-1.67206
-1.63809
-1.61194
-1.5941
-1.57919
-1.56227
-1.52678
-1.46242
-1.35768
-1.5476
-1.66161
-1.73777
-1.78027
-1.79374
-1.78364
-1.75582
-1.71555
-1.66774
-1.61723
-1.56612
-1.5174
-1.46958
-1.41882
-1.35568
-1.2726
-1.1589
-1.01763
-0.855524
-1.41587
-1.54564
-1.63764
-1.69392
-1.71777
-1.71418
-1.68898
-1.64782
-1.59597
-1.53828
-1.4767
-1.41294
-1.34419
-1.26584
-1.17134
-1.05949
-0.933408
-0.808202
-0.701023
-1.30204
-1.44494
-1.55029
-1.61828
-1.65089
-1.65251
-1.62879
-1.58558
-1.5284
-1.4621
-1.38864
-1.30933
-1.22189
-1.12383
-1.01391
-0.896975
-0.781635
-0.680397
-0.598948
-1.19897
-1.35716
-1.47501
-1.55317
-1.5931
-1.59869
-1.57541
-1.52923
-1.46594
-1.39058
-1.30552
-1.21268
-1.11153
-1.00262
-0.888773
-0.777192
-0.675621
-0.590925
-0.523053
-1.11987
-1.2883
-1.41601
-1.50206
-1.54729
-1.55509
-1.53086
-1.48064
-1.41056
-1.32612
-1.23046
-1.12679
-1.01662
-0.90307
-0.790928
-0.687077
-0.59658
-0.522339
-0.462058
-1.06534
-1.2391
-1.37286
-1.46357
-1.51134
-1.51907
-1.49215
-1.43675
-1.35942
-1.26633
-1.16162
-1.04997
-0.934712
-0.820468
-0.712392
-0.615955
-0.533669
-0.466099
-0.409991
-1.03636
-1.21317
-1.34925
-1.44083
-1.48775
-1.4925
-1.46067
-1.3986
-1.31339
-1.21205
-1.09967
-0.982382
-0.864688
-0.751828
-0.648356
-0.558125
-0.481598
-0.417874
-0.363013
-1.03544
-1.21098
-1.34504
-1.43327
-1.47546
-1.47394
-1.43471
-1.36438
-1.27076
-1.16167
-1.04306
-0.922179
-0.804075
-0.693862
-0.59504
-0.509896
-0.437154
-0.37466
-0.317408
-1.05967
-1.22992
-1.3588
-1.44095
-1.4761
-1.46684
-1.41951
-1.3413
-1.24066
-1.12585
-1.00399
-0.882427
-0.766343
-0.660205
-0.56654
-0.485431
-0.414191
-0.347782
-0.277126
-1.09574
-1.25694
-1.37566
-1.44735
-1.47173
-1.45201
-1.39459
-1.30734
-1.19915
-1.07837
-0.953235
-0.830527
-0.715677
-0.612208
-0.522383
-0.445199
-0.379536
-0.322429
-0.272222
-1.14118
-1.29267
-1.40257
-1.46696
-1.48579
-1.46258
-1.40341
-1.31614
-1.20936
-1.09107
-0.969738
-0.851399
-0.741381
-0.642957
-0.558787
-0.488492
-0.433673
-0.3956
-0.380837
-1.19312
-1.33512
-1.43555
-1.49124
-1.50285
-1.47424
-1.41159
-1.32268
-1.21597
-1.0992
-0.980687
-0.866138
-0.7607
-0.667585
-0.589756
-0.527556
-0.483534
-0.45907
-0.456442
-1.25021
-1.38388
-1.47468
-1.52129
-1.52529
-1.49095
-1.42459
-1.33397
-1.2274
-1.11236
-0.996963
-0.886582
-0.786197
-0.698954
-0.627988
-0.573796
-0.538811
-0.523248
-0.526961
-1.31509
-1.43964
-1.51978
-1.55672
-1.55268
-1.5122
-1.44179
-1.34926
-1.24282
-1.12967
-1.01767
-0.911863
-0.817016
-0.736124
-0.672287
-0.625748
-0.598511
-0.589831
-0.598585
-1.39096
-1.50129
-1.56971
-1.59652
-1.58389
-1.53671
-1.46183
-1.36717
-1.26086
-1.1498
-1.04161
-0.940899
-0.852181
-0.778177
-0.721812
-0.682876
-0.663004
-0.660827
-0.674861
-1.46541
-1.563
-1.62071
-1.63736
-1.61569
-1.5614
-1.48182
-1.3851
-1.27925
-1.17081
-1.06714
-0.972305
-0.890542
-0.824191
-0.775942
-0.745064
-0.732981
-0.737898
-0.758151
-1.54014
-1.6304
-1.67762
-1.68308
-1.65122
-1.58889
-1.50403
-1.40501
-1.2997
-1.19421
-1.09558
-1.0073
-0.933216
-0.875254
-0.835856
-0.813739
-0.810244
-0.823215
-0.850858
-1.62481
-1.70409
-1.73792
-1.72991
-1.68622
-1.61483
-1.52437
-1.42326
-1.3191
-1.21746
-1.12495
-1.04438
-0.97921
-0.930874
-0.901594
-0.88951
-0.89599
-0.918524
-0.955191
-1.71758
-1.78058
-1.79794
-1.77405
-1.71698
-1.63595
-1.54009
-1.43769
-1.33588
-1.23946
-1.15461
-1.08332
-1.02865
-0.991537
-0.974043
-0.97368
-0.991979
-1.02605
-1.07387
-1.81171
-1.85734
-1.85526
-1.81295
-1.74122
-1.65052
-1.55011
-1.44782
-1.35003
-1.26061
-1.18525
-1.12506
-1.08274
-1.0587
-1.05497
-1.06836
-1.10073
-1.14881
-1.21049
-1.91221
-1.93584
-1.90885
-1.84507
-1.75787
-1.65818
-1.55472
-1.45447
-1.36279
-1.2824
-1.21865
-1.17159
-1.14368
-1.13483
-1.14715
-1.17666
-1.2258
-1.29089
-1.3699
-2.02363
-2.00955
-1.95142
-1.86449
-1.76255
-1.65603
-1.55222
-1.45688
-1.37412
-1.30537
-1.25582
-1.22434
-1.21334
-1.22222
-1.2534
-1.30197
-1.37131
-1.45731
-1.55826
-2.11259
-2.05646
-1.96677
-1.85879
-1.74583
-1.63706
-1.5374
-1.45122
-1.38123
-1.32748
-1.29538
-1.28253
-1.2915
-1.32131
-1.37497
-1.44651
-1.54083
-1.65344
-1.78331
-2.18293
-2.08613
-1.96441
-1.83799
-1.71824
-1.61183
-1.52044
-1.447
-1.39292
-1.35692
-1.34508
-1.35362
-1.38558
-1.43963
-1.51979
-1.61883
-1.74381
-1.89004
-2.05799
-2.23731
-2.0843
-1.93125
-1.79304
-1.67389
-1.57649
-1.4987
-1.44248
-1.40815
-1.3933
-1.40524
-1.43871
-1.49762
-1.58039
-1.69255
-1.82541
-1.98921
-2.17932
-2.3994
-2.22424
-2.01957
-1.84916
-1.71288
-1.60501
-1.52482
-1.46676
-1.43272
-1.42239
-1.43249
-1.47224
-1.53486
-1.62564
-1.74297
-1.89472
-2.07057
-2.28563
-2.53607
-2.83246
-2.12827
-1.90065
-1.73359
-1.61317
-1.52554
-1.46862
-1.43452
-1.42608
-1.4429
-1.48113
-1.55258
-1.64895
-1.77753
-1.93697
-2.13857
-2.37036
-2.65461
-2.98977
-3.40255
-1.93143
-1.71913
-1.57912
-1.48849
-1.42944
-1.4012
-1.39496
-1.4154
-1.46257
-1.53242
-1.64008
-1.77595
-1.95015
-2.16224
-2.42863
-2.73623
-3.11838
-3.57902
-4.18515
-1.6349
-1.48328
-1.39154
-1.34107
-1.31625
-1.32008
-1.34415
-1.39562
-1.47555
-1.58014
-1.72857
-1.9106
-2.14032
-2.4195
-2.77242
-3.18664
-3.71335
-4.36882
-5.32746
-1.2637
-1.20634
-1.17562
-1.17058
-1.18258
-1.21974
-1.27495
-1.35811
-1.4718
-1.61314
-1.80623
-2.04131
-2.33833
-2.70378
-3.17475
-3.74394
-4.49355
-5.46677
-7.13795
-0.862838
-0.904999
-0.936227
-0.976363
-1.02478
-1.0943
-1.17943
-1.29272
-1.4387
-1.61622
-1.85538
-2.14863
-2.52482
-2.99997
-3.63313
-4.43304
-5.5402
-7.05758
-10.3174
-0.481541
-0.596444
-0.678677
-0.758809
-0.840676
-0.939616
-1.05117
-1.19015
-1.36303
-1.57135
-1.85238
-2.20278
-2.66481
-3.27318
-4.12571
-5.27294
-6.97398
-9.47181
-16.561
-0.1579
-0.294213
-0.407898
-0.519831
-0.630754
-0.754926
-0.887284
-1.04437
-1.23342
-1.45981
-1.7689
-2.16168
-2.70171
-3.46531
-4.64366
-6.47337
-9.73222
-15.7363
-37.1748
)
;

boundaryField
{
    up
    {
        type            calculated;
        value           nonuniform List<scalar> 
84
(
-33.6872
-18.2447
-11.2012
-7.65159
-5.6548
-4.40931
-3.56434
-2.95377
-2.49247
-2.131
-1.8411
-1.60423
-1.40683
-1.24018
-1.09772
-0.974348
-0.866211
-0.770403
-0.684565
-0.606277
-0.532991
-0.460483
-0.378065
-0.245232
-0.238097
-0.300208
-0.346842
-0.393179
-0.44366
-0.501998
-0.572771
-0.661576
-0.794746
-1.34985
-1.7972
-1.84751
-1.79325
-1.81777
-1.86117
-1.90265
-1.93399
-1.95415
-1.9542
-1.93418
-1.90293
-1.86145
-1.81804
-1.79334
-1.84702
-1.79778
-1.3555
-0.795791
-0.662213
-0.573264
-0.502402
-0.444009
-0.3935
-0.347163
-0.300618
-0.238368
-0.245071
-0.378082
-0.460492
-0.532997
-0.606281
-0.684568
-0.770403
-0.866211
-0.974346
-1.09772
-1.24018
-1.40683
-1.60423
-1.8411
-2.131
-2.49247
-2.95378
-3.56434
-4.40931
-5.6548
-7.65159
-11.2012
-18.2447
-33.6872
)
;
    }
    low
    {
        type            calculated;
        value           nonuniform List<scalar> 
84
(
-0.169271
-0.502521
-0.908725
-1.34153
-1.74326
-2.06064
-2.26287
-2.35032
-2.33847
-2.25143
-2.16351
-2.05732
-1.92256
-1.80898
-1.70721
-1.60436
-1.51106
-1.43386
-1.35446
-1.26727
-1.19386
-1.13036
-1.07055
-1.01769
-0.968237
-0.938324
-0.940326
-0.978593
-1.04509
-1.13951
-1.25613
-1.37895
-1.52154
-1.6901
-1.87653
-2.09206
-2.3366
-2.55993
-2.74367
-2.89307
-3.00285
-3.07652
-3.07654
-3.00287
-2.89309
-2.74369
-2.55996
-2.33663
-2.0921
-1.87653
-1.69012
-1.52153
-1.37894
-1.25613
-1.13951
-1.04509
-0.978598
-0.940333
-0.938336
-0.968255
-1.01773
-1.07056
-1.13038
-1.19387
-1.26728
-1.35447
-1.43386
-1.51107
-1.60436
-1.70721
-1.80897
-1.92256
-2.05731
-2.1635
-2.25143
-2.33847
-2.35033
-2.26288
-2.06066
-1.74327
-1.34154
-0.908733
-0.502524
-0.169272
)
;
    }
    left
    {
        type            calculated;
        value           nonuniform List<scalar> 
19
(
-0.154842
-0.288569
-0.404304
-0.51968
-0.634903
-0.76385
-0.901829
-1.06628
-1.2648
-1.50541
-1.83574
-2.25902
-2.84751
-3.69259
-5.00887
-7.08634
-10.8306
-17.8117
-34.9415
)
;
    }
    right
    {
        type            calculated;
        value           nonuniform List<scalar> 
19
(
-0.154842
-0.28857
-0.404304
-0.51968
-0.634903
-0.76385
-0.901829
-1.06628
-1.2648
-1.50541
-1.83574
-2.25902
-2.84751
-3.69259
-5.00887
-7.08634
-10.8306
-17.8117
-34.9415
)
;
    }
    frontAndBackPlanes
    {
        type            empty;
    }
}


// ************************************************************************* //
