/*--------------------------------*- C++ -*----------------------------------*\
  =========                 |
  \\      /  F ield         | OpenFOAM: The Open Source CFD Toolbox
   \\    /   O peration     | Website:  https://openfoam.org
    \\  /    A nd           | Version:  7
     \\/     M anipulation  |
\*---------------------------------------------------------------------------*/
FoamFile
{
    version     2.0;
    format      ascii;
    class       volScalarField;
    location    "0.09";
    object      T;
}
// * * * * * * * * * * * * * * * * * * * * * * * * * * * * * * * * * * * * * //

dimensions      [0 0 0 1 0 0 0];

internalField   nonuniform List<scalar> 
1596
(
0.99444
0.978674
0.96308
0.949297
0.937949
0.929051
0.922375
0.917352
0.913557
0.910134
0.906488
0.901761
0.894271
0.881873
0.861512
0.826935
0.76704
0.659982
0.462003
0.976255
0.927781
0.883706
0.845983
0.815258
0.791229
0.773124
0.759635
0.749596
0.74128
0.733323
0.724039
0.710683
0.690054
0.658401
0.60954
0.534804
0.420188
0.239745
0.955605
0.875601
0.806221
0.748075
0.701107
0.664483
0.636886
0.616481
0.601559
0.589929
0.579806
0.569152
0.555013
0.534087
0.502791
0.455851
0.386871
0.287082
0.141275
0.93661
0.828919
0.737979
0.662711
0.602187
0.55503
0.519458
0.493261
0.474357
0.460301
0.449098
0.438588
0.425933
0.408064
0.381775
0.342654
0.285823
0.205462
0.0923432
0.922533
0.793002
0.684537
0.595092
0.52315
0.46696
0.424412
0.393059
0.370568
0.354355
0.342311
0.332259
0.32157
0.307498
0.287229
0.257049
0.21304
0.150945
0.0646906
0.914801
0.770235
0.648322
0.547298
0.46561
0.401422
0.352486
0.31624
0.290196
0.271694
0.258552
0.248601
0.239426
0.228588
0.213643
0.191442
0.158724
0.11208
0.0470789
0.912739
0.75979
0.62838
0.518154
0.428136
0.356745
0.301806
0.260765
0.231066
0.210008
0.195348
0.18492
0.176482
0.16786
0.156926
0.14102
0.117386
0.0831486
0.0347822
0.914419
0.758607
0.621324
0.504153
0.407165
0.329343
0.268791
0.223087
0.189682
0.165866
0.149341
0.137926
0.129498
0.122087
0.113831
0.102485
0.0857289
0.0611059
0.025675
0.918331
0.763635
0.623459
0.501364
0.398695
0.315221
0.249497
0.199342
0.162289
0.135645
0.117063
0.104332
0.0953886
0.0884048
0.0817229
0.073448
0.0616453
0.0442342
0.0187403
0.92218
0.770584
0.629762
0.504626
0.397696
0.309584
0.239394
0.185265
0.144875
0.115578
0.0949934
0.0808682
0.071162
0.0641298
0.0582606
0.0519394
0.043565
0.0314096
0.0134253
0.924808
0.776514
0.636364
0.509751
0.399992
0.308425
0.234701
0.17731
0.134117
0.102549
0.0802134
0.0648194
0.0543235
0.0470233
0.0415046
0.0363659
0.0302809
0.0218426
0.00939832
0.92744
0.782203
0.643083
0.515755
0.404057
0.309887
0.233375
0.173342
0.127847
0.0944025
0.0706103
0.0541467
0.0429464
0.035318
0.0299008
0.0254435
0.0208317
0.0149292
0.0064339
0.929494
0.786756
0.648596
0.520909
0.407888
0.311836
0.233253
0.171235
0.124007
0.0891566
0.0642861
0.0470387
0.0353199
0.0274304
0.0220347
0.0179806
0.0143068
0.0100909
0.00432251
0.930199
0.788794
0.651247
0.523391
0.409582
0.31237
0.232495
0.169241
0.12095
0.0852588
0.0597673
0.04209
0.030105
0.0221011
0.0167537
0.0129761
0.00991461
0.00680667
0.0028694
0.930393
0.789138
0.651506
0.523284
0.408889
0.310982
0.230417
0.166566
0.117815
0.081812
0.0561373
0.0383748
0.0263783
0.0184259
0.0131994
0.00965723
0.0070204
0.00464111
0.00190413
0.930347
0.788345
0.649845
0.520832
0.405801
0.307451
0.226642
0.162725
0.114051
0.078223
0.0527744
0.0352511
0.0234856
0.0157499
0.0107347
0.00743388
0.00512358
0.00323792
0.0012806
0.929717
0.786091
0.646005
0.515761
0.399997
0.301411
0.220771
0.157307
0.109241
0.0740716
0.0492538
0.0322862
0.0209848
0.0136251
0.0089151
0.00588489
0.00385669
0.00232658
0.000882823
0.92871
0.782667
0.640307
0.508368
0.391701
0.292994
0.212855
0.150291
0.103307
0.0692321
0.0454077
0.0292751
0.0186396
0.0117913
0.0074672
0.0047391
0.00297407
0.00171965
0.000626927
0.928337
0.779678
0.634428
0.500183
0.382199
0.283217
0.203649
0.142207
0.0965908
0.0638988
0.0413159
0.0262111
0.0163791
0.0101323
0.0062458
0.00383901
0.00232488
0.00129727
0.000457119
0.928348
0.77718
0.628649
0.491572
0.371856
0.272397
0.193412
0.133251
0.0892327
0.0581578
0.0370171
0.0230917
0.0141663
0.00858413
0.00516804
0.00309222
0.00181869
0.000986134
0.000338485
0.928095
0.774402
0.622426
0.482241
0.360567
0.260552
0.182226
0.123532
0.0813388
0.0520975
0.0325723
0.0199478
0.0120045
0.00712717
0.00419729
0.00245205
0.00140672
0.000745198
0.000250938
0.928087
0.772001
0.616521
0.473028
0.349174
0.248458
0.170756
0.113581
0.0733087
0.0459996
0.0281669
0.016891
0.00995139
0.00578165
0.00332964
0.00190046
0.00106507
0.000552615
0.000183536
0.928604
0.770619
0.611782
0.464896
0.338662
0.23703
0.159781
0.104013
0.0655955
0.0401756
0.0240001
0.0140384
0.0080677
0.00457223
0.00256785
0.001428
0.000778836
0.000393707
0.000128762
0.929579
0.770416
0.608651
0.458526
0.329848
0.2271
0.150052
0.0954367
0.0586468
0.0349276
0.0202586
0.0114938
0.00640305
0.00351592
0.00191095
0.00102438
0.000533068
0.000251455
7.27256e-05
0.93203
0.775185
0.613824
0.462837
0.332735
0.228566
0.150429
0.0951572
0.0580812
0.0343232
0.0197416
0.0111035
0.00613221
0.00333856
0.00179859
0.000952688
0.000484319
0.000216384
5.37956e-05
0.935149
0.783363
0.625405
0.475868
0.345433
0.239662
0.159303
0.10174
0.0626598
0.0373372
0.021633
0.0122438
0.00679689
0.00371617
0.00201016
0.00107091
0.000549724
0.000249764
6.44802e-05
0.937013
0.789513
0.635325
0.488187
0.358451
0.251862
0.169679
0.10987
0.0685919
0.0414029
0.0242665
0.013863
0.00774377
0.00424347
0.00229138
0.00121578
0.000622225
0.000283209
7.41024e-05
0.937624
0.793379
0.643088
0.499198
0.371261
0.264829
0.181463
0.119668
0.076143
0.0468468
0.0279604
0.0162294
0.0091732
0.00505365
0.00272012
0.00142645
0.00071791
0.000321442
8.30782e-05
0.93757
0.795896
0.649577
0.509556
0.384287
0.278849
0.194912
0.131434
0.0856697
0.0540594
0.0330996
0.0196855
0.0113614
0.00634747
0.00342622
0.00177605
0.00087175
0.000377822
9.40075e-05
0.936998
0.797596
0.655406
0.519724
0.397773
0.29401
0.210061
0.145242
0.0973375
0.0632964
0.0399981
0.0245603
0.0146119
0.00837331
0.00458788
0.00237378
0.00113904
0.000474319
0.000111504
0.936338
0.799421
0.661591
0.530543
0.4123
0.310661
0.227125
0.161273
0.111364
0.0748429
0.0490026
0.0312345
0.0193021
0.0114678
0.00647026
0.00339657
0.0016138
0.000647519
0.000143076
0.936531
0.802726
0.669458
0.543123
0.428703
0.329387
0.246511
0.179849
0.12806
0.0890489
0.0605203
0.0401642
0.0259117
0.0160981
0.00948388
0.00515411
0.00247883
0.000967368
0.000198309
0.937076
0.806753
0.678217
0.556724
0.446329
0.349642
0.267808
0.200714
0.147351
0.106021
0.0748271
0.0517693
0.0349722
0.0228681
0.014253
0.00821653
0.00415905
0.00164597
0.000292134
0.93783
0.811266
0.687619
0.571115
0.46497
0.371255
0.290893
0.223828
0.169303
0.125963
0.0922743
0.0665528
0.0471357
0.0325762
0.0217139
0.0136209
0.00768471
0.003519
0.000818566
0.938397
0.815032
0.69561
0.583546
0.481351
0.390611
0.312012
0.245479
0.190409
0.145691
0.110078
0.0821555
0.060467
0.0437031
0.0307623
0.0206904
0.0127953
0.00662693
0.00187877
0.937759
0.815245
0.697927
0.588536
0.489015
0.400554
0.323601
0.257998
0.203169
0.158097
0.121679
0.0926471
0.0696722
0.0515472
0.037246
0.0258378
0.016618
0.00907817
0.00280891
0.936244
0.813025
0.696397
0.588441
0.490626
0.40381
0.328234
0.263622
0.209369
0.164471
0.127885
0.0984123
0.0747896
0.0558742
0.0407058
0.0284038
0.0183202
0.0100065
0.00309099
0.935209
0.811639
0.695694
0.588966
0.492567
0.407106
0.332658
0.268858
0.215072
0.170306
0.133563
0.103699
0.0795061
0.0598952
0.0439619
0.0308675
0.0200043
0.0109656
0.00340344
0.934777
0.811211
0.695882
0.590112
0.494786
0.410339
0.336728
0.27352
0.220061
0.175361
0.138456
0.108245
0.0835588
0.063352
0.0467644
0.0329908
0.0214574
0.0117946
0.00367562
0.934508
0.811
0.696152
0.591104
0.49658
0.41289
0.339905
0.277142
0.22393
0.17928
0.142251
0.111774
0.0867079
0.0660387
0.0489414
0.0346374
0.0225808
0.012433
0.00388527
0.934274
0.81073
0.696179
0.591617
0.497646
0.414485
0.341944
0.279502
0.226477
0.181879
0.144781
0.114135
0.0888184
0.0678398
0.0503985
0.035735
0.0233242
0.0128511
0.00402139
0.933828
0.810092
0.695687
0.591423
0.497802
0.41498
0.342729
0.280507
0.227624
0.183093
0.145992
0.115284
0.0898592
0.0687368
0.05113
0.03629
0.0237026
0.0130655
0.00409215
0.93383
0.810098
0.695694
0.591432
0.497812
0.414991
0.342739
0.280517
0.227634
0.183101
0.145999
0.115291
0.0898652
0.068742
0.0511342
0.0362932
0.0237049
0.0130669
0.00409262
0.93428
0.810746
0.696202
0.591644
0.497676
0.414517
0.341975
0.279533
0.226505
0.181905
0.144805
0.114156
0.0888368
0.0678554
0.0504112
0.0357449
0.0233313
0.0128554
0.00402288
0.934518
0.811025
0.696189
0.591149
0.496629
0.412941
0.339956
0.277191
0.223976
0.179323
0.14229
0.111808
0.0867371
0.0660632
0.0489615
0.034653
0.0225919
0.0124396
0.00388758
0.93479
0.811245
0.695932
0.590172
0.494852
0.410408
0.336796
0.273586
0.220123
0.175418
0.138507
0.10829
0.0835973
0.0633843
0.0467907
0.0330111
0.0214718
0.0118032
0.00367861
0.935225
0.811682
0.695756
0.58904
0.49265
0.407192
0.332744
0.26894
0.215149
0.170377
0.133625
0.103754
0.0795526
0.0599339
0.0439932
0.0308915
0.0200213
0.0109758
0.00340694
0.936263
0.813074
0.696469
0.588529
0.490723
0.403911
0.328335
0.263719
0.209459
0.164552
0.127956
0.0984741
0.0748417
0.0559172
0.0407401
0.0284299
0.0183384
0.0100172
0.00309459
0.937781
0.815301
0.69801
0.588637
0.489128
0.400671
0.323717
0.258109
0.203271
0.158188
0.121758
0.092715
0.0697288
0.051593
0.0372818
0.0258643
0.0166361
0.00908861
0.00281243
0.938424
0.815113
0.695737
0.583709
0.481538
0.390811
0.312212
0.245672
0.190588
0.145852
0.110219
0.0822765
0.0605691
0.0437881
0.0308324
0.0207471
0.0128391
0.00665643
0.00189042
0.937864
0.811363
0.68777
0.571306
0.465188
0.371485
0.291122
0.224045
0.169501
0.126138
0.0924247
0.0666793
0.0472402
0.0326614
0.0217822
0.013674
0.0077231
0.00354245
0.00082661
0.937105
0.806839
0.678352
0.556895
0.446522
0.349844
0.268004
0.200896
0.147512
0.106159
0.0749417
0.0518621
0.0350459
0.0229254
0.0142962
0.00824726
0.00417831
0.00165521
0.000293953
0.936558
0.802808
0.669587
0.543287
0.428888
0.329577
0.246693
0.180013
0.128202
0.0891666
0.0606147
0.0402379
0.025968
0.01614
0.0095139
0.00517403
0.0024902
0.000972144
0.00019911
0.936363
0.799498
0.661714
0.530699
0.412474
0.310837
0.227291
0.16142
0.111487
0.0749417
0.0490792
0.0312923
0.0193445
0.0114981
0.00649085
0.00340943
0.00162067
0.000650187
0.000143433
0.937021
0.797668
0.655521
0.519871
0.397935
0.294171
0.21021
0.14537
0.0974424
0.0633781
0.0400594
0.0246049
0.0146434
0.00839477
0.00460176
0.00238195
0.00114315
0.000475816
0.000111665
0.93759
0.795961
0.649683
0.50969
0.384434
0.278994
0.195043
0.131544
0.0857574
0.0541257
0.0331477
0.0197192
0.0113843
0.00636246
0.00343543
0.00178119
0.000874196
0.000378672
9.4089e-05
0.937641
0.793436
0.643182
0.499318
0.371391
0.264955
0.181575
0.119761
0.0762146
0.0468995
0.0279976
0.0162547
0.00918976
0.00506404
0.00272622
0.00142971
0.000719417
0.000321972
8.31436e-05
0.937027
0.789562
0.635406
0.48829
0.358562
0.251968
0.169773
0.109946
0.0686493
0.0414442
0.024295
0.0138819
0.00775581
0.0042508
0.00229556
0.00121798
0.000623264
0.00028362
7.41856e-05
0.935161
0.783405
0.625474
0.475955
0.345525
0.239749
0.159379
0.101801
0.0627053
0.0373696
0.021655
0.0122582
0.00680593
0.00372159
0.00201325
0.00107258
0.000550571
0.000250157
6.45941e-05
0.932031
0.775194
0.613841
0.46286
0.33276
0.228591
0.150451
0.0951751
0.058095
0.0343333
0.0197486
0.0111082
0.00613517
0.0033403
0.00179954
0.000953149
0.000484499
0.000216406
5.37514e-05
0.929574
0.770405
0.608635
0.458507
0.329828
0.227082
0.150036
0.0954243
0.0586375
0.0349208
0.0202539
0.0114906
0.00640088
0.00351444
0.00190995
0.00102371
0.000532628
0.000251175
7.25872e-05
0.928603
0.770617
0.61178
0.464895
0.338662
0.23703
0.159783
0.104015
0.0655969
0.0401767
0.0240008
0.0140388
0.00806783
0.00457222
0.00256778
0.00142792
0.000778769
0.000393656
0.000128729
0.928087
0.771999
0.61652
0.473027
0.349174
0.248458
0.170757
0.113582
0.0733096
0.0460003
0.0281673
0.0168912
0.00995146
0.00578165
0.00332961
0.00190043
0.00106505
0.000552605
0.000183528
0.928095
0.774401
0.622425
0.48224
0.360567
0.260552
0.182227
0.123533
0.0813394
0.0520979
0.0325725
0.019948
0.0120046
0.00712723
0.00419734
0.00245211
0.00140678
0.00074524
0.000250948
0.928347
0.777179
0.628649
0.491571
0.371856
0.272398
0.193413
0.133252
0.089233
0.0581581
0.0370173
0.0230918
0.0141664
0.00858428
0.00516819
0.00309238
0.00181884
0.000986244
0.000338517
0.928337
0.779678
0.634428
0.500183
0.382199
0.283217
0.203649
0.142207
0.0965908
0.0638989
0.041316
0.0262113
0.0163793
0.0101325
0.00624608
0.00383931
0.00232516
0.00129748
0.000457181
0.928709
0.782667
0.640307
0.508368
0.391701
0.292994
0.212855
0.150291
0.103306
0.0692321
0.0454078
0.0292753
0.0186399
0.0117916
0.00746766
0.0047396
0.00297454
0.00171999
0.000627028
0.929717
0.786091
0.646005
0.515761
0.399997
0.30141
0.220771
0.157307
0.10924
0.0740715
0.0492539
0.0322864
0.0209853
0.0136257
0.00891582
0.00588567
0.00385742
0.00232709
0.000882966
0.930347
0.788345
0.649846
0.520832
0.405801
0.307451
0.226642
0.162725
0.114051
0.0782229
0.0527745
0.0352515
0.0234863
0.0157508
0.0107357
0.00743503
0.00512463
0.00323862
0.00128078
0.930394
0.789138
0.651506
0.523285
0.408889
0.310981
0.230417
0.166565
0.117814
0.0818119
0.0561376
0.0383754
0.0263793
0.0184272
0.0132009
0.0096588
0.00702175
0.00464195
0.00190431
0.930199
0.788795
0.651248
0.523391
0.409582
0.312369
0.232494
0.169241
0.12095
0.0852588
0.0597678
0.0420909
0.0301063
0.0221028
0.0167557
0.012978
0.00991616
0.00680752
0.00286952
0.929494
0.786756
0.648597
0.52091
0.407888
0.311836
0.233253
0.171234
0.124007
0.0891569
0.0642868
0.04704
0.0353216
0.0274326
0.022037
0.0179827
0.0143082
0.0100916
0.0043225
0.927441
0.782204
0.643083
0.515756
0.404057
0.309887
0.233375
0.173342
0.127847
0.094403
0.0706114
0.0541484
0.0429486
0.0353204
0.0299031
0.0254453
0.0208327
0.0149294
0.0064337
0.924809
0.776515
0.636365
0.509752
0.399992
0.308425
0.234701
0.17731
0.134117
0.10255
0.0802148
0.0648213
0.0543257
0.0470256
0.0415064
0.0363669
0.0302809
0.021842
0.00939794
0.922181
0.770585
0.629762
0.504626
0.397696
0.309584
0.239394
0.185265
0.144876
0.115579
0.0949949
0.08087
0.0711639
0.0641312
0.0582611
0.051939
0.0435637
0.0314083
0.0134248
0.918331
0.763635
0.623459
0.501363
0.398694
0.315221
0.249497
0.199342
0.162289
0.135645
0.117064
0.104333
0.0953894
0.0884048
0.0817217
0.0734457
0.0616426
0.0442322
0.0187399
0.91442
0.758606
0.621323
0.504152
0.407164
0.329343
0.26879
0.223087
0.189682
0.165866
0.149341
0.137926
0.129497
0.122085
0.113828
0.102481
0.0857254
0.0611038
0.0256749
0.912739
0.75979
0.628379
0.518153
0.428135
0.356744
0.301805
0.260765
0.231066
0.210007
0.195347
0.184918
0.176479
0.167856
0.156922
0.141016
0.117382
0.0831471
0.0347825
0.914801
0.770235
0.648321
0.547298
0.465609
0.401422
0.352486
0.316239
0.290195
0.271693
0.25855
0.248598
0.239421
0.228583
0.213637
0.191438
0.158721
0.112079
0.0470796
0.922533
0.793001
0.684536
0.595092
0.523149
0.466959
0.424412
0.393058
0.370567
0.354353
0.342308
0.332254
0.321565
0.307492
0.287224
0.257046
0.213039
0.150945
0.0646914
0.936609
0.828919
0.73798
0.662711
0.602187
0.55503
0.519457
0.493259
0.474355
0.460299
0.449094
0.438583
0.425928
0.40806
0.381772
0.342653
0.285824
0.205463
0.0923438
0.955605
0.875601
0.806221
0.748075
0.701108
0.664483
0.636886
0.616479
0.601557
0.589926
0.579803
0.569148
0.555009
0.534085
0.50279
0.455852
0.386873
0.287083
0.141276
0.976255
0.927781
0.883706
0.845984
0.815259
0.791229
0.773124
0.759634
0.749594
0.741278
0.733321
0.724036
0.710682
0.690053
0.658401
0.609542
0.534806
0.420189
0.239745
0.99444
0.978674
0.96308
0.949297
0.937949
0.929051
0.922375
0.917352
0.913557
0.910133
0.906488
0.901761
0.894271
0.881874
0.861513
0.826936
0.767041
0.659982
0.462003
)
;

boundaryField
{
    up
    {
        type            fixedValue;
        value           uniform 0;
    }
    low
    {
        type            fixedValue;
        value           uniform 1;
    }
    left
    {
        type            fixedValue;
        value           uniform 1;
    }
    right
    {
        type            fixedValue;
        value           uniform 1;
    }
    frontAndBackPlanes
    {
        type            empty;
    }
}


// ************************************************************************* //
