/*--------------------------------*- C++ -*----------------------------------*\
  =========                 |
  \\      /  F ield         | OpenFOAM: The Open Source CFD Toolbox
   \\    /   O peration     | Website:  https://openfoam.org
    \\  /    A nd           | Version:  7
     \\/     M anipulation  |
\*---------------------------------------------------------------------------*/
FoamFile
{
    version     2.0;
    format      ascii;
    class       volScalarField;
    location    "0.323";
    object      gradTz;
}
// * * * * * * * * * * * * * * * * * * * * * * * * * * * * * * * * * * * * * //

dimensions      [0 -1 0 1 0 0 0];

internalField   nonuniform List<scalar> 
1596
(
-6.45492e-16
-3.14693e-16
3.18763e-16
6.03391e-18
-6.0981e-16
0
-2.86283e-16
-2.82268e-16
-1.74246e-17
-1.4799e-16
-1.44407e-18
-1.4699e-16
6.45271e-16
-1.4513e-16
6.78643e-16
5.85222e-16
3.47985e-16
4.39195e-16
0
6.45949e-16
0
9.16274e-16
-5.70175e-18
-2.83076e-16
2.80877e-16
5.75557e-16
1.64926e-17
2.73311e-16
-1.31423e-16
2.62031e-16
-4.20198e-18
-3.63095e-16
-2.26466e-16
-5.48794e-16
-5.34998e-16
-4.86466e-16
2.76715e-16
0
-3.18079e-16
0
-6.00594e-16
9.0626e-18
5.55794e-16
-1.53574e-16
1.0552e-17
-3.90016e-18
-4.07032e-18
-4.40739e-18
1.01298e-16
0
1.88387e-16
5.35219e-16
-5.26745e-17
4.21886e-17
9.93304e-17
1.5447e-16
0
4.97975e-16
-1.5163e-16
1.51077e-16
0
-1.4591e-16
-1.50157e-16
2.5976e-16
-2.2978e-16
0
0
-7.88767e-17
5.28456e-17
0
-1.58147e-16
-2.02571e-16
1.39563e-16
-1.42072e-16
-7.3181e-18
0
8.67995e-17
2.3437e-16
-2.14214e-16
0
-6.40512e-17
-1.94253e-16
0
2.9227e-16
-2.92681e-17
-2.64826e-17
-2.24287e-17
1.53149e-16
1.86915e-16
1.90413e-17
4.85829e-18
-1.50922e-16
7.62159e-18
6.97802e-17
-2.98611e-17
-2.25404e-17
-3.21969e-16
3.09322e-16
-2.73778e-16
-5.07953e-19
-2.46535e-16
6.97329e-18
-6.99644e-18
-1.97433e-16
0
-1.83552e-17
-1.80838e-16
-1.68954e-16
1.38648e-16
1.40827e-16
-1.92948e-18
-8.4382e-17
-7.07771e-17
5.39912e-17
1.88375e-16
-3.28911e-16
3.73951e-16
2.11063e-16
0
1.88849e-16
1.12581e-16
-5.44065e-17
2.50794e-16
-4.7414e-17
-1.9884e-16
1.89506e-18
-1.19001e-16
-1.39331e-16
-1.10013e-16
9.2842e-17
8.51247e-17
-1.13235e-18
-2.25973e-17
1.63627e-17
5.21332e-16
-6.23084e-16
0
0
-2.37735e-16
0
0
0
1.68966e-16
0
0
1.08838e-16
4.29622e-18
2.76844e-17
-8.09965e-17
0
4.31176e-17
1.66264e-17
0
-3.41269e-16
6.5892e-16
0
0
2.44834e-16
0
-9.62106e-17
9.61133e-17
-1.71982e-16
7.23401e-17
-7.28692e-17
0
1.05333e-16
9.96897e-17
0
-5.76175e-17
-4.40673e-17
-1.44935e-17
8.06029e-16
-3.79706e-16
0
-2.81354e-16
2.78205e-16
0
2.14541e-16
0
0
0
6.79763e-17
-6.83022e-17
0
-8.11766e-17
-2.34735e-17
0
5.05941e-18
3.31952e-17
0
-2.0458e-16
0
0
2.82261e-16
-5.30852e-16
2.38359e-17
9.42464e-18
-9.04596e-17
9.12836e-18
2.65539e-18
-7.20489e-17
-1.17859e-16
0
8.91913e-17
-1.74999e-17
1.77626e-17
4.5147e-17
-2.59458e-17
-1.20838e-17
1.74854e-16
-1.59369e-17
1.67695e-16
5.84626e-16
-2.72684e-17
-2.50211e-16
0
0
0
1.48623e-16
6.07659e-17
2.20194e-16
-5.32192e-17
-8.75957e-17
-5.33628e-17
-2.84868e-17
1.26364e-17
-2.73458e-17
1.15252e-17
-1.9051e-16
1.86516e-16
-3.47406e-16
-5.77585e-16
5.39556e-16
2.20501e-16
-4.11408e-16
3.62576e-16
-3.18959e-16
8.29572e-17
6.52662e-17
-5.91837e-17
4.02953e-17
-3.55672e-17
1.03267e-16
0
-7.72219e-18
5.65502e-17
-8.37789e-18
-1.21923e-15
5.64241e-16
4.8919e-19
-1.3072e-16
1.4312e-17
2.14553e-16
-4.09872e-16
-1.73484e-16
1.5112e-16
-1.30854e-16
-1.1353e-16
0
-1.31394e-16
-3.92758e-17
-7.11618e-17
-4.23417e-17
3.34029e-18
-3.63704e-17
5.9633e-19
1.99272e-16
-1.79711e-16
4.20775e-19
-1.42301e-16
-3.63561e-16
3.44902e-16
1.02666e-18
1.6906e-16
-1.47135e-16
2.51835e-16
5.97957e-17
5.03051e-17
1.58369e-16
0
1.33178e-16
6.11637e-17
0
2.0156e-17
5.08805e-19
0
1.7434e-16
1.41285e-16
-2.91383e-16
3.52561e-16
-5.36063e-16
3.852e-16
1.51116e-16
-1.93785e-17
-2.49018e-16
4.73982e-17
-4.71643e-17
-1.46768e-16
5.95237e-17
-2.91164e-17
-6.2123e-17
2.73647e-17
-1.68958e-17
6.37058e-18
-1.85648e-16
6.42262e-16
-4.77345e-16
2.667e-16
0
0
-7.81899e-17
1.64927e-16
-1.2297e-16
2.32868e-16
0
0
1.00115e-16
-8.825e-17
-6.41631e-17
2.01487e-17
-2.12519e-17
1.10742e-17
0
1.31952e-17
1.73596e-16
-1.43807e-16
-1.2784e-16
-2.12534e-16
-7.38516e-17
9.67842e-17
0
-1.16244e-16
-9.72963e-17
8.84861e-17
-7.39134e-17
6.11991e-17
0
2.43143e-17
4.91375e-17
0
0
0
-1.2589e-17
2.85287e-16
1.13174e-16
-3.84431e-16
1.0888e-16
9.51159e-17
0
0
1.10394e-16
-5.73154e-17
-8.55853e-17
7.14878e-17
-5.91842e-17
0
-1.65425e-17
1.46614e-17
0
-1.21506e-17
-4.21604e-18
-1.50805e-16
4.42562e-16
-5.42833e-16
-2.23684e-16
1.16335e-16
-9.05008e-17
7.78005e-17
0
-5.59074e-17
4.76934e-17
0
0
2.39668e-17
-2.39944e-17
7.45599e-18
-9.45499e-18
1.77124e-17
1.89321e-18
3.1207e-18
7.66204e-17
-6.99351e-17
3.65227e-16
-2.36403e-16
-9.87708e-17
1.12308e-17
1.58656e-16
6.26692e-17
5.3495e-17
0
3.3303e-17
-3.09957e-17
2.52867e-17
-2.18676e-17
2.93278e-17
-5.09083e-17
-1.37837e-17
1.20719e-17
3.2657e-18
2.06659e-16
-2.0869e-16
0
2.01826e-16
-1.05509e-16
-8.19603e-17
5.98731e-17
-1.89307e-16
0
-3.18533e-18
-3.76781e-17
-2.82484e-17
4.25625e-17
-3.01912e-18
-2.83448e-17
2.12908e-17
0
7.9506e-18
-3.17097e-18
3.49021e-16
-6.26635e-17
2.72454e-16
-2.13792e-16
1.23066e-16
1.73125e-17
-1.43973e-16
-5.18931e-17
9.46979e-17
-3.55545e-18
-5.94414e-17
5.11319e-17
-2.27344e-17
-3.11424e-17
0
0
0
-8.02817e-18
3.00639e-19
-3.12998e-16
3.05537e-16
1.97665e-19
4.84731e-17
4.2602e-17
-1.06095e-16
1.2717e-16
-1.07392e-16
9.36017e-17
-3.27377e-17
6.26969e-17
2.31452e-17
-1.00008e-17
5.44978e-19
-3.89503e-18
-6.86082e-18
0
0
0
0
0
1.54492e-16
-7.20102e-17
-2.3888e-16
0
0
-3.10766e-17
-5.18591e-17
4.43967e-17
0
-2.91904e-17
2.33074e-17
-8.00279e-17
9.26593e-17
-3.12213e-17
3.33222e-17
3.69956e-18
0
-6.06672e-17
6.14139e-17
0
-5.12438e-17
5.21072e-17
8.87044e-17
0
3.13733e-17
4.38791e-17
-1.93501e-16
0
-3.18194e-17
2.54973e-17
1.89761e-17
-1.44321e-17
2.14048e-17
0
-8.09802e-18
0
-3.11885e-17
-3.13875e-17
1.86033e-18
5.26517e-17
-1.44045e-16
0
-3.8636e-17
0
1.15387e-16
4.80687e-17
0
1.26045e-16
-1.34844e-16
1.29648e-17
-3.22486e-17
8.08397e-18
4.09056e-17
1.59145e-17
-1.2599e-17
0
6.48063e-17
-5.79836e-17
7.21614e-17
8.88446e-17
0
7.89337e-17
-7.52413e-17
-6.16114e-17
9.58183e-17
-1.44179e-16
-7.3092e-17
0
0
1.73813e-17
0
0
5.16206e-18
0
-2.85818e-16
2.1909e-16
0
2.9763e-18
-5.21615e-17
-2.92545e-18
4.76259e-17
3.56649e-17
-4.33372e-17
-1.16462e-16
1.90442e-16
-5.12222e-17
0
-2.61888e-17
0
0
0
-1.98764e-17
1.58576e-17
-8.04579e-17
7.61705e-17
2.06997e-16
-2.03458e-16
6.33541e-17
3.22981e-18
-4.84091e-17
4.26685e-17
7.42384e-17
5.83914e-17
-1.15631e-16
0
6.39323e-17
1.06076e-17
-2.99691e-17
-6.80121e-17
5.63499e-17
-9.55551e-18
1.78594e-17
-2.708e-16
3.97787e-16
-3.95495e-16
7.083e-17
6.14309e-17
-5.89758e-17
5.01243e-17
-4.09156e-17
0
-3.60538e-17
5.98215e-17
2.60146e-17
4.27207e-17
5.62662e-17
-8.48213e-17
-9.59081e-19
0
-7.11925e-18
2.3676e-18
-2.92815e-16
-8.85617e-17
-1.58129e-16
8.34971e-17
-1.40379e-16
1.24329e-16
-7.47483e-17
6.48614e-17
-3.98117e-18
-3.99504e-18
-6.1956e-17
3.60826e-17
-2.17797e-17
6.56723e-17
-7.04998e-17
9.482e-18
7.66537e-18
0
-4.06264e-18
3.16597e-16
-9.53973e-17
0
0
-1.44693e-16
2.83001e-16
-6.69312e-17
-1.32577e-17
1.10594e-16
-2.80859e-18
0
0
-2.72527e-17
0
-6.07344e-17
1.49001e-16
-1.03957e-16
0
1.58493e-18
1.08813e-16
2.05112e-16
0
-8.91538e-17
-7.44948e-17
-6.7378e-17
-6.94267e-17
2.94469e-17
-8.30103e-17
-4.6378e-17
0
0
3.50184e-17
0
0
-8.11571e-17
1.33482e-16
0
0
7.46618e-16
-8.54173e-17
-4.57971e-16
-2.54719e-16
3.45057e-16
1.12002e-16
6.73178e-17
0
-2.53938e-17
2.51322e-17
6.19182e-17
-2.01137e-17
-3.07289e-17
4.78372e-17
-5.08842e-17
-1.60949e-17
0
0
0
5.97898e-17
-4.77323e-16
4.68417e-16
-4.54651e-17
-3.56991e-16
5.61929e-16
-2.83807e-16
0
0
1.57738e-16
-1.30171e-16
0
-4.03796e-17
7.00469e-17
-8.09268e-18
2.06638e-17
6.3573e-18
6.41865e-20
1.39985e-18
0
0
0
4.00226e-16
-2.6813e-16
2.87674e-16
-4.49866e-16
1.28996e-16
0
-4.75869e-17
7.70354e-17
-7.87347e-17
-1.5729e-17
-4.44326e-19
-1.09312e-17
-1.66764e-18
-8.69955e-18
-2.42471e-18
-1.33224e-18
5.01926e-16
-8.98421e-16
4.27446e-16
0
1.18091e-16
-1.60751e-16
1.6393e-16
-1.30088e-16
0
-6.49111e-17
9.10276e-17
0
0
-3.38383e-19
0
-1.10872e-17
7.60289e-18
1.44656e-18
2.11771e-18
4.8412e-16
0
-1.96746e-16
2.19827e-16
-1.40265e-16
3.0746e-16
-1.45968e-16
-1.16044e-16
1.17256e-16
-1.20276e-17
0
0
7.83677e-18
-1.33991e-17
-9.387e-18
1.78359e-17
-3.86124e-18
1.99307e-18
0
2.74954e-16
2.17504e-16
-6.03599e-18
-2.09338e-16
-2.13963e-17
-1.55818e-16
1.59082e-17
1.31971e-16
-6.88526e-18
1.22535e-17
0
0
-8.02825e-18
0
9.47852e-18
-1.01398e-17
0
1.30016e-18
-3.61324e-19
-1.45959e-16
-1.09048e-16
1.02085e-16
-1.1825e-17
-5.3365e-18
1.45354e-17
0
-3.88876e-18
5.88366e-17
-4.95499e-17
0
1.7044e-17
-3.29691e-18
-1.50987e-17
-1.38479e-18
-1.08155e-18
0
-1.01554e-18
0
5.99186e-17
-1.14279e-16
-1.85953e-18
4.95992e-17
4.60199e-17
-4.57539e-17
-3.2877e-17
3.7232e-17
-1.29395e-17
1.01105e-17
-9.94255e-18
1.02492e-17
0
2.64338e-20
-1.0187e-18
3.6682e-18
-1.25684e-20
0
0
5.99207e-17
-5.96961e-17
-4.93398e-17
4.36863e-17
8.1323e-17
-8.18031e-17
-1.6439e-17
1.64776e-17
-1.30486e-17
1.31857e-17
-9.94285e-18
1.8798e-17
-5.272e-18
-3.81762e-18
-1.17691e-18
3.89086e-19
9.32015e-19
2.46726e-19
-1.85059e-19
0
-1.42666e-17
8.60157e-17
-9.31777e-17
8.12431e-17
-7.19733e-17
0
5.8553e-17
-5.23426e-17
0
1.98332e-17
-2.51332e-17
-1.44076e-17
1.51001e-17
2.7966e-18
0
0
-1.01566e-18
3.69275e-19
2.38574e-16
-4.4076e-16
4.52835e-16
-4.0053e-16
1.57984e-16
-1.36467e-16
1.29402e-16
1.56053e-17
-5.85513e-17
5.2343e-17
0
-3.86442e-17
3.51647e-17
-6.74749e-18
-2.73927e-18
4.34868e-18
3.20242e-18
9.86009e-19
-3.56803e-19
5.46086e-16
0
-2.2246e-16
1.72816e-16
2.11501e-17
-1.64706e-16
2.93454e-16
-2.62604e-16
1.03445e-16
-4.49314e-17
4.59912e-17
9.16455e-18
1.59534e-17
6.57212e-18
-5.52211e-18
-7.01705e-19
-6.95081e-18
0
7.19924e-19
4.40787e-16
-4.96158e-16
0
4.64005e-17
2.03011e-16
-1.99197e-16
3.45148e-17
3.08883e-17
1.35299e-17
2.42171e-17
0
0
-2.77775e-17
5.24689e-17
-1.92432e-17
-6.94555e-18
7.60421e-18
6.12045e-19
-1.37298e-18
3.65257e-17
4.35814e-16
-5.1076e-17
-3.53767e-16
3.10434e-16
3.76617e-17
-3.3779e-17
-3.01686e-17
1.01166e-16
-1.25515e-16
7.70544e-17
-7.87532e-17
1.26367e-17
-1.57363e-17
2.93898e-17
-1.95425e-17
0
0
1.44719e-18
0
1.09808e-16
-3.34933e-16
3.82437e-16
-3.15991e-16
3.15238e-16
0
1.1318e-16
-1.13699e-16
-8.75077e-17
1.30259e-16
0
5.54936e-17
-7.00915e-17
-1.04139e-17
0
-1.20013e-18
-2.46664e-18
-4.36406e-22
-1.03451e-15
4.96004e-16
0
-3.44988e-16
3.44954e-16
2.16754e-16
-1.42612e-16
6.02788e-17
0
-2.78818e-18
2.16198e-17
-2.00845e-17
-3.06855e-17
4.77614e-17
-5.07862e-17
0
1.14889e-17
-2.70034e-18
-1.52478e-18
6.38808e-16
-6.3055e-16
0
8.92738e-17
8.23568e-17
-7.59616e-17
0
-6.31727e-17
-5.58653e-17
0
-1.86408e-18
0
3.50304e-17
0
0
1.67536e-17
6.34571e-17
-8.18009e-17
0
1.01772e-19
9.54428e-17
-8.92883e-17
7.51435e-17
-3.8087e-16
1.47045e-16
0
1.32665e-17
3.77422e-17
0
-4.00168e-17
1.20467e-16
-1.26558e-16
2.21394e-17
0
-2.06986e-18
0
0
0
9.41965e-20
0
8.25247e-17
0
-1.33112e-16
1.35228e-16
0
5.11264e-17
-4.20557e-17
1.54858e-16
-7.5191e-17
2.83275e-17
-4.66373e-17
4.56712e-17
-7.0576e-17
-1.14175e-17
0
-8.20835e-18
0
2.49669e-16
-4.21866e-16
0
-7.09754e-17
6.49114e-17
0
0
-9.38731e-17
0
-3.60775e-17
-5.98628e-17
-2.60356e-17
4.27589e-17
0
2.47206e-17
0
0
1.81498e-17
-2.03449e-17
0
3.69092e-16
-2.95926e-16
6.5707e-17
-6.01083e-17
-2.55493e-17
7.43918e-17
8.58836e-17
-1.08667e-16
3.52109e-17
1.63926e-18
-3.57178e-17
1.47594e-16
-4.60878e-17
-1.12296e-16
3.94709e-17
-1.0794e-17
6.41274e-18
-2.06367e-18
-5.88967e-16
2.1906e-16
0
0
2.60873e-17
-2.65278e-17
2.03405e-17
1.45466e-17
9.90294e-17
5.26728e-17
-5.30039e-17
-1.36614e-18
-3.20891e-17
2.6209e-17
0
1.40935e-17
9.89347e-18
5.59292e-18
1.86526e-18
0
1.92026e-16
-1.81786e-16
5.88564e-17
6.31598e-17
-1.22942e-17
-4.1279e-17
-3.62968e-17
-1.24585e-16
5.22639e-17
-3.44813e-17
4.5328e-17
3.00073e-17
-3.96816e-17
4.21196e-17
2.85935e-17
-3.6558e-17
-5.16589e-18
0
-3.32073e-17
-1.5196e-16
5.53746e-17
5.26648e-17
-1.86826e-16
1.35366e-16
7.11626e-17
-7.27391e-17
5.84684e-17
-4.96011e-17
0
0
-4.69175e-17
8.53521e-17
-3.83603e-17
3.79217e-17
-4.1316e-17
7.08714e-18
-1.26091e-17
6.27289e-17
5.9454e-17
-5.51974e-17
4.54118e-17
-5.15913e-17
-8.29709e-17
0
0
0
0
0
0
2.43233e-17
-6.6801e-17
7.06493e-17
-2.42113e-17
2.97889e-17
1.44239e-17
-1.22742e-17
1.29225e-16
-2.27245e-16
2.84777e-16
-1.4018e-16
1.93017e-16
-1.50001e-16
2.83971e-16
-1.63874e-16
-9.4497e-17
9.66662e-17
0
2.91715e-17
-2.37626e-17
6.15048e-17
-1.93759e-17
-2.66532e-17
-5.91236e-17
4.33743e-18
1.051e-17
2.00699e-16
5.92773e-17
0
-9.66575e-17
-7.97629e-17
1.85475e-16
2.17852e-17
-8.03471e-17
4.8821e-17
-3.67455e-17
0
-2.30926e-17
0
-2.02887e-17
1.68022e-17
-1.55577e-17
-5.20387e-18
3.76375e-18
0
2.8089e-16
-6.26626e-17
2.72339e-16
-2.13714e-16
-4.47028e-17
1.84042e-16
-1.10315e-16
4.87364e-18
4.10756e-18
-3.61685e-17
3.51735e-17
0
0
2.43175e-17
-9.38207e-18
6.30609e-18
1.88e-17
-6.53385e-18
0
5.33187e-20
0
-5.97942e-17
3.61894e-16
-2.4648e-16
-2.75664e-16
1.51734e-16
-1.69287e-16
1.58871e-16
8.28165e-17
-6.54355e-17
2.73899e-17
-2.48844e-17
3.99345e-18
4.39423e-17
2.06996e-18
-1.76173e-17
1.74297e-17
-3.53504e-18
6.88102e-16
-2.20516e-16
1.13842e-16
-3.48717e-16
9.87701e-17
-1.6109e-16
8.52676e-17
0
0
-3.25819e-18
-4.30244e-18
-1.26299e-18
0
-3.75592e-17
-2.9328e-17
2.2e-17
-1.62471e-18
2.66694e-18
6.88123e-18
0
-2.21546e-16
3.85384e-16
9.29263e-17
-3.24086e-16
9.05003e-17
-1.45309e-16
2.02758e-17
1.22264e-16
0
0
2.33056e-18
2.94864e-17
0
-2.76943e-17
-1.29913e-17
1.90225e-18
-7.03136e-18
-7.80619e-18
0
-1.42109e-16
2.61523e-17
2.60501e-16
2.05157e-16
-3.80548e-16
1.75568e-16
-1.30448e-16
6.89461e-17
-1.01531e-16
0
0
0
-4.8329e-17
1.42258e-17
-1.66236e-17
0
-1.0481e-18
5.2825e-18
-5.19744e-16
4.95214e-16
5.48317e-16
-6.67135e-16
3.252e-16
-3.08281e-16
0
1.36582e-16
-1.89194e-16
1.12633e-16
-9.10634e-17
7.66415e-17
6.39471e-17
4.99829e-17
4.01247e-17
0
0
0
0
5.69734e-16
-3.35309e-16
0
0
-1.17316e-16
2.95973e-16
-1.90311e-16
-1.4373e-16
1.4211e-16
1.11349e-16
1.9173e-16
-7.95229e-17
3.37754e-17
2.64516e-17
2.0045e-17
1.61016e-17
2.6336e-17
-1.30306e-18
1.32728e-18
-5.79801e-16
5.3802e-16
2.96849e-16
-1.53031e-16
3.52629e-16
-2.27222e-16
-1.86753e-16
-1.62209e-16
0
-2.31595e-16
9.55555e-18
8.8545e-17
-7.18464e-17
-5.95238e-17
-2.20368e-17
-2.37788e-17
-1.89373e-17
0
0
-1.99446e-16
0
1.59921e-16
-3.241e-19
0
0
1.92642e-16
1.67377e-16
0
1.2454e-16
0
-1.3459e-16
-3.78726e-17
6.79305e-17
0
4.40267e-17
-6.25666e-18
6.38263e-18
0
4.21766e-16
0
3.10696e-16
-5.8239e-16
5.28206e-16
4.41798e-16
-1.15344e-17
0
1.06904e-17
1.41443e-16
0
-1.47565e-16
1.68702e-16
-1.5059e-16
-3.29841e-17
-3.55201e-17
-1.02817e-17
-1.80448e-18
-6.19347e-18
-3.97653e-16
5.74307e-16
-1.66351e-16
-4.44173e-16
-2.62713e-16
-2.32554e-16
-4.10718e-16
-1.70703e-16
1.13768e-17
6.5389e-17
-6.52661e-17
2.13117e-16
-9.41718e-17
1.92093e-16
-3.60086e-17
0
3.99359e-17
-2.32147e-17
6.3071e-18
8.67382e-16
-1.63616e-17
-6.85e-16
5.84629e-16
-5.33428e-16
4.75451e-16
-1.26575e-17
-1.88545e-16
1.67775e-16
6.88843e-17
-8.1006e-18
-1.72136e-16
5.08703e-17
5.10198e-17
-1.59711e-17
1.61532e-17
-4.13638e-17
-3.35878e-18
-9.19115e-18
4.25807e-16
1.84327e-16
3.30178e-16
-2.96213e-16
-2.52366e-16
1.10765e-17
-2.02249e-16
4.91892e-16
1.4017e-17
2.35437e-16
1.39243e-16
-1.2404e-16
0
-8.91912e-17
0
0
5.47636e-17
2.44429e-17
1.07616e-17
4.02468e-16
0
3.26381e-16
2.94301e-16
-2.66566e-16
2.38558e-16
0
-1.93237e-16
-2.70255e-16
-2.39902e-16
-1.40475e-16
1.25442e-16
0
0
0
0
-5.13072e-17
-3.67519e-17
0
-7.88676e-16
0
-1.35551e-17
-1.1978e-17
4.0425e-16
-2.34258e-16
-1.08738e-16
-1.09045e-16
2.72211e-16
0
7.23397e-17
-7.77216e-18
6.33287e-17
0
0
8.26203e-17
-6.12373e-18
4.41104e-17
-1.62334e-17
5.56369e-16
1.64053e-16
-1.6236e-16
-1.4653e-16
-5.20635e-16
3.63068e-16
4.44628e-16
-9.66645e-18
-1.84371e-16
1.80213e-16
3.82283e-17
-1.92321e-16
-1.5941e-16
-9.39289e-17
-9.90316e-17
-9.51938e-17
7.68928e-17
-3.64717e-18
1.66265e-17
-1.71981e-16
7.93348e-17
-3.84208e-16
6.7526e-17
-6.72803e-17
0
-2.2e-16
-1.24758e-17
-2.03573e-16
1.41941e-17
1.98839e-16
1.49092e-16
-3.61076e-17
1.76487e-17
9.43164e-17
0
-1.58662e-16
-5.74049e-17
-1.19734e-18
3.4684e-16
-9.64845e-18
6.03647e-16
-2.90536e-16
5.07952e-19
7.8761e-18
2.37885e-16
-1.55572e-17
1.97433e-16
-1.8497e-16
-1.73675e-16
0
1.68954e-16
1.36534e-16
1.86336e-18
-2.70319e-18
8.51963e-17
5.83533e-17
0
-2.47107e-16
0
-6.27301e-17
2.76201e-16
3.4404e-18
6.41367e-17
-2.30031e-16
2.18279e-16
2.27383e-16
2.17542e-16
2.08553e-16
0
-1.64136e-16
0
8.52683e-18
-8.85587e-18
0
-8.34098e-19
4.083e-17
1.6948e-16
7.60778e-18
-1.39165e-16
4.26768e-16
-1.37751e-16
0
0
-2.51613e-16
-2.20311e-16
-2.1075e-16
-3.78727e-16
-5.28456e-17
0
0
0
-1.72061e-17
1.82083e-17
1.15736e-16
-4.14491e-17
7.8278e-18
0
-2.95045e-16
-2.73333e-16
2.84191e-16
-2.81784e-16
-4.05039e-16
5.00941e-16
1.37018e-16
0
2.21676e-16
2.4784e-16
-5.35143e-17
2.89504e-16
-4.73274e-17
4.92563e-17
1.90538e-16
-1.09978e-16
0
-3.24347e-16
0
-3.12038e-16
3.06385e-16
0
5.59256e-16
2.6385e-16
-5.50506e-16
4.36758e-16
-3.05e-18
-1.32769e-16
-2.3996e-16
0
3.26587e-16
-5.48793e-16
5.88514e-16
-7.49875e-16
0
0
3.22662e-16
-1.80526e-18
-4.45094e-18
-6.15407e-16
6.19781e-16
-3.00493e-16
2.99268e-16
2.94897e-16
-2.63446e-16
0
0
4.89179e-16
-4.97606e-16
-5.33601e-16
5.28475e-16
-5.1446e-16
5.56138e-16
-8.70872e-16
0
)
;

boundaryField
{
    up
    {
        type            calculated;
        value           nonuniform List<scalar> 
84
(
0
0
0
0
-2.98611e-17
5.39912e-17
-2.25973e-17
1.66264e-17
-1.44935e-17
0
-1.20838e-17
1.15252e-17
-8.37789e-18
5.9633e-19
5.08805e-19
6.37058e-18
0
0
-4.21604e-18
3.1207e-18
3.2657e-18
-3.17097e-18
3.00639e-19
0
1.31619e-18
5.69741e-19
-1.20712e-17
0
1.58576e-17
1.85285e-17
2.3676e-18
-4.06264e-18
1.58493e-18
0
-7.78544e-19
1.45481e-18
-1.33356e-18
2.11652e-18
0
-3.61147e-19
0
0
-1.85206e-19
3.69275e-19
-3.56803e-19
7.19924e-19
-1.37298e-18
1.44719e-18
-4.36406e-22
-1.52478e-18
0
0
0
-2.03449e-17
-2.73311e-18
1.86526e-18
0
-1.26091e-17
-1.22742e-17
9.19843e-18
0
0
-3.53504e-18
6.88123e-18
-7.80619e-18
5.2825e-18
0
1.32728e-18
0
0
-6.19347e-18
6.3071e-18
-9.19115e-18
1.07616e-17
0
-1.62334e-17
1.66265e-17
-1.19734e-18
0
4.083e-17
-4.14491e-17
0
0
0
)
;
    }
    low
    {
        type            calculated;
        value           nonuniform List<scalar> 
84
(
-6.45878e-16
6.45949e-16
-3.17378e-16
4.98546e-16
8.71879e-17
-2.26555e-17
1.89343e-16
1.72894e-17
0
8.07091e-16
-2.0458e-16
1.74305e-16
-1.9051e-16
-1.21917e-15
1.99272e-16
0
-1.85648e-16
1.31952e-17
-1.2589e-17
-1.50805e-16
7.66204e-17
2.06659e-16
3.47907e-16
-3.12998e-16
0
-6.06672e-17
-3.11885e-17
0
-2.85818e-16
-8.04579e-17
-2.70036e-16
-2.92186e-16
3.16143e-16
1.08813e-16
7.46574e-16
5.97898e-17
0
5.01926e-16
4.85016e-16
2.75456e-16
-1.46231e-16
5.99186e-17
5.99207e-17
0
2.38574e-16
5.46981e-16
4.40787e-16
3.70809e-17
0
-1.03447e-15
6.38808e-16
1.01772e-19
9.41965e-20
2.49669e-16
0
-5.87816e-16
0
-3.32073e-17
6.27289e-17
1.28555e-16
1.99514e-16
2.79776e-16
5.33187e-20
6.87152e-16
0
0
-5.19744e-16
5.6921e-16
-5.79427e-16
-1.99446e-16
4.21706e-16
-3.97653e-16
8.68479e-16
4.26615e-16
4.02468e-16
-7.88676e-16
5.55442e-16
-1.71013e-16
3.4684e-16
-2.46718e-16
1.6948e-16
8.52839e-18
-3.24347e-16
3.22856e-16
)
;
    }
    left
    {
        type            calculated;
        value           nonuniform List<scalar> 
19
(
-6.45492e-16
-3.14907e-16
3.18763e-16
6.02782e-18
-6.09952e-16
0
-2.86283e-16
-2.82268e-16
-1.83191e-17
-1.4799e-16
-1.44407e-18
-1.4699e-16
6.51851e-16
-1.4513e-16
6.78643e-16
5.85222e-16
3.47985e-16
5.10135e-16
0
)
;
    }
    right
    {
        type            calculated;
        value           nonuniform List<scalar> 
19
(
3.22662e-16
-1.5911e-18
-4.45094e-18
-6.15401e-16
6.19924e-16
-3.00493e-16
2.99268e-16
2.94897e-16
-2.62552e-16
0
0
4.93845e-16
-5.04186e-16
-5.33601e-16
5.28475e-16
-5.1446e-16
5.56138e-16
-9.41812e-16
0
)
;
    }
    frontAndBackPlanes
    {
        type            empty;
    }
}


// ************************************************************************* //
