/*--------------------------------*- C++ -*----------------------------------*\
  =========                 |
  \\      /  F ield         | OpenFOAM: The Open Source CFD Toolbox
   \\    /   O peration     | Website:  https://openfoam.org
    \\  /    A nd           | Version:  7
     \\/     M anipulation  |
\*---------------------------------------------------------------------------*/
FoamFile
{
    version     2.0;
    format      ascii;
    class       volScalarField;
    location    "0.13";
    object      gradTz;
}
// * * * * * * * * * * * * * * * * * * * * * * * * * * * * * * * * * * * * * //

dimensions      [0 -1 0 1 0 0 0];

internalField   nonuniform List<scalar> 
1596
(
-1.12938e-15
-5.42863e-16
5.5852e-16
1.83985e-17
-1.04602e-15
0
-4.77531e-16
-4.71013e-16
-4.06507e-17
-2.53178e-16
-1.67835e-18
-2.53627e-16
1.12922e-15
-2.52817e-16
1.1773e-15
1.0191e-15
6.07057e-16
7.69044e-16
0
1.12122e-15
0
1.53624e-15
-1.55098e-17
-4.53394e-16
4.47877e-16
9.47948e-16
3.93453e-17
4.44215e-16
-2.16174e-16
4.32943e-16
-4.83659e-18
-6.03185e-16
-3.79469e-16
-9.50913e-16
-9.31132e-16
-8.49318e-16
4.85129e-16
0
-5.39854e-16
0
-9.80904e-16
2.44594e-17
8.61275e-16
-2.59951e-16
2.88475e-17
-5.79603e-18
-5.07241e-18
-4.82509e-18
1.48247e-16
0
3.12631e-16
8.79555e-16
-8.72883e-17
7.2014e-17
1.68429e-16
2.69062e-16
0
8.60979e-16
-2.44643e-16
2.4375e-16
0
-2.2956e-16
-2.42557e-16
3.84117e-16
-3.14121e-16
0
0
-1.39783e-16
7.7685e-17
0
-2.54944e-16
-3.16414e-16
2.23566e-16
-2.41479e-16
-1.23519e-17
0
1.51899e-16
3.8009e-16
-3.22952e-16
0
-8.89478e-17
-2.74664e-16
0
3.96415e-16
-3.83062e-17
-3.47464e-17
-5.38515e-17
1.98665e-16
2.53098e-16
2.81708e-17
2.36096e-17
-2.41599e-16
1.20383e-17
1.12835e-16
-4.99704e-17
-3.94458e-17
-5.18993e-16
4.71824e-16
-3.87917e-16
-1.243e-18
-3.12318e-16
8.58116e-18
-8.60964e-18
-2.27334e-16
0
-4.45222e-17
-2.36675e-16
-2.27978e-16
1.76265e-16
2.0453e-16
-2.73547e-18
-1.2299e-16
-1.14447e-16
8.86385e-17
3.29655e-16
-5.2549e-16
5.55536e-16
2.959e-16
0
2.42249e-16
1.32988e-16
-6.27539e-17
2.86162e-16
-5.19699e-17
-2.2902e-16
1.56822e-18
-1.28985e-16
-1.76943e-16
-1.31234e-16
1.16866e-16
1.24072e-16
-1.69056e-18
-3.63254e-17
4.64382e-17
8.42505e-16
-9.30632e-16
0
0
-2.82468e-16
0
0
0
1.61452e-16
0
0
1.20184e-16
3.1756e-18
4.43912e-17
-1.03269e-16
0
5.49313e-17
2.29133e-17
0
-5.29236e-16
1.00323e-15
0
0
2.90903e-16
0
-9.48741e-17
9.47781e-17
-1.64335e-16
6.45704e-17
-6.50427e-17
0
9.27642e-17
1.05187e-16
0
-6.03342e-17
-5.60652e-17
-2.02343e-17
1.37546e-15
-6.29966e-16
0
-3.75538e-16
3.71335e-16
0
2.28099e-16
0
0
0
5.50217e-17
-5.52854e-17
0
-7.25032e-17
-1.96382e-17
0
1.25614e-17
3.25502e-17
0
-3.49435e-16
0
0
3.78057e-16
-6.8209e-16
5.42194e-17
2.14411e-17
-8.32689e-17
1.45766e-17
5.70449e-18
-5.65105e-17
-8.22059e-17
0
6.03068e-17
-1.32631e-17
1.34621e-17
4.10965e-17
-2.60956e-17
-1.1283e-17
2.63081e-16
-4.4147e-17
2.54025e-16
8.03848e-16
-6.62566e-17
-3.07372e-16
0
0
0
1.17747e-16
4.20269e-17
1.45959e-16
-3.48704e-17
-5.92279e-17
-3.12699e-17
-1.89941e-17
8.65724e-18
-1.94876e-17
1.05984e-17
-3.0846e-16
3.0342e-16
-5.45149e-16
-7.95492e-16
7.12459e-16
2.45725e-16
-4.36358e-16
3.44621e-16
-2.7102e-16
7.16273e-17
4.68673e-17
-4.02669e-17
2.05582e-17
-1.99523e-17
6.06471e-17
0
-4.7741e-18
3.67391e-17
-5.55359e-18
-2.08434e-15
9.31517e-16
6.66534e-19
-1.68733e-16
3.53226e-17
2.38949e-16
-4.43538e-16
-1.61834e-16
1.24655e-16
-9.52029e-17
-7.30691e-17
0
-7.20221e-17
-2.06035e-17
-3.35171e-17
-1.95459e-17
1.51599e-18
-2.02075e-17
1.2174e-18
3.40577e-16
-2.90514e-16
1.7432e-19
-2.00065e-16
-4.54105e-16
4.16934e-16
2.32705e-18
1.57707e-16
-1.21368e-16
1.81338e-16
4.07289e-17
3.01429e-17
8.01744e-17
0
5.87426e-17
2.6559e-17
0
1.00939e-17
8.89206e-19
0
2.81832e-16
1.97453e-16
-4.24985e-16
4.38842e-16
-6.25029e-16
4.13359e-16
1.31006e-16
-3.07649e-17
-1.83449e-16
2.74031e-17
-2.72679e-17
-6.98782e-17
2.45666e-17
-1.28195e-17
-2.47667e-17
9.64271e-18
-6.08525e-18
2.93537e-18
-3.16767e-16
1.00262e-15
-7.54098e-16
3.69505e-16
0
0
-7.15544e-17
1.59771e-16
-9.14099e-17
1.65773e-16
0
0
4.51119e-17
-3.68037e-17
-2.22523e-17
7.04892e-18
-7.60771e-18
4.14998e-18
0
3.87285e-17
2.96471e-16
-2.15938e-16
-1.78651e-16
-2.54526e-16
-5.79203e-17
1.08729e-16
0
-8.41039e-17
-5.83384e-17
4.97114e-17
-3.55171e-17
2.52418e-17
0
8.90169e-18
1.47164e-17
0
0
0
-3.76477e-17
4.24034e-16
1.35316e-16
-5.43068e-16
1.34109e-16
1.06694e-16
0
0
7.73149e-17
-4.12266e-17
-4.80817e-17
3.43515e-17
-2.44107e-17
0
-4.79587e-18
3.48582e-18
0
-2.87022e-18
-1.02279e-18
-2.41136e-16
7.08242e-16
-8.21101e-16
-2.89059e-16
1.56626e-16
-9.76771e-17
7.37714e-17
0
-3.95828e-17
3.00854e-17
0
0
8.4066e-18
-8.41629e-18
1.9741e-18
-3.10543e-18
3.84664e-18
7.3315e-19
7.77036e-19
1.30515e-16
-1.11468e-16
5.23451e-16
-3.33381e-16
-1.18065e-16
2.19806e-17
1.57608e-16
4.97948e-17
3.78748e-17
0
1.53229e-17
-1.39292e-17
9.60798e-18
-7.13821e-18
7.1782e-18
-1.14623e-17
-2.97234e-18
2.5035e-18
6.06559e-19
3.37098e-16
-3.4802e-16
0
2.54555e-16
-1.39269e-16
-8.65664e-17
4.56536e-17
-1.57388e-16
0
-2.7497e-18
-1.94677e-17
-1.14067e-17
1.36974e-17
-1.56859e-18
-6.93761e-18
4.57119e-18
0
1.32002e-18
-5.88964e-19
6.07626e-16
-9.96423e-17
3.83051e-16
-2.97647e-16
1.32733e-16
-5.12102e-18
-1.37891e-16
-3.61744e-17
6.12116e-17
-3.72534e-18
-2.47471e-17
1.91488e-17
-7.63993e-18
-7.90874e-18
0
0
0
-1.33005e-18
4.70026e-20
-5.19637e-16
5.00327e-16
3.09162e-19
6.35891e-17
4.95726e-17
-1.02379e-16
1.11165e-16
-7.95787e-17
5.99893e-17
-1.5139e-17
2.79234e-17
7.87352e-18
-2.97347e-18
1.49923e-19
-6.56831e-19
-1.18556e-18
0
0
0
0
0
2.11139e-16
-1.24575e-16
-2.93298e-16
0
0
-2.29328e-17
-3.14714e-17
2.27301e-17
0
-9.92995e-18
6.54668e-18
-1.79677e-17
1.98465e-17
-5.2557e-18
5.55175e-18
5.47035e-19
0
-1.00427e-16
1.01663e-16
0
-6.84424e-17
6.80413e-17
9.82361e-17
0
2.31518e-17
2.20106e-17
-1.06952e-16
0
-1.17192e-17
7.80947e-18
4.57714e-18
-2.95709e-18
3.93142e-18
0
-1.22494e-18
0
-5.17271e-17
-4.86857e-17
2.87451e-18
7.03228e-17
-1.71991e-16
0
-3.56011e-17
0
7.56137e-17
2.56939e-17
0
4.63315e-17
-4.35009e-17
5.47123e-18
-5.89412e-18
2.99141e-18
7.61693e-18
2.47188e-18
-1.96138e-18
0
1.0413e-16
-8.26584e-17
1.01058e-16
1.07081e-16
0
7.09346e-17
-6.3917e-17
-4.12626e-17
5.15332e-17
-7.62267e-17
-3.01845e-17
0
0
4.1132e-18
0
0
9.25847e-19
0
-4.75127e-16
3.67628e-16
0
8.19262e-18
-6.04493e-17
-3.03484e-18
4.706e-17
2.65171e-17
-3.82542e-17
-7.35785e-17
9.9251e-17
-2.77275e-17
0
-9.16127e-18
0
0
0
-3.62434e-18
2.91006e-18
-1.37597e-16
1.22883e-16
3.04012e-16
-2.89877e-16
8.32478e-17
6.67603e-18
-4.76749e-17
3.67486e-17
5.54642e-17
3.65689e-17
-7.13606e-17
0
2.59074e-17
1.53458e-20
-1.04835e-17
-1.86308e-17
1.48732e-17
-1.82633e-18
3.72459e-18
-4.77364e-16
6.28105e-16
-6.15697e-16
9.98873e-17
7.68609e-17
-7.02185e-17
5.60787e-17
-3.87579e-17
0
-2.71804e-17
3.63226e-17
1.54386e-17
2.25243e-17
2.29744e-17
-3.32181e-17
-1.46119e-18
0
-1.66968e-18
5.74441e-19
-5.15995e-16
-1.43552e-16
-2.33171e-16
1.28046e-16
-1.83805e-16
1.46749e-16
-8.39896e-17
6.29115e-17
-6.72647e-18
-6.43573e-18
-4.12823e-17
2.61046e-17
-9.63912e-18
3.14953e-17
-3.38106e-17
2.57107e-18
3.07096e-18
0
-1.05663e-18
5.57903e-16
-1.55803e-16
0
0
-1.88613e-16
3.57927e-16
-7.92953e-17
-1.30814e-17
1.00904e-16
-3.00711e-18
0
0
-1.63942e-17
0
-3.12391e-17
7.15101e-17
-4.81578e-17
0
4.67384e-19
1.86646e-16
3.35698e-16
0
-1.31192e-16
-9.59817e-17
-7.6255e-17
-8.32986e-17
3.07874e-17
-8.23628e-17
-4.02325e-17
0
0
2.65687e-17
0
0
-4.55278e-17
7.60385e-17
0
0
1.28192e-15
-1.72008e-16
-7.33667e-16
-3.64275e-16
4.97209e-16
1.45734e-16
8.07684e-17
0
-2.6018e-17
2.28666e-17
5.74412e-17
-1.78672e-17
-2.33143e-17
3.51989e-17
-3.74408e-17
-1.01261e-17
0
0
0
1.02651e-16
-7.71878e-16
7.53519e-16
-6.83421e-17
-4.9428e-16
7.54424e-16
-3.6877e-16
0
0
1.60541e-16
-1.28815e-16
0
-3.37309e-17
5.99125e-17
-5.83746e-18
1.65333e-17
4.83253e-18
7.03645e-20
1.00135e-18
0
0
0
5.91022e-16
-3.98333e-16
3.80674e-16
-5.85029e-16
1.61294e-16
0
-5.14472e-17
7.72261e-17
-7.89296e-17
-1.41936e-17
4.08992e-19
-9.07974e-18
-1.12776e-18
-7.23991e-18
-2.08419e-18
-1.10878e-18
8.49099e-16
-1.49035e-15
6.94693e-16
0
1.6614e-16
-2.27646e-16
2.10123e-16
-1.66225e-16
0
-7.11527e-17
9.99272e-17
0
0
3.82807e-19
0
-1.01501e-17
6.8642e-18
1.07153e-18
1.7957e-18
8.48118e-16
0
-3.082e-16
3.43656e-16
-2.00133e-16
4.30787e-16
-1.99416e-16
-1.44016e-16
1.4552e-16
-1.4067e-17
0
0
8.22465e-18
-1.31164e-17
-9.14223e-18
1.71592e-17
-3.7045e-18
1.8199e-18
0
4.80754e-16
3.55915e-16
-2.25434e-17
-3.28994e-16
-3.14625e-17
-2.15726e-16
3.00104e-17
1.7434e-16
-8.55135e-18
1.43312e-17
0
0
-8.42561e-18
0
9.62313e-18
-1.02944e-17
0
1.30361e-18
-3.57643e-19
-2.55009e-16
-1.78827e-16
1.67645e-16
-1.82596e-17
-7.9331e-18
2.06357e-17
0
-5.08422e-18
7.23093e-17
-6.08743e-17
0
1.88782e-17
-4.04572e-18
-1.63106e-17
-1.46233e-18
-1.12852e-18
0
-1.0224e-18
0
1.01734e-16
-1.90953e-16
1.06407e-19
7.84647e-17
6.73044e-17
-6.66024e-17
-4.40809e-17
4.97859e-17
-1.59911e-17
1.25879e-17
-1.1454e-17
1.18073e-17
0
2.85568e-20
-1.07971e-18
3.86392e-18
-1.31096e-20
0
0
1.01737e-16
-1.01356e-16
-7.80488e-17
6.93072e-17
1.18678e-16
-1.19379e-16
-2.20414e-17
2.20969e-17
-1.61287e-17
1.6297e-17
-1.14546e-17
2.13766e-17
-5.99677e-18
-4.17197e-18
-1.24461e-18
4.20578e-19
9.76713e-19
2.56463e-19
-1.92164e-19
0
-2.37804e-17
1.35509e-16
-1.47356e-16
1.18203e-16
-1.05082e-16
0
7.48624e-17
-6.71763e-17
0
2.26369e-17
-2.85417e-17
-1.55656e-17
1.63138e-17
2.89575e-18
0
0
-1.02273e-18
3.70608e-19
4.04463e-16
-7.34815e-16
7.27436e-16
-6.18152e-16
2.39447e-16
-1.88553e-16
1.79614e-16
1.99634e-17
-7.10713e-17
6.33384e-17
0
-4.17824e-17
3.8142e-17
-6.89986e-18
-2.83639e-18
4.28777e-18
3.1224e-18
9.92871e-19
-3.58091e-19
9.54742e-16
0
-3.49386e-16
2.71908e-16
3.11018e-17
-2.25769e-16
3.92124e-16
-3.34504e-16
1.29032e-16
-5.09472e-17
5.2149e-17
9.92725e-18
1.61021e-17
6.72053e-18
-5.27543e-18
-7.84116e-19
-6.71805e-18
0
6.51599e-19
7.43903e-16
-8.37433e-16
0
7.08288e-17
2.88606e-16
-2.8029e-16
4.47634e-17
3.79226e-17
1.61687e-17
2.6695e-17
0
0
-2.7778e-17
5.03424e-17
-1.80902e-17
-6.27338e-18
6.8683e-18
5.38938e-19
-1.22564e-18
9.34323e-17
7.3633e-16
-8.06346e-17
-5.21217e-16
4.58681e-16
5.15516e-17
-4.38091e-17
-3.70391e-17
1.12885e-16
-1.39736e-16
7.72676e-17
-7.89711e-17
1.09191e-17
-1.51189e-17
2.48928e-17
-1.67368e-17
0
0
1.07828e-18
0
1.81013e-16
-5.13027e-16
5.88122e-16
-4.35865e-16
4.34827e-16
0
1.29727e-16
-1.30322e-16
-8.83989e-17
1.28947e-16
0
4.73901e-17
-5.99786e-17
-8.6544e-18
0
-8.81415e-19
-1.55757e-18
-1.42235e-19
-1.77585e-15
8.3137e-16
0
-4.97169e-16
4.97119e-16
2.76612e-16
-1.80914e-16
6.7043e-17
0
-2.65849e-18
1.65758e-17
-1.78504e-17
-2.32953e-17
3.5168e-17
-3.73953e-17
0
6.84429e-18
-1.08291e-18
-9.75154e-19
1.07936e-15
-1.04909e-15
0
1.29532e-16
1.11428e-16
-9.80338e-17
0
-7.02617e-17
-5.41604e-17
0
-4.68534e-18
0
2.65938e-17
0
0
9.08645e-18
3.30396e-17
-4.34765e-17
0
1.54294e-20
1.55884e-16
-1.36782e-16
9.95822e-17
-5.12046e-16
1.89424e-16
0
1.30948e-17
3.63513e-17
0
-3.24061e-17
8.10342e-17
-8.51311e-17
1.20855e-17
0
-2.33014e-18
0
0
0
4.97725e-20
0
1.26421e-16
0
-1.67098e-16
1.69755e-16
0
4.87223e-17
-3.50627e-17
1.19591e-16
-5.60533e-17
1.68224e-17
-2.46084e-17
2.06025e-17
-3.38796e-17
-5.11168e-18
0
-2.31992e-18
0
4.11976e-16
-6.9869e-16
0
-9.88661e-17
8.24467e-17
0
0
-8.72127e-17
0
-2.72117e-17
-3.63689e-17
-1.54613e-17
2.2562e-17
0
8.6863e-18
0
0
4.80375e-18
-4.99643e-18
0
5.80657e-16
-4.62221e-16
9.15275e-17
-7.63461e-17
-2.7324e-17
7.54734e-17
7.58618e-17
-8.03634e-17
2.54404e-17
3.87164e-18
-1.64681e-17
6.51675e-17
-1.98355e-17
-3.76599e-17
1.1989e-17
-2.45359e-18
1.50605e-18
-3.71447e-19
-1.00564e-15
3.67802e-16
0
0
3.05713e-17
-3.10875e-17
1.6952e-17
7.34806e-18
6.97337e-17
3.04616e-17
-2.85113e-17
-2.43515e-18
-1.16918e-17
9.17672e-18
0
3.20583e-18
2.2489e-18
1.00411e-18
3.35736e-19
0
3.05302e-16
-2.70695e-16
8.39088e-17
7.55171e-17
-1.41246e-17
-3.92771e-17
-2.98768e-17
-8.5703e-17
2.94734e-17
-1.30946e-17
2.13669e-17
1.09333e-17
-1.08003e-17
1.14638e-17
5.50192e-18
-7.63081e-18
-9.27447e-19
0
-5.82864e-17
-2.45647e-16
8.2128e-17
7.03458e-17
-2.17374e-16
1.48835e-16
6.01712e-17
-6.15042e-17
3.91715e-17
-2.79717e-17
0
0
-1.38007e-17
2.34445e-17
-9.52233e-18
7.06709e-18
-7.79594e-18
1.10979e-18
-1.96441e-18
1.07166e-16
9.52666e-17
-8.09155e-17
5.30851e-17
-6.81121e-17
-8.5355e-17
0
0
0
0
0
0
7.02496e-18
-1.54599e-17
1.63505e-17
-4.19327e-18
5.25199e-18
2.16753e-18
-1.81446e-18
2.26143e-16
-3.47601e-16
4.32088e-16
-1.70528e-16
2.39658e-16
-1.40554e-16
2.48668e-16
-1.28877e-16
-5.28594e-17
5.40727e-17
0
9.92477e-18
-6.86302e-18
1.35061e-17
-5.65568e-18
-5.6123e-18
-9.50217e-18
7.88332e-19
1.51017e-18
3.54206e-16
9.42578e-17
0
-1.26885e-16
-8.6637e-17
1.88325e-16
1.01722e-17
-5.99093e-17
3.28065e-17
-1.8953e-17
0
-7.85658e-18
0
-4.79079e-18
3.54071e-18
-2.79381e-18
-8.76958e-19
5.39543e-19
0
4.91578e-16
-9.96408e-17
3.83149e-16
-2.9802e-16
-5.26676e-17
1.7924e-16
-1.06974e-16
7.29192e-18
5.19582e-18
-1.87755e-17
1.71658e-17
0
0
6.30064e-18
-1.71507e-18
9.4847e-19
3.16267e-18
-1.0881e-18
0
8.39047e-20
0
-8.74622e-17
4.67572e-16
-3.08587e-16
-2.78736e-16
1.50644e-16
-1.25231e-16
1.11447e-16
4.62771e-17
-3.00059e-17
1.0871e-17
-8.9832e-18
1.97397e-18
1.09304e-17
-2.28902e-21
-3.19015e-18
3.07032e-18
-6.52202e-19
1.17153e-15
-3.67989e-16
1.52143e-16
-4.83287e-16
1.18065e-16
-1.64006e-16
9.19665e-17
0
0
-2.97506e-18
-4.65929e-18
-1.32918e-18
0
-1.07325e-17
-7.17842e-18
4.72354e-18
-3.26488e-19
7.62932e-19
1.37109e-18
0
-3.54402e-16
5.55034e-16
9.61918e-17
-4.12516e-16
9.7677e-17
-1.31329e-16
3.30728e-17
9.58932e-17
0
0
1.53435e-18
1.21657e-17
0
-8.2537e-18
-3.30117e-18
5.07574e-19
-1.40177e-18
-1.77748e-18
0
-2.1193e-16
7.1607e-17
3.74418e-16
2.40254e-16
-4.26388e-16
1.84844e-16
-1.05706e-16
5.88521e-17
-6.65672e-17
0
0
0
-1.72949e-17
3.12136e-18
-4.81951e-18
0
-2.64917e-19
1.29239e-18
-8.70413e-16
8.13345e-16
7.9041e-16
-9.52975e-16
3.95194e-16
-3.63467e-16
0
1.13789e-16
-1.49379e-16
7.92987e-17
-5.31948e-17
3.85982e-17
2.79306e-17
1.78868e-17
1.27104e-17
0
0
0
0
9.88916e-16
-5.40319e-16
0
0
-1.49703e-16
3.27693e-16
-2.07434e-16
-1.22494e-16
1.21113e-16
7.54425e-17
1.13975e-16
-4.00494e-17
1.61369e-17
1.05361e-17
7.01288e-18
5.9431e-18
9.28062e-18
-4.39048e-19
4.4721e-19
-9.90519e-16
8.86309e-16
4.32957e-16
-2.30975e-16
4.37916e-16
-2.78066e-16
-1.94607e-16
-1.49942e-16
0
-1.59436e-16
1.21687e-17
4.8618e-17
-3.31931e-17
-2.45671e-17
-8.54727e-18
-8.02449e-18
-6.46541e-18
0
0
-3.40745e-16
0
2.42563e-16
6.35282e-20
0
0
2.00744e-16
1.54719e-16
0
8.87245e-17
0
-7.32641e-17
-1.92542e-17
3.30077e-17
0
2.03473e-17
-2.77359e-18
2.82943e-18
0
7.3809e-16
0
4.55212e-16
-8.21752e-16
6.97868e-16
5.04789e-16
-2.51942e-17
0
1.61202e-17
1.11089e-16
0
-8.75765e-17
9.01879e-17
-7.79099e-17
-1.65025e-17
-1.60348e-17
-5.14044e-18
-1.00627e-18
-4.29975e-18
-6.62562e-16
9.47885e-16
-2.52394e-16
-6.2372e-16
-3.38706e-16
-2.72051e-16
-4.3236e-16
-1.52662e-16
1.94277e-17
4.69556e-17
-4.68674e-17
1.33512e-16
-5.77583e-17
1.08866e-16
-2.02002e-17
0
2.62286e-17
-1.65522e-17
4.17488e-18
1.51792e-15
-4.40325e-17
-1.05435e-15
8.03853e-16
-6.88049e-16
5.58163e-16
-2.66625e-17
-1.80006e-16
1.45286e-16
5.13848e-17
-9.34439e-18
-1.13969e-16
3.01199e-17
3.9105e-17
-1.04255e-17
1.05444e-17
-2.71664e-17
-6.15567e-18
-8.75122e-18
7.45163e-16
2.97605e-16
4.98556e-16
-4.12173e-16
-3.09088e-16
2.74641e-17
-2.04574e-16
4.87238e-16
2.35063e-17
1.96806e-16
1.09779e-16
-9.47657e-17
0
-6.03071e-17
0
0
4.93799e-17
2.03861e-17
1.00516e-17
6.86036e-16
0
4.88804e-16
4.09513e-16
-3.40317e-16
2.78309e-16
0
-1.87621e-16
-2.49378e-16
-2.03816e-16
-1.10751e-16
9.58372e-17
0
0
0
0
-4.64621e-17
-4.14687e-17
0
-1.34332e-15
0
-3.75163e-17
-3.37354e-17
5.23693e-16
-2.66948e-16
-1.16911e-16
-1.18278e-16
2.59206e-16
0
6.457e-17
-6.57868e-18
6.57607e-17
0
0
9.23981e-17
-7.03619e-18
4.99032e-17
-2.23717e-17
9.36639e-16
2.53776e-16
-2.51156e-16
-2.09386e-16
-6.7079e-16
4.38523e-16
5.01562e-16
-2.22704e-17
-1.8217e-16
1.88004e-16
3.79308e-17
-2.01111e-16
-1.56552e-16
-1.09632e-16
-1.18633e-16
-1.06852e-16
1.0223e-16
-4.71405e-18
2.29134e-17
-2.82871e-16
1.229e-16
-5.81596e-16
9.17158e-17
-9.13821e-17
0
-2.52868e-16
-3.02155e-17
-2.34404e-16
3.44294e-17
2.29019e-16
1.5835e-16
-4.16563e-17
3.47725e-18
1.11957e-16
0
-2.2197e-16
-8.7592e-17
-1.7876e-18
5.90297e-16
-1.50524e-17
9.15501e-16
-4.20723e-16
1.24299e-18
1.04296e-17
3.06743e-16
-3.89679e-17
2.27333e-16
-2.12032e-16
-2.00942e-16
0
2.27976e-16
1.73389e-16
2.64171e-18
-3.87903e-18
1.24193e-16
8.9002e-17
0
-4.16386e-16
0
-8.40638e-17
4.05032e-16
8.38253e-18
8.90665e-17
-2.96615e-16
2.76065e-16
3.10648e-16
2.99596e-16
2.91767e-16
0
-2.21474e-16
0
1.30435e-17
-1.35468e-17
0
-1.3903e-18
7.01061e-17
2.97445e-16
2.27352e-17
-2.0945e-16
6.58015e-16
-2.07314e-16
0
0
-3.70593e-16
-3.00986e-16
-2.90241e-16
-5.51888e-16
-7.76846e-17
0
0
0
-2.84916e-17
3.01513e-17
1.99271e-16
-7.12056e-17
2.39704e-17
0
-4.7515e-16
-4.15928e-16
4.47834e-16
-4.46607e-16
-6.31837e-16
7.51354e-16
2.23562e-16
0
3.35064e-16
4.04e-16
-8.71535e-17
4.82514e-16
-7.96888e-17
8.29366e-17
3.29847e-16
-1.89373e-16
0
-5.64842e-16
0
-5.31967e-16
5.17749e-16
0
8.9781e-16
4.14919e-16
-8.93962e-16
7.35878e-16
-3.42641e-18
-2.18388e-16
-3.91155e-16
0
5.73433e-16
-9.50913e-16
1.02403e-15
-1.30588e-15
0
0
5.64433e-16
-5.64965e-18
-1.37967e-17
-1.05681e-15
1.07482e-15
-5.14079e-16
5.11983e-16
5.04872e-16
-4.28327e-16
0
0
8.58765e-16
-8.73559e-16
-9.19387e-16
9.15707e-16
-8.95386e-16
9.71163e-16
-1.524e-15
0
)
;

boundaryField
{
    up
    {
        type            calculated;
        value           nonuniform List<scalar> 
84
(
0
0
0
0
-4.99704e-17
8.86385e-17
-3.63254e-17
2.29133e-17
-2.02343e-17
0
-1.1283e-17
1.05984e-17
-5.55359e-18
1.2174e-18
8.89206e-19
2.93537e-18
0
0
-1.02279e-18
7.77036e-19
6.06559e-19
-5.88964e-19
4.70026e-20
0
2.21439e-19
1.33702e-19
-1.81034e-18
0
2.91006e-18
4.0607e-18
5.74441e-19
-1.05663e-18
4.67384e-19
0
-1.81864e-19
1.01509e-18
-1.09381e-18
1.78305e-18
0
-3.54509e-19
0
0
-1.91887e-19
3.70608e-19
-3.58091e-19
6.51599e-19
-1.22564e-18
1.07828e-18
-1.42235e-19
-9.75154e-19
0
0
0
-4.99643e-18
-7.08549e-19
3.35736e-19
0
-1.96441e-18
-1.81446e-18
1.28927e-18
0
0
-6.52202e-19
1.37109e-18
-1.77748e-18
1.29239e-18
0
4.4721e-19
0
0
-4.29975e-18
4.17488e-18
-8.75122e-18
1.00516e-17
0
-2.23717e-17
2.29134e-17
-1.7876e-18
0
7.01061e-17
-7.12056e-17
0
0
0
)
;
    }
    low
    {
        type            calculated;
        value           nonuniform List<scalar> 
84
(
-1.13064e-15
1.12122e-15
-5.37559e-16
8.62805e-16
1.53109e-16
-3.97955e-17
3.32529e-16
4.91341e-17
0
1.37857e-15
-3.49435e-16
2.61211e-16
-3.0846e-16
-2.08476e-15
3.40577e-16
0
-3.16767e-16
3.87285e-17
-3.76477e-17
-2.41136e-16
1.30515e-16
3.37098e-16
6.04682e-16
-5.19637e-16
0
-1.00427e-16
-5.17271e-17
0
-4.75127e-16
-1.37597e-16
-4.75643e-16
-5.14774e-16
5.57254e-16
1.86646e-16
1.28243e-15
1.02651e-16
0
8.49099e-16
8.5071e-16
4.82126e-16
-2.55727e-16
1.01734e-16
1.01737e-16
0
4.04463e-16
9.57333e-16
7.43903e-16
9.5404e-17
0
-1.77636e-15
1.07936e-15
1.54294e-20
4.97725e-20
4.11976e-16
0
-1.00245e-15
0
-5.82864e-17
1.07166e-16
2.24201e-16
3.50923e-16
4.88634e-16
8.39047e-20
1.16935e-15
0
0
-8.70413e-16
9.88229e-16
-9.90231e-16
-3.40745e-16
7.38515e-16
-6.62562e-16
1.52166e-15
7.47637e-16
6.86036e-16
-1.34332e-15
9.33943e-16
-2.79998e-16
5.90297e-16
-4.15175e-16
2.97445e-16
2.62664e-17
-5.64842e-16
5.65062e-16
)
;
    }
    left
    {
        type            calculated;
        value           nonuniform List<scalar> 
19
(
-1.12938e-15
-5.4345e-16
5.5852e-16
1.853e-17
-1.04659e-15
0
-4.77531e-16
-4.71013e-16
-4.2582e-17
-2.53178e-16
-1.67835e-18
-2.53627e-16
1.14029e-15
-2.52817e-16
1.1773e-15
1.0191e-15
6.07057e-16
8.92787e-16
0
)
;
    }
    right
    {
        type            calculated;
        value           nonuniform List<scalar> 
19
(
5.64433e-16
-5.06313e-18
-1.37967e-17
-1.05694e-15
1.07538e-15
-5.14079e-16
5.11983e-16
5.04872e-16
-4.26396e-16
0
0
8.66791e-16
-8.84623e-16
-9.19387e-16
9.15707e-16
-8.95386e-16
9.71163e-16
-1.64775e-15
0
)
;
    }
    frontAndBackPlanes
    {
        type            empty;
    }
}


// ************************************************************************* //
