/*--------------------------------*- C++ -*----------------------------------*\
  =========                 |
  \\      /  F ield         | OpenFOAM: The Open Source CFD Toolbox
   \\    /   O peration     | Website:  https://openfoam.org
    \\  /    A nd           | Version:  7
     \\/     M anipulation  |
\*---------------------------------------------------------------------------*/
FoamFile
{
    version     2.0;
    format      ascii;
    class       volScalarField;
    location    "0.13";
    object      T;
}
// * * * * * * * * * * * * * * * * * * * * * * * * * * * * * * * * * * * * * //

dimensions      [0 0 0 1 0 0 0];

internalField   nonuniform List<scalar> 
1596
(
6.97089
6.88794
6.80476
6.72919
6.66408
6.60949
6.56453
6.52639
6.49293
6.45913
6.42116
6.37361
6.30584
6.20414
6.04856
5.79673
5.37153
4.61968
3.2337
6.87489
6.61826
6.38144
6.17283
5.99501
5.84657
5.72429
5.62201
5.53398
5.45041
5.36286
5.26083
5.12719
4.94211
4.68251
4.30865
3.76239
2.94651
1.67815
6.7635
6.33576
5.95938
5.63478
5.36062
5.1329
4.94608
4.79172
4.66165
4.5438
4.42749
4.30011
4.14321
3.93658
3.65896
3.2782
2.75369
2.02675
0.991059
6.65709
6.0738
5.57463
5.14996
4.79353
4.49863
4.25763
4.06059
3.89786
3.75635
3.62447
3.48897
3.3319
3.13434
2.87752
2.53553
2.07935
1.47263
0.65286
6.5733
5.861
5.25772
4.74734
4.31998
3.96687
3.67888
3.4452
3.25529
3.09574
2.9547
2.81891
2.67145
2.49496
2.2727
1.98308
1.60393
1.11088
0.46526
6.52186
5.71402
5.02645
4.44333
3.95393
3.54883
3.2182
2.95089
2.73597
2.56007
2.41135
2.27679
2.14058
1.98674
1.80011
1.562
1.25417
0.858438
0.348714
6.50186
5.6337
4.88224
4.23866
3.69481
3.2423
2.87163
2.57189
2.33215
2.13927
1.98159
1.84638
1.71883
1.58418
1.42846
1.23506
0.988122
0.672654
0.269155
6.50466
5.60776
4.81243
4.12067
3.52974
3.03408
2.62556
2.2941
2.02916
1.81799
1.64916
1.51026
1.38732
1.26659
1.13513
0.977902
0.780719
0.530336
0.210821
6.52265
5.62194
4.80051
4.07224
3.44155
2.90705
2.46299
2.1007
1.81036
1.57979
1.3978
1.25228
1.12994
1.01788
0.903993
0.774593
0.616793
0.418527
0.165979
6.54258
5.65249
4.81947
4.06618
3.40405
2.83643
2.36062
1.96982
1.65529
1.40553
1.20966
1.05583
0.931273
0.823781
0.721982
0.613339
0.486115
0.329233
0.130422
6.55709
5.68169
4.8466
4.07833
3.39339
2.79952
2.29719
1.88175
1.54574
1.27844
1.06937
0.906895
0.778683
0.673056
0.579265
0.48579
0.381953
0.257626
0.101852
6.57294
5.71341
4.88039
4.1029
3.40108
2.78624
2.26182
1.82526
1.47047
1.18758
0.966469
0.795703
0.663234
0.557773
0.469051
0.386401
0.300082
0.200887
0.07906
6.58636
5.74163
4.91218
4.12889
3.41456
2.78331
2.24108
1.78723
1.41693
1.12108
0.889893
0.71208
0.575754
0.469875
0.384517
0.30969
0.236459
0.156467
0.0610796
6.59253
5.7574
4.93094
4.14399
3.42085
2.77764
2.22223
1.75551
1.37371
1.06834
0.829874
0.64709
0.508173
0.402225
0.319557
0.250711
0.187417
0.122082
0.0470819
6.59625
5.76511
4.93875
4.14784
3.41751
2.76519
2.20012
1.72427
1.33461
1.02304
0.780138
0.594641
0.454712
0.349498
0.26945
0.205511
0.14995
0.0958202
0.0363709
6.59903
5.76783
4.93805
4.14135
3.40378
2.74378
2.17147
1.68948
1.29512
0.980414
0.735823
0.549898
0.410673
0.307255
0.230159
0.170622
0.121338
0.0758983
0.0282788
6.59885
5.76352
4.927
4.1224
3.377
2.71018
2.13261
1.64721
1.25121
0.936411
0.692917
0.508929
0.37225
0.271876
0.198339
0.143107
0.0992192
0.0607196
0.0221852
6.59682
5.75377
4.90733
4.09248
3.33809
2.66458
2.08308
1.59639
1.20135
0.889159
0.649295
0.469428
0.337024
0.240912
0.171609
0.120779
0.0817643
0.048999
0.017568
6.59863
5.74769
4.8888
4.06073
3.29493
2.61334
2.02759
1.54029
1.14752
0.839593
0.605067
0.430871
0.304008
0.213064
0.148509
0.102173
0.0676668
0.0397756
0.0140202
6.60267
5.74538
4.87286
4.02925
3.24971
2.55836
1.96764
1.47989
1.09023
0.787794
0.559943
0.392663
0.272362
0.187319
0.127929
0.0861766
0.055933
0.0323119
0.011226
6.60507
5.74185
4.85563
3.99553
3.20103
2.49902
1.90304
1.41523
1.02957
0.733783
0.513809
0.354521
0.241635
0.163079
0.109168
0.0720535
0.0458777
0.0260861
0.00895848
6.60844
5.74016
4.84059
3.96358
3.1532
2.4396
1.83775
1.34969
0.968251
0.679582
0.468043
0.317264
0.212188
0.140354
0.0919879
0.0594148
0.0370642
0.0207328
0.00705668
6.61413
5.74314
4.83134
3.93761
3.11088
2.38483
1.77622
1.28721
0.909498
0.627655
0.424378
0.281984
0.184594
0.119323
0.0762878
0.047973
0.0291041
0.0158726
0.00533398
6.62157
5.75073
4.82872
3.91947
3.07679
2.33808
1.72206
1.23122
0.85629
0.580354
0.3845
0.249745
0.159402
0.100142
0.0619435
0.0374028
0.0215127
0.0108899
0.00323613
6.63607
5.78281
4.8692
3.96081
3.11372
2.36774
1.74367
1.24544
0.864535
0.584221
0.385444
0.248921
0.157645
0.0980031
0.0597481
0.0353057
0.0196007
0.00931387
0.00239586
6.65329
5.83038
4.94117
4.04899
3.20904
2.46175
1.82987
1.31969
0.925098
0.63124
0.420284
0.273629
0.174443
0.108982
0.0666765
0.0395389
0.0220764
0.0106186
0.0028292
6.66289
5.86295
4.99653
4.12303
3.295
2.55184
1.91692
1.39825
0.991854
0.684959
0.461327
0.303436
0.195006
0.122451
0.0750644
0.0445009
0.0248303
0.0119635
0.00322416
6.66495
5.87946
5.03301
4.17987
3.36828
2.63501
2.00264
1.47995
1.06468
0.746104
0.509837
0.33982
0.220739
0.139542
0.0856907
0.0506509
0.0280914
0.0134427
0.00360491
6.66261
5.8856
5.05706
4.22554
3.43398
2.71531
2.09028
1.5676
1.14624
0.817345
0.568512
0.385408
0.254022
0.16221
0.0999811
0.0588982
0.0323661
0.0152973
0.00404198
6.65666
5.88498
5.07384
4.2654
3.49673
2.79636
2.18253
1.66332
1.23843
0.900681
0.639581
0.442634
0.297327
0.192708
0.119716
0.0704283
0.0383049
0.0178179
0.00461373
6.64949
5.88358
5.09081
4.30686
3.56302
2.88339
2.28343
1.77021
1.34389
0.998611
0.725691
0.514411
0.353765
0.234096
0.147531
0.0871162
0.0469354
0.0214085
0.00541329
6.64654
5.88984
5.117
4.35841
3.64022
2.98237
2.39763
1.89193
1.46563
1.11398
0.82985
0.604159
0.427254
0.290634
0.18758
0.112349
0.0603274
0.0268221
0.00651314
6.64531
5.90027
5.14901
4.41701
3.72568
3.09104
2.52332
2.02722
1.60311
1.2471
0.953427
0.714472
0.521756
0.367663
0.24625
0.152664
0.0837555
0.0367867
0.00801838
6.64529
5.91424
5.18633
4.48232
3.81915
3.20928
2.66049
2.17627
1.7569
1.39913
1.09842
0.848508
0.642015
0.472045
0.332994
0.220069
0.130494
0.0629782
0.0158409
6.6444
5.92481
5.21681
4.53732
3.89944
3.31255
2.78226
2.31086
1.89835
1.54184
1.23762
0.980554
0.764242
0.582535
0.430074
0.30163
0.193455
0.10356
0.0305183
6.6368
5.91562
5.21514
4.54874
3.9264
3.35501
2.83839
2.37771
1.97241
1.61947
1.31549
1.05577
0.834483
0.646061
0.485686
0.348337
0.230153
0.12846
0.0405535
6.62445
5.89344
5.19274
4.53205
3.91862
3.35727
2.85034
2.39792
1.99887
1.6498
1.34732
1.08689
0.862944
0.670307
0.504713
0.3617
0.238106
0.132034
0.0413042
6.61543
5.87777
5.17776
4.52225
3.91636
3.36333
2.86428
2.41852
2.02441
1.67832
1.37685
1.11565
0.889393
0.69323
0.523339
0.375651
0.247411
0.137144
0.0429208
6.61058
5.86944
5.17058
4.51921
3.91907
3.37226
2.87905
2.43814
2.04754
1.70343
1.40243
1.14032
0.911956
0.71276
0.539242
0.387625
0.255463
0.141625
0.04438
6.60731
5.86396
5.16614
4.51794
3.92208
3.37986
2.89094
2.45355
2.06547
1.72274
1.42198
1.1591
0.929075
0.727525
0.551218
0.396596
0.261455
0.144932
0.0454586
6.60481
5.85957
5.1623
4.51622
3.9233
3.38424
2.89826
2.46331
2.07697
1.7352
1.43465
1.17127
0.940156
0.737042
0.558879
0.402267
0.265171
0.14693
0.0460959
6.60158
5.85433
5.15729
4.51257
3.9215
3.38443
2.90029
2.46688
2.0817
1.74066
1.4404
1.17695
0.945415
0.741623
0.562614
0.405065
0.267029
0.147946
0.0464311
6.60159
5.85436
5.15733
4.51262
3.92157
3.38449
2.90036
2.46695
2.08177
1.74072
1.44046
1.177
0.945461
0.741663
0.562647
0.405091
0.267048
0.147958
0.046435
6.60485
5.85967
5.16244
4.51639
3.92348
3.38444
2.89846
2.46351
2.07716
1.73539
1.43482
1.17143
0.940296
0.737164
0.558981
0.402347
0.265229
0.146966
0.0461083
6.60737
5.86411
5.16636
4.5182
3.92238
3.38018
2.89126
2.45388
2.06578
1.72303
1.42226
1.15935
0.9293
0.727719
0.551379
0.396723
0.261546
0.144987
0.0454776
6.61066
5.86964
5.17087
4.51957
3.91947
3.37268
2.87949
2.43858
2.04796
1.70383
1.4028
1.14066
0.912255
0.713017
0.539456
0.387793
0.255584
0.141697
0.044405
6.61552
5.87802
5.17812
4.5227
3.91686
3.36386
2.86483
2.41906
2.02493
1.67881
1.37731
1.11607
0.889759
0.693543
0.523599
0.375854
0.247556
0.137232
0.0429508
6.62457
5.89373
5.19316
4.53257
3.9192
3.35789
2.85097
2.39855
1.99948
1.65038
1.34784
1.08736
0.863361
0.670662
0.505004
0.361926
0.238265
0.132128
0.0413355
6.63693
5.91594
5.21562
4.54933
3.92707
3.35572
2.83912
2.37843
1.9731
1.62012
1.31608
1.05629
0.834939
0.646442
0.485989
0.348563
0.230304
0.128544
0.0405806
6.64455
5.92527
5.21756
4.53828
3.90058
3.3138
2.78357
2.31218
1.89965
1.54307
1.23878
0.981621
0.765211
0.583403
0.43084
0.302292
0.193994
0.103938
0.0306721
6.64548
5.9148
5.18721
4.48347
3.8205
3.21076
2.66205
2.17783
1.75842
1.40057
1.09975
0.849715
0.643094
0.472993
0.333807
0.220736
0.130996
0.0632923
0.0159504
6.64548
5.90076
5.14979
4.41803
3.72687
3.09235
2.52468
2.02855
1.60439
1.24828
0.95449
0.715407
0.522561
0.368334
0.246787
0.15306
0.0840105
0.0369114
0.00804369
6.64668
5.89029
5.11774
4.35938
3.64137
2.98361
2.3989
1.89317
1.46679
1.11503
0.830771
0.604945
0.427905
0.291153
0.187972
0.112618
0.0604871
0.0268952
0.0065297
6.64963
5.884
5.09151
4.30778
3.5641
2.88455
2.28461
1.77134
1.34493
0.999535
0.726482
0.515066
0.354289
0.234498
0.147821
0.087307
0.0470452
0.0214588
0.00542505
6.65678
5.88537
5.07449
4.26626
3.49773
2.79744
2.18362
1.66434
1.23936
0.901486
0.640254
0.443177
0.297748
0.193021
0.119934
0.0705679
0.0383842
0.0178545
0.00462252
6.66272
5.88595
5.05765
4.22633
3.43491
2.7163
2.09126
1.56852
1.14706
0.818038
0.569078
0.385854
0.254359
0.162454
0.100147
0.0590027
0.0324253
0.0153251
0.00404887
6.66504
5.87976
5.03354
4.18058
3.36911
2.63589
2.0035
1.48075
1.06538
0.74669
0.510307
0.340183
0.221009
0.139732
0.0858187
0.0507311
0.0281372
0.0134647
0.0036107
6.66297
5.86322
4.99699
4.12366
3.29573
2.55261
1.91767
1.39894
0.992447
0.685449
0.461714
0.303731
0.195222
0.122602
0.0751657
0.0445649
0.0248677
0.0119823
0.00322951
6.65335
5.83061
4.94157
4.04952
3.20966
2.4624
1.8305
1.32027
0.925593
0.631646
0.420603
0.273871
0.174619
0.109105
0.0667594
0.0395923
0.0221086
0.0106356
0.00283465
6.63607
5.78286
4.8693
3.96095
3.1139
2.36792
1.74386
1.24561
0.86469
0.584352
0.38555
0.249004
0.157706
0.0980461
0.0597762
0.0353223
0.0196088
0.00931596
0.00239505
6.62154
5.75067
4.82862
3.91935
3.07666
2.33795
1.72194
1.23111
0.856204
0.580287
0.384449
0.249708
0.159375
0.100122
0.0619287
0.0373913
0.0215038
0.0108832
0.00323252
6.61413
5.74313
4.83133
3.9376
3.11087
2.38483
1.77623
1.28722
0.909511
0.62767
0.424392
0.281996
0.184604
0.11933
0.0762929
0.0479763
0.029106
0.0158733
0.00533385
6.60844
5.74016
4.84058
3.96357
3.1532
2.4396
1.83775
1.3497
0.968261
0.679593
0.468053
0.317272
0.212195
0.140358
0.0919913
0.0594171
0.0370657
0.0207336
0.0070568
6.60507
5.74184
4.85563
3.99553
3.20103
2.49902
1.90304
1.41523
1.02958
0.73379
0.513816
0.354526
0.24164
0.163082
0.109171
0.0720559
0.0458795
0.0260871
0.00895877
6.60267
5.74537
4.87286
4.02925
3.24971
2.55836
1.96764
1.47989
1.09024
0.787799
0.559947
0.392667
0.272366
0.187322
0.127932
0.0861794
0.0559354
0.0323134
0.0112265
6.59863
5.74769
4.88879
4.06073
3.29493
2.61334
2.0276
1.5403
1.14753
0.839596
0.605069
0.430874
0.304011
0.213068
0.148513
0.102176
0.0676699
0.0397777
0.0140208
6.59682
5.75377
4.90732
4.09248
3.33809
2.66458
2.08308
1.5964
1.20135
0.889161
0.649298
0.469431
0.337028
0.240916
0.171614
0.120784
0.0817684
0.0490016
0.0175687
6.59885
5.76352
4.927
4.1224
3.37701
2.71018
2.13262
1.64721
1.25121
0.936412
0.692919
0.508932
0.372254
0.271881
0.198345
0.143113
0.099224
0.0607226
0.0221859
6.59903
5.76783
4.93805
4.14135
3.40379
2.74378
2.17147
1.68948
1.29512
0.980415
0.735825
0.549902
0.410679
0.307261
0.230166
0.170629
0.121343
0.0759013
0.0282794
6.59625
5.76511
4.93875
4.14785
3.41751
2.76519
2.20012
1.72427
1.33461
1.02304
0.780141
0.594646
0.454718
0.349505
0.269458
0.205518
0.149955
0.0958227
0.0363713
6.59253
5.75741
4.93094
4.14399
3.42085
2.77764
2.22223
1.75551
1.37371
1.06834
0.829878
0.647096
0.50818
0.402233
0.319565
0.250717
0.187421
0.122083
0.0470819
6.58636
5.74164
4.91218
4.1289
3.41457
2.78331
2.24108
1.78723
1.41693
1.12108
0.889897
0.712086
0.575761
0.469882
0.384523
0.309694
0.23646
0.156466
0.0610791
6.57294
5.71342
4.88039
4.1029
3.40108
2.78624
2.26181
1.82526
1.47048
1.18759
0.966473
0.795709
0.66324
0.557778
0.469054
0.386401
0.300081
0.200885
0.0790592
6.55709
5.68169
4.8466
4.07833
3.39339
2.79952
2.29719
1.88175
1.54574
1.27844
1.06937
0.906899
0.778686
0.673057
0.579263
0.485786
0.381947
0.257622
0.101851
6.54258
5.6525
4.81948
4.06619
3.40405
2.83643
2.36062
1.96982
1.65529
1.40553
1.20966
1.05583
0.931271
0.823776
0.721975
0.61333
0.486106
0.329228
0.130421
6.52266
5.62195
4.80051
4.07223
3.44154
2.90705
2.46299
2.1007
1.81036
1.57979
1.3978
1.25228
1.12993
1.01787
0.90398
0.77458
0.616782
0.418522
0.165979
6.50466
5.60776
4.81243
4.12066
3.52973
3.03407
2.62555
2.2941
2.02915
1.81799
1.64915
1.51025
1.3873
1.26657
1.13511
0.977888
0.780709
0.530333
0.210822
6.50186
5.6337
4.88224
4.23866
3.6948
3.24229
2.87162
2.57188
2.33214
2.13926
1.98158
1.84637
1.71882
1.58416
1.42845
1.23504
0.988115
0.672653
0.269157
6.52186
5.71402
5.02644
4.44332
3.95393
3.54883
3.21819
2.95088
2.73596
2.56006
2.41133
2.27677
2.14056
1.98673
1.8001
1.56199
1.25417
0.85844
0.348717
6.57329
5.861
5.25771
4.74734
4.31997
3.96686
3.67887
3.44519
3.25528
3.09573
2.95468
2.81889
2.67143
2.49494
2.27269
1.98308
1.60394
1.11089
0.465262
6.65709
6.0738
5.57462
5.14995
4.79353
4.49863
4.25762
4.06058
3.89785
3.75634
3.62445
3.48895
3.33188
3.13433
2.87751
2.53553
2.07935
1.47263
0.652861
6.7635
6.33576
5.95938
5.63478
5.36062
5.1329
4.94607
4.79171
4.66164
4.54378
4.42747
4.3001
4.1432
3.93657
3.65896
3.2782
2.7537
2.02676
0.991058
6.87488
6.61826
6.38144
6.17283
5.99502
5.84657
5.72429
5.62201
5.53397
5.4504
5.36285
5.26083
5.12719
4.94211
4.68251
4.30866
3.7624
2.94652
1.67814
6.97089
6.88794
6.80476
6.72919
6.66408
6.60949
6.56453
6.52639
6.49292
6.45913
6.42116
6.37361
6.30584
6.20414
6.04856
5.79673
5.37153
4.61968
3.23369
)
;

boundaryField
{
    up
    {
        type            fixedValue;
        value           uniform 0;
    }
    low
    {
        type            fixedValue;
        value           uniform 7;
    }
    left
    {
        type            fixedValue;
        value           uniform 7;
    }
    right
    {
        type            fixedValue;
        value           uniform 7;
    }
    frontAndBackPlanes
    {
        type            empty;
    }
}


// ************************************************************************* //
