/*--------------------------------*- C++ -*----------------------------------*\
  =========                 |
  \\      /  F ield         | OpenFOAM: The Open Source CFD Toolbox
   \\    /   O peration     | Website:  https://openfoam.org
    \\  /    A nd           | Version:  7
     \\/     M anipulation  |
\*---------------------------------------------------------------------------*/
FoamFile
{
    version     2.0;
    format      ascii;
    class       volScalarField;
    location    "0.19";
    object      gradTx;
}
// * * * * * * * * * * * * * * * * * * * * * * * * * * * * * * * * * * * * * //

dimensions      [0 -1 0 1 0 0 0];

internalField   nonuniform List<scalar> 
1596
(
-0.0503084
-0.252287
-0.450835
-0.628054
-0.782078
-0.911982
-1.0238
-1.12148
-1.21063
-1.3019
-1.39866
-1.51377
-1.66198
-1.86405
-2.14397
-2.56058
-3.20381
-4.26742
-6.15213
0.0112661
-0.2094
-0.404874
-0.572426
-0.715505
-0.834618
-0.935285
-1.01952
-1.0916
-1.15726
-1.21762
-1.2799
-1.34723
-1.42395
-1.5086
-1.59764
-1.66627
-1.66315
-1.4787
0.0618834
-0.169696
-0.358462
-0.514199
-0.644413
-0.751364
-0.839858
-0.911247
-0.968444
-1.01464
-1.04987
-1.07813
-1.09922
-1.11335
-1.11693
-1.10323
-1.05266
-0.930349
-0.66706
0.0704385
-0.147367
-0.319096
-0.458351
-0.573326
-0.667045
-0.743277
-0.803095
-0.848361
-0.880757
-0.900066
-0.908334
-0.904607
-0.888007
-0.855639
-0.802135
-0.71517
-0.574202
-0.338354
0.0226812
-0.151751
-0.293728
-0.410714
-0.507779
-0.587201
-0.651273
-0.700751
-0.736655
-0.759648
-0.769605
-0.767304
-0.751815
-0.722089
-0.676267
-0.610611
-0.518085
-0.387266
-0.195004
-0.0769142
-0.186514
-0.287815
-0.376919
-0.453299
-0.517131
-0.568858
-0.608679
-0.636848
-0.653255
-0.657889
-0.650649
-0.630755
-0.597165
-0.548768
-0.482926
-0.395837
-0.281286
-0.12645
-0.2091
-0.248827
-0.303815
-0.360974
-0.414215
-0.460979
-0.499746
-0.529894
-0.55093
-0.562107
-0.563407
-0.554103
-0.533491
-0.500517
-0.454471
-0.393334
-0.315101
-0.216375
-0.0901163
-0.347182
-0.326782
-0.337093
-0.361563
-0.390663
-0.419463
-0.444741
-0.464942
-0.478871
-0.485249
-0.483914
-0.473702
-0.453894
-0.423385
-0.381615
-0.326883
-0.258098
-0.173327
-0.0687049
-0.489853
-0.427385
-0.398305
-0.390055
-0.39318
-0.401677
-0.411279
-0.4196
-0.424842
-0.425272
-0.420447
-0.408892
-0.38976
-0.361837
-0.324522
-0.276229
-0.21622
-0.143239
-0.055033
-0.575507
-0.498033
-0.445923
-0.414351
-0.39696
-0.388402
-0.384364
-0.382065
-0.379371
-0.374297
-0.366141
-0.353285
-0.334766
-0.309316
-0.27626
-0.234099
-0.182225
-0.119718
-0.0451599
-0.645706
-0.56222
-0.496426
-0.447664
-0.412988
-0.388712
-0.371288
-0.358037
-0.346781
-0.335464
-0.323175
-0.308237
-0.289573
-0.26586
-0.236306
-0.199441
-0.15463
-0.101058
-0.0377109
-0.717835
-0.634171
-0.559937
-0.497721
-0.447557
-0.407818
-0.376262
-0.350788
-0.329483
-0.310397
-0.2925
-0.274106
-0.254021
-0.230851
-0.203662
-0.170958
-0.131989
-0.0859104
-0.03183
-0.738918
-0.666507
-0.594197
-0.527799
-0.469833
-0.420618
-0.37934
-0.344763
-0.315511
-0.289967
-0.267175
-0.245574
-0.223963
-0.200961
-0.175562
-0.146301
-0.112339
-0.072803
-0.0268348
-0.745904
-0.685629
-0.619212
-0.553013
-0.491099
-0.435443
-0.386592
-0.344316
-0.307927
-0.276281
-0.248628
-0.223604
-0.200059
-0.176661
-0.152358
-0.125717
-0.0958198
-0.0617502
-0.0226459
-0.747221
-0.697872
-0.638602
-0.575054
-0.51181
-0.45199
-0.397306
-0.348533
-0.305746
-0.268362
-0.235938
-0.207358
-0.181571
-0.157311
-0.133508
-0.108757
-0.0820721
-0.0524925
-0.0191285
-0.731925
-0.694346
-0.643754
-0.585419
-0.523915
-0.462979
-0.405154
-0.352089
-0.304604
-0.262705
-0.226337
-0.194681
-0.166841
-0.141656
-0.118075
-0.0947388
-0.0706239
-0.0447397
-0.0161719
-0.698953
-0.672684
-0.6317
-0.580552
-0.523475
-0.46438
-0.40629
-0.351496
-0.301458
-0.256742
-0.217707
-0.183868
-0.154528
-0.128669
-0.105298
-0.0831239
-0.0611186
-0.0382878
-0.0137083
-0.659292
-0.640361
-0.607914
-0.564348
-0.513003
-0.457563
-0.401216
-0.346659
-0.295837
-0.249802
-0.2093
-0.174176
-0.143949
-0.117762
-0.0947004
-0.0735522
-0.0533069
-0.0329877
-0.011684
-0.626098
-0.613026
-0.587066
-0.549575
-0.503065
-0.450877
-0.396243
-0.342128
-0.290863
-0.2439
-0.202313
-0.166232
-0.13536
-0.108972
-0.0862106
-0.0659178
-0.0470895
-0.0287667
-0.0100645
-0.565499
-0.560352
-0.542155
-0.512435
-0.473131
-0.427068
-0.377249
-0.326649
-0.277792
-0.232402
-0.191822
-0.156452
-0.126196
-0.100496
-0.0785924
-0.0594047
-0.0419574
-0.0253377
-0.00874804
-0.497238
-0.498349
-0.487193
-0.464927
-0.43304
-0.393853
-0.350034
-0.304401
-0.259502
-0.217204
-0.179008
-0.145523
-0.116827
-0.0925223
-0.071957
-0.0541246
-0.0380527
-0.0228317
-0.00777365
-0.425073
-0.430155
-0.424799
-0.409332
-0.384704
-0.35272
-0.315658
-0.276065
-0.236386
-0.198493
-0.163933
-0.133445
-0.10723
-0.0850394
-0.0663453
-0.0502296
-0.035687
-0.0216658
-0.00737116
-0.344069
-0.35101
-0.350342
-0.341382
-0.324376
-0.300492
-0.271508
-0.239558
-0.206839
-0.175097
-0.145795
-0.119721
-0.0971435
-0.0779618
-0.0618205
-0.0479764
-0.0354448
-0.0229165
-0.00879669
-0.251793
-0.248234
-0.239118
-0.224615
-0.205741
-0.183942
-0.160871
-0.138028
-0.116699
-0.0976737
-0.0813213
-0.0676207
-0.0562392
-0.046771
-0.0388061
-0.0318568
-0.0252595
-0.0179129
-0.00797666
-0.168273
-0.18636
-0.204611
-0.219286
-0.227923
-0.229229
-0.223262
-0.210998
-0.194185
-0.174712
-0.154241
-0.134178
-0.115291
-0.0982087
-0.083305
-0.0707427
-0.0601828
-0.0508075
-0.0408078
-0.056663
-0.0644833
-0.0743735
-0.0842855
-0.0926863
-0.0985207
-0.101434
-0.101481
-0.0992416
-0.0954131
-0.0904603
-0.0849028
-0.0787336
-0.0721182
-0.0653016
-0.0588884
-0.0532213
-0.048682
-0.0451557
0.0551795
0.0456868
0.0318496
0.0155436
-0.00140604
-0.0174657
-0.0316379
-0.0433918
-0.0527484
-0.0600016
-0.0653047
-0.068894
-0.0705085
-0.0700493
-0.0676217
-0.0640132
-0.059959
-0.0563326
-0.0533958
0.166473
0.153506
0.134359
0.111101
0.085787
0.0602632
0.0359351
0.0136851
-0.0061624
-0.0236592
-0.038794
-0.0515874
-0.0615156
-0.0680549
-0.0708776
-0.0706508
-0.0683731
-0.0654668
-0.0626662
0.266493
0.247808
0.222186
0.192019
0.159422
0.126306
0.0941622
0.0639236
0.0359877
0.0103287
-0.013054
-0.0341311
-0.052209
-0.0662814
-0.0752718
-0.0792667
-0.0791566
-0.0769042
-0.0739404
0.369299
0.343384
0.310354
0.272682
0.23256
0.191964
0.152408
0.114798
0.0795123
0.0464432
0.015452
-0.0135997
-0.0401062
-0.0627734
-0.0796505
-0.0897321
-0.0930782
-0.0918652
-0.0884847
0.44573
0.411622
0.371506
0.327756
0.282495
0.23748
0.193947
0.152518
0.113357
0.0761476
0.0405128
0.00596732
-0.0272844
-0.0581067
-0.0839299
-0.102351
-0.111478
-0.112517
-0.108417
0.516192
0.475174
0.428203
0.378578
0.32853
0.279601
0.232744
0.188313
0.146287
0.106172
0.0673875
0.0290371
-0.00936083
-0.0475013
-0.0831018
-0.113003
-0.132645
-0.140198
-0.137355
0.580223
0.53015
0.475881
0.420749
0.366716
0.314918
0.265938
0.219831
0.176413
0.135079
0.0951747
0.0555656
0.0151237
-0.0270983
-0.0702952
-0.112558
-0.147996
-0.170559
-0.17428
0.620001
0.55629
0.491102
0.427365
0.366536
0.309267
0.255767
0.205849
0.159203
0.115195
0.0731405
0.0318974
-0.00996029
-0.0543678
-0.102613
-0.156023
-0.211959
-0.265294
-0.306354
0.642907
0.573742
0.508103
0.447729
0.392737
0.342724
0.297085
0.255166
0.216401
0.180226
0.146226
0.113876
0.0825495
0.0512656
0.0186904
-0.0179237
-0.0611302
-0.113813
-0.176874
0.658577
0.587572
0.524416
0.468316
0.41802
0.372478
0.330762
0.292167
0.256196
0.22243
0.190663
0.160765
0.132596
0.10613
0.081463
0.058405
0.0366368
0.0150822
-0.00831846
0.620113
0.539255
0.47041
0.410882
0.358668
0.312368
0.270848
0.233256
0.198962
0.167406
0.138252
0.11126
0.0861961
0.0629888
0.0417806
0.0227403
0.00623712
-0.0072436
-0.0174857
0.541855
0.468907
0.407684
0.355377
0.309986
0.270084
0.234558
0.202565
0.173507
0.146869
0.122352
0.0997465
0.0788431
0.0595458
0.0418781
0.02582
0.0114081
-0.00125248
-0.0121989
0.448384
0.387612
0.336388
0.29271
0.254982
0.221982
0.192745
0.16653
0.142812
0.121144
0.101255
0.0829527
0.066032
0.0503749
0.0359561
0.0227143
0.0106465
-0.00016312
-0.00973512
0.33653
0.289905
0.25096
0.218038
0.189807
0.165253
0.143596
0.124241
0.106772
0.0908364
0.076222
0.0627726
0.050323
0.0387733
0.0280983
0.0182503
0.00923417
0.00113025
-0.00606177
0.211461
0.180399
0.155271
0.134441
0.116792
0.101556
0.0881818
0.0762665
0.0655347
0.0557557
0.0467894
0.0385323
0.0308747
0.0237482
0.0171331
0.0109976
0.00534641
0.00023866
-0.00431397
0.081045
0.0684343
0.0586093
0.0505799
0.0438053
0.0379608
0.0328328
0.0282709
0.024173
0.0204534
0.0170569
0.0139404
0.0110577
0.00837624
0.00588021
0.00354977
0.00137848
-0.000618416
-0.00243842
-0.0810061
-0.0683471
-0.0584889
-0.0504372
-0.0436487
-0.0377968
-0.0326667
-0.028107
-0.0240151
-0.0203046
-0.0169199
-0.0138175
-0.0109508
-0.0082871
-0.00581016
-0.00349988
-0.00134942
0.00062658
0.00242605
-0.211425
-0.180321
-0.155165
-0.134315
-0.116655
-0.101413
-0.0880385
-0.0761266
-0.0654013
-0.0556319
-0.0466776
-0.0384347
-0.030793
-0.0236841
-0.0170878
-0.010972
-0.00534113
-0.000253537
0.00427958
-0.336493
-0.28983
-0.250856
-0.217913
-0.189669
-0.165108
-0.143448
-0.124094
-0.106629
-0.0907019
-0.0760977
-0.0626605
-0.0502246
-0.0386897
-0.0280301
-0.0181977
-0.00919694
-0.00110757
0.00607102
-0.448356
-0.387558
-0.336314
-0.292623
-0.254886
-0.221881
-0.192642
-0.16643
-0.142718
-0.121058
-0.101179
-0.0828881
-0.0659803
-0.0503369
-0.0359321
-0.0227042
-0.0106497
0.000147618
0.00970843
-0.541836
-0.468871
-0.407633
-0.355314
-0.309914
-0.270008
-0.23448
-0.202489
-0.173435
-0.146804
-0.122296
-0.099701
-0.0788092
-0.0595242
-0.0418686
-0.0258218
-0.0114196
0.00123371
0.0121762
-0.620111
-0.539243
-0.470387
-0.410848
-0.358628
-0.312323
-0.270804
-0.233214
-0.198927
-0.167378
-0.138235
-0.111256
-0.086206
-0.063014
-0.0418211
-0.0227941
-0.00629853
0.00718431
0.0174397
-0.658575
-0.587514
-0.524287
-0.468111
-0.417742
-0.372134
-0.330362
-0.291721
-0.255715
-0.221923
-0.190137
-0.160226
-0.132048
-0.105574
-0.0809025
-0.0578533
-0.0361251
-0.014678
0.00850411
-0.64302
-0.574043
-0.508598
-0.44841
-0.39359
-0.34373
-0.298223
-0.256414
-0.21774
-0.181641
-0.147707
-0.115423
-0.084172
-0.0529899
-0.0205588
0.0158486
0.0587911
0.111193
0.174053
-0.619952
-0.556158
-0.490877
-0.42705
-0.366137
-0.308797
-0.255238
-0.205276
-0.158599
-0.114572
-0.07251
-0.0312696
0.0105756
0.0549647
0.103198
0.156628
0.212664
0.266241
0.307723
-0.580261
-0.530242
-0.476018
-0.420922
-0.366918
-0.315141
-0.266174
-0.220076
-0.176662
-0.135331
-0.0954284
-0.0558209
-0.0153789
0.0268524
0.0700814
0.112418
0.14798
0.170696
0.174527
-0.516216
-0.475231
-0.42829
-0.378689
-0.328659
-0.279743
-0.232895
-0.18847
-0.146448
-0.106334
-0.0675479
-0.0291928
0.00921759
0.047386
0.0830382
0.113018
0.13275
0.140377
0.137571
-0.445755
-0.411681
-0.371595
-0.327871
-0.282629
-0.237628
-0.194103
-0.152677
-0.113516
-0.0763013
-0.0406572
-0.00609644
0.0271802
0.0580412
0.083918
0.102401
0.111584
0.112657
0.108565
-0.369323
-0.343443
-0.310445
-0.272802
-0.232701
-0.192119
-0.152569
-0.11496
-0.0796687
-0.0465888
-0.0155814
0.0134931
0.0400307
0.0627381
0.0796613
0.0897871
0.0931661
0.0919703
0.088595
-0.266514
-0.247864
-0.222274
-0.192134
-0.159558
-0.126455
-0.0943154
-0.064074
-0.0361289
-0.0104549
0.0129481
0.0340511
0.0521604
0.0662685
0.0752946
0.0793195
0.0792294
0.0769873
0.0740278
-0.166496
-0.153565
-0.134452
-0.111222
-0.0859286
-0.0604158
-0.0360893
-0.0138326
0.00602882
0.0235452
0.038704
0.0515252
0.0614838
0.0680539
0.0709043
0.0706988
0.0684348
0.0655363
0.0627403
-0.0551999
-0.0457433
-0.0319402
-0.0156622
0.00126864
0.0173198
0.0314938
0.0432584
0.0526325
0.059908
0.0652364
0.0688526
0.0704941
0.0700598
0.0676527
0.0640593
0.060015
0.0563954
0.0534643
0.0566145
0.0643375
0.0741285
0.0839523
0.0922868
0.0980826
0.100986
0.10105
0.098847
0.0950691
0.0901736
0.0846753
0.0785624
0.0719966
0.0652204
0.0588394
0.0531985
0.0486859
0.0451976
0.168306
0.186486
0.204849
0.219638
0.228378
0.229762
0.223844
0.211597
0.194773
0.175267
0.154749
0.134631
0.115688
0.0985524
0.0836025
0.0710028
0.0604139
0.0510167
0.0409978
0.251756
0.248104
0.238896
0.224313
0.20538
0.183549
0.160471
0.137643
0.116345
0.0973619
0.0810554
0.0674008
0.0560625
0.0466328
0.0387006
0.0317786
0.0252043
0.0178778
0.00796242
0.344089
0.35105
0.350402
0.341457
0.32446
0.300578
0.271588
0.239628
0.206895
0.17514
0.145826
0.119741
0.0971543
0.0779669
0.061822
0.0479757
0.0354431
0.0229147
0.00879615
0.425076
0.430158
0.424803
0.409337
0.384709
0.352724
0.31566
0.276066
0.236384
0.198489
0.163928
0.133439
0.107224
0.0850343
0.0663409
0.0502262
0.0356845
0.0216645
0.00737102
0.49724
0.498352
0.487197
0.464931
0.433044
0.393856
0.350035
0.3044
0.2595
0.217201
0.179004
0.145518
0.116823
0.0925186
0.071954
0.0541225
0.0380513
0.022831
0.00777353
0.565501
0.560355
0.542158
0.512438
0.473134
0.427069
0.377249
0.326648
0.277789
0.232399
0.191818
0.156448
0.126193
0.100493
0.0785904
0.0594033
0.0419566
0.0253373
0.00874793
0.6261
0.61303
0.58707
0.549578
0.503067
0.450879
0.396243
0.342126
0.290861
0.243897
0.20231
0.166229
0.135358
0.10897
0.0862093
0.0659169
0.0470889
0.0287664
0.0100644
0.659293
0.640364
0.607917
0.564351
0.513004
0.457564
0.401216
0.346658
0.295835
0.2498
0.209298
0.174174
0.143947
0.117761
0.0946993
0.0735513
0.0533063
0.0329873
0.0116839
0.698954
0.672686
0.631702
0.580554
0.523476
0.464381
0.406289
0.351495
0.301456
0.25674
0.217705
0.183867
0.154526
0.128668
0.105297
0.0831229
0.0611178
0.0382872
0.0137081
0.731927
0.694349
0.643757
0.585421
0.523917
0.462979
0.405153
0.352088
0.304603
0.262704
0.226336
0.19468
0.166839
0.141655
0.118074
0.0947374
0.0706227
0.0447389
0.0161717
0.747221
0.697874
0.638604
0.575055
0.51181
0.45199
0.397305
0.348531
0.305744
0.26836
0.235937
0.207356
0.181569
0.157309
0.133506
0.108755
0.0820705
0.0524915
0.0191283
0.745905
0.685631
0.619214
0.553014
0.491099
0.435442
0.386591
0.344315
0.307925
0.276279
0.248626
0.223602
0.200057
0.176658
0.152356
0.125715
0.095818
0.0617492
0.0226458
0.738921
0.66651
0.594199
0.527801
0.469834
0.420619
0.37934
0.344762
0.315509
0.289966
0.267174
0.245572
0.22396
0.200958
0.17556
0.146298
0.112338
0.0728023
0.0268348
0.717834
0.63417
0.559936
0.49772
0.447555
0.407815
0.37626
0.350785
0.32948
0.310394
0.292497
0.274102
0.254018
0.230848
0.203659
0.170956
0.131987
0.08591
0.0318302
0.645709
0.562224
0.496428
0.447665
0.412988
0.388712
0.371287
0.358035
0.346779
0.335462
0.323173
0.308235
0.28957
0.265857
0.236304
0.19944
0.154629
0.101059
0.0377113
0.575513
0.498037
0.445925
0.414351
0.396959
0.388401
0.384363
0.382064
0.379369
0.374294
0.366139
0.353283
0.334763
0.309314
0.276258
0.234099
0.182226
0.119719
0.0451604
0.489858
0.427388
0.398306
0.390055
0.39318
0.401677
0.411278
0.419599
0.42484
0.42527
0.420445
0.40889
0.389758
0.361836
0.324522
0.27623
0.216222
0.143241
0.0550335
0.347186
0.326783
0.337094
0.361563
0.390662
0.419463
0.44474
0.464941
0.47887
0.485248
0.483913
0.473701
0.453894
0.423385
0.381616
0.326885
0.2581
0.173329
0.0687052
0.209103
0.248829
0.303817
0.360975
0.414215
0.460979
0.499745
0.529893
0.550929
0.562106
0.563407
0.554103
0.533492
0.500519
0.454473
0.393337
0.315104
0.216376
0.0901164
0.0769163
0.186516
0.287817
0.37692
0.4533
0.517131
0.568858
0.608679
0.636847
0.653254
0.657889
0.65065
0.630757
0.597167
0.548771
0.482929
0.395839
0.281287
0.12645
-0.02268
0.151752
0.29373
0.410715
0.50778
0.587201
0.651273
0.700751
0.736655
0.759649
0.769606
0.767306
0.751818
0.722092
0.67627
0.610614
0.518086
0.387266
0.195003
-0.0704383
0.147369
0.319097
0.458352
0.573326
0.667046
0.743278
0.803095
0.848361
0.880758
0.900068
0.908336
0.90461
0.888009
0.855641
0.802136
0.715169
0.574201
0.338353
-0.0618839
0.169696
0.358462
0.514199
0.644412
0.751364
0.839858
0.911247
0.968445
1.01464
1.04987
1.07813
1.09922
1.11335
1.11693
1.10323
1.05266
0.930347
0.66706
-0.0112661
0.2094
0.404873
0.572425
0.715504
0.834618
0.935285
1.01952
1.0916
1.15726
1.21762
1.2799
1.34723
1.42395
1.5086
1.59764
1.66627
1.66315
1.4787
0.0503088
0.252287
0.450834
0.628054
0.782077
0.911982
1.0238
1.12148
1.21064
1.3019
1.39866
1.51377
1.66197
1.86404
2.14397
2.56058
3.20381
4.26742
6.15213
)
;

boundaryField
{
    up
    {
        type            calculated;
        value           nonuniform List<scalar> 
84
(
-6.15213
-1.4787
-0.66706
-0.338354
-0.195004
-0.12645
-0.0901163
-0.0687049
-0.055033
-0.0451599
-0.0377109
-0.03183
-0.0268348
-0.0226459
-0.0191285
-0.0161719
-0.0137083
-0.011684
-0.0100645
-0.00874804
-0.00777365
-0.00737116
-0.00879669
-0.00797666
-0.034696
-0.0418934
-0.049974
-0.0587523
-0.0692697
-0.082705
-0.100762
-0.125407
-0.155436
-0.30086
-0.182122
-0.0086245
-0.0174234
-0.0121536
-0.00970949
-0.00605223
-0.00431053
-0.00243837
0.002426
0.00427621
0.00606156
0.009683
0.0121311
0.0173776
0.00880551
0.179239
0.302471
0.155659
0.125593
0.100897
0.0828083
0.069353
0.058824
0.0500418
0.0419524
0.0348667
0.00796242
0.00879615
0.00737102
0.00777353
0.00874793
0.0100644
0.0116839
0.0137081
0.0161717
0.0191283
0.0226458
0.0268348
0.0318302
0.0377113
0.0451604
0.0550335
0.0687052
0.0901164
0.12645
0.195003
0.338353
0.66706
1.4787
6.15213
)
;
    }
    low
    {
        type            calculated;
        value           nonuniform List<scalar> 
84
(
-0.0453092
0.0188582
0.07412
0.0837118
0.0310087
-0.0784515
-0.221729
-0.368356
-0.514319
-0.595624
-0.663415
-0.732183
-0.745241
-0.747337
-0.745608
-0.72576
-0.68885
-0.648148
-0.612426
-0.547112
-0.47648
-0.403744
-0.323114
-0.233349
-0.15381
-0.0514346
0.0492247
0.151703
0.24763
0.350584
0.430589
0.504068
0.572394
0.617671
0.644908
0.665653
0.632467
0.55497
0.460028
0.345766
0.217564
0.0835933
-0.0835542
-0.217527
-0.345727
-0.459996
-0.554946
-0.632458
-0.665643
-0.645003
-0.617623
-0.572424
-0.504089
-0.430612
-0.350608
-0.247652
-0.151728
-0.0492455
0.0513873
0.153843
0.233314
0.323131
0.403747
0.476483
0.547113
0.612428
0.64815
0.688851
0.725762
0.745608
0.747338
0.745243
0.732181
0.663417
0.595629
0.514323
0.368359
0.221732
0.0784539
-0.0310076
-0.0837121
-0.0741212
-0.018859
0.0453094
)
;
    }
    left
    {
        type            calculated;
        value           nonuniform List<scalar> 
19
(
-0.0447212
-0.24241
-0.44513
-0.628597
-0.789338
-0.925351
-1.0431
-1.14717
-1.24315
-1.34425
-1.45379
-1.58612
-1.76032
-2.00397
-2.34704
-2.87211
-3.7039
-5.11313
-5.33575
)
;
    }
    right
    {
        type            calculated;
        value           nonuniform List<scalar> 
19
(
0.0447217
0.242411
0.44513
0.628597
0.789338
0.925351
1.0431
1.14717
1.24315
1.34425
1.45379
1.58611
1.76032
2.00396
2.34704
2.8721
3.7039
5.11313
5.33575
)
;
    }
    frontAndBackPlanes
    {
        type            empty;
    }
}


// ************************************************************************* //
