/*--------------------------------*- C++ -*----------------------------------*\
  =========                 |
  \\      /  F ield         | OpenFOAM: The Open Source CFD Toolbox
   \\    /   O peration     | Website:  https://openfoam.org
    \\  /    A nd           | Version:  7
     \\/     M anipulation  |
\*---------------------------------------------------------------------------*/
FoamFile
{
    version     2.0;
    format      ascii;
    class       volScalarField;
    location    "0.19";
    object      gradTy;
}
// * * * * * * * * * * * * * * * * * * * * * * * * * * * * * * * * * * * * * //

dimensions      [0 -1 0 1 0 0 0];

internalField   nonuniform List<scalar> 
1596
(
-0.104662
-0.193912
-0.266061
-0.334009
-0.397458
-0.464801
-0.532027
-0.608608
-0.697949
-0.802478
-0.947054
-1.13122
-1.38858
-1.75825
-2.33723
-3.24413
-4.86874
-7.86859
-18.5876
-0.318251
-0.390945
-0.438236
-0.479808
-0.51795
-0.562322
-0.609855
-0.66949
-0.744712
-0.836114
-0.964732
-1.12795
-1.3484
-1.64377
-2.06396
-2.63361
-3.48294
-4.7325
-8.27898
-0.568116
-0.59037
-0.600279
-0.610898
-0.622092
-0.642339
-0.668344
-0.70808
-0.764265
-0.836243
-0.941506
-1.07534
-1.25352
-1.48409
-1.79742
-2.19663
-2.75261
-3.51545
-5.15054
-0.828152
-0.783265
-0.749562
-0.727003
-0.710682
-0.706367
-0.710105
-0.728492
-0.763394
-0.813346
-0.89278
-0.995913
-1.13399
-1.31017
-1.5438
-1.82973
-2.20971
-2.70367
-3.54798
-1.06564
-0.958637
-0.8833
-0.828748
-0.786007
-0.757824
-0.739702
-0.736715
-0.750035
-0.777784
-0.831804
-0.906171
-1.00911
-1.14142
-1.31608
-1.52525
-1.79533
-2.13268
-2.62363
-1.25178
-1.10606
-0.998864
-0.917115
-0.850897
-0.800769
-0.762225
-0.738937
-0.731636
-0.738358
-0.768749
-0.817356
-0.89032
-0.987359
-1.11759
-1.2729
-1.47087
-1.71179
-2.02825
-1.37182
-1.2176
-1.09345
-0.992399
-0.907415
-0.838444
-0.781771
-0.740042
-0.713833
-0.701367
-0.710429
-0.736376
-0.783844
-0.852137
-0.947866
-1.0636
-1.21153
-1.38933
-1.60952
-1.42688
-1.28871
-1.16347
-1.05292
-0.955363
-0.871758
-0.800036
-0.742363
-0.699479
-0.670017
-0.660234
-0.666445
-0.692165
-0.736617
-0.804699
-0.890009
-1.0012
-1.13504
-1.29612
-1.43016
-1.32564
-1.21255
-1.10178
-0.997801
-0.903848
-0.820122
-0.748939
-0.691509
-0.647065
-0.620692
-0.609672
-0.616689
-0.641036
-0.686373
-0.747344
-0.830139
-0.931411
-1.05241
-1.39257
-1.32357
-1.23111
-1.12885
-1.02551
-0.926814
-0.83538
-0.75423
-0.685292
-0.628549
-0.588291
-0.562711
-0.553924
-0.561368
-0.587829
-0.628942
-0.689195
-0.765504
-0.857687
-1.3472
-1.30287
-1.23068
-1.14067
-1.04244
-0.943166
-0.847491
-0.759351
-0.681532
-0.614851
-0.563132
-0.5254
-0.503393
-0.496722
-0.507519
-0.532263
-0.574197
-0.630608
-0.700709
-1.29233
-1.27301
-1.22008
-1.14334
-1.05244
-0.955229
-0.857764
-0.764882
-0.680236
-0.605499
-0.544296
-0.496392
-0.463303
-0.444815
-0.44257
-0.453742
-0.480638
-0.520929
-0.573602
-1.2252
-1.22802
-1.19362
-1.13097
-1.04929
-0.956745
-0.860184
-0.765225
-0.676283
-0.595815
-0.527465
-0.471628
-0.429738
-0.401756
-0.38898
-0.389155
-0.403922
-0.431319
-0.470286
-1.1665
-1.1815
-1.16132
-1.11111
-1.03854
-0.951506
-0.857176
-0.761739
-0.670219
-0.585741
-0.512094
-0.450184
-0.40145
-0.366004
-0.344896
-0.336309
-0.341388
-0.358481
-0.386568
-1.11284
-1.1374
-1.12783
-1.08771
-1.02316
-0.941509
-0.849895
-0.754871
-0.661918
-0.574711
-0.497226
-0.430787
-0.376869
-0.335712
-0.308173
-0.292763
-0.290255
-0.299247
-0.318789
-1.06055
-1.09449
-1.09376
-1.06187
-1.0041
-0.9273
-0.838451
-0.744333
-0.650761
-0.561839
-0.481743
-0.412114
-0.354478
-0.309163
-0.276872
-0.256347
-0.24808
-0.250858
-0.263815
-1.01353
-1.054
-1.06036
-1.03508
-0.982779
-0.909988
-0.823558
-0.73044
-0.636704
-0.546789
-0.465044
-0.393342
-0.333243
-0.28512
-0.249532
-0.225374
-0.212909
-0.211065
-0.219048
-0.972634
-1.0178
-1.0297
-1.00959
-0.961476
-0.891656
-0.806969
-0.714542
-0.620687
-0.530124
-0.447338
-0.374369
-0.312773
-0.262918
-0.225215
-0.198633
-0.183246
-0.17807
-0.182365
-0.931206
-0.985304
-1.00334
-0.987875
-0.943063
-0.875245
-0.791453
-0.699072
-0.604718
-0.513403
-0.429732
-0.355879
-0.293357
-0.242482
-0.203492
-0.175369
-0.158005
-0.150472
-0.152061
-0.887849
-0.952534
-0.977916
-0.967403
-0.92566
-0.859386
-0.776003
-0.683289
-0.588232
-0.496164
-0.411813
-0.337456
-0.274536
-0.223272
-0.1837
-0.154754
-0.136159
-0.127026
-0.126682
-0.850594
-0.922892
-0.955338
-0.94975
-0.910809
-0.845596
-0.762067
-0.668515
-0.572386
-0.479376
-0.394345
-0.319659
-0.256663
-0.205434
-0.165772
-0.136489
-0.117135
-0.106863
-0.105097
-0.817221
-0.896867
-0.936041
-0.935292
-0.899012
-0.83456
-0.750485
-0.655675
-0.55812
-0.463929
-0.378113
-0.303128
-0.24021
-0.189272
-0.149834
-0.120502
-0.100581
-0.0892502
-0.0862111
-0.785886
-0.873766
-0.919816
-0.923923
-0.890262
-0.826434
-0.741594
-0.645275
-0.546058
-0.450502
-0.363785
-0.288462
-0.225669
-0.175156
-0.136154
-0.106966
-0.0864768
-0.073636
-0.068656
-0.757452
-0.853554
-0.90611
-0.914402
-0.882622
-0.818599
-0.732295
-0.633854
-0.532531
-0.435406
-0.347635
-0.272041
-0.209574
-0.159843
-0.121747
-0.0933194
-0.0726979
-0.0578997
-0.0473986
-0.734006
-0.837772
-0.898248
-0.913751
-0.888245
-0.829088
-0.746359
-0.650081
-0.549707
-0.452685
-0.364034
-0.287104
-0.222867
-0.171296
-0.131385
-0.101459
-0.079282
-0.0624755
-0.0480874
-0.717333
-0.825846
-0.891411
-0.912612
-0.893018
-0.83937
-0.761315
-0.668473
-0.570135
-0.473865
-0.384584
-0.306033
-0.239407
-0.185053
-0.1423
-0.110018
-0.0861808
-0.0688917
-0.0558434
-0.716262
-0.825493
-0.893008
-0.917518
-0.902189
-0.853318
-0.779868
-0.690989
-0.59556
-0.500942
-0.411981
-0.332431
-0.263644
-0.206291
-0.16017
-0.124698
-0.0982627
-0.0792265
-0.0653976
-0.73263
-0.838369
-0.903901
-0.928308
-0.914594
-0.868718
-0.798973
-0.713915
-0.621844
-0.529724
-0.442107
-0.36256
-0.292358
-0.232308
-0.182617
-0.143371
-0.113558
-0.0919432
-0.0763958
-0.764366
-0.864132
-0.924463
-0.945842
-0.931431
-0.886935
-0.820013
-0.738545
-0.650151
-0.561271
-0.476005
-0.397591
-0.326971
-0.264803
-0.211468
-0.16776
-0.133515
-0.108249
-0.0900133
-0.810282
-0.900259
-0.952553
-0.968672
-0.951873
-0.907589
-0.842886
-0.764914
-0.680559
-0.59569
-0.513881
-0.438003
-0.368475
-0.30545
-0.248992
-0.20036
-0.160389
-0.129952
-0.107729
-0.86935
-0.946132
-0.988723
-0.998227
-0.977924
-0.932997
-0.869979
-0.795279
-0.715059
-0.634646
-0.557119
-0.485097
-0.41847
-0.356639
-0.298651
-0.245443
-0.198383
-0.160383
-0.131917
-0.932204
-0.997682
-1.03052
-1.03289
-1.00856
-0.962577
-0.900989
-0.829466
-0.753464
-0.677825
-0.605228
-0.538292
-0.476677
-0.41919
-0.363349
-0.308541
-0.25473
-0.206123
-0.166994
-1.00311
-1.05624
-1.07838
-1.07287
-1.04396
-0.996501
-0.936044
-0.867493
-0.795595
-0.724717
-0.657197
-0.595912
-0.540825
-0.490978
-0.4429
-0.394143
-0.340415
-0.282705
-0.222598
-1.08531
-1.12408
-1.13461
-1.1209
-1.08744
-1.03881
-0.979895
-0.91483
-0.847611
-0.782062
-0.720291
-0.665349
-0.61799
-0.57863
-0.544964
-0.515236
-0.482892
-0.444578
-0.396056
-1.17563
-1.19829
-1.19452
-1.16984
-1.12899
-1.0763
-1.01586
-0.951144
-0.88542
-0.821694
-0.761888
-0.708481
-0.662592
-0.625451
-0.597039
-0.578343
-0.566945
-0.56093
-0.55629
-1.27688
-1.2781
-1.25692
-1.2192
-1.16924
-1.11088
-1.0474
-0.981769
-0.916663
-0.854381
-0.796805
-0.74566
-0.701932
-0.666404
-0.639424
-0.621502
-0.612574
-0.613029
-0.623097
-1.38802
-1.36354
-1.32418
-1.27368
-1.21508
-1.15132
-1.08497
-1.01846
-0.954005
-0.893462
-0.8385
-0.790375
-0.749777
-0.717008
-0.691944
-0.673914
-0.661895
-0.654561
-0.650454
-1.48851
-1.44039
-1.38442
-1.32217
-1.2555
-1.18648
-1.1171
-1.04924
-0.984717
-0.924992
-0.871397
-0.824896
-0.785889
-0.754435
-0.730234
-0.712551
-0.700383
-0.692619
-0.688027
-1.56876
-1.50415
-1.43562
-1.36415
-1.29105
-1.21783
-1.14601
-1.07707
-1.01248
-0.953409
-0.900923
-0.855783
-0.818212
-0.788149
-0.765226
-0.748691
-0.737554
-0.730741
-0.727048
-1.63223
-1.5549
-1.47665
-1.39804
-1.31996
-1.24348
-1.16978
-1.09999
-1.03534
-0.976754
-0.925127
-0.881069
-0.844687
-0.815835
-0.794104
-0.778712
-0.768669
-0.762911
-0.760247
-1.67823
-1.5914
-1.50587
-1.42203
-1.34039
-1.26164
-1.18663
-1.11629
-1.05161
-0.993389
-0.942394
-0.899139
-0.863652
-0.835733
-0.814933
-0.800438
-0.791233
-0.786231
-0.784229
-1.70842
-1.61229
-1.52146
-1.4344
-1.35076
-1.27081
-1.19516
-1.12456
-1.05992
-1.00193
-0.951308
-0.908516
-0.87355
-0.846187
-0.825975
-0.812098
-0.803547
-0.799238
-0.797965
-1.70842
-1.61231
-1.52148
-1.43442
-1.35079
-1.27083
-1.19518
-1.12459
-1.05995
-1.00196
-0.951335
-0.908544
-0.873579
-0.846218
-0.826007
-0.812133
-0.803583
-0.799276
-0.798004
-1.67824
-1.59143
-1.50591
-1.42208
-1.34045
-1.2617
-1.18669
-1.11635
-1.05168
-0.993463
-0.942471
-0.89922
-0.863737
-0.835823
-0.815029
-0.800542
-0.791345
-0.786354
-0.784363
-1.63225
-1.55494
-1.47672
-1.39812
-1.32005
-1.24358
-1.16988
-1.1001
-1.03546
-0.976873
-0.925251
-0.8812
-0.844825
-0.815981
-0.794259
-0.778878
-0.768847
-0.763102
-0.760452
-1.56879
-1.50421
-1.43571
-1.36425
-1.29116
-1.21795
-1.14614
-1.07721
-1.01263
-0.953563
-0.901084
-0.855951
-0.818388
-0.788333
-0.76542
-0.748895
-0.737769
-0.730969
-0.72729
-1.48853
-1.44046
-1.38452
-1.32229
-1.25563
-1.18663
-1.11725
-1.04941
-0.984893
-0.925177
-0.87159
-0.825097
-0.786098
-0.754653
-0.730461
-0.712788
-0.700631
-0.692879
-0.688299
-1.38805
-1.36361
-1.32428
-1.27381
-1.21522
-1.15148
-1.08514
-1.01864
-0.954202
-0.893669
-0.838716
-0.7906
-0.750009
-0.717246
-0.692187
-0.67416
-0.662141
-0.654805
-0.650697
-1.27692
-1.27818
-1.25705
-1.21936
-1.16944
-1.11111
-1.04766
-0.982055
-0.916973
-0.854715
-0.797165
-0.746045
-0.702345
-0.666844
-0.63989
-0.621978
-0.613032
-0.613415
-0.623333
-1.17565
-1.1983
-1.19454
-1.16988
-1.12904
-1.07637
-1.01594
-0.951235
-0.885516
-0.821787
-0.76197
-0.70854
-0.662616
-0.625428
-0.596968
-0.578238
-0.566877
-0.561032
-0.556771
-1.08532
-1.12413
-1.1347
-1.12105
-1.08765
-1.03908
-0.980224
-0.915212
-0.84804
-0.782531
-0.720794
-0.665883
-0.618559
-0.579251
-0.545675
-0.516097
-0.483982
-0.445968
-0.397787
-1.00312
-1.05625
-1.07841
-1.07294
-1.04407
-0.996663
-0.936251
-0.86774
-0.795876
-0.725026
-0.657528
-0.596264
-0.541203
-0.491397
-0.443377
-0.39469
-0.341011
-0.283286
-0.223037
-0.932203
-0.997683
-1.03054
-1.03295
-1.00867
-0.962731
-0.901191
-0.829709
-0.753743
-0.678132
-0.605557
-0.538641
-0.477049
-0.41959
-0.363775
-0.308978
-0.255144
-0.206474
-0.167265
-0.869346
-0.946125
-0.988735
-0.998273
-0.978014
-0.933134
-0.870164
-0.795506
-0.71532
-0.634933
-0.557426
-0.485419
-0.418805
-0.356983
-0.298994
-0.245767
-0.198667
-0.160616
-0.132103
-0.810277
-0.900248
-0.952556
-0.968706
-0.951949
-0.907712
-0.843056
-0.765124
-0.6808
-0.595954
-0.51416
-0.438291
-0.368765
-0.305736
-0.249262
-0.200602
-0.160593
-0.130119
-0.107866
-0.764357
-0.864114
-0.924458
-0.945864
-0.931494
-0.887042
-0.820165
-0.738735
-0.650371
-0.56151
-0.476254
-0.397843
-0.327218
-0.265037
-0.21168
-0.167944
-0.133669
-0.108377
-0.0901209
-0.732623
-0.83835
-0.903891
-0.928324
-0.914647
-0.868813
-0.799108
-0.714085
-0.62204
-0.529936
-0.442325
-0.362776
-0.292564
-0.232498
-0.182785
-0.143514
-0.113678
-0.0920444
-0.0764849
-0.716254
-0.825474
-0.892996
-0.917529
-0.902233
-0.8534
-0.779986
-0.691139
-0.595731
-0.501126
-0.412168
-0.332613
-0.263814
-0.206445
-0.160305
-0.124812
-0.0983592
-0.0793109
-0.065477
-0.717324
-0.825826
-0.891393
-0.91261
-0.893041
-0.839423
-0.761396
-0.668578
-0.570256
-0.473996
-0.384716
-0.30616
-0.239524
-0.185157
-0.142389
-0.110093
-0.0862446
-0.0689517
-0.0559126
-0.734019
-0.837779
-0.898258
-0.913769
-0.888275
-0.829131
-0.746417
-0.650151
-0.549787
-0.452773
-0.364125
-0.287196
-0.222956
-0.17138
-0.131463
-0.101531
-0.0793466
-0.0625316
-0.0481297
-0.757466
-0.853567
-0.906116
-0.914398
-0.882606
-0.818571
-0.732257
-0.633807
-0.532479
-0.435354
-0.347584
-0.271995
-0.209534
-0.159809
-0.121718
-0.0932943
-0.072675
-0.0578766
-0.0473693
-0.785895
-0.873773
-0.919823
-0.923927
-0.890263
-0.826434
-0.741592
-0.645272
-0.546055
-0.4505
-0.363784
-0.288464
-0.225671
-0.175159
-0.136158
-0.106971
-0.0864815
-0.0736411
-0.0686601
-0.817228
-0.896872
-0.936043
-0.935292
-0.899009
-0.834555
-0.750479
-0.655669
-0.558115
-0.463925
-0.378111
-0.303127
-0.240211
-0.189274
-0.149837
-0.120505
-0.100584
-0.0892536
-0.0862141
-0.850599
-0.922896
-0.955339
-0.949749
-0.910805
-0.845591
-0.762062
-0.66851
-0.572382
-0.479373
-0.394343
-0.319658
-0.256663
-0.205435
-0.165774
-0.136491
-0.117137
-0.106866
-0.105099
-0.887852
-0.952537
-0.977917
-0.967401
-0.925657
-0.859382
-0.775999
-0.683285
-0.588229
-0.496162
-0.411812
-0.337456
-0.274537
-0.223273
-0.183702
-0.154755
-0.136161
-0.127028
-0.126684
-0.931209
-0.985306
-1.00334
-0.987873
-0.943061
-0.875243
-0.79145
-0.69907
-0.604716
-0.513401
-0.429731
-0.355879
-0.293357
-0.242482
-0.203493
-0.17537
-0.158007
-0.150473
-0.152062
-0.972636
-1.0178
-1.0297
-1.00959
-0.961474
-0.891654
-0.806967
-0.71454
-0.620686
-0.530123
-0.447337
-0.374368
-0.312773
-0.262918
-0.225216
-0.198634
-0.183247
-0.178072
-0.182366
-1.01353
-1.054
-1.06036
-1.03508
-0.982777
-0.909987
-0.823557
-0.730439
-0.636704
-0.546788
-0.465043
-0.393342
-0.333243
-0.28512
-0.249533
-0.225374
-0.21291
-0.211066
-0.219048
-1.06055
-1.09449
-1.09376
-1.06187
-1.0041
-0.9273
-0.838451
-0.744333
-0.650761
-0.561839
-0.481743
-0.412114
-0.354477
-0.309163
-0.276872
-0.256348
-0.248081
-0.250859
-0.263815
-1.11284
-1.1374
-1.12783
-1.08771
-1.02316
-0.941509
-0.849896
-0.754871
-0.661918
-0.57471
-0.497225
-0.430786
-0.376868
-0.335712
-0.308173
-0.292763
-0.290255
-0.299246
-0.318788
-1.1665
-1.1815
-1.16132
-1.11111
-1.03854
-0.951507
-0.857177
-0.76174
-0.670219
-0.58574
-0.512093
-0.450184
-0.401449
-0.366004
-0.344895
-0.336308
-0.341387
-0.358479
-0.386566
-1.2252
-1.22802
-1.19362
-1.13097
-1.04929
-0.956746
-0.860185
-0.765225
-0.676283
-0.595814
-0.527465
-0.471627
-0.429737
-0.401755
-0.388979
-0.389154
-0.403919
-0.431315
-0.470284
-1.29233
-1.27301
-1.22007
-1.14334
-1.05244
-0.95523
-0.857765
-0.764882
-0.680236
-0.605498
-0.544295
-0.496391
-0.463302
-0.444814
-0.442569
-0.453739
-0.480634
-0.520924
-0.573599
-1.3472
-1.30287
-1.23068
-1.14067
-1.04244
-0.943167
-0.847492
-0.759352
-0.681532
-0.614851
-0.563132
-0.5254
-0.503393
-0.496721
-0.507518
-0.53226
-0.574193
-0.630602
-0.700706
-1.39257
-1.32357
-1.23111
-1.12885
-1.02551
-0.926816
-0.835381
-0.754231
-0.685293
-0.628549
-0.588291
-0.562711
-0.553923
-0.561367
-0.587827
-0.628939
-0.68919
-0.765499
-0.857685
-1.43016
-1.32564
-1.21255
-1.10178
-0.997803
-0.90385
-0.820123
-0.74894
-0.69151
-0.647066
-0.620693
-0.609672
-0.616689
-0.641034
-0.68637
-0.74734
-0.830135
-0.931407
-1.05241
-1.42688
-1.28871
-1.16347
-1.05293
-0.955365
-0.87176
-0.800037
-0.742364
-0.69948
-0.670017
-0.660235
-0.666445
-0.692164
-0.736615
-0.804696
-0.890005
-1.00119
-1.13503
-1.29613
-1.37182
-1.21761
-1.09345
-0.992401
-0.907416
-0.838445
-0.781772
-0.740043
-0.713834
-0.701368
-0.71043
-0.736376
-0.783843
-0.852135
-0.947863
-1.0636
-1.21153
-1.38933
-1.60953
-1.25179
-1.10607
-0.998867
-0.917117
-0.850899
-0.800771
-0.762227
-0.738939
-0.731637
-0.738359
-0.76875
-0.817355
-0.890319
-0.987357
-1.11759
-1.2729
-1.47087
-1.71179
-2.02825
-1.06565
-0.958641
-0.883303
-0.82875
-0.78601
-0.757826
-0.739705
-0.736717
-0.750037
-0.777785
-0.831805
-0.90617
-1.00911
-1.14142
-1.31608
-1.52525
-1.79533
-2.13269
-2.62363
-0.828157
-0.783267
-0.749564
-0.727005
-0.710684
-0.706369
-0.710107
-0.728494
-0.763396
-0.813347
-0.892781
-0.995912
-1.13399
-1.31016
-1.5438
-1.82972
-2.20971
-2.70368
-3.54798
-0.568119
-0.590371
-0.60028
-0.610899
-0.622094
-0.642341
-0.668347
-0.708082
-0.764266
-0.836244
-0.941506
-1.07534
-1.25352
-1.48409
-1.79741
-2.19663
-2.75261
-3.51545
-5.15054
-0.318253
-0.390944
-0.438236
-0.479808
-0.517951
-0.562323
-0.609856
-0.669491
-0.744713
-0.836115
-0.964732
-1.12795
-1.3484
-1.64377
-2.06396
-2.63361
-3.48294
-4.7325
-8.27898
-0.104663
-0.193912
-0.266061
-0.334009
-0.397458
-0.464801
-0.532028
-0.608608
-0.697949
-0.802478
-0.947053
-1.13121
-1.38858
-1.75824
-2.33722
-3.24413
-4.86874
-7.86859
-18.5876
)
;

boundaryField
{
    up
    {
        type            calculated;
        value           nonuniform List<scalar> 
84
(
-16.8443
-9.12288
-5.59631
-3.81033
-2.79407
-2.14773
-1.69778
-1.36349
-1.10456
-0.898411
-0.732331
-0.597897
-0.488789
-0.400434
-0.329002
-0.271203
-0.224283
-0.185979
-0.154465
-0.12821
-0.105988
-0.0865492
-0.0677419
-0.0423712
-0.0408813
-0.0521233
-0.0614957
-0.0719327
-0.0846872
-0.101138
-0.123188
-0.153368
-0.201109
-0.389792
-0.569809
-0.631726
-0.648558
-0.686226
-0.725748
-0.759484
-0.783814
-0.797952
-0.797993
-0.783953
-0.759696
-0.725996
-0.686506
-0.648804
-0.631831
-0.570328
-0.391798
-0.201521
-0.153607
-0.123359
-0.101267
-0.0847901
-0.0720191
-0.0615742
-0.052212
-0.0409337
-0.0423382
-0.0677447
-0.0865517
-0.10599
-0.128211
-0.154466
-0.18598
-0.224283
-0.271203
-0.329
-0.400433
-0.488787
-0.597895
-0.73233
-0.898412
-1.10456
-1.3635
-1.69779
-2.14774
-2.79408
-3.81033
-5.5963
-9.12288
-16.8443
)
;
    }
    low
    {
        type            calculated;
        value           nonuniform List<scalar> 
84
(
-0.112365
-0.332743
-0.599483
-0.88079
-1.13821
-1.33752
-1.4604
-1.50935
-1.49629
-1.43786
-1.38169
-1.31644
-1.23506
-1.16862
-1.11056
-1.05205
-0.99952
-0.956956
-0.911972
-0.860576
-0.817012
-0.778644
-0.74127
-0.707186
-0.674028
-0.653068
-0.652798
-0.676001
-0.716636
-0.773728
-0.842731
-0.912211
-0.990678
-1.08156
-1.17901
-1.28966
-1.41373
-1.52229
-1.60724
-1.67463
-1.72378
-1.75853
-1.75854
-1.72379
-1.67464
-1.60725
-1.5223
-1.41375
-1.28968
-1.179
-1.08158
-0.990668
-0.912205
-0.842725
-0.773723
-0.71663
-0.676
-0.652798
-0.653071
-0.674035
-0.707207
-0.741273
-0.77865
-0.817016
-0.860579
-0.911974
-0.956958
-0.999521
-1.05205
-1.11056
-1.16862
-1.23506
-1.31644
-1.38168
-1.43785
-1.49629
-1.50935
-1.4604
-1.33752
-1.13822
-0.880798
-0.599488
-0.332746
-0.112366
)
;
    }
    left
    {
        type            calculated;
        value           nonuniform List<scalar> 
19
(
-0.102688
-0.190342
-0.263953
-0.334219
-0.400395
-0.47055
-0.540798
-0.621077
-0.714887
-0.826079
-0.980658
-1.17925
-1.46004
-1.8698
-2.51735
-3.54814
-5.41585
-8.90491
-17.4704
)
;
    }
    right
    {
        type            calculated;
        value           nonuniform List<scalar> 
19
(
-0.102688
-0.190342
-0.263953
-0.334219
-0.400395
-0.470551
-0.540799
-0.621077
-0.714887
-0.826079
-0.980657
-1.17925
-1.46004
-1.8698
-2.51735
-3.54813
-5.41585
-8.90491
-17.4704
)
;
    }
    frontAndBackPlanes
    {
        type            empty;
    }
}


// ************************************************************************* //
