/*--------------------------------*- C++ -*----------------------------------*\
  =========                 |
  \\      /  F ield         | OpenFOAM: The Open Source CFD Toolbox
   \\    /   O peration     | Website:  https://openfoam.org
    \\  /    A nd           | Version:  7
     \\/     M anipulation  |
\*---------------------------------------------------------------------------*/
FoamFile
{
    version     2.0;
    format      ascii;
    class       volScalarField;
    location    "0.326";
    object      gradTz;
}
// * * * * * * * * * * * * * * * * * * * * * * * * * * * * * * * * * * * * * //

dimensions      [0 -1 0 1 0 0 0];

internalField   nonuniform List<scalar> 
1596
(
-4.8412e-16
-2.36039e-16
2.3907e-16
4.50658e-18
-4.57408e-16
0
-2.14769e-16
-2.11755e-16
-1.30447e-17
-1.11006e-16
-1.08514e-18
-1.10251e-16
4.83954e-16
-1.0885e-16
5.09004e-16
4.38927e-16
2.60993e-16
3.29395e-16
0
4.84484e-16
0
6.8737e-16
-4.26304e-18
-2.12409e-16
2.10765e-16
4.31811e-16
1.23445e-17
2.05064e-16
-9.85999e-17
1.96583e-16
-3.15764e-18
-2.72395e-16
-1.69887e-16
-4.11616e-16
-4.0126e-16
-3.64854e-16
2.07534e-16
0
-2.38601e-16
0
-4.50618e-16
6.77598e-18
4.17122e-16
-1.15198e-16
7.88584e-18
-2.92803e-18
-3.05824e-18
-3.3131e-18
7.60438e-17
0
1.41329e-16
4.01544e-16
-3.95168e-17
3.16453e-17
7.45094e-17
1.15855e-16
0
3.73508e-16
-1.13776e-16
1.1336e-16
0
-1.09496e-16
-1.12663e-16
1.94995e-16
-1.7256e-16
0
0
-5.91479e-17
3.96701e-17
0
-1.1866e-16
-1.52016e-16
1.04719e-16
-1.06569e-16
-5.48955e-18
0
6.50996e-17
1.75861e-16
-1.60802e-16
0
-4.8099e-17
-1.45857e-16
0
2.19497e-16
-2.19847e-17
-1.98917e-17
-1.67765e-17
1.15039e-16
1.40371e-16
1.42933e-17
3.60473e-18
-1.13242e-16
5.71915e-18
5.23559e-17
-2.24007e-17
-1.69053e-17
-2.41598e-16
2.3218e-16
-2.0559e-16
-3.80027e-19
-1.85233e-16
5.23978e-18
-5.25718e-18
-1.48401e-16
0
-1.37221e-17
-1.35832e-16
-1.26885e-16
1.04156e-16
1.05721e-16
-1.44866e-18
-6.33454e-17
-5.31038e-17
4.05063e-17
1.41281e-16
-2.46833e-16
2.80754e-16
1.58502e-16
0
1.41881e-16
8.46174e-17
-4.08969e-17
1.88518e-16
-3.56475e-17
-1.49452e-16
1.42658e-18
-8.947e-17
-1.0467e-16
-8.26715e-17
6.97489e-17
6.3903e-17
-8.49942e-19
-1.69552e-17
1.22171e-17
3.9121e-16
-4.67797e-16
0
0
-1.78709e-16
0
0
0
1.2713e-16
0
0
8.18213e-17
3.23542e-18
2.07653e-17
-6.08457e-17
0
3.23908e-17
1.2485e-17
0
-2.56167e-16
4.9466e-16
0
0
1.84045e-16
0
-7.23868e-17
7.23136e-17
-1.294e-16
5.44447e-17
-5.48429e-17
0
7.92772e-17
7.49607e-17
0
-4.33266e-17
-3.31044e-17
-1.08826e-17
6.04639e-16
-2.84895e-16
0
-2.11397e-16
2.09031e-16
0
1.61398e-16
0
0
0
5.1189e-17
-5.14344e-17
0
-6.10921e-17
-1.76714e-17
0
3.77618e-18
2.49702e-17
0
-1.53465e-16
0
0
2.12088e-16
-3.98975e-16
1.78329e-17
7.06116e-18
-6.8102e-17
6.85049e-18
1.97481e-18
-5.42757e-17
-8.883e-17
0
6.72225e-17
-1.31809e-17
1.33787e-17
3.39732e-17
-1.95144e-17
-9.09194e-18
1.3129e-16
-1.18955e-17
1.25909e-16
4.39237e-16
-2.03842e-17
-1.88116e-16
0
0
0
1.11969e-16
4.58071e-17
1.6601e-16
-4.01242e-17
-6.602e-17
-4.02486e-17
-2.14703e-17
9.52255e-18
-2.06033e-17
8.67235e-18
-1.4297e-16
1.39969e-16
-2.60774e-16
-4.33951e-16
4.05499e-16
1.65886e-16
-3.09596e-16
2.73007e-16
-2.40296e-16
6.24931e-17
4.92056e-17
-4.46176e-17
3.04236e-17
-2.68341e-17
7.78892e-17
0
-5.8223e-18
4.26277e-17
-6.31453e-18
-9.14592e-16
4.23377e-16
3.67935e-19
-9.82582e-17
1.06977e-17
1.61425e-16
-3.08437e-16
-1.30664e-16
1.13894e-16
-9.86795e-17
-8.56611e-17
0
-9.91833e-17
-2.96508e-17
-5.37429e-17
-3.19768e-17
2.52281e-18
-2.74386e-17
4.44205e-19
1.49482e-16
-1.34866e-16
3.16966e-19
-1.06902e-16
-2.73348e-16
2.59375e-16
7.58448e-19
1.27332e-16
-1.10891e-16
1.89941e-16
4.51013e-17
3.79723e-17
1.19616e-16
0
1.00623e-16
4.62092e-17
0
1.5214e-17
3.79042e-19
0
1.30836e-16
1.06143e-16
-2.1884e-16
2.65086e-16
-4.03237e-16
2.89908e-16
1.13881e-16
-1.45324e-17
-1.87819e-16
3.57922e-17
-3.56156e-17
-1.10914e-16
4.50121e-17
-2.20007e-17
-4.69612e-17
2.06982e-17
-1.27768e-17
4.81072e-18
-1.39263e-16
4.82114e-16
-3.58288e-16
2.0037e-16
0
0
-5.89086e-17
1.24212e-16
-9.27585e-17
1.75702e-16
0
0
7.56895e-17
-6.6737e-17
-4.85614e-17
1.52465e-17
-1.60731e-17
8.37205e-18
0
9.84385e-18
1.30222e-16
-1.07978e-16
-9.60426e-17
-1.59838e-16
-5.56764e-17
7.28189e-17
0
-8.77049e-17
-7.34801e-17
6.6856e-17
-5.58893e-17
4.63074e-17
0
1.83975e-17
3.72201e-17
0
0
0
-9.39044e-18
2.14213e-16
8.50973e-17
-2.8877e-16
8.18617e-17
7.15629e-17
0
0
8.33084e-17
-4.32475e-17
-6.46643e-17
5.40551e-17
-4.47827e-17
0
-1.25353e-17
1.11253e-17
0
-9.21304e-18
-3.19591e-18
-1.13175e-16
3.32133e-16
-4.07543e-16
-1.68119e-16
8.74095e-17
-6.80997e-17
5.85931e-17
0
-4.21836e-17
3.6013e-17
0
0
1.81529e-17
-1.81738e-17
5.65352e-18
-7.15669e-18
1.34405e-17
1.42921e-18
2.36514e-18
5.74759e-17
-5.24846e-17
2.74297e-16
-1.77565e-16
-7.42668e-17
8.40173e-18
1.19442e-16
4.7246e-17
4.03633e-17
0
2.51909e-17
-2.34499e-17
1.9147e-17
-1.65699e-17
2.2251e-17
-3.86323e-17
-1.0459e-17
9.16118e-18
2.47964e-18
1.55068e-16
-1.56568e-16
0
1.51699e-16
-7.92779e-17
-6.16767e-17
4.51429e-17
-1.42673e-16
0
-2.39514e-18
-2.84783e-17
-2.13814e-17
3.22532e-17
-2.28078e-18
-2.15052e-17
1.61614e-17
0
6.04118e-18
-2.40771e-18
2.61775e-16
-4.7027e-17
2.04632e-16
-1.60583e-16
9.25873e-17
1.31314e-17
-1.08395e-16
-3.91459e-17
7.14697e-17
-2.66978e-18
-4.4972e-17
3.87109e-17
-1.72214e-17
-2.36232e-17
0
0
0
-6.10018e-18
2.28501e-19
-2.3483e-16
2.29253e-16
1.47525e-19
3.64205e-17
3.20342e-17
-7.98671e-17
9.57892e-17
-8.09714e-17
7.06294e-17
-2.47501e-17
4.7412e-17
1.75251e-17
-7.57683e-18
4.14023e-19
-2.95872e-18
-5.21229e-18
0
0
0
0
0
1.16048e-16
-5.40011e-17
-1.79553e-16
0
0
-2.34268e-17
-3.91415e-17
3.35361e-17
0
-2.21024e-17
1.76656e-17
-6.07183e-17
7.03195e-17
-2.37201e-17
2.53186e-17
2.81238e-18
0
-4.55167e-17
4.60769e-17
0
-3.84965e-17
3.91479e-17
6.67129e-17
0
2.36505e-17
3.3147e-17
-1.46097e-16
0
-2.40741e-17
1.93094e-17
1.4391e-17
-1.09538e-17
1.62533e-17
0
-6.15505e-18
0
-2.33994e-17
-2.35583e-17
1.39634e-18
3.95542e-17
-1.08283e-16
0
-2.90859e-17
0
8.70291e-17
3.62965e-17
0
9.53593e-17
-1.02087e-16
9.79615e-18
-2.44802e-17
6.10779e-18
3.1054e-17
1.20936e-17
-9.57391e-18
0
4.86309e-17
-4.35427e-17
5.41954e-17
6.67825e-17
0
5.94308e-17
-5.66672e-17
-4.64624e-17
7.234e-17
-1.08859e-16
-5.52573e-17
0
0
1.31781e-17
0
0
3.91885e-18
0
-2.14434e-16
1.64362e-16
0
2.22199e-18
-3.92164e-17
-2.20085e-18
3.58386e-17
2.68792e-17
-3.26272e-17
-8.78476e-17
1.43793e-16
-3.8664e-17
0
-1.98126e-17
0
0
0
-1.50876e-17
1.20365e-17
-6.03524e-17
5.71574e-17
1.55417e-16
-1.52788e-16
4.75976e-17
2.4181e-18
-3.64285e-17
3.21317e-17
5.59473e-17
4.40441e-17
-8.72248e-17
0
4.83293e-17
8.06251e-18
-2.26721e-17
-5.1514e-17
4.26884e-17
-7.25046e-18
1.35456e-17
-2.0309e-16
2.98535e-16
-2.96841e-16
5.31932e-17
4.61666e-17
-4.43343e-17
3.76927e-17
-3.07949e-17
0
-2.71677e-17
4.51285e-17
1.96264e-17
3.22494e-17
4.25305e-17
-6.41294e-17
-7.12433e-19
0
-5.3963e-18
1.7942e-18
-2.19601e-16
-6.64539e-17
-1.18723e-16
6.26749e-17
-1.0547e-16
9.3465e-17
-5.62079e-17
4.88117e-17
-2.98253e-18
-2.99341e-18
-4.67137e-17
2.71928e-17
-1.64546e-17
4.95981e-17
-5.3244e-17
7.17983e-18
5.79455e-18
0
-3.07768e-18
2.37437e-16
-7.15797e-17
0
0
-1.08713e-16
2.12663e-16
-5.03143e-17
-9.97588e-18
8.32516e-17
-2.11323e-18
0
0
-2.05581e-17
0
-4.5851e-17
1.12528e-16
-7.85249e-17
0
1.19986e-18
8.16206e-17
1.539e-16
0
-6.69368e-17
-5.59729e-17
-5.06599e-17
-5.21845e-17
2.21501e-17
-6.24575e-17
-3.4918e-17
0
0
2.63822e-17
0
0
-6.12392e-17
1.00715e-16
0
0
5.60033e-16
-6.39991e-17
-3.4367e-16
-1.91273e-16
2.59099e-16
8.41485e-17
5.05994e-17
0
-1.91022e-17
1.8919e-17
4.65986e-17
-1.51409e-17
-2.31505e-17
3.60433e-17
-3.83391e-17
-1.21373e-17
0
0
0
4.48479e-17
-3.58169e-16
3.51498e-16
-3.41299e-17
-2.68112e-16
4.22098e-16
-2.13221e-16
0
0
1.18652e-16
-9.79296e-17
0
-3.04024e-17
5.27319e-17
-6.09766e-18
1.55607e-17
4.78865e-18
4.82192e-20
1.0548e-18
0
0
0
3.00469e-16
-2.01291e-16
2.16095e-16
-3.3796e-16
9.69269e-17
0
-3.57814e-17
5.7944e-17
-5.92222e-17
-1.18373e-17
-3.38796e-19
-8.22986e-18
-1.25706e-18
-6.5492e-18
-1.82495e-18
-1.00291e-18
3.76523e-16
-6.74032e-16
3.20726e-16
0
8.86754e-17
-1.20706e-16
1.23154e-16
-9.77308e-17
0
-4.87989e-17
6.84336e-17
0
0
-2.58236e-19
0
-8.34168e-18
5.72066e-18
1.0897e-18
1.59402e-18
3.63088e-16
0
-1.47652e-16
1.64975e-16
-1.05316e-16
2.30871e-16
-1.0962e-16
-8.71864e-17
8.80969e-17
-9.03861e-18
0
0
5.89185e-18
-1.00777e-17
-7.05984e-18
1.34151e-17
-2.90418e-18
1.4995e-18
0
2.06217e-16
1.63189e-16
-4.49742e-18
-1.57096e-16
-1.60623e-17
-1.17005e-16
1.19254e-17
9.91193e-17
-5.17259e-18
9.20834e-18
0
0
-6.03581e-18
0
7.12671e-18
-7.62388e-18
0
9.77586e-19
-2.71702e-19
-1.0947e-16
-8.1815e-17
7.65899e-17
-8.8747e-18
-4.00575e-18
1.09133e-17
0
-2.92072e-18
4.42023e-17
-3.72254e-17
0
1.28099e-17
-2.47687e-18
-1.13489e-17
-1.04094e-18
-8.13034e-19
0
-7.63564e-19
0
4.49464e-17
-8.57309e-17
-1.40266e-18
3.72192e-17
3.45465e-17
-3.43476e-17
-2.46899e-17
2.79608e-17
-9.7206e-18
7.59511e-18
-7.47124e-18
7.70167e-18
0
1.98681e-20
-7.65707e-19
2.75735e-18
-9.44783e-21
0
0
4.49479e-17
-4.47795e-17
-3.70246e-17
3.27817e-17
6.10486e-17
-6.1409e-17
-1.23453e-17
1.23743e-17
-9.80256e-18
9.90556e-18
-7.47146e-18
1.41262e-17
-3.96178e-18
-2.86928e-18
-8.84655e-19
2.92444e-19
7.00597e-19
1.85469e-19
-1.39113e-19
0
-1.07029e-17
6.4548e-17
-6.99212e-17
6.09903e-17
-5.40303e-17
0
4.39819e-17
-3.93162e-17
0
1.49045e-17
-1.88879e-17
-1.08295e-17
1.135e-17
2.10247e-18
0
0
-7.63651e-19
2.77654e-19
1.78963e-16
-3.30661e-16
3.39788e-16
-3.00602e-16
1.18579e-16
-1.02475e-16
9.71678e-17
1.17227e-17
-4.39921e-17
3.93281e-17
0
-2.90492e-17
2.64328e-17
-5.07343e-18
-2.05937e-18
3.27025e-18
2.40837e-18
7.41359e-19
-2.68277e-19
4.09567e-16
0
-1.66947e-16
1.2969e-16
1.58775e-17
-1.2369e-16
2.20403e-16
-1.97277e-16
7.77178e-17
-3.37711e-17
3.45677e-17
6.88923e-18
1.19973e-17
4.94157e-18
-4.15371e-18
-5.27254e-19
-5.22767e-18
0
5.41668e-19
3.30663e-16
-3.722e-16
0
3.48274e-17
1.52436e-16
-1.4958e-16
2.59288e-17
2.32106e-17
1.01674e-17
1.82067e-17
0
0
-2.08898e-17
3.94685e-17
-1.44767e-17
-5.22604e-18
5.72164e-18
4.60581e-19
-1.03312e-18
2.73137e-17
3.26932e-16
-3.83311e-17
-2.65593e-16
2.33058e-16
2.82852e-17
-2.5376e-17
-2.26698e-17
7.6057e-17
-9.43628e-17
5.79582e-17
-5.9236e-17
9.5119e-18
-1.18378e-17
2.21238e-17
-1.47099e-17
0
0
1.0902e-18
0
8.23868e-17
-2.51404e-16
2.87054e-16
-2.37325e-16
2.3676e-16
0
8.5085e-17
-8.54749e-17
-6.58256e-17
9.79957e-17
0
4.17768e-17
-5.27653e-17
-7.84033e-18
0
-9.0417e-19
-1.86001e-18
6.13456e-22
-7.75981e-16
3.72107e-16
0
-2.59047e-16
2.59021e-16
1.62868e-16
-1.07161e-16
4.53264e-17
0
-2.09811e-18
1.62879e-17
-1.51188e-17
-2.31177e-17
3.5986e-17
-3.82651e-17
0
8.66644e-18
-2.04074e-18
-1.14972e-18
4.79216e-16
-4.73068e-16
0
6.70329e-17
6.1864e-17
-5.70741e-17
0
-4.75025e-17
-4.20391e-17
0
-1.3878e-18
0
2.63911e-17
0
0
1.26445e-17
4.79028e-17
-6.17437e-17
0
7.67745e-20
7.16139e-17
-6.70224e-17
5.64526e-17
-2.86111e-16
1.10488e-16
0
9.98244e-18
2.8402e-17
0
-3.01401e-17
9.0821e-17
-9.54127e-17
1.67092e-17
0
-1.55235e-18
0
0
0
7.09334e-20
0
6.19454e-17
0
-1.00034e-16
1.01624e-16
0
3.84789e-17
-3.16736e-17
1.16675e-16
-5.66609e-17
2.13712e-17
-3.52058e-17
3.45026e-17
-5.33013e-17
-8.62601e-18
0
-6.21581e-18
0
1.87322e-16
-3.16512e-16
0
-5.33061e-17
4.87777e-17
0
0
-7.06614e-17
0
-2.71854e-17
-4.51595e-17
-1.96421e-17
3.22781e-17
0
1.87004e-17
0
0
1.37483e-17
-1.5417e-17
0
2.77006e-16
-2.22104e-16
4.93493e-17
-4.51684e-17
-1.92176e-17
5.59721e-17
6.46659e-17
-8.18977e-17
2.65399e-17
1.21573e-18
-2.69823e-17
1.11526e-16
-3.4829e-17
-8.49708e-17
2.98809e-17
-8.18354e-18
4.86074e-18
-1.56652e-18
-4.41795e-16
1.64338e-16
0
0
1.96124e-17
-1.99436e-17
1.53204e-17
1.09801e-17
7.4654e-17
3.97487e-17
-4.00165e-17
-1.01462e-18
-2.42733e-17
1.98277e-17
0
1.0686e-17
7.50081e-18
4.24593e-18
1.41591e-18
0
1.44107e-16
-1.36476e-16
4.41981e-17
4.74783e-17
-9.24388e-18
-3.10693e-17
-2.73407e-17
-9.39364e-17
3.94491e-17
-2.60776e-17
3.42458e-17
2.26985e-17
-3.00626e-17
3.19096e-17
2.17003e-17
-2.77324e-17
-3.92174e-18
0
-2.49049e-17
-1.14027e-16
4.15735e-17
3.9564e-17
-1.40464e-16
1.01808e-16
5.35996e-17
-5.4787e-17
4.40921e-17
-3.74392e-17
0
0
-3.55358e-17
6.46702e-17
-2.90795e-17
2.87887e-17
-3.13624e-17
5.38516e-18
-9.58148e-18
4.7054e-17
4.46153e-17
-4.1444e-17
3.41423e-17
-3.87609e-17
-6.24269e-17
0
0
0
0
0
0
1.84292e-17
-5.06666e-17
5.35855e-17
-1.83895e-17
2.2625e-17
1.09636e-17
-9.33062e-18
9.69186e-17
-1.7058e-16
2.13776e-16
-1.05371e-16
1.45071e-16
-1.1293e-16
2.13876e-16
-1.23499e-16
-7.13524e-17
7.29903e-17
0
2.20881e-17
-1.80044e-17
4.66707e-17
-1.46776e-17
-2.02272e-17
-4.49305e-17
3.29394e-18
7.99102e-18
1.50516e-16
4.44858e-17
0
-7.2625e-17
-6.0001e-17
1.39579e-16
1.6456e-17
-6.058e-17
3.68304e-17
-2.77654e-17
0
-1.74852e-17
0
-1.5394e-17
1.27553e-17
-1.18189e-17
-3.95445e-18
2.86169e-18
0
2.10667e-16
-4.70263e-17
2.04546e-16
-1.60525e-16
-3.36134e-17
1.3855e-16
-8.30443e-17
3.65439e-18
3.08049e-18
-2.73378e-17
2.65892e-17
0
0
1.84442e-17
-7.12646e-18
4.79373e-18
1.42854e-17
-4.96453e-18
0
3.98355e-20
0
-4.48987e-17
2.71968e-16
-1.85274e-16
-2.07495e-16
1.1423e-16
-1.27671e-16
1.19856e-16
6.2565e-17
-4.94935e-17
2.07327e-17
-1.88458e-17
3.01741e-18
3.33374e-17
1.57941e-18
-1.33827e-17
1.32396e-17
-2.68427e-18
5.16176e-16
-1.65441e-16
8.55364e-17
-2.61954e-16
7.42663e-17
-1.21266e-16
6.41619e-17
0
0
-2.45013e-18
-3.23368e-18
-9.49047e-19
0
-2.84775e-17
-2.22512e-17
1.66996e-17
-1.23334e-18
2.01914e-18
5.22273e-18
0
-1.66265e-16
2.89433e-16
6.99349e-17
-2.43607e-16
6.80993e-17
-1.09476e-16
1.51911e-17
9.21976e-17
0
0
1.75872e-18
2.23166e-17
0
-2.09864e-17
-9.8519e-18
1.44248e-18
-5.33677e-18
-5.91985e-18
0
-1.06705e-16
1.95195e-17
1.95657e-16
1.54303e-16
-2.86316e-16
1.32148e-16
-9.83542e-17
5.19662e-17
-7.66473e-17
0
0
0
-3.65898e-17
1.07979e-17
-1.25968e-17
0
-7.94332e-19
4.00416e-18
-3.89936e-16
3.71587e-16
4.11826e-16
-5.01098e-16
2.44543e-16
-2.31872e-16
0
1.02963e-16
-1.42672e-16
8.49992e-17
-6.87814e-17
5.79291e-17
4.83633e-17
3.78419e-17
3.03909e-17
0
0
0
0
4.27327e-16
-2.51639e-16
0
0
-8.81919e-17
2.22713e-16
-1.4322e-16
-1.08333e-16
1.07112e-16
8.40387e-17
1.44792e-16
-6.0107e-17
2.55167e-17
2.00009e-17
1.5168e-17
1.21746e-17
1.99201e-17
-9.85753e-19
1.00408e-18
-4.34933e-16
4.03703e-16
2.22945e-16
-1.14903e-16
2.6514e-16
-1.70865e-16
-1.40578e-16
-1.2219e-16
0
-1.74737e-16
7.17177e-18
6.68692e-17
-5.43098e-17
-4.50121e-17
-1.66627e-17
-1.79913e-17
-1.43261e-17
0
0
-1.49613e-16
0
1.20073e-16
-2.45543e-19
0
0
1.4501e-16
1.26083e-16
0
9.39448e-17
0
-1.01641e-16
-2.85945e-17
5.13038e-17
0
3.32497e-17
-4.72575e-18
4.82089e-18
0
3.16324e-16
0
2.33338e-16
-4.37505e-16
3.96974e-16
3.32342e-16
-8.63506e-18
0
8.01378e-18
1.06618e-16
0
-1.11349e-16
1.27366e-16
-1.1369e-16
-2.49031e-17
-2.68292e-17
-7.76104e-18
-1.36125e-18
-4.6669e-18
-2.98357e-16
4.3093e-16
-1.24901e-16
-3.33673e-16
-1.97472e-16
-1.7491e-16
-3.09087e-16
-1.28572e-16
8.52099e-18
4.92981e-17
-4.92055e-17
1.60753e-16
-7.10248e-17
1.44928e-16
-2.71671e-17
0
3.01016e-17
-1.74908e-17
4.75381e-18
6.50536e-16
-1.22173e-17
-5.14249e-16
4.39239e-16
-4.0093e-16
3.57552e-16
-9.46654e-18
-1.41934e-16
1.26353e-16
5.19135e-17
-6.09294e-18
-1.29792e-16
3.83773e-17
3.84226e-17
-1.20387e-17
1.2176e-17
-3.1178e-17
-2.51207e-18
-6.91477e-18
3.19355e-16
1.38332e-16
2.47906e-16
-2.22513e-16
-1.89724e-16
8.28867e-18
-1.52197e-16
3.70196e-16
1.04915e-17
1.77305e-16
1.0488e-16
-9.34356e-17
0
-6.72225e-17
0
0
4.12117e-17
1.84016e-17
8.09714e-18
3.01912e-16
0
2.45051e-16
2.21077e-16
-2.00327e-16
1.79382e-16
0
-1.45432e-16
-2.03424e-16
-1.80644e-16
-1.05808e-16
9.44921e-17
0
0
0
0
-3.86098e-17
-2.76259e-17
0
-5.91628e-16
0
-1.0129e-17
-8.95137e-18
3.03762e-16
-1.76131e-16
-8.17723e-17
-8.19995e-17
2.04835e-16
0
5.44445e-17
-5.85279e-18
4.76221e-17
0
0
6.21072e-17
-4.60266e-18
3.31567e-17
-1.21899e-17
4.17393e-16
1.23141e-16
-1.2187e-16
-1.10046e-16
-3.91204e-16
2.72898e-16
3.34295e-16
-7.21391e-18
-1.38705e-16
1.35525e-16
2.87551e-17
-1.44623e-16
-1.19912e-16
-7.05925e-17
-7.44179e-17
-7.15575e-17
5.77506e-17
-2.73961e-18
1.2485e-17
-1.29041e-16
5.95474e-17
-2.88414e-16
5.07202e-17
-5.05357e-17
0
-1.65384e-16
-9.31606e-18
-1.53016e-16
1.06024e-17
1.49452e-16
1.12106e-16
-2.71385e-17
1.33183e-17
7.08779e-17
0
-1.19133e-16
-4.30835e-17
-8.9873e-19
2.60176e-16
-7.24142e-18
4.53125e-16
-2.18138e-16
3.80027e-19
5.91622e-18
1.78706e-16
-1.16226e-17
1.484e-16
-1.39033e-16
-1.30535e-16
0
1.26885e-16
1.02569e-16
1.39902e-18
-2.02944e-18
6.39567e-17
4.37954e-17
0
-1.85374e-16
0
-4.71218e-17
2.07362e-16
2.57428e-18
4.81632e-17
-1.72806e-16
1.6399e-16
1.70759e-16
1.63361e-16
1.56597e-16
0
-1.23267e-16
0
6.3995e-18
-6.64644e-18
0
-6.25724e-19
3.06253e-17
1.27108e-16
5.68191e-18
-1.04464e-16
3.203e-16
-1.03399e-16
0
0
-1.88882e-16
-1.65448e-16
-1.5826e-16
-2.84318e-16
-3.967e-17
0
0
0
-1.29081e-17
1.366e-17
8.68085e-17
-3.10896e-17
5.84473e-18
0
-2.21386e-16
-2.05156e-16
2.13265e-16
-2.11451e-16
-3.03967e-16
3.76014e-16
1.02801e-16
0
1.66384e-16
1.85949e-16
-4.01505e-17
2.17182e-16
-3.55024e-17
3.69494e-17
1.42911e-16
-8.24896e-17
0
-2.43267e-16
0
-2.34063e-16
2.29833e-16
0
4.19638e-16
1.98001e-16
-4.13046e-16
3.27635e-16
-2.29239e-18
-9.96096e-17
-1.80037e-16
0
2.44935e-16
-4.11615e-16
4.41398e-16
-5.62419e-16
0
0
2.41997e-16
-1.34794e-18
-3.32349e-18
-4.61604e-16
4.6486e-16
-2.25398e-16
2.24479e-16
2.21199e-16
-1.97662e-16
0
0
3.66878e-16
-3.73198e-16
-4.00232e-16
3.96376e-16
-3.85855e-16
4.17108e-16
-6.53154e-16
0
)
;

boundaryField
{
    up
    {
        type            calculated;
        value           nonuniform List<scalar> 
84
(
0
0
0
0
-2.24007e-17
4.05063e-17
-1.69552e-17
1.2485e-17
-1.08826e-17
0
-9.09194e-18
8.67235e-18
-6.31453e-18
4.44205e-19
3.79042e-19
4.81072e-18
0
0
-3.19591e-18
2.36514e-18
2.47964e-18
-2.40771e-18
2.28501e-19
0
9.99917e-19
4.31731e-19
-9.17473e-18
0
1.20365e-17
1.40495e-17
1.7942e-18
-3.07768e-18
1.19986e-18
0
-5.89268e-19
1.09637e-18
-1.00399e-18
1.59318e-18
0
-2.71579e-19
0
0
-1.39226e-19
2.77654e-19
-2.68277e-19
5.41668e-19
-1.03312e-18
1.0902e-18
6.13456e-22
-1.14972e-18
0
0
0
-1.5417e-17
-2.07071e-18
1.41591e-18
0
-9.58148e-18
-9.33062e-18
6.99463e-18
0
0
-2.68427e-18
5.22273e-18
-5.91985e-18
4.00416e-18
0
1.00408e-18
0
0
-4.6669e-18
4.75381e-18
-6.91477e-18
8.09714e-18
0
-1.21899e-17
1.2485e-17
-8.9873e-19
0
3.06253e-17
-3.10896e-17
0
0
0
)
;
    }
    low
    {
        type            calculated;
        value           nonuniform List<scalar> 
84
(
-4.84408e-16
4.84484e-16
-2.38079e-16
3.73934e-16
6.53894e-17
-1.69912e-17
1.42003e-16
1.29085e-17
0
6.05431e-16
-1.53465e-16
1.30882e-16
-1.4297e-16
-9.14546e-16
1.49482e-16
0
-1.39263e-16
9.84385e-18
-9.39044e-18
-1.13175e-16
5.74759e-17
1.55068e-16
2.60943e-16
-2.3483e-16
0
-4.55167e-17
-2.33994e-17
0
-2.14434e-16
-6.03524e-17
-2.02518e-16
-2.1913e-16
2.37096e-16
8.16206e-17
5.59999e-16
4.48479e-17
0
3.76523e-16
3.63757e-16
2.06592e-16
-1.09674e-16
4.49464e-17
4.49479e-17
0
1.78963e-16
4.10236e-16
3.30663e-16
2.77273e-17
0
-7.75947e-16
4.79216e-16
7.67745e-20
7.09334e-20
1.87322e-16
0
-4.40936e-16
0
-2.49049e-17
4.7054e-17
9.64189e-17
1.49631e-16
2.09835e-16
3.98355e-20
5.15467e-16
0
0
-3.89936e-16
4.26935e-16
-4.34653e-16
-1.49613e-16
3.16278e-16
-2.98357e-16
6.51353e-16
3.19957e-16
3.01912e-16
-5.91628e-16
4.16701e-16
-1.28319e-16
2.60176e-16
-1.85085e-16
1.27108e-16
6.36738e-18
-2.43267e-16
2.42142e-16
)
;
    }
    left
    {
        type            calculated;
        value           nonuniform List<scalar> 
19
(
-4.8412e-16
-2.36199e-16
2.3907e-16
4.50196e-18
-4.57515e-16
0
-2.14769e-16
-2.11755e-16
-1.3715e-17
-1.11006e-16
-1.08514e-18
-1.10251e-16
4.8889e-16
-1.0885e-16
5.09004e-16
4.38927e-16
2.60993e-16
3.82601e-16
0
)
;
    }
    right
    {
        type            calculated;
        value           nonuniform List<scalar> 
19
(
2.41997e-16
-1.18798e-18
-3.32349e-18
-4.61599e-16
4.64966e-16
-2.25398e-16
2.24479e-16
2.21199e-16
-1.96992e-16
0
0
3.70379e-16
-3.78135e-16
-4.00232e-16
3.96376e-16
-3.85855e-16
4.17108e-16
-7.0636e-16
0
)
;
    }
    frontAndBackPlanes
    {
        type            empty;
    }
}


// ************************************************************************* //
