/*--------------------------------*- C++ -*----------------------------------*\
  =========                 |
  \\      /  F ield         | OpenFOAM: The Open Source CFD Toolbox
   \\    /   O peration     | Website:  https://openfoam.org
    \\  /    A nd           | Version:  7
     \\/     M anipulation  |
\*---------------------------------------------------------------------------*/
FoamFile
{
    version     2.0;
    format      ascii;
    class       volScalarField;
    location    "0.2";
    object      gradTx;
}
// * * * * * * * * * * * * * * * * * * * * * * * * * * * * * * * * * * * * * //

dimensions      [0 -1 0 1 0 0 0];

internalField   nonuniform List<scalar> 
1596
(
-0.250772
-1.25779
-2.24773
-3.13132
-3.89929
-4.54726
-5.10559
-5.59422
-6.04128
-6.49971
-6.98611
-7.56423
-8.30743
-9.3193
-10.7198
-12.8032
-16.0195
-21.3373
-30.7605
0.056634
-1.04269
-2.01659
-2.85142
-3.56436
-4.15807
-4.66031
-5.08133
-5.44266
-5.77279
-6.07718
-6.39149
-6.73093
-7.11678
-7.54157
-7.98762
-8.33116
-8.3158
-7.39382
0.309537
-0.842493
-1.78169
-2.55664
-3.20467
-3.73712
-4.1781
-4.53457
-4.82121
-5.05393
-5.23283
-5.37752
-5.48658
-5.56052
-5.58109
-5.51439
-5.2626
-4.65163
-3.33545
0.352828
-0.728447
-1.58118
-2.27279
-2.84393
-3.30969
-3.68894
-3.98723
-4.21399
-4.37765
-4.47709
-4.52224
-4.50795
-4.42931
-4.27137
-4.00689
-3.57413
-2.87047
-1.69174
0.115838
-0.747545
-1.45064
-2.03012
-2.51108
-2.90483
-3.22288
-3.46912
-3.64878
-3.76525
-3.81789
-3.81042
-3.73783
-3.59441
-3.37031
-3.04634
-2.58696
-1.93498
-0.974773
-0.378593
-0.918285
-1.41786
-1.8576
-2.23476
-2.55018
-2.80615
-3.00374
-3.14436
-3.22757
-3.25333
-3.22106
-3.12661
-2.96435
-2.7282
-2.40439
-1.97341
-1.40388
-0.631682
-1.03428
-1.22649
-1.49528
-1.77555
-2.03703
-2.267
-2.45796
-2.6069
-2.71147
-2.76808
-2.7767
-2.7337
-2.63543
-2.4763
-2.2523
-1.95278
-1.56711
-1.07783
-0.449572
-1.71851
-1.61275
-1.65964
-1.77728
-1.9185
-2.05885
-2.1824
-2.28146
-2.3502
-2.38237
-2.37722
-2.32906
-2.23424
-2.08706
-1.88439
-1.61723
-1.2795
-0.860988
-0.341999
-2.42484
-2.11146
-1.96333
-1.9187
-1.93096
-1.97042
-2.01599
-2.05587
-2.08115
-2.08334
-2.06026
-2.00472
-1.91253
-1.77759
-1.59669
-1.36156
-1.06798
-0.709078
-0.273123
-2.84835
-2.46167
-2.19999
-2.04001
-1.95066
-1.90559
-1.88352
-1.87066
-1.85642
-1.83101
-1.79092
-1.72828
-1.63837
-1.51495
-1.35457
-1.14959
-0.896538
-0.590307
-0.223301
-3.1953
-2.77978
-2.45099
-2.20628
-2.03156
-1.90883
-1.82064
-1.75369
-1.69713
-1.64074
-1.57993
-1.5065
-1.41519
-1.29957
-1.15575
-0.976387
-0.758075
-0.496376
-0.185734
-3.55187
-3.13612
-2.76616
-2.4553
-2.20426
-2.00531
-1.84753
-1.72045
-1.6145
-1.5199
-1.4314
-1.34066
-1.24184
-1.12819
-0.995197
-0.835584
-0.64555
-0.420697
-0.156212
-3.65597
-3.29632
-2.93631
-2.60513
-2.31581
-2.0703
-1.8648
-1.69313
-1.54834
-1.42221
-1.30977
-1.20322
-1.09662
-0.983281
-0.858406
-0.71496
-0.548892
-0.355839
-0.13133
-3.69053
-3.39118
-3.06055
-2.73058
-2.42197
-2.1449
-1.90234
-1.69311
-1.5136
-1.35789
-1.22191
-1.09874
-0.982593
-0.866992
-0.746929
-0.615602
-0.468706
-0.301845
-0.110702
-3.69727
-3.45206
-3.15685
-2.84006
-2.52499
-2.22752
-1.95645
-1.7156
-1.50511
-1.32173
-1.16283
-1.02258
-0.895596
-0.775651
-0.657628
-0.534907
-0.402949
-0.257279
-0.0936205
-3.62204
-3.43509
-3.18274
-2.89168
-2.58516
-2.28223
-1.99585
-1.7342
-1.50108
-1.29611
-1.11845
-0.963631
-0.826916
-0.702509
-0.585343
-0.469032
-0.348911
-0.220472
-0.0794652
-3.45954
-3.32861
-3.12368
-2.868
-2.5832
-2.2893
-2.00167
-1.73176
-1.48653
-1.26831
-1.07822
-0.913305
-0.7697
-0.642212
-0.526
-0.414996
-0.30455
-0.190218
-0.0678263
-3.2641
-3.16952
-3.00676
-2.78842
-2.53174
-2.25571
-1.97666
-1.70809
-1.45939
-1.23524
-1.0386
-0.868032
-0.72062
-0.591849
-0.477192
-0.370929
-0.268517
-0.165671
-0.0583847
-3.10078
-3.0352
-2.90453
-2.71609
-2.48309
-2.22293
-1.95225
-1.68596
-1.43541
-1.2072
-1.00587
-0.831258
-0.681251
-0.551866
-0.438779
-0.336465
-0.240416
-0.1465
-0.0509603
-2.80175
-2.7756
-2.6835
-2.5335
-2.33599
-2.10591
-1.85889
-1.60998
-1.37153
-1.15149
-0.955684
-0.785193
-0.638806
-0.51325
-0.404573
-0.307538
-0.21773
-0.131285
-0.0450329
-2.46455
-2.46971
-2.41278
-2.29981
-2.13902
-1.94289
-1.72548
-1.50116
-1.28244
-1.07802
-0.894445
-0.733804
-0.595662
-0.47745
-0.375634
-0.285213
-0.201651
-0.121045
-0.040918
-2.10772
-2.13289
-2.10508
-2.02612
-1.90152
-1.74122
-1.55739
-1.36311
-1.17042
-0.988067
-0.822857
-0.677475
-0.552074
-0.444774
-0.35256
-0.270726
-0.194345
-0.118523
-0.040104
-1.70672
-1.74143
-1.73731
-1.69113
-1.60485
-1.48518
-1.34177
-1.18567
-1.02771
-0.876072
-0.737165
-0.613952
-0.50693
-0.414959
-0.335851
-0.265675
-0.19938
-0.130278
-0.0502402
-1.24944
-1.23232
-1.18701
-1.11454
-1.02041
-0.912338
-0.798915
-0.687791
-0.585275
-0.494987
-0.41828
-0.354478
-0.301424
-0.256671
-0.217872
-0.182388
-0.146731
-0.105008
-0.0470729
-0.835198
-0.92534
-1.01559
-1.08763
-1.12986
-1.13675
-1.10939
-1.05313
-0.976574
-0.888526
-0.796275
-0.705678
-0.619598
-0.540449
-0.469712
-0.40809
-0.353924
-0.302922
-0.244546
-0.281345
-0.320722
-0.370385
-0.420287
-0.463006
-0.493567
-0.510496
-0.514304
-0.507919
-0.494629
-0.476329
-0.454998
-0.430013
-0.401694
-0.370949
-0.340742
-0.312922
-0.289518
-0.269488
0.273819
0.226235
0.156492
0.0738933
-0.0124629
-0.0949313
-0.168583
-0.230873
-0.281973
-0.323313
-0.355454
-0.379167
-0.392694
-0.39508
-0.386502
-0.370723
-0.351408
-0.332956
-0.317058
0.826239
0.761472
0.66499
0.547082
0.418141
0.287592
0.162621
0.0476835
-0.055638
-0.147653
-0.228274
-0.29738
-0.352039
-0.389227
-0.406944
-0.40825
-0.398072
-0.383623
-0.369127
1.32261
1.22936
1.10042
0.947643
0.781771
0.61268
0.448133
0.29299
0.149267
0.0167647
-0.104603
-0.214619
-0.309638
-0.384301
-0.432881
-0.455462
-0.456367
-0.445453
-0.430286
1.83265
1.70321
1.53711
1.3466
1.14283
0.936074
0.734287
0.542283
0.362026
0.192899
0.0340368
-0.115326
-0.252124
-0.369644
-0.457808
-0.511157
-0.529747
-0.524314
-0.507042
2.21168
2.04129
1.83967
1.61867
1.38911
1.16017
0.938445
0.727379
0.527933
0.338456
0.156855
-0.0194924
-0.189681
-0.34792
-0.481089
-0.576675
-0.624814
-0.631088
-0.610174
2.56112
2.35611
2.12011
1.86969
1.61625
1.36788
1.12976
0.903998
0.690658
0.48723
0.290577
0.0959148
-0.0994614
-0.294114
-0.476501
-0.630333
-0.732238
-0.772186
-0.757845
2.87887
2.62855
2.35601
2.07811
1.80492
1.54251
1.29415
1.06046
0.840704
0.631873
0.430497
0.230562
0.0259846
-0.188321
-0.408504
-0.624775
-0.80719
-0.924344
-0.944692
3.07672
2.75826
2.43124
2.11055
1.80377
1.51448
1.24398
0.991623
0.756012
0.534029
0.322162
0.114432
-0.096718
-0.321456
-0.56673
-0.839489
-1.1268
-1.40304
-1.61992
3.19142
2.84527
2.51569
2.21165
1.93406
1.6812
1.45032
1.23843
1.04292
0.861147
0.691149
0.530304
0.375349
0.221102
0.0604196
-0.12101
-0.336711
-0.602083
-0.92298
3.27082
2.91489
2.59736
2.3146
2.06065
1.83055
1.61989
1.42535
1.2446
1.07565
0.917589
0.769763
0.63149
0.502564
0.383314
0.272575
0.16849
0.0654069
-0.0471234
3.08165
2.67612
2.33009
2.03034
1.76713
1.53365
1.3244
1.13526
0.963196
0.805451
0.660407
0.526852
0.40361
0.290289
0.187534
0.0960928
0.0177082
-0.045343
-0.0920481
2.69454
2.32795
2.0198
1.75622
1.52733
1.32617
1.14726
0.986502
0.840978
0.708154
0.586545
0.475076
0.37266
0.278748
0.193363
0.116297
0.0476126
-0.0123273
-0.0638373
2.23125
1.92524
1.66712
1.44692
1.25668
1.09039
0.943274
0.81171
0.69311
0.585249
0.48678
0.396693
0.313918
0.237786
0.168078
0.104388
0.0466021
-0.00497972
-0.0505431
1.67566
1.44055
1.24413
1.07808
0.935727
0.812036
0.703131
0.606073
0.518807
0.439574
0.3673
0.301169
0.240308
0.184158
0.132518
0.0850765
0.0417847
0.00296385
-0.0314374
1.0534
0.896709
0.769944
0.664869
0.575882
0.499148
0.431923
0.372206
0.318627
0.270034
0.225716
0.18513
0.147697
0.113038
0.0810062
0.0513997
0.0241985
-0.000347868
-0.0222078
0.403878
0.340351
0.290846
0.250393
0.21628
0.186883
0.161137
0.138292
0.117842
0.099355
0.0825523
0.0672089
0.0530832
0.0400004
0.027865
0.016564
0.00605101
-0.00361233
-0.0124219
-0.403684
-0.339915
-0.290246
-0.249685
-0.215506
-0.186077
-0.160324
-0.137496
-0.117078
-0.0986381
-0.0818941
-0.0666193
-0.0525713
-0.0395743
-0.0275313
-0.0163278
-0.0059155
0.00364707
0.0123577
-1.05322
-0.896321
-0.769415
-0.664247
-0.575207
-0.49845
-0.431226
-0.371529
-0.317986
-0.269441
-0.225182
-0.184665
-0.147309
-0.112736
-0.0807958
-0.0512857
-0.0241831
0.000266096
0.0220324
-1.67548
-1.44017
-1.24362
-1.07746
-0.93505
-0.811326
-0.702411
-0.605363
-0.518122
-0.438928
-0.366703
-0.300629
-0.239834
-0.183756
-0.132192
-0.0848265
-0.0416092
-0.0028575
0.0314809
-2.23111
-1.92498
-1.66677
-1.4465
-1.25622
-1.0899
-0.942789
-0.811236
-0.692661
-0.584837
-0.486416
-0.396388
-0.313679
-0.23762
-0.167986
-0.104367
-0.0466436
0.00488473
0.0504023
-2.69445
-2.32778
-2.01956
-1.75593
-1.527
-1.32581
-1.14689
-0.986134
-0.840627
-0.707838
-0.586282
-0.474881
-0.372544
-0.278714
-0.193401
-0.116389
-0.0477329
0.0122003
0.0637144
-3.08164
-2.67607
-2.32998
-2.03018
-1.76693
-1.53343
-1.32418
-1.13506
-0.963029
-0.805348
-0.66039
-0.526937
-0.4038
-0.290571
-0.187879
-0.0964649
-0.0180679
0.0450304
0.0918129
-3.27081
-2.91461
-2.59672
-2.31358
-2.05927
-1.82885
-1.61791
-1.42316
-1.24225
-1.07321
-0.915072
-0.767185
-0.628836
-0.499807
-0.38045
-0.269685
-0.165792
-0.0633063
0.048059
-3.19199
-2.84679
-2.51816
-2.21505
-1.93832
-1.68623
-1.45602
-1.24469
-1.04965
-0.86827
-0.698602
-0.538067
-0.383469
-0.22973
-0.0698176
0.11047
0.324704
0.588502
0.90821
-3.07649
-2.75764
-2.43015
-2.10902
-1.80183
-1.51217
-1.24138
-0.988789
-0.753004
-0.5309
-0.318963
-0.111224
0.099853
0.324444
0.569586
0.84243
1.13033
1.40785
1.62669
-2.87907
-2.62903
-2.35671
-2.07899
-1.80595
-1.54363
-1.29534
-1.06168
-0.841943
-0.633118
-0.431752
-0.231841
-0.0272996
0.186998
0.407292
0.623911
0.806962
0.924941
0.9459
-2.56125
-2.35639
-2.12053
-1.87025
-1.61691
-1.36861
-1.13053
-0.904806
-0.691485
-0.488064
-0.291406
-0.09672
0.0987257
0.293542
0.476228
0.630476
0.732811
0.773102
0.759031
-2.21181
-2.04156
-1.8401
-1.61924
-1.38979
-1.16093
-0.939246
-0.7282
-0.528749
-0.339245
-0.157593
0.0188395
0.189171
0.347636
0.481115
0.577038
0.625446
0.631861
0.611005
-1.83276
-1.70346
-1.53755
-1.34719
-1.14354
-0.936856
-0.735103
-0.543098
-0.362808
-0.193621
-0.0346732
0.114807
0.251765
0.369494
0.457896
0.511469
0.530224
0.524884
0.507657
-1.32271
-1.22961
-1.10086
-0.948226
-0.782455
-0.613423
-0.448893
-0.293727
-0.149951
-0.0173677
0.104103
0.214245
0.309417
0.384255
0.433011
0.455742
0.456756
0.445909
0.430761
-0.826347
-0.761777
-0.665474
-0.547696
-0.418844
-0.28834
-0.163367
-0.0483879
0.0550078
0.147121
0.227859
0.297095
0.351897
0.389234
0.407089
0.408507
0.39841
0.384019
0.369527
-0.27392
-0.226558
-0.15697
-0.074479
0.0118049
0.0942433
0.167909
0.230251
0.281433
0.322875
0.355131
0.378965
0.392616
0.395118
0.38664
0.370934
0.351668
0.333285
0.317451
0.281096
0.319962
0.369171
0.418676
0.461084
0.491454
0.508323
0.512189
0.505959
0.492892
0.47485
0.453792
0.429073
0.400998
0.370461
0.340421
0.312715
0.289438
0.269735
0.835359
0.925959
1.01679
1.08941
1.13214
1.1394
1.11227
1.05609
0.979494
0.891306
0.798847
0.708009
0.621679
0.542304
0.471382
0.409619
0.35531
0.304115
0.245666
1.24927
1.2317
1.18592
1.11305
1.01864
0.910392
0.796932
0.685883
0.583524
0.493444
0.41696
0.353378
0.300525
0.255954
0.21732
0.181991
0.146475
0.104847
0.0469679
1.70683
1.74164
1.7376
1.6915
1.60526
1.4856
1.34217
1.18603
1.02802
0.876318
0.737344
0.614066
0.50699
0.414976
0.335842
0.265657
0.199371
0.130282
0.0502318
2.10774
2.13293
2.1051
2.02614
1.90155
1.74126
1.55743
1.36315
1.17044
0.988074
0.822846
0.677448
0.552035
0.444728
0.352515
0.270684
0.194313
0.118507
0.0401063
2.46456
2.46975
2.4128
2.29984
2.13905
1.94293
1.72552
1.50118
1.28246
1.07801
0.89443
0.733779
0.595632
0.47742
0.375606
0.285187
0.201629
0.121031
0.040918
2.80175
2.77562
2.68352
2.53352
2.33601
2.10594
1.85891
1.61
1.37153
1.15149
0.955673
0.785176
0.638787
0.513231
0.404556
0.307523
0.217717
0.131276
0.0450315
3.10078
3.03522
2.90454
2.7161
2.48311
2.22295
1.95227
1.68598
1.43542
1.20721
1.00587
0.83125
0.68124
0.551855
0.438767
0.336455
0.240407
0.146494
0.0509589
3.2641
3.16952
3.00677
2.78842
2.53175
2.25573
1.97668
1.7081
1.4594
1.23524
1.0386
0.868029
0.720614
0.59184
0.477181
0.370918
0.268508
0.165666
0.0583828
3.45954
3.3286
3.12368
2.86801
2.58321
2.28931
2.00168
1.73177
1.48654
1.26832
1.07823
0.913305
0.769696
0.642204
0.525989
0.414984
0.304541
0.190214
0.0678238
3.62204
3.43509
3.18275
2.89168
2.58517
2.28224
1.99585
1.7342
1.50109
1.29611
1.11846
0.963631
0.826912
0.702499
0.58533
0.469019
0.348902
0.220469
0.0794627
3.69727
3.45206
3.15685
2.84006
2.52498
2.22752
1.95645
1.7156
1.50511
1.32173
1.16284
1.02258
0.895591
0.775641
0.657614
0.534894
0.402942
0.257276
0.0936184
3.69053
3.39118
3.06055
2.73058
2.42196
2.14489
1.90233
1.6931
1.5136
1.35789
1.22191
1.09873
0.982587
0.866982
0.746917
0.615593
0.468703
0.301846
0.110701
3.65598
3.29633
2.93631
2.60513
2.3158
2.07029
1.86478
1.69312
1.54833
1.42221
1.30977
1.20322
1.09661
0.983275
0.8584
0.714958
0.548895
0.355845
0.131331
3.55185
3.13611
2.76614
2.45528
2.20424
2.00528
1.8475
1.72043
1.61448
1.51989
1.43139
1.34065
1.24183
1.12819
0.9952
0.835591
0.645559
0.420706
0.156216
3.19531
2.77979
2.45099
2.20626
2.03154
1.9088
1.82062
1.75367
1.69711
1.64072
1.57992
1.5065
1.41519
1.29958
1.15576
0.976407
0.758094
0.496388
0.18574
2.84837
2.46169
2.2
2.04
1.95064
1.90556
1.8835
1.87064
1.8564
1.83099
1.79091
1.72828
1.63838
1.51497
1.3546
1.14962
0.896562
0.590321
0.223309
2.42487
2.11149
1.96335
1.91869
1.93094
1.97039
2.01597
2.05584
2.08113
2.08332
2.06025
2.00473
1.91255
1.77762
1.59673
1.3616
1.068
0.709091
0.273132
1.71852
1.61277
1.65964
1.77727
1.91848
2.05883
2.18237
2.28144
2.35018
2.38235
2.37722
2.32907
2.23426
2.0871
1.88443
1.61727
1.27953
0.860995
0.342007
1.03429
1.2265
1.49527
1.77554
2.03702
2.26699
2.45795
2.60689
2.71146
2.76807
2.7767
2.73372
2.63545
2.47634
2.25234
1.95281
1.56712
1.07783
0.449578
0.378606
0.918267
1.41784
1.85759
2.23476
2.55018
2.80615
3.00374
3.14436
3.22756
3.25334
3.22108
3.12664
2.96438
2.72822
2.4044
1.97341
1.40387
0.631684
-0.115832
0.747518
1.45062
2.03012
2.51109
2.90484
3.22288
3.46912
3.64878
3.76525
3.8179
3.81043
3.73785
3.59442
3.37031
3.04632
2.58694
1.93496
0.974773
-0.35283
0.728429
1.58118
2.2728
2.84394
3.3097
3.68895
3.98724
4.214
4.37766
4.4771
4.52225
4.50795
4.42929
4.27133
4.00685
3.57409
2.87045
1.69174
-0.309541
0.842498
1.7817
2.55665
3.20467
3.73712
4.1781
4.53458
4.82122
5.05394
5.23283
5.37751
5.48655
5.56047
5.58103
5.51434
5.26258
4.65163
3.33544
-0.0566349
1.04271
2.01661
2.85143
3.56436
4.15807
4.66031
5.08133
5.44266
5.77278
6.07716
6.39146
6.7309
7.11674
7.54154
7.98761
8.33118
8.31582
7.39381
0.25077
1.25779
2.24774
3.13133
3.8993
4.54727
5.1056
5.59422
6.04128
6.4997
6.9861
7.56421
8.30741
9.31928
10.7198
12.8032
16.0194
21.3373
30.7605
)
;

boundaryField
{
    up
    {
        type            calculated;
        value           nonuniform List<scalar> 
84
(
-30.7605
-7.39382
-3.33545
-1.69174
-0.974773
-0.631682
-0.449572
-0.341999
-0.273123
-0.223301
-0.185734
-0.156212
-0.13133
-0.110702
-0.0936205
-0.0794652
-0.0678263
-0.0583847
-0.0509603
-0.0450329
-0.040918
-0.040104
-0.0502402
-0.0470729
-0.207983
-0.250824
-0.298651
-0.348497
-0.405927
-0.477101
-0.570627
-0.696292
-0.849061
-1.59708
-0.952155
-0.0487721
-0.0917647
-0.0636244
-0.0504218
-0.0313922
-0.0221915
-0.0124219
0.0123577
0.0220164
0.0314362
0.0502819
0.0635027
0.0915319
0.0496865
0.936981
1.60482
0.850135
0.697448
0.57145
0.477699
0.406377
0.348862
0.298998
0.251195
0.209077
0.0469679
0.0502318
0.0401063
0.040918
0.0450315
0.0509589
0.0583828
0.0678238
0.0794627
0.0936184
0.110701
0.131331
0.156216
0.18574
0.223309
0.273132
0.342007
0.449578
0.631684
0.974773
1.69174
3.33544
7.39381
30.7605
)
;
    }
    low
    {
        type            calculated;
        value           nonuniform List<scalar> 
84
(
-0.22586
0.0944489
0.370451
0.418849
0.157211
-0.386219
-1.09683
-1.82324
-2.54572
-2.94766
-3.28274
-3.62279
-3.68734
-3.69784
-3.68961
-3.59195
-3.41004
-3.2095
-3.03375
-2.71142
-2.36248
-2.00274
-1.60344
-1.15843
-0.763735
-0.255484
0.244349
0.753155
1.22932
1.74013
2.13684
2.50114
2.84009
3.06512
3.20123
3.30578
3.14285
2.75962
2.28912
1.72163
1.08381
0.416582
-0.416387
-1.08362
-1.72143
-2.28896
-2.7595
-3.1428
-3.30573
-3.20172
-3.0649
-2.84024
-2.50125
-2.13696
-1.74025
-1.22943
-0.753272
-0.244452
0.25524
0.76389
1.15827
1.60354
2.00276
2.3625
2.71143
3.03376
3.20952
3.41004
3.59196
3.6896
3.69783
3.68734
3.62276
3.28274
2.94768
2.54575
1.82326
1.09685
0.386234
-0.157205
-0.418848
-0.37045
-0.0944444
0.225859
)
;
    }
    left
    {
        type            calculated;
        value           nonuniform List<scalar> 
19
(
-0.223009
-1.20886
-2.2198
-3.13469
-3.93627
-4.61478
-5.20274
-5.72333
-6.20451
-6.7121
-7.26239
-7.92655
-8.79967
-10.0193
-11.7356
-14.3614
-18.5205
-25.5663
-26.6779
)
;
    }
    right
    {
        type            calculated;
        value           nonuniform List<scalar> 
19
(
0.223006
1.20885
2.2198
3.13469
3.93628
4.61479
5.20275
5.72334
6.20451
6.7121
7.26238
7.92654
8.79965
10.0193
11.7355
14.3613
18.5204
25.5662
26.6779
)
;
    }
    frontAndBackPlanes
    {
        type            empty;
    }
}


// ************************************************************************* //
