/*--------------------------------*- C++ -*----------------------------------*\
  =========                 |
  \\      /  F ield         | OpenFOAM: The Open Source CFD Toolbox
   \\    /   O peration     | Website:  https://openfoam.org
    \\  /    A nd           | Version:  7
     \\/     M anipulation  |
\*---------------------------------------------------------------------------*/
FoamFile
{
    version     2.0;
    format      ascii;
    class       volScalarField;
    location    "0.08";
    object      gradTz;
}
// * * * * * * * * * * * * * * * * * * * * * * * * * * * * * * * * * * * * * //

dimensions      [0 -1 0 1 0 0 0];

internalField   nonuniform List<scalar> 
1596
(
-3.22621e-16
-1.52738e-16
1.59743e-16
7.57805e-18
-2.92862e-16
0
-1.30022e-16
-1.28347e-16
-1.44584e-17
-7.0747e-17
-2.78655e-19
-7.1382e-17
3.22636e-16
-7.18195e-17
3.32712e-16
2.89272e-16
1.72674e-16
2.19932e-16
0
3.17638e-16
0
4.19387e-16
-5.87518e-18
-1.1772e-16
1.15959e-16
2.54599e-16
1.40595e-17
1.17699e-16
-5.78979e-17
1.16413e-16
-7.77201e-19
-1.62606e-16
-1.03064e-16
-2.68334e-16
-2.64112e-16
-2.41857e-16
1.3894e-16
0
-1.49462e-16
0
-2.60323e-16
9.1466e-18
2.15913e-16
-7.13501e-17
1.04451e-17
-1.35166e-18
-9.62027e-19
-7.42507e-19
3.49174e-17
0
8.41932e-17
2.33807e-16
-2.33793e-17
1.99277e-17
4.6218e-17
7.63634e-17
0
2.43059e-16
-6.4253e-17
6.40184e-17
0
-5.84051e-17
-6.29842e-17
9.17235e-17
-6.87606e-17
0
0
-3.91665e-17
1.83725e-17
0
-6.63212e-17
-7.92586e-17
5.74872e-17
-6.64647e-17
-3.36921e-18
0
4.33998e-17
1.01181e-16
-7.94974e-17
0
-1.97741e-17
-6.22415e-17
0
8.60086e-17
-7.96122e-18
-7.25681e-18
-1.72024e-17
4.09585e-17
5.45533e-17
6.64659e-18
9.98077e-18
-6.2074e-17
3.0425e-18
2.92693e-17
-1.34835e-17
-1.12702e-17
-1.37176e-16
1.17579e-16
-8.98857e-17
-4.18896e-19
-6.32507e-17
1.66448e-18
-1.67e-18
-4.09666e-17
0
-1.34034e-17
-4.92807e-17
-4.89485e-17
3.53653e-17
4.72887e-17
-6.14488e-19
-2.84537e-17
-2.96874e-17
2.34066e-17
9.41873e-17
-1.39066e-16
1.36877e-16
6.75616e-17
0
4.96692e-17
2.48981e-17
-1.13851e-17
5.10399e-17
-8.83541e-18
-4.13526e-17
1.65067e-19
-2.17355e-17
-3.54588e-17
-2.45191e-17
2.31101e-17
2.87041e-17
-4.00792e-19
-9.35146e-18
1.70793e-17
2.25405e-16
-2.31635e-16
0
0
-5.50608e-17
0
0
0
2.36513e-17
0
0
2.06823e-17
2.65605e-19
1.03207e-17
-2.06837e-17
0
1.09994e-17
4.98912e-18
0
-1.373e-16
2.55619e-16
0
0
5.6705e-17
0
-1.47541e-17
1.47392e-17
-2.40736e-17
8.69572e-18
-8.75932e-18
0
1.2354e-17
1.71821e-17
0
-9.78528e-18
-1.12101e-17
-4.46026e-18
3.86e-16
-1.73115e-16
0
-8.52468e-17
8.42927e-17
0
4.07907e-17
0
0
0
6.68577e-18
-6.71782e-18
0
-9.81198e-18
-2.45573e-18
0
3.14518e-18
4.92789e-18
0
-9.81495e-17
0
0
8.68016e-17
-1.50733e-16
1.63993e-17
6.83154e-18
-1.27043e-17
3.35223e-18
1.05068e-18
-6.91808e-18
-8.63808e-18
0
5.95327e-18
-1.48389e-18
1.50616e-18
5.71812e-18
-4.05075e-18
-1.62429e-18
6.67807e-17
-1.57581e-17
6.50959e-17
1.89959e-16
-2.11193e-17
-6.55315e-17
0
0
0
1.49823e-17
4.5105e-18
1.46119e-17
-3.42339e-18
-5.84677e-18
-2.62419e-18
-1.83812e-18
8.6526e-19
-2.07031e-18
1.50429e-18
-8.32887e-17
8.24059e-17
-1.43731e-16
-1.8851e-16
1.62988e-16
4.81175e-17
-8.15853e-17
5.76068e-17
-4.00475e-17
1.06415e-17
5.61752e-18
-4.20553e-18
1.55332e-18
-1.6096e-18
5.1282e-18
0
-4.25813e-19
3.53237e-18
-5.46649e-19
-5.85744e-16
2.55173e-16
1.24749e-19
-3.78793e-17
1.14659e-17
4.7076e-17
-8.51531e-17
-2.69476e-17
1.83162e-17
-1.22009e-17
-8.09978e-18
0
-6.18657e-18
-1.65063e-18
-2.27783e-18
-1.26632e-18
9.34071e-20
-1.62941e-18
1.96629e-19
9.56606e-17
-7.8226e-17
-1.12646e-19
-4.82509e-17
-9.92224e-17
8.85968e-17
5.04113e-19
2.62604e-17
-1.78332e-17
2.32444e-17
4.72085e-18
3.13626e-18
6.59127e-18
0
3.80126e-18
1.63276e-18
0
7.13046e-19
1.17074e-19
0
7.58883e-17
4.72666e-17
-1.05529e-16
9.55838e-17
-1.28869e-16
7.90913e-17
2.06451e-17
-6.72224e-18
-2.45338e-17
2.83865e-18
-2.82465e-18
-5.63542e-18
1.6745e-18
-8.39583e-19
-1.43053e-18
4.77838e-19
-3.01072e-19
1.89784e-19
-8.8766e-17
2.6239e-16
-1.99261e-16
8.75786e-17
0
0
-1.18965e-17
2.79425e-17
-1.25214e-17
2.18137e-17
0
0
3.52795e-18
-2.58562e-18
-1.24343e-18
3.84755e-19
-3.82783e-19
2.11082e-19
0
1.42442e-17
8.31714e-17
-5.46794e-17
-4.27933e-17
-5.3363e-17
-7.03875e-18
2.15366e-17
0
-1.12786e-17
-6.3271e-18
5.22011e-18
-3.18333e-18
1.91561e-18
0
5.28422e-19
7.16087e-19
0
0
0
-1.39993e-17
1.05639e-16
2.68433e-17
-1.30348e-16
2.85029e-17
2.10513e-17
0
0
1.0061e-17
-5.52033e-18
-5.04898e-18
3.07886e-18
-1.85254e-18
0
-2.37805e-19
1.57915e-19
0
-1.0113e-19
-3.56305e-20
-6.39041e-17
1.88221e-16
-2.07814e-16
-6.39547e-17
3.57689e-17
-1.83479e-17
1.23677e-17
0
-5.12409e-18
3.5343e-18
0
0
5.56904e-19
-5.57546e-19
9.25641e-20
-1.58522e-19
1.3679e-19
3.20934e-20
2.73851e-20
3.64395e-17
-2.93671e-17
1.26043e-16
-7.90901e-17
-2.40187e-17
5.50062e-18
2.7339e-17
7.03559e-18
4.90299e-18
0
1.3384e-18
-1.20643e-18
7.04474e-19
-4.44066e-19
3.23652e-19
-4.52198e-19
-1.02942e-19
8.09602e-20
1.72889e-20
9.061e-17
-9.53696e-17
0
5.42481e-17
-3.07665e-17
-1.57604e-17
6.02419e-18
-2.30971e-17
0
-3.21623e-19
-1.86258e-18
-8.70927e-19
8.39796e-19
-1.26645e-19
-3.12804e-19
1.73771e-19
0
3.54149e-20
-1.67873e-20
1.7282e-16
-2.60759e-17
8.95158e-17
-6.89627e-17
2.42621e-17
-4.72286e-18
-2.25149e-17
-4.41515e-18
7.02079e-18
-5.13646e-19
-1.86246e-18
1.33358e-18
-4.76878e-19
-3.71295e-19
0
0
0
-3.56033e-20
1.17868e-21
-1.41595e-16
1.34615e-16
6.11508e-21
1.37452e-17
9.61068e-18
-1.65751e-17
1.64246e-17
-1.00553e-17
6.51496e-18
-1.22007e-18
2.19183e-18
4.59004e-19
-1.47809e-19
9.31452e-21
-1.58906e-20
-3.42383e-20
0
0
0
0
0
4.75174e-17
-3.34748e-17
-5.93379e-17
0
0
-2.75853e-18
-3.19588e-18
1.89918e-18
0
-5.78888e-19
3.16486e-19
-6.76088e-19
7.15495e-19
-1.43527e-19
1.52003e-19
1.27986e-20
0
-2.72556e-17
2.75911e-17
0
-1.49711e-17
1.42663e-17
1.78234e-17
0
2.78487e-18
1.76544e-18
-9.58755e-18
0
-6.77238e-19
3.72377e-19
1.80193e-19
-9.82564e-20
1.12641e-19
0
-2.88104e-20
0
-1.40637e-17
-1.23715e-17
7.29659e-19
1.53824e-17
-3.35401e-17
0
-5.30508e-18
0
7.90795e-18
2.18492e-18
0
2.64014e-18
-2.17947e-18
3.12896e-19
-1.4252e-19
1.30051e-19
2.09682e-19
5.81429e-20
-4.60549e-20
0
2.74481e-17
-1.93915e-17
2.33203e-17
2.11144e-17
0
1.03326e-17
-8.79728e-18
-4.39459e-18
4.34911e-18
-6.30342e-18
-1.90087e-18
0
0
1.41124e-19
0
0
2.23382e-20
0
-1.29601e-16
1.01124e-16
0
2.75171e-18
-1.1391e-17
-5.17558e-19
7.63235e-18
3.11401e-18
-5.32624e-18
-7.44511e-18
8.09317e-18
-2.29816e-18
0
-4.66315e-19
0
0
0
-8.7271e-20
7.00183e-20
-3.85329e-17
3.25964e-17
7.39397e-17
-6.83785e-17
1.8024e-17
1.85768e-18
-7.70411e-18
5.15707e-18
6.68264e-18
3.64864e-18
-6.99543e-18
0
1.56372e-18
-2.59757e-19
-5.31767e-19
-6.95993e-19
5.26961e-19
-4.21886e-20
9.71118e-20
-1.37234e-16
1.63917e-16
-1.58526e-16
2.34558e-17
1.6169e-17
-1.40866e-17
1.04584e-17
-6.0894e-18
0
-3.33134e-18
3.4894e-18
1.44009e-18
1.8317e-18
1.38888e-18
-1.92359e-18
-1.36292e-19
0
-4.95671e-20
1.68382e-20
-1.48257e-16
-3.83681e-17
-5.72614e-17
3.26061e-17
-4.02504e-17
2.90776e-17
-1.58444e-17
1.01585e-17
-1.46524e-18
-1.31458e-18
-4.39256e-18
2.99806e-18
-5.96917e-19
2.28257e-18
-2.45036e-18
6.69531e-20
1.81122e-19
0
-3.40792e-20
1.60299e-16
-4.20211e-17
0
0
-4.13678e-17
7.61425e-17
-1.57929e-17
-2.15257e-18
1.52583e-17
-5.56507e-19
0
0
-1.5385e-18
0
-2.43054e-18
5.15803e-18
-3.33858e-18
0
1.73288e-20
5.24773e-17
9.07302e-17
0
-3.22458e-17
-2.07958e-17
-1.41782e-17
-1.67458e-17
5.36728e-18
-1.35775e-17
-5.64163e-18
0
0
3.16409e-18
0
0
-3.85507e-18
6.57075e-18
0
0
3.60802e-16
-5.39647e-17
-1.94781e-16
-8.71964e-17
1.1987e-16
3.17853e-17
1.62372e-17
0
-4.39058e-18
3.47112e-18
8.56349e-18
-2.54609e-18
-2.77651e-18
3.97007e-18
-4.22294e-18
-9.68712e-19
0
0
0
2.88852e-17
-2.06537e-16
2.00708e-16
-1.70876e-17
-1.14301e-16
1.69244e-16
-7.99428e-17
0
0
2.64185e-17
-2.05424e-17
0
-4.31924e-18
7.84077e-18
-6.2432e-19
1.96898e-18
5.4429e-19
1.01011e-20
1.05587e-19
0
0
0
1.45103e-16
-9.83542e-17
8.34692e-17
-1.2588e-16
3.32229e-17
0
-8.90202e-18
1.21012e-17
-1.23681e-17
-1.9637e-18
1.37654e-19
-1.12253e-18
-1.16596e-19
-8.7583e-19
-2.55986e-19
-1.32583e-19
2.35834e-16
-4.06951e-16
1.86218e-16
0
3.85608e-17
-5.32608e-17
4.40461e-17
-3.4678e-17
0
-1.21742e-17
1.72102e-17
0
0
1.29311e-19
0
-1.33107e-18
8.88201e-19
1.14084e-19
2.18165e-19
2.42532e-16
0
-7.95887e-17
8.85502e-17
-4.69091e-17
9.89554e-17
-4.44994e-17
-2.8606e-17
2.89047e-17
-2.56072e-18
0
0
1.27234e-18
-1.88112e-18
-1.27309e-18
2.35703e-18
-5.03722e-19
2.35279e-19
0
1.37255e-16
9.56749e-17
-9.28852e-18
-8.50138e-17
-7.59501e-18
-4.85069e-17
8.81229e-18
3.70426e-17
-1.66858e-18
2.6088e-18
0
0
-1.30343e-18
0
1.38563e-18
-1.48229e-18
0
1.82107e-19
-4.93922e-20
-7.27562e-17
-4.81068e-17
4.51545e-17
-4.62603e-18
-1.92413e-18
4.75914e-18
0
-1.05523e-18
1.38409e-17
-1.16412e-17
0
3.08105e-18
-7.64859e-19
-2.5524e-18
-2.18527e-19
-1.65011e-19
0
-1.43332e-19
0
2.82763e-17
-5.22792e-17
8.56325e-19
2.03386e-17
1.60134e-17
-1.57614e-17
-9.43666e-18
1.06236e-17
-3.06501e-18
2.43581e-18
-1.97416e-18
2.03504e-18
0
4.41689e-21
-1.59853e-19
5.72113e-19
-1.90151e-21
0
0
2.82773e-17
-2.81713e-17
-2.02293e-17
1.8016e-17
2.81631e-17
-2.83293e-17
-4.7186e-18
4.73146e-18
-3.09211e-18
3.12402e-18
-1.97431e-18
3.60868e-18
-1.01208e-18
-6.5852e-19
-1.85223e-19
6.50774e-20
1.42919e-19
3.69589e-20
-2.76391e-20
0
-6.50145e-18
3.50105e-17
-3.82288e-17
2.80171e-17
-2.49976e-17
0
1.51222e-17
-1.3629e-17
0
3.87739e-18
-4.85824e-18
-2.43602e-18
2.5531e-18
4.26013e-19
0
0
-1.43402e-19
5.17312e-20
1.12374e-16
-2.01052e-16
1.92098e-16
-1.56793e-16
5.95594e-17
-4.22734e-17
4.04892e-17
4.09491e-18
-1.35049e-17
1.19911e-17
0
-6.71202e-18
6.13247e-18
-1.02314e-18
-4.17279e-19
5.98666e-19
4.28225e-19
1.39216e-19
-4.99841e-20
2.72571e-16
0
-9.04423e-17
7.04671e-17
7.50821e-18
-5.05528e-17
8.52801e-17
-6.86567e-17
2.57634e-17
-8.96186e-18
9.17325e-18
1.6139e-18
2.42063e-18
9.96548e-19
-7.28216e-19
-1.21643e-19
-9.17147e-19
0
8.34666e-20
2.06199e-16
-2.32148e-16
0
1.78541e-17
6.78374e-17
-6.51809e-17
9.5497e-18
7.5951e-18
3.08362e-18
4.6788e-18
0
0
-4.10197e-18
7.13753e-18
-2.49922e-18
-8.12025e-19
8.89031e-19
6.75103e-20
-1.55269e-19
3.33592e-17
2.04415e-16
-2.11018e-17
-1.27656e-16
1.12693e-16
1.1669e-17
-9.34612e-18
-7.41815e-18
2.03192e-17
-2.50296e-17
1.21106e-17
-1.23776e-17
1.4141e-18
-2.18253e-18
3.11011e-18
-2.10324e-18
0
0
1.17765e-19
0
4.92323e-17
-1.30763e-16
1.50437e-16
-1.00437e-16
1.00198e-16
0
2.45293e-17
-2.46417e-17
-1.43905e-17
2.05693e-17
0
6.21097e-18
-7.85236e-18
-1.07037e-18
0
-9.54417e-20
-1.47124e-19
-2.68022e-20
-4.99702e-16
2.29398e-16
0
-1.19874e-16
1.19862e-16
5.91993e-17
-3.84751e-17
1.24417e-17
0
-4.12518e-19
2.00929e-18
-2.54496e-18
-2.77595e-18
3.96917e-18
-4.22055e-18
0
6.18574e-19
-5.28363e-20
-9.37227e-20
2.99751e-16
-2.87605e-16
0
3.14042e-17
2.52813e-17
-2.12272e-17
0
-1.3039e-17
-8.70967e-18
0
-1.06189e-18
0
3.16901e-18
0
0
7.50817e-19
2.5916e-18
-3.49437e-18
0
-5.00798e-20
4.20443e-17
-3.48026e-17
2.20858e-17
-1.1561e-16
4.1001e-17
0
2.15558e-18
5.79475e-18
0
-4.24933e-18
8.60668e-18
-9.04181e-18
1.01385e-18
0
-2.81049e-19
0
0
0
-3.21689e-20
0
3.21663e-17
0
-3.51734e-17
3.57326e-17
0
7.70603e-18
-4.81313e-18
1.51075e-17
-6.78651e-18
1.57041e-18
-2.00313e-18
1.37109e-18
-2.45865e-18
-3.43166e-19
0
-8.65521e-20
0
1.1184e-16
-1.90293e-16
0
-2.28469e-17
1.73971e-17
0
0
-1.34047e-17
0
-3.33698e-18
-3.49621e-18
-1.44335e-18
1.83655e-18
0
4.4118e-19
0
0
1.62966e-19
-1.53714e-19
0
1.50706e-16
-1.19141e-16
2.1151e-17
-1.61098e-17
-4.84246e-18
1.26324e-17
1.09843e-17
-9.59748e-18
2.97493e-18
6.57483e-19
-1.1572e-18
4.37826e-18
-1.27186e-18
-1.81997e-18
5.09874e-19
-7.30605e-20
4.47998e-20
-8.56258e-21
-2.81175e-16
1.01269e-16
0
0
5.90846e-18
-6.00824e-18
2.20162e-18
2.68978e-19
7.82671e-18
2.77708e-18
-2.42246e-18
-3.03658e-19
-6.32236e-19
4.6772e-19
0
9.99012e-20
6.69652e-20
2.42206e-20
7.73936e-21
0
7.97347e-17
-6.63383e-17
1.96863e-17
1.47715e-17
-2.6612e-18
-6.07844e-18
-3.96859e-18
-9.402e-18
2.61333e-18
-7.1072e-19
1.56616e-18
5.91219e-19
-4.25385e-19
4.5152e-19
1.46944e-19
-2.19708e-19
-2.23713e-20
0
-1.66813e-17
-6.51351e-17
1.99946e-17
1.53886e-17
-4.13737e-17
2.6755e-17
8.24124e-18
-8.42381e-18
4.17342e-18
-2.48018e-18
0
0
-6.19606e-19
9.85044e-19
-3.55937e-19
1.94577e-19
-2.14647e-19
2.59342e-20
-4.60923e-20
2.99493e-17
2.50348e-17
-1.94776e-17
1.01145e-17
-1.47533e-17
-1.4312e-17
0
0
0
0
0
0
3.32005e-19
-5.70494e-19
6.0336e-19
-1.12996e-19
1.46652e-19
5.07831e-20
-4.21968e-20
6.46124e-17
-8.74906e-17
1.07868e-16
-3.41591e-17
4.90647e-17
-2.18021e-17
3.62064e-17
-1.68017e-17
-4.93164e-18
5.04484e-18
0
5.78547e-19
-3.24352e-19
5.0046e-19
-2.57182e-19
-1.93036e-19
-2.49851e-19
2.30844e-20
3.45345e-20
1.01945e-16
2.46667e-17
0
-2.7538e-17
-1.56818e-17
3.19934e-17
2.78197e-19
-7.6762e-18
3.75354e-18
-1.7159e-18
0
-4.57986e-19
0
-2.04543e-19
1.33106e-19
-8.73798e-20
-2.52252e-20
1.22468e-20
0
1.4044e-16
-2.60754e-17
8.96942e-17
-6.92601e-17
-1.04552e-17
2.97775e-17
-1.75448e-17
1.40307e-18
8.4615e-19
-1.82735e-18
1.5156e-18
0
0
3.01171e-19
-5.22775e-20
2.2508e-20
8.93332e-20
-2.91133e-20
0
1.76746e-21
0
-2.12373e-17
1.01859e-16
-6.54842e-17
-4.86502e-17
2.59961e-17
-1.64341e-17
1.39903e-17
4.72432e-18
-2.5858e-18
8.24827e-19
-6.15564e-19
1.49228e-19
5.04827e-19
-1.54374e-20
-9.90705e-20
8.69109e-20
-1.8537e-20
3.27276e-16
-1.01015e-16
3.42325e-17
-1.12772e-16
2.40186e-17
-2.94354e-17
1.72126e-17
0
0
-3.85414e-19
-6.89254e-19
-1.71658e-19
0
-5.77807e-19
-3.23647e-19
1.79554e-19
-1.07049e-20
2.96371e-20
4.13415e-20
0
-9.40199e-17
1.34643e-16
1.62962e-17
-9.01546e-17
1.83479e-17
-2.13054e-17
7.20834e-18
1.37312e-17
0
0
1.629e-19
9.56111e-19
0
-4.34441e-19
-1.45892e-19
2.41399e-20
-4.24529e-20
-5.92601e-20
0
-5.32156e-17
2.47681e-17
9.12996e-17
4.897e-17
-8.4224e-17
3.45206e-17
-1.569e-17
9.12773e-18
-8.11032e-18
0
0
0
-1.10647e-18
1.19832e-19
-2.38985e-19
0
-9.68654e-21
4.54918e-20
-2.40433e-16
2.21283e-16
1.93519e-16
-2.31495e-16
8.37861e-17
-7.5216e-17
0
1.73657e-17
-2.18439e-17
1.04421e-17
-5.74241e-18
3.55978e-18
2.18488e-18
1.14433e-18
6.87726e-19
0
0
0
0
2.80809e-16
-1.44891e-16
0
0
-3.32145e-17
6.43795e-17
-4.0245e-17
-1.90759e-17
1.88609e-17
9.44007e-18
1.24139e-17
-3.69362e-18
1.26143e-18
6.41191e-19
3.82823e-19
3.00727e-19
4.60006e-19
-2.02426e-20
2.06189e-20
-2.7815e-16
2.42061e-16
1.07508e-16
-5.88805e-17
9.51327e-17
-5.96968e-17
-3.61876e-17
-2.49474e-17
0
-1.98684e-17
2.1114e-18
4.61392e-18
-2.65284e-18
-1.6746e-18
-4.94076e-19
-3.82312e-19
-3.08048e-19
0
0
-9.56533e-17
0
6.22043e-17
1.62185e-19
0
0
3.73287e-17
2.57422e-17
0
1.13753e-17
0
-6.82635e-18
-1.45236e-18
2.42763e-18
0
1.32485e-18
-1.69601e-19
1.73016e-19
0
2.10883e-16
0
1.13698e-16
-1.99171e-16
1.59834e-16
1.01626e-16
-7.37669e-18
0
3.20195e-18
1.5376e-17
0
-8.32123e-18
7.62709e-18
-6.07992e-18
-1.20598e-18
-1.01988e-18
-3.59356e-19
-8.01394e-20
-4.42592e-19
-1.82785e-16
2.59674e-16
-6.47725e-17
-1.50145e-16
-7.58488e-17
-5.58246e-17
-7.98235e-17
-2.38358e-17
4.37303e-18
5.62813e-18
-5.61755e-18
1.31287e-17
-5.27544e-18
9.00763e-18
-1.62979e-18
0
2.52036e-18
-1.75875e-18
4.11776e-19
4.33691e-16
-1.5379e-17
-2.73597e-16
1.8996e-16
-1.53685e-16
1.14086e-16
-7.34445e-18
-2.90928e-17
2.08216e-17
6.17275e-18
-1.66053e-18
-1.16795e-17
2.70267e-18
4.27456e-18
-9.82525e-19
9.93731e-19
-2.61048e-18
-1.18542e-18
-1.28416e-18
2.12904e-16
8.01594e-17
1.27287e-16
-9.76224e-17
-6.50919e-17
9.16153e-18
-3.50158e-17
8.1171e-17
4.67634e-18
2.59902e-17
1.31778e-17
-1.082e-17
0
-5.9538e-18
0
0
6.79845e-18
2.58823e-18
1.44849e-18
1.92334e-16
0
1.23145e-16
9.69923e-17
-7.32878e-17
5.52397e-17
0
-3.00543e-17
-3.66911e-17
-2.71253e-17
-1.32945e-17
1.09423e-17
0
0
0
0
-6.42763e-18
-7.29855e-18
0
-3.76272e-16
0
-1.35999e-17
-1.25596e-17
1.13615e-16
-4.93567e-17
-1.97224e-17
-2.02233e-17
3.84183e-17
0
8.69585e-18
-8.4324e-19
1.04783e-17
0
0
1.60817e-17
-1.2578e-18
8.80325e-18
-4.87108e-18
2.59739e-16
6.53677e-17
-6.46929e-17
-5.03054e-17
-1.43252e-16
8.69353e-17
9.05382e-17
-5.43871e-18
-2.79427e-17
3.03019e-17
5.75501e-18
-3.25359e-17
-2.3592e-17
-1.9992e-17
-2.22712e-17
-1.86663e-17
2.14192e-17
-9.56206e-19
4.98901e-18
-7.68809e-17
3.14998e-17
-1.45089e-16
2.03899e-17
-2.03157e-17
0
-4.61836e-17
-8.31995e-18
-4.22407e-17
9.53686e-18
4.13524e-17
2.60854e-17
-7.50277e-18
-3.04724e-18
2.08089e-17
0
-4.92449e-17
-2.1292e-17
-4.23791e-19
1.64528e-16
-3.85805e-18
2.2768e-16
-9.88148e-17
4.18894e-19
2.2136e-18
6.27705e-17
-1.17883e-17
4.09665e-17
-3.80491e-17
-3.64739e-17
0
4.89475e-17
3.47461e-17
5.93412e-19
-8.82907e-19
2.87353e-17
2.16246e-17
0
-1.14993e-16
0
-1.83774e-17
9.65306e-17
2.85269e-18
1.98005e-17
-6.0698e-17
5.52953e-17
6.80553e-17
6.62377e-17
6.55452e-17
0
-4.75516e-17
0
3.18553e-18
-3.30846e-18
0
-3.73405e-19
1.95232e-17
8.51559e-17
9.04623e-18
-5.10596e-17
1.64102e-16
-5.03266e-17
0
0
-8.82575e-17
-6.59387e-17
-6.41695e-17
-1.29934e-16
-1.83723e-17
0
0
0
-7.60259e-18
8.04545e-18
5.57059e-17
-1.98414e-17
9.72624e-18
0
-1.2416e-16
-1.02029e-16
1.14275e-16
-1.14987e-16
-1.60145e-16
1.8252e-16
5.94687e-17
0
8.19168e-17
1.06893e-16
-2.29371e-17
1.30298e-16
-2.17115e-17
2.25964e-17
9.28831e-17
-5.29451e-17
0
-1.60553e-16
0
-1.47829e-16
1.42586e-16
0
2.34466e-16
1.06185e-16
-2.36615e-16
2.02207e-16
-5.46238e-19
-5.84906e-17
-1.03495e-16
0
1.64207e-16
-2.68334e-16
2.90366e-16
-3.7063e-16
0
0
1.61206e-16
-2.36955e-18
-5.70724e-18
-2.96145e-16
3.04245e-16
-1.4359e-16
1.43005e-16
1.41158e-16
-1.13426e-16
0
0
2.46216e-16
-2.50458e-16
-2.57871e-16
2.584e-16
-2.53973e-16
2.76634e-16
-4.35419e-16
0
)
;

boundaryField
{
    up
    {
        type            calculated;
        value           nonuniform List<scalar> 
84
(
0
0
0
0
-1.34835e-17
2.34066e-17
-9.35146e-18
4.98912e-18
-4.46026e-18
0
-1.62429e-18
1.50429e-18
-5.46649e-19
1.96629e-19
1.17074e-19
1.89784e-19
0
0
-3.56305e-20
2.73851e-20
1.72889e-20
-1.67873e-20
1.17868e-21
0
5.93035e-21
4.0961e-21
-4.13986e-20
0
7.00183e-20
1.12724e-19
1.68382e-20
-3.40792e-20
1.73288e-20
0
8.87443e-21
1.04403e-19
-1.2885e-19
2.14896e-19
0
-4.83609e-20
0
0
-2.74825e-20
5.17312e-20
-4.99841e-20
8.34666e-20
-1.55269e-19
1.17765e-19
-2.68022e-20
-9.37227e-20
0
0
0
-1.53714e-19
-2.44114e-20
7.73936e-21
0
-4.60923e-20
-4.21968e-20
2.86132e-20
0
0
-1.8537e-20
4.13415e-20
-5.92601e-20
4.54918e-20
0
2.06189e-20
0
0
-4.42592e-19
4.11776e-19
-1.28416e-18
1.44849e-18
0
-4.87108e-18
4.98901e-18
-4.23791e-19
0
1.95232e-17
-1.98414e-17
0
0
0
)
;
    }
    low
    {
        type            calculated;
        value           nonuniform List<scalar> 
84
(
-3.23159e-16
3.17638e-16
-1.48488e-16
2.43814e-16
4.38864e-17
-1.14069e-17
9.5281e-17
1.80836e-17
0
3.8716e-16
-9.81495e-17
6.60129e-17
-8.32887e-17
-5.86053e-16
9.56606e-17
0
-8.8766e-17
1.42442e-17
-1.39993e-17
-6.39041e-17
3.64395e-17
9.061e-17
1.71909e-16
-1.41595e-16
0
-2.72556e-17
-1.40637e-17
0
-1.29601e-16
-3.85329e-17
-1.36757e-16
-1.47976e-16
1.60227e-16
5.24773e-17
3.61126e-16
2.88852e-17
0
2.35834e-16
2.4353e-16
1.37775e-16
-7.30252e-17
2.82763e-17
2.82773e-17
0
1.12374e-16
2.73569e-16
2.06199e-16
3.41736e-17
0
-5.00026e-16
2.99751e-16
-5.00798e-20
-3.21689e-20
1.1184e-16
0
-2.80093e-16
0
-1.66813e-17
2.99493e-17
6.39399e-17
1.00872e-16
1.39529e-16
1.76746e-21
3.26703e-16
0
0
-2.40433e-16
2.80781e-16
-2.7825e-16
-9.56533e-17
2.11192e-16
-1.82785e-16
4.35226e-16
2.13857e-16
1.92334e-16
-3.76272e-16
2.58735e-16
-7.57873e-17
1.64528e-16
-1.14506e-16
8.51559e-17
1.07001e-17
-1.60553e-16
1.61475e-16
)
;
    }
    left
    {
        type            calculated;
        value           nonuniform List<scalar> 
19
(
-3.22621e-16
-1.52937e-16
1.59743e-16
7.72187e-18
-2.93188e-16
0
-1.30022e-16
-1.28347e-16
-1.51977e-17
-7.0747e-17
-2.78655e-19
-7.1382e-17
3.258e-16
-7.18195e-17
3.32712e-16
2.89272e-16
1.72674e-16
2.55136e-16
0
)
;
    }
    right
    {
        type            calculated;
        value           nonuniform List<scalar> 
19
(
1.61206e-16
-2.17066e-18
-5.70724e-18
-2.96289e-16
3.04571e-16
-1.4359e-16
1.43005e-16
1.41158e-16
-1.12687e-16
0
0
2.48632e-16
-2.53622e-16
-2.57871e-16
2.584e-16
-2.53973e-16
2.76634e-16
-4.70624e-16
0
)
;
    }
    frontAndBackPlanes
    {
        type            empty;
    }
}


// ************************************************************************* //
