/*--------------------------------*- C++ -*----------------------------------*\
  =========                 |
  \\      /  F ield         | OpenFOAM: The Open Source CFD Toolbox
   \\    /   O peration     | Website:  https://openfoam.org
    \\  /    A nd           | Version:  7
     \\/     M anipulation  |
\*---------------------------------------------------------------------------*/
FoamFile
{
    version     2.0;
    format      ascii;
    class       volScalarField;
    location    "0.08";
    object      gradTx;
}
// * * * * * * * * * * * * * * * * * * * * * * * * * * * * * * * * * * * * * //

dimensions      [0 -1 0 1 0 0 0];

internalField   nonuniform List<scalar> 
1596
(
-0.192129
-0.962327
-1.69971
-2.3207
-2.80947
-3.16184
-3.40451
-3.55776
-3.6463
-3.70581
-3.74681
-3.80626
-3.92397
-4.15413
-4.55769
-5.26656
-6.46776
-8.54885
-12.3031
0.0534967
-0.769758
-1.48603
-2.07153
-2.53133
-2.86677
-3.10193
-3.25079
-3.33477
-3.37663
-3.38328
-3.377
-3.36807
-3.37178
-3.39314
-3.43649
-3.46256
-3.37748
-2.96463
0.259488
-0.565291
-1.23182
-1.76236
-2.17675
-2.48237
-2.6996
-2.83958
-2.91905
-2.95348
-2.94747
-2.91428
-2.8541
-2.76914
-2.65517
-2.50536
-2.28922
-1.94841
-1.3535
0.30657
-0.414294
-0.983425
-1.43396
-1.78707
-2.05184
-2.24346
-2.37073
-2.44594
-2.4794
-2.4749
-2.43984
-2.37115
-2.26566
-2.11651
-1.91453
-1.63985
-1.26104
-0.707295
0.1498
-0.364215
-0.789318
-1.13586
-1.41351
-1.62762
-1.78678
-1.89689
-1.96596
-2.0002
-2.00309
-1.97815
-1.9217
-1.82846
-1.69108
-1.4994
-1.23973
-0.894824
-0.427496
-0.180805
-0.435582
-0.687032
-0.911895
-1.10268
-1.25732
-1.37718
-1.46448
-1.52313
-1.55579
-1.56536
-1.55275
-1.51453
-1.44492
-1.33682
-1.17948
-0.962
-0.672809
-0.29145
-0.607336
-0.617217
-0.691454
-0.787443
-0.884348
-0.972386
-1.04646
-1.10474
-1.14723
-1.17349
-1.18523
-1.1815
-1.15925
-1.11291
-1.03605
-0.917945
-0.74883
-0.518714
-0.214179
-1.03872
-0.862783
-0.782833
-0.757305
-0.761245
-0.780159
-0.804617
-0.829145
-0.850416
-0.865316
-0.873834
-0.873641
-0.86181
-0.833284
-0.782499
-0.699466
-0.575163
-0.399841
-0.162512
-1.47403
-1.18566
-0.982512
-0.84447
-0.753995
-0.69751
-0.664539
-0.647262
-0.639747
-0.636491
-0.635256
-0.632334
-0.624395
-0.606739
-0.57452
-0.518941
-0.431791
-0.303502
-0.123709
-1.73098
-1.41804
-1.15279
-0.941838
-0.781742
-0.664858
-0.58303
-0.528222
-0.493353
-0.471535
-0.458668
-0.450022
-0.441744
-0.429417
-0.408825
-0.372652
-0.313831
-0.223623
-0.09233
-1.94516
-1.63185
-1.33542
-1.07469
-0.858957
-0.688855
-0.560929
-0.468808
-0.405453
-0.363254
-0.336533
-0.319567
-0.307745
-0.296619
-0.282307
-0.258831
-0.220317
-0.159242
-0.0669125
-2.17279
-1.87074
-1.55692
-1.258
-0.99319
-0.771923
-0.59685
-0.464846
-0.369971
-0.304424
-0.26121
-0.233472
-0.215543
-0.202522
-0.190463
-0.174338
-0.149317
-0.109237
-0.0467342
-2.25613
-1.9958
-1.6946
-1.38659
-1.09816
-0.846081
-0.638854
-0.47738
-0.357822
-0.273113
-0.215814
-0.178409
-0.154446
-0.138581
-0.126698
-0.114431
-0.0978223
-0.072055
-0.0313069
-2.30485
-2.08483
-1.80456
-1.49833
-1.19689
-0.923097
-0.690724
-0.504844
-0.364068
-0.262429
-0.192467
-0.146186
-0.11645
-0.097408
-0.0846375
-0.0741089
-0.0624496
-0.0459317
-0.0201559
-2.34354
-2.15738
-1.89834
-1.59815
-1.28932
-0.999376
-0.746641
-0.540168
-0.381065
-0.264584
-0.183467
-0.129327
-0.0944172
-0.0723463
-0.058303
-0.0483382
-0.0394083
-0.0285577
-0.0125312
-2.33655
-2.1869
-1.95249
-1.66427
-1.35562
-1.05735
-0.791477
-0.570543
-0.398024
-0.27043
-0.180893
-0.12081
-0.0819861
-0.0575857
-0.0424487
-0.0325887
-0.0251259
-0.0176084
-0.00761067
-2.27619
-2.16337
-1.95706
-1.68663
-1.38565
-1.08721
-0.816118
-0.587783
-0.407722
-0.273622
-0.179102
-0.115517
-0.0744273
-0.0487146
-0.0329879
-0.0232149
-0.0166065
-0.0110266
-0.00460553
-2.19317
-2.10591
-1.92547
-1.67457
-1.38532
-1.09196
-0.821384
-0.591163
-0.408442
-0.271861
-0.175469
-0.110657
-0.0688741
-0.0428633
-0.027121
-0.0176094
-0.0116119
-0.00719736
-0.00285147
-2.12862
-2.06182
-1.89995
-1.66274
-1.3813
-1.09092
-0.820349
-0.58887
-0.404784
-0.267267
-0.170481
-0.105693
-0.0641771
-0.0385386
-0.0231953
-0.0141158
-0.00864494
-0.00498843
-0.00185505
-1.96665
-1.93239
-1.7992
-1.58652
-1.32448
-1.0485
-0.788366
-0.564548
-0.386275
-0.253285
-0.160033
-0.097953
-0.0584477
-0.0342583
-0.0199356
-0.011594
-0.00671437
-0.0036493
-0.00127947
-1.76659
-1.76022
-1.65637
-1.47141
-1.23386
-0.978401
-0.735049
-0.524726
-0.35717
-0.232531
-0.145585
-0.0881028
-0.0518261
-0.0298267
-0.0169459
-0.00955135
-0.00532075
-0.00276966
-0.000928359
-1.5394
-1.55217
-1.47524
-1.31978
-1.11128
-0.882381
-0.662167
-0.471118
-0.318992
-0.206223
-0.128002
-0.0766715
-0.0445561
-0.0252715
-0.014106
-0.00778289
-0.00423185
-0.00214944
-0.00070206
-1.26624
-1.28955
-1.23804
-1.1165
-0.945272
-0.752766
-0.565269
-0.401614
-0.271081
-0.174439
-0.107628
-0.0640107
-0.036889
-0.020721
-0.0114404
-0.00624465
-0.00337595
-0.00173269
-0.000595931
-0.937268
-0.925144
-0.862285
-0.756494
-0.624739
-0.486638
-0.358437
-0.250326
-0.166338
-0.105459
-0.0641043
-0.0375439
-0.0212843
-0.0117456
-0.00636649
-0.00342667
-0.00186377
-0.0010105
-0.000403702
-0.627899
-0.684211
-0.705961
-0.680133
-0.610151
-0.51077
-0.400675
-0.295923
-0.206975
-0.137819
-0.0879149
-0.0541308
-0.0323492
-0.0188961
-0.0108905
-0.00629184
-0.00374658
-0.00240305
-0.00167787
-0.208711
-0.227361
-0.243557
-0.249112
-0.240106
-0.217131
-0.184301
-0.147119
-0.110993
-0.0795435
-0.0544708
-0.0359858
-0.0230668
-0.0144518
-0.00891349
-0.00549473
-0.00347882
-0.00240131
-0.00191308
0.214024
0.19624
0.158069
0.108092
0.0570063
0.0138783
-0.0161904
-0.0324623
-0.0375768
-0.0354252
-0.0296422
-0.0230381
-0.0169863
-0.0120728
-0.00833819
-0.00567541
-0.00388893
-0.00283705
-0.00232658
0.629092
0.605043
0.542846
0.452151
0.348081
0.246363
0.159081
0.092292
0.0463659
0.017973
0.00243622
-0.00497283
-0.00765224
-0.00788108
-0.00693274
-0.00560121
-0.00430438
-0.0033541
-0.0028125
0.990713
0.951212
0.86414
0.740207
0.596208
0.450796
0.319748
0.212501
0.131966
0.0759447
0.0397288
0.0176586
0.00504618
-0.0016159
-0.00454417
-0.00529451
-0.00485747
-0.00410504
-0.00349957
1.34506
1.28081
1.16402
1.00642
0.826096
0.643158
0.475133
0.333223
0.221993
0.140258
0.0836626
0.0461627
0.0222726
0.00761468
-0.000679792
-0.00470111
-0.00581191
-0.00545995
-0.00470381
1.58673
1.49668
1.35719
1.17948
0.980808
0.779897
0.593344
0.432215
0.301833
0.202033
0.129425
0.0784257
0.0435415
0.0201103
0.00507584
-0.00377776
-0.00765865
-0.00824836
-0.00719449
1.79053
1.67909
1.51841
1.32313
1.11035
0.897092
0.698315
0.524105
0.379806
0.265837
0.179685
0.116384
0.0706673
0.0377427
0.014463
-0.00141468
-0.0103989
-0.0136213
-0.0127935
1.95702
1.81783
1.63643
1.42766
1.20694
0.988616
0.785166
0.605003
0.452941
0.329647
0.233408
0.160046
0.104751
0.0627223
0.0306379
0.00583838
-0.0114894
-0.0211272
-0.0224638
2.03319
1.85554
1.64776
1.42367
1.1963
0.97695
0.775176
0.597226
0.446665
0.32374
0.226764
0.151985
0.0948599
0.0504993
0.0150505
-0.015114
-0.0405311
-0.0606797
-0.072687
2.05
1.8603
1.65628
1.44737
1.24084
1.04286
0.859006
0.693244
0.548332
0.425114
0.323178
0.240694
0.174817
0.122205
0.0795582
0.0429507
0.00957241
-0.0229883
-0.0554007
2.04331
1.85005
1.6547
1.45977
1.26834
1.08426
0.911592
0.753646
0.613029
0.490864
0.387272
0.30133
0.23097
0.173863
0.12765
0.0897429
0.0579099
0.0300481
0.00401153
1.87912
1.66052
1.45476
1.25987
1.07663
0.906957
0.752891
0.615829
0.4966
0.394884
0.309755
0.239682
0.182378
0.135598
0.0973004
0.065563
0.0389363
0.0165522
-0.00234008
1.61
1.41759
1.23892
1.07187
0.916524
0.773868
0.644983
0.530544
0.430899
0.345563
0.273696
0.214028
0.16471
0.123947
0.0901176
0.0616633
0.0373731
0.0165113
-0.00157045
1.31098
1.15377
1.0069
0.870096
0.743701
0.628353
0.524636
0.432808
0.352921
0.284418
0.226549
0.178253
0.138046
0.104511
0.0763895
0.052464
0.0318092
0.0138923
-0.00176683
0.972038
0.852955
0.742827
0.641244
0.548126
0.463625
0.38791
0.320979
0.262744
0.212711
0.170306
0.134746
0.104957
0.0799277
0.0587762
0.0406419
0.0248875
0.011167
-0.000843391
0.605758
0.526624
0.456218
0.392702
0.335225
0.28347
0.237307
0.196604
0.161223
0.130811
0.104996
0.0832843
0.0650217
0.0495935
0.0364741
0.0251479
0.0152417
0.00656592
-0.00105787
0.230785
0.198012
0.1702
0.145623
0.123614
0.103938
0.0865008
0.071227
0.058042
0.0467912
0.0373111
0.029395
0.0227806
0.0172226
0.0125104
0.00844106
0.00486617
0.001707
-0.0011046
-0.230675
-0.197758
-0.169845
-0.145205
-0.123165
-0.103481
-0.0860553
-0.0708074
-0.0576576
-0.0464475
-0.0370104
-0.0291373
-0.0225646
-0.0170465
-0.0123722
-0.00833922
-0.00479943
-0.0016741
0.00110481
-0.605652
-0.526393
-0.455901
-0.39233
-0.334827
-0.283067
-0.236917
-0.196239
-0.160891
-0.130517
-0.104741
-0.0830683
-0.0648433
-0.0494509
-0.0363655
-0.025072
-0.0151975
-0.00655226
0.0010421
-0.971927
-0.852724
-0.74251
-0.640872
-0.547727
-0.463222
-0.387519
-0.320615
-0.262414
-0.212419
-0.170055
-0.134533
-0.10478
-0.0797841
-0.0586631
-0.0405566
-0.0248278
-0.0111305
0.000858562
-1.31089
-1.1536
-1.00666
-0.869818
-0.743407
-0.62806
-0.524358
-0.432554
-0.352698
-0.284227
-0.22639
-0.178124
-0.137944
-0.104433
-0.0763331
-0.0524266
-0.0317888
-0.0138872
0.00175819
-1.60993
-1.41745
-1.23873
-1.07165
-0.916296
-0.773643
-0.644774
-0.53036
-0.430743
-0.345437
-0.273597
-0.213954
-0.164655
-0.123909
-0.0900939
-0.0616506
-0.0373691
-0.0165134
0.0015651
-1.87909
-1.66045
-1.45464
-1.25973
-1.07648
-0.906823
-0.752779
-0.615743
-0.496543
-0.394852
-0.309744
-0.239688
-0.182394
-0.135622
-0.0973288
-0.0655928
-0.0389642
-0.016574
0.00232759
-2.04328
-1.84982
-1.65427
-1.45916
-1.2676
-1.08344
-0.910755
-0.752836
-0.612279
-0.490193
-0.386688
-0.300831
-0.230547
-0.173502
-0.127338
-0.0894687
-0.0576724
-0.0298644
-0.00392152
-2.05031
-1.86115
-1.65767
-1.44923
-1.24306
-1.04531
-0.861554
-0.695769
-0.550733
-0.427321
-0.325152
-0.242426
-0.176318
-0.123508
-0.0807089
-0.0440016
-0.0105661
0.0220375
0.0545353
-2.03301
-1.8551
-1.6471
-1.42286
-1.19542
-0.976046
-0.774301
-0.596406
-0.445913
-0.323061
-0.226155
-0.15144
-0.0943726
-0.0500625
-0.0146529
0.0154909
0.040927
0.0611684
0.0733718
-1.95712
-1.81807
-1.63683
-1.42819
-1.20757
-0.989313
-0.785879
-0.605688
-0.453564
-0.330187
-0.233858
-0.160408
-0.105036
-0.0629393
-0.030793
-0.00592716
0.0114754
0.0211892
0.0225818
-1.79058
-1.67923
-1.51867
-1.3235
-1.1108
-0.897608
-0.698846
-0.524612
-0.380259
-0.26622
-0.179993
-0.116623
-0.0708481
-0.0378729
-0.0145453
0.00138468
0.0104231
0.0136825
0.0128551
-1.58679
-1.49685
-1.35747
-1.17987
-0.981289
-0.780424
-0.59387
-0.4327
-0.302251
-0.202372
-0.129688
-0.0786236
-0.0436863
-0.0202114
-0.00513769
0.00375503
0.00767205
0.00828273
0.00722005
-1.34512
-1.28099
-1.16432
-1.00684
-0.826598
-0.643691
-0.475646
-0.333677
-0.222368
-0.14055
-0.0838799
-0.0463199
-0.0223836
-0.00768917
0.000636139
0.00468495
0.00581766
0.00547679
0.00471413
-0.990775
-0.951398
-0.864454
-0.740629
-0.596693
-0.451291
-0.320205
-0.212889
-0.132272
-0.0761718
-0.0398908
-0.0177709
-0.00512203
0.00156772
0.00451812
0.00528625
0.00486131
0.00411385
0.00350399
-0.62917
-0.605257
-0.543193
-0.452594
-0.348565
-0.246831
-0.159489
-0.0926179
-0.0466077
-0.018142
-0.00254945
0.00489925
0.00760614
0.00785465
0.00692088
0.00559972
0.00430871
0.00335999
0.00281538
-0.214097
-0.196457
-0.158415
-0.108518
-0.0574472
-0.0142791
0.0158638
0.03222
0.0374108
0.0353189
0.0295776
0.0230007
0.0169664
0.0120643
0.0083374
0.00567918
0.00389441
0.00284221
0.00232969
0.20853
0.226832
0.242745
0.248153
0.23915
0.216292
0.183638
0.146638
0.11067
0.079339
0.0543482
0.035916
0.0230294
0.0144339
0.0089067
0.00549367
0.00347997
0.002403
0.00191513
0.628005
0.684602
0.706629
0.68099
0.611075
0.511646
0.401426
0.296513
0.207407
0.138118
0.0881121
0.0542567
0.0324282
0.0189455
0.0109218
0.00631214
0.00376017
0.00241261
0.00168469
0.937121
0.924671
0.861548
0.755616
0.62385
0.485838
0.357777
0.249822
0.165976
0.105212
0.0639434
0.0374434
0.0212239
0.0117107
0.00634713
0.00341631
0.00185838
0.00100787
0.000402843
1.2663
1.28968
1.23821
1.11668
0.945445
0.752906
0.565371
0.401681
0.271121
0.174462
0.107639
0.0640164
0.0368919
0.0207227
0.0114415
0.00624542
0.00337646
0.00173304
0.000596168
1.53941
1.55217
1.47524
1.31978
1.11126
0.882366
0.662152
0.471106
0.318984
0.206219
0.128001
0.076672
0.0445574
0.0252731
0.0141075
0.00778412
0.00423281
0.00215009
0.000702333
1.76659
1.76022
1.65637
1.47141
1.23385
0.978388
0.735036
0.524716
0.357164
0.232529
0.145585
0.0881042
0.051828
0.0298286
0.0169476
0.00955286
0.005322
0.00277053
0.000928643
1.96666
1.93239
1.7992
1.58652
1.32448
1.04849
0.788356
0.564539
0.38627
0.253283
0.160033
0.0979541
0.0584495
0.0342603
0.0199376
0.0115959
0.00671618
0.00365061
0.00127988
2.12862
2.06183
1.89996
1.66274
1.3813
1.09092
0.820342
0.588863
0.404779
0.267264
0.17048
0.105694
0.0641788
0.0385408
0.0231979
0.0141187
0.00864775
0.00499048
0.00185567
2.19317
2.10592
1.92548
1.67458
1.38532
1.09196
0.821379
0.591158
0.408438
0.271859
0.175468
0.110657
0.068876
0.0428662
0.0271249
0.0176138
0.0116162
0.00720043
0.00285233
2.27619
2.16337
1.95706
1.68663
1.38565
1.0872
0.816113
0.587778
0.407718
0.273619
0.179101
0.115518
0.07443
0.048719
0.0329936
0.0232215
0.0166127
0.0110308
0.00460653
2.33656
2.18691
1.95249
1.66428
1.35563
1.05735
0.791475
0.57054
0.398021
0.270428
0.180893
0.120812
0.0819903
0.0575921
0.0424569
0.0325976
0.0251339
0.0176132
0.0076115
2.34354
2.15738
1.89835
1.59815
1.28933
0.999378
0.746641
0.540166
0.381063
0.264583
0.183468
0.129331
0.0944233
0.0723551
0.0583136
0.0483489
0.0394167
0.0285618
0.0125313
2.30485
2.08483
1.80456
1.49834
1.1969
0.923101
0.690725
0.504844
0.364068
0.262429
0.19247
0.146191
0.116458
0.0974189
0.0846492
0.074119
0.0624557
0.0459329
0.0201546
2.25614
1.99581
1.69461
1.3866
1.09817
0.846087
0.638858
0.477382
0.357825
0.273116
0.215819
0.178417
0.154456
0.138592
0.126707
0.114437
0.097822
0.0720507
0.0313039
2.17279
1.87074
1.55692
1.258
0.993192
0.771924
0.596851
0.464847
0.369973
0.304428
0.261215
0.233479
0.215551
0.202528
0.190464
0.174333
0.149305
0.109225
0.0467299
1.94517
1.63186
1.33543
1.0747
0.858963
0.688861
0.560934
0.468813
0.405458
0.363259
0.336538
0.319572
0.307746
0.296615
0.282295
0.258811
0.220294
0.159224
0.0669084
1.731
1.41805
1.1528
0.941842
0.781746
0.664862
0.583034
0.528227
0.493358
0.471538
0.458669
0.450019
0.441734
0.429398
0.408796
0.372616
0.313798
0.223603
0.0923284
1.47405
1.18567
0.982515
0.844472
0.753998
0.697514
0.664543
0.647265
0.639748
0.636489
0.635248
0.632318
0.62437
0.606703
0.574477
0.518898
0.431759
0.303489
0.123712
1.03873
0.862788
0.782836
0.757309
0.76125
0.780164
0.80462
0.829145
0.850411
0.865305
0.873815
0.873612
0.86177
0.833237
0.782451
0.699427
0.575142
0.39984
0.16252
0.607347
0.617225
0.691462
0.787452
0.884356
0.97239
1.04646
1.10473
1.14721
1.17347
1.1852
1.18146
1.15921
1.11286
1.03601
0.917927
0.748832
0.51873
0.214189
0.180812
0.435593
0.687047
0.911908
1.10269
1.25732
1.37717
1.46447
1.52311
1.55576
1.56533
1.55271
1.51449
1.44489
1.33681
1.17949
0.962028
0.672836
0.291458
-0.149795
0.364228
0.789336
1.13588
1.41352
1.62762
1.78677
1.89687
1.96594
2.00018
2.00306
1.97812
1.92168
1.82846
1.6911
1.49944
1.23978
0.894852
0.427498
-0.306569
0.414306
0.983438
1.43397
1.78707
2.05183
2.24345
2.37072
2.44593
2.47938
2.47488
2.43983
2.37116
2.26569
2.11655
1.91458
1.63989
1.26106
0.707288
-0.259489
0.565295
1.23182
1.76235
2.17674
2.48236
2.6996
2.83957
2.91904
2.95348
2.94747
2.9143
2.85413
2.76919
2.65522
2.5054
2.28923
1.9484
1.35348
-0.0534953
0.769754
1.48602
2.07151
2.53131
2.86676
3.10192
3.25079
3.33477
3.37664
3.3833
3.37704
3.36811
3.37182
3.39317
3.43649
3.46255
3.37746
2.96462
0.192132
0.962321
1.6997
2.32068
2.80945
3.16183
3.40451
3.55777
3.64631
3.70582
3.74683
3.80629
3.92399
4.15413
4.55768
5.26653
6.46772
8.54883
12.3031
)
;

boundaryField
{
    up
    {
        type            calculated;
        value           nonuniform List<scalar> 
84
(
-12.3031
-2.96463
-1.3535
-0.707295
-0.427496
-0.29145
-0.214179
-0.162512
-0.123709
-0.09233
-0.0669125
-0.0467342
-0.0313069
-0.0201559
-0.0125312
-0.00761067
-0.00460553
-0.00285147
-0.00185505
-0.00127947
-0.000928359
-0.00070206
-0.000595931
-0.000403702
-0.00135519
-0.00168508
-0.00206741
-0.00247691
-0.00299365
-0.00383484
-0.00552779
-0.00910719
-0.0150124
-0.0663496
-0.054859
0.00406828
-0.00217452
-0.0014594
-0.00169589
-0.000808537
-0.00103975
-0.00109754
0.00109781
0.00102418
0.000823843
0.00168766
0.00145456
0.00216258
-0.00397956
0.0540185
0.0671462
0.0151213
0.00913871
0.00553164
0.00383198
0.00299071
0.00247592
0.00206862
0.00168732
0.00136049
0.000402843
0.000596168
0.000702333
0.000928643
0.00127988
0.00185567
0.00285233
0.00460653
0.0076115
0.0125313
0.0201546
0.0313039
0.0467299
0.0669084
0.0923284
0.123712
0.16252
0.214189
0.291458
0.427498
0.707288
1.35348
2.96462
12.3031
)
;
    }
    low
    {
        type            calculated;
        value           nonuniform List<scalar> 
84
(
-0.172197
0.08443
0.307609
0.356729
0.179974
-0.186137
-0.649314
-1.10664
-1.55107
-1.79498
-2.00439
-2.22618
-2.28985
-2.32837
-2.36217
-2.34455
-2.27401
-2.18911
-2.11706
-1.93742
-1.72563
-1.49154
-1.21359
-0.887
-0.58504
-0.192525
0.195423
0.584188
0.936628
1.29702
1.55472
1.77068
1.95179
2.04428
2.07245
2.07882
1.92709
1.65658
1.35031
1.00214
0.625188
0.238762
-0.238652
-0.625079
-1.00202
-1.35021
-1.6565
-1.92705
-2.07877
-2.07271
-2.0441
-1.95185
-1.77072
-1.55477
-1.29708
-0.936692
-0.584269
-0.195496
0.192348
0.585142
0.886863
1.21364
1.49154
1.72563
1.93742
2.11706
2.18911
2.27401
2.34455
2.36216
2.32838
2.28986
2.22617
2.0044
1.795
1.55108
1.10665
0.649324
0.186145
-0.17997
-0.35673
-0.307616
-0.0844356
0.172198
)
;
    }
    left
    {
        type            calculated;
        value           nonuniform List<scalar> 
19
(
-0.17389
-0.934065
-1.69292
-2.34096
-2.85501
-3.22651
-3.48333
-3.64814
-3.74533
-3.81764
-3.87534
-3.95826
-4.11732
-4.42191
-4.94621
-5.8705
-7.45185
-10.23
-10.6665
)
;
    }
    right
    {
        type            calculated;
        value           nonuniform List<scalar> 
19
(
0.173894
0.934066
1.69291
2.34095
2.85499
3.22649
3.48333
3.64814
3.74534
3.81766
3.87536
3.95828
4.11732
4.4219
4.94617
5.87044
7.45181
10.23
10.6665
)
;
    }
    frontAndBackPlanes
    {
        type            empty;
    }
}


// ************************************************************************* //
