/*--------------------------------*- C++ -*----------------------------------*\
  =========                 |
  \\      /  F ield         | OpenFOAM: The Open Source CFD Toolbox
   \\    /   O peration     | Website:  https://openfoam.org
    \\  /    A nd           | Version:  7
     \\/     M anipulation  |
\*---------------------------------------------------------------------------*/
FoamFile
{
    version     2.0;
    format      ascii;
    class       volScalarField;
    location    "0.437";
    object      gradTx;
}
// * * * * * * * * * * * * * * * * * * * * * * * * * * * * * * * * * * * * * //

dimensions      [0 -1 0 1 0 0 0];

internalField   nonuniform List<scalar> 
1596
(
-0.0324282
-0.163443
-0.295145
-0.418179
-0.533158
-0.640718
-0.745637
-0.850862
-0.960033
-1.0805
-1.21359
-1.36812
-1.5552
-1.79232
-2.10115
-2.5389
-3.19546
-4.26571
-6.15235
0.00727535
-0.135799
-0.264644
-0.379368
-0.483652
-0.578707
-0.668735
-0.755099
-0.840402
-0.928134
-1.01781
-1.11366
-1.21636
-1.32752
-1.44338
-1.55832
-1.64639
-1.65586
-1.4778
0.039864
-0.110805
-0.234906
-0.340416
-0.43335
-0.515821
-0.591361
-0.660791
-0.725743
-0.787859
-0.846018
-0.902053
-0.954061
-1.00013
-1.03467
-1.04887
-1.02155
-0.916578
-0.664304
0.0451019
-0.0976987
-0.210952
-0.3049
-0.385766
-0.455999
-0.518321
-0.573364
-0.622094
-0.665189
-0.701635
-0.732013
-0.754225
-0.765864
-0.762421
-0.736707
-0.674736
-0.554318
-0.333504
0.0135209
-0.102378
-0.197059
-0.27642
-0.344411
-0.402868
-0.45346
-0.496642
-0.532901
-0.562355
-0.58436
-0.598836
-0.604156
-0.598276
-0.578139
-0.538587
-0.471068
-0.362462
-0.188223
-0.0521723
-0.126901
-0.196191
-0.257948
-0.312157
-0.359132
-0.399249
-0.432623
-0.459311
-0.479047
-0.491529
-0.496311
-0.492285
-0.477895
-0.451238
-0.408717
-0.34528
-0.253185
-0.11816
-0.139422
-0.169059
-0.209261
-0.251176
-0.290742
-0.326275
-0.356744
-0.381717
-0.400797
-0.413406
-0.419426
-0.418203
-0.40902
-0.39072
-0.362187
-0.320911
-0.263963
-0.186732
-0.0808608
-0.230471
-0.220739
-0.232626
-0.254317
-0.279043
-0.303284
-0.324735
-0.342278
-0.355053
-0.362193
-0.363598
-0.358498
-0.346414
-0.326486
-0.298092
-0.259469
-0.208961
-0.143793
-0.0590425
-0.324132
-0.286562
-0.273395
-0.274973
-0.284136
-0.296309
-0.308274
-0.318218
-0.324818
-0.326912
-0.324263
-0.316023
-0.301804
-0.280932
-0.253066
-0.216956
-0.171675
-0.115539
-0.0455785
-0.379229
-0.331367
-0.303341
-0.29046
-0.287339
-0.289538
-0.293585
-0.297229
-0.298817
-0.296982
-0.291307
-0.280917
-0.265459
-0.244399
-0.217569
-0.184106
-0.143537
-0.0948812
-0.0363435
-0.423149
-0.371073
-0.334276
-0.310894
-0.297656
-0.290973
-0.287652
-0.2853
-0.282092
-0.276519
-0.267981
-0.255579
-0.238947
-0.217638
-0.191572
-0.160156
-0.12319
-0.080143
-0.0299654
-0.467087
-0.414962
-0.373
-0.341676
-0.319654
-0.304509
-0.293692
-0.284962
-0.27649
-0.266708
-0.254858
-0.240011
-0.221758
-0.199684
-0.173747
-0.143526
-0.108982
-0.0698601
-0.0255602
-0.476377
-0.43153
-0.390872
-0.35724
-0.331024
-0.310988
-0.295371
-0.2823
-0.270115
-0.257312
-0.243072
-0.226488
-0.207131
-0.184633
-0.15899
-0.129927
-0.0975181
-0.0617049
-0.0221701
-0.475827
-0.438913
-0.402188
-0.369075
-0.341105
-0.318094
-0.299069
-0.282638
-0.267411
-0.252027
-0.235676
-0.217487
-0.197032
-0.173981
-0.148361
-0.120011
-0.0890955
-0.0556937
-0.0196876
-0.471139
-0.441436
-0.409536
-0.378576
-0.350547
-0.32602
-0.304708
-0.285725
-0.268014
-0.250409
-0.232163
-0.212458
-0.190873
-0.167113
-0.141233
-0.11317
-0.083162
-0.0513982
-0.0178989
-0.455725
-0.433577
-0.407355
-0.380072
-0.353824
-0.329612
-0.307642
-0.287479
-0.268394
-0.249438
-0.229971
-0.209239
-0.186842
-0.162516
-0.136351
-0.108376
-0.0789208
-0.0482802
-0.0165864
-0.429598
-0.414447
-0.39426
-0.371689
-0.348712
-0.326498
-0.305541
-0.285731
-0.266615
-0.247447
-0.227699
-0.206686
-0.184029
-0.159482
-0.133164
-0.105196
-0.0760226
-0.0460826
-0.015639
-0.400134
-0.389418
-0.374469
-0.356706
-0.337652
-0.318407
-0.299574
-0.281245
-0.263164
-0.24475
-0.225569
-0.204986
-0.182625
-0.158228
-0.131906
-0.103841
-0.0746091
-0.0448504
-0.0150404
-0.375538
-0.368506
-0.357733
-0.344049
-0.328523
-0.312095
-0.295402
-0.278669
-0.261802
-0.244356
-0.225975
-0.206057
-0.1842
-0.160083
-0.13373
-0.105294
-0.0754291
-0.0450221
-0.0148999
-0.335465
-0.33301
-0.326756
-0.317731
-0.306747
-0.294525
-0.281599
-0.268197
-0.254279
-0.239464
-0.223428
-0.205578
-0.18547
-0.162694
-0.137121
-0.108751
-0.0781806
-0.0465172
-0.0151722
-0.292288
-0.293522
-0.291379
-0.286762
-0.280314
-0.272575
-0.263943
-0.254595
-0.244477
-0.233216
-0.220473
-0.205632
-0.188195
-0.167652
-0.143664
-0.115912
-0.0846127
-0.0507381
-0.0163471
-0.248154
-0.251954
-0.25336
-0.252854
-0.250852
-0.247715
-0.243707
-0.238929
-0.233283
-0.226362
-0.217759
-0.206808
-0.192948
-0.175601
-0.154257
-0.128213
-0.0969098
-0.0602533
-0.0197843
-0.200028
-0.205356
-0.209768
-0.213211
-0.215781
-0.217616
-0.218834
-0.219425
-0.219221
-0.217736
-0.214425
-0.208524
-0.19938
-0.18641
-0.169105
-0.146614
-0.117616
-0.0800482
-0.0313439
-0.146324
-0.146112
-0.145275
-0.143848
-0.142197
-0.140773
-0.14006
-0.140338
-0.141628
-0.143547
-0.145323
-0.1459
-0.144246
-0.139502
-0.131049
-0.118208
-0.0998285
-0.0731585
-0.0327849
-0.0983578
-0.112282
-0.129946
-0.149942
-0.171211
-0.192834
-0.214158
-0.234549
-0.253384
-0.269879
-0.282932
-0.291448
-0.294468
-0.291658
-0.283168
-0.269359
-0.249953
-0.223186
-0.184098
-0.0341365
-0.042759
-0.0547842
-0.0692614
-0.0854759
-0.102873
-0.121182
-0.140148
-0.15953
-0.178825
-0.196904
-0.212456
-0.223838
-0.230012
-0.230734
-0.227004
-0.219981
-0.21112
-0.200983
0.0305095
0.0197001
0.00465862
-0.0136341
-0.0342727
-0.0565445
-0.080048
-0.104552
-0.129915
-0.155815
-0.181259
-0.204791
-0.224342
-0.238145
-0.245293
-0.246569
-0.24346
-0.237925
-0.231015
0.0958271
0.0817425
0.0626728
0.0398455
0.0143559
-0.0129332
-0.0415256
-0.0712367
-0.102076
-0.133988
-0.166306
-0.197646
-0.225669
-0.247783
-0.262041
-0.26849
-0.268701
-0.265172
-0.25953
0.156115
0.137337
0.113264
0.0854739
0.0552026
0.023408
-0.00940763
-0.0431623
-0.0780835
-0.114479
-0.152184
-0.190219
-0.226312
-0.257207
-0.2796
-0.292123
-0.295803
-0.293669
-0.288371
0.220458
0.196233
0.166762
0.133812
0.0987384
0.0625876
0.0258499
-0.0114863
-0.0498479
-0.089908
-0.132083
-0.176109
-0.220294
-0.261221
-0.294228
-0.315768
-0.325044
-0.324942
-0.319544
0.27163
0.240888
0.20563
0.167753
0.128696
0.0894795
0.0504664
0.0114814
-0.0281093
-0.069316
-0.113131
-0.160229
-0.210087
-0.260128
-0.305156
-0.339283
-0.358113
-0.362225
-0.356267
0.32224
0.285582
0.244635
0.202039
0.159376
0.117587
0.0768904
0.0369765
-0.00289991
-0.043924
-0.0874582
-0.135032
-0.187628
-0.244643
-0.302156
-0.353502
-0.389883
-0.406014
-0.403612
0.372286
0.328045
0.280947
0.233794
0.188024
0.14434
0.102749
0.0628097
0.0237609
-0.0155626
-0.0565422
-0.101083
-0.151335
-0.209151
-0.273924
-0.342101
-0.403704
-0.446325
-0.457206
0.409723
0.353935
0.297334
0.242444
0.19026
0.141074
0.0945796
0.0501944
0.00714918
-0.0355895
-0.0791839
-0.125354
-0.176464
-0.23583
-0.306527
-0.391423
-0.487808
-0.587303
-0.673162
0.438514
0.376338
0.317783
0.264613
0.216943
0.174439
0.136378
0.102067
0.0708058
0.0419199
0.014908
-0.010901
-0.0362963
-0.0626766
-0.0924116
-0.130201
-0.181632
-0.253429
-0.349908
0.46441
0.398734
0.34114
0.291298
0.24811
0.210603
0.177692
0.148572
0.122549
0.0990266
0.0777308
0.0584018
0.0409942
0.0256021
0.0125005
0.00166085
-0.0072955
-0.0162519
-0.0288459
0.451195
0.375712
0.31229
0.258642
0.212793
0.173302
0.138868
0.108568
0.0816755
0.0575872
0.0360509
0.0168368
-9.9838e-05
-0.0146578
-0.0264994
-0.0352734
-0.0403874
-0.0413257
-0.0378432
0.405597
0.334463
0.276139
0.22778
0.187192
0.152794
0.12328
0.0977192
0.0754233
0.0558442
0.0387196
0.0238209
0.0110244
0.000267605
-0.00844682
-0.015215
-0.0201309
-0.0233823
-0.0252095
0.344135
0.28259
0.23251
0.191403
0.157283
0.12867
0.104386
0.0835765
0.065622
0.0500303
0.0365232
0.0248601
0.014848
0.0063324
-0.000801937
-0.00672931
-0.0115988
-0.0155558
-0.0187598
0.263517
0.215093
0.176284
0.144856
0.119082
0.0976891
0.0797056
0.0644254
0.0513454
0.0400651
0.0303358
0.0219472
0.0147116
0.00847805
0.00313276
-0.00145981
-0.00540072
-0.00875909
-0.0116165
0.167956
0.13554
0.110314
0.0902799
0.0740672
0.0607341
0.0496059
0.040201
0.0321836
0.025288
0.0193411
0.0141998
0.00973119
0.00582883
0.00241359
-0.000599251
-0.00326783
-0.00561623
-0.00767405
0.0650669
0.0522915
0.0426667
0.0351185
0.0290255
0.0240001
0.0197816
0.0161887
0.0130967
0.0104077
0.00805595
0.00598771
0.00415209
0.00250786
0.0010229
-0.000336213
-0.00159401
-0.00275993
-0.00384261
-0.0650358
-0.0522262
-0.0425818
-0.0350235
-0.028927
-0.0239025
-0.0196881
-0.0161017
-0.0130177
-0.010338
-0.00799613
-0.00593822
-0.00411319
-0.00247968
-0.00100547
0.000342888
0.00158995
0.00274525
0.00381748
-0.167928
-0.135485
-0.110243
-0.0902012
-0.0739869
-0.0606564
-0.049534
-0.040137
-0.0321291
-0.0252441
-0.0193085
-0.0141788
-0.00972183
-0.00583109
-0.00242724
0.000574484
0.0032323
0.00557045
0.00761865
-0.263491
-0.215043
-0.176218
-0.144781
-0.119002
-0.0976088
-0.0796282
-0.064353
-0.0512797
-0.0400073
-0.0302866
-0.0219068
-0.0146799
-0.00845431
-0.00311612
0.00147055
0.00540691
0.00876215
0.0116177
-0.344118
-0.282561
-0.232473
-0.191362
-0.157241
-0.12863
-0.104351
-0.0835486
-0.065603
-0.0500215
-0.0365254
-0.0248734
-0.0148719
-0.00636604
0.000760284
0.00668168
0.0115475
0.015503
0.0187074
-0.405591
-0.334452
-0.276123
-0.227761
-0.187172
-0.152775
-0.123264
-0.0977101
-0.0754225
-0.0558535
-0.0387403
-0.0238539
-0.0110694
-0.000323617
0.0083822
0.0151454
0.0200611
0.0233177
0.0251561
-0.451204
-0.375722
-0.312297
-0.258647
-0.212797
-0.173307
-0.138878
-0.108585
-0.0817029
-0.0576286
-0.0361092
-0.016915
-4.84126e-07
0.0145341
0.0263537
0.0351116
0.0402226
0.0411787
0.0377383
-0.464421
-0.398714
-0.341072
-0.291172
-0.247923
-0.210352
-0.177379
-0.148198
-0.122115
-0.098534
-0.0771812
-0.0577961
-0.0403323
-0.0248839
-0.0117308
-0.000860235
0.00807201
0.0168845
0.0291324
-0.438607
-0.376578
-0.318177
-0.265166
-0.217655
-0.175313
-0.137414
-0.103269
-0.0721784
-0.0434708
-0.0166502
0.00894598
0.0340922
0.0601619
0.0894924
0.126742
0.177491
0.248522
0.344308
-0.409699
-0.35386
-0.297191
-0.242226
-0.189962
-0.140696
-0.094122
-0.0496608
-0.00654458
0.036258
0.0799062
0.126116
0.177248
0.236618
0.307315
0.392256
0.488813
0.588713
0.675299
-0.372321
-0.328124
-0.281063
-0.23394
-0.188194
-0.144531
-0.102958
-0.0630354
-0.0240043
0.0152981
0.0562509
0.100757
0.150971
0.20876
0.273542
0.341806
0.403589
0.44645
0.457495
-0.322263
-0.285632
-0.244708
-0.202131
-0.159482
-0.117704
-0.0770173
-0.0371136
0.00275079
0.0437599
0.0872759
0.134832
0.187417
0.244448
0.302022
0.353479
0.390001
0.406254
0.403916
-0.271652
-0.240936
-0.2057
-0.167842
-0.1288
-0.0895945
-0.050591
-0.0116147
0.0279671
0.0691648
0.112973
0.160069
0.209943
0.260026
0.305128
0.339349
0.358267
0.362434
0.356493
-0.220477
-0.196277
-0.166829
-0.133899
-0.0988402
-0.0627015
-0.0259732
0.0113558
0.0497119
0.089769
0.131946
0.175986
0.2202
0.261178
0.294252
0.315861
0.32519
0.325117
0.319733
-0.156131
-0.137377
-0.113325
-0.0855527
-0.0552961
-0.0235127
0.00929517
0.0430449
0.0779645
0.114363
0.152078
0.190133
0.226262
0.257206
0.279652
0.292225
0.295939
0.293827
0.288543
-0.0958435
-0.0817814
-0.062733
-0.0399242
-0.0144495
0.0128286
0.0414142
0.0711223
0.101963
0.133883
0.166216
0.197583
0.225642
0.2478
0.262103
0.268591
0.268831
0.265323
0.2597
-0.0305227
-0.0197352
-0.00471449
0.0135601
0.0341844
0.0564461
0.0799439
0.104447
0.129815
0.155726
0.181189
0.204749
0.224336
0.238178
0.245365
0.246674
0.243594
0.238084
0.2312
0.0341083
0.0426724
0.0546331
0.0690439
0.0851944
0.102534
0.120794
0.139722
0.159079
0.178367
0.196454
0.212032
0.223452
0.229674
0.230448
0.226777
0.219826
0.211067
0.201093
0.0983794
0.112362
0.130105
0.150193
0.171562
0.193288
0.214713
0.235197
0.254113
0.270678
0.283784
0.292339
0.295382
0.292583
0.284094
0.270279
0.25086
0.22407
0.18494
0.146305
0.14604
0.145144
0.143659
0.141954
0.140485
0.139738
0.139992
0.141272
0.143192
0.14498
0.145576
0.143949
0.139237
0.130817
0.118013
0.0996722
0.0730465
0.0327327
0.200043
0.205385
0.209812
0.213269
0.21585
0.217693
0.218915
0.219507
0.2193
0.21781
0.21449
0.208579
0.199426
0.186445
0.16913
0.146627
0.117619
0.0800435
0.0313382
0.24816
0.251961
0.253369
0.252866
0.250866
0.24773
0.243723
0.238945
0.233298
0.226375
0.21777
0.206817
0.192955
0.175605
0.154258
0.12821
0.096905
0.060248
0.0197819
0.292293
0.29353
0.291388
0.286773
0.280327
0.272589
0.263957
0.254608
0.244489
0.233227
0.220482
0.205639
0.1882
0.167655
0.143664
0.11591
0.0846099
0.0507356
0.0163463
0.33547
0.333017
0.326765
0.317741
0.306759
0.294537
0.28161
0.268208
0.254289
0.239473
0.223435
0.205583
0.185473
0.162696
0.137121
0.10875
0.078179
0.046516
0.0151718
0.375543
0.368514
0.357742
0.344059
0.328533
0.312106
0.295412
0.278679
0.261811
0.244363
0.225981
0.206061
0.184202
0.160084
0.13373
0.105293
0.0754283
0.0450215
0.0148998
0.400139
0.389424
0.374477
0.356714
0.337661
0.318415
0.299583
0.281252
0.263171
0.244756
0.225574
0.204989
0.182627
0.158229
0.131906
0.103841
0.0746087
0.0448501
0.0150403
0.429601
0.414452
0.394266
0.371695
0.348718
0.326505
0.305547
0.285737
0.26662
0.247451
0.227702
0.206688
0.18403
0.159483
0.133164
0.105196
0.0760225
0.0460825
0.015639
0.455728
0.433581
0.407361
0.380078
0.35383
0.329618
0.307648
0.287485
0.268399
0.249442
0.229974
0.209241
0.186844
0.162517
0.136352
0.108377
0.0789212
0.0482804
0.0165865
0.47114
0.441439
0.40954
0.37858
0.350551
0.326025
0.304712
0.285729
0.268018
0.250411
0.232165
0.212459
0.190875
0.167114
0.141234
0.11317
0.0831625
0.0513985
0.017899
0.475829
0.438916
0.402191
0.369078
0.341108
0.318098
0.299073
0.28264
0.267413
0.252029
0.235678
0.217489
0.197033
0.173982
0.148361
0.120012
0.0890962
0.0556942
0.0196878
0.47638
0.431533
0.390875
0.357243
0.331028
0.310991
0.295374
0.282302
0.270117
0.257314
0.243074
0.22649
0.207133
0.184635
0.158992
0.129928
0.097519
0.0617056
0.0221704
0.467087
0.414962
0.373001
0.341676
0.319654
0.304509
0.293692
0.284963
0.276491
0.266708
0.254858
0.240011
0.221758
0.199684
0.173747
0.143527
0.108982
0.0698605
0.0255604
0.423152
0.371076
0.334278
0.310896
0.297658
0.290975
0.287653
0.285301
0.282093
0.27652
0.267982
0.255579
0.238948
0.217638
0.191573
0.160157
0.12319
0.0801435
0.0299656
0.379234
0.331371
0.303343
0.290462
0.28734
0.289539
0.293586
0.297229
0.298818
0.296982
0.291308
0.280918
0.265459
0.244399
0.217569
0.184107
0.143538
0.0948816
0.0363437
0.324136
0.286565
0.273397
0.274975
0.284137
0.296309
0.308274
0.318218
0.324818
0.326912
0.324263
0.316023
0.301804
0.280932
0.253066
0.216956
0.171675
0.115539
0.0455787
0.230475
0.220742
0.232628
0.254318
0.279043
0.303283
0.324735
0.342278
0.355053
0.362193
0.363597
0.358498
0.346414
0.326486
0.298091
0.259469
0.208961
0.143793
0.0590426
0.139425
0.169061
0.209262
0.251177
0.290743
0.326274
0.356744
0.381716
0.400797
0.413406
0.419425
0.418202
0.409019
0.39072
0.362187
0.32091
0.263963
0.186731
0.0808607
0.0521744
0.126903
0.196192
0.257948
0.312157
0.359132
0.399248
0.432623
0.45931
0.479046
0.491528
0.49631
0.492284
0.477894
0.451237
0.408716
0.345279
0.253185
0.11816
-0.0135194
0.102379
0.19706
0.27642
0.344411
0.402868
0.453459
0.496641
0.5329
0.562354
0.584359
0.598835
0.604154
0.598275
0.578138
0.538586
0.471068
0.362462
0.188223
-0.0451012
0.0976992
0.210952
0.3049
0.385765
0.455998
0.518321
0.573363
0.622093
0.665188
0.701634
0.732012
0.754224
0.765863
0.76242
0.736706
0.674736
0.554318
0.333503
-0.0398638
0.110805
0.234906
0.340416
0.43335
0.51582
0.59136
0.660791
0.725742
0.787858
0.846017
0.902052
0.954059
1.00013
1.03467
1.04887
1.02155
0.916577
0.664304
-0.00727529
0.135798
0.264643
0.379367
0.483651
0.578707
0.668735
0.755099
0.840401
0.928133
1.01781
1.11366
1.21636
1.32752
1.44337
1.55831
1.64639
1.65586
1.4778
0.0324279
0.163442
0.295144
0.418178
0.533157
0.640717
0.745637
0.850862
0.960033
1.0805
1.21359
1.36812
1.5552
1.79232
2.10115
2.5389
3.19546
4.2657
6.15235
)
;

boundaryField
{
    up
    {
        type            calculated;
        value           nonuniform List<scalar> 
84
(
-6.15235
-1.4778
-0.664304
-0.333504
-0.188223
-0.11816
-0.0808608
-0.0590425
-0.0455785
-0.0363435
-0.0299654
-0.0255602
-0.0221701
-0.0196876
-0.0178989
-0.0165864
-0.015639
-0.0150404
-0.0148999
-0.0151722
-0.0163471
-0.0197843
-0.0313439
-0.0327849
-0.159048
-0.190634
-0.221943
-0.250626
-0.279087
-0.309304
-0.343786
-0.384696
-0.427969
-0.675683
-0.364919
-0.0296614
-0.0378955
-0.0252159
-0.0187604
-0.0116181
-0.00767564
-0.00384479
0.00381965
0.00762026
0.0116194
0.018708
0.0251624
0.03779
0.0299382
0.359108
0.67826
0.428214
0.384959
0.344
0.309489
0.279259
0.2508
0.222135
0.190822
0.159825
0.0327327
0.0313382
0.0197819
0.0163463
0.0151718
0.0148998
0.0150403
0.015639
0.0165865
0.017899
0.0196878
0.0221704
0.0255604
0.0299656
0.0363437
0.0455787
0.0590426
0.0808607
0.11816
0.188223
0.333503
0.664304
1.4778
6.15235
)
;
    }
    low
    {
        type            calculated;
        value           nonuniform List<scalar> 
84
(
-0.0293305
0.0118017
0.047276
0.0532591
0.018696
-0.0531356
-0.147372
-0.243796
-0.339337
-0.391263
-0.433171
-0.47434
-0.477903
-0.473755
-0.466764
-0.448291
-0.41973
-0.389781
-0.363872
-0.321422
-0.277386
-0.233484
-0.186134
-0.134399
-0.0892235
-0.0308638
0.0267594
0.0863077
0.143464
0.207082
0.259723
0.311609
0.363982
0.40494
0.436791
0.466586
0.457917
0.413793
0.352023
0.270151
0.172514
0.067015
-0.0669837
-0.172485
-0.270122
-0.352002
-0.413781
-0.457918
-0.466589
-0.436869
-0.404917
-0.364011
-0.31163
-0.259743
-0.207101
-0.143481
-0.0863246
-0.0267729
0.0308363
0.0892447
0.134382
0.186148
0.23349
0.277392
0.321427
0.363878
0.389785
0.419733
0.448294
0.466765
0.473757
0.477906
0.47434
0.433174
0.391268
0.339342
0.2438
0.147376
0.0531379
-0.0186945
-0.0532583
-0.0472756
-0.0118014
0.0293304
)
;
    }
    left
    {
        type            calculated;
        value           nonuniform List<scalar> 
19
(
-0.028701
-0.156692
-0.290889
-0.417973
-0.537724
-0.650189
-0.760618
-0.872491
-0.989478
-1.12111
-1.26853
-1.44199
-1.65646
-1.93598
-2.30817
-2.85398
-3.6982
-5.11295
-5.33651
)
;
    }
    right
    {
        type            calculated;
        value           nonuniform List<scalar> 
19
(
0.0287005
0.156691
0.290888
0.417971
0.537723
0.650188
0.760617
0.872491
0.989478
1.12111
1.26853
1.44199
1.65646
1.93598
2.30817
2.85398
3.6982
5.11295
5.33651
)
;
    }
    frontAndBackPlanes
    {
        type            empty;
    }
}


// ************************************************************************* //
