/*--------------------------------*- C++ -*----------------------------------*\
  =========                 |
  \\      /  F ield         | OpenFOAM: The Open Source CFD Toolbox
   \\    /   O peration     | Website:  https://openfoam.org
    \\  /    A nd           | Version:  7
     \\/     M anipulation  |
\*---------------------------------------------------------------------------*/
FoamFile
{
    version     2.0;
    format      ascii;
    class       volScalarField;
    location    "0.06";
    object      gradTz;
}
// * * * * * * * * * * * * * * * * * * * * * * * * * * * * * * * * * * * * * //

dimensions      [0 -1 0 1 0 0 0];

internalField   nonuniform List<scalar> 
1596
(
-6.45143e-16
-3.01419e-16
3.19718e-16
1.9019e-17
-5.76325e-16
0
-2.50564e-16
-2.47593e-16
-3.32343e-17
-1.39152e-16
-3.26503e-19
-1.40973e-16
6.45271e-16
-1.42819e-16
6.58225e-16
5.74576e-16
3.43645e-16
4.40362e-16
0
6.30679e-16
0
8.06714e-16
-1.36792e-17
-2.17081e-16
2.13751e-16
4.85077e-16
3.22031e-17
2.21959e-16
-1.09909e-16
2.21507e-16
-8.3185e-19
-3.0899e-16
-1.96693e-16
-5.30074e-16
-5.24209e-16
-4.81926e-16
2.78567e-16
0
-2.91044e-16
0
-4.8864e-16
2.10372e-17
3.86458e-16
-1.37726e-16
2.32871e-17
-2.19705e-18
-1.32817e-18
-8.12465e-19
5.94927e-17
0
1.59863e-16
4.37918e-16
-4.40016e-17
3.85763e-17
8.87229e-17
1.5159e-16
0
4.81353e-16
-1.19685e-16
1.19248e-16
0
-1.05677e-16
-1.1558e-16
1.58508e-16
-1.10614e-16
0
0
-7.54945e-17
3.13853e-17
0
-1.21868e-16
-1.40493e-16
1.04047e-16
-1.27979e-16
-6.4281e-18
0
8.67995e-17
1.91468e-16
-1.40663e-16
0
-3.19227e-17
-1.02387e-16
0
1.37338e-16
-1.2222e-17
-1.12279e-17
-3.45508e-17
6.25059e-17
8.59182e-17
1.11944e-17
2.33887e-17
-1.12263e-16
5.41511e-18
5.3299e-17
-2.54557e-17
-2.25404e-17
-2.57954e-16
2.10267e-16
-1.51621e-16
-8.80101e-19
-9.46396e-17
2.39976e-18
-2.40773e-18
-5.58424e-17
0
-2.52166e-17
-7.58034e-17
-7.68339e-17
5.22763e-17
7.8246e-17
-9.89707e-19
-4.69122e-17
-5.40605e-17
4.33498e-17
1.88375e-16
-2.62891e-16
2.44403e-16
1.123e-16
0
7.50091e-17
3.49135e-17
-1.55177e-17
6.89786e-17
-1.14463e-17
-5.67218e-17
1.12781e-19
-2.80277e-17
-5.23635e-17
-3.40698e-17
3.3514e-17
4.73251e-17
-6.73837e-19
-1.69057e-17
3.93524e-17
4.2979e-16
-4.17603e-16
0
0
-8.1006e-17
0
0
0
2.70583e-17
0
0
2.71454e-17
9.69364e-20
1.63357e-17
-3.02789e-17
0
1.60914e-17
7.82243e-18
0
-2.56162e-16
4.70219e-16
0
0
8.34248e-17
0
-1.78523e-17
1.78342e-17
-2.75414e-17
9.27749e-18
-9.34535e-18
0
1.31165e-17
2.14418e-17
0
-1.20977e-17
-1.63804e-17
-7.05647e-18
7.62517e-16
-3.36901e-16
0
-1.43622e-16
1.42015e-16
0
5.65966e-17
0
0
0
6.553e-18
-6.58441e-18
0
-1.0557e-17
-2.46496e-18
0
4.82175e-18
5.78099e-18
0
-1.93942e-16
0
0
1.47643e-16
-2.49186e-16
3.18529e-17
1.34247e-17
-1.55049e-17
5.17576e-18
1.35351e-18
-6.93704e-18
-7.57815e-18
0
4.93454e-18
-1.35984e-18
1.38025e-18
6.26732e-18
-4.83603e-18
-1.83904e-18
1.21954e-16
-3.58462e-17
1.20179e-16
3.30017e-16
-4.32085e-17
-1.05251e-16
0
0
0
1.56504e-17
4.08373e-18
1.23567e-17
-2.84851e-18
-4.84627e-18
-1.9037e-18
-1.49843e-18
7.24816e-19
-1.84346e-18
1.68786e-18
-1.59872e-16
1.59105e-16
-2.71182e-16
-3.28032e-16
2.75954e-16
7.23137e-17
-1.18511e-16
7.67058e-17
-4.83776e-17
1.27526e-17
5.70087e-18
-3.69551e-18
1.03641e-18
-1.13315e-18
3.75258e-18
0
-3.26799e-19
2.92005e-18
-4.6185e-19
-1.15777e-15
4.95049e-16
1.16833e-19
-6.31374e-17
2.3869e-17
7.09889e-17
-1.25784e-16
-3.5573e-17
2.19404e-17
-1.31337e-17
-7.77023e-18
0
-4.73754e-18
-1.19208e-18
-1.41248e-18
-7.48701e-19
5.08725e-20
-1.17262e-18
2.08875e-19
1.88991e-16
-1.49788e-16
-4.56735e-19
-8.49322e-17
-1.61809e-16
1.41408e-16
8.94503e-19
3.46659e-17
-2.13618e-17
2.50277e-17
4.65868e-18
2.87931e-18
4.95495e-18
0
2.29157e-18
9.31251e-19
0
4.56421e-19
1.06029e-19
0
1.45312e-16
8.26365e-17
-1.9e-16
1.55409e-16
-2.00936e-16
1.16237e-16
2.61108e-17
-1.01239e-17
-2.73585e-17
2.60392e-18
-2.59107e-18
-4.22118e-18
1.09883e-18
-5.13085e-19
-7.88482e-19
2.31272e-19
-1.44234e-19
1.14115e-19
-1.75063e-16
4.91827e-16
-3.76215e-16
1.51945e-16
0
0
-1.56509e-17
3.82416e-17
-1.41913e-17
2.39656e-17
0
0
2.59767e-18
-1.74725e-18
-6.98269e-19
2.10601e-19
-1.87262e-19
1.02769e-19
0
3.28654e-17
1.64163e-16
-9.98843e-17
-7.48573e-17
-8.41566e-17
-5.18031e-18
3.24455e-17
0
-1.25528e-17
-5.80385e-18
4.80195e-18
-2.59857e-18
1.37996e-18
0
3.09759e-19
3.63765e-19
0
0
0
-3.24617e-17
1.90048e-16
3.86785e-17
-2.28511e-16
4.53724e-17
3.16018e-17
0
0
1.09329e-17
-6.14248e-18
-4.64453e-18
2.51329e-18
-1.33452e-18
0
-1.23909e-19
7.97776e-20
0
-3.87621e-20
-1.32886e-20
-1.20782e-16
3.56952e-16
-3.7933e-16
-1.05183e-16
6.02632e-17
-2.64886e-17
1.63341e-17
0
-5.53437e-18
3.53906e-18
0
0
3.63472e-19
-3.63891e-19
4.64529e-20
-8.23704e-20
5.46438e-20
1.36368e-20
1.02447e-20
7.1622e-17
-5.51968e-17
2.21215e-16
-1.37192e-16
-3.68419e-17
9.28018e-18
3.71894e-17
8.13197e-18
5.29556e-18
0
1.07487e-18
-9.67259e-19
4.9852e-19
-2.76701e-19
1.58106e-19
-1.98692e-19
-4.00311e-20
2.95533e-20
5.67613e-21
1.72985e-16
-1.84802e-16
0
8.63451e-17
-5.02908e-17
-2.21668e-17
6.51261e-18
-2.75353e-17
0
-3.09013e-19
-1.60503e-18
-6.3059e-19
5.18265e-19
-8.87534e-20
-1.52807e-19
7.43744e-20
0
1.13817e-20
-5.51147e-21
3.44441e-16
-4.86486e-17
1.52753e-16
-1.16923e-16
3.41621e-17
-1.05254e-17
-2.9e-17
-4.55752e-18
6.94437e-18
-5.56214e-19
-1.3372e-18
9.11378e-19
-2.99235e-19
-1.88277e-19
0
0
0
-1.1423e-20
3.59169e-22
-2.72941e-16
2.56886e-16
-1.53589e-19
2.18848e-17
1.40728e-17
-2.10778e-17
1.95101e-17
-1.06008e-17
6.08972e-18
-9.16738e-19
1.6175e-18
2.69585e-19
-7.68891e-20
5.07913e-21
-4.04563e-21
-1.19694e-20
0
0
0
0
0
7.82507e-17
-6.19922e-17
-8.958e-17
0
0
-2.73664e-18
-2.81643e-18
1.42879e-18
0
-3.39996e-19
1.62421e-19
-2.88447e-19
2.96694e-19
-4.79939e-20
5.10531e-20
3.76063e-21
0
-5.23328e-17
5.29769e-17
0
-2.39967e-17
2.18135e-17
2.45599e-17
0
2.76278e-18
1.27181e-18
-7.59644e-18
0
-3.80634e-19
1.81443e-19
7.85274e-20
-3.788e-20
3.83951e-20
0
-8.48531e-21
0
-2.70424e-17
-2.24493e-17
1.3263e-18
2.4656e-17
-4.88834e-17
0
-6.21168e-18
0
6.98588e-18
1.64557e-18
0
1.46003e-18
-1.10112e-18
1.64323e-19
-3.58903e-20
5.40504e-20
6.77494e-20
1.70743e-20
-1.34987e-20
0
5.14393e-17
-3.30587e-17
3.92601e-17
3.11044e-17
0
1.19143e-17
-9.72339e-18
-3.93408e-18
3.25267e-18
-4.63756e-18
-1.12235e-18
0
0
5.18836e-20
0
0
6.02518e-21
0
-2.50039e-16
1.96369e-16
0
5.72909e-18
-1.60651e-17
-6.82946e-19
9.6761e-18
2.97287e-18
-5.86748e-18
-6.49992e-18
5.92378e-18
-1.67931e-18
0
-2.27993e-19
0
0
0
-2.29984e-20
1.82855e-20
-7.59048e-17
6.15021e-17
1.30378e-16
-1.17571e-16
2.87936e-17
3.39518e-18
-9.73752e-18
5.82247e-18
6.67879e-18
3.15001e-18
-5.95156e-18
0
8.85442e-19
-2.56858e-19
-2.5918e-19
-2.52946e-19
1.80833e-19
-9.49308e-21
2.40498e-20
-2.75722e-16
3.06007e-16
-2.92774e-16
4.02971e-17
2.55755e-17
-2.14852e-17
1.49498e-17
-7.59687e-18
0
-3.40366e-18
2.91753e-18
1.17363e-18
1.32853e-18
7.81692e-19
-1.04768e-18
-8.95068e-20
0
-1.33364e-20
3.76395e-21
-2.97711e-16
-7.29601e-17
-1.02073e-16
5.97604e-17
-6.54998e-17
4.37899e-17
-2.29627e-17
1.29802e-17
-2.16564e-18
-1.83656e-18
-3.99457e-18
2.87438e-18
-3.09194e-19
1.49137e-18
-1.601e-18
-3.65942e-21
9.85459e-20
0
-8.44985e-21
3.21891e-16
-8.05544e-17
0
0
-6.76449e-17
1.21472e-16
-2.3901e-17
-2.7958e-18
1.85129e-17
-7.87277e-19
0
0
-1.25178e-18
0
-1.67013e-18
3.32671e-18
-2.08017e-18
0
4.84525e-21
1.03755e-16
1.74227e-16
0
-5.75892e-17
-3.36676e-17
-1.98523e-17
-2.54987e-17
7.29452e-18
-1.76534e-17
-6.35537e-18
0
0
3.10362e-18
0
0
-2.81509e-18
4.89527e-18
0
0
7.14009e-16
-1.14377e-16
-3.69203e-16
-1.52625e-16
2.10978e-16
5.16548e-17
2.47242e-17
0
-5.79127e-18
4.24246e-18
1.01433e-17
-2.90815e-18
-2.72345e-18
3.67713e-18
-3.91134e-18
-7.82533e-19
0
0
0
5.71473e-17
-3.93783e-16
3.81361e-16
-3.09121e-17
-1.94549e-16
2.81349e-16
-1.292e-16
0
0
3.39273e-17
-2.57072e-17
0
-4.42799e-18
8.1745e-18
-5.40563e-19
1.8695e-18
4.92183e-19
1.06004e-20
9.0045e-20
0
0
0
2.58764e-16
-1.76174e-16
1.35906e-16
-2.01883e-16
5.13741e-17
0
-1.18548e-17
1.47494e-17
-1.50748e-17
-2.1433e-18
2.02445e-19
-1.09927e-18
-1.01295e-19
-8.30019e-19
-2.42944e-19
-1.23397e-19
4.62135e-16
-7.87515e-16
3.55337e-16
0
6.56498e-17
-9.12872e-17
6.89506e-17
-5.40578e-17
0
-1.59379e-17
2.26899e-17
0
0
1.95929e-19
0
-1.33884e-18
8.83472e-19
9.61834e-20
2.05469e-19
4.85366e-16
0
-1.47491e-16
1.6381e-16
-8.04277e-17
1.66932e-16
-7.32535e-17
-4.26385e-17
4.30838e-17
-3.52273e-18
0
0
1.49589e-18
-2.06797e-18
-1.34703e-18
2.46273e-18
-5.19396e-19
2.32027e-19
0
2.74362e-16
1.82851e-16
-2.24011e-17
-1.5756e-16
-1.33278e-17
-8.02507e-17
1.73306e-17
5.84051e-17
-2.43779e-18
3.58888e-18
0
0
-1.53244e-18
0
1.50215e-18
-1.60694e-18
0
1.90231e-19
-5.11274e-20
-1.45364e-16
-9.1975e-17
8.64112e-17
-8.43624e-18
-3.3858e-18
8.03447e-18
0
-1.62652e-18
1.98623e-17
-1.66902e-17
0
3.79129e-18
-1.06944e-18
-3.00634e-18
-2.44348e-19
-1.80036e-19
0
-1.50147e-19
0
5.54168e-17
-1.01306e-16
2.83721e-18
3.77668e-17
2.77392e-17
-2.71816e-17
-1.4946e-17
1.67795e-17
-4.39802e-18
3.52479e-18
-2.56013e-18
2.63909e-18
0
5.11968e-21
-1.76021e-19
6.32248e-19
-2.05065e-21
0
0
5.54189e-17
-5.52112e-17
-3.75616e-17
3.35289e-17
4.86799e-17
-4.89673e-17
-7.47351e-18
7.49525e-18
-4.43784e-18
4.48321e-18
-2.56038e-18
4.58545e-18
-1.284e-18
-7.80303e-19
-2.05731e-19
7.53829e-20
1.55705e-19
3.9558e-20
-2.95154e-20
0
-1.25846e-17
6.48526e-17
-7.10479e-17
4.83974e-17
-4.33081e-17
0
2.27776e-17
-2.06049e-17
0
5.00786e-18
-6.23886e-18
-2.86945e-18
3.00736e-18
4.70951e-19
0
0
-1.50239e-19
5.39435e-20
2.20201e-16
-3.89497e-16
3.62164e-16
-2.86392e-16
1.07068e-16
-6.97612e-17
6.71215e-17
6.26604e-18
-1.92921e-17
1.70746e-17
0
-8.17774e-18
7.47013e-18
-1.15115e-18
-4.61297e-19
6.31266e-19
4.42784e-19
1.45853e-19
-5.21217e-20
5.4484e-16
0
-1.67918e-16
1.30933e-16
1.31759e-17
-8.345e-17
1.37443e-16
-1.0533e-16
3.85641e-17
-1.19767e-17
1.22592e-17
1.99416e-18
2.79123e-18
1.12123e-18
-7.69199e-19
-1.38868e-19
-9.46977e-19
0
8.16332e-20
4.03464e-16
-4.54273e-16
0
3.2464e-17
1.16719e-16
-1.11185e-16
1.51772e-17
1.14474e-17
4.44041e-18
6.28197e-18
0
0
-4.64353e-18
7.80884e-18
-2.66708e-18
-8.07899e-19
8.84515e-19
6.49876e-20
-1.50679e-19
7.60477e-17
4.0047e-16
-3.95473e-17
-2.2721e-16
2.0109e-16
1.94737e-17
-1.48537e-17
-1.11807e-17
2.80217e-17
-3.43518e-17
1.47635e-17
-1.5089e-17
1.44242e-18
-2.4417e-18
3.05616e-18
-2.07044e-18
0
0
1.02911e-19
0
9.5003e-17
-2.40253e-16
2.77156e-16
-1.70479e-16
1.70073e-16
0
3.54341e-17
-3.55965e-17
-1.83026e-17
2.57464e-17
0
6.49403e-18
-8.18871e-18
-1.04848e-18
0
-8.32406e-20
-1.15972e-19
-2.9406e-20
-9.88675e-16
4.47451e-16
0
-2.11003e-16
2.10982e-16
9.48068e-17
-6.13129e-17
1.77577e-17
0
-5.06969e-19
1.98176e-18
-2.90801e-18
-2.72433e-18
3.67825e-18
-3.9112e-18
0
4.76718e-19
-1.54069e-20
-7.51146e-20
5.87383e-16
-5.58247e-16
0
5.54696e-17
4.23899e-17
-3.43035e-17
0
-1.86103e-17
-1.10826e-17
0
-1.54087e-18
0
3.11008e-18
0
0
5.42755e-19
1.78108e-18
-2.45508e-18
0
-1.93685e-19
8.06008e-17
-6.37682e-17
3.62987e-17
-1.93318e-16
6.62788e-17
0
2.80054e-18
7.31441e-18
0
-4.56707e-18
7.7574e-18
-8.1496e-18
7.48934e-19
0
-2.46177e-19
0
0
0
-1.50829e-19
0
5.89378e-17
0
-5.55452e-17
5.64282e-17
0
9.66762e-18
-5.40178e-18
1.58746e-17
-6.87286e-18
1.28075e-18
-1.45424e-18
8.19537e-19
-1.60871e-18
-2.09575e-19
0
-2.89098e-20
0
2.15209e-16
-3.6709e-16
0
-3.86609e-17
2.73701e-17
0
0
-1.64184e-17
0
-3.41098e-18
-2.92495e-18
-1.17712e-18
1.33331e-18
0
2.13629e-19
0
0
4.85144e-20
-4.09535e-20
0
2.79812e-16
-2.19973e-16
3.57912e-17
-2.53449e-17
-6.62527e-18
1.64817e-17
1.2765e-17
-9.54276e-18
2.92027e-18
7.34471e-19
-7.48652e-19
2.73222e-18
-7.52765e-19
-8.48978e-19
2.10305e-19
-2.13683e-20
1.20236e-20
-2.05711e-21
-5.53188e-16
1.96846e-16
0
0
8.62425e-18
-8.76989e-18
2.21625e-18
-3.859e-19
7.33687e-18
2.21797e-18
-1.83517e-18
-2.64637e-19
-3.27788e-19
2.28957e-19
0
3.23466e-20
1.95856e-20
6.48931e-21
1.85934e-21
0
1.48412e-16
-1.17258e-16
3.35634e-17
2.16205e-17
-3.78916e-18
-7.37376e-18
-4.2583e-18
-8.64424e-18
2.02372e-18
-3.43652e-19
1.04604e-18
3.06522e-19
-1.71958e-19
1.82523e-19
4.43338e-20
-6.86626e-20
-5.99384e-21
0
-3.33797e-17
-1.22668e-16
3.50738e-17
2.46676e-17
-5.92245e-17
3.65797e-17
9.04298e-18
-9.24332e-18
3.73719e-18
-1.92061e-18
0
0
-2.86182e-19
4.35062e-19
-1.43299e-19
6.2758e-20
-6.87143e-20
7.53971e-21
-1.34661e-20
5.88586e-17
4.67839e-17
-3.38433e-17
1.44258e-17
-2.34756e-17
-1.84401e-17
0
0
0
0
0
0
1.64879e-19
-2.35759e-19
2.49341e-19
-3.70129e-20
4.95793e-20
1.4929e-20
-1.23488e-20
1.29225e-16
-1.58043e-16
1.93512e-16
-5.11262e-17
7.48135e-17
-2.66481e-17
4.22261e-17
-1.7915e-17
-4.0786e-18
4.17222e-18
0
3.39727e-19
-1.61078e-19
2.11837e-19
-1.21937e-19
-7.63895e-20
-8.11953e-20
8.07991e-21
9.90153e-21
2.05021e-16
4.60195e-17
0
-4.4067e-17
-2.17454e-17
4.22673e-17
-7.72832e-19
-8.20815e-18
3.65519e-18
-1.40695e-18
0
-2.68932e-19
0
-9.68155e-20
5.71752e-20
-3.25076e-20
-8.67766e-21
3.4773e-21
0
2.80846e-16
-4.86476e-17
1.53361e-16
-1.1777e-16
-1.56769e-17
3.88969e-17
-2.26553e-17
1.87779e-18
1.03371e-18
-1.6026e-18
1.22871e-18
0
0
1.54535e-19
-1.80111e-20
6.45089e-21
3.03494e-20
-9.30986e-21
0
-4.73365e-20
0
-3.73679e-17
1.64908e-16
-1.03923e-16
-6.6264e-17
3.50873e-17
-1.79616e-17
1.48194e-17
4.26297e-18
-2.05797e-18
6.05806e-19
-4.13114e-19
9.87576e-20
2.51796e-19
-1.09247e-20
-3.63591e-20
2.90051e-20
-6.08174e-21
6.43861e-16
-1.96087e-16
5.68037e-17
-1.9305e-16
3.68419e-17
-4.11565e-17
2.47164e-17
0
0
-3.99987e-19
-7.5759e-19
-1.6334e-19
0
-3.22433e-19
-1.58095e-19
7.68429e-20
-4.01707e-21
1.19567e-20
1.40881e-20
0
-1.77875e-16
2.3781e-16
1.98148e-17
-1.46837e-16
2.64886e-17
-2.74866e-17
1.09562e-17
1.60743e-17
0
0
1.41995e-19
7.08827e-19
0
-2.36601e-19
-7.00272e-20
1.20175e-20
-1.44705e-20
-2.15254e-20
0
-9.65974e-17
5.44528e-17
1.62026e-16
7.54849e-17
-1.26968e-16
4.97132e-17
-1.88774e-17
1.13487e-17
-8.3554e-18
0
0
0
-7.00177e-19
4.88368e-20
-1.24523e-19
0
-3.77144e-21
1.71278e-20
-4.69266e-16
4.27046e-16
3.44604e-16
-4.09727e-16
1.33264e-16
-1.17392e-16
0
2.13558e-17
-2.6101e-17
1.14721e-17
-5.40467e-18
2.97395e-18
1.61038e-18
7.24137e-19
3.81488e-19
0
0
0
0
5.59148e-16
-2.76558e-16
0
0
-5.47177e-17
9.64552e-17
-5.97305e-17
-2.38598e-17
2.35909e-17
9.94184e-18
1.17749e-17
-3.08576e-18
9.27151e-19
3.70223e-19
2.09552e-19
1.45128e-19
2.22702e-19
-9.17456e-21
9.34511e-21
-5.49526e-16
4.68511e-16
1.93564e-16
-1.08125e-16
1.54315e-16
-9.59729e-17
-5.19583e-17
-3.28545e-17
0
-2.09775e-17
2.6704e-18
3.92955e-18
-1.9817e-18
-1.09891e-18
-2.76812e-19
-1.77265e-19
-1.43851e-19
0
0
-1.88897e-16
0
1.14791e-16
5.28601e-19
0
0
5.35967e-17
3.39012e-17
0
1.22512e-17
0
-5.73138e-18
-9.71675e-19
1.63393e-18
0
7.87421e-19
-9.55724e-20
9.74967e-20
0
4.21766e-16
0
2.05829e-16
-3.52463e-16
2.70708e-16
1.55805e-16
-1.38635e-17
0
4.5003e-18
1.76326e-17
0
-6.95784e-18
5.82304e-18
-4.26876e-18
-7.9512e-19
-5.95128e-19
-2.24836e-19
-5.65443e-20
-3.85388e-19
-3.56499e-16
5.03886e-16
-1.19646e-16
-2.64266e-16
-1.26189e-16
-8.67978e-17
-1.14344e-16
-3.00069e-17
6.81258e-18
5.71165e-18
-5.70092e-18
1.1155e-17
-4.14153e-18
6.51141e-18
-1.1475e-18
0
2.05969e-18
-1.56558e-18
3.49573e-19
8.67382e-16
-3.42826e-17
-5.10263e-16
3.30019e-16
-2.56124e-16
1.77595e-16
-1.34881e-17
-3.73279e-17
2.4135e-17
6.19242e-18
-2.10696e-18
-1.01918e-17
2.11056e-18
3.77928e-18
-7.82334e-19
7.91257e-19
-2.13334e-18
-1.48818e-18
-1.47379e-18
4.25807e-16
1.53656e-16
2.34478e-16
-1.69895e-16
-1.03516e-16
1.88796e-17
-4.70995e-17
1.06499e-16
6.44387e-18
2.77571e-17
1.28538e-17
-1.00976e-17
0
-4.93546e-18
0
0
7.3905e-18
2.65149e-18
1.64233e-18
3.79628e-16
0
2.24638e-16
1.68798e-16
-1.18063e-16
8.35478e-17
0
-3.79605e-17
-4.26696e-17
-2.90149e-17
-1.29676e-17
1.02118e-17
0
0
0
0
-7.01403e-18
-9.63338e-18
0
-7.42225e-16
0
-3.0422e-17
-2.85783e-17
1.83542e-16
-6.90992e-17
-2.51484e-17
-2.62645e-17
4.44644e-17
0
9.2778e-18
-8.48905e-19
1.28454e-17
0
0
2.10493e-17
-1.67587e-18
1.16358e-17
-7.63701e-18
5.0864e-16
1.21165e-16
-1.19914e-16
-8.82603e-17
-2.27974e-16
1.29726e-16
1.23778e-16
-8.54669e-18
-3.32066e-17
3.764e-17
6.79544e-18
-4.06841e-17
-2.77616e-17
-2.73027e-17
-3.1075e-17
-2.45023e-17
3.25115e-17
-1.4108e-18
7.82191e-18
-1.4831e-16
5.80315e-17
-2.60952e-16
3.33077e-17
-3.31865e-17
0
-6.35019e-17
-1.45226e-17
-5.75793e-17
1.65924e-17
5.67219e-17
3.31098e-17
-1.01848e-17
-8.54215e-18
2.87916e-17
0
-7.85402e-17
-3.66077e-17
-7.12482e-19
3.22943e-16
-7.08455e-18
4.07309e-16
-1.67705e-16
8.80096e-19
3.44351e-18
9.47514e-17
-2.23673e-17
5.58424e-17
-5.18747e-17
-5.02562e-17
0
7.68324e-17
5.13112e-17
9.55743e-19
-1.43754e-18
4.73804e-17
3.71643e-17
0
-2.24101e-16
0
-2.95325e-17
1.65961e-16
6.0458e-18
3.19654e-17
-9.16231e-17
8.231e-17
1.09813e-16
1.07683e-16
1.07702e-16
0
-7.46412e-17
0
5.51096e-18
-5.72362e-18
0
-7.01779e-19
3.80007e-17
1.7047e-16
2.20077e-17
-8.91155e-17
2.92126e-16
-8.75205e-17
0
0
-1.52564e-16
-1.06397e-16
-1.04321e-16
-2.22286e-16
-3.13849e-17
0
0
0
-1.42166e-17
1.50448e-17
1.08868e-16
-3.86415e-17
2.41247e-17
0
-2.29921e-16
-1.78897e-16
2.07527e-16
-2.11308e-16
-2.91156e-16
3.20647e-16
1.12484e-16
0
1.44253e-16
2.00332e-16
-4.2595e-17
2.47456e-16
-4.14479e-17
4.31371e-17
1.82929e-16
-1.03485e-16
0
-3.19673e-16
0
-2.8871e-16
2.76514e-16
0
4.36203e-16
1.9482e-16
-4.45774e-16
3.92144e-16
-6.26915e-19
-1.11034e-16
-1.93962e-16
0
3.2861e-16
-5.30074e-16
5.76116e-16
-7.35969e-16
0
0
3.22313e-16
-6.04824e-18
-1.43749e-17
-5.83014e-16
6.03902e-16
-2.82194e-16
2.81044e-16
2.77711e-16
-2.13626e-16
0
0
4.9393e-16
-5.02439e-16
-5.06827e-16
5.1045e-16
-5.04086e-16
5.51398e-16
-8.7081e-16
0
)
;

boundaryField
{
    up
    {
        type            calculated;
        value           nonuniform List<scalar> 
84
(
0
0
0
0
-2.54557e-17
4.33498e-17
-1.69057e-17
7.82243e-18
-7.05647e-18
0
-1.83904e-18
1.68786e-18
-4.6185e-19
2.08875e-19
1.06029e-19
1.14115e-19
0
0
-1.32886e-20
1.02447e-20
5.67613e-21
-5.51147e-21
3.59169e-22
0
1.93259e-21
1.42146e-21
-1.19996e-20
0
1.82855e-20
2.97593e-20
3.76395e-21
-8.44985e-21
4.84525e-21
0
2.18598e-20
8.71974e-20
-1.18363e-19
2.00774e-19
0
-4.93932e-20
0
0
-2.92021e-20
5.39435e-20
-5.21217e-20
8.16332e-20
-1.50679e-19
1.02911e-19
-2.9406e-20
-7.51146e-20
0
0
0
-4.09535e-20
-8.05668e-21
1.85934e-21
0
-1.34661e-20
-1.23488e-20
7.9721e-21
0
0
-6.08174e-21
1.40881e-20
-2.15254e-20
1.71278e-20
0
9.34511e-21
0
0
-3.85388e-19
3.49573e-19
-1.47379e-18
1.64233e-18
0
-7.63701e-18
7.82191e-18
-7.12482e-19
0
3.80007e-17
-3.86415e-17
0
0
0
)
;
    }
    low
    {
        type            calculated;
        value           nonuniform List<scalar> 
84
(
-6.46549e-16
6.30679e-16
-2.88517e-16
4.83269e-16
8.80085e-17
-2.28731e-17
1.9099e-16
4.17289e-17
0
7.65315e-16
-1.93942e-16
1.19982e-16
-1.59872e-16
-1.15875e-15
1.88991e-16
0
-1.75063e-16
3.28654e-17
-3.24617e-17
-1.20782e-16
7.1622e-17
1.72985e-16
3.42745e-16
-2.72941e-16
0
-5.23328e-17
-2.70424e-17
0
-2.50039e-16
-7.59048e-17
-2.74944e-16
-2.97376e-16
3.22016e-16
1.03755e-16
7.1498e-16
5.71473e-17
0
4.62135e-16
4.87778e-16
2.75609e-16
-1.46005e-16
5.54168e-17
5.54189e-17
0
2.20201e-16
5.47251e-16
4.03464e-16
7.80844e-17
0
-9.89645e-16
5.87383e-16
-1.93685e-19
-1.50829e-19
2.15209e-16
0
-5.5094e-16
0
-3.33797e-17
5.88586e-17
1.27816e-16
2.02908e-16
2.79149e-16
-4.73365e-20
6.4298e-16
0
0
-4.69266e-16
5.59437e-16
-5.5008e-16
-1.88897e-16
4.22748e-16
-3.56499e-16
8.71326e-16
4.28168e-16
3.79628e-16
-7.42225e-16
5.06264e-16
-1.45694e-16
3.22943e-16
-2.22892e-16
1.7047e-16
2.66519e-17
-3.19673e-16
3.23017e-16
)
;
    }
    left
    {
        type            calculated;
        value           nonuniform List<scalar> 
19
(
-6.45143e-16
-3.01819e-16
3.19718e-16
1.95821e-17
-5.77348e-16
0
-2.50564e-16
-2.47593e-16
-3.51298e-17
-1.39152e-16
-3.26503e-19
-1.40973e-16
6.5188e-16
-1.42819e-16
6.58225e-16
5.74576e-16
3.43645e-16
5.10461e-16
0
)
;
    }
    right
    {
        type            calculated;
        value           nonuniform List<scalar> 
19
(
3.22313e-16
-5.64889e-18
-1.43749e-17
-5.83578e-16
6.04925e-16
-2.82194e-16
2.81044e-16
2.77711e-16
-2.11731e-16
0
0
4.99262e-16
-5.09047e-16
-5.06827e-16
5.1045e-16
-5.04086e-16
5.51398e-16
-9.40909e-16
0
)
;
    }
    frontAndBackPlanes
    {
        type            empty;
    }
}


// ************************************************************************* //
