/*--------------------------------*- C++ -*----------------------------------*\
  =========                 |
  \\      /  F ield         | OpenFOAM: The Open Source CFD Toolbox
   \\    /   O peration     | Website:  https://openfoam.org
    \\  /    A nd           | Version:  7
     \\/     M anipulation  |
\*---------------------------------------------------------------------------*/
FoamFile
{
    version     2.0;
    format      ascii;
    class       volScalarField;
    location    "0.06";
    object      gradTy;
}
// * * * * * * * * * * * * * * * * * * * * * * * * * * * * * * * * * * * * * //

dimensions      [0 -1 0 1 0 0 0];

internalField   nonuniform List<scalar> 
1596
(
-1.02635
-1.86058
-2.46386
-2.94813
-3.31408
-3.64514
-3.91333
-4.19185
-4.48888
-4.7969
-5.24202
-5.7808
-6.56959
-7.77791
-9.83347
-13.2307
-19.5731
-31.4927
-74.3546
-3.05196
-3.6265
-3.85225
-3.9311
-3.92066
-3.93385
-3.95725
-4.05199
-4.21732
-4.42511
-4.77908
-5.23196
-5.89575
-6.85413
-8.34777
-10.4805
-13.8112
-18.8099
-33.0494
-5.25197
-5.25144
-4.99985
-4.65846
-4.28951
-4.00543
-3.79772
-3.71288
-3.73922
-3.83555
-4.07925
-4.41675
-4.92758
-5.65618
-6.76602
-8.27271
-10.4989
-13.6287
-20.3075
-7.29681
-6.64215
-5.91244
-5.18054
-4.49183
-3.94257
-3.52678
-3.27539
-3.16794
-3.1554
-3.28833
-3.51026
-3.87368
-4.40099
-5.20923
-6.28449
-7.83631
-9.93477
-13.5127
-8.89448
-7.73696
-6.62181
-5.5692
-4.61586
-3.84137
-3.24503
-2.8447
-2.61474
-2.50258
-2.53383
-2.65242
-2.88787
-3.24869
-3.81983
-4.58192
-5.68399
-7.1545
-9.33528
-9.89859
-8.51362
-7.16332
-5.88534
-4.73187
-3.7759
-3.02767
-2.49734
-2.15807
-1.95736
-1.89949
-1.9306
-2.06095
-2.28896
-2.67408
-3.19956
-3.97591
-5.02017
-6.47043
-10.3358
-8.98214
-7.55698
-6.15727
-4.87133
-3.77901
-2.90763
-2.26645
-1.83143
-1.55306
-1.41906
-1.37841
-1.42584
-1.55174
-1.79394
-2.13937
-2.66927
-3.39959
-4.39763
-10.3395
-9.17246
-7.80246
-6.37709
-5.02486
-3.8421
-2.87746
-2.14583
-1.62955
-1.28444
-1.08687
-0.988719
-0.972975
-1.02358
-1.16031
-1.37223
-1.71625
-2.20854
-2.89019
-10.0762
-9.17585
-7.94255
-6.56089
-5.19339
-3.95714
-2.92353
-2.11824
-1.53271
-1.1296
-0.878634
-0.73433
-0.671241
-0.668285
-0.730899
-0.848473
-1.05762
-1.37268
-1.82246
-9.64255
-8.98011
-7.91812
-6.63306
-5.30052
-4.05422
-2.98489
-2.13139
-1.49561
-1.04813
-0.756344
-0.577383
-0.480583
-0.441387
-0.454736
-0.5093
-0.625707
-0.814748
-1.09729
-9.25217
-8.72572
-7.80537
-6.62483
-5.34978
-4.12023
-3.03965
-2.1589
-1.4898
-1.01068
-0.689394
-0.485579
-0.365745
-0.303187
-0.285792
-0.301146
-0.358143
-0.463144
-0.630281
-8.87207
-8.47327
-7.66802
-6.58049
-5.36535
-4.16328
-3.08467
-2.19
-1.49953
-0.998397
-0.656368
-0.435174
-0.299998
-0.222861
-0.187216
-0.179613
-0.201013
-0.253652
-0.345932
-8.46443
-8.17249
-7.46618
-6.46355
-5.3108
-4.14757
-3.08648
-2.1945
-1.49797
-0.987419
-0.635179
-0.404853
-0.261476
-0.176608
-0.131291
-0.111415
-0.113091
-0.135418
-0.182439
-8.15065
-7.89728
-7.25087
-6.30927
-5.20759
-4.08263
-3.04583
-2.16729
-1.47649
-0.967239
-0.614041
-0.381887
-0.236257
-0.148799
-0.0995129
-0.074055
-0.0658955
-0.0720916
-0.0936914
-7.89658
-7.66545
-7.04769
-6.14086
-5.07374
-3.98027
-2.9689
-2.10993
-1.43325
-0.933775
-0.587191
-0.359286
-0.216187
-0.129961
-0.0804273
-0.0533792
-0.0410934
-0.0395272
-0.0479304
-7.66999
-7.46303
-6.8572
-5.96421
-4.91561
-3.8453
-2.85843
-2.0232
-1.36741
-0.885
-0.551597
-0.333211
-0.196643
-0.114624
-0.0673594
-0.0410999
-0.0278293
-0.0230927
-0.0252337
-7.49291
-7.29193
-6.68094
-5.78282
-4.73725
-3.68127
-2.71706
-1.90879
-1.27978
-0.820919
-0.506503
-0.302224
-0.175537
-0.100063
-0.0568065
-0.0327619
-0.0201705
-0.0146203
-0.0141318
-7.36773
-7.16147
-6.52897
-5.60746
-4.54955
-3.49822
-2.55346
-1.77367
-1.17555
-0.745105
-0.454025
-0.267248
-0.152837
-0.0854933
-0.0473143
-0.0262645
-0.0151629
-0.00991251
-0.00854769
-7.24242
-7.06941
-6.41615
-5.45859
-4.37371
-3.31565
-2.38417
-1.63097
-1.06453
-0.66441
-0.398609
-0.230897
-0.12983
-0.0712802
-0.0385859
-0.0208057
-0.0114886
-0.00698656
-0.00551277
-7.10185
-6.98647
-6.32149
-5.3231
-4.20202
-3.12976
-2.20807
-1.48135
-0.948243
-0.580549
-0.341749
-0.194248
-0.107154
-0.0576758
-0.0305598
-0.0160706
-0.00858054
-0.00495922
-0.00367493
-6.99927
-6.92969
-6.25121
-5.20531
-4.03889
-2.94522
-2.02993
-1.32929
-0.830605
-0.496644
-0.285729
-0.158824
-0.0857196
-0.0451482
-0.0233986
-0.0120159
-0.00623616
-0.00346775
-0.00245744
-6.91024
-6.89836
-6.20845
-5.111
-3.89224
-2.77081
-1.85809
-1.18191
-0.71715
-0.41665
-0.233163
-0.126223
-0.066425
-0.0341455
-0.017281
-0.00866418
-0.00438027
-0.00235767
-0.00161329
-6.8114
-6.88003
-6.19001
-5.04339
-3.76944
-2.61554
-1.70119
-1.04628
-0.613014
-0.343934
-0.18607
-0.097547
-0.0498088
-0.024891
-0.0122681
-0.00599821
-0.00295706
-0.00154438
-0.00102038
-6.69957
-6.8612
-6.18351
-4.99482
-3.66783
-2.47986
-1.56097
-0.923931
-0.518988
-0.278642
-0.144136
-0.0723247
-0.0354062
-0.0170025
-0.00807263
-0.00381776
-0.00182865
-0.000926063
-0.000559356
-6.58858
-6.85847
-6.24352
-5.06814
-3.72454
-2.50967
-1.56894
-0.919278
-0.510004
-0.270276
-0.138022
-0.0685783
-0.033374
-0.016026
-0.00766029
-0.00368827
-0.00182339
-0.000964503
-0.000571421
-6.48981
-6.85399
-6.32326
-5.20123
-3.87232
-2.6407
-1.66817
-0.985366
-0.549568
-0.292012
-0.149091
-0.0739526
-0.0359183
-0.0172378
-0.00825653
-0.00400597
-0.00201469
-0.00110433
-0.00070136
-6.46557
-6.86281
-6.39381
-5.33159
-4.03523
-2.8022
-1.80366
-1.08489
-0.615048
-0.331295
-0.170822
-0.0852247
-0.0414614
-0.0198582
-0.00946177
-0.00456117
-0.00228942
-0.00127445
-0.000842765
-6.53186
-6.89709
-6.45605
-5.44968
-4.19965
-2.98233
-1.96892
-1.21672
-0.708859
-0.392005
-0.206959
-0.105318
-0.0519811
-0.0250819
-0.0119163
-0.00565076
-0.00274929
-0.00148614
-0.000980372
-6.67246
-6.96866
-6.52956
-5.5719
-4.3753
-3.18605
-2.16755
-1.38537
-0.8368
-0.480458
-0.263359
-0.139004
-0.0709798
-0.0352735
-0.0170912
-0.00810693
-0.0037992
-0.00189618
-0.00115064
-6.87885
-7.07324
-6.61857
-5.70365
-4.56387
-3.41141
-2.39677
-1.5898
-1.00059
-0.600597
-0.34502
-0.191244
-0.102723
-0.053758
-0.0273774
-0.0135073
-0.00634623
-0.00293254
-0.00150018
-7.14599
-7.22248
-6.74637
-5.86867
-4.78319
-3.66933
-2.66283
-1.83457
-1.20512
-0.758348
-0.458533
-0.268599
-0.153139
-0.0855375
-0.0467742
-0.0248726
-0.0124237
-0.00573229
-0.00250938
-7.40252
-7.39762
-6.91095
-6.07047
-5.03731
-3.96264
-2.9677
-2.12208
-1.45433
-0.959465
-0.611058
-0.378827
-0.229835
-0.137616
-0.0815134
-0.0476383
-0.0264216
-0.0132559
-0.00568568
-7.68976
-7.61375
-7.11667
-6.30801
-5.32216
-4.28602
-3.30641
-2.44932
-1.74824
-1.2073
-0.808746
-0.52989
-0.341532
-0.218748
-0.140123
-0.0903242
-0.0568461
-0.033202
-0.0152301
-8.03839
-7.89151
-7.38043
-6.59711
-5.65354
-4.65562
-3.69561
-2.83393
-2.10602
-1.52276
-1.07428
-0.745401
-0.511855
-0.351782
-0.244597
-0.174812
-0.127534
-0.0938571
-0.0664496
-8.4242
-8.20197
-7.65533
-6.87253
-5.95056
-4.97939
-4.0372
-3.17765
-2.43469
-1.82194
-1.33543
-0.965097
-0.691568
-0.496274
-0.360902
-0.271186
-0.212759
-0.175807
-0.150898
-8.87227
-8.53803
-7.92172
-7.10614
-6.17575
-5.20872
-4.2718
-3.41269
-2.66233
-2.03394
-1.52664
-1.13238
-0.834818
-0.617345
-0.463514
-0.359604
-0.292737
-0.254039
-0.235567
-9.38906
-8.91682
-8.21505
-7.34973
-6.39248
-5.41186
-4.46666
-3.59994
-2.84003
-2.19911
-1.67752
-1.26799
-0.955679
-0.725032
-0.560568
-0.448442
-0.375691
-0.332482
-0.309709
-9.84831
-9.25743
-8.47953
-7.56704
-6.58222
-5.58614
-4.63163
-3.75761
-2.98999
-2.33983
-1.80775
-1.38715
-1.06409
-0.823879
-0.651778
-0.534151
-0.458147
-0.413696
-0.391284
-10.2001
-9.5367
-8.70561
-7.75733
-6.7501
-5.74055
-4.77746
-3.89672
-3.12238
-2.46453
-1.92404
-1.49471
-1.16334
-0.915873
-0.73823
-0.616896
-0.539148
-0.494652
-0.473497
-10.4766
-9.759
-8.88704
-7.91045
-6.88494
-5.86414
-4.8938
-4.00757
-3.22806
-2.56455
-2.01804
-1.58255
-1.24543
-0.993057
-0.811857
-0.688365
-0.609982
-0.566143
-0.546633
-10.6796
-9.92037
-9.01618
-8.01757
-6.97809
-5.94887
-4.97335
-4.08345
-3.30071
-2.63375
-2.08364
-1.6445
-1.304
-1.04883
-0.865732
-0.741255
-0.662877
-0.619847
-0.601716
-10.8243
-10.0152
-9.08397
-8.07021
-7.02234
-5.98869
-5.01089
-4.11971
-3.33598
-2.66791
-2.11657
-1.67609
-1.33433
-1.07811
-0.89439
-0.769732
-0.691689
-0.649436
-0.63242
-10.8243
-10.0153
-9.0841
-8.07036
-7.02252
-5.98888
-5.01108
-4.1199
-3.33616
-2.66808
-2.11672
-1.67623
-1.33445
-1.07822
-0.89449
-0.769826
-0.691782
-0.64953
-0.632519
-10.6797
-9.92056
-9.01648
-8.01796
-6.97856
-5.94939
-4.97389
-4.08399
-3.30123
-2.63424
-2.08408
-1.6449
-1.30436
-1.04915
-0.866027
-0.741532
-0.663149
-0.620126
-0.602014
-10.4767
-9.7593
-8.88752
-7.91108
-6.88569
-5.86497
-4.89467
-4.00844
-3.2289
-2.56533
-2.01875
-1.58319
-1.24599
-0.993561
-0.812315
-0.688792
-0.610396
-0.566563
-0.547077
-10.2002
-9.53708
-8.70623
-7.75815
-6.75108
-5.74165
-4.77862
-3.89787
-3.12349
-2.46556
-1.92497
-1.49553
-1.16406
-0.916508
-0.738797
-0.617416
-0.539645
-0.495149
-0.474018
-9.84846
-9.25787
-8.48025
-7.56802
-6.58342
-5.58748
-4.63304
-3.75902
-2.99134
-2.34107
-1.80887
-1.38812
-1.06494
-0.824606
-0.652414
-0.534723
-0.458683
-0.414224
-0.391832
-9.38924
-8.91731
-8.21586
-7.35083
-6.39385
-5.41341
-4.4683
-3.60158
-2.84159
-2.20053
-1.67877
-1.26906
-0.956587
-0.725797
-0.561222
-0.449014
-0.376213
-0.332981
-0.310212
-8.87247
-8.53863
-7.92273
-7.10756
-6.17753
-5.21075
-4.27395
-3.41483
-2.66435
-2.03575
-1.52821
-1.13371
-0.835924
-0.618261
-0.464283
-0.360263
-0.29332
-0.254573
-0.236074
-8.42433
-8.20218
-7.65587
-6.87353
-5.95205
-4.98129
-4.03935
-3.17988
-2.43685
-1.8239
-1.33711
-0.966477
-0.692664
-0.497118
-0.361541
-0.27167
-0.213166
-0.176253
-0.15153
-8.0385
-7.89214
-7.38172
-6.59914
-5.65623
-4.65879
-3.699
-2.83729
-2.10913
-1.52549
-1.07656
-0.747249
-0.513316
-0.352926
-0.245506
-0.17557
-0.12823
-0.0945788
-0.0672679
-7.68978
-7.61405
-7.11754
-6.30952
-5.32426
-4.2885
-3.30903
-2.45183
-1.75046
-1.20916
-0.81021
-0.530998
-0.342346
-0.219342
-0.140571
-0.0906927
-0.0571724
-0.0334794
-0.0154092
-7.40249
-7.39786
-6.91176
-6.07194
-5.03935
-3.96502
-2.97013
-2.12433
-1.45625
-0.960993
-0.612206
-0.379652
-0.230411
-0.138017
-0.081804
-0.0478684
-0.0266126
-0.0133908
-0.00572651
-7.14593
-7.22264
-6.7471
-5.87007
-4.78512
-3.67154
-2.66503
-1.83653
-1.20673
-0.759565
-0.459404
-0.269193
-0.153533
-0.0857985
-0.0469533
-0.0250036
-0.0125201
-0.00578871
-0.00250854
-6.87877
-7.07335
-6.61924
-5.70497
-4.56568
-3.41344
-2.39873
-1.59148
-1.0019
-0.601548
-0.345668
-0.191665
-0.102988
-0.0539246
-0.0274844
-0.0135775
-0.00638967
-0.00295139
-0.00149063
-6.67235
-6.96871
-6.53015
-5.57311
-4.37696
-3.18786
-2.16924
-1.38676
-0.837847
-0.481184
-0.263832
-0.139296
-0.0711553
-0.0353777
-0.017153
-0.00814258
-0.00381677
-0.00190028
-0.00114248
-6.53176
-6.89713
-6.45659
-5.45078
-4.20112
-2.9839
-1.97033
-1.21785
-0.709671
-0.392546
-0.207296
-0.105519
-0.0520956
-0.0251459
-0.0119512
-0.00566823
-0.0027558
-0.00148604
-0.000975748
-6.46547
-6.86285
-6.3943
-5.33255
-4.03649
-2.80349
-1.80479
-1.08577
-0.615661
-0.331691
-0.171061
-0.085362
-0.0415371
-0.0198984
-0.00948212
-0.00457024
-0.00229218
-0.0012742
-0.000841198
-6.48972
-6.85403
-6.32366
-5.20199
-3.87329
-2.64167
-1.66901
-0.986
-0.550003
-0.292288
-0.149254
-0.0740442
-0.0359674
-0.0172631
-0.00826873
-0.00401116
-0.00201635
-0.00110466
-0.000701563
-6.58865
-6.85855
-6.24369
-5.06839
-3.72484
-2.50997
-1.5692
-0.919477
-0.510144
-0.270367
-0.138077
-0.0686096
-0.0333911
-0.0160348
-0.00766448
-0.00369004
-0.00182407
-0.000964869
-0.000571353
-6.69963
-6.86122
-6.1834
-4.99459
-3.66755
-2.47958
-1.56073
-0.923739
-0.518848
-0.278546
-0.144073
-0.0722846
-0.0353816
-0.0169878
-0.00806399
-0.00381274
-0.00182577
-0.000924419
-0.000557902
-6.81145
-6.88006
-6.19
-5.04337
-3.76943
-2.61555
-1.70122
-1.04631
-0.613033
-0.343946
-0.186075
-0.0975482
-0.049808
-0.0248896
-0.0122667
-0.00599708
-0.00295625
-0.00154382
-0.00101975
-6.91027
-6.89837
-6.20843
-5.11096
-3.89222
-2.7708
-1.85809
-1.18192
-0.717159
-0.416656
-0.233167
-0.126224
-0.0664252
-0.0341451
-0.0172805
-0.00866365
-0.00437986
-0.00235738
-0.00161291
-6.99929
-6.9297
-6.2512
-5.20529
-4.03887
-2.94521
-2.02993
-1.32929
-0.83061
-0.496648
-0.285732
-0.158826
-0.085721
-0.0451488
-0.0233987
-0.0120159
-0.00623608
-0.00346776
-0.00245731
-7.10186
-6.98648
-6.32148
-5.32309
-4.20201
-3.12975
-2.20807
-1.48135
-0.948243
-0.58055
-0.341752
-0.194251
-0.107156
-0.0576772
-0.0305606
-0.016071
-0.00858089
-0.00495979
-0.00367532
-7.24243
-7.06942
-6.41615
-5.45859
-4.37371
-3.31565
-2.38416
-1.63097
-1.06452
-0.664409
-0.39861
-0.2309
-0.129833
-0.0712821
-0.0385872
-0.0208065
-0.0114896
-0.00698825
-0.00551429
-7.36773
-7.16147
-6.52897
-5.60747
-4.54956
-3.49822
-2.55346
-1.77366
-1.17554
-0.745101
-0.454025
-0.26725
-0.152839
-0.0854954
-0.0473158
-0.0262658
-0.015165
-0.00991651
-0.00855158
-7.4929
-7.29192
-6.68095
-5.78284
-4.73726
-3.68127
-2.71705
-1.90878
-1.27977
-0.820912
-0.506501
-0.302225
-0.175539
-0.100065
-0.0568079
-0.0327636
-0.0201748
-0.0146289
-0.0141402
-7.66998
-7.46303
-6.85721
-5.96423
-4.91563
-3.84531
-2.85842
-2.02319
-1.3674
-0.884992
-0.551593
-0.33321
-0.196644
-0.114625
-0.06736
-0.0411021
-0.0278377
-0.0231097
-0.0252496
-7.89655
-7.66544
-7.0477
-6.14089
-5.07376
-3.98028
-2.96889
-2.10991
-1.43323
-0.933765
-0.587185
-0.359284
-0.216186
-0.129959
-0.080426
-0.0533826
-0.041109
-0.0395577
-0.0479567
-8.15062
-7.89726
-7.25089
-6.3093
-5.20761
-4.08264
-3.04582
-2.16728
-1.47648
-0.967228
-0.614034
-0.381883
-0.236252
-0.148793
-0.099509
-0.0740611
-0.0659228
-0.0721405
-0.093728
-8.4644
-8.17248
-7.4662
-6.46358
-5.31083
-4.14758
-3.08647
-2.19449
-1.49796
-0.987408
-0.635171
-0.404845
-0.261466
-0.176597
-0.131285
-0.111427
-0.113134
-0.135486
-0.182479
-8.87203
-8.47326
-7.66803
-6.58051
-5.36537
-4.16329
-3.08467
-2.18999
-1.49952
-0.998385
-0.656356
-0.43516
-0.29998
-0.222843
-0.187209
-0.179633
-0.201071
-0.253729
-0.345958
-9.25214
-8.72571
-7.80539
-6.62486
-5.3498
-4.12024
-3.03965
-2.15889
-1.48979
-1.01067
-0.689378
-0.485557
-0.365719
-0.303165
-0.285789
-0.301176
-0.358206
-0.463204
-0.630265
-9.64252
-8.98011
-7.91814
-6.63308
-5.30053
-4.05422
-2.98488
-2.13138
-1.4956
-1.04812
-0.756322
-0.577353
-0.480551
-0.441366
-0.454741
-0.509337
-0.625754
-0.814754
-1.09721
-10.0761
-9.17587
-7.94258
-6.5609
-5.19339
-3.95713
-2.92352
-2.11823
-1.53269
-1.12958
-0.878605
-0.734295
-0.671211
-0.668275
-0.730919
-0.848508
-1.05762
-1.3726
-1.82232
-10.3395
-9.17249
-7.80248
-6.37709
-5.02485
-3.84208
-2.87744
-2.14581
-1.62954
-1.28442
-1.08683
-0.988688
-0.972959
-1.02359
-1.16035
-1.37225
-1.71619
-2.20836
-2.89002
-10.3358
-8.98218
-7.557
-6.15727
-4.87131
-3.77899
-2.90761
-2.26643
-1.83141
-1.55303
-1.41904
-1.37839
-1.42585
-1.55178
-1.79399
-2.13937
-2.66914
-3.39936
-4.3975
-9.89862
-8.51366
-7.16333
-5.88534
-4.73186
-3.77589
-3.02766
-2.49733
-2.15805
-1.95734
-1.89949
-1.93061
-2.061
-2.28902
-2.67411
-3.19952
-3.97575
-5.01995
-6.47042
-8.8945
-7.73698
-6.62183
-5.56921
-4.61587
-3.84137
-3.24503
-2.8447
-2.61474
-2.50259
-2.53385
-2.65246
-2.88793
-3.24875
-3.81985
-4.58186
-5.68386
-7.15439
-9.33539
-7.29681
-6.64214
-5.91245
-5.18057
-4.49185
-3.94259
-3.52679
-3.27539
-3.16795
-3.15543
-3.28837
-3.51033
-3.87376
-4.40105
-5.20922
-6.28442
-7.83622
-9.93478
-13.5129
-5.25197
-5.2514
-4.99985
-4.65848
-4.28954
-4.00546
-3.79774
-3.7129
-3.73924
-3.83559
-4.07931
-4.41683
-4.92765
-5.65621
-6.76599
-8.27264
-10.4989
-13.6288
-20.3076
-3.05196
-3.62645
-3.85222
-3.9311
-3.92068
-3.93387
-3.95727
-4.05201
-4.21735
-4.42515
-4.77914
-5.23203
-5.8958
-6.85413
-8.34772
-10.4804
-13.8112
-18.81
-33.0495
-1.02636
-1.86057
-2.46383
-2.94811
-3.31407
-3.64513
-3.91333
-4.19186
-4.4889
-4.79693
-5.24205
-5.78084
-6.5696
-7.77788
-9.83339
-13.2306
-19.5731
-31.4928
-74.3546
)
;

boundaryField
{
    up
    {
        type            calculated;
        value           nonuniform List<scalar> 
84
(
-67.4022
-36.4917
-22.1988
-14.6914
-10.1405
-7.04274
-4.803
-3.16852
-2.00446
-1.21003
-0.695768
-0.381483
-0.200443
-0.102082
-0.0514402
-0.0264552
-0.0143735
-0.00842231
-0.0052853
-0.00345113
-0.00227282
-0.00147384
-0.000914659
-0.000456253
-0.00044744
-0.000611139
-0.00074762
-0.000868027
-0.00097682
-0.00113779
-0.00159535
-0.00305464
-0.00896141
-0.0596328
-0.147461
-0.231721
-0.302913
-0.384944
-0.467929
-0.541948
-0.597746
-0.629031
-0.629133
-0.598054
-0.542406
-0.468465
-0.385507
-0.303422
-0.232204
-0.148149
-0.0605726
-0.00912409
-0.00304677
-0.00156026
-0.00110983
-0.000960085
-0.000859855
-0.000744764
-0.000611376
-0.000447365
-0.000454595
-0.000913839
-0.00147331
-0.00227251
-0.00345124
-0.00528637
-0.00842537
-0.0143802
-0.0264675
-0.051459
-0.102104
-0.200456
-0.381465
-0.695692
-1.20988
-2.00427
-3.16836
-4.80297
-7.04291
-10.1408
-14.6918
-22.199
-36.4916
-67.4021
)
;
    }
    low
    {
        type            calculated;
        value           nonuniform List<scalar> 
84
(
-1.10655
-3.20824
-5.57207
-7.80186
-9.54773
-10.6221
-11.04
-10.9655
-10.5694
-9.99024
-9.53771
-9.10249
-8.61295
-8.26135
-7.99023
-7.73103
-7.52473
-7.39729
-7.25121
-7.05063
-6.89733
-6.76217
-6.60263
-6.42978
-6.21634
-6.06005
-6.03358
-6.16201
-6.38828
-6.69797
-7.05398
-7.36352
-7.7042
-8.10948
-8.53786
-9.04286
-9.63876
-10.1416
-10.514
-10.8078
-11.0256
-11.1968
-11.1968
-11.0256
-10.8078
-10.5141
-10.1417
-9.63886
-9.043
-8.53777
-8.10957
-7.7041
-7.36343
-7.05388
-6.69788
-6.38816
-6.16192
-6.0335
-6.06
-6.21632
-6.4299
-6.60261
-6.7622
-6.89735
-7.05064
-7.25121
-7.3973
-7.52472
-7.73101
-7.9902
-8.26131
-8.61291
-9.10245
-9.53768
-9.99021
-10.5694
-10.9655
-11.04
-10.6221
-9.54775
-7.8019
-5.57211
-3.20828
-1.10657
)
;
    }
    left
    {
        type            calculated;
        value           nonuniform List<scalar> 
19
(
-1.01173
-1.84007
-2.46614
-2.97884
-3.37203
-3.72602
-4.01244
-4.30842
-4.62118
-4.95002
-5.42514
-6.0036
-6.86298
-8.20654
-10.5128
-14.3905
-21.7042
-35.5946
-69.8669
)
;
    }
    right
    {
        type            calculated;
        value           nonuniform List<scalar> 
19
(
-1.01174
-1.84006
-2.46612
-2.97882
-3.37202
-3.72602
-4.01244
-4.30843
-4.6212
-4.95005
-5.42518
-6.00362
-6.86297
-8.20646
-10.5126
-14.3903
-21.7041
-35.5946
-69.867
)
;
    }
    frontAndBackPlanes
    {
        type            empty;
    }
}


// ************************************************************************* //
