/*--------------------------------*- C++ -*----------------------------------*\
  =========                 |
  \\      /  F ield         | OpenFOAM: The Open Source CFD Toolbox
   \\    /   O peration     | Website:  https://openfoam.org
    \\  /    A nd           | Version:  7
     \\/     M anipulation  |
\*---------------------------------------------------------------------------*/
FoamFile
{
    version     2.0;
    format      ascii;
    class       volScalarField;
    location    "0.131";
    object      T;
}
// * * * * * * * * * * * * * * * * * * * * * * * * * * * * * * * * * * * * * //

dimensions      [0 0 0 1 0 0 0];

internalField   nonuniform List<scalar> 
1596
(
1.99173
1.96817
1.94453
1.92305
1.90452
1.88897
1.87614
1.86523
1.85563
1.84592
1.835
1.82133
1.80189
1.77276
1.72824
1.65624
1.53473
1.31991
0.923912
1.96446
1.89155
1.82424
1.76493
1.71433
1.67203
1.63713
1.60788
1.58263
1.55861
1.53342
1.50406
1.46566
1.41257
1.3382
1.23123
1.07505
0.841883
0.47947
1.9328
1.81126
1.70428
1.61197
1.53394
1.46905
1.41573
1.37158
1.33428
1.30041
1.26691
1.23022
1.18507
1.12571
1.04609
0.937036
0.786978
0.579148
0.283169
1.90254
1.73676
1.59485
1.47406
1.37261
1.28857
1.21979
1.16344
1.11679
1.07612
1.03812
0.999048
0.953778
0.896928
0.823159
0.725095
0.594469
0.420909
0.18656
1.87869
1.67619
1.50464
1.35945
1.23779
1.13716
1.05498
0.988166
0.933744
0.887901
0.847268
0.808078
0.765515
0.714635
0.650681
0.567511
0.458814
0.317652
0.132988
1.86402
1.63429
1.43873
1.27282
1.13348
1.01803
0.923686
0.847281
0.78572
0.735206
0.692378
0.653534
0.614171
0.569744
0.515937
0.447436
0.359058
0.245631
0.0997237
1.85829
1.61134
1.39756
1.21441
1.05954
0.930576
0.824813
0.739161
0.670522
0.61517
0.569792
0.530773
0.493893
0.454948
0.409967
0.354217
0.283199
0.192652
0.0770288
1.85904
1.60385
1.37754
1.18064
1.01234
0.871071
0.754515
0.659818
0.583993
0.523432
0.474886
0.43483
0.399286
0.364337
0.326297
0.280884
0.224063
0.152077
0.0603959
1.86414
1.60781
1.37401
1.16668
0.987033
0.834679
0.707983
0.60449
0.521423
0.455331
0.403042
0.361116
0.325767
0.293318
0.260322
0.222875
0.177308
0.120196
0.0476123
1.86979
1.61644
1.37931
1.16481
0.976178
0.814363
0.678601
0.56697
0.476999
0.405431
0.349188
0.304903
0.268944
0.237828
0.208314
0.176823
0.140008
0.0947218
0.0374731
1.87392
1.62471
1.38695
1.16815
0.972995
0.803674
0.660333
0.541658
0.445547
0.36897
0.308959
0.262216
0.225229
0.194671
0.167474
0.140347
0.110242
0.0742728
0.0293208
1.87843
1.63373
1.39653
1.17508
0.975078
0.799752
0.650086
0.525367
0.423885
0.342846
0.279392
0.230283
0.192092
0.161601
0.135879
0.111877
0.086809
0.0580473
0.0228096
1.88226
1.64177
1.40557
1.18244
0.97885
0.798818
0.644047
0.51437
0.40844
0.323685
0.257343
0.206218
0.16693
0.136333
0.111595
0.089858
0.0685634
0.0453216
0.0176647
1.88403
1.64628
1.41093
1.18674
0.980609
0.797139
0.63858
0.505202
0.395962
0.308468
0.240032
0.187478
0.147449
0.116842
0.0928908
0.072889
0.054467
0.0354489
0.0136512
1.8851
1.64851
1.41319
1.18786
0.979659
0.793564
0.632216
0.496201
0.384686
0.295396
0.225674
0.172332
0.132009
0.101616
0.0784282
0.0598519
0.0436701
0.0278897
0.0105727
1.88591
1.64933
1.41305
1.18606
0.975782
0.787466
0.624017
0.486214
0.373326
0.283109
0.212881
0.159402
0.119273
0.0893954
0.0670617
0.0497632
0.0354028
0.0221395
0.00824059
1.88588
1.64816
1.40998
1.18074
0.968214
0.777922
0.612938
0.47412
0.360724
0.270448
0.200507
0.147564
0.108154
0.079147
0.0578395
0.0417883
0.028995
0.017746
0.00647933
1.88533
1.64544
1.40446
1.17231
0.957211
0.764986
0.598836
0.459609
0.346443
0.256874
0.187942
0.136158
0.097961
0.0701714
0.0500823
0.0353049
0.0239264
0.0143444
0.00514092
1.88587
1.64378
1.39929
1.16339
0.945024
0.750463
0.583061
0.44361
0.331045
0.242654
0.175216
0.125033
0.08841
0.0620975
0.043373
0.0298943
0.0198248
0.0116613
0.00410977
1.88704
1.6432
1.39486
1.15455
0.932269
0.734897
0.566031
0.4264
0.314674
0.227807
0.162244
0.114016
0.0792594
0.0546336
0.037393
0.0252383
0.0164059
0.00948589
0.00329577
1.88774
1.64226
1.39007
1.14509
0.918541
0.718103
0.547693
0.407987
0.297349
0.212335
0.148988
0.103023
0.0703767
0.0476059
0.0319396
0.0211242
0.0134724
0.0076683
0.0026339
1.88872
1.64185
1.3859
1.13613
0.905063
0.701294
0.529163
0.389332
0.279842
0.196814
0.135842
0.0922867
0.0618643
0.041016
0.0269432
0.0174392
0.0108977
0.00610281
0.00207773
1.89035
1.64275
1.38337
1.12887
0.893147
0.685811
0.511711
0.371552
0.263071
0.181945
0.123299
0.0821189
0.0538851
0.0349144
0.0223734
0.0140989
0.00856836
0.00467836
0.0015727
1.89247
1.64496
1.38271
1.12382
0.883559
0.672597
0.496348
0.355618
0.24788
0.168397
0.111839
0.0728228
0.046595
0.0293439
0.0181925
0.0110075
0.00634161
0.00321372
0.000955362
1.8966
1.65411
1.39428
1.13567
0.894186
0.681171
0.502632
0.359786
0.250325
0.169569
0.112153
0.0726106
0.0460996
0.0287274
0.0175525
0.0103919
0.00577801
0.00274842
0.000707374
1.9015
1.66764
1.41478
1.16082
0.921423
0.708092
0.527369
0.381152
0.267797
0.183172
0.12226
0.0797975
0.0509984
0.0319369
0.0195825
0.0116345
0.00650587
0.00313253
0.000835138
1.90422
1.67689
1.43052
1.1819
0.94593
0.733825
0.55229
0.403695
0.287004
0.198668
0.134132
0.088443
0.0569789
0.0358644
0.0220345
0.0130885
0.00731446
0.00352808
0.000951481
1.9048
1.68156
1.44085
1.19803
0.966763
0.757517
0.576763
0.427076
0.307898
0.216256
0.148122
0.0989631
0.0644383
0.0408311
0.0251304
0.0148847
0.00826925
0.00396212
0.00106348
1.90412
1.68326
1.44762
1.21094
0.985386
0.780336
0.601727
0.452103
0.331243
0.236698
0.164999
0.112108
0.0740572
0.0473973
0.029279
0.0172845
0.0095161
0.00450443
0.00119168
1.90242
1.68303
1.4523
1.22216
1.00313
0.803328
0.627965
0.479391
0.357589
0.260569
0.185403
0.128573
0.086543
0.0562079
0.034991
0.0206281
0.0112417
0.00523844
0.00135869
1.90036
1.68256
1.45702
1.23383
1.02188
0.828003
0.656644
0.509842
0.387696
0.288589
0.210092
0.149195
0.102788
0.0681412
0.0430234
0.0254541
0.0137413
0.00628011
0.00159125
1.8995
1.68427
1.46436
1.24837
1.04372
0.856075
0.689103
0.544509
0.422438
0.321574
0.239931
0.174952
0.123916
0.0844212
0.0545711
0.032738
0.0176108
0.00784574
0.00190986
1.89912
1.68717
1.47336
1.26491
1.06791
0.886909
0.724832
0.583035
0.461658
0.359617
0.275308
0.206586
0.151061
0.106581
0.0714723
0.0443647
0.0243731
0.0107233
0.00234436
1.89909
1.69107
1.48387
1.28337
1.09439
0.920473
0.763835
0.625484
0.505524
0.403051
0.316796
0.245001
0.185582
0.136591
0.0964472
0.063797
0.0378625
0.01829
0.00460672
1.89881
1.69401
1.49244
1.2989
1.11712
0.949767
0.798432
0.663782
0.545832
0.443774
0.356578
0.282793
0.220617
0.168309
0.124357
0.0872785
0.0560123
0.0300021
0.00884767
1.89663
1.69132
1.49186
1.30203
1.12466
0.961717
0.814288
0.682712
0.566843
0.465834
0.378733
0.304221
0.240651
0.186449
0.140255
0.100646
0.0665282
0.0371466
0.0117311
1.89309
1.68495
1.48539
1.29716
1.12231
0.962222
0.81755
0.688333
0.574252
0.474359
0.387697
0.312994
0.248677
0.193282
0.145608
0.104393
0.0687442
0.0381295
0.0119308
1.8905
1.68043
1.48104
1.29427
1.12156
0.963829
0.821404
0.694086
0.58142
0.482384
0.396022
0.321111
0.256143
0.199753
0.150864
0.108326
0.0713637
0.0395653
0.0123842
1.8891
1.67802
1.47893
1.29333
1.12224
0.96628
0.825517
0.699583
0.587922
0.489457
0.403236
0.328074
0.262515
0.205269
0.155355
0.111705
0.0736338
0.0408267
0.0127948
1.88816
1.67642
1.47762
1.2929
1.12303
0.968375
0.828831
0.703903
0.592964
0.494895
0.40875
0.333373
0.267347
0.209437
0.158734
0.114235
0.0753216
0.0417572
0.0130981
1.88744
1.67515
1.4765
1.29238
1.12334
0.969574
0.830867
0.706633
0.596193
0.498402
0.412318
0.336805
0.270472
0.21212
0.160893
0.115832
0.0763664
0.0423178
0.0132767
1.88651
1.67365
1.47505
1.29131
1.1228
0.969602
0.83142
0.707626
0.597516
0.499933
0.413937
0.338402
0.271953
0.213411
0.161945
0.116619
0.0768886
0.0426029
0.0133708
1.88651
1.67366
1.47507
1.29133
1.12282
0.96962
0.831439
0.707645
0.597535
0.499951
0.413953
0.338417
0.271966
0.213422
0.161954
0.116627
0.0768939
0.0426061
0.0133719
1.88745
1.67518
1.47654
1.29242
1.12339
0.96963
0.830925
0.70669
0.596248
0.498455
0.412367
0.33685
0.270512
0.212155
0.160922
0.115855
0.0763831
0.042328
0.0132803
1.88817
1.67647
1.47768
1.29298
1.12312
0.968465
0.828923
0.703995
0.593053
0.494979
0.408829
0.333445
0.267412
0.209492
0.15878
0.114272
0.0753478
0.041773
0.0131035
1.88912
1.67807
1.47902
1.29343
1.12236
0.966401
0.825641
0.699707
0.588042
0.48957
0.403341
0.32817
0.2626
0.205342
0.155415
0.111753
0.0736682
0.0408475
0.0128019
1.89052
1.6805
1.48115
1.2944
1.1217
0.96398
0.821558
0.694239
0.581568
0.482524
0.396153
0.321229
0.256248
0.199843
0.150938
0.108385
0.0714052
0.0395903
0.0123928
1.89312
1.68503
1.48551
1.29731
1.12248
0.962398
0.817731
0.688513
0.574425
0.474522
0.387848
0.31313
0.248796
0.193384
0.145692
0.104458
0.0687896
0.0381563
0.0119397
1.89666
1.69141
1.492
1.3022
1.12485
0.961919
0.814495
0.682916
0.56704
0.466018
0.378902
0.304371
0.240782
0.186558
0.140342
0.100711
0.0665714
0.0371707
0.0117388
1.89886
1.69414
1.49265
1.29918
1.11745
0.950122
0.798805
0.664159
0.546203
0.444128
0.35691
0.283099
0.220895
0.168559
0.124578
0.0874691
0.0561679
0.0301113
0.00889209
1.89915
1.69123
1.48412
1.2837
1.09478
0.920896
0.764278
0.625929
0.505957
0.403462
0.317177
0.245348
0.185892
0.136864
0.0966815
0.0639895
0.0380075
0.0183807
0.00463837
1.89917
1.68731
1.47358
1.2652
1.06825
0.887281
0.725218
0.583417
0.462023
0.359955
0.275613
0.206855
0.151292
0.106775
0.071627
0.0444791
0.0244467
0.0107593
0.00235167
1.89954
1.6844
1.46457
1.24864
1.04404
0.856429
0.689465
0.544862
0.42277
0.321875
0.240195
0.175178
0.124103
0.0845709
0.054684
0.0328158
0.017657
0.00786687
0.00191467
1.9004
1.68269
1.45722
1.23409
1.02218
0.828336
0.656981
0.510167
0.387995
0.288854
0.21032
0.149383
0.102939
0.0682573
0.0431071
0.0255094
0.0137731
0.00629469
0.00159468
1.90245
1.68314
1.45248
1.22241
1.00342
0.803636
0.628275
0.479685
0.357855
0.2608
0.185597
0.12873
0.0866647
0.0562982
0.035054
0.0206685
0.0112647
0.00524911
0.00136127
1.90415
1.68336
1.44779
1.21116
0.985649
0.780617
0.602007
0.452366
0.331476
0.236897
0.165162
0.112236
0.0741547
0.0474678
0.029327
0.0173149
0.00953335
0.00451255
0.0011937
1.90483
1.68164
1.441
1.19823
0.966999
0.757768
0.57701
0.427305
0.308099
0.216425
0.148257
0.0990679
0.0645162
0.0408864
0.0251676
0.0149081
0.00828265
0.00396859
0.00106518
1.90424
1.67697
1.43065
1.18208
0.946137
0.734044
0.552504
0.403891
0.287174
0.198809
0.134244
0.0885284
0.0570415
0.0359084
0.022064
0.0131072
0.00732541
0.00353359
0.000953059
1.90151
1.6677
1.41489
1.16098
0.921599
0.708278
0.527551
0.381317
0.26794
0.183289
0.122352
0.0798675
0.0510495
0.0319728
0.0196067
0.0116501
0.00651532
0.00313755
0.000836743
1.8966
1.65412
1.39431
1.13571
0.894236
0.681225
0.502685
0.359836
0.25037
0.169607
0.112183
0.0726346
0.0461173
0.0287399
0.0175607
0.0103967
0.00578035
0.00274903
0.000707139
1.89247
1.64494
1.38268
1.12379
0.883523
0.672561
0.496314
0.355588
0.247855
0.168378
0.111824
0.0728121
0.0465873
0.0293382
0.0181882
0.0110042
0.006339
0.00321176
0.000954305
1.89035
1.64275
1.38337
1.12887
0.893145
0.685811
0.511713
0.371555
0.263075
0.181949
0.123303
0.0821224
0.053888
0.0349165
0.0223749
0.0140999
0.00856892
0.00467857
0.00157266
1.88872
1.64185
1.3859
1.13613
0.905061
0.701294
0.529165
0.389335
0.279845
0.196817
0.135845
0.092289
0.0618661
0.0410174
0.0269442
0.0174399
0.0108982
0.00610303
0.00207777
1.88774
1.64226
1.39007
1.14509
0.91854
0.718103
0.547694
0.407989
0.297351
0.212337
0.14899
0.103024
0.070378
0.0476069
0.0319405
0.0211249
0.0134729
0.00766861
0.00263399
1.88704
1.64319
1.39486
1.15455
0.932268
0.734897
0.566033
0.426401
0.314675
0.227809
0.162245
0.114017
0.0792604
0.0546345
0.0373939
0.0252391
0.0164066
0.00948634
0.0032959
1.88586
1.64378
1.39929
1.16339
0.945024
0.750464
0.583062
0.443611
0.331046
0.242655
0.175217
0.125033
0.088411
0.0620986
0.0433741
0.0298954
0.0198257
0.0116619
0.00410994
1.88533
1.64544
1.40446
1.17231
0.957212
0.764986
0.598837
0.45961
0.346443
0.256875
0.187943
0.136158
0.097962
0.0701727
0.0500837
0.0353062
0.0239275
0.0143451
0.00514112
1.88588
1.64816
1.40998
1.18074
0.968214
0.777923
0.612939
0.47412
0.360725
0.270448
0.200508
0.147565
0.108156
0.0791485
0.0578412
0.04179
0.0289963
0.0177469
0.00647954
1.88591
1.64933
1.41305
1.18606
0.975783
0.787467
0.624018
0.486214
0.373326
0.28311
0.212882
0.159403
0.119275
0.0893973
0.0670638
0.0497651
0.0354043
0.0221403
0.00824078
1.8851
1.64851
1.41319
1.18786
0.97966
0.793565
0.632216
0.496201
0.384687
0.295396
0.225674
0.172333
0.132011
0.101618
0.0784304
0.0598539
0.0436715
0.0278904
0.0105728
1.88403
1.64628
1.41093
1.18674
0.98061
0.79714
0.63858
0.505202
0.395962
0.308468
0.240033
0.18748
0.147451
0.116844
0.0928929
0.0728907
0.054468
0.0354493
0.0136512
1.88226
1.64177
1.40557
1.18244
0.978851
0.798818
0.644047
0.51437
0.40844
0.323685
0.257345
0.20622
0.166932
0.136335
0.111597
0.089859
0.0685638
0.0453215
0.0176645
1.87843
1.63373
1.39653
1.17508
0.975078
0.799752
0.650086
0.525367
0.423885
0.342847
0.279393
0.230285
0.192093
0.161602
0.13588
0.111877
0.0868085
0.0580467
0.0228093
1.87392
1.62472
1.38696
1.16815
0.972995
0.803674
0.660333
0.541658
0.445547
0.368971
0.30896
0.262217
0.22523
0.194671
0.167473
0.140346
0.11024
0.0742716
0.0293205
1.86979
1.61644
1.37931
1.16481
0.976177
0.814363
0.678601
0.56697
0.476999
0.405431
0.349188
0.304903
0.268943
0.237827
0.208312
0.17682
0.140006
0.0947203
0.037473
1.86414
1.60781
1.37401
1.16668
0.987032
0.834678
0.707982
0.604489
0.521422
0.45533
0.403041
0.361114
0.325764
0.293315
0.260319
0.222871
0.177305
0.120194
0.0476124
1.85905
1.60385
1.37754
1.18063
1.01234
0.87107
0.754513
0.659817
0.583992
0.523431
0.474884
0.434827
0.399282
0.364333
0.326292
0.28088
0.22406
0.152076
0.0603962
1.85829
1.61133
1.39756
1.2144
1.05954
0.930574
0.824811
0.739159
0.67052
0.615168
0.569788
0.530768
0.493888
0.454943
0.409962
0.354213
0.283197
0.192651
0.0770294
1.86402
1.63429
1.43873
1.27282
1.13348
1.01803
0.923684
0.847279
0.785717
0.735203
0.692373
0.653529
0.614166
0.569738
0.515933
0.447434
0.359057
0.245632
0.0997244
1.87869
1.67618
1.50464
1.35945
1.23779
1.13716
1.05497
0.988163
0.93374
0.887897
0.847263
0.808072
0.76551
0.71463
0.650678
0.56751
0.458815
0.317654
0.132989
1.90254
1.73676
1.59485
1.47406
1.37261
1.28857
1.21979
1.16344
1.11679
1.07611
1.03812
0.999043
0.953773
0.896925
0.823158
0.725096
0.59447
0.42091
0.18656
1.9328
1.81126
1.70428
1.61197
1.53394
1.46905
1.41573
1.37158
1.33428
1.3004
1.26691
1.23022
1.18507
1.12571
1.04609
0.937037
0.78698
0.579149
0.283168
1.96446
1.89155
1.82424
1.76493
1.71433
1.67203
1.63713
1.60787
1.58263
1.55861
1.53342
1.50406
1.46566
1.41257
1.3382
1.23124
1.07505
0.841884
0.479469
1.99173
1.96817
1.94453
1.92305
1.90452
1.88897
1.87614
1.86523
1.85563
1.84592
1.835
1.82133
1.80189
1.77276
1.72824
1.65624
1.53473
1.31991
0.923911
)
;

boundaryField
{
    up
    {
        type            fixedValue;
        value           uniform 0;
    }
    low
    {
        type            fixedValue;
        value           uniform 2;
    }
    left
    {
        type            fixedValue;
        value           uniform 2;
    }
    right
    {
        type            fixedValue;
        value           uniform 2;
    }
    frontAndBackPlanes
    {
        type            empty;
    }
}


// ************************************************************************* //
