/*--------------------------------*- C++ -*----------------------------------*\
  =========                 |
  \\      /  F ield         | OpenFOAM: The Open Source CFD Toolbox
   \\    /   O peration     | Website:  https://openfoam.org
    \\  /    A nd           | Version:  7
     \\/     M anipulation  |
\*---------------------------------------------------------------------------*/
FoamFile
{
    version     2.0;
    format      ascii;
    class       volScalarField;
    location    "0.348";
    object      T;
}
// * * * * * * * * * * * * * * * * * * * * * * * * * * * * * * * * * * * * * //

dimensions      [0 0 0 1 0 0 0];

internalField   nonuniform List<scalar> 
1596
(
5.9866
5.94805
5.90824
5.86985
5.8334
5.79829
5.76366
5.72782
5.68957
5.64609
5.59523
5.53406
5.45572
5.35033
5.20226
4.97619
4.60601
3.95942
2.77143
5.94199
5.82182
5.70729
5.6
5.49927
5.40306
5.30899
5.21354
5.11372
5.00445
4.88152
4.73987
4.56967
4.35846
4.09041
3.73459
3.24246
2.53005
1.43823
5.88913
5.68682
5.50299
5.33448
5.1781
5.03021
4.88717
4.74439
4.59793
4.44191
4.27152
4.08132
3.86182
3.60192
3.28917
2.90097
2.40557
1.75332
0.851236
5.83681
5.55746
5.31107
5.08887
4.88485
4.69386
4.51124
4.33181
4.15116
3.96325
3.76334
3.54624
3.30366
3.02652
2.70569
2.32533
1.86525
1.29668
0.565568
5.79324
5.44713
5.14605
4.87721
4.63243
4.40538
4.19068
3.9828
3.77712
3.56773
3.35008
3.11942
2.86854
2.59012
2.27741
1.9192
1.50245
1.01043
0.411209
5.76382
5.36508
5.01794
4.70889
4.42888
4.17103
3.92955
3.69879
3.47405
3.24958
3.02109
2.78412
2.53234
2.25962
1.96078
1.62753
1.25115
0.821653
0.319599
5.74939
5.31399
4.93
4.58672
4.27593
3.991
3.72617
3.47585
3.23541
2.9993
2.76337
2.52342
2.27367
2.00879
1.72455
1.41445
1.0723
0.691926
0.26097
5.7469
5.29029
4.87889
4.50723
4.16953
3.86027
3.57424
3.30619
3.05168
2.80538
2.56332
2.32141
2.07427
1.81704
1.546
1.25578
0.941625
0.599507
0.221151
5.75335
5.28886
4.85898
4.46461
4.1035
3.77211
3.46627
3.18138
2.91337
2.65722
2.40911
2.16506
1.91993
1.66913
1.4092
1.1354
0.843833
0.531623
0.192866
5.76223
5.29874
4.85826
4.44691
4.06622
3.71509
3.39089
3.08996
2.80883
2.54287
2.28849
2.04181
1.79787
1.55221
1.30148
1.04127
0.768131
0.479809
0.171811
5.76959
5.31101
4.86566
4.44251
4.04619
3.67809
3.33732
3.02143
2.72774
2.45216
2.19139
1.94171
1.69829
1.45676
1.21376
0.965044
0.70736
0.438718
0.15545
5.7788
5.32773
4.88097
4.44958
4.04062
3.65772
3.30179
2.97175
2.66584
2.38062
2.11318
1.86
1.61637
1.37797
1.14137
0.902354
0.65771
0.405487
0.142438
5.7877
5.3456
4.89978
4.4628
4.04366
3.64794
3.27827
2.93497
2.6173
2.32257
2.04834
1.79134
1.54699
1.31101
1.07984
0.849237
0.615889
0.377743
0.131743
5.79355
5.35946
4.91578
4.47527
4.04818
3.64163
3.25984
2.90446
2.57584
2.27211
1.99134
1.73055
1.48537
1.2515
1.02529
0.802347
0.579222
0.353652
0.122603
5.79868
5.37121
4.92969
4.48665
4.05299
3.63705
3.24437
2.87788
2.53901
2.22672
1.93965
1.67519
1.42913
1.19721
0.97564
0.759872
0.546234
0.332182
0.114581
5.80369
5.38209
4.94239
4.49711
4.05762
3.63317
3.23046
2.85358
2.50499
2.18449
1.89135
1.6233
1.37638
1.14634
0.929253
0.720376
0.515764
0.31253
0.107347
5.80742
5.39066
4.95238
4.50494
4.06007
3.62779
3.21577
2.82915
2.47138
2.14308
1.84415
1.57273
1.32508
1.09701
0.884459
0.682446
0.48671
0.293964
0.100614
5.81029
5.3973
4.95992
4.51022
4.06018
3.62044
3.19958
2.80369
2.43712
2.10133
1.79683
1.52219
1.27394
1.04797
0.840074
0.645051
0.458263
0.275953
0.094175
5.81485
5.40604
4.96931
4.51703
4.06159
3.61426
3.18444
2.77918
2.40368
2.06024
1.74996
1.47189
1.22284
0.998823
0.79556
0.607602
0.429907
0.258151
0.0879042
5.82017
5.41644
4.98053
4.52556
4.0645
3.60935
3.17035
2.75546
2.37075
2.01931
1.70288
1.42099
1.17079
0.948469
0.749719
0.568932
0.400665
0.239925
0.081597
5.82424
5.4255
4.99063
4.53307
4.06644
3.60346
3.15524
2.73062
2.33654
1.97686
1.65398
1.3679
1.11617
0.895197
0.70078
0.527283
0.368995
0.220243
0.0749231
5.8282
5.43415
5.0003
4.54018
4.06792
3.59703
3.13943
2.70485
2.30105
1.93269
1.6028
1.31193
1.058
0.837722
0.647097
0.48068
0.332819
0.197454
0.0673087
5.83257
5.44321
5.01023
4.54739
4.06935
3.59033
3.12307
2.67814
2.2641
1.88639
1.54871
1.25214
0.995044
0.774439
0.586585
0.426405
0.288792
0.168213
0.0571462
5.83703
5.45216
5.01968
4.55375
4.0696
3.58215
3.10491
2.64923
2.22439
1.83657
1.49015
1.18679
0.925341
0.703121
0.516589
0.360993
0.232042
0.125857
0.0380778
5.84385
5.46946
5.04488
4.58419
4.10257
3.61497
3.13506
2.67442
2.24276
1.84681
1.49172
1.18001
0.911319
0.683545
0.493518
0.336599
0.208742
0.106872
0.0286036
5.85124
5.49105
5.08023
4.63225
4.16156
3.68241
3.20793
2.74935
2.31632
1.91582
1.55359
1.2331
0.955127
0.718578
0.520938
0.35773
0.224507
0.11747
0.0331226
5.85472
5.50305
5.10189
4.66404
4.20318
3.7327
3.26495
2.8105
2.37856
1.97598
1.60871
1.28098
0.994585
0.749604
0.544461
0.375069
0.236813
0.125341
0.0363206
5.85431
5.50505
5.10908
4.67849
4.22609
3.76428
3.30437
2.85603
2.42765
2.02561
1.65573
1.3226
1.02892
0.77601
0.56355
0.388189
0.245405
0.130437
0.0382727
5.85126
5.49968
5.10541
4.67991
4.23501
3.78198
3.33095
2.89042
2.46779
2.06866
1.69837
1.36154
1.06148
0.800735
0.580556
0.398824
0.251519
0.133608
0.0393818
5.84574
5.48859
5.09394
4.6724
4.23472
3.79091
3.3498
2.91866
2.50375
2.10968
1.74108
1.40221
1.09658
0.827734
0.598688
0.409188
0.25645
0.135536
0.0399091
5.8387
5.47466
5.07893
4.66115
4.23092
3.79699
3.36685
2.94648
2.541
2.15397
1.78912
1.45004
1.13989
0.862683
0.622991
0.422967
0.262238
0.137024
0.0400701
5.83267
5.46221
5.06564
4.65195
4.22968
3.8063
3.38802
2.97958
2.58501
2.20689
1.84803
1.51107
1.19834
0.91341
0.661548
0.447112
0.27326
0.139606
0.0399368
5.82661
5.45006
5.05331
4.64457
4.23124
3.81952
3.41433
3.01931
2.63751
2.27066
1.92076
1.58958
1.27824
0.989021
0.726354
0.495083
0.301229
0.149678
0.0397006
5.8204
5.43846
5.04267
4.6402
4.23719
3.83852
3.44791
3.06798
2.70099
2.34803
2.01057
1.68978
1.38585
1.09958
0.833384
0.590065
0.374757
0.194703
0.0543938
5.81312
5.42398
5.02711
4.6287
4.23359
3.84546
3.46696
3.09987
2.74583
2.4055
2.08006
1.77049
1.47667
1.19875
0.937614
0.693362
0.467145
0.262392
0.0820663
5.80169
5.39765
4.99215
4.59003
4.19484
3.80915
3.43473
3.07262
2.72397
2.38902
2.06878
1.7641
1.47489
1.20138
0.944607
0.70448
0.481429
0.276826
0.0902192
5.78713
5.36351
4.9452
4.53518
4.13561
3.748
3.37329
3.01192
2.66459
2.3312
2.01263
1.7097
1.4224
1.15122
0.897681
0.662328
0.446482
0.252478
0.0805337
5.77437
5.33381
4.90453
4.48782
4.08462
3.69551
3.32076
2.96031
2.61451
2.28305
1.96671
1.66634
1.38201
1.11437
0.865142
0.635054
0.425563
0.239063
0.0757284
5.76467
5.31063
4.87241
4.45017
4.0439
3.65352
3.27873
2.91908
2.57467
2.24502
1.93083
1.63298
1.35151
1.08715
0.841692
0.615893
0.411227
0.2301
0.0726438
5.75708
5.29254
4.84742
4.42091
4.01233
3.62102
3.24629
2.88737
2.54418
2.21609
1.90376
1.60803
1.32895
1.06723
0.824719
0.602158
0.401035
0.223775
0.0704986
5.75154
5.27943
4.82942
4.40001
3.98991
3.59806
3.22347
2.86517
2.52293
2.19603
1.88509
1.59092
1.31355
1.05369
0.813211
0.592849
0.394112
0.219462
0.069029
5.74741
5.2707
4.81813
4.38738
3.97672
3.58483
3.21054
2.85276
2.51122
2.18512
1.87507
1.58186
1.30551
1.04674
0.807388
0.588215
0.390721
0.217383
0.0683396
5.74742
5.27072
4.81816
4.38741
3.97675
3.58486
3.21057
2.8528
2.51125
2.18515
1.87509
1.58188
1.30553
1.04675
0.807403
0.588226
0.390729
0.217388
0.0683412
5.75156
5.27948
4.8295
4.40009
3.99
3.59816
3.22357
2.86526
2.52303
2.19612
1.88517
1.59099
1.31362
1.05375
0.813261
0.592889
0.394141
0.21948
0.0690352
5.75711
5.29263
4.84753
4.42105
4.01248
3.62118
3.24645
2.88752
2.54433
2.21623
1.90389
1.60814
1.32905
1.06732
0.824791
0.602215
0.401076
0.2238
0.0705067
5.76472
5.31074
4.87257
4.45035
4.0441
3.65372
3.27894
2.91928
2.57486
2.2452
1.931
1.63312
1.35164
1.08725
0.84178
0.61596
0.411274
0.230128
0.0726529
5.77443
5.33394
4.90472
4.48804
4.08486
3.69576
3.32101
2.96055
2.61474
2.28326
1.9669
1.66652
1.38216
1.11449
0.865239
0.635126
0.425612
0.239091
0.0757368
5.78719
5.36366
4.94541
4.53543
4.13589
3.74829
3.37358
3.0122
2.66485
2.33145
2.01284
1.70988
1.42255
1.15134
0.897766
0.662383
0.446512
0.252489
0.0805343
5.80175
5.39781
4.99238
4.59031
4.19515
3.80947
3.43504
3.07292
2.72425
2.38927
2.069
1.76428
1.47501
1.20145
0.944626
0.704453
0.481372
0.276766
0.090188
5.8132
5.42422
5.02749
4.6292
4.2342
3.84614
3.46771
3.10068
2.74669
2.40638
2.08097
1.77141
1.4776
1.19969
0.938546
0.694269
0.467974
0.263034
0.0823512
5.8205
5.43874
5.04312
4.64081
4.23795
3.8394
3.4489
3.06906
2.70215
2.34926
2.01184
1.69109
1.38717
1.10089
0.834643
0.591205
0.375686
0.19532
0.0546204
5.82669
5.4503
5.0537
4.6451
4.2319
3.82028
3.41519
3.02025
2.63851
2.2717
1.92183
1.59064
1.27928
0.989998
0.727215
0.49577
0.301693
0.14991
0.0397445
5.83274
5.46242
5.066
4.65244
4.23029
3.80702
3.38882
2.98046
2.58594
2.20784
1.84899
1.51201
1.19922
0.914194
0.662194
0.447586
0.273555
0.139749
0.039974
5.83876
5.47485
5.07926
4.6616
4.23149
3.79766
3.3676
2.9473
2.54185
2.15484
1.78999
1.45086
1.14064
0.863325
0.623497
0.423327
0.262462
0.13714
0.0401037
5.84579
5.48876
5.09424
4.67282
4.23524
3.79153
3.3505
2.91942
2.50454
2.11048
1.74185
1.40293
1.09722
0.828273
0.599106
0.409485
0.25664
0.135638
0.0399405
5.8513
5.49983
5.10567
4.68028
4.23549
3.78255
3.33159
2.89111
2.46851
2.06938
1.69906
1.36218
1.06204
0.801199
0.580915
0.399083
0.251689
0.133703
0.0394124
5.85435
5.50518
5.10931
4.67883
4.22653
3.7648
3.30496
2.85666
2.4283
2.02626
1.65635
1.32317
1.02941
0.776417
0.563868
0.388423
0.245564
0.130529
0.0383042
5.85475
5.50316
5.10209
4.66434
4.20357
3.73317
3.26547
2.81107
2.37915
1.97656
1.60927
1.28149
0.995025
0.749969
0.544751
0.375288
0.236967
0.125436
0.0363554
5.85126
5.49114
5.08041
4.63251
4.1619
3.68282
3.2084
2.74986
2.31684
1.91635
1.55408
1.23356
0.955522
0.718911
0.52121
0.357943
0.224665
0.117573
0.0331643
5.84385
5.46947
5.04491
4.58425
4.10265
3.61507
3.13517
2.67454
2.24289
1.84693
1.49182
1.18009
0.91137
0.683572
0.493523
0.336587
0.20872
0.106849
0.0285918
5.83701
5.45213
5.01963
4.55368
4.06951
3.58204
3.10479
2.6491
2.22426
1.83643
1.49002
1.18665
0.925213
0.703
0.516477
0.360894
0.23196
0.125799
0.0380526
5.83257
5.4432
5.01021
4.54737
4.06933
3.5903
3.12304
2.67811
2.26408
1.88637
1.5487
1.25213
0.995042
0.774441
0.586591
0.426413
0.288802
0.16822
0.0571487
5.8282
5.43414
5.00028
4.54016
4.0679
3.59701
3.13941
2.70483
2.30103
1.93268
1.6028
1.31193
1.058
0.837726
0.647103
0.480687
0.332825
0.197458
0.0673099
5.82424
5.42549
4.99062
4.53306
4.06642
3.60344
3.15523
2.73061
2.33653
1.97685
1.65397
1.3679
1.11617
0.895201
0.700784
0.527288
0.368999
0.220245
0.0749238
5.82016
5.41643
4.98052
4.52555
4.06449
3.60934
3.17034
2.75545
2.37074
2.0193
1.70288
1.421
1.1708
0.948473
0.749723
0.568936
0.400668
0.239927
0.0815975
5.81485
5.40604
4.9693
4.51703
4.06158
3.61425
3.18444
2.77917
2.40368
2.06023
1.74996
1.47189
1.22284
0.998826
0.795563
0.607604
0.429909
0.258152
0.0879045
5.81029
5.3973
4.95992
4.51021
4.06017
3.62044
3.19957
2.80368
2.43711
2.10133
1.79683
1.52219
1.27394
1.04797
0.840076
0.645053
0.458264
0.275954
0.0941752
5.80742
5.39066
4.95237
4.50493
4.06007
3.62778
3.21576
2.82915
2.47138
2.14308
1.84415
1.57273
1.32508
1.09701
0.88446
0.682447
0.486711
0.293965
0.100614
5.80369
5.38209
4.94239
4.49711
4.05762
3.63316
3.23046
2.85358
2.50499
2.18449
1.89135
1.62331
1.37638
1.14634
0.929254
0.720377
0.515764
0.312531
0.107347
5.79868
5.37121
4.92969
4.48665
4.05299
3.63705
3.24437
2.87789
2.53901
2.22672
1.93965
1.67519
1.42913
1.19721
0.97564
0.759872
0.546234
0.332182
0.114581
5.79355
5.35946
4.91578
4.47527
4.04818
3.64163
3.25984
2.90446
2.57584
2.27211
1.99134
1.73055
1.48537
1.2515
1.02529
0.802347
0.579222
0.353652
0.122603
5.7877
5.3456
4.89978
4.4628
4.04366
3.64794
3.27827
2.93497
2.6173
2.32257
2.04834
1.79133
1.54699
1.311
1.07984
0.849237
0.615888
0.377743
0.131743
5.7788
5.32773
4.88097
4.44958
4.04062
3.65772
3.30179
2.97175
2.66584
2.38062
2.11318
1.86
1.61637
1.37797
1.14137
0.902353
0.65771
0.405487
0.142438
5.76959
5.31101
4.86566
4.44251
4.0462
3.67809
3.33732
3.02143
2.72774
2.45216
2.19139
1.94171
1.69829
1.45676
1.21376
0.965044
0.70736
0.438719
0.15545
5.76223
5.29874
4.85827
4.44691
4.06622
3.71509
3.39089
3.08996
2.80883
2.54287
2.28849
2.04181
1.79786
1.55221
1.30148
1.04127
0.768131
0.479809
0.171811
5.75335
5.28886
4.85898
4.46461
4.1035
3.77211
3.46627
3.18138
2.91337
2.65722
2.40911
2.16506
1.91993
1.66913
1.4092
1.1354
0.843833
0.531623
0.192866
5.7469
5.29029
4.87889
4.50723
4.16952
3.86027
3.57423
3.30618
3.05167
2.80538
2.56332
2.32141
2.07427
1.81704
1.546
1.25578
0.941626
0.599507
0.221151
5.74939
5.31399
4.93
4.58671
4.27593
3.991
3.72616
3.47585
3.23541
2.99929
2.76337
2.52341
2.27367
2.00879
1.72455
1.41445
1.0723
0.691927
0.26097
5.76382
5.36507
5.01794
4.70888
4.42888
4.17103
3.92955
3.69878
3.47404
3.24958
3.02109
2.78412
2.53234
2.25961
1.96077
1.62753
1.25115
0.821654
0.319599
5.79324
5.44713
5.14605
4.87721
4.63243
4.40537
4.19067
3.98279
3.77711
3.56772
3.35008
3.11941
2.86854
2.59012
2.27741
1.9192
1.50245
1.01043
0.411209
5.83681
5.55746
5.31107
5.08887
4.88485
4.69386
4.51124
4.33181
4.15115
3.96325
3.76334
3.54624
3.30365
3.02652
2.70568
2.32533
1.86525
1.29668
0.565567
5.88913
5.68682
5.50299
5.33448
5.1781
5.03021
4.88717
4.74439
4.59793
4.44191
4.27152
4.08132
3.86182
3.60192
3.28916
2.90097
2.40557
1.75332
0.851235
5.94199
5.82182
5.70729
5.6
5.49927
5.40305
5.30899
5.21354
5.11372
5.00445
4.88152
4.73987
4.56967
4.35846
4.09041
3.73459
3.24246
2.53005
1.43823
5.9866
5.94805
5.90824
5.86985
5.8334
5.79829
5.76366
5.72782
5.68957
5.64609
5.59523
5.53406
5.45572
5.35033
5.20226
4.97619
4.60601
3.95942
2.77143
)
;

boundaryField
{
    up
    {
        type            fixedValue;
        value           uniform 0;
    }
    low
    {
        type            fixedValue;
        value           uniform 6;
    }
    left
    {
        type            fixedValue;
        value           uniform 6;
    }
    right
    {
        type            fixedValue;
        value           uniform 6;
    }
    frontAndBackPlanes
    {
        type            empty;
    }
}


// ************************************************************************* //
