/*--------------------------------*- C++ -*----------------------------------*\
  =========                 |
  \\      /  F ield         | OpenFOAM: The Open Source CFD Toolbox
   \\    /   O peration     | Website:  https://openfoam.org
    \\  /    A nd           | Version:  7
     \\/     M anipulation  |
\*---------------------------------------------------------------------------*/
FoamFile
{
    version     2.0;
    format      ascii;
    class       volScalarField;
    location    "0.17";
    object      gradTy;
}
// * * * * * * * * * * * * * * * * * * * * * * * * * * * * * * * * * * * * * //

dimensions      [0 -1 0 1 0 0 0];

internalField   nonuniform List<scalar> 
1596
(
-0.112939
-0.208968
-0.28604
-0.357835
-0.423845
-0.492882
-0.560477
-0.636498
-0.724277
-0.82614
-0.967619
-1.14791
-1.40121
-1.7669
-2.34249
-3.2467
-4.86966
-7.86875
-18.5876
-0.343049
-0.420569
-0.469792
-0.511786
-0.548981
-0.591702
-0.636637
-0.69322
-0.764992
-0.852457
-0.977374
-1.1368
-1.35383
-1.64629
-2.06442
-2.63268
-3.48156
-4.73131
-8.27843
-0.611349
-0.633868
-0.641859
-0.649336
-0.656276
-0.671846
-0.692631
-0.727123
-0.778159
-0.845011
-0.945875
-1.07572
-1.25072
-1.47897
-1.79113
-2.19001
-2.74669
-3.51087
-5.1477
-0.889161
-0.839121
-0.799516
-0.77044
-0.746911
-0.735282
-0.731548
-0.742801
-0.771055
-0.814781
-0.889059
-0.987802
-1.12261
-1.29664
-1.52955
-1.81576
-2.1973
-2.6936
-3.54077
-1.14108
-1.02456
-0.939978
-0.876063
-0.823656
-0.785962
-0.758502
-0.746787
-0.752156
-0.772677
-0.820753
-0.890189
-0.989512
-1.11949
-1.29343
-1.50307
-1.7751
-2.11541
-2.61007
-1.33653
-1.17923
-1.06066
-0.967492
-0.889752
-0.828393
-0.779025
-0.745703
-0.729345
-0.727951
-0.751619
-0.794677
-0.863492
-0.957763
-1.08691
-1.24244
-1.44229
-1.68632
-2.0069
-1.46053
-1.29501
-1.15876
-1.04517
-0.947457
-0.866027
-0.797418
-0.744633
-0.708464
-0.687128
-0.688753
-0.708528
-0.751238
-0.816167
-0.9102
-1.0256
-1.17492
-1.3555
-1.57972
-1.51527
-1.36752
-1.23066
-1.10733
-0.996497
-0.899699
-0.815298
-0.745835
-0.692309
-0.653392
-0.635582
-0.635074
-0.655456
-0.695916
-0.761578
-0.84581
-0.957607
-1.09354
-1.25808
-1.51559
-1.40389
-1.28041
-1.15728
-1.03997
-0.932483
-0.835624
-0.752145
-0.683574
-0.62924
-0.594385
-0.576218
-0.577416
-0.597216
-0.639437
-0.698559
-0.781071
-0.883521
-1.00711
-1.47358
-1.3994
-1.29804
-1.1843
-1.06806
-0.955903
-0.851237
-0.757589
-0.677276
-0.61044
-0.561467
-0.528514
-0.513616
-0.516128
-0.538906
-0.577475
-0.636548
-0.71303
-0.806754
-1.42438
-1.37584
-1.29588
-1.1953
-1.08473
-0.972303
-0.863508
-0.762877
-0.673644
-0.596852
-0.536386
-0.491255
-0.46306
-0.451292
-0.45806
-0.479766
-0.519785
-0.575455
-0.646051
-1.36615
-1.34337
-1.28345
-1.19686
-1.09415
-0.984132
-0.873743
-0.768483
-0.672512
-0.587776
-0.517952
-0.462796
-0.423641
-0.400112
-0.393737
-0.401617
-0.426101
-0.464936
-0.517197
-1.29582
-1.29569
-1.25486
-1.1829
-1.08989
-0.984901
-0.875696
-0.768596
-0.66856
-0.578359
-0.501687
-0.438927
-0.391291
-0.358537
-0.341765
-0.338635
-0.350734
-0.376184
-0.41402
-1.23505
-1.24705
-1.22061
-1.16135
-1.0777
-0.978475
-0.871739
-0.764423
-0.66211
-0.568262
-0.486718
-0.418361
-0.364368
-0.32461
-0.299861
-0.288189
-0.290605
-0.305525
-0.332015
-1.18008
-1.20152
-1.18559
-1.13638
-1.06077
-0.967002
-0.863115
-0.756432
-0.653005
-0.556844
-0.471979
-0.399674
-0.341116
-0.296254
-0.265607
-0.247527
-0.242587
-0.249419
-0.267145
-1.12683
-1.1577
-1.15042
-1.10921
-1.04017
-0.951134
-0.850009
-0.74438
-0.640635
-0.543206
-0.456305
-0.381473
-0.319911
-0.271608
-0.23687
-0.214235
-0.203937
-0.204761
-0.215889
-1.07931
-1.11673
-1.11632
-1.08135
-1.01737
-0.93204
-0.833181
-0.728605
-0.624961
-0.52699
-0.439057
-0.362875
-0.299635
-0.249316
-0.212033
-0.186422
-0.172445
-0.168991
-0.175289
-1.03828
-1.08049
-1.08539
-1.05512
-0.994761
-0.911905
-0.814477
-0.710528
-0.606966
-0.508784
-0.420444
-0.343755
-0.279847
-0.228638
-0.190045
-0.162727
-0.146421
-0.140067
-0.142928
-0.996566
-1.0483
-1.05925
-1.03314
-0.975403
-0.893881
-0.796851
-0.692733
-0.588768
-0.490216
-0.401607
-0.324799
-0.260813
-0.209448
-0.170401
-0.142293
-0.124647
-0.116419
-0.116886
-0.952569
-1.01582
-1.0343
-1.01274
-0.957362
-0.876608
-0.779361
-0.674568
-0.569903
-0.470923
-0.382221
-0.305666
-0.242129
-0.191241
-0.152448
-0.12428
-0.106059
-0.0967393
-0.0956074
-0.914782
-0.986533
-1.01237
-0.995427
-0.942139
-0.861593
-0.76346
-0.657374
-0.551547
-0.451891
-0.363062
-0.286916
-0.224136
-0.174137
-0.136082
-0.108346
-0.0900484
-0.0801337
-0.0779327
-0.88078
-0.960879
-0.993861
-0.981538
-0.930232
-0.84956
-0.750061
-0.642167
-0.534734
-0.434092
-0.344977
-0.269231
-0.207326
-0.158435
-0.121404
-0.0943872
-0.0762513
-0.0659125
-0.0628624
-0.848543
-0.938028
-0.978436
-0.970873
-0.921587
-0.840675
-0.739565
-0.629547
-0.520193
-0.418303
-0.328713
-0.253266
-0.192219
-0.144506
-0.108647
-0.0825095
-0.0645882
-0.053586
-0.049299
-0.818969
-0.917831
-0.965354
-0.961972
-0.914075
-0.832207
-0.72888
-0.616199
-0.504538
-0.401239
-0.311061
-0.235994
-0.176002
-0.129781
-0.0954908
-0.0707439
-0.053432
-0.0415551
-0.0336057
-0.794329
-0.901988
-0.958373
-0.962754
-0.921234
-0.843891
-0.743471
-0.632099
-0.520516
-0.416556
-0.324956
-0.24825
-0.186426
-0.138474
-0.102606
-0.0766378
-0.0581419
-0.0448081
-0.0340646
-0.776567
-0.889817
-0.952251
-0.963253
-0.928342
-0.856814
-0.760929
-0.652452
-0.542089
-0.437964
-0.344896
-0.265939
-0.201363
-0.150524
-0.111905
-0.0837255
-0.0636654
-0.0497145
-0.0397137
-0.775145
-0.889286
-0.954169
-0.969179
-0.939221
-0.872924
-0.781717
-0.676836
-0.568636
-0.46519
-0.371415
-0.290572
-0.22321
-0.169052
-0.127007
-0.0957464
-0.0732401
-0.057636
-0.0468009
-0.792031
-0.902171
-0.965033
-0.980316
-0.952573
-0.889842
-0.802658
-0.701518
-0.596174
-0.494389
-0.400935
-0.319098
-0.249516
-0.19216
-0.146356
-0.11137
-0.0856457
-0.0676278
-0.0551737
-0.824937
-0.928165
-0.985388
-0.997753
-0.969815
-0.909092
-0.825225
-0.727826
-0.625872
-0.52663
-0.434529
-0.352727
-0.281734
-0.221548
-0.171745
-0.132265
-0.102266
-0.0808077
-0.0658469
-0.872499
-0.964604
-1.0131
-1.02016
-0.990294
-0.930464
-0.849445
-0.755878
-0.657867
-0.562083
-0.472487
-0.39204
-0.320939
-0.25891
-0.205387
-0.160814
-0.125232
-0.0988678
-0.0801708
-0.933513
-1.01087
-1.04889
-1.04927
-1.01632
-0.956542
-0.877897
-0.788046
-0.694209
-0.602444
-0.516234
-0.438399
-0.368784
-0.306616
-0.250586
-0.201003
-0.158428
-0.124889
-0.100345
-0.997851
-1.06265
-1.0903
-1.08353
-1.04704
-0.986933
-0.910464
-0.824327
-0.734872
-0.647584
-0.565515
-0.491527
-0.425335
-0.365767
-0.310306
-0.258075
-0.208519
-0.164895
-0.130453
-1.07005
-1.12138
-1.13781
-1.12322
-1.08265
-1.02183
-0.947282
-0.864745
-0.779705
-0.697073
-0.619503
-0.550098
-0.488867
-0.434918
-0.384938
-0.33658
-0.285678
-0.232883
-0.179257
-1.15351
-1.18947
-1.19388
-1.17122
-1.12664
-1.06542
-0.993228
-0.914849
-0.834883
-0.757609
-0.685383
-0.621442
-0.566509
-0.520938
-0.482451
-0.449335
-0.415416
-0.377622
-0.331998
-1.24475
-1.2637
-1.25338
-1.21978
-1.16821
-1.10359
-1.03065
-0.953413
-0.875625
-0.800696
-0.73077
-0.668522
-0.615035
-0.571428
-0.537488
-0.513925
-0.49813
-0.488126
-0.479934
-1.34676
-1.34323
-1.3149
-1.26805
-1.20748
-1.13752
-1.06199
-0.98432
-0.907608
-0.834508
-0.767105
-0.707329
-0.656168
-0.614365
-0.582114
-0.559763
-0.54691
-0.543678
-0.54991
-1.45857
-1.42836
-1.38129
-1.32139
-1.25212
-1.17685
-1.09861
-1.02027
-0.944413
-0.873224
-0.808579
-0.751948
-0.704052
-0.665209
-0.635222
-0.613376
-0.598459
-0.589066
-0.583563
-1.55894
-1.50453
-1.44053
-1.36875
-1.29142
-1.21103
-1.12996
-1.05052
-0.974873
-0.904791
-0.841822
-0.787135
-0.741185
-0.704056
-0.67539
-0.65439
-0.639867
-0.630574
-0.625075
-1.63832
-1.56735
-1.49074
-1.40976
-1.32608
-1.24162
-1.15832
-1.07804
-1.00258
-0.933416
-0.871837
-0.818797
-0.774576
-0.739133
-0.712049
-0.692483
-0.679266
-0.67117
-0.666784
-1.70078
-1.61718
-1.53091
-1.44286
-1.35429
-1.26672
-1.1817
-1.10076
-1.02546
-0.956998
-0.896508
-0.844776
-0.80197
-0.767955
-0.742273
-0.724039
-0.712091
-0.7052
-0.701971
-1.74599
-1.653
-1.5595
-1.46628
-1.37423
-1.28448
-1.19829
-1.11692
-1.04175
-0.973811
-0.914115
-0.863343
-0.821583
-0.788644
-0.764029
-0.746812
-0.735812
-0.729777
-0.727298
-1.77597
-1.67359
-1.57476
-1.47832
-1.38431
-1.29341
-1.20664
-1.12511
-1.05005
-0.982431
-0.923194
-0.87297
-0.831811
-0.799501
-0.775538
-0.75899
-0.748686
-0.743373
-0.741641
-1.77598
-1.67361
-1.57478
-1.47834
-1.38433
-1.29344
-1.20667
-1.12513
-1.05008
-0.982459
-0.923223
-0.873
-0.831842
-0.799534
-0.775573
-0.759026
-0.748725
-0.743413
-0.741683
-1.746
-1.65304
-1.55955
-1.46633
-1.37429
-1.28454
-1.19835
-1.117
-1.04183
-0.97389
-0.914197
-0.863429
-0.821674
-0.78874
-0.764131
-0.746921
-0.735931
-0.729905
-0.727438
-1.70079
-1.61723
-1.53098
-1.44294
-1.35439
-1.26682
-1.18181
-1.10088
-1.02558
-0.957125
-0.896641
-0.844915
-0.802115
-0.768109
-0.742436
-0.724213
-0.712278
-0.7054
-0.702186
-1.63834
-1.56741
-1.49083
-1.40986
-1.3262
-1.24175
-1.15846
-1.07819
-1.00274
-0.93358
-0.872009
-0.818976
-0.774763
-0.739328
-0.712254
-0.692699
-0.679494
-0.671412
-0.667041
-1.55897
-1.5046
-1.44063
-1.36887
-1.29156
-1.21118
-1.13013
-1.0507
-0.975062
-0.904988
-0.842028
-0.78735
-0.741408
-0.704288
-0.675632
-0.654642
-0.640131
-0.630852
-0.625368
-1.45861
-1.42844
-1.3814
-1.32152
-1.25227
-1.17702
-1.0988
-1.02047
-0.944625
-0.873445
-0.80881
-0.752186
-0.704299
-0.665462
-0.635481
-0.613639
-0.598727
-0.589336
-0.583836
-1.34679
-1.34332
-1.31504
-1.26823
-1.20769
-1.13776
-1.06227
-0.984622
-0.907935
-0.834856
-0.767476
-0.707722
-0.656584
-0.614805
-0.582577
-0.560235
-0.547369
-0.544078
-0.550186
-1.24477
-1.26372
-1.25341
-1.21982
-1.16828
-1.10368
-1.03076
-0.953535
-0.875757
-0.800829
-0.730897
-0.66863
-0.615113
-0.571465
-0.537484
-0.513893
-0.498134
-0.488285
-0.480435
-1.15352
-1.18952
-1.19399
-1.17139
-1.12688
-1.06573
-0.993595
-0.915273
-0.835356
-0.758119
-0.685922
-0.622004
-0.567094
-0.521561
-0.483143
-0.450148
-0.416418
-0.378877
-0.333543
-1.07005
-1.12139
-1.13785
-1.1233
-1.08278
-1.02202
-0.947522
-0.865029
-0.780023
-0.697417
-0.619864
-0.550472
-0.489256
-0.435333
-0.385394
-0.337089
-0.286222
-0.233407
-0.179654
-0.997849
-1.06266
-1.09033
-1.0836
-1.04716
-0.987114
-0.910697
-0.824604
-0.735184
-0.64792
-0.565866
-0.491888
-0.425707
-0.366153
-0.310705
-0.258477
-0.208895
-0.16521
-0.130694
-0.933508
-1.01086
-1.04891
-1.04932
-1.01643
-0.956706
-0.878112
-0.788305
-0.694499
-0.602755
-0.516557
-0.438726
-0.369113
-0.306943
-0.250904
-0.201297
-0.158683
-0.125096
-0.100505
-0.872492
-0.964593
-1.0131
-1.02021
-0.990388
-0.930611
-0.849642
-0.756116
-0.658135
-0.562367
-0.472777
-0.392329
-0.32122
-0.259178
-0.205634
-0.161031
-0.125412
-0.0990131
-0.0802866
-0.824927
-0.928147
-0.985385
-0.997785
-0.969895
-0.909222
-0.825403
-0.728042
-0.626114
-0.526885
-0.434785
-0.352976
-0.28197
-0.221765
-0.171937
-0.132428
-0.102399
-0.0809154
-0.0659351
-0.792022
-0.902151
-0.965026
-0.980341
-0.952642
-0.889957
-0.802817
-0.70171
-0.596389
-0.494613
-0.401157
-0.319309
-0.249711
-0.192334
-0.146506
-0.111495
-0.0857475
-0.0677114
-0.0552449
-0.775135
-0.889266
-0.95416
-0.969198
-0.939279
-0.873025
-0.781856
-0.677004
-0.568822
-0.465382
-0.371603
-0.290749
-0.22337
-0.169192
-0.127125
-0.0958443
-0.0733206
-0.0577043
-0.0468629
-0.776557
-0.889796
-0.952236
-0.963258
-0.928377
-0.856882
-0.761028
-0.652573
-0.542224
-0.438103
-0.345031
-0.266064
-0.201475
-0.15062
-0.111985
-0.0837908
-0.0637193
-0.049763
-0.0397668
-0.794343
-0.901995
-0.958384
-0.962774
-0.921268
-0.843938
-0.743531
-0.63217
-0.520595
-0.41664
-0.32504
-0.248332
-0.186503
-0.138545
-0.10267
-0.0766953
-0.0581927
-0.0448513
-0.034096
-0.818983
-0.917843
-0.965359
-0.961965
-0.914055
-0.832175
-0.728836
-0.616149
-0.504485
-0.401186
-0.311012
-0.235951
-0.175965
-0.129751
-0.0954661
-0.0707238
-0.0534146
-0.0415382
-0.0335838
-0.848552
-0.938035
-0.978442
-0.970876
-0.921587
-0.840674
-0.739563
-0.629544
-0.520191
-0.418302
-0.328714
-0.253268
-0.192222
-0.14451
-0.108651
-0.0825135
-0.0645923
-0.05359
-0.0493018
-0.880787
-0.960884
-0.993863
-0.981537
-0.930228
-0.849555
-0.750055
-0.642161
-0.534729
-0.434089
-0.344975
-0.269231
-0.207327
-0.158437
-0.121406
-0.0943898
-0.076254
-0.0659153
-0.0628646
-0.914787
-0.986537
-1.01237
-0.995425
-0.942135
-0.861589
-0.763455
-0.65737
-0.551544
-0.451889
-0.363061
-0.286916
-0.224136
-0.174138
-0.136083
-0.108348
-0.0900507
-0.080136
-0.0779347
-0.952572
-1.01582
-1.0343
-1.01273
-0.957359
-0.876605
-0.779357
-0.674565
-0.569901
-0.470922
-0.38222
-0.305666
-0.24213
-0.191242
-0.152449
-0.124281
-0.106061
-0.0967415
-0.0956094
-0.996569
-1.0483
-1.05925
-1.03314
-0.975401
-0.893878
-0.796849
-0.692731
-0.588767
-0.490215
-0.401606
-0.324798
-0.260813
-0.209448
-0.170402
-0.142294
-0.124649
-0.116422
-0.116888
-1.03828
-1.08049
-1.08539
-1.05512
-0.994758
-0.911903
-0.814475
-0.710527
-0.606965
-0.508784
-0.420443
-0.343754
-0.279847
-0.228638
-0.190045
-0.162729
-0.146423
-0.140069
-0.14293
-1.07931
-1.11673
-1.11632
-1.08135
-1.01737
-0.932039
-0.83318
-0.728604
-0.62496
-0.526989
-0.439056
-0.362874
-0.299635
-0.249316
-0.212034
-0.186423
-0.172447
-0.168993
-0.17529
-1.12683
-1.1577
-1.15042
-1.10921
-1.04017
-0.951134
-0.850009
-0.74438
-0.640635
-0.543205
-0.456303
-0.381472
-0.319911
-0.271607
-0.23687
-0.214237
-0.203938
-0.204762
-0.215889
-1.18008
-1.20152
-1.18559
-1.13638
-1.06077
-0.967003
-0.863116
-0.756432
-0.653004
-0.556843
-0.471978
-0.399673
-0.341115
-0.296254
-0.265607
-0.247528
-0.242588
-0.249419
-0.267144
-1.23505
-1.24705
-1.22061
-1.16135
-1.0777
-0.978476
-0.87174
-0.764423
-0.66211
-0.568261
-0.486717
-0.418359
-0.364367
-0.32461
-0.299861
-0.288189
-0.290605
-0.305524
-0.332013
-1.29582
-1.29568
-1.25486
-1.1829
-1.08989
-0.984903
-0.875697
-0.768596
-0.66856
-0.578358
-0.501685
-0.438926
-0.39129
-0.358536
-0.341765
-0.338635
-0.350732
-0.376181
-0.414017
-1.36614
-1.34337
-1.28345
-1.19686
-1.09415
-0.984133
-0.873744
-0.768483
-0.672511
-0.587775
-0.517951
-0.462796
-0.423641
-0.400111
-0.393736
-0.401616
-0.426097
-0.464931
-0.517193
-1.42438
-1.37584
-1.29588
-1.1953
-1.08473
-0.972304
-0.863509
-0.762877
-0.673644
-0.596852
-0.536385
-0.491255
-0.46306
-0.451291
-0.458059
-0.479763
-0.51978
-0.575448
-0.646047
-1.47358
-1.3994
-1.29804
-1.18431
-1.06806
-0.955904
-0.851238
-0.757589
-0.677276
-0.610439
-0.561467
-0.528514
-0.513616
-0.516127
-0.538904
-0.577471
-0.636542
-0.713022
-0.806752
-1.51559
-1.40389
-1.28041
-1.15728
-1.03997
-0.932484
-0.835625
-0.752145
-0.683574
-0.62924
-0.594386
-0.576218
-0.577416
-0.597215
-0.639434
-0.698555
-0.781064
-0.883515
-1.00711
-1.51528
-1.36753
-1.23067
-1.10734
-0.996499
-0.899699
-0.815299
-0.745836
-0.69231
-0.653393
-0.635583
-0.635075
-0.655455
-0.695914
-0.761575
-0.845805
-0.957602
-1.09353
-1.25808
-1.46054
-1.29502
-1.15877
-1.04517
-0.947458
-0.866028
-0.797419
-0.744634
-0.708465
-0.687129
-0.688754
-0.708529
-0.751238
-0.816165
-0.910197
-1.0256
-1.17492
-1.3555
-1.57972
-1.33654
-1.17923
-1.06066
-0.967494
-0.889754
-0.828395
-0.779027
-0.745706
-0.729347
-0.727953
-0.751621
-0.794677
-0.863491
-0.957761
-1.08691
-1.24244
-1.44229
-1.68632
-2.0069
-1.14109
-1.02456
-0.939981
-0.876066
-0.823659
-0.785965
-0.758505
-0.746789
-0.752158
-0.772679
-0.820754
-0.890189
-0.98951
-1.11949
-1.29343
-1.50306
-1.7751
-2.11542
-2.61008
-0.889166
-0.839123
-0.799518
-0.770443
-0.746913
-0.735284
-0.731551
-0.742804
-0.771058
-0.814783
-0.88906
-0.987801
-1.12261
-1.29664
-1.52955
-1.81576
-2.1973
-2.69361
-3.54077
-0.611353
-0.633869
-0.64186
-0.649338
-0.656278
-0.671849
-0.692634
-0.727125
-0.778161
-0.845013
-0.945876
-1.07572
-1.25072
-1.47897
-1.79113
-2.19
-2.7467
-3.51088
-5.1477
-0.343051
-0.420568
-0.469792
-0.511787
-0.548982
-0.591703
-0.636639
-0.693222
-0.764994
-0.852459
-0.977375
-1.1368
-1.35383
-1.64629
-2.06442
-2.63268
-3.48156
-4.73131
-8.27843
-0.112939
-0.208968
-0.28604
-0.357835
-0.423845
-0.492882
-0.560478
-0.636499
-0.724278
-0.82614
-0.967619
-1.14791
-1.40121
-1.7669
-2.34248
-3.2467
-4.86966
-7.86875
-18.5876
)
;

boundaryField
{
    up
    {
        type            calculated;
        value           nonuniform List<scalar> 
84
(
-16.8446
-9.12303
-5.59476
-3.80494
-2.78267
-2.12863
-1.67007
-1.3272
-1.06052
-0.848202
-0.677881
-0.541263
-0.431961
-0.345106
-0.276481
-0.222389
-0.179692
-0.145807
-0.118672
-0.0966353
-0.0784373
-0.0629475
-0.0485048
-0.0299533
-0.0288469
-0.0368978
-0.0437729
-0.0516292
-0.0615111
-0.0746638
-0.0928655
-0.118547
-0.160209
-0.325228
-0.490228
-0.556556
-0.581275
-0.623029
-0.665303
-0.701065
-0.726768
-0.741513
-0.741556
-0.726914
-0.701288
-0.665568
-0.62333
-0.581551
-0.556722
-0.490766
-0.327014
-0.160583
-0.118757
-0.0930114
-0.0747712
-0.0615941
-0.0516972
-0.0438333
-0.0369643
-0.0288847
-0.0299281
-0.0485064
-0.0629493
-0.0784391
-0.096637
-0.118674
-0.145808
-0.179693
-0.22239
-0.27648
-0.345105
-0.431959
-0.541261
-0.677879
-0.848202
-1.06053
-1.3272
-1.67008
-2.12864
-2.78268
-3.80494
-5.59476
-9.12303
-16.8446
)
;
    }
    low
    {
        type            calculated;
        value           nonuniform List<scalar> 
84
(
-0.121285
-0.358799
-0.645331
-0.945985
-1.21913
-1.42838
-1.55506
-1.60297
-1.58575
-1.52163
-1.46114
-1.39216
-1.30703
-1.23833
-1.1789
-1.11921
-1.06592
-1.02316
-0.977609
-0.924906
-0.880207
-0.84065
-0.801706
-0.765845
-0.73053
-0.707982
-0.70739
-0.731741
-0.774405
-0.834179
-0.906045
-0.977606
-1.05794
-1.15066
-1.24944
-1.36131
-1.48664
-1.5953
-1.67938
-1.74573
-1.79409
-1.82875
-1.82875
-1.7941
-1.74574
-1.67939
-1.59531
-1.48665
-1.36134
-1.24944
-1.15067
-1.05793
-0.977599
-0.906038
-0.834172
-0.774398
-0.731738
-0.707389
-0.707984
-0.730536
-0.765866
-0.801708
-0.840656
-0.880211
-0.924909
-0.977612
-1.02316
-1.06592
-1.11921
-1.1789
-1.23833
-1.30702
-1.39215
-1.46113
-1.52162
-1.58575
-1.60297
-1.55507
-1.42839
-1.21914
-0.945993
-0.645337
-0.358803
-0.121286
)
;
    }
    left
    {
        type            calculated;
        value           nonuniform List<scalar> 
19
(
-0.110832
-0.205191
-0.283885
-0.358207
-0.427143
-0.499142
-0.569835
-0.649565
-0.741731
-0.850111
-1.00139
-1.19584
-1.47227
-1.87783
-2.52182
-3.54989
-5.41607
-8.9046
-17.4703
)
;
    }
    right
    {
        type            calculated;
        value           nonuniform List<scalar> 
19
(
-0.110833
-0.205191
-0.283884
-0.358207
-0.427143
-0.499142
-0.569836
-0.649565
-0.741732
-0.850111
-1.00139
-1.19584
-1.47227
-1.87782
-2.52182
-3.54989
-5.41607
-8.9046
-17.4703
)
;
    }
    frontAndBackPlanes
    {
        type            empty;
    }
}


// ************************************************************************* //
