/*--------------------------------*- C++ -*----------------------------------*\
  =========                 |
  \\      /  F ield         | OpenFOAM: The Open Source CFD Toolbox
   \\    /   O peration     | Website:  https://openfoam.org
    \\  /    A nd           | Version:  7
     \\/     M anipulation  |
\*---------------------------------------------------------------------------*/
FoamFile
{
    version     2.0;
    format      ascii;
    class       volScalarField;
    location    "0.02";
    object      gradTz;
}
// * * * * * * * * * * * * * * * * * * * * * * * * * * * * * * * * * * * * * //

dimensions      [0 -1 0 1 0 0 0];

internalField   nonuniform List<scalar> 
1596
(
-3.2221e-16
-1.3432e-16
1.59665e-16
2.30443e-17
-2.61919e-16
0
-1.01399e-16
-1.00769e-16
-2.90438e-17
-6.31993e-17
7.93881e-20
-6.45328e-17
3.22636e-16
-6.73658e-17
2.95126e-16
2.64956e-16
1.60454e-16
2.24574e-16
0
2.9712e-16
0
2.98231e-16
-8.3756e-18
-5.83676e-17
6.25885e-17
1.8204e-16
2.60425e-17
7.73706e-17
-3.88508e-17
7.87137e-17
3.78699e-19
-1.04529e-16
-6.61762e-17
-2.34088e-16
-2.39717e-16
-2.28867e-16
1.42651e-16
0
-1.17457e-16
0
-1.48563e-16
1.1629e-17
8.6963e-17
-5.09937e-17
1.12881e-17
-1.94211e-19
-3.87998e-20
8.36537e-20
9.95686e-18
0
5.39311e-17
1.28594e-16
-1.27707e-17
1.34883e-17
2.86511e-17
6.82329e-17
0
2.24607e-16
-3.53847e-17
3.52555e-17
0
-2.49693e-17
-2.8815e-17
3.18128e-17
-1.42947e-17
0
0
-2.27786e-17
5.29787e-18
0
-3.08077e-17
-2.56792e-17
2.1177e-17
-4.25882e-17
-1.93562e-18
0
4.33998e-17
6.7735e-17
-3.02278e-17
0
-3.45225e-18
-1.36795e-17
0
1.69595e-17
-1.12908e-18
-1.10537e-18
-8.81399e-18
5.37228e-18
8.25775e-18
1.4266e-18
9.71251e-18
-2.26914e-17
9.3575e-19
1.10438e-17
-7.10753e-18
-1.12702e-17
-8.74122e-17
4.94898e-17
-2.49136e-17
-2.6906e-19
-6.50545e-18
1.36184e-19
-1.36636e-19
-2.57469e-18
0
-3.95893e-18
-6.78531e-18
-7.22706e-18
3.17082e-18
8.83068e-18
-8.78069e-20
-4.75241e-18
-1.12015e-17
1.06292e-17
9.41873e-17
-9.51434e-17
6.20191e-17
1.57931e-17
0
5.35325e-18
1.67715e-18
-6.08593e-19
3.02774e-18
-3.74512e-19
-2.78907e-18
-6.38467e-21
-8.75723e-19
-3.16005e-18
-1.32571e-18
1.54832e-18
4.79424e-18
-7.83972e-20
-3.36721e-18
3.23644e-17
1.64512e-16
-1.1244e-16
0
0
-5.96117e-18
0
0
0
4.28821e-19
0
0
9.37716e-19
-1.20365e-20
9.44642e-19
-1.45742e-18
0
7.74438e-19
6.15756e-19
0
-8.60609e-17
1.45037e-16
0
0
6.13918e-18
0
-3.90858e-19
3.90462e-19
-4.36477e-19
1.02981e-19
-1.03734e-19
0
1.40251e-19
4.65155e-19
0
-2.15972e-19
-7.83757e-19
-5.78019e-19
3.56738e-16
-1.44328e-16
0
-2.57475e-17
2.54593e-17
0
3.08546e-18
0
0
0
4.41574e-20
-4.43691e-20
0
-1.21016e-19
-1.80508e-20
0
1.46452e-19
8.06413e-20
0
-9.03957e-17
0
0
2.75483e-17
-4.00925e-17
7.2087e-18
2.4472e-18
-4.24574e-19
2.66067e-19
4.27851e-20
-5.89245e-20
-2.95985e-20
0
1.51267e-20
-5.81135e-21
5.89857e-21
5.91688e-20
-7.19526e-20
-2.46492e-20
2.96285e-17
-2.9104e-17
3.63226e-17
6.84498e-17
-1.48357e-17
-1.36461e-17
0
0
0
1.70192e-19
2.11844e-20
3.92948e-20
-8.82089e-21
-1.48561e-20
-2.96397e-21
-3.54576e-21
1.84901e-21
-6.62177e-21
2.21896e-20
-6.21136e-17
6.661e-17
-9.51642e-17
-6.82917e-17
4.82805e-17
6.20498e-18
-8.64002e-18
3.45647e-18
-1.29812e-18
2.83196e-19
5.92264e-20
-1.48596e-20
7.39364e-23
-1.46797e-21
6.03134e-21
0
-5.44651e-22
7.86228e-21
-1.59924e-21
-5.41242e-16
2.06414e-16
-2.76284e-19
-9.81436e-18
9.39232e-18
6.09286e-18
-9.51838e-18
-1.36419e-18
4.97419e-19
-1.71439e-19
-5.71505e-20
0
-1.07772e-20
-2.14718e-21
-1.05656e-21
-4.01236e-22
1.07929e-23
-1.66737e-21
1.14977e-21
8.79398e-17
-5.7202e-17
-6.51017e-19
-1.85901e-17
-2.19599e-17
1.69083e-17
1.60827e-19
1.32941e-18
-4.84303e-19
3.23073e-19
3.76857e-20
1.77717e-20
1.10496e-20
0
1.60758e-21
4.43531e-22
0
3.50753e-22
2.804e-22
0
5.54926e-17
1.71386e-17
-4.89198e-17
2.06756e-17
-2.10599e-17
8.36474e-18
8.00286e-19
-5.06633e-19
-4.32293e-19
1.55836e-20
-1.55067e-20
-9.32877e-21
1.31997e-21
-3.85537e-22
-3.71042e-22
5.41949e-23
-2.88158e-23
8.53768e-23
-8.06376e-17
1.64978e-16
-1.31962e-16
3.02202e-17
0
0
-5.93755e-19
1.80897e-18
-2.38852e-19
3.45295e-19
0
0
5.35578e-21
-2.48633e-21
-4.18532e-22
1.14406e-22
-4.55139e-23
2.09509e-23
0
2.73607e-17
7.58702e-17
-2.79768e-17
-1.5603e-17
-9.31813e-18
2.67955e-18
2.65795e-18
0
-1.90576e-19
-1.19072e-21
2.66446e-20
-8.14081e-21
2.43312e-21
0
2.13036e-22
1.44624e-22
0
0
0
-2.71637e-17
4.41664e-17
-7.67419e-18
-4.98504e-17
5.25314e-18
2.51564e-18
0
0
1.46701e-19
-9.47573e-20
-2.57711e-20
7.87365e-21
-2.35301e-21
0
-5.43278e-23
3.4055e-23
0
-3.76465e-24
-1.01607e-24
-4.23905e-17
1.3176e-16
-1.07691e-16
-1.54452e-17
1.01937e-17
-1.71302e-18
6.28703e-19
0
-7.07071e-20
3.00373e-20
0
0
4.21866e-22
-4.22351e-22
1.71228e-23
-3.19988e-23
7.15642e-24
1.71916e-24
7.6867e-25
3.21804e-17
-1.85891e-17
4.89788e-17
-2.82894e-17
-3.46607e-18
9.48698e-19
1.83672e-18
1.53808e-19
6.76561e-20
0
3.28724e-21
-3.01717e-21
8.65145e-22
-2.6229e-22
5.03267e-23
-4.04966e-23
-4.45471e-24
2.46623e-24
2.74837e-25
6.5005e-17
-7.63746e-17
0
1.0497e-17
-7.07768e-18
-1.2524e-18
6.11192e-20
-6.4684e-19
0
-1.98203e-21
-7.15917e-21
-1.15343e-21
4.73191e-22
-1.02467e-22
-4.86399e-23
1.3457e-23
0
5.72767e-25
-2.66865e-25
1.68568e-16
-1.52669e-17
2.78115e-17
-2.06144e-17
2.07425e-18
-1.67037e-18
-1.05977e-18
-5.25127e-20
6.76267e-20
-6.49062e-21
-2.62e-21
1.49435e-21
-3.1612e-22
-7.48878e-23
0
0
0
-5.71126e-25
1.42741e-26
-1.08166e-16
9.52546e-17
-3.96754e-19
2.41031e-18
9.86152e-19
-7.02731e-19
4.77185e-19
-1.41906e-19
4.38431e-20
-2.32503e-21
3.72055e-21
2.20994e-22
-3.7097e-23
5.65758e-26
1.25843e-24
-9.98032e-25
0
0
0
0
0
1.0925e-17
-1.35164e-17
-7.43742e-18
0
0
-2.25018e-20
-1.41973e-20
3.30428e-21
0
-2.78713e-22
7.40632e-23
-6.38104e-23
5.83967e-23
-3.55798e-24
3.70428e-24
1.33113e-25
0
-2.00004e-17
2.02465e-17
0
-2.64375e-18
1.57231e-18
1.16163e-18
0
2.27166e-20
2.49811e-21
-2.22071e-20
0
-2.25172e-22
6.23917e-23
1.89513e-23
-5.46794e-24
3.45098e-24
0
-3.41929e-25
0
-1.04337e-17
-5.16758e-18
3.48428e-19
2.71639e-18
-3.02263e-18
0
-1.11713e-19
0
2.94377e-20
3.36966e-21
0
7.36975e-22
-4.27581e-22
5.7013e-23
4.02923e-24
8.96168e-24
5.72733e-24
7.88631e-25
-6.31952e-25
0
1.63136e-17
-5.7477e-18
6.42086e-18
2.04816e-18
0
2.03696e-19
-1.37023e-19
-1.72658e-20
5.95064e-21
-7.74951e-21
-5.84274e-22
0
0
5.44802e-24
0
0
5.03412e-25
0
-9.96498e-17
8.15226e-17
0
1.71944e-18
-4.88111e-19
-2.63977e-20
2.91923e-19
8.7398e-21
-6.99723e-20
-2.87471e-20
1.01692e-20
-2.33677e-21
0
-1.75549e-23
0
0
0
-2.20943e-24
1.84729e-24
-3.45833e-17
2.09522e-17
2.93104e-17
-2.25061e-17
3.22455e-18
5.77652e-19
-2.87386e-19
9.22634e-20
5.47606e-20
1.22002e-20
-2.08246e-20
0
2.43133e-22
-2.16791e-22
-2.50818e-23
2.06159e-23
-1.11276e-23
-3.1558e-24
2.5979e-24
-1.41504e-16
1.0022e-16
-8.94211e-17
7.63335e-18
3.0395e-18
-2.10019e-18
9.29614e-19
-2.07459e-19
0
-3.05856e-20
8.89251e-21
2.8762e-21
1.55064e-21
1.17898e-22
-1.21305e-22
9.51467e-24
0
9.2643e-25
-3.18994e-25
-1.52175e-16
-2.66718e-17
-2.50156e-17
1.70692e-17
-8.83974e-18
3.73044e-18
-1.58575e-18
4.24695e-19
-8.47446e-20
-5.19588e-20
-1.84897e-20
1.60858e-20
8.29175e-22
6.90534e-22
-7.41295e-22
-5.24169e-23
-1.56963e-23
0
7.65737e-24
1.64535e-16
-3.12086e-17
0
0
-9.64486e-18
1.47142e-17
-2.08586e-18
-9.72317e-20
4.38521e-19
-3.5141e-20
0
0
-2.76802e-21
0
-9.03494e-22
8.32431e-22
-2.53362e-22
0
-8.51766e-24
4.85953e-17
6.82535e-17
0
-1.40744e-17
-4.43908e-18
1.6102e-19
-2.22293e-18
3.24922e-19
-6.21803e-19
-6.95975e-20
0
0
1.95681e-20
0
0
-2.19408e-21
5.01266e-21
0
0
3.37007e-16
-7.17276e-17
-1.33803e-16
-3.30389e-17
4.72995e-17
6.80716e-18
2.15541e-18
0
-2.10745e-19
1.12409e-19
1.90424e-19
-4.47617e-20
-1.71711e-20
1.56658e-20
-1.66636e-20
-1.42575e-21
0
0
0
2.68686e-17
-1.4796e-16
1.40241e-16
-8.17626e-18
-3.48109e-17
4.38534e-17
-1.64932e-17
0
0
1.01764e-18
-6.7005e-19
0
-3.3079e-20
6.72481e-20
-1.10387e-21
7.957e-21
1.53597e-21
5.28884e-23
1.85068e-22
0
0
0
6.26497e-17
-4.38594e-17
1.80149e-17
-2.44974e-17
4.86422e-18
0
-4.26513e-19
3.09769e-19
-3.16602e-19
-2.25878e-20
3.54576e-21
-5.62449e-21
-3.58652e-22
-3.09579e-21
-8.06034e-22
-3.71131e-22
2.05379e-16
-3.24912e-16
1.33821e-16
0
1.1608e-17
-1.68899e-17
6.99308e-18
-5.34011e-18
0
-5.11331e-19
7.61892e-19
0
0
4.04164e-21
0
-6.70815e-21
4.12759e-21
1.2308e-22
6.57537e-22
2.43518e-16
0
-4.58302e-17
5.03072e-17
-1.48574e-17
2.80024e-17
-1.03088e-17
-3.11793e-18
3.15049e-18
-1.49367e-19
0
0
2.21033e-20
-1.99129e-20
-9.28905e-21
1.55782e-20
-2.87225e-21
9.36794e-22
0
1.36769e-16
6.9418e-17
-1.88712e-17
-4.89372e-17
-2.84456e-18
-1.16332e-17
4.71616e-18
6.14558e-18
-1.52197e-19
1.52171e-19
0
0
-2.26434e-20
0
1.16145e-20
-1.24247e-20
0
1.01567e-21
-2.59217e-22
-7.22675e-17
-3.49872e-17
3.30666e-17
-2.33436e-18
-7.3455e-19
1.31626e-18
0
-1.4438e-19
1.1154e-18
-9.3199e-19
0
7.50426e-20
-3.67554e-20
-4.31691e-20
-2.27178e-21
-1.34776e-21
0
-8.13981e-22
0
2.46192e-17
-4.20673e-17
3.77708e-18
1.18669e-17
5.46234e-18
-5.19715e-18
-1.61274e-18
1.77831e-18
-2.46101e-19
2.07711e-19
-7.24389e-20
7.46731e-20
0
6.31025e-23
-1.3823e-21
5.27447e-21
-1.34568e-23
0
0
2.46202e-17
-2.4528e-17
-1.17978e-17
1.06904e-17
9.45004e-18
-9.50582e-18
-8.0647e-19
8.09776e-19
-2.48667e-19
2.51049e-19
-7.24528e-20
1.14147e-19
-3.00981e-20
-1.15186e-20
-1.78487e-21
8.7917e-22
1.12923e-21
2.40729e-22
-1.75368e-22
0
-5.16585e-18
2.00539e-17
-2.24559e-17
9.36215e-18
-8.53839e-18
0
1.76347e-18
-1.63219e-18
0
1.38945e-19
-1.66945e-19
-4.12183e-20
4.31994e-20
4.14926e-21
0
0
-8.15034e-22
2.80327e-22
9.77575e-17
-1.61577e-16
1.26355e-16
-8.12261e-17
2.71043e-17
-9.94722e-18
9.85198e-18
5.33796e-19
-1.0584e-18
9.17995e-19
0
-1.54897e-19
1.40923e-19
-1.23417e-20
-4.0642e-21
4.01408e-21
2.36497e-21
7.91242e-22
-2.7086e-22
2.71585e-16
0
-5.28184e-17
4.13707e-17
2.81267e-18
-1.19566e-17
1.70164e-17
-9.4348e-18
2.89141e-18
-4.30556e-19
4.40711e-19
4.15418e-20
3.76503e-20
1.20209e-20
-5.48316e-21
-1.27193e-21
-5.15911e-21
0
3.09723e-22
1.77697e-16
-2.00176e-16
0
8.83187e-18
2.21409e-17
-1.99459e-17
1.68199e-18
8.97024e-19
2.56222e-19
2.34976e-19
0
0
-5.59614e-20
7.69475e-20
-2.194e-20
-3.77952e-21
4.13795e-21
2.30751e-22
-5.53752e-22
6.3004e-17
1.77811e-16
-1.32233e-17
-5.43157e-17
4.88955e-17
2.98453e-18
-1.64613e-18
-8.76125e-19
1.278e-18
-1.51658e-18
3.1037e-19
-3.17213e-19
8.75424e-21
-2.7804e-20
1.53959e-20
-1.0329e-20
0
0
2.33684e-22
0
3.83691e-17
-7.11128e-17
8.35108e-17
-2.99715e-17
2.99001e-17
0
2.21014e-18
-2.22027e-18
-5.19608e-19
6.71814e-19
0
5.49069e-20
-6.74603e-20
-5.37287e-21
0
-1.99943e-22
-1.50289e-22
-1.15805e-22
-4.65766e-16
1.93726e-16
0
-4.73319e-17
4.73272e-17
1.14838e-17
-7.21871e-18
1.03544e-18
0
-1.2067e-20
2.04811e-21
-4.48621e-20
-1.72285e-20
1.57202e-20
-1.67158e-20
0
6.26807e-22
1.69492e-22
-1.14958e-22
2.61434e-16
-2.34567e-16
0
1.26333e-17
6.88492e-18
-4.36589e-18
0
-1.08515e-18
-3.3027e-19
0
-4.65086e-20
0
1.9668e-20
0
0
4.83787e-22
7.6198e-22
-1.49484e-21
0
-3.90108e-19
3.12318e-17
-1.84228e-17
4.97537e-18
-3.18564e-17
8.71731e-18
0
9.75611e-20
2.03524e-19
0
-5.10946e-20
3.1454e-20
-3.30442e-20
8.5213e-22
0
-3.9559e-22
0
0
0
-3.80774e-19
0
1.70272e-17
0
-6.35716e-18
6.45822e-18
0
2.76053e-19
-8.33621e-20
1.75921e-19
-5.91651e-20
3.14849e-21
-1.70269e-21
-7.82322e-23
-7.4542e-22
-2.91462e-23
0
1.25442e-23
0
8.51956e-17
-1.47722e-16
0
-6.56777e-18
2.95351e-18
0
0
-4.15975e-19
0
-3.07236e-20
-8.93889e-21
-2.89376e-21
1.5611e-21
0
-5.13899e-24
0
0
-1.27652e-23
2.94476e-24
0
8.77173e-17
-6.64652e-17
6.08025e-18
-2.73497e-18
-3.22138e-19
6.15466e-19
2.41607e-19
-7.71696e-20
2.27358e-20
4.49173e-21
-5.33022e-22
1.68208e-21
-2.55909e-22
-6.43209e-24
-9.87582e-24
3.76743e-26
-8.76978e-25
-5.53009e-25
-2.51223e-16
8.23985e-17
0
0
5.95086e-19
-6.05136e-19
-1.76942e-20
-6.13656e-20
3.78635e-20
5.6875e-21
-4.09972e-21
-4.15672e-22
-7.21662e-23
1.74549e-23
0
1.4846e-24
-3.45312e-26
6.10708e-25
4.99842e-25
0
4.56721e-17
-2.60299e-17
5.83773e-18
1.3972e-18
-2.18783e-19
-1.67125e-19
-4.95751e-20
-4.44763e-20
4.27317e-21
2.36535e-22
1.07357e-21
6.74843e-23
-1.8833e-23
1.99901e-23
4.40957e-24
-5.37683e-24
-5.64079e-25
0
-1.63393e-17
-4.04786e-17
7.01838e-18
2.71877e-18
-3.39603e-18
1.65309e-18
1.20665e-19
-1.23338e-19
1.64216e-20
-4.05545e-21
0
0
-7.6555e-23
1.034e-22
-2.45738e-23
5.44971e-24
-6.05158e-24
4.03324e-25
-6.8788e-25
2.60805e-17
1.44668e-17
-6.36273e-18
7.33834e-19
-2.50468e-18
-5.67784e-19
0
0
0
0
0
0
6.76913e-23
-4.87379e-23
5.15457e-23
-2.89962e-24
4.20867e-24
6.04577e-25
-4.51956e-25
6.46124e-17
-4.02981e-17
4.70762e-17
-3.9961e-18
6.58223e-18
-7.0255e-19
9.02115e-19
-2.32096e-19
-1.58797e-20
1.62442e-20
0
2.78284e-22
-6.61309e-23
4.53878e-23
-3.52349e-23
-1.12982e-23
-5.1153e-24
5.79496e-25
2.95744e-25
1.05958e-16
1.44417e-17
0
-5.10136e-18
-1.15233e-18
1.77817e-18
-1.49532e-19
-1.1931e-19
3.15261e-20
-5.11731e-21
0
-2.20293e-22
0
-2.99031e-23
1.15662e-23
-3.42584e-24
-6.13169e-25
9.68377e-26
0
1.4022e-16
-1.52665e-17
2.84864e-17
-2.1084e-17
-1.28837e-18
1.53305e-18
-8.57109e-19
4.73306e-20
2.19919e-20
-7.76023e-21
4.30566e-21
0
0
6.39961e-23
1.39349e-24
7.124e-26
2.04115e-24
-4.5038e-25
0
-2.61002e-19
0
-8.11692e-18
2.20098e-17
-1.23194e-17
-3.22714e-18
1.58641e-18
-2.65618e-19
1.91838e-19
2.3118e-20
-6.10597e-21
1.43996e-21
-5.62638e-22
8.42263e-23
9.01727e-23
-4.58321e-24
-3.5794e-24
1.70473e-24
-2.96458e-25
2.93525e-16
-8.21825e-17
8.34952e-18
-3.67458e-17
3.46605e-18
-2.31305e-18
1.50983e-18
0
0
-3.33484e-21
-6.95537e-21
-6.41789e-22
0
-1.82455e-22
-5.0327e-23
1.39047e-23
-4.04577e-25
1.32927e-24
7.88648e-25
0
-6.29168e-17
5.4582e-17
-5.91812e-18
-2.02171e-17
1.71302e-18
-9.50672e-19
6.12303e-19
3.24808e-19
0
0
4.44697e-22
1.46839e-21
0
-1.18552e-22
-2.21278e-23
3.53355e-24
-6.539e-25
-1.51196e-24
0
-2.62103e-17
3.18548e-17
3.80291e-17
7.27082e-18
-1.10979e-17
3.19809e-18
-4.36276e-19
3.06942e-19
-8.16059e-20
0
0
0
-6.94238e-22
-1.08211e-23
-5.46197e-23
0
-3.71064e-25
1.39349e-24
-2.03544e-16
1.72606e-16
8.29635e-17
-9.4956e-17
1.54677e-17
-1.2161e-17
0
5.5335e-19
-6.09023e-19
1.67536e-19
-3.38945e-20
1.05528e-20
3.21388e-21
7.17996e-22
2.1306e-22
0
0
0
0
2.7268e-16
-1.03548e-16
0
0
-7.74937e-18
7.71174e-18
-4.5491e-18
-6.80991e-19
6.73315e-19
1.09268e-19
7.75587e-20
-1.09495e-20
2.02324e-21
5.7333e-23
1.13866e-22
1.85742e-23
5.19669e-23
-1.50258e-24
1.53052e-24
-2.56826e-16
1.92618e-16
4.98375e-17
-3.13766e-17
2.01815e-17
-1.19435e-17
-3.17019e-18
-1.2212e-18
0
-2.47015e-19
5.12027e-20
1.59838e-20
-4.29956e-21
-1.32049e-21
-1.55866e-22
-9.80797e-24
-2.51595e-23
0
0
-8.7685e-17
0
3.43542e-17
5.05054e-19
0
0
3.27015e-18
1.26011e-18
0
1.56303e-19
0
-2.22399e-20
-1.38852e-22
2.0051e-21
0
4.4644e-22
-3.7997e-23
3.8762e-23
0
2.10883e-16
0
5.51602e-17
-8.25629e-17
4.72205e-17
1.46484e-17
-2.44105e-18
0
1.62947e-19
3.37025e-19
0
-2.5896e-20
1.45017e-20
-6.27389e-21
-8.30703e-22
-3.174e-22
-1.47887e-22
-7.40918e-23
-1.46331e-21
-1.53765e-16
2.10556e-16
-3.61249e-17
-5.84602e-17
-1.93385e-17
-8.75546e-18
-7.19401e-18
-9.61128e-19
4.35222e-19
5.93389e-20
-5.92274e-20
4.20217e-20
-9.49303e-21
1.0052e-20
-1.48344e-21
0
4.72049e-21
-5.51361e-21
1.2909e-21
4.33691e-16
-2.36433e-17
-1.66722e-16
6.84505e-17
-4.2441e-17
1.96886e-17
-2.3546e-18
-1.30047e-18
4.75716e-19
5.83855e-20
-3.71871e-20
-4.35979e-20
4.89958e-21
1.39336e-20
-1.71407e-21
1.73362e-21
-4.88928e-21
-1.66858e-20
-2.10044e-20
2.12904e-16
5.94021e-17
7.03395e-17
-3.60398e-17
-1.29127e-17
5.21346e-18
-2.24066e-18
4.28927e-18
2.36271e-19
3.32285e-19
8.47172e-20
-5.46475e-20
0
-1.51062e-20
0
0
6.70898e-20
1.88042e-20
2.24591e-20
1.76228e-16
0
6.46754e-17
3.58071e-17
-1.57766e-17
7.56965e-18
0
-1.1902e-18
-7.58409e-19
-3.33961e-19
-8.54671e-20
5.52654e-20
0
0
0
0
-6.48395e-20
-2.55479e-19
0
-3.43687e-16
0
-1.66936e-17
-1.60884e-17
2.44519e-17
-3.10971e-18
-3.42046e-19
-7.67534e-19
6.98212e-19
0
1.02969e-19
-4.75545e-21
2.86943e-19
0
0
5.38828e-19
-4.44914e-20
3.08632e-19
-6.01265e-19
2.26221e-16
3.93773e-17
-3.89708e-17
-1.92027e-17
-2.86133e-17
1.06152e-17
5.27786e-18
-4.54603e-19
-6.11325e-19
1.0211e-18
1.35578e-19
-1.16233e-18
-5.31839e-19
-1.02913e-18
-1.2425e-18
-6.37592e-19
1.923e-18
-6.84466e-20
6.15822e-19
-6.01653e-17
1.80876e-17
-6.81303e-17
4.6664e-18
-4.64943e-18
0
-2.67684e-18
-1.43578e-18
-2.65472e-18
1.56855e-18
2.78899e-18
1.01369e-18
-3.99145e-19
-1.55644e-18
1.09067e-18
0
-6.65548e-18
-4.98167e-18
-8.28937e-20
1.44993e-16
-2.10921e-18
9.87112e-17
-2.64527e-17
2.6906e-19
3.02949e-19
7.33599e-18
-3.68296e-18
2.57464e-18
-2.49396e-18
-2.53698e-18
0
7.2271e-18
3.09665e-18
8.48071e-20
-1.36288e-19
4.8038e-18
5.04416e-18
0
-9.61865e-17
0
-4.41146e-18
2.89051e-17
1.88245e-18
3.45684e-18
-7.09379e-18
6.35374e-18
1.46249e-17
1.47223e-17
1.51101e-17
0
-7.02099e-18
0
8.00236e-19
-8.31116e-19
0
-1.85681e-19
1.38675e-17
8.40255e-17
2.06582e-17
-1.48432e-17
6.10234e-17
-1.538e-17
0
0
-3.12863e-17
-1.41701e-17
-1.42626e-17
-4.16122e-17
-5.29786e-18
0
0
0
-3.64648e-18
3.85889e-18
4.1344e-17
-1.41528e-17
2.78183e-17
0
-6.27384e-17
-3.29792e-17
5.07558e-17
-6.21057e-17
-8.1676e-17
7.20773e-17
3.95487e-17
0
3.11926e-17
6.3286e-17
-1.16265e-17
8.04789e-17
-1.30806e-17
1.36137e-17
7.59483e-17
-3.93482e-17
0
-1.53763e-16
0
-1.19865e-16
1.11324e-16
0
1.39323e-16
5.8579e-17
-1.54746e-16
1.60543e-16
5.85288e-20
-3.92486e-17
-6.12739e-17
0
1.59282e-16
-2.34087e-16
2.62222e-16
-3.36376e-16
0
0
1.60795e-16
-8.62902e-18
-1.77038e-17
-2.64094e-16
2.876e-16
-1.27514e-16
1.26994e-16
1.26165e-16
-7.16595e-17
0
0
2.525e-16
-2.5685e-16
-2.17528e-16
2.25421e-16
-2.30513e-16
2.62909e-16
-4.351e-16
0
)
;

boundaryField
{
    up
    {
        type            calculated;
        value           nonuniform List<scalar> 
84
(
0
0
0
0
-7.10753e-18
1.06292e-17
-3.36721e-18
6.15756e-19
-5.78019e-19
0
-2.46492e-20
2.21896e-20
-1.59924e-21
1.14977e-21
2.804e-22
8.53768e-23
0
0
-1.01607e-24
7.6867e-25
2.74837e-25
-2.66865e-25
1.42741e-26
0
1.01529e-25
1.20228e-25
-4.87905e-25
0
1.84729e-24
-2.8247e-25
-3.18994e-25
7.65737e-24
-8.51766e-24
0
1.52274e-22
1.54334e-22
-3.24006e-22
5.96791e-22
0
-2.18782e-22
0
0
-1.6453e-22
2.80327e-22
-2.7086e-22
3.09723e-22
-5.53752e-22
2.33684e-22
-1.15805e-22
-1.14958e-22
0
0
0
2.94476e-24
3.36446e-24
4.99842e-25
0
-6.8788e-25
-4.51956e-25
1.95897e-25
0
0
-2.96458e-25
7.88648e-25
-1.51196e-24
1.39349e-24
0
1.53052e-24
0
0
-1.46331e-21
1.2909e-21
-2.10044e-20
2.24591e-20
0
-6.01265e-19
6.15822e-19
-8.28937e-20
0
1.38675e-17
-1.41528e-17
0
0
0
)
;
    }
    low
    {
        type            calculated;
        value           nonuniform List<scalar> 
84
(
-3.24905e-16
2.9712e-16
-1.12792e-16
2.27623e-16
4.50677e-17
-1.16871e-17
9.73014e-17
3.51739e-17
0
3.60644e-16
-9.03957e-17
2.63516e-17
-6.21136e-17
-5.43764e-16
8.79398e-17
0
-8.06376e-17
2.73607e-17
-2.71637e-17
-4.23905e-17
3.21804e-17
6.5005e-17
1.7086e-16
-1.08166e-16
0
-2.00004e-17
-1.04337e-17
0
-9.96498e-17
-3.45833e-17
-1.43206e-16
-1.53941e-16
1.66405e-16
4.85953e-17
3.3914e-16
2.68686e-17
0
2.05379e-16
2.46501e-16
1.38274e-16
-7.30297e-17
2.46192e-17
2.46202e-17
0
9.77575e-17
2.74567e-16
1.77697e-16
6.5806e-17
0
-4.67897e-16
2.61434e-16
-3.90108e-19
-3.80774e-19
8.51956e-17
0
-2.52194e-16
0
-1.63393e-17
2.60805e-17
6.54195e-17
1.08177e-16
1.42511e-16
-2.61002e-19
2.95806e-16
0
0
-2.03544e-16
2.74932e-16
-2.59166e-16
-8.7685e-17
2.13405e-16
-1.53765e-16
4.40244e-16
2.16471e-16
1.76228e-16
-3.43687e-16
2.23411e-16
-5.70512e-17
1.44993e-16
-9.45186e-17
8.40255e-17
3.24831e-17
-1.53763e-16
1.62143e-16
)
;
    }
    left
    {
        type            calculated;
        value           nonuniform List<scalar> 
19
(
-3.2221e-16
-1.33532e-16
1.59665e-16
2.57411e-17
-2.65072e-16
0
-1.01399e-16
-1.00769e-16
-3.27281e-17
-6.31993e-17
7.93881e-20
-6.45328e-17
3.30388e-16
-6.73658e-17
2.95126e-16
2.64956e-16
1.60454e-16
2.58201e-16
0
)
;
    }
    right
    {
        type            calculated;
        value           nonuniform List<scalar> 
19
(
1.60795e-16
-9.41665e-18
-1.77038e-17
-2.66791e-16
2.90754e-16
-1.27514e-16
1.26994e-16
1.26165e-16
-6.79753e-17
0
0
2.60207e-16
-2.64603e-16
-2.17528e-16
2.25421e-16
-2.30513e-16
2.62909e-16
-4.68726e-16
0
)
;
    }
    frontAndBackPlanes
    {
        type            empty;
    }
}


// ************************************************************************* //
