/*--------------------------------*- C++ -*----------------------------------*\
  =========                 |
  \\      /  F ield         | OpenFOAM: The Open Source CFD Toolbox
   \\    /   O peration     | Website:  https://openfoam.org
    \\  /    A nd           | Version:  7
     \\/     M anipulation  |
\*---------------------------------------------------------------------------*/
FoamFile
{
    version     2.0;
    format      ascii;
    class       volScalarField;
    location    "0.02";
    object      gradTy;
}
// * * * * * * * * * * * * * * * * * * * * * * * * * * * * * * * * * * * * * //

dimensions      [0 -1 0 1 0 0 0];

internalField   nonuniform List<scalar> 
1596
(
-1.45873
-2.40833
-2.8192
-3.00117
-3.09279
-3.22643
-3.36305
-3.54341
-3.74986
-3.9531
-4.23008
-4.50095
-4.82454
-5.24617
-5.98541
-7.29938
-10.1109
-15.8232
-37.1816
-4.00376
-4.15146
-3.6613
-3.14649
-2.81371
-2.71267
-2.72548
-2.82224
-2.96152
-3.10059
-3.2997
-3.49891
-3.73656
-4.02606
-4.50641
-5.24913
-6.65479
-9.03913
-16.2331
-6.16243
-5.2778
-3.9715
-2.89542
-2.23191
-1.93805
-1.84224
-1.8602
-1.93215
-2.01283
-2.13953
-2.27198
-2.4331
-2.62469
-2.93801
-3.40532
-4.29135
-5.78569
-9.27017
-7.60659
-5.94341
-4.07244
-2.61064
-1.7134
-1.27568
-1.09696
-1.05478
-1.07525
-1.11314
-1.18384
-1.26259
-1.36115
-1.47745
-1.66445
-1.93731
-2.46821
-3.39693
-5.27276
-8.37799
-6.3472
-4.17641
-2.47873
-1.41965
-0.874158
-0.632124
-0.546644
-0.532168
-0.542277
-0.575615
-0.616616
-0.669976
-0.733078
-0.832672
-0.975031
-1.26235
-1.79842
-2.84377
-8.67053
-6.60288
-4.33591
-2.50965
-1.33447
-0.701694
-0.406238
-0.287254
-0.249151
-0.242168
-0.253508
-0.271576
-0.296869
-0.327195
-0.374205
-0.43951
-0.576473
-0.853881
-1.41487
-8.66436
-6.74952
-4.52085
-2.64119
-1.38117
-0.672718
-0.327568
-0.179091
-0.123251
-0.105339
-0.104753
-0.110608
-0.120888
-0.133773
-0.15354
-0.179861
-0.236868
-0.36379
-0.641509
-8.48138
-6.79366
-4.68252
-2.80571
-1.48894
-0.715761
-0.32366
-0.147186
-0.0760788
-0.0501453
-0.0430411
-0.0429303
-0.0461284
-0.0508819
-0.0583327
-0.0677156
-0.0884003
-0.139555
-0.264043
-8.20858
-6.77679
-4.8188
-2.97764
-1.62347
-0.793335
-0.355421
-0.1506
-0.0644454
-0.0312779
-0.0199483
-0.0168408
-0.0169386
-0.0182808
-0.0207661
-0.0237388
-0.0302793
-0.0484495
-0.0986801
-7.87178
-6.65532
-4.86087
-3.08912
-1.73069
-0.866023
-0.39369
-0.165431
-0.0662711
-0.0268212
-0.012394
-0.00759552
-0.0063418
-0.00635308
-0.00701565
-0.00783982
-0.00963126
-0.0153101
-0.0335499
-7.59523
-6.50132
-4.83581
-3.13908
-1.79787
-0.919105
-0.425558
-0.18075
-0.0717196
-0.027302
-0.0105456
-0.00466048
-0.00276158
-0.00225961
-0.00229421
-0.00246438
-0.00287945
-0.0044426
-0.0104204
-7.33701
-6.35505
-4.7903
-3.15829
-1.83944
-0.956608
-0.450112
-0.193777
-0.0774073
-0.0291452
-0.0106002
-0.0039369
-0.00167156
-0.000952802
-0.000774553
-0.000756414
-0.000823105
-0.00119725
-0.0029697
-7.06317
-6.17197
-4.69065
-3.12098
-1.83599
-0.965159
-0.459005
-0.19959
-0.0803542
-0.0303194
-0.0108798
-0.00381322
-0.00136918
-0.00056147
-0.00031308
-0.00024266
-0.000232321
-0.000305326
-0.000781582
-6.86165
-5.99436
-4.55741
-3.0361
-1.78992
-0.944023
-0.45066
-0.196762
-0.0795057
-0.0300569
-0.010758
-0.00370877
-0.00125738
-0.000439061
-0.00017632
-9.43279e-05
-6.98573e-05
-7.65516e-05
-0.000192218
-6.7052
-5.83773
-4.41216
-2.92179
-1.71351
-0.900093
-0.428356
-0.186591
-0.075246
-0.0283806
-0.0101236
-0.00346371
-0.00115099
-0.000379383
-0.000129998
-5.09698e-05
-2.60899e-05
-2.06377e-05
-4.52043e-05
-6.57189
-5.69416
-4.25784
-2.78456
-1.61293
-0.837792
-0.39472
-0.170421
-0.0681755
-0.025517
-0.00903356
-0.00306404
-0.00100582
-0.000323796
-0.000104524
-3.52745e-05
-1.35244e-05
-7.07599e-06
-1.07979e-05
-6.48185
-5.56288
-4.09172
-2.62438
-1.49023
-0.759656
-0.351771
-0.14952
-0.0589669
-0.0217787
-0.00761435
-0.00255076
-0.000826406
-0.000261746
-8.22436e-05
-2.6151e-05
-8.73586e-06
-3.40606e-06
-3.00662e-06
-6.43867
-5.45076
-3.92085
-2.44957
-1.35368
-0.672181
-0.303728
-0.12623
-0.0487671
-0.0176716
-0.00606992
-0.00199921
-0.000637074
-0.000198362
-6.11011e-05
-1.88574e-05
-5.94374e-06
-2.02338e-06
-1.13755e-06
-6.40487
-5.36418
-3.76409
-2.28007
-1.21941
-0.586242
-0.256862
-0.103725
-0.0390167
-0.0137913
-0.00462834
-0.00149113
-0.000465192
-0.000141857
-4.27768e-05
-1.28886e-05
-3.93086e-06
-1.25921e-06
-5.62928e-07
-6.37735
-5.28485
-3.6062
-2.10716
-1.08414
-0.501481
-0.21173
-0.0825688
-0.0300642
-0.0103093
-0.00336319
-0.00105495
-0.000320851
-9.54725e-05
-2.81073e-05
-8.26461e-06
-2.4538e-06
-7.5791e-07
-3.07099e-07
-6.39983
-5.22225
-3.44538
-1.92872
-0.947793
-0.418866
-0.169295
-0.0633689
-0.0222095
-0.00735085
-0.00232044
-0.000705806
-0.000208536
-6.03673e-05
-1.73087e-05
-4.95954e-06
-1.43457e-06
-4.30181e-07
-1.65717e-07
-6.44994
-5.18194
-3.29122
-1.75332
-0.816513
-0.342036
-0.131366
-0.0468876
-0.0157269
-0.00499904
-0.00152035
-0.000446761
-0.000127828
-3.59055e-05
-1.00054e-05
-2.78965e-06
-7.8572e-07
-2.29139e-07
-8.51631e-08
-6.50325
-5.16193
-3.153
-1.59033
-0.696103
-0.273675
-0.0988901
-0.0333533
-0.010625
-0.00322344
-0.000939897
-0.000265829
-7.34502e-05
-1.99793e-05
-5.40408e-06
-1.46524e-06
-4.01929e-07
-1.1415e-07
-4.11266e-08
-6.5419
-5.15596
-3.03812
-1.44834
-0.591053
-0.215003
-0.0717684
-0.0224231
-0.00665474
-0.00189405
-0.000521542
-0.000140165
-3.6984e-05
-9.64361e-06
-2.50679e-06
-6.54695e-07
-1.73223e-07
-4.76041e-08
-1.62223e-08
-6.56875
-5.2188
-3.05118
-1.42627
-0.56531
-0.198195
-0.0635257
-0.0190725
-0.00547366
-0.00152347
-0.000415858
-0.00011253
-3.03175e-05
-8.16981e-06
-2.21323e-06
-6.0664e-07
-1.69009e-07
-4.93376e-08
-1.6919e-08
-6.57225
-5.31951
-3.15945
-1.49535
-0.596862
-0.209027
-0.066274
-0.0194868
-0.00543633
-0.00146829
-0.000391286
-0.000104913
-2.86077e-05
-7.98872e-06
-2.29086e-06
-6.7561e-07
-2.05038e-07
-6.58826e-08
-2.48098e-08
-6.5591
-5.39884
-3.29381
-1.60877
-0.662885
-0.23869
-0.0771445
-0.0228058
-0.0062783
-0.00163758
-0.000412931
-0.000103719
-2.67403e-05
-7.29744e-06
-2.14712e-06
-6.81491e-07
-2.31872e-07
-8.64129e-08
-3.80357e-08
-6.54083
-5.45339
-3.44716
-1.76687
-0.769278
-0.293339
-0.100184
-0.0310698
-0.0088489
-0.0023338
-0.000573958
-0.000133763
-3.02018e-05
-6.96288e-06
-1.79157e-06
-5.59694e-07
-2.17299e-07
-1.04045e-07
-6.08315e-08
-6.52707
-5.50555
-3.62408
-1.96846
-0.91776
-0.376946
-0.13903
-0.0465614
-0.0142786
-0.00402662
-0.00104271
-0.000247845
-5.32997e-05
-1.01635e-05
-1.68107e-06
-2.63464e-07
-8.77826e-08
-8.89048e-08
-1.02533e-07
-6.53921
-5.56754
-3.81746
-2.20106
-1.10174
-0.489169
-0.195898
-0.0714687
-0.0239446
-0.00739985
-0.00210578
-0.000550733
-0.000129542
-2.60653e-05
-3.74385e-06
7.5638e-08
3.40839e-07
1.04032e-07
-1.41869e-07
-6.60259
-5.66502
-4.03635
-2.46286
-1.31919
-0.631295
-0.273932
-0.108803
-0.0398928
-0.0135795
-0.00429313
-0.00126289
-0.000340711
-8.15941e-05
-1.55181e-05
-1.03012e-06
1.26019e-06
9.81339e-07
1.19857e-07
-6.66556
-5.79266
-4.2848
-2.75763
-1.57406
-0.808548
-0.378802
-0.163366
-0.0654431
-0.0245241
-0.00861994
-0.00285847
-0.000888413
-0.000255147
-6.45238e-05
-1.19916e-05
1.15538e-06
3.53922e-06
2.20914e-06
-6.76959
-5.95699
-4.55595
-3.07571
-1.86037
-1.02062
-0.514147
-0.240006
-0.104799
-0.0431553
-0.0168338
-0.00627566
-0.00223372
-0.000756895
-0.000239571
-6.78797e-05
-1.20001e-05
6.10142e-06
1.2757e-05
-6.94391
-6.17305
-4.85824
-3.42158
-2.18216
-1.27376
-0.688311
-0.347476
-0.165501
-0.0750632
-0.0326472
-0.0137813
-0.00567895
-0.0023045
-0.000927316
-0.000377246
-0.000154897
-6.2874e-05
-1.6705e-05
-7.15806
-6.40405
-5.14355
-3.74108
-2.48839
-1.52791
-0.874839
-0.471098
-0.240836
-0.117928
-0.0557453
-0.025739
-0.0116951
-0.0052828
-0.00239777
-0.00111633
-0.000545597
-0.000295584
-0.000182224
-7.42913
-6.63529
-5.37395
-3.97461
-2.70658
-1.71131
-1.01384
-0.567383
-0.302659
-0.15519
-0.0771251
-0.0375641
-0.0180721
-0.00867439
-0.00420207
-0.00209345
-0.00110231
-0.000654976
-0.000475078
-7.77482
-6.89682
-5.59098
-4.16212
-2.86509
-1.83805
-1.10846
-0.633457
-0.346125
-0.182343
-0.0934192
-0.0470634
-0.0235056
-0.0117584
-0.00596648
-0.00313206
-0.00175255
-0.00111093
-0.00084722
-8.09221
-7.13696
-5.78517
-4.32569
-3.00234
-1.94882
-1.19295
-0.694096
-0.387253
-0.20888
-0.109875
-0.0569868
-0.0293828
-0.0152181
-0.00802431
-0.0043969
-0.00258398
-0.00172569
-0.00137528
-8.33684
-7.33666
-5.95284
-4.46927
-3.12389
-2.04776
-1.26922
-0.749577
-0.425503
-0.234032
-0.125813
-0.0668325
-0.0353717
-0.0188492
-0.0102571
-0.00582186
-0.0035614
-0.00247976
-0.00204456
-8.53156
-7.49623
-6.08639
-4.58313
-3.2202
-2.12648
-1.33044
-0.794661
-0.457058
-0.255147
-0.139457
-0.0754437
-0.040734
-0.0221846
-0.0123677
-0.00721271
-0.00454996
-0.00326912
-0.00276345
-8.67555
-7.61143
-6.17971
-4.66084
-3.28528
-2.17973
-1.37216
-0.825748
-0.479123
-0.270143
-0.149312
-0.0817772
-0.0447549
-0.0247384
-0.0140214
-0.00833082
-0.00536716
-0.00393873
-0.00338406
-8.78037
-7.67715
-6.22517
-4.69576
-3.31394
-2.20349
-1.39128
-0.840404
-0.489817
-0.277598
-0.154327
-0.085071
-0.0468895
-0.0261215
-0.0149354
-0.00896186
-0.00583855
-0.00433296
-0.00375529
-8.78041
-7.67725
-6.22532
-4.69594
-3.31412
-2.20364
-1.3914
-0.840494
-0.489879
-0.277638
-0.154353
-0.0850867
-0.0468991
-0.0261274
-0.0149391
-0.00896427
-0.00584026
-0.00433433
-0.00375657
-8.67561
-7.61166
-6.18009
-4.66133
-3.28578
-2.18017
-1.37252
-0.826008
-0.479302
-0.27026
-0.149386
-0.0818226
-0.0447826
-0.0247553
-0.014032
-0.00833764
-0.00537195
-0.00394255
-0.00338764
-8.53165
-7.49658
-6.08702
-4.58391
-3.221
-2.12719
-1.331
-0.79507
-0.457337
-0.255328
-0.139569
-0.0755122
-0.0407752
-0.0222094
-0.0123829
-0.0072224
-0.00455662
-0.00327433
-0.00276824
-8.33697
-7.33713
-5.95366
-4.4703
-3.12494
-2.04869
-1.26995
-0.750105
-0.425858
-0.234259
-0.125952
-0.0669156
-0.0354207
-0.018878
-0.0102743
-0.00583254
-0.00356851
-0.00248515
-0.00204941
-8.09235
-7.13753
-5.78618
-4.32695
-3.00362
-1.94994
-1.19382
-0.694715
-0.387663
-0.209136
-0.110029
-0.0570765
-0.0294343
-0.0152476
-0.0080414
-0.00440712
-0.00259054
-0.00173046
-0.00137943
-7.77497
-6.89747
-5.59215
-4.16359
-2.86657
-1.83932
-1.10943
-0.634134
-0.346563
-0.182609
-0.0935748
-0.0471515
-0.0235545
-0.0117854
-0.00598154
-0.00314072
-0.00175786
-0.00111465
-0.000850368
-7.4293
-6.63609
-5.37539
-3.97641
-2.70837
-1.71282
-1.01497
-0.56815
-0.30314
-0.155473
-0.0772844
-0.0376508
-0.0181185
-0.00869907
-0.00421537
-0.00210084
-0.00110667
-0.000657917
-0.000477604
-7.15816
-6.40465
-5.14495
-3.74309
-2.49054
-1.5298
-0.876278
-0.472076
-0.241442
-0.118277
-0.0559352
-0.025838
-0.0117453
-0.00530794
-0.00241033
-0.00112268
-0.000548951
-0.000297651
-0.000184077
-6.94412
-6.1742
-4.8604
-3.42428
-2.18478
-1.27589
-0.689828
-0.348442
-0.166063
-0.0753688
-0.0328047
-0.0138597
-0.00571716
-0.00232295
-0.000936243
-0.000381644
-0.000157188
-6.41676e-05
-1.71508e-05
-6.76971
-5.95788
-4.55774
-3.07792
-1.86242
-1.0222
-0.515186
-0.240613
-0.105121
-0.0433134
-0.0169066
-0.00630754
-0.0022471
-0.000762253
-0.000241571
-6.85401e-05
-1.21452e-05
6.21837e-06
1.34112e-05
-6.66566
-5.79355
-4.28655
-2.75969
-1.57586
-0.809839
-0.379592
-0.163791
-0.06565
-0.0246167
-0.00865843
-0.00287355
-0.000893954
-0.000257025
-6.50792e-05
-1.21036e-05
1.21114e-06
3.69043e-06
2.34231e-06
-6.60267
-5.6659
-4.03803
-2.46473
-1.32073
-0.632319
-0.274509
-0.109089
-0.0400201
-0.0136312
-0.00431248
-0.0012696
-0.000342821
-8.21678e-05
-1.5633e-05
-1.03149e-06
1.29734e-06
1.05133e-06
9.72036e-08
-6.53928
-5.5684
-3.81906
-2.20274
-1.10303
-0.489959
-0.196308
-0.071655
-0.0240202
-0.00742771
-0.00211513
-0.000553568
-0.000130286
-2.62125e-05
-3.75264e-06
8.45823e-08
3.51448e-07
1.20335e-07
-1.72938e-07
-6.52711
-5.50636
-3.62556
-1.96992
-0.918796
-0.377533
-0.139309
-0.0466775
-0.0143216
-0.00404094
-0.00104699
-0.000248964
-5.35327e-05
-1.01886e-05
-1.67468e-06
-2.60316e-07
-8.8059e-08
-8.93308e-08
-1.19591e-07
-6.54086
-5.45416
-3.44847
-1.76809
-0.770078
-0.293755
-0.100366
-0.0311391
-0.00887226
-0.00234083
-0.000575817
-0.000134174
-3.0265e-05
-6.96339e-06
-1.78909e-06
-5.61006e-07
-2.2017e-07
-1.06879e-07
-6.81001e-08
-6.55914
-5.39953
-3.29493
-1.60974
-0.663476
-0.238975
-0.0772595
-0.0228462
-0.00629083
-0.00164102
-0.000413749
-0.000103879
-2.67633e-05
-7.30049e-06
-2.1497e-06
-6.84576e-07
-2.34558e-07
-8.84468e-08
-4.07849e-08
-6.57229
-5.32008
-3.16032
-1.49607
-0.597277
-0.209215
-0.0663459
-0.0195105
-0.00544324
-0.00147007
-0.00039169
-0.000104996
-2.8626e-05
-7.99555e-06
-2.29494e-06
-6.78264e-07
-2.06671e-07
-6.68578e-08
-2.56686e-08
-6.56877
-5.21894
-3.05141
-1.42644
-0.5654
-0.19823
-0.0635373
-0.0190755
-0.00547422
-0.00152351
-0.000415839
-0.000112523
-3.03179e-05
-8.17219e-06
-2.21511e-06
-6.07766e-07
-1.69599e-07
-4.96252e-08
-1.70744e-08
-6.54185
-5.15581
-3.03789
-1.44812
-0.590901
-0.21492
-0.0717304
-0.0224077
-0.00664904
-0.00189209
-0.000520903
-0.000139966
-3.69237e-05
-9.62583e-06
-2.50162e-06
-6.53207e-07
-1.72798e-07
-4.74789e-08
-1.61793e-08
-6.50325
-5.16194
-3.15301
-1.59034
-0.696106
-0.273677
-0.0988917
-0.0333542
-0.0106254
-0.0032236
-0.000939944
-0.000265837
-7.34493e-05
-1.99777e-05
-5.4031e-06
-1.46479e-06
-4.01747e-07
-1.14078e-07
-4.10893e-08
-6.44993
-5.18194
-3.29123
-1.75332
-0.816512
-0.342035
-0.131366
-0.0468879
-0.0157272
-0.00499919
-0.00152041
-0.000446778
-0.000127831
-3.59056e-05
-1.00051e-05
-2.7894e-06
-7.85597e-07
-2.29083e-07
-8.51238e-08
-6.39982
-5.22225
-3.44538
-1.92872
-0.947792
-0.418864
-0.169294
-0.0633689
-0.0222096
-0.00735101
-0.00232053
-0.000705845
-0.000208552
-6.03731e-05
-1.73107e-05
-4.96023e-06
-1.43479e-06
-4.30242e-07
-1.65716e-07
-6.37735
-5.28484
-3.6062
-2.10716
-1.08414
-0.501479
-0.211729
-0.0825684
-0.0300642
-0.0103095
-0.00336331
-0.00105502
-0.000320889
-9.54895e-05
-2.81144e-05
-8.26737e-06
-2.45477e-06
-7.5822e-07
-3.07168e-07
-6.40486
-5.36418
-3.76409
-2.28008
-1.21941
-0.586241
-0.25686
-0.103724
-0.0390166
-0.0137915
-0.00462851
-0.00149125
-0.000465261
-0.00014189
-4.27917e-05
-1.28947e-05
-3.93282e-06
-1.25969e-06
-5.62961e-07
-6.43867
-5.45076
-3.92085
-2.44957
-1.35368
-0.672181
-0.303727
-0.126228
-0.0487667
-0.0176717
-0.00607015
-0.00199939
-0.000637182
-0.000198417
-6.1126e-05
-1.88674e-05
-5.94545e-06
-2.02279e-06
-1.13706e-06
-6.48184
-5.56287
-4.09172
-2.62439
-1.49024
-0.759656
-0.351769
-0.149519
-0.0589665
-0.0217788
-0.00761465
-0.002551
-0.000826549
-0.000261819
-8.22785e-05
-2.61627e-05
-8.7294e-06
-3.39878e-06
-3.00553e-06
-6.57188
-5.69416
-4.25785
-2.78457
-1.61293
-0.837793
-0.394718
-0.17042
-0.0681752
-0.0255172
-0.00903388
-0.00306429
-0.00100597
-0.000323878
-0.000104565
-3.52758e-05
-1.34763e-05
-7.04333e-06
-1.08061e-05
-6.70519
-5.83772
-4.41216
-2.9218
-1.71352
-0.900095
-0.428356
-0.18659
-0.075246
-0.0283808
-0.0101238
-0.00346392
-0.00115112
-0.000379467
-0.000130045
-5.09159e-05
-2.58826e-05
-2.05326e-05
-4.52929e-05
-6.86164
-5.99436
-4.55742
-3.03611
-1.78993
-0.944025
-0.450662
-0.196763
-0.0795063
-0.0300574
-0.0107583
-0.00370889
-0.00125748
-0.000439175
-0.000176382
-9.40689e-05
-6.91362e-05
-7.6297e-05
-0.000192711
-7.06316
-6.17197
-4.69066
-3.12098
-1.83599
-0.965163
-0.459008
-0.199592
-0.0803555
-0.0303199
-0.0108799
-0.00381321
-0.00136929
-0.000561732
-0.000313167
-0.00024176
-0.000230202
-0.000304922
-0.000783575
-7.337
-6.35505
-4.7903
-3.15828
-1.83944
-0.956612
-0.450117
-0.193781
-0.077409
-0.0291457
-0.0106001
-0.00393685
-0.0016719
-0.000953508
-0.000774614
-0.000753839
-0.000817871
-0.0011972
-0.00297597
-7.59522
-6.50132
-4.83582
-3.13908
-1.79787
-0.919113
-0.425565
-0.180755
-0.0717217
-0.0273025
-0.0105455
-0.00466071
-0.00276269
-0.00226125
-0.00229392
-0.00245828
-0.00286889
-0.00444469
-0.0104359
-7.87177
-6.65533
-4.86087
-3.08912
-1.73069
-0.866032
-0.393698
-0.165436
-0.0662729
-0.0268214
-0.0123941
-0.00759653
-0.0063444
-0.00635596
-0.00701403
-0.00782805
-0.00961475
-0.0153178
-0.0335788
-8.20857
-6.77679
-4.81881
-2.97765
-1.62348
-0.793344
-0.355428
-0.150603
-0.0644462
-0.0312778
-0.0199489
-0.0168433
-0.0169431
-0.018284
-0.020761
-0.0237212
-0.0302623
-0.0484657
-0.0987167
-8.48138
-6.79367
-4.68252
-2.80571
-1.48894
-0.715767
-0.323663
-0.147187
-0.0760787
-0.0501455
-0.0430429
-0.0429345
-0.0461336
-0.0508822
-0.0583216
-0.0676979
-0.0883976
-0.139575
-0.26406
-8.66436
-6.74952
-4.52085
-2.6412
-1.38117
-0.672721
-0.327568
-0.17909
-0.12325
-0.10534
-0.104755
-0.110612
-0.12089
-0.133765
-0.153523
-0.179857
-0.236898
-0.363796
-0.641462
-8.67053
-6.60288
-4.33591
-2.50965
-1.33447
-0.701693
-0.406236
-0.287252
-0.24915
-0.242168
-0.25351
-0.271575
-0.29686
-0.327175
-0.374189
-0.439535
-0.576541
-0.853852
-1.41474
-8.378
-6.3472
-4.17641
-2.47873
-1.41965
-0.874155
-0.63212
-0.54664
-0.532165
-0.542274
-0.575611
-0.616605
-0.669954
-0.733052
-0.832671
-0.975088
-1.26243
-1.79836
-2.84362
-7.6066
-5.94342
-4.07244
-2.61063
-1.7134
-1.27567
-1.09695
-1.05478
-1.07524
-1.11313
-1.18383
-1.26257
-1.36112
-1.47743
-1.66447
-1.93738
-2.46825
-3.39689
-5.27271
-6.16245
-5.27781
-3.97151
-2.89542
-2.23191
-1.93805
-1.84223
-1.86019
-1.93215
-2.01282
-2.13951
-2.27196
-2.43308
-2.62469
-2.93805
-3.40535
-4.29132
-5.78572
-9.27027
-4.00377
-4.15147
-3.66131
-3.14649
-2.81371
-2.71267
-2.72547
-2.82224
-2.96151
-3.10058
-3.2997
-3.4989
-3.73657
-4.02608
-4.50643
-5.2491
-6.6547
-9.03915
-16.2333
-1.45873
-2.40834
-2.8192
-3.00117
-3.09279
-3.22643
-3.36305
-3.54341
-3.74986
-3.9531
-4.23008
-4.50095
-4.82455
-5.2462
-5.98543
-7.29935
-10.1109
-15.8232
-37.1816
)
;

boundaryField
{
    up
    {
        type            calculated;
        value           nonuniform List<scalar> 
84
(
-33.7756
-18.0941
-10.3418
-5.90734
-3.20061
-1.59696
-0.724356
-0.297493
-0.110657
-0.0373808
-0.0115104
-0.00324787
-0.000846093
-0.00020562
-4.75444e-05
-1.09747e-05
-2.8364e-06
-9.64617e-07
-4.39453e-07
-2.29325e-07
-1.20691e-07
-6.0914e-08
-2.88668e-08
-1.0507e-08
-1.04057e-08
-1.71787e-08
-2.88929e-08
-5.57408e-08
-1.32596e-07
-3.2469e-07
-4.64593e-07
1.79768e-06
1.61766e-05
-3.2866e-06
-0.000158281
-0.000433568
-0.000783602
-0.00129326
-0.00194657
-0.00265422
-0.00326854
-0.00363818
-0.00363947
-0.00327212
-0.002659
-0.00195136
-0.0012973
-0.000786656
-0.000436087
-0.00016026
-3.42242e-06
1.72872e-05
1.99005e-06
-5.80214e-07
-4.21584e-07
-1.77394e-07
-7.22035e-08
-3.42465e-08
-1.86649e-08
-1.06581e-08
-1.04819e-08
-2.88355e-08
-6.08728e-08
-1.20666e-07
-2.2933e-07
-4.39357e-07
-9.63976e-07
-2.83572e-06
-1.09877e-05
-4.76617e-05
-0.000206245
-0.000848574
-0.00325558
-0.0115291
-0.0374145
-0.110696
-0.297498
-0.724271
-1.59678
-3.20045
-5.90736
-10.342
-18.0943
-33.7755
)
;
    }
    low
    {
        type            calculated;
        value           nonuniform List<scalar> 
84
(
-1.6124
-4.34242
-6.75335
-8.40183
-9.27925
-9.57727
-9.50274
-9.22142
-8.82182
-8.35714
-8.02674
-7.7199
-7.37622
-7.14597
-6.98111
-6.82958
-6.73024
-6.70833
-6.68402
-6.63907
-6.66365
-6.72776
-6.78524
-6.82505
-6.78222
-6.71527
-6.65706
-6.64119
-6.65016
-6.70406
-6.80372
-6.8709
-6.98476
-7.17843
-7.40763
-7.71366
-8.11837
-8.46713
-8.725
-8.93161
-9.08641
-9.21289
-9.21291
-9.08641
-8.93163
-8.72502
-8.46715
-8.11839
-7.71368
-7.40745
-7.17847
-6.9846
-6.87074
-6.80353
-6.70385
-6.6499
-6.64093
-6.65682
-6.71513
-6.78214
-6.82511
-6.78518
-6.72775
-6.66365
-6.63906
-6.68402
-6.70833
-6.73024
-6.82958
-6.9811
-7.14595
-7.37622
-7.71988
-8.02671
-8.35712
-8.8218
-9.22142
-9.50274
-9.57727
-9.27926
-8.40185
-6.75337
-4.34243
-1.61241
)
;
    }
    left
    {
        type            calculated;
        value           nonuniform List<scalar> 
19
(
-1.46213
-2.44877
-2.91876
-3.14822
-3.2714
-3.42853
-3.58271
-3.78222
-4.00701
-4.2306
-4.53249
-4.82291
-5.16874
-5.62524
-6.43167
-7.90671
-11.1303
-17.7909
-34.8776
)
;
    }
    right
    {
        type            calculated;
        value           nonuniform List<scalar> 
19
(
-1.46213
-2.44878
-2.91876
-3.14822
-3.2714
-3.42853
-3.58271
-3.78222
-4.00701
-4.2306
-4.53249
-4.82292
-5.16876
-5.62529
-6.4317
-7.90666
-11.1302
-17.7908
-34.8777
)
;
    }
    frontAndBackPlanes
    {
        type            empty;
    }
}


// ************************************************************************* //
