/*--------------------------------*- C++ -*----------------------------------*\
  =========                 |
  \\      /  F ield         | OpenFOAM: The Open Source CFD Toolbox
   \\    /   O peration     | Website:  https://openfoam.org
    \\  /    A nd           | Version:  7
     \\/     M anipulation  |
\*---------------------------------------------------------------------------*/
FoamFile
{
    version     2.0;
    format      ascii;
    class       volScalarField;
    location    "0.15";
    object      T;
}
// * * * * * * * * * * * * * * * * * * * * * * * * * * * * * * * * * * * * * //

dimensions      [0 0 0 1 0 0 0];

internalField   nonuniform List<scalar> 
1596
(
5.97757
5.91357
5.84911
5.79002
5.73832
5.69396
5.65619
5.62282
5.59217
5.56024
5.52393
5.47891
5.41651
5.32535
5.18868
4.97046
4.60464
3.95966
2.77167
5.90343
5.70507
5.52116
5.35764
5.21609
5.09522
4.9925
4.90313
4.82266
4.74339
4.65862
4.56004
4.43384
4.26392
4.03138
3.70292
3.22915
2.5267
1.43838
5.81689
5.48534
5.19226
4.93716
4.71845
4.53281
4.3759
4.24126
4.12264
4.01061
3.8968
3.77132
3.61944
3.42501
3.17099
2.83097
2.37099
1.7411
0.849926
5.73332
5.27952
4.88955
4.55486
4.26995
4.02935
3.82716
3.65583
3.50804
3.37366
3.24369
3.10779
2.95174
2.76056
2.51947
2.20766
1.80142
1.27036
0.561046
5.66636
5.10974
4.63668
4.23325
3.89098
3.60278
3.36163
3.15932
2.98797
2.83726
2.69805
2.56006
2.40988
2.23382
2.01886
1.74793
1.40341
0.965527
0.401722
5.62399
4.98966
4.44832
3.98594
3.59324
3.26255
2.98629
2.75607
2.56374
2.3991
2.2531
2.11564
1.97418
1.81608
1.62958
1.40001
1.11317
0.75485
0.303631
5.60611
4.92107
4.32695
3.81494
3.37764
3.00811
2.69902
2.44216
2.22947
2.051
1.89788
1.7603
1.62644
1.48456
1.32374
1.13093
0.893884
0.601211
0.237385
5.60649
4.89552
4.26408
3.71186
3.2356
2.83049
2.49027
2.20738
1.97414
1.78097
1.61927
1.47948
1.35046
1.22117
1.08135
0.919086
0.723355
0.484212
0.189274
5.61944
4.9026
4.24791
3.66457
3.15497
2.71754
2.34785
2.0395
1.78542
1.57655
1.4046
1.26028
1.13297
1.01226
0.888435
0.750435
0.588114
0.392345
0.152491
5.63451
4.92392
4.25773
3.65239
3.11589
2.65047
2.25409
1.92187
1.64764
1.42298
1.23993
1.08949
0.961512
0.846076
0.73393
0.614762
0.479123
0.318464
0.123275
5.64575
4.94538
4.27565
3.65639
3.09982
2.61168
2.19254
1.83924
1.54672
1.30727
1.11334
0.956222
0.826141
0.71362
0.609817
0.505081
0.390591
0.258303
0.0995588
5.65848
4.97001
4.30057
3.67227
3.10041
2.5937
2.15515
1.78336
1.47443
1.22143
1.01722
0.85335
0.720351
0.609085
0.511055
0.417175
0.319191
0.209545
0.0802949
5.66959
4.99286
4.32548
3.69123
3.10771
2.58607
2.13141
1.74398
1.42101
1.1563
0.943103
0.773159
0.63724
0.52645
0.432556
0.346941
0.261854
0.170197
0.0646908
5.67515
5.00658
4.34129
3.70313
3.11109
2.57808
2.11092
1.71123
1.37725
1.10338
0.883212
0.708639
0.570575
0.46029
0.369746
0.290711
0.215871
0.138563
0.0521142
5.67895
5.01455
4.34951
3.70756
3.10847
2.56641
2.0895
1.68043
1.3382
1.05769
0.832678
0.655133
0.516017
0.406685
0.31922
0.245693
0.179152
0.113326
0.0420824
5.68215
5.01912
4.35196
3.7051
3.09914
2.54922
2.06443
1.64826
1.30018
1.01536
0.787604
0.608823
0.469929
0.362272
0.277989
0.209374
0.149771
0.0932462
0.0341381
5.68309
5.01856
4.34703
3.69389
3.08074
2.52367
2.03253
1.6113
1.25969
0.972892
0.74457
0.566413
0.429186
0.324154
0.24345
0.179532
0.125987
0.0771755
0.027845
5.68264
5.01405
4.33596
3.67494
3.05384
2.48976
1.99321
1.56849
1.2153
0.928591
0.701687
0.525907
0.39175
0.290321
0.2137
0.154468
0.106414
0.0641665
0.0228278
5.68524
5.01271
4.32641
3.6555
3.02473
2.45258
1.95032
1.5225
1.16862
0.883212
0.659032
0.486858
0.3568
0.259712
0.187567
0.133023
0.0900451
0.0534932
0.0187867
5.68955
5.01448
4.31936
3.63704
2.99499
2.41351
1.9049
1.47398
1.11992
0.836678
0.616223
0.448638
0.323518
0.231383
0.164049
0.114226
0.0760315
0.0445447
0.0154694
5.69247
5.01523
4.31145
3.61723
2.96311
2.37169
1.85647
1.42264
1.069
0.788741
0.572932
0.410808
0.291349
0.20468
0.14243
0.0973523
0.0637223
0.0368419
0.0126775
5.69601
5.0172
4.30511
3.59885
2.93218
2.3302
1.80794
1.37103
1.01791
0.740966
0.530222
0.373978
0.260522
0.179529
0.122416
0.0819696
0.0526448
0.0299974
0.0102495
5.70117
5.02239
4.30285
3.58483
2.90539
2.29239
1.76253
1.32207
0.969133
0.695279
0.489467
0.339009
0.231458
0.155999
0.103806
0.0676857
0.0422897
0.023511
0.00794201
5.70747
5.03055
4.30489
3.57599
2.88423
2.26025
1.72253
1.27809
0.924771
0.65341
0.451936
0.30669
0.204514
0.134096
0.0863353
0.0540114
0.0319554
0.0164789
0.00492562
5.71899
5.05697
4.33958
3.61317
2.9195
2.29072
1.74684
1.29601
0.93687
0.660634
0.455374
0.30739
0.203389
0.13188
0.0835713
0.0510628
0.029102
0.0140771
0.00365494
5.7324
5.09458
4.3976
3.68608
3.00075
2.37378
1.82609
1.36732
0.997763
0.710194
0.493875
0.33599
0.223721
0.145743
0.0926696
0.0568207
0.0325745
0.015959
0.00429976
5.73969
5.11953
4.44068
3.745
3.07112
2.45004
1.90264
1.43934
1.06175
0.764113
0.537035
0.368817
0.247421
0.161972
0.103222
0.0633241
0.0363197
0.0178487
0.00487418
5.74096
5.13108
4.46719
3.78767
3.12802
2.517
1.9744
1.51064
1.12813
0.82238
0.585374
0.406705
0.275398
0.181359
0.115797
0.0709172
0.0405167
0.0198297
0.00540803
5.7386
5.13378
4.48252
3.81943
3.17624
2.57867
2.04467
1.58398
1.19936
0.887335
0.641184
0.451884
0.309706
0.205629
0.13168
0.0804418
0.0456534
0.0221528
0.00598599
5.73321
5.13053
4.49107
3.84515
3.22032
2.63889
2.1165
1.66181
1.27754
0.960949
0.706506
0.506513
0.35254
0.236808
0.152493
0.0929817
0.052324
0.0250872
0.00668681
5.72665
5.12616
4.49908
3.8713
3.26625
2.70277
2.19406
1.74746
1.36542
1.04574
0.783857
0.573283
0.406768
0.27775
0.180726
0.110317
0.0614907
0.028997
0.00759397
5.7232
5.12746
4.514
3.90514
3.32055
2.77586
2.28187
1.84458
1.46607
1.14447
0.876067
0.655356
0.476039
0.332508
0.220418
0.135791
0.075198
0.034596
0.00875494
5.72097
5.13189
4.53348
3.94463
3.38152
2.85673
2.37881
1.95242
1.57922
1.25754
0.984357
0.755028
0.563967
0.406144
0.277845
0.176016
0.0988895
0.0447233
0.0102493
5.71962
5.13913
4.55737
3.98982
3.44933
2.94564
2.48521
2.07146
1.70558
1.38607
1.11051
0.875071
0.674816
0.505081
0.362235
0.243147
0.146391
0.0718096
0.0184945
5.71756
5.14375
4.57598
4.02691
3.5065
3.02202
2.57812
2.17708
1.81959
1.50416
1.2288
0.990348
0.784487
0.606996
0.454241
0.322468
0.209095
0.113098
0.0337511
5.71018
5.13272
4.56899
4.02899
3.52024
3.04805
2.61558
2.22408
1.87369
1.56263
1.289
1.04988
0.841312
0.659482
0.501178
0.362784
0.241551
0.135699
0.0431207
5.69904
5.11151
4.54578
4.00894
3.50635
3.04165
2.61678
2.23206
1.88706
1.57965
1.30781
1.06871
0.858539
0.673812
0.511796
0.369395
0.244536
0.136194
0.042777
5.69065
5.0959
4.52921
3.99537
3.49804
3.03956
2.62087
2.24161
1.90089
1.5963
1.32579
1.08662
0.875148
0.68815
0.523265
0.377736
0.249842
0.13892
0.0435871
5.68579
5.0867
4.51971
3.9883
3.49496
3.04113
2.62701
2.25172
1.91405
1.61139
1.34166
1.10221
0.889523
0.700582
0.533297
0.385151
0.254682
0.141509
0.0444154
5.68241
5.08037
4.5133
3.98375
3.49338
3.04297
2.63219
2.25977
1.92427
1.62296
1.35373
1.114
0.900344
0.7099
0.540781
0.39065
0.25824
0.143393
0.0450213
5.67989
5.07553
4.50828
3.97997
3.49164
3.04357
2.63507
2.26462
1.93061
1.63022
1.36136
1.12146
0.907174
0.715742
0.545417
0.393987
0.260326
0.144442
0.0453447
5.67701
5.07061
4.50323
3.97577
3.48876
3.04217
2.63511
2.2659
1.93287
1.63314
1.36462
1.12478
0.910302
0.718475
0.547627
0.395609
0.261363
0.14498
0.045522
5.67703
5.07064
4.50327
3.97581
3.48881
3.04223
2.63516
2.26595
1.93293
1.63319
1.36467
1.12482
0.910341
0.718508
0.547655
0.395631
0.261379
0.14499
0.0455252
5.67992
5.0756
4.50839
3.9801
3.49179
3.04373
2.63523
2.26478
1.93077
1.63038
1.3615
1.12159
0.907293
0.715846
0.545504
0.394056
0.260376
0.144472
0.0453553
5.68246
5.08049
4.51348
3.98396
3.49362
3.04322
2.63245
2.26003
1.92453
1.6232
1.35396
1.11421
0.900533
0.710064
0.540919
0.390758
0.258318
0.14344
0.0450376
5.68585
5.08687
4.51995
3.98859
3.49528
3.04147
2.62737
2.25208
1.91439
1.61172
1.34197
1.10249
0.889775
0.7008
0.533478
0.385294
0.254785
0.141571
0.0444367
5.69073
5.0961
4.5295
3.99573
3.49843
3.03999
2.62131
2.24205
1.90132
1.59671
1.32617
1.08697
0.875456
0.688417
0.523486
0.377909
0.249966
0.138995
0.0436127
5.69913
5.11174
4.54611
4.00935
3.50681
3.04215
2.61729
2.23257
1.88756
1.58012
1.30825
1.06911
0.858892
0.674114
0.512044
0.369587
0.244671
0.136273
0.0428033
5.71028
5.13297
4.56937
4.02946
3.52077
3.04861
2.61616
2.22466
1.87425
1.56316
1.28949
1.05032
0.841696
0.659803
0.501432
0.362972
0.241674
0.135766
0.043141
5.71769
5.14412
4.57657
4.02768
3.50741
3.02303
2.5792
2.17818
1.82069
1.50523
1.22982
0.991307
0.785377
0.607811
0.454978
0.323118
0.209635
0.113483
0.0339097
5.71978
5.13957
4.55807
3.99073
3.45042
2.94686
2.4865
2.07278
1.70689
1.38734
1.11171
0.876191
0.675842
0.506005
0.363045
0.243825
0.146908
0.0721364
0.0186093
5.7211
5.13227
4.5341
3.94544
3.38249
2.8578
2.37993
1.95356
1.58033
1.2586
0.985332
0.755909
0.564745
0.406809
0.278386
0.176421
0.0991529
0.0448528
0.0102755
5.72331
5.12781
4.51459
3.90591
3.32147
2.77688
2.28293
1.84564
1.46709
1.14542
0.876923
0.656108
0.476678
0.333029
0.220818
0.136069
0.0753652
0.0346739
0.00877348
5.72676
5.12649
4.49962
3.87203
3.26712
2.70373
2.19505
1.74844
1.36635
1.04658
0.784603
0.57392
0.407292
0.278162
0.181028
0.110519
0.0616093
0.0290531
0.00760811
5.73331
5.13083
4.49158
3.84583
3.22113
2.63978
2.11742
1.6627
1.27837
0.961696
0.707152
0.507052
0.352971
0.237135
0.152726
0.0931349
0.0524136
0.0251304
0.00669808
5.73868
5.13405
4.48298
3.82006
3.17699
2.57949
2.0455
1.58479
1.2001
0.887988
0.641738
0.452335
0.310059
0.205892
0.131864
0.0805614
0.0457237
0.0221874
0.00599532
5.74103
5.13132
4.4676
3.78823
3.12869
2.51773
1.97515
1.51135
1.12878
0.822942
0.585843
0.407081
0.275687
0.181571
0.115944
0.0710131
0.0405738
0.0198585
0.00541617
5.73975
5.11974
4.44104
3.74549
3.07171
2.45068
1.90329
1.43996
1.06231
0.764591
0.53743
0.36913
0.24766
0.162146
0.103343
0.0634036
0.0363681
0.0178742
0.00488187
5.73245
5.09476
4.39791
3.6865
3.00126
2.37433
1.82665
1.36785
0.998236
0.710599
0.494207
0.336252
0.22392
0.145888
0.0927715
0.056889
0.0326174
0.0159827
0.00430763
5.71899
5.05701
4.33965
3.61329
2.91964
2.29088
1.74701
1.29617
0.937019
0.660765
0.455484
0.307479
0.203457
0.131929
0.0836041
0.0510825
0.0291115
0.0140794
0.00365387
5.70745
5.0305
4.30482
3.5759
2.88413
2.26014
1.72243
1.27799
0.924691
0.653345
0.451885
0.306652
0.204485
0.134074
0.0863177
0.0539972
0.0319439
0.0164701
0.0049209
5.70117
5.02238
4.30284
3.58482
2.90539
2.29238
1.76253
1.32208
0.969143
0.695292
0.489481
0.339023
0.23147
0.156009
0.103813
0.067691
0.0422931
0.0235125
0.00794212
5.69601
5.01719
4.3051
3.59885
2.93217
2.3302
1.80794
1.37104
1.01792
0.740976
0.530232
0.373987
0.260531
0.179536
0.122421
0.0819734
0.0526472
0.0299986
0.0102498
5.69247
5.01522
4.31144
3.61722
2.96311
2.37169
1.85647
1.42265
1.069
0.788749
0.572939
0.410815
0.291355
0.204684
0.142435
0.0973555
0.0637245
0.0368432
0.0126778
5.68955
5.01447
4.31936
3.63704
2.99498
2.41351
1.90491
1.47398
1.11993
0.836683
0.616228
0.448643
0.323523
0.231387
0.164053
0.114229
0.0760338
0.0445461
0.0154698
5.68524
5.01271
4.3264
3.65549
3.02473
2.45258
1.95032
1.5225
1.16862
0.883216
0.659036
0.486862
0.356804
0.259716
0.187571
0.133027
0.0900478
0.0534949
0.0187872
5.68264
5.01405
4.33596
3.67494
3.05384
2.48976
1.99321
1.5685
1.2153
0.928593
0.70169
0.52591
0.391753
0.290325
0.213705
0.154471
0.106417
0.0641683
0.0228283
5.68309
5.01856
4.34703
3.69389
3.08074
2.52367
2.03253
1.6113
1.25969
0.972894
0.744572
0.566417
0.42919
0.324158
0.243455
0.179536
0.12599
0.0771773
0.0278455
5.68215
5.01912
4.35196
3.70511
3.09914
2.54922
2.06443
1.64826
1.30018
1.01536
0.787607
0.608827
0.469933
0.362277
0.277994
0.209379
0.149774
0.0932479
0.0341385
5.67895
5.01455
4.34951
3.70756
3.10848
2.56642
2.0895
1.68044
1.3382
1.05769
0.832681
0.655137
0.516021
0.406689
0.319224
0.245696
0.179154
0.113327
0.0420825
5.67515
5.00659
4.34129
3.70313
3.11109
2.57808
2.11092
1.71123
1.37725
1.10338
0.883214
0.708643
0.570579
0.460294
0.369749
0.290714
0.215873
0.138563
0.0521141
5.66959
4.99287
4.32548
3.69123
3.10771
2.58607
2.13141
1.74398
1.42101
1.15631
0.943105
0.773162
0.637243
0.526453
0.432557
0.346941
0.261853
0.170196
0.0646905
5.65848
4.97001
4.30058
3.67228
3.10041
2.5937
2.15515
1.78336
1.47443
1.22143
1.01723
0.853352
0.720352
0.609086
0.511054
0.417173
0.319189
0.209543
0.0802945
5.64575
4.94538
4.27566
3.6564
3.09982
2.61168
2.19254
1.83924
1.54672
1.30727
1.11334
0.956222
0.82614
0.713618
0.609814
0.505077
0.390586
0.2583
0.0995585
5.63451
4.92393
4.25774
3.65239
3.11589
2.65047
2.25409
1.92187
1.64764
1.42298
1.23993
1.08949
0.961508
0.84607
0.733923
0.614755
0.479117
0.318461
0.123275
5.61944
4.90261
4.24791
3.66457
3.15496
2.71753
2.34784
2.03949
1.78541
1.57655
1.4046
1.26027
1.13296
1.01225
0.888425
0.750427
0.588108
0.392343
0.152492
5.60649
4.89551
4.26408
3.71185
3.2356
2.83049
2.49026
2.20738
1.97413
1.78097
1.61926
1.47948
1.35045
1.22115
1.08134
0.919077
0.723349
0.484211
0.189275
5.60611
4.92107
4.32694
3.81494
3.37764
3.00811
2.69901
2.44215
2.22946
2.05099
1.89787
1.76028
1.62642
1.48455
1.32373
1.13092
0.893881
0.601211
0.237386
5.62399
4.98965
4.44831
3.98593
3.59324
3.26254
2.98629
2.75606
2.56373
2.39909
2.25309
2.11563
1.97416
1.81607
1.62957
1.4
1.11317
0.754852
0.303632
5.66636
5.10974
4.63667
4.23324
3.89098
3.60278
3.36162
3.15932
2.98796
2.83725
2.69804
2.56004
2.40987
2.23381
2.01885
1.74793
1.40341
0.96553
0.401723
5.73331
5.27951
4.88954
4.55486
4.26995
4.02934
3.82716
3.65582
3.50803
3.37365
3.24368
3.10778
2.95174
2.76055
2.51947
2.20766
1.80142
1.27036
0.561046
5.81688
5.48534
5.19226
4.93716
4.71845
4.5328
4.3759
4.24125
4.12263
4.0106
3.89679
3.77131
3.61944
3.42501
3.17099
2.83097
2.371
1.74111
0.849925
5.90343
5.70507
5.52116
5.35764
5.21609
5.09522
4.99249
4.90312
4.82265
4.74339
4.65862
4.56004
4.43384
4.26392
4.03138
3.70293
3.22915
2.5267
1.43838
5.97757
5.91357
5.84911
5.79002
5.73832
5.69396
5.65619
5.62282
5.59216
5.56024
5.52393
5.47891
5.41651
5.32535
5.18868
4.97046
4.60464
3.95966
2.77166
)
;

boundaryField
{
    up
    {
        type            fixedValue;
        value           uniform 0;
    }
    low
    {
        type            fixedValue;
        value           uniform 6;
    }
    left
    {
        type            fixedValue;
        value           uniform 6;
    }
    right
    {
        type            fixedValue;
        value           uniform 6;
    }
    frontAndBackPlanes
    {
        type            empty;
    }
}


// ************************************************************************* //
