/*--------------------------------*- C++ -*----------------------------------*\
  =========                 |
  \\      /  F ield         | OpenFOAM: The Open Source CFD Toolbox
   \\    /   O peration     | Website:  https://openfoam.org
    \\  /    A nd           | Version:  7
     \\/     M anipulation  |
\*---------------------------------------------------------------------------*/
FoamFile
{
    version     2.0;
    format      ascii;
    class       volScalarField;
    location    "0.115";
    object      T;
}
// * * * * * * * * * * * * * * * * * * * * * * * * * * * * * * * * * * * * * //

dimensions      [0 0 0 1 0 0 0];

internalField   nonuniform List<scalar> 
1596
(
0.99543
0.982426
0.969439
0.957736
0.947793
0.93963
0.933102
0.927771
0.923298
0.918924
0.914074
0.907938
0.898935
0.885047
0.863365
0.827786
0.767277
0.659963
0.461969
0.980394
0.940235
0.903336
0.871113
0.844025
0.821867
0.804124
0.789813
0.778024
0.767253
0.756226
0.743353
0.72607
0.701412
0.665945
0.613856
0.536753
0.420733
0.23974
0.963057
0.89631
0.837827
0.787819
0.746152
0.712216
0.685112
0.663485
0.64603
0.630873
0.616387
0.600655
0.580899
0.554074
0.516964
0.46478
0.391569
0.288865
0.1415
0.946674
0.855995
0.778692
0.713461
0.659418
0.615527
0.580548
0.552875
0.530948
0.512721
0.496409
0.479994
0.460771
0.435879
0.402446
0.356554
0.293854
0.209001
0.0930144
0.933996
0.823751
0.730682
0.652535
0.587885
0.535381
0.493542
0.460606
0.434857
0.414183
0.396742
0.380508
0.362941
0.341417
0.313373
0.275512
0.224442
0.156478
0.0659692
0.926454
0.802018
0.696377
0.607388
0.533523
0.473339
0.425244
0.387416
0.358055
0.335039
0.316511
0.300479
0.284575
0.266403
0.243655
0.213475
0.173044
0.119531
0.0490303
0.923778
0.790686
0.67571
0.577826
0.495936
0.428774
0.3748
0.33222
0.29922
0.273696
0.253799
0.237573
0.222807
0.207308
0.188977
0.165296
0.133819
0.0921739
0.0373668
0.924539
0.78764
0.666441
0.561585
0.47283
0.399356
0.339844
0.292623
0.255923
0.227682
0.206067
0.189156
0.174867
0.161176
0.146164
0.127591
0.103293
0.0711768
0.0287625
0.927514
0.790539
0.665818
0.555787
0.461303
0.382198
0.317523
0.26582
0.225418
0.194321
0.170715
0.152703
0.138301
0.125617
0.112886
0.0981052
0.0793508
0.0547457
0.0221416
0.930676
0.795695
0.669607
0.55614
0.457205
0.373362
0.30413
0.248334
0.204455
0.170583
0.144927
0.125612
0.110719
0.09846
0.0871935
0.0751246
0.060543
0.0417697
0.0169245
0.932931
0.800427
0.67434
0.558929
0.456856
0.369336
0.296369
0.237098
0.190191
0.153839
0.126287
0.105676
0.0901322
0.0779431
0.0675662
0.0573817
0.045874
0.0315561
0.0127918
0.93532
0.805344
0.679789
0.563254
0.458917
0.368518
0.292499
0.230311
0.180816
0.142314
0.113087
0.0912852
0.075061
0.0627476
0.0528743
0.0439614
0.0346605
0.0236643
0.00956399
0.937288
0.809563
0.684673
0.567466
0.461495
0.368901
0.290487
0.225976
0.174408
0.134181
0.103608
0.0808431
0.0640459
0.0515743
0.0420044
0.0339625
0.0262368
0.0176796
0.00708923
0.93812
0.811767
0.687373
0.569764
0.46269
0.368569
0.288465
0.222314
0.169291
0.127872
0.0963901
0.0729946
0.0558427
0.0433024
0.0339792
0.0265785
0.0199965
0.013221
0.00523
0.93855
0.812642
0.688237
0.570128
0.462169
0.366944
0.285689
0.218472
0.164555
0.12245
0.0904923
0.0668136
0.0495574
0.0370912
0.0280371
0.021158
0.0154334
0.00996016
0.00386524
0.938814
0.812669
0.687653
0.56872
0.459846
0.363729
0.281698
0.21388
0.159557
0.117232
0.0852125
0.0615918
0.0444903
0.0322665
0.023551
0.017149
0.0121041
0.00759975
0.00288099
0.938606
0.81155
0.685362
0.565247
0.455355
0.358483
0.275996
0.208009
0.153753
0.111672
0.0800032
0.0567853
0.0401048
0.0283066
0.0200273
0.0141072
0.00964211
0.00588536
0.00217562
0.938103
0.809535
0.681643
0.559954
0.448857
0.351266
0.268546
0.200738
0.14696
0.105534
0.0745914
0.0520902
0.0360739
0.024872
0.0171274
0.0117139
0.0077737
0.00461991
0.00166681
0.93818
0.80803
0.677989
0.554231
0.441543
0.343027
0.260054
0.192557
0.139478
0.0989693
0.0690081
0.047446
0.0322697
0.0217879
0.0146498
0.00976216
0.00631084
0.00366189
0.00129299
0.938602
0.807065
0.674641
0.548412
0.433755
0.334066
0.250755
0.183626
0.131403
0.0920136
0.0632379
0.0427936
0.0285967
0.0189316
0.0124551
0.00810835
0.00512134
0.00291044
0.00100954
0.938783
0.805909
0.671049
0.542165
0.425333
0.324336
0.240667
0.173995
0.122787
0.0847043
0.0572952
0.0381202
0.0250158
0.0162409
0.0104639
0.00666505
0.00412126
0.00229969
0.000786665
0.939139
0.805065
0.667796
0.536154
0.41698
0.314522
0.230408
0.164181
0.114037
0.077341
0.051383
0.0335482
0.0215853
0.0137267
0.00865432
0.00539058
0.00326199
0.00178796
0.000605184
0.939885
0.805005
0.665496
0.531098
0.409471
0.305395
0.220684
0.154788
0.105634
0.0702806
0.0457463
0.0292302
0.0183869
0.0114191
0.00702172
0.00425858
0.00250623
0.00133876
0.000446952
0.940941
0.805761
0.664355
0.527382
0.403334
0.297562
0.21211
0.146374
0.0980376
0.0638717
0.0406263
0.0253152
0.0154982
0.0093454
0.00555998
0.00324129
0.00181142
0.000899222
0.000265412
0.943141
0.810458
0.670044
0.532897
0.40794
0.300946
0.214292
0.147568
0.0985288
0.0639249
0.040447
0.0250405
0.0152083
0.00907986
0.00533229
0.00304954
0.0016497
0.000770086
0.000196234
0.94581
0.817715
0.680814
0.545767
0.421437
0.313797
0.225614
0.156908
0.105802
0.0693091
0.0442501
0.027614
0.0168812
0.0101284
0.00596989
0.0034273
0.00186551
0.000881777
0.000232602
0.947329
0.82283
0.689375
0.556971
0.434088
0.326625
0.237553
0.167244
0.114204
0.0757626
0.0489525
0.0308709
0.0190254
0.0114701
0.0067695
0.0038816
0.00210931
0.000997911
0.000266018
0.947711
0.825622
0.695352
0.566013
0.445386
0.339012
0.249846
0.178495
0.123811
0.0834771
0.0548022
0.035065
0.0218624
0.0132727
0.00784152
0.00447496
0.00241083
0.00112958
0.000298682
0.947447
0.826951
0.699672
0.573712
0.455975
0.351444
0.262885
0.191016
0.134987
0.0928347
0.0621899
0.0405709
0.0257225
0.0157995
0.00937226
0.00532261
0.00283162
0.00130424
0.000337683
0.94666
0.827348
0.703055
0.580763
0.466408
0.364309
0.276935
0.205021
0.147952
0.104099
0.0714275
0.0477321
0.0309487
0.0193555
0.0115978
0.00657918
0.00345548
0.0015584
0.000392181
0.945724
0.827707
0.706573
0.588183
0.477524
0.378242
0.292458
0.22086
0.163014
0.117587
0.0828725
0.0569491
0.0379643
0.0243481
0.0148617
0.00848624
0.00441504
0.00194505
0.00047419
0.945469
0.829291
0.71154
0.597168
0.49032
0.394018
0.310035
0.23898
0.180552
0.133673
0.0969348
0.0686919
0.0472989
0.0313376
0.0196957
0.0114691
0.00596895
0.00256109
0.00059506
0.945497
0.831526
0.717384
0.607192
0.50433
0.411239
0.329348
0.259162
0.200471
0.152404
0.113822
0.0833374
0.0595011
0.0410293
0.0269098
0.0163308
0.00875121
0.00373155
0.000770862
0.945715
0.834279
0.723977
0.618147
0.519464
0.429831
0.350349
0.2814
0.222833
0.173943
0.133826
0.101343
0.0752325
0.0543369
0.0377061
0.0245408
0.014338
0.00681159
0.0016741
0.945795
0.836483
0.72948
0.627494
0.532601
0.446237
0.369203
0.301744
0.243714
0.194515
0.153417
0.119478
0.0916076
0.0687763
0.0500888
0.0347077
0.0220231
0.0116726
0.00339916
0.944847
0.83565
0.730065
0.63024
0.537763
0.453697
0.378587
0.312531
0.25533
0.206397
0.165074
0.130511
0.101716
0.0777524
0.0578059
0.0410714
0.0269283
0.0149354
0.00468596
0.943164
0.832796
0.727428
0.628646
0.537619
0.455104
0.381426
0.31654
0.260173
0.211704
0.170492
0.135723
0.106453
0.0818037
0.0610376
0.0434212
0.0284212
0.0156918
0.00489016
0.941963
0.830853
0.725792
0.627933
0.538127
0.45689
0.38438
0.320439
0.264733
0.21662
0.175469
0.140501
0.110811
0.0855719
0.0641093
0.0457429
0.0299942
0.0165743
0.00517441
0.941362
0.829935
0.725201
0.628075
0.539198
0.458921
0.387277
0.324024
0.268789
0.220906
0.179756
0.144586
0.114521
0.0887756
0.0667222
0.047722
0.0313397
0.0173336
0.00542308
0.940968
0.82936
0.724899
0.62833
0.540145
0.460579
0.389573
0.326826
0.271931
0.22421
0.183049
0.147715
0.117357
0.0912178
0.0687079
0.0492199
0.0323523
0.0179014
0.00560907
0.940658
0.828868
0.724567
0.628372
0.540662
0.461586
0.391023
0.328628
0.273973
0.226368
0.185207
0.14977
0.119218
0.0928162
0.0700009
0.050187
0.0329974
0.0182567
0.00572365
0.940206
0.828166
0.723939
0.627978
0.540568
0.461799
0.391514
0.329346
0.274855
0.227345
0.186213
0.150747
0.120116
0.0935967
0.0706387
0.0506685
0.0333217
0.0184374
0.00578329
0.940208
0.828171
0.723946
0.627986
0.540577
0.461809
0.391524
0.329356
0.274864
0.227354
0.186221
0.150754
0.120123
0.0936023
0.0706433
0.0506722
0.0333243
0.018439
0.00578383
0.940664
0.828882
0.724587
0.628396
0.54069
0.461615
0.391053
0.328657
0.274001
0.226395
0.185232
0.149792
0.119238
0.0928333
0.0700152
0.0501983
0.0330055
0.0182616
0.00572537
0.940977
0.829383
0.724932
0.62837
0.54019
0.460626
0.389621
0.326874
0.271977
0.224253
0.183088
0.147751
0.117389
0.091245
0.0687305
0.0492377
0.032365
0.0179091
0.00561172
0.941374
0.829965
0.725245
0.628129
0.539258
0.458984
0.387342
0.324088
0.268851
0.220964
0.179809
0.144634
0.114564
0.0888117
0.0667521
0.0477454
0.0313564
0.0173437
0.00542656
0.941977
0.830891
0.725847
0.628
0.538202
0.45697
0.384461
0.320518
0.26481
0.216692
0.175535
0.14056
0.110862
0.0856158
0.0641454
0.045771
0.0300142
0.0165864
0.00517855
0.943181
0.83284
0.727492
0.628724
0.537708
0.455198
0.381521
0.316633
0.260262
0.211787
0.170568
0.135791
0.106512
0.0818533
0.0610779
0.0434523
0.0284431
0.0157047
0.0048945
0.944866
0.835699
0.730138
0.630329
0.537864
0.453804
0.378696
0.312638
0.255431
0.20649
0.165158
0.130585
0.10178
0.0778056
0.0578482
0.0411029
0.0269497
0.0149475
0.00468995
0.945819
0.836554
0.729592
0.62764
0.532772
0.446423
0.369396
0.301936
0.2439
0.194689
0.153577
0.119622
0.0917354
0.0688883
0.0501856
0.0347896
0.0220887
0.0117181
0.00341743
0.945744
0.834364
0.724111
0.618321
0.519666
0.43005
0.350574
0.281624
0.223046
0.17414
0.134004
0.101501
0.0753707
0.0544556
0.0378058
0.0246212
0.0143977
0.00684866
0.00168694
0.945522
0.831601
0.717503
0.607346
0.504509
0.411431
0.329544
0.259352
0.200648
0.152565
0.113963
0.0834583
0.0596024
0.0411121
0.0269747
0.0163783
0.00878144
0.00374627
0.000773841
0.945492
0.829361
0.711653
0.597315
0.490491
0.394201
0.310219
0.239155
0.180712
0.133814
0.0970551
0.0687918
0.0473797
0.0314006
0.0197425
0.0115009
0.00598761
0.00256944
0.000596841
0.945745
0.827773
0.70668
0.588323
0.477685
0.378413
0.292628
0.221019
0.163156
0.11771
0.0829742
0.057031
0.0380282
0.0243959
0.0148956
0.00850823
0.00442744
0.00195052
0.000475349
0.946679
0.827409
0.703155
0.580894
0.466558
0.364467
0.27709
0.205164
0.148077
0.104204
0.0715125
0.0477986
0.0309989
0.0193918
0.0116225
0.00659468
0.00346401
0.00156215
0.000392982
0.947463
0.827006
0.699763
0.573832
0.456113
0.351587
0.263024
0.191142
0.135095
0.0929236
0.0622601
0.0406242
0.0257616
0.0158269
0.00939042
0.0053337
0.00283766
0.00130691
0.000338271
0.947725
0.82567
0.695433
0.56612
0.445509
0.339139
0.249968
0.178603
0.123903
0.083551
0.0548592
0.0351074
0.0218928
0.0132935
0.00785499
0.00448308
0.00241525
0.00113158
0.000299159
0.947341
0.822872
0.689446
0.557065
0.434195
0.326735
0.237657
0.167336
0.11428
0.0758231
0.0489985
0.0309046
0.0190491
0.0114861
0.00677976
0.0038878
0.00211277
0.00099956
0.000266458
0.94582
0.81775
0.680874
0.545847
0.421528
0.313889
0.225701
0.156984
0.105865
0.0693585
0.0442873
0.027641
0.0169
0.0101411
0.00597805
0.00343232
0.00186841
0.000883259
0.000233058
0.943142
0.810466
0.670059
0.532918
0.407965
0.300972
0.214317
0.147591
0.0985484
0.0639408
0.0404594
0.0250498
0.0152149
0.00908429
0.00533508
0.00305113
0.00165045
0.000770273
0.00019615
0.940937
0.805751
0.664341
0.527365
0.403315
0.297543
0.212093
0.14636
0.0980263
0.0638631
0.04062
0.0253107
0.015495
0.00934314
0.00555833
0.00324007
0.00181052
0.000898569
0.000265064
0.939885
0.805003
0.665494
0.531097
0.40947
0.305395
0.220685
0.15479
0.105635
0.0702824
0.0457479
0.0292315
0.0183878
0.0114197
0.00702207
0.00425877
0.00250631
0.00133877
0.000446918
0.939139
0.805064
0.667795
0.536153
0.416979
0.314522
0.230409
0.164182
0.114038
0.0773423
0.051384
0.033549
0.0215859
0.013727
0.00865456
0.00539074
0.00326209
0.001788
0.000605188
0.938783
0.805908
0.671048
0.542164
0.425333
0.324336
0.240668
0.173996
0.122788
0.0847051
0.0572959
0.0381207
0.0250161
0.0162412
0.0104642
0.00666525
0.00412143
0.0022998
0.000786695
0.938602
0.807065
0.67464
0.548411
0.433755
0.334066
0.250755
0.183627
0.131404
0.0920141
0.0632383
0.0427939
0.028597
0.0189319
0.0124554
0.00810866
0.00512162
0.00291063
0.0010096
0.93818
0.80803
0.677988
0.554231
0.441543
0.343027
0.260054
0.192557
0.139478
0.0989696
0.0690084
0.0474463
0.03227
0.0217883
0.0146503
0.00976263
0.00631127
0.00366218
0.00129308
0.938103
0.809535
0.681642
0.559954
0.448857
0.351266
0.268546
0.200739
0.14696
0.105534
0.0745916
0.0520905
0.0360744
0.0248726
0.0171281
0.0117145
0.0077743
0.00462031
0.00166692
0.938606
0.81155
0.685362
0.565248
0.455355
0.358483
0.275996
0.208009
0.153753
0.111672
0.0800033
0.0567857
0.0401054
0.0283074
0.0200282
0.0141081
0.00964289
0.00588586
0.00217575
0.938814
0.812669
0.687653
0.56872
0.459846
0.36373
0.281698
0.21388
0.159557
0.117232
0.0852128
0.0615923
0.0444911
0.0322675
0.0235521
0.0171501
0.0121051
0.00760031
0.00288112
0.93855
0.812643
0.688237
0.570128
0.462169
0.366944
0.285689
0.218472
0.164554
0.12245
0.0904927
0.0668143
0.0495585
0.0370925
0.0280385
0.0211593
0.0154344
0.00996071
0.00386534
0.93812
0.811767
0.687374
0.569764
0.462691
0.368569
0.288465
0.222313
0.169291
0.127872
0.0963906
0.0729956
0.055844
0.0433039
0.0339807
0.0265798
0.0199975
0.0132214
0.00523003
0.937288
0.809564
0.684674
0.567467
0.461495
0.368901
0.290486
0.225976
0.174408
0.134181
0.103609
0.0808443
0.0640473
0.0515758
0.0420058
0.0339636
0.0262374
0.0176798
0.00708916
0.93532
0.805345
0.67979
0.563254
0.458917
0.368518
0.292499
0.230311
0.180816
0.142315
0.113088
0.0912865
0.0750624
0.0627489
0.0528753
0.0439619
0.0346606
0.0236641
0.00956383
0.932931
0.800428
0.674341
0.558929
0.456856
0.369335
0.296369
0.237098
0.190191
0.15384
0.126288
0.105677
0.0901333
0.0779439
0.0675665
0.0573814
0.0458733
0.0315554
0.0127916
0.930677
0.795696
0.669607
0.55614
0.457205
0.373362
0.30413
0.248334
0.204455
0.170583
0.144928
0.125612
0.110719
0.0984598
0.0871928
0.0751233
0.0605416
0.0417687
0.0169243
0.927515
0.790539
0.665818
0.555786
0.461302
0.382198
0.317523
0.265819
0.225418
0.194321
0.170715
0.152703
0.1383
0.125616
0.112884
0.098103
0.0793488
0.0547446
0.0221415
0.924539
0.78764
0.66644
0.561584
0.472829
0.399355
0.339844
0.292623
0.255922
0.227682
0.206066
0.189155
0.174865
0.161174
0.146161
0.127588
0.103291
0.0711759
0.0287626
0.923778
0.790685
0.675709
0.577825
0.495935
0.428773
0.374799
0.33222
0.29922
0.273695
0.253797
0.23757
0.222804
0.207304
0.188973
0.165293
0.133818
0.0921734
0.0373671
0.926453
0.802017
0.696377
0.607387
0.533522
0.473338
0.425244
0.387415
0.358054
0.335037
0.316509
0.300477
0.284571
0.2664
0.243652
0.213473
0.173043
0.119532
0.0490307
0.933996
0.823751
0.730681
0.652535
0.587885
0.535381
0.493541
0.460605
0.434855
0.414181
0.396739
0.380505
0.362937
0.341413
0.31337
0.27551
0.224442
0.156478
0.0659696
0.946673
0.855995
0.778692
0.713461
0.659418
0.615526
0.580547
0.552874
0.530946
0.512718
0.496406
0.479991
0.460768
0.435877
0.402445
0.356554
0.293855
0.209002
0.0930146
0.963057
0.89631
0.837827
0.787819
0.746152
0.712216
0.685111
0.663484
0.646028
0.630871
0.616384
0.600652
0.580897
0.554073
0.516964
0.464781
0.39157
0.288866
0.1415
0.980394
0.940235
0.903337
0.871113
0.844025
0.821867
0.804123
0.789813
0.778023
0.767252
0.756224
0.743352
0.726069
0.701412
0.665946
0.613857
0.536754
0.420734
0.239739
0.99543
0.982426
0.969439
0.957736
0.947793
0.93963
0.933102
0.927771
0.923298
0.918924
0.914074
0.907937
0.898935
0.885048
0.863365
0.827786
0.767277
0.659963
0.461969
)
;

boundaryField
{
    up
    {
        type            fixedValue;
        value           uniform 0;
    }
    low
    {
        type            fixedValue;
        value           uniform 1;
    }
    left
    {
        type            fixedValue;
        value           uniform 1;
    }
    right
    {
        type            fixedValue;
        value           uniform 1;
    }
    frontAndBackPlanes
    {
        type            empty;
    }
}


// ************************************************************************* //
