/*--------------------------------*- C++ -*----------------------------------*\
  =========                 |
  \\      /  F ield         | OpenFOAM: The Open Source CFD Toolbox
   \\    /   O peration     | Website:  https://openfoam.org
    \\  /    A nd           | Version:  7
     \\/     M anipulation  |
\*---------------------------------------------------------------------------*/
FoamFile
{
    version     2.0;
    format      ascii;
    class       volScalarField;
    location    "0.25";
    object      gradTx;
}
// * * * * * * * * * * * * * * * * * * * * * * * * * * * * * * * * * * * * * //

dimensions      [0 -1 0 1 0 0 0];

internalField   nonuniform List<scalar> 
1596
(
-0.253906
-1.27473
-2.28536
-3.20138
-4.01846
-4.73552
-5.3856
-5.98989
-6.57701
-7.20212
-7.88028
-8.67783
-9.67347
-10.9827
-12.7428
-15.3019
-19.199
-25.5996
-36.9134
0.0556301
-1.06165
-2.05622
-2.91929
-3.6724
-4.32072
-4.89402
-5.40285
-5.86857
-6.31974
-6.7591
-7.22217
-7.72132
-8.27524
-8.86886
-9.47497
-9.94122
-9.95807
-8.86958
0.309281
-0.868968
-1.83178
-2.63331
-3.31494
-3.89013
-4.38453
-4.80502
-5.16583
-5.48224
-5.7517
-5.99276
-6.20006
-6.36941
-6.47407
-6.46782
-6.22854
-5.5431
-3.99449
0.349605
-0.767843
-1.64917
-2.368
-2.96883
-3.46864
-3.88749
-4.23086
-4.50773
-4.72586
-4.88217
-4.98552
-5.02772
-4.99993
-4.8808
-4.63334
-4.17897
-3.38957
-2.0164
0.102851
-0.804258
-1.54125
-2.15026
-2.65953
-3.08197
-3.42995
-3.7074
-3.91925
-4.06838
-4.15307
-4.17628
-4.13129
-4.00987
-3.79827
-3.47065
-2.98078
-2.25533
-1.15108
-0.410627
-0.995355
-1.53244
-2.00459
-2.41068
-2.75248
-3.03267
-3.25244
-3.41295
-3.51347
-3.55361
-3.53243
-3.44521
-3.28518
-3.04438
-2.70508
-2.24147
-1.61217
-0.735973
-1.09444
-1.3257
-1.63239
-1.94733
-2.23943
-2.49582
-2.70867
-2.8749
-2.9919
-3.0559
-3.06698
-3.02151
-2.9161
-2.74509
-2.50409
-2.18058
-1.76071
-1.22114
-0.515977
-1.81174
-1.73384
-1.81552
-1.96853
-2.1422
-2.31041
-2.45594
-2.57065
-2.64821
-2.68218
-2.6722
-2.61274
-2.50097
-2.33184
-2.10292
-1.80484
-1.43049
-0.966604
-0.387353
-2.55483
-2.25665
-2.13749
-2.12714
-2.17323
-2.24275
-2.31211
-2.36837
-2.40178
-2.40345
-2.37165
-2.29945
-2.18375
-2.01957
-1.80506
-1.53268
-1.19864
-0.795084
-0.3071
-3.00139
-2.6211
-2.38261
-2.25469
-2.1996
-2.18646
-2.19046
-2.19594
-2.19099
-2.16513
-2.11525
-2.03365
-1.91687
-1.75995
-1.56125
-1.31449
-1.01764
-0.666049
-0.250995
-3.365
-2.94921
-2.63851
-2.42335
-2.28287
-2.19373
-2.13414
-2.08818
-2.04316
-1.98783
-1.91782
-1.82502
-1.70538
-1.55386
-1.36852
-1.14378
-0.878255
-0.568953
-0.210677
-3.73478
-3.3148
-2.95887
-2.67508
-2.45788
-2.29376
-2.16689
-2.06347
-1.97159
-1.88008
-1.78367
-1.67403
-1.54647
-1.39559
-1.21891
-1.01102
-0.77047
-0.494885
-0.180765
-3.83397
-3.46981
-3.12186
-2.81613
-2.56036
-2.3508
-2.17842
-2.03321
-1.90542
-1.78508
-1.66699
-1.54323
-1.40892
-1.25867
-1.08967
-0.896788
-0.67841
-0.432461
-0.15631
-3.85611
-3.55322
-3.23421
-2.92904
-2.65409
-2.41407
-2.2067
-2.02654
-1.86684
-1.71962
-1.58036
-1.44192
-1.29953
-1.14795
-0.984091
-0.802998
-0.60278
-0.381397
-0.136613
-3.84585
-3.59864
-3.31559
-3.02381
-2.74298
-2.48381
-2.24988
-2.04045
-1.85227
-1.6798
-1.51976
-1.36609
-1.21436
-1.05955
-0.898455
-0.726202
-0.540581
-0.339415
-0.120533
-3.74795
-3.56058
-3.32134
-3.05601
-2.78474
-2.52161
-2.2744
-2.04653
-1.83817
-1.64646
-1.46978
-1.30341
-1.14355
-0.985651
-0.826513
-0.661467
-0.488077
-0.304025
-0.107064
-3.55937
-3.42879
-3.23763
-3.00838
-2.75989
-2.50735
-2.26099
-2.02728
-1.80932
-1.60682
-1.41993
-1.24548
-1.08053
-0.921166
-0.764409
-0.605898
-0.443149
-0.273831
-0.0956526
-3.33852
-3.24416
-3.09522
-2.9036
-2.684
-2.45069
-2.2148
-1.98469
-1.76569
-1.55967
-1.36849
-1.19047
-1.02363
-0.864734
-0.711112
-0.55874
-0.405219
-0.248372
-0.0860464
-3.15315
-3.08806
-2.97155
-2.81045
-2.61551
-2.3994
-2.17354
-1.94756
-1.7286
-1.52037
-1.3262
-1.14576
-0.977856
-0.819825
-0.669114
-0.521828
-0.375543
-0.228302
-0.0783402
-2.83277
-2.80612
-2.72707
-2.60363
-2.44399
-2.2585
-2.05756
-1.8508
-1.64617
-1.44858
-1.26247
-1.08869
-0.92692
-0.775132
-0.630996
-0.490702
-0.351716
-0.212415
-0.0720685
-2.47911
-2.4828
-2.43751
-2.34975
-2.2258
-2.07387
-1.9029
-1.72187
-1.53879
-1.35916
-1.18798
-1.02701
-0.876562
-0.73524
-0.600881
-0.46951
-0.33789
-0.203994
-0.0683431
-2.11103
-2.13437
-2.11712
-2.06186
-1.97251
-1.85518
-1.71719
-1.56646
-1.41061
-1.25513
-1.1051
-0.962715
-0.828721
-0.702275
-0.581506
-0.462234
-0.339771
-0.209574
-0.0705746
-1.70368
-1.73684
-1.74237
-1.71802
-1.66456
-1.58547
-1.48613
-1.37292
-1.25251
-1.12986
-1.00945
-0.893448
-0.782649
-0.676781
-0.574703
-0.472774
-0.365142
-0.242833
-0.0942859
-1.24466
-1.22686
-1.18796
-1.12864
-1.05327
-0.967766
-0.878986
-0.792792
-0.713924
-0.644603
-0.584732
-0.532411
-0.484576
-0.438309
-0.391144
-0.340194
-0.280815
-0.203611
-0.0912205
-0.83219
-0.92631
-1.03066
-1.12897
-1.20975
-1.26526
-1.29283
-1.29302
-1.26958
-1.22716
-1.1696
-1.10081
-1.02306
-0.93984
-0.854723
-0.770757
-0.687155
-0.598095
-0.48731
-0.281927
-0.326974
-0.386382
-0.450755
-0.513152
-0.568615
-0.615323
-0.652795
-0.682469
-0.705697
-0.7215
-0.729149
-0.725168
-0.708387
-0.679689
-0.644185
-0.605892
-0.569599
-0.536018
0.269386
0.212481
0.132041
0.0370141
-0.0643013
-0.165242
-0.261859
-0.352125
-0.436073
-0.514171
-0.58457
-0.644866
-0.689283
-0.713594
-0.716306
-0.70257
-0.678516
-0.651982
-0.626224
0.82016
0.742501
0.633649
0.503884
0.362685
0.217949
0.074988
-0.06339
-0.196639
-0.325157
-0.447296
-0.559845
-0.655153
-0.725185
-0.764144
-0.774915
-0.764712
-0.74474
-0.721395
1.31911
1.20951
1.0657
0.899922
0.72219
0.540736
0.361025
0.185585
0.0144922
-0.153581
-0.318304
-0.477143
-0.621815
-0.74069
-0.821786
-0.862429
-0.868099
-0.853292
-0.829355
1.83816
1.68984
1.50705
1.30273
1.08733
0.869426
0.65445
0.444507
0.239013
0.0354016
-0.167935
-0.370706
-0.56616
-0.741006
-0.876609
-0.961034
-0.9924
-0.985733
-0.959289
2.23262
2.0396
1.81783
1.58011
1.33681
1.09567
0.860851
0.633041
0.410373
0.188653
-0.036037
-0.26691
-0.501402
-0.728607
-0.926107
-1.07114
-1.14614
-1.15727
-1.12621
2.60497
2.37341
2.11377
1.84381
1.57456
1.31282
1.06143
0.819882
0.585401
0.352738
0.116305
-0.130688
-0.391757
-0.663599
-0.927588
-1.15604
-1.31106
-1.37394
-1.3551
2.95337
2.67174
2.37151
2.07083
1.77942
1.50207
1.23993
0.991178
0.752535
0.518432
0.282925
0.0373714
-0.226999
-0.517305
-0.828007
-1.14295
-1.41608
-1.59619
-1.63188
3.18526
2.82774
2.46578
2.11529
1.78313
1.47148
1.17953
0.904453
0.642661
0.388929
0.137783
-0.119031
-0.392003
-0.695493
-1.04041
-1.43732
-1.86854
-2.29457
-2.63976
3.33609
2.9443
2.57614
2.24148
1.94039
1.66995
1.4256
1.2027
0.996946
0.804232
0.62149
0.445016
0.270598
0.0914133
-0.102709
-0.332524
-0.619634
-0.989199
-1.45296
3.45368
3.04759
2.69081
2.37919
2.10506
1.86172
1.6427
1.44297
1.2586
1.08628
0.924313
0.771495
0.627201
0.491664
0.366088
0.249931
0.141394
0.0324073
-0.0928328
3.28452
2.82044
2.42938
2.09573
1.80712
1.55461
1.3306
1.12941
0.946752
0.778938
0.624022
0.480599
0.347799
0.225793
0.11617
0.0206857
-0.0575932
-0.115322
-0.150898
2.89612
2.47083
2.11874
1.82265
1.5698
1.35095
1.15867
0.987446
0.833257
0.692817
0.564345
0.446598
0.338639
0.24017
0.151543
0.0727463
0.00397948
-0.0545117
-0.103225
2.41584
2.05662
1.75918
1.51017
1.29889
1.11719
0.958581
0.818185
0.692504
0.578676
0.475054
0.380435
0.293747
0.214368
0.142156
0.0767002
0.0178603
-0.0341812
-0.0797349
1.82495
1.54675
1.31897
1.1302
0.971435
0.835845
0.718185
0.614529
0.522109
0.438668
0.362857
0.293679
0.23019
0.171804
0.118322
0.069408
0.0249929
-0.0146483
-0.0496197
1.15202
0.966335
0.81891
0.699084
0.599531
0.515179
0.44238
0.378483
0.321664
0.270448
0.223933
0.181449
0.142349
0.106217
0.0728889
0.0421417
0.0139434
-0.0114649
-0.03406
0.443071
0.368524
0.311391
0.265563
0.227607
0.195412
0.167568
0.143085
0.121289
0.101635
0.0837763
0.0674457
0.0523796
0.0383925
0.0253846
0.0132369
0.00189767
-0.00857174
-0.0181657
-0.442858
-0.368057
-0.310755
-0.264821
-0.226803
-0.194578
-0.166731
-0.142267
-0.120507
-0.100904
-0.0831094
-0.0668534
-0.0518713
-0.0379764
-0.025067
-0.0130226
-0.00178998
0.00857257
0.0180615
-1.15182
-0.965925
-0.818358
-0.698442
-0.598839
-0.514469
-0.441676
-0.377805
-0.321027
-0.269868
-0.223421
-0.181015
-0.142003
-0.105964
-0.0727351
-0.0420911
-0.0139979
0.0113066
0.0338019
-1.82476
-1.54636
-1.31843
-1.12957
-0.970739
-0.835115
-0.717447
-0.613802
-0.52141
-0.438012
-0.362256
-0.293141
-0.229723
-0.171412
-0.118006
-0.069168
-0.0248254
0.014749
0.0496606
-2.4157
-2.05636
-1.75882
-1.50975
-1.29843
-1.11671
-0.958108
-0.817733
-0.692087
-0.578308
-0.474745
-0.380194
-0.293578
-0.214274
-0.142135
-0.0767501
-0.0179744
0.0340108
0.0795166
-2.89604
-2.47067
-2.11851
-1.82236
-1.56948
-1.35061
-1.15833
-0.987121
-0.832962
-0.692565
-0.564148
-0.446465
-0.338576
-0.240178
-0.15162
-0.0728818
-0.0041591
0.0543084
0.103023
-3.28453
-2.82042
-2.42931
-2.09561
-1.80697
-1.55444
-1.33043
-1.12927
-0.946652
-0.778895
-0.624052
-0.480716
-0.348016
-0.226121
-0.116606
-0.0212132
0.0570223
0.114789
0.150497
-3.4537
-3.04733
-2.69018
-2.37815
-2.1036
-1.85987
-1.64048
-1.44042
-1.25577
-1.0832
-0.921012
-0.768
-0.623529
-0.487826
-0.362115
-0.245929
-0.137614
-0.0293858
0.0942112
-3.33671
-2.94594
-2.57884
-2.24523
-1.94513
-1.67563
-1.43216
-1.21006
-1.00506
-0.813056
-0.631025
-0.455306
-0.28176
-0.103678
0.0889774
0.3168
0.601401
0.968235
1.42977
-3.18503
-2.82708
-2.46462
-2.11362
-1.78096
-1.46884
-1.17647
-0.901041
-0.638954
-0.384991
-0.133683
0.123218
0.396197
0.699629
1.04451
1.4416
1.87363
2.30152
2.64999
-2.95359
-2.67225
-2.37227
-2.07179
-1.78052
-1.5033
-1.24124
-0.99256
-0.753977
-0.519934
-0.284498
-0.0390324
0.225251
0.515532
0.826387
1.14182
1.41585
1.5971
1.6336
-2.60511
-2.37373
-2.11425
-1.84441
-1.57525
-1.31358
-1.06225
-0.820739
-0.586298
-0.353674
-0.117282
0.129686
0.390782
0.662771
0.927102
1.15612
1.31181
1.37526
1.35671
-2.23276
-2.03992
-1.81831
-1.58072
-1.33752
-1.09645
-0.861681
-0.633902
-0.411252
-0.189537
0.0351677
0.266095
0.500718
0.728173
0.926052
1.07154
1.14696
1.15834
1.12737
-1.83829
-1.69015
-1.50753
-1.30335
-1.08806
-0.87023
-0.655299
-0.445375
-0.239876
-0.0362346
0.167165
0.37005
0.565693
0.740812
0.876749
0.961504
0.993117
0.986583
0.960192
-1.31922
-1.2098
-1.06615
-0.900511
-0.722884
-0.541499
-0.361823
-0.186387
-0.0152674
0.152864
0.317683
0.476667
0.62154
0.740666
0.822025
0.862896
0.868722
0.853999
0.830112
-0.820282
-0.742801
-0.634117
-0.504494
-0.363402
-0.218731
-0.0757952
0.0625966
0.195896
0.3245
0.446763
0.559476
0.654985
0.72524
0.764408
0.775349
0.765261
0.745362
0.722074
-0.26949
-0.212763
-0.132491
-0.0376053
0.0636081
0.164491
0.261097
0.351394
0.435412
0.513616
0.584152
0.644616
0.68922
0.713718
0.716596
0.702993
0.679034
0.652575
0.626889
0.281688
0.326249
0.385145
0.449034
0.511022
0.566185
0.612722
0.65015
0.6799
0.703307
0.719366
0.727327
0.723683
0.707232
0.678831
0.643594
0.605552
0.569556
0.536421
0.832358
0.926954
1.0319
1.13086
1.21227
1.26834
1.29635
1.29684
1.27355
1.23115
1.17349
1.10453
1.02654
0.943079
0.857716
0.773532
0.689741
0.600519
0.489562
1.24448
1.22622
1.18684
1.12709
1.05136
0.965618
0.876714
0.790509
0.711727
0.642566
0.582903
0.530816
0.483223
0.43719
0.39024
0.339485
0.280284
0.203254
0.0910659
1.70378
1.73705
1.74269
1.71844
1.66504
1.58597
1.48663
1.37338
1.25291
1.1302
1.00971
0.893641
0.782782
0.676865
0.574748
0.47279
0.365136
0.242815
0.0942753
2.11105
2.1344
2.11715
2.0619
1.97256
1.85523
1.71723
1.5665
1.41063
1.25514
1.1051
0.962704
0.828703
0.702251
0.58148
0.462207
0.339748
0.209558
0.0705705
2.47913
2.48283
2.43754
2.34978
2.22583
2.07391
1.90293
1.72189
1.5388
1.35916
1.18797
1.02699
0.876543
0.735218
0.60086
0.46949
0.337874
0.203985
0.0683407
2.83279
2.80614
2.72709
2.60366
2.44402
2.25852
2.05757
1.85081
1.64617
1.44858
1.26245
1.08868
0.926901
0.775113
0.630978
0.490687
0.351705
0.212409
0.0720667
3.15317
3.08808
2.97158
2.81048
2.61554
2.39942
2.17356
1.94757
1.7286
1.52037
1.32619
1.14574
0.97784
0.819809
0.669099
0.521816
0.375534
0.228297
0.0783388
3.33854
3.24418
3.09524
2.90362
2.68402
2.4507
2.21481
1.98469
1.76569
1.55966
1.36848
1.19046
1.02361
0.864719
0.711099
0.558729
0.405211
0.248368
0.0860452
3.55938
3.42881
3.23765
3.00839
2.7599
2.50736
2.26099
2.02727
1.80931
1.6068
1.41992
1.24547
1.08052
0.921152
0.764397
0.605888
0.443142
0.273827
0.0956516
3.74796
3.56059
3.32136
3.05602
2.78475
2.52161
2.2744
2.04652
1.83816
1.64645
1.46977
1.3034
1.14354
0.985638
0.826502
0.661458
0.488071
0.304021
0.107063
3.84585
3.59864
3.3156
3.02382
2.74298
2.48381
2.24987
2.04044
1.85226
1.67978
1.51975
1.36608
1.21434
1.05954
0.898444
0.726193
0.540575
0.339412
0.120533
3.85612
3.55323
3.23423
2.92905
2.65409
2.41407
2.2067
2.02653
1.86682
1.7196
1.58034
1.44191
1.29952
1.14794
0.984081
0.802991
0.602775
0.381395
0.136613
3.83398
3.46983
3.12187
2.81614
2.56037
2.3508
2.17842
2.03321
1.90541
1.78507
1.66698
1.54322
1.40891
1.25866
1.08966
0.896783
0.678407
0.432461
0.156311
3.73477
3.3148
2.95886
2.67508
2.45786
2.29374
2.16687
2.06346
1.97158
1.88006
1.78366
1.67402
1.54646
1.39558
1.2189
1.01101
0.770469
0.494885
0.180766
3.36502
2.94923
2.63852
2.42335
2.28287
2.19372
2.13413
2.08817
2.04315
1.98782
1.91781
1.82501
1.70538
1.55385
1.36851
1.14378
0.878257
0.568957
0.210679
3.00142
2.62113
2.38262
2.2547
2.1996
2.18646
2.19046
2.19594
2.19099
2.16512
2.11524
2.03365
1.91686
1.75995
1.56125
1.3145
1.01765
0.666054
0.250997
2.55486
2.25667
2.1375
2.12714
2.17323
2.24274
2.31211
2.36836
2.40178
2.40344
2.37165
2.29945
2.18376
2.01957
1.80507
1.53269
1.19864
0.795089
0.307102
1.81176
1.73385
1.81552
1.96853
2.14219
2.31041
2.45594
2.57064
2.6482
2.68218
2.6722
2.61274
2.50097
2.33185
2.10292
1.80485
1.4305
0.966609
0.387354
1.09446
1.32571
1.6324
1.94733
2.23944
2.49583
2.70867
2.8749
2.9919
3.0559
3.06698
3.02152
2.91611
2.74509
2.5041
2.18059
1.76072
1.22114
0.515977
0.410639
0.995363
1.53245
2.0046
2.41068
2.75248
3.03267
3.25244
3.41295
3.51347
3.55361
3.53243
3.44522
3.28519
3.04439
2.70508
2.24148
1.61217
0.735971
-0.102845
0.804265
1.54125
2.15026
2.65954
3.08198
3.42995
3.70741
3.91925
4.06839
4.15307
4.17628
4.13129
4.00988
3.79828
3.47065
2.98079
2.25533
1.15108
-0.349604
0.767848
1.64918
2.368
2.96884
3.46864
3.8875
4.23086
4.50773
4.72586
4.88217
4.98552
5.02773
4.99993
4.8808
4.63334
4.17897
3.38956
2.01639
-0.309283
0.868969
1.83179
2.63331
3.31494
3.89013
4.38453
4.80502
5.16583
5.48224
5.75171
5.99276
6.20006
6.36941
6.47406
6.46781
6.22853
5.5431
3.99448
-0.0556306
1.06165
2.05622
2.91929
3.67239
4.32072
4.89402
5.40285
5.86858
6.31975
6.7591
7.22217
7.72132
8.27523
8.86885
9.47496
9.94121
9.95806
8.86958
0.253908
1.27473
2.28536
3.20138
4.01846
4.73553
5.3856
5.98989
6.57701
7.20212
7.88028
8.67782
9.67346
10.9827
12.7428
15.3018
19.199
25.5996
36.9134
)
;

boundaryField
{
    up
    {
        type            calculated;
        value           nonuniform List<scalar> 
84
(
-36.9134
-8.86958
-3.99449
-2.0164
-1.15108
-0.735973
-0.515977
-0.387353
-0.3071
-0.250995
-0.210677
-0.180765
-0.15631
-0.136613
-0.120533
-0.107064
-0.0956526
-0.0860464
-0.0783402
-0.0720685
-0.0683431
-0.0705746
-0.0942859
-0.0912205
-0.417488
-0.502465
-0.593264
-0.685762
-0.789049
-0.911886
-1.06612
-1.26385
-1.49077
-2.6193
-1.50504
-0.0957837
-0.150757
-0.103061
-0.0796388
-0.0495889
-0.0340523
-0.0181715
0.0180672
0.0337945
0.0496302
0.0794212
0.10286
0.150356
0.0971232
1.48117
2.63144
1.4923
1.26525
1.0672
0.912752
0.789788
0.686436
0.593939
0.503078
0.41954
0.0910659
0.0942753
0.0705705
0.0683407
0.0720667
0.0783388
0.0860452
0.0956516
0.107063
0.120533
0.136613
0.156311
0.180766
0.210679
0.250997
0.307102
0.387354
0.515977
0.735971
1.15108
2.01639
3.99448
8.86958
36.9134
)
;
    }
    low
    {
        type            calculated;
        value           nonuniform List<scalar> 
84
(
-0.228967
0.0931296
0.370126
0.416076
0.144844
-0.418433
-1.15899
-1.92056
-2.6809
-3.10467
-3.4548
-3.80537
-3.86084
-3.85561
-3.82778
-3.70519
-3.49593
-3.26985
-3.07213
-2.72938
-2.36572
-1.99686
-1.59351
-1.14895
-0.758064
-0.25529
0.239044
0.744385
1.22106
1.73869
2.14927
2.53541
2.90474
3.16478
3.33851
3.48361
3.34417
2.96204
2.47581
1.87339
1.18443
0.456708
-0.456494
-1.18422
-1.87318
-2.47565
-2.96192
-3.34414
-3.48358
-3.33903
-3.16455
-2.90492
-2.53553
-2.1494
-1.73882
-1.22118
-0.744513
-0.239149
0.255056
0.758229
1.14878
1.5936
1.99688
2.36574
2.7294
3.07215
3.26987
3.49594
3.7052
3.82778
3.85562
3.86086
3.80535
3.45482
3.1047
2.68092
1.92058
1.15901
0.418446
-0.144837
-0.416076
-0.370131
-0.0931328
0.228968
)
;
    }
    left
    {
        type            calculated;
        value           nonuniform List<scalar> 
19
(
-0.225163
-1.22318
-2.25391
-3.20115
-4.05304
-4.80334
-5.48777
-6.13114
-6.76201
-7.44993
-8.20931
-9.1152
-10.271
-11.8323
-13.9721
-17.1809
-22.207
-30.6782
-32.0167
)
;
    }
    right
    {
        type            calculated;
        value           nonuniform List<scalar> 
19
(
0.225164
1.22318
2.25391
3.20116
4.05304
4.80334
5.48777
6.13114
6.76201
7.44993
8.2093
9.11519
10.271
11.8322
13.9721
17.1809
22.207
30.6782
32.0167
)
;
    }
    frontAndBackPlanes
    {
        type            empty;
    }
}


// ************************************************************************* //
