/*--------------------------------*- C++ -*----------------------------------*\
  =========                 |
  \\      /  F ield         | OpenFOAM: The Open Source CFD Toolbox
   \\    /   O peration     | Website:  https://openfoam.org
    \\  /    A nd           | Version:  7
     \\/     M anipulation  |
\*---------------------------------------------------------------------------*/
FoamFile
{
    version     2.0;
    format      ascii;
    class       volScalarField;
    location    "0.203";
    object      gradTx;
}
// * * * * * * * * * * * * * * * * * * * * * * * * * * * * * * * * * * * * * //

dimensions      [0 -1 0 1 0 0 0];

internalField   nonuniform List<scalar> 
1596
(
-0.240793
-1.20779
-2.15994
-3.01293
-3.75899
-4.3945
-4.94888
-5.44127
-5.89865
-6.37221
-6.87777
-7.4772
-8.24211
-9.27429
-10.6922
-12.7887
-16.0135
-21.3359
-30.7608
0.053509
-1.00364
-1.94115
-2.74708
-3.4389
-4.01962
-4.51606
-4.93793
-5.30566
-5.64655
-5.96541
-6.29662
-6.65444
-7.05894
-7.50145
-7.96289
-8.31843
-8.31094
-7.39287
0.295199
-0.815987
-1.72221
-2.47143
-3.10039
-3.62038
-4.0547
-4.40982
-4.69956
-4.939
-5.12776
-5.28462
-5.40775
-5.497
-5.53334
-5.48179
-5.24338
-4.64282
-3.33348
0.335304
-0.712543
-1.53867
-2.20943
-2.76482
-3.21971
-3.59237
-3.88793
-4.11521
-4.28209
-4.38712
-4.43981
-4.43492
-4.36734
-4.2218
-3.97042
-3.55056
-2.85837
-1.68863
0.105099
-0.737625
-1.42309
-1.98817
-2.45783
-2.84331
-3.15576
-3.39882
-3.5773
-3.69428
-3.74893
-3.74483
-3.67714
-3.54029
-3.3245
-3.0104
-2.56196
-1.92099
-0.970721
-0.374671
-0.908412
-1.40068
-1.83345
-2.20461
-2.51522
-2.7675
-2.96243
-3.10118
-3.1832
-3.20835
-3.17611
-3.08266
-2.92276
-2.6907
-2.37296
-1.94995
-1.38971
-0.627158
-1.01214
-1.21109
-1.4825
-1.76343
-2.02464
-2.2539
-2.44386
-2.59156
-2.69458
-2.74935
-2.75583
-2.71057
-2.61031
-2.45002
-2.22625
-1.92894
-1.54777
-1.06516
-0.445134
-1.67898
-1.58837
-1.64588
-1.77104
-1.91755
-2.0615
-2.1872
-2.28712
-2.35545
-2.38606
-2.37827
-2.32661
-2.22785
-2.07691
-1.87132
-1.60289
-1.26615
-0.851199
-0.338169
-2.36865
-2.07427
-1.94243
-1.91121
-1.93415
-1.98178
-2.03317
-2.07665
-2.10344
-2.10518
-2.07987
-2.02054
-1.92346
-1.78311
-1.59698
-1.3577
-1.06186
-0.703239
-0.270358
-2.78303
-2.41493
-2.17181
-2.02878
-1.95394
-1.92068
-1.90758
-1.90091
-1.89018
-1.86573
-1.82433
-1.75828
-1.66332
-1.53374
-1.36676
-1.1556
-0.897696
-0.588782
-0.221851
-3.12216
-2.72375
-2.4141
-2.18843
-2.03108
-1.92323
-1.84688
-1.78863
-1.73764
-1.68384
-1.62291
-1.54688
-1.45091
-1.32904
-1.17798
-0.991169
-0.766075
-0.499178
-0.18573
-3.4697
-3.06944
-2.7185
-2.42799
-2.19661
-2.01524
-1.87202
-1.7561
-1.6578
-1.56746
-1.48014
-1.38779
-1.285
-1.16543
-1.02513
-0.857455
-0.659396
-0.427433
-0.157638
-3.5693
-3.22263
-2.88037
-2.56949
-2.30078
-2.07443
-1.88532
-1.72664
-1.59113
-1.47066
-1.36057
-1.25338
-1.14359
-1.02494
-0.893105
-0.741563
-0.566932
-0.365608
-0.133959
-3.59981
-3.31126
-2.99697
-2.68683
-2.39926
-2.1424
-1.91762
-1.72281
-1.55391
-1.40497
-1.27229
-1.14927
-1.03067
-0.910394
-0.783912
-0.644814
-0.489331
-0.313671
-0.114238
-3.60214
-3.36607
-3.08597
-2.78848
-2.49465
-2.21817
-1.96597
-1.74068
-1.54183
-1.36608
-1.21116
-1.07164
-0.942733
-0.818678
-0.69481
-0.564838
-0.424633
-0.270168
-0.0977212
-3.52381
-3.34427
-3.10576
-2.83327
-2.54794
-2.26643
-1.99967
-1.75442
-1.5337
-1.33694
-1.16368
-1.00994
-0.871654
-0.743563
-0.621084
-0.498124
-0.370334
-0.233513
-0.0837874
-3.36026
-3.23488
-3.04234
-2.80428
-2.54027
-2.26786
-2.00029
-1.7473
-1.51494
-1.30529
-1.11981
-0.956123
-0.811117
-0.680234
-0.559159
-0.44212
-0.324713
-0.202683
-0.0720765
-3.16494
-3.07452
-2.92271
-2.72086
-2.48434
-2.22964
-1.97078
-1.7194
-1.48383
-1.2684
-1.07641
-0.907051
-0.758263
-0.626255
-0.507092
-0.395372
-0.286755
-0.177053
-0.0623455
-3.00128
-2.93886
-2.81806
-2.64531
-2.43203
-2.19311
-1.94274
-1.69384
-1.45654
-1.23705
-1.04023
-0.866645
-0.71512
-0.582509
-0.46515
-0.357878
-0.256363
-0.156497
-0.0544918
-2.70695
-2.68211
-2.59809
-2.46221
-2.28323
-2.0736
-1.84645
-1.61469
-1.38933
-1.17787
-0.986371
-0.816718
-0.66868
-0.539908
-0.427184
-0.325677
-0.231145
-0.1397
-0.0480436
-2.37718
-2.38199
-2.33124
-2.23058
-2.08671
-1.90975
-1.71124
-1.50338
-1.29726
-1.10102
-0.92145
-0.761409
-0.621477
-0.500061
-0.394415
-0.299989
-0.212431
-0.127782
-0.0433614
-2.03001
-2.0537
-2.03038
-1.96179
-1.85214
-1.7092
-1.54272
-1.36366
-1.18264
-1.00781
-0.846151
-0.701098
-0.573792
-0.463338
-0.367533
-0.282157
-0.202482
-0.123548
-0.0419529
-1.6418
-1.67444
-1.67328
-1.63529
-1.56141
-1.45651
-1.32809
-1.18526
-1.03751
-0.892422
-0.756518
-0.633409
-0.524489
-0.429543
-0.347169
-0.273941
-0.205018
-0.133662
-0.0514855
-1.20086
-1.18358
-1.14133
-1.07485
-0.988761
-0.889585
-0.784823
-0.681226
-0.584566
-0.498292
-0.423838
-0.360847
-0.307553
-0.261942
-0.222058
-0.185541
-0.148994
-0.106425
-0.047496
-0.802554
-0.889694
-0.979849
-1.05568
-1.10548
-1.12259
-1.10641
-1.06049
-0.991999
-0.908977
-0.818564
-0.727074
-0.638113
-0.555017
-0.480133
-0.414849
-0.357808
-0.304819
-0.245871
-0.270586
-0.309115
-0.358374
-0.408746
-0.453041
-0.486244
-0.506598
-0.514147
-0.511311
-0.500969
-0.484676
-0.464313
-0.439227
-0.409911
-0.377568
-0.345598
-0.316133
-0.291588
-0.271645
0.262414
0.215068
0.146726
0.0662746
-0.0177531
-0.0982669
-0.170747
-0.232797
-0.284503
-0.327056
-0.360638
-0.385665
-0.399994
-0.402444
-0.393164
-0.376244
-0.355723
-0.336509
-0.320234
0.79328
0.728543
0.634465
0.520941
0.39759
0.272882
0.153089
0.0420224
-0.0590362
-0.150377
-0.2316
-0.302107
-0.358335
-0.39667
-0.414708
-0.415606
-0.404615
-0.38941
-0.374063
1.27129
1.17847
1.05291
0.906145
0.748116
0.587583
0.43113
0.282664
0.143602
0.0135332
-0.107467
-0.218738
-0.315911
-0.392779
-0.442809
-0.46581
-0.46626
-0.454556
-0.438414
1.76406
1.63613
1.47481
1.29205
1.09816
0.902199
0.710807
0.527687
0.354016
0.188808
0.0312089
-0.119204
-0.258686
-0.379568
-0.470621
-0.525616
-0.544385
-0.538247
-0.519963
2.13238
1.9645
1.76857
1.55614
1.33724
1.11994
0.909577
0.708471
0.516736
0.332238
0.15274
-0.0242115
-0.19724
-0.359739
-0.497332
-0.596275
-0.645812
-0.651792
-0.629791
2.4739
2.27215
2.04272
1.80161
1.5594
1.32314
1.09685
0.881598
0.676619
0.478888
0.285049
0.0903509
-0.107665
-0.30707
-0.49532
-0.654771
-0.760402
-0.80153
-0.786701
2.78646
2.54043
2.27525
2.00714
1.74535
1.49503
1.25845
1.03532
0.82416
0.621464
0.423516
0.224272
0.0177405
-0.201017
-0.427692
-0.651676
-0.841208
-0.962981
-0.984009
2.984
2.67115
2.35223
2.04145
1.74558
1.46744
1.2075
0.964381
0.736084
0.519082
0.309653
0.101794
-0.111976
-0.341833
-0.594748
-0.877771
-1.17715
-1.46534
-1.69028
3.10148
2.76113
2.43924
2.14433
1.87675
1.6343
1.41367
1.21134
1.02422
0.849273
0.68426
0.526423
0.372537
0.21752
0.0543021
-0.131683
-0.354387
-0.629711
-0.963284
3.18485
2.83472
2.52456
2.25045
2.00603
1.78588
1.58511
1.39993
1.2276
1.0658
0.913384
0.769586
0.633767
0.50589
0.386597
0.275098
0.169858
0.0652066
-0.0498273
3.00571
2.60669
2.26808
1.97646
1.72169
1.49658
1.29525
1.11325
0.94729
0.794471
0.653112
0.522021
0.400149
0.287292
0.184349
0.0923585
0.0133849
-0.0500108
-0.0966542
2.63181
2.27054
1.96856
1.71172
1.48981
1.29551
1.12306
0.968099
0.827527
0.698709
0.580137
0.470778
0.369666
0.276403
0.191186
0.113975
0.0449862
-0.0152956
-0.0670867
2.18178
1.87986
1.62664
1.4118
1.2271
1.06623
0.924177
0.797133
0.68238
0.577628
0.481522
0.393094
0.31137
0.235801
0.166292
0.102556
0.0445815
-0.00724803
-0.0530559
1.6399
1.40777
1.21493
1.05277
0.914412
0.794613
0.689332
0.595506
0.51099
0.433986
0.363416
0.298495
0.238421
0.182714
0.13126
0.08383
0.0404491
0.00149515
-0.0330427
1.03151
0.8768
0.752281
0.649598
0.563033
0.488641
0.423586
0.365797
0.313855
0.266588
0.223282
0.183417
0.146454
0.112061
0.0801424
0.0505453
0.0232925
-0.00133303
-0.0232758
0.395649
0.333005
0.284417
0.244904
0.211723
0.183213
0.158276
0.136141
0.116283
0.0982653
0.0818106
0.0667034
0.0527186
0.0396999
0.0275712
0.0162376
0.00566821
-0.00406325
-0.012944
-0.395459
-0.33258
-0.283833
-0.244215
-0.210968
-0.182423
-0.157478
-0.135354
-0.115525
-0.097552
-0.0811545
-0.0661154
-0.0522083
-0.0392757
-0.0272395
-0.0160037
-0.00553528
0.00409483
0.012876
-1.03134
-0.876424
-0.751768
-0.648994
-0.562376
-0.487958
-0.422901
-0.365128
-0.31322
-0.265999
-0.222753
-0.182957
-0.146072
-0.111765
-0.0799378
-0.0504369
-0.0232827
0.00124489
0.0230929
-1.63972
-1.40741
-1.21442
-1.05217
-0.913749
-0.793914
-0.68862
-0.5948
-0.510308
-0.433341
-0.362821
-0.297959
-0.23795
-0.182315
-0.130935
-0.08358
-0.0402725
-0.00138783
0.0330864
-2.18165
-1.8796
-1.62629
-1.41139
-1.22664
-1.06575
-0.923693
-0.796662
-0.681936
-0.577224
-0.481167
-0.392797
-0.311137
-0.235635
-0.166194
-0.102525
-0.0446149
0.00715568
0.0529107
-2.63173
-2.27037
-1.96832
-1.71142
-1.48947
-1.29515
-1.12269
-0.967744
-0.827193
-0.69841
-0.579882
-0.470575
-0.369521
-0.276319
-0.191162
-0.114007
-0.045064
0.0151849
0.0669603
-3.0057
-2.60664
-2.26798
-1.97631
-1.72151
-1.49638
-1.29504
-1.11306
-0.947133
-0.794356
-0.653051
-0.522024
-0.400226
-0.287449
-0.184586
-0.0926651
-0.0137298
0.0496805
0.0964
-3.18484
-2.83445
-2.52394
-2.24946
-2.00468
-1.78421
-1.58314
-1.39772
-1.2252
-1.06325
-0.910715
-0.766827
-0.630934
-0.502993
-0.383658
-0.272187
-0.167146
-0.0630579
0.0508122
-3.10203
-2.76259
-2.44166
-2.14766
-1.88094
-1.63926
-1.4193
-1.21755
-1.03093
-0.85642
-0.691806
-0.534374
-0.380953
-0.226546
-0.064171
0.120629
0.341829
0.615544
0.947919
-2.98377
-2.67052
-2.35115
-2.03991
-1.74364
-1.46512
-1.20488
-0.961513
-0.733036
-0.515915
-0.306424
-0.0985582
0.115167
0.344942
0.597803
0.880938
1.18086
1.47035
1.69756
-2.78664
-2.54088
-2.27593
-2.00798
-1.74634
-1.49611
-1.25961
-1.03653
-0.825394
-0.622719
-0.424792
-0.225573
-0.0190593
0.199729
0.426557
0.650923
0.841106
0.96369
0.985301
-2.47401
-2.27243
-2.04314
-1.80215
-1.56003
-1.32383
-1.09758
-0.882363
-0.677404
-0.479686
-0.285851
-0.0911408
0.106927
0.306469
0.494985
0.654847
0.760959
0.802481
0.787849
-2.13251
-1.96478
-1.769
-1.55669
-1.33789
-1.12066
-0.910333
-0.709246
-0.517511
-0.332996
-0.153461
0.0235598
0.19671
0.359406
0.49728
0.596552
0.646385
0.652546
0.63059
-1.76418
-1.63642
-1.47525
-1.29263
-1.09884
-0.902943
-0.711588
-0.528472
-0.35478
-0.189526
-0.0318532
0.118669
0.258307
0.379398
0.470693
0.525923
0.544867
0.538821
0.520566
-1.27139
-1.17874
-1.05333
-0.906699
-0.748768
-0.588297
-0.431869
-0.283393
-0.144292
-0.0141553
0.106941
0.218339
0.315673
0.392727
0.442946
0.466107
0.466664
0.455016
0.4389
-0.793393
-0.728827
-0.634909
-0.521521
-0.398268
-0.273616
-0.153835
-0.0427404
0.05838
0.149812
0.231151
0.301797
0.358181
0.396678
0.414864
0.415878
0.404961
0.3898
0.374481
-0.262511
-0.215338
-0.147158
-0.0668409
0.0170948
0.0975643
0.170048
0.232143
0.283929
0.326588
0.360294
0.385457
0.399927
0.402509
0.393341
0.376504
0.35604
0.336865
0.320626
0.270354
0.308419
0.357199
0.407138
0.451098
0.48409
0.50437
0.51197
0.509288
0.499175
0.483154
0.463082
0.438281
0.409224
0.377096
0.345302
0.315987
0.291599
0.271885
0.802712
0.890299
0.981001
1.05739
1.10771
1.12524
1.10934
1.06355
0.995043
0.911899
0.821282
0.729543
0.640314
0.55696
0.481845
0.416369
0.359176
0.30607
0.247014
1.20069
1.18296
1.14027
1.07339
0.987009
0.887659
0.782843
0.679299
0.582774
0.49669
0.422454
0.359686
0.306608
0.261192
0.221476
0.185103
0.14868
0.106223
0.0474123
1.64189
1.67463
1.67357
1.63565
1.56183
1.45693
1.3285
1.18562
1.03781
0.892653
0.756684
0.63352
0.524556
0.429577
0.347182
0.27394
0.20501
0.133652
0.0514815
2.03003
2.05372
2.0304
1.96182
1.85217
1.70922
1.54274
1.36367
1.18263
1.00779
0.846131
0.701073
0.573766
0.463313
0.36751
0.282138
0.202467
0.12354
0.0419516
2.3772
2.38201
2.33127
2.23061
2.08673
1.90976
1.71125
1.50338
1.29725
1.101
0.92143
0.761387
0.621455
0.500042
0.394398
0.299976
0.212422
0.127778
0.0433604
2.70696
2.68212
2.5981
2.46222
2.28324
2.07361
1.84645
1.61469
1.38932
1.17785
0.986354
0.8167
0.668663
0.539893
0.427172
0.325668
0.231139
0.139698
0.0480427
3.00129
2.93887
2.81808
2.64532
2.43205
2.19312
1.94275
1.69384
1.45653
1.23704
1.04021
0.866631
0.715107
0.582498
0.465141
0.357872
0.256358
0.156495
0.054491
3.16495
3.07454
2.92273
2.72087
2.48435
2.22965
1.97078
1.7194
1.48382
1.26839
1.07639
0.907039
0.758252
0.626246
0.507084
0.395366
0.28675
0.17705
0.0623447
3.36027
3.23489
3.04235
2.80429
2.54027
2.26787
2.00028
1.74729
1.51494
1.30528
1.1198
0.956112
0.811107
0.680225
0.559151
0.442114
0.324707
0.20268
0.0720756
3.52382
3.34428
3.10577
2.83329
2.54795
2.26643
1.99967
1.75441
1.53369
1.33693
1.16367
1.00993
0.871645
0.743555
0.621075
0.498116
0.370328
0.23351
0.0837864
3.60214
3.36608
3.08598
2.78849
2.49466
2.21817
1.96597
1.74067
1.54182
1.36607
1.21114
1.07163
0.942723
0.818668
0.6948
0.564829
0.424626
0.270164
0.0977204
3.59981
3.31127
2.99698
2.68684
2.39926
2.1424
1.91762
1.7228
1.5539
1.40496
1.27228
1.14926
1.03065
0.910382
0.7839
0.644804
0.489323
0.313667
0.114238
3.56931
3.22265
2.88038
2.5695
2.30078
2.07443
1.88532
1.72663
1.59113
1.47065
1.36056
1.25337
1.14358
1.02493
0.893094
0.741554
0.566926
0.365605
0.13396
3.46969
3.06944
2.71849
2.42798
2.1966
2.01523
1.872
1.75609
1.65779
1.56744
1.48013
1.38778
1.28498
1.16542
1.02512
0.857447
0.659391
0.427431
0.157639
3.12218
2.72377
2.41411
2.18843
2.03108
1.92322
1.84688
1.78863
1.73763
1.68383
1.6229
1.54687
1.4509
1.32903
1.17798
0.991165
0.766074
0.49918
0.185732
2.78306
2.41495
2.17182
2.02879
1.95394
1.92067
1.90757
1.9009
1.89017
1.86572
1.82432
1.75827
1.66332
1.53373
1.36676
1.1556
0.8977
0.588787
0.221854
2.36868
2.07429
1.94243
1.91122
1.93414
1.98178
2.03316
2.07665
2.10343
2.10517
2.07986
2.02053
1.92345
1.78311
1.59698
1.35771
1.06187
0.703246
0.27036
1.679
1.58838
1.64588
1.77104
1.91755
2.0615
2.18719
2.28711
2.35545
2.38605
2.37827
2.3266
2.22785
2.07692
1.87133
1.6029
1.26616
0.851205
0.338171
1.01216
1.2111
1.48251
1.76344
2.02464
2.2539
2.44386
2.59155
2.69458
2.74935
2.75583
2.71057
2.61031
2.45002
2.22626
1.92895
1.54778
1.06517
0.445134
0.374681
0.908421
1.40068
1.83346
2.20462
2.51523
2.7675
2.96243
3.10118
3.1832
3.20835
3.17612
3.08267
2.92277
2.69071
2.37297
1.94996
1.38971
0.627156
-0.105093
0.737633
1.42309
1.98818
2.45784
2.84331
3.15576
3.39882
3.5773
3.69428
3.74894
3.74483
3.67715
3.5403
3.32451
3.01041
2.56196
1.92099
0.970718
-0.335303
0.712549
1.53868
2.20944
2.76483
3.21971
3.59237
3.88794
4.11522
4.2821
4.38713
4.43982
4.43493
4.36735
4.22181
3.97042
3.55055
2.85836
1.68862
-0.295201
0.815988
1.72221
2.47143
3.10039
3.62038
4.0547
4.40982
4.69956
4.93901
5.12776
5.28463
5.40776
5.497
5.53334
5.48178
5.24336
4.64281
3.33348
-0.0535092
1.00364
1.94115
2.74708
3.4389
4.01962
4.51606
4.93793
5.30566
5.64656
5.96542
6.29662
6.65444
7.05893
7.50144
7.96288
8.31841
8.31093
7.39287
0.240795
1.20779
2.15994
3.01293
3.75899
4.3945
4.94888
5.44128
5.89865
6.37222
6.87777
7.4772
8.2421
9.27427
10.6921
12.7887
16.0135
21.3359
30.7608
)
;

boundaryField
{
    up
    {
        type            calculated;
        value           nonuniform List<scalar> 
84
(
-30.7608
-7.39287
-3.33348
-1.68863
-0.970721
-0.627158
-0.445134
-0.338169
-0.270358
-0.221851
-0.18573
-0.157638
-0.133959
-0.114238
-0.0977212
-0.0837874
-0.0720765
-0.0623455
-0.0544918
-0.0480436
-0.0433614
-0.0419529
-0.0514855
-0.047496
-0.209488
-0.252728
-0.300698
-0.352022
-0.412472
-0.488304
-0.58839
-0.722669
-0.883689
-1.66474
-0.993501
-0.0515768
-0.096386
-0.0668806
-0.0529391
-0.0330004
-0.0232613
-0.0129451
0.012877
0.0230788
0.0330445
0.0527947
0.0667554
0.0961326
0.0525363
0.977763
1.67331
0.884852
0.723664
0.589125
0.488873
0.412939
0.35243
0.301088
0.253072
0.210519
0.0474123
0.0514815
0.0419516
0.0433604
0.0480427
0.054491
0.0623447
0.0720756
0.0837864
0.0977204
0.114238
0.13396
0.157639
0.185732
0.221854
0.27036
0.338171
0.445134
0.627156
0.970718
1.68862
3.33348
7.39287
30.7608
)
;
    }
    low
    {
        type            calculated;
        value           nonuniform List<scalar> 
84
(
-0.21693
0.0896747
0.353592
0.398767
0.144994
-0.38205
-1.07289
-1.78101
-2.48668
-2.88004
-3.20732
-3.53821
-3.59853
-3.60491
-3.59207
-3.49145
-3.30879
-3.10845
-2.93273
-2.61612
-2.27545
-1.92606
-1.54017
-1.11173
-0.732904
-0.245449
0.233788
0.722163
1.18018
1.67316
2.05818
2.41385
2.74685
2.97087
3.10936
3.21749
3.06432
2.6946
2.23783
1.68454
1.06109
0.408021
-0.40783
-1.06091
-1.68435
-2.23767
-2.69448
-3.06428
-3.21745
-3.10982
-2.97064
-2.747
-2.41395
-2.05829
-1.67327
-1.18028
-0.722282
-0.233888
0.245224
0.733059
1.11157
1.54025
1.92607
2.27546
2.61612
2.93274
3.10846
3.3088
3.49146
3.59207
3.60491
3.59854
3.5382
3.20734
2.88007
2.4867
1.78103
1.0729
0.382062
-0.144988
-0.398769
-0.353598
-0.0896783
0.216931
)
;
    }
    left
    {
        type            calculated;
        value           nonuniform List<scalar> 
19
(
-0.2139
-1.16005
-2.1319
-3.01469
-3.79307
-4.45834
-5.04207
-5.56661
-6.05873
-6.58234
-7.15285
-7.83955
-8.73543
-9.9761
-11.71
-14.3486
-18.5157
-25.5655
-26.6792
)
;
    }
    right
    {
        type            calculated;
        value           nonuniform List<scalar> 
19
(
0.213902
1.16005
2.1319
3.01469
3.79307
4.45834
5.04207
5.56661
6.05873
6.58234
7.15285
7.83954
8.73542
9.97608
11.7099
14.3486
18.5157
25.5655
26.6792
)
;
    }
    frontAndBackPlanes
    {
        type            empty;
    }
}


// ************************************************************************* //
