/*--------------------------------*- C++ -*----------------------------------*\
  =========                 |
  \\      /  F ield         | OpenFOAM: The Open Source CFD Toolbox
   \\    /   O peration     | Website:  https://openfoam.org
    \\  /    A nd           | Version:  7
     \\/     M anipulation  |
\*---------------------------------------------------------------------------*/
FoamFile
{
    version     2.0;
    format      ascii;
    class       volScalarField;
    location    "0.482";
    object      gradTz;
}
// * * * * * * * * * * * * * * * * * * * * * * * * * * * * * * * * * * * * * //

dimensions      [0 -1 0 1 0 0 0];

internalField   nonuniform List<scalar> 
1596
(
-6.45519e-16
-3.15517e-16
3.18677e-16
5.21517e-18
-6.1202e-16
0
-2.88704e-16
-2.84614e-16
-1.64154e-17
-1.48573e-16
-1.53365e-18
-1.47335e-16
6.45271e-16
-1.45234e-16
6.79569e-16
5.85662e-16
3.48149e-16
4.39158e-16
0
6.4694e-16
0
9.2343e-16
-5.13332e-18
-2.87481e-16
2.85518e-16
5.81696e-16
1.54289e-17
2.76787e-16
-1.32794e-16
2.64552e-16
-4.46529e-18
-3.66184e-16
-2.28046e-16
-5.49644e-16
-5.35446e-16
-4.86636e-16
2.76639e-16
0
-3.1994e-16
0
-6.08159e-16
8.16189e-18
5.67884e-16
-1.54318e-16
9.30764e-18
-4.03722e-18
-4.31715e-18
-4.74054e-18
1.04311e-16
0
1.90023e-16
5.40666e-16
-5.3133e-17
4.2351e-17
9.98155e-17
1.54577e-16
0
4.99152e-16
-1.53966e-16
1.53403e-16
0
-1.48684e-16
-1.52061e-16
2.67366e-16
-2.39566e-16
0
0
-7.84164e-17
5.43754e-17
0
-1.60252e-16
-2.06288e-16
1.41533e-16
-1.42713e-16
-7.35901e-18
0
8.67995e-17
2.38117e-16
-2.20549e-16
0
-6.67251e-17
-2.01567e-16
0
3.05104e-16
-3.07394e-17
-2.77753e-17
-2.04101e-17
1.60812e-16
1.94864e-16
1.95613e-17
3.18058e-18
-1.53067e-16
7.74602e-18
7.06506e-17
-3.00676e-17
-2.25404e-17
-3.27424e-16
3.17755e-16
-2.85355e-16
-4.67639e-19
-2.61405e-16
7.4073e-18
-7.43188e-18
-2.1183e-16
0
-1.63104e-17
-1.89616e-16
-1.76239e-16
1.46e-16
1.45111e-16
-1.99562e-18
-8.68844e-17
-7.16599e-17
5.45331e-17
1.88375e-16
-3.35843e-16
3.87294e-16
2.20296e-16
0
1.99781e-16
1.20732e-16
-5.85232e-17
2.69478e-16
-5.12702e-17
-2.1296e-16
2.13416e-18
-1.28618e-16
-1.46745e-16
-1.17029e-16
9.79007e-17
8.76492e-17
-1.16124e-18
-2.28991e-17
1.38045e-17
5.31088e-16
-6.45469e-16
0
0
-2.56479e-16
0
0
0
1.87258e-16
0
0
1.17288e-16
4.89126e-18
2.76867e-17
-8.52254e-17
0
4.5377e-17
1.72749e-17
0
-3.51414e-16
6.80868e-16
0
0
2.64137e-16
0
-1.06674e-16
1.06566e-16
-1.90601e-16
8.0881e-17
-8.14726e-17
0
1.17741e-16
1.08169e-16
0
-6.25886e-17
-4.63865e-17
-1.5025e-17
8.11622e-16
-3.85208e-16
0
-2.99333e-16
2.95983e-16
0
2.37649e-16
0
0
0
7.74231e-17
-7.77942e-17
0
-9.05374e-17
-2.64446e-17
0
4.17665e-18
3.64453e-17
0
-2.06028e-16
0
0
3.00976e-16
-5.70683e-16
2.18248e-17
9.26602e-18
-1.02554e-16
9.37653e-18
1.69704e-18
-8.31879e-17
-1.38175e-16
0
1.04347e-16
-2.00285e-17
2.03291e-17
5.01621e-17
-2.83627e-17
-1.33723e-17
1.82109e-16
-1.31468e-17
1.74397e-16
6.21715e-16
-2.40934e-17
-2.72209e-16
0
0
0
1.72252e-16
7.17186e-17
2.60756e-16
-6.3046e-17
-1.0248e-16
-6.39279e-17
-3.33055e-17
1.46989e-17
-3.16135e-17
1.27883e-17
-1.94782e-16
1.90522e-16
-3.58073e-16
-6.146e-16
5.80074e-16
2.4524e-16
-4.61726e-16
4.14506e-16
-3.7084e-16
9.62384e-17
7.75405e-17
-7.00041e-17
5.00161e-17
-4.3031e-17
1.23763e-16
0
-9.13385e-18
6.64174e-17
-9.80131e-18
-1.22762e-15
5.73804e-16
5.54776e-19
-1.41389e-16
1.26086e-17
2.39488e-16
-4.60446e-16
-2.00495e-16
1.78261e-16
-1.57256e-16
-1.38631e-16
0
-1.62156e-16
-4.86013e-17
-8.89919e-17
-5.2866e-17
4.18187e-18
-4.38656e-17
4.29641e-19
2.00638e-16
-1.83758e-16
4.87332e-19
-1.50936e-16
-3.96811e-16
3.79284e-16
2.95701e-19
1.95383e-16
-1.73561e-16
3.04228e-16
7.21729e-17
6.22667e-17
1.99446e-16
0
1.69013e-16
7.73654e-17
0
2.47217e-17
3.59141e-19
0
1.78266e-16
1.50051e-16
-3.06213e-16
3.8529e-16
-5.9476e-16
4.34993e-16
1.78131e-16
-1.92659e-17
-3.01373e-16
5.95127e-17
-5.92191e-17
-1.88361e-16
7.79298e-17
-3.7066e-17
-8.01413e-17
3.59531e-17
-2.20221e-17
7.92666e-18
-1.86912e-16
6.62522e-16
-4.90908e-16
2.83552e-16
0
0
-9.14481e-17
1.90639e-16
-1.49574e-16
2.8565e-16
0
0
1.30297e-16
-1.15712e-16
-8.62329e-17
2.68922e-17
-2.78405e-17
1.42974e-17
0
1.06554e-17
1.74771e-16
-1.49777e-16
-1.35816e-16
-2.34093e-16
-8.81792e-17
1.08183e-16
0
-1.425e-16
-1.2295e-16
1.1344e-16
-9.70564e-17
8.20348e-17
0
3.24309e-17
6.78105e-17
0
0
0
-1.01263e-17
2.97197e-16
1.23667e-16
-4.06059e-16
1.18717e-16
1.06259e-16
0
0
1.36286e-16
-7.05076e-17
-1.09721e-16
9.38712e-17
-7.93338e-17
0
-2.31406e-17
2.14431e-17
0
-1.72893e-17
-5.94523e-18
-1.54204e-16
4.52632e-16
-5.62827e-16
-2.40929e-16
1.23927e-16
-1.01455e-16
8.9777e-17
0
-6.86241e-17
6.00077e-17
0
0
3.31615e-17
-3.31997e-17
1.06499e-17
-1.2736e-17
2.58513e-17
2.30957e-18
4.37208e-18
7.71144e-17
-7.15012e-17
3.83194e-16
-2.48924e-16
-1.07854e-16
1.00705e-17
1.80623e-16
7.47733e-17
6.56629e-17
0
4.42676e-17
-4.14506e-17
3.47029e-17
-3.06638e-17
4.27114e-17
-7.45252e-17
-2.00934e-17
1.76549e-17
4.85639e-18
2.10107e-16
-2.11065e-16
0
2.17551e-16
-1.12409e-16
-9.19926e-17
7.16154e-17
-2.23467e-16
0
-3.41433e-18
-4.88398e-17
-3.83062e-17
5.98019e-17
-3.84623e-18
-4.12798e-17
3.14485e-17
0
1.20939e-17
-4.71552e-18
3.49439e-16
-6.40269e-17
2.86147e-16
-2.25043e-16
1.3688e-16
2.45565e-17
-1.64076e-16
-6.30681e-17
1.16894e-16
-3.62507e-18
-7.93636e-17
6.974e-17
-3.15523e-17
-4.50869e-17
0
0
0
-1.22157e-17
4.61213e-19
-3.16752e-16
3.10154e-16
1.49978e-19
5.15392e-17
4.65237e-17
-1.20294e-16
1.47052e-16
-1.28254e-16
1.14634e-16
-4.26439e-17
8.23753e-17
3.1623e-17
-1.39058e-17
8.3482e-19
-5.86832e-18
-1.03906e-17
0
0
0
0
0
1.62814e-16
-7.16244e-17
-2.57265e-16
0
0
-3.68258e-17
-6.40124e-17
5.61659e-17
0
-3.98824e-17
3.2852e-17
-1.16357e-16
1.35777e-16
-4.73114e-17
5.06442e-17
5.7082e-18
0
-6.14109e-17
6.21667e-17
0
-5.41781e-17
5.5206e-17
9.73372e-17
0
3.71775e-17
5.55989e-17
-2.41015e-16
0
-4.22999e-17
3.49309e-17
2.71977e-17
-2.12087e-17
3.18765e-17
0
-1.24288e-17
0
-3.15549e-17
-3.21907e-17
1.91021e-18
5.56666e-17
-1.55594e-16
0
-4.37339e-17
0
1.38862e-16
6.00261e-17
0
1.67188e-16
-1.82888e-16
1.64696e-17
-4.75261e-17
1.01827e-17
6.04564e-17
2.42574e-17
-1.91891e-17
0
6.59987e-17
-6.04971e-17
7.55623e-17
9.57038e-17
0
8.97323e-17
-8.6312e-17
-7.3733e-17
1.18817e-16
-1.79177e-16
-9.46279e-17
0
0
2.46538e-17
0
0
7.62222e-18
0
-2.89018e-16
2.21102e-16
0
2.49528e-18
-5.65262e-17
-3.23756e-18
5.31255e-17
4.18284e-17
-4.90562e-17
-1.40289e-16
2.36747e-16
-6.30307e-17
0
-3.46181e-17
0
0
0
-2.92308e-17
2.32837e-17
-8.08649e-17
7.7504e-17
2.14662e-16
-2.12253e-16
6.70771e-17
3.03871e-18
-5.40275e-17
4.87293e-17
8.68251e-17
7.02331e-17
-1.39321e-16
0
8.24394e-17
1.60897e-17
-3.95871e-17
-9.33137e-17
7.77511e-17
-1.38697e-17
2.55855e-17
-2.70359e-16
4.06573e-16
-4.05395e-16
7.40165e-17
6.56497e-17
-6.3624e-17
5.46542e-17
-4.58692e-17
0
-4.1955e-17
7.22131e-17
3.14491e-17
5.26352e-17
7.23069e-17
-1.09818e-16
-5.22916e-19
0
-9.99853e-18
3.29983e-18
-2.92361e-16
-9.00262e-17
-1.63832e-16
8.58255e-17
-1.48725e-16
1.34193e-16
-8.13989e-17
7.24384e-17
-3.78319e-18
-3.81081e-18
-7.34548e-17
4.21199e-17
-2.75391e-17
8.20873e-17
-8.81215e-17
1.2874e-17
9.87067e-18
0
-5.60181e-18
3.16106e-16
-9.68142e-17
0
0
-1.53319e-16
3.01484e-16
-7.21451e-17
-1.47348e-17
1.24532e-16
-3.13286e-18
0
0
-3.28033e-17
0
-7.49425e-17
1.8606e-16
-1.30592e-16
0
2.13836e-18
1.09289e-16
2.08054e-16
0
-9.23184e-17
-7.90211e-17
-7.3044e-17
-7.45253e-17
3.2362e-17
-9.20059e-17
-5.24718e-17
0
0
4.04095e-17
0
0
-9.85492e-17
1.61715e-16
0
0
7.49698e-16
-8.26099e-17
-4.66442e-16
-2.65035e-16
3.5858e-16
1.18524e-16
7.22616e-17
0
-2.79294e-17
2.8309e-17
6.90659e-17
-2.26098e-17
-3.54596e-17
5.53584e-17
-5.88844e-17
-1.9155e-17
0
0
0
6.00357e-17
-4.85087e-16
4.76526e-16
-4.6819e-17
-3.73148e-16
5.90472e-16
-2.99849e-16
0
0
1.73127e-16
-1.43525e-16
0
-4.56396e-17
7.88067e-17
-9.36772e-18
2.34713e-17
7.28719e-18
6.71065e-20
1.62224e-18
0
0
0
4.1323e-16
-2.76537e-16
3.02422e-16
-4.74197e-16
1.36808e-16
0
-5.15644e-17
8.43512e-17
-8.6212e-17
-1.75239e-17
-7.12227e-19
-1.23291e-17
-1.95711e-18
-9.78419e-18
-2.70562e-18
-1.4967e-18
5.05268e-16
-9.07747e-16
4.33512e-16
0
1.22678e-16
-1.66869e-16
1.72813e-16
-1.37165e-16
0
-6.98684e-17
9.80327e-17
0
0
-5.51233e-19
0
-1.22236e-17
8.40531e-18
1.66112e-18
2.36995e-18
4.84018e-16
0
-2.00665e-16
2.2427e-16
-1.45207e-16
3.19139e-16
-1.52076e-16
-1.22539e-16
1.23819e-16
-1.2783e-17
0
0
8.43997e-18
-1.46175e-17
-1.02221e-17
1.94667e-17
-4.21316e-18
2.19583e-18
0
2.74997e-16
2.20077e-16
-4.79777e-18
-2.13235e-16
-2.20323e-17
-1.61747e-16
1.56669e-17
1.37885e-16
-7.24585e-18
1.30231e-17
0
0
-8.64618e-18
0
1.02277e-17
-1.09412e-17
0
1.40365e-18
-3.91156e-19
-1.46002e-16
-1.10254e-16
1.03186e-16
-1.20737e-17
-5.47631e-18
1.50224e-17
0
-4.06071e-18
6.1947e-17
-5.21675e-17
0
1.81609e-17
-3.47055e-18
-1.61325e-17
-1.48215e-18
-1.15907e-18
0
-1.09542e-18
0
6.02263e-17
-1.15169e-16
-2.19118e-18
5.04195e-17
4.7325e-17
-4.70827e-17
-3.42066e-17
3.87528e-17
-1.35994e-17
1.0615e-17
-1.05345e-17
1.08594e-17
0
2.82027e-20
-1.08786e-18
3.92499e-18
-1.34585e-20
0
0
6.02283e-17
-6.00026e-17
-5.01564e-17
4.43883e-17
8.36523e-17
-8.41461e-17
-1.71038e-17
1.71436e-17
-1.37138e-17
1.3858e-17
-1.05347e-17
1.99456e-17
-5.59366e-18
-4.06815e-18
-1.25846e-18
4.15092e-19
9.97536e-19
2.64293e-19
-1.98257e-19
0
-1.43881e-17
8.75197e-17
-9.47551e-17
8.36513e-17
-7.40639e-17
0
6.1341e-17
-5.48019e-17
0
2.10614e-17
-2.67113e-17
-1.53938e-17
1.61337e-17
3.00643e-18
0
0
-1.0955e-18
3.98518e-19
2.39936e-16
-4.44567e-16
4.59603e-16
-4.09143e-16
1.61816e-16
-1.41682e-16
1.34264e-16
1.63928e-17
-6.18451e-17
5.53147e-17
0
-4.14184e-17
3.76533e-17
-7.28934e-18
-2.9448e-18
4.719e-18
3.48032e-18
1.06352e-18
-3.85059e-19
5.46188e-16
0
-2.26785e-16
1.76091e-16
2.17785e-17
-1.71499e-16
3.06698e-16
-2.76303e-16
1.09135e-16
-4.80093e-17
4.91417e-17
9.83235e-18
1.73354e-17
7.09989e-18
-6.04336e-18
-7.40731e-19
-7.57054e-18
0
7.94501e-19
4.43926e-16
-4.99685e-16
0
4.75528e-17
2.10641e-16
-2.07027e-16
3.63569e-17
3.28045e-17
1.43818e-17
2.61175e-17
0
0
-3.02027e-17
5.75181e-17
-2.11649e-17
-7.67784e-18
8.40595e-18
6.7942e-19
-1.51971e-18
3.3021e-17
4.38927e-16
-5.21287e-17
-3.65382e-16
3.20501e-16
3.93413e-17
-3.55819e-17
-3.20402e-17
1.09112e-16
-1.35371e-16
8.43666e-17
-8.62266e-17
1.41575e-17
-1.72808e-17
3.29937e-17
-2.18796e-17
0
0
1.66367e-18
0
1.11169e-16
-3.43908e-16
3.92378e-16
-3.30528e-16
3.29741e-16
0
1.21981e-16
-1.2254e-16
-9.61188e-17
1.43612e-16
0
6.24722e-17
-7.88487e-17
-1.17442e-17
0
-1.38393e-18
-2.92916e-18
4.7695e-20
-1.03883e-15
5.00601e-16
0
-3.585e-16
3.58464e-16
2.30148e-16
-1.51544e-16
6.55184e-17
0
-3.10059e-18
2.4961e-17
-2.25747e-17
-3.54053e-17
5.52624e-17
-5.87623e-17
0
1.38069e-17
-3.44182e-18
-1.80753e-18
6.43688e-16
-6.37433e-16
0
9.27346e-17
8.66639e-17
-8.05342e-17
0
-6.86638e-17
-6.22007e-17
0
-1.33014e-18
0
4.04185e-17
0
0
2.04871e-17
7.8087e-17
-1.0032e-16
0
1.23793e-19
9.68595e-17
-9.18042e-17
7.94078e-17
-4.01415e-16
1.56181e-16
0
1.47435e-17
4.20505e-17
0
-4.58378e-17
1.42259e-16
-1.49452e-16
2.70738e-17
0
-2.00415e-18
0
0
0
1.08723e-19
0
8.485e-17
0
-1.42131e-16
1.4439e-16
0
5.72661e-17
-4.81173e-17
1.79432e-16
-8.75756e-17
3.42409e-17
-5.74525e-17
5.76164e-17
-8.82017e-17
-1.44336e-17
0
-1.11757e-17
0
2.52861e-16
-4.2693e-16
0
-7.43524e-17
6.91887e-17
0
0
-1.05664e-16
0
-4.19787e-17
-7.22551e-17
-3.14705e-17
5.26748e-17
0
3.25786e-17
0
0
2.49574e-17
-2.83221e-17
0
3.77527e-16
-3.03131e-16
6.88333e-17
-6.40691e-17
-2.81024e-17
8.26041e-17
9.76112e-17
-1.27281e-16
4.13822e-17
8.55782e-19
-4.50494e-17
1.87818e-16
-5.88445e-17
-1.49257e-16
5.32772e-17
-1.52744e-17
9.00444e-18
-3.03735e-18
-5.92166e-16
2.21042e-16
0
0
2.82414e-17
-2.87183e-17
2.34001e-17
1.79025e-17
1.17047e-16
6.43364e-17
-6.57288e-17
-7.48683e-19
-4.22871e-17
3.46394e-17
0
2.00143e-17
1.40001e-17
8.25705e-18
2.74534e-18
0
1.95992e-16
-1.88045e-16
6.14068e-17
6.81634e-17
-1.33661e-17
-4.63947e-17
-4.18349e-17
-1.48233e-16
6.43903e-17
-4.51853e-17
5.75301e-17
3.95437e-17
-5.49143e-17
5.82882e-17
4.1815e-17
-5.27066e-17
-7.62661e-18
0
-3.31827e-17
-1.54573e-16
5.73192e-17
5.56796e-17
-2.02806e-16
1.48562e-16
8.19168e-17
-8.37315e-17
6.99665e-17
-6.11096e-17
0
0
-6.45088e-17
1.18713e-16
-5.41834e-17
5.60383e-17
-6.08598e-17
1.07739e-17
-1.92016e-17
6.30618e-17
6.05899e-17
-5.73158e-17
4.93044e-17
-5.47246e-17
-9.2305e-17
0
0
0
0
0
0
3.38811e-17
-9.60655e-17
1.016e-16
-3.63641e-17
4.46972e-17
2.21641e-17
-1.89262e-17
1.29225e-16
-2.33992e-16
2.93711e-16
-1.51234e-16
2.07443e-16
-1.7048e-16
3.26953e-16
-1.92513e-16
-1.18127e-16
1.20839e-16
0
3.98548e-17
-3.31001e-17
8.98e-17
-2.67934e-17
-3.90364e-17
-9.0332e-17
6.48624e-18
1.63084e-17
2.00304e-16
6.0567e-17
0
-1.02839e-16
-8.82575e-17
2.08044e-16
2.75635e-17
-9.59748e-17
5.93608e-17
-4.70913e-17
0
-3.15496e-17
0
-2.95843e-17
2.48864e-17
-2.35449e-17
-7.94302e-18
5.84024e-18
0
2.80878e-16
-6.4026e-17
2.86051e-16
-2.24979e-16
-4.88263e-17
2.091e-16
-1.25127e-16
4.80209e-18
4.00187e-18
-4.692e-17
4.57553e-17
0
0
3.50946e-17
-1.41384e-17
9.72531e-18
2.86364e-17
-9.92919e-18
0
4.35306e-20
0
-6.22862e-17
3.88037e-16
-2.66331e-16
-3.1196e-16
1.72711e-16
-2.04324e-16
1.93872e-16
1.05687e-16
-8.67827e-17
3.71861e-17
-3.43279e-17
5.113e-18
6.39024e-17
3.54587e-18
-2.65965e-17
2.62557e-17
-5.26475e-18
6.92789e-16
-2.2306e-16
1.21247e-16
-3.6855e-16
1.07854e-16
-1.83107e-16
9.55972e-17
0
0
-3.52064e-18
-4.60748e-18
-1.34002e-18
0
-5.36462e-17
-4.2711e-17
3.24953e-17
-2.4004e-18
3.60889e-18
1.01001e-17
0
-2.26568e-16
4.04307e-16
1.04646e-16
-3.50447e-16
1.01454e-16
-1.69854e-16
1.92736e-17
1.47301e-16
0
0
2.87674e-18
3.98803e-17
0
-3.88174e-17
-1.86196e-17
2.72508e-18
-1.03276e-17
-1.11579e-17
0
-1.4808e-16
2.15111e-17
2.74129e-16
2.26466e-16
-4.25121e-16
1.98904e-16
-1.56443e-16
8.17843e-17
-1.26769e-16
0
0
0
-6.58568e-17
2.09943e-17
-2.32538e-17
0
-1.46815e-18
7.43905e-18
-5.25906e-16
5.03708e-16
5.76907e-16
-7.03437e-16
3.56801e-16
-3.40857e-16
0
1.62942e-16
-2.28206e-16
1.39164e-16
-1.1547e-16
9.92748e-17
8.43158e-17
6.81105e-17
5.53148e-17
0
0
0
0
5.70998e-16
-3.42907e-16
0
0
-1.27409e-16
3.32247e-16
-2.14433e-16
-1.70474e-16
1.68552e-16
1.37841e-16
2.41665e-16
-1.03007e-16
4.2826e-17
3.44574e-17
2.67537e-17
2.09008e-17
3.46014e-17
-1.7191e-18
1.75106e-18
-5.83825e-16
5.47181e-16
3.11956e-16
-1.59354e-16
3.85555e-16
-2.49321e-16
-2.12061e-16
-1.88551e-16
0
-2.83247e-16
9.68139e-18
1.1129e-16
-9.30772e-17
-7.79296e-17
-2.86835e-17
-3.15619e-17
-2.50053e-17
0
0
-2.00808e-16
0
1.66391e-16
-4.57864e-19
0
0
2.18747e-16
1.94558e-16
0
1.51249e-16
0
-1.69002e-16
-4.70034e-17
8.51394e-17
0
5.50037e-17
-7.84367e-18
8.00159e-18
0
4.21766e-16
0
3.26132e-16
-6.17262e-16
5.68205e-16
4.90244e-16
-1.08873e-17
0
1.03657e-17
1.6753e-16
0
-1.80081e-16
2.09287e-16
-1.86499e-16
-4.08737e-17
-4.45852e-17
-1.2632e-17
-2.17123e-18
-7.18423e-18
-4.03352e-16
5.84052e-16
-1.73035e-16
-4.70531e-16
-2.84032e-16
-2.56615e-16
-4.6144e-16
-1.96993e-16
1.06867e-17
7.76864e-17
-7.75404e-17
2.56745e-16
-1.12813e-16
2.32564e-16
-4.3565e-17
0
4.6796e-17
-2.68349e-17
7.38192e-18
8.67382e-16
-1.3763e-17
-7.0908e-16
6.21718e-16
-5.74751e-16
5.21716e-16
-1.12736e-17
-2.13421e-16
1.92417e-16
8.07175e-17
-8.97798e-18
-2.04718e-16
6.15384e-17
5.81162e-17
-1.87452e-17
1.8959e-17
-4.84693e-17
-2.98022e-18
-1.01368e-17
4.25807e-16
1.88488e-16
3.43293e-16
-3.13004e-16
-2.73731e-16
1.03574e-17
-2.26329e-16
5.52136e-16
1.27362e-17
2.69297e-16
1.59895e-16
-1.42665e-16
0
-1.04347e-16
0
0
6.09377e-17
2.75475e-17
1.19091e-17
4.05375e-16
0
3.38909e-16
3.10983e-16
-2.85414e-16
2.60408e-16
0
-2.16819e-16
-3.04177e-16
-2.73153e-16
-1.61311e-16
1.44279e-16
0
0
0
0
-5.70533e-17
-3.94464e-17
0
-7.94391e-16
0
-1.19214e-17
-1.06056e-17
4.30986e-16
-2.54294e-16
-1.18662e-16
-1.18837e-16
3.03085e-16
0
8.08807e-17
-8.88082e-18
6.88309e-17
0
0
8.88025e-17
-6.55157e-18
4.73223e-17
-1.68666e-17
5.61801e-16
1.6875e-16
-1.67008e-16
-1.53504e-16
-5.54078e-16
3.90452e-16
4.82112e-16
-7.79426e-18
-2.03708e-16
1.96492e-16
4.19547e-17
-2.09214e-16
-1.75106e-16
-1.00261e-16
-1.05278e-16
-1.02254e-16
8.03633e-17
-3.82858e-18
1.72749e-17
-1.74559e-16
8.145e-17
-3.95922e-16
7.09584e-17
-7.07002e-17
0
-2.37366e-16
-1.0452e-17
-2.18418e-16
1.2108e-17
2.1296e-16
1.6175e-16
-3.86249e-17
2.12785e-17
1.00412e-16
0
-1.6449e-16
-5.86675e-17
-1.2279e-18
3.48926e-16
-9.87752e-18
6.21243e-16
-3.01083e-16
4.67638e-19
8.28402e-18
2.50764e-16
-1.3405e-17
2.11829e-16
-1.98407e-16
-1.85877e-16
0
1.76239e-16
1.43799e-16
1.92723e-18
-2.79042e-18
8.7721e-17
5.96407e-17
0
-2.49114e-16
0
-6.61107e-17
2.8564e-16
3.18404e-18
6.68143e-17
-2.42485e-16
2.30627e-16
2.36988e-16
2.26352e-16
2.16379e-16
0
-1.71213e-16
0
8.71156e-18
-9.04773e-18
0
-8.40398e-19
4.09476e-17
1.69371e-16
6.55434e-18
-1.43152e-16
4.36586e-16
-1.41507e-16
0
0
-2.59075e-16
-2.29617e-16
-2.19284e-16
-3.90411e-16
-5.43754e-17
0
0
0
-1.73553e-17
1.83663e-17
1.16021e-16
-4.1565e-17
6.67357e-18
0
-2.99498e-16
-2.80156e-16
2.89514e-16
-2.867e-16
-4.13132e-16
5.14229e-16
1.38644e-16
0
2.27113e-16
2.50753e-16
-5.41372e-17
2.9178e-16
-4.76144e-17
4.95549e-17
1.90852e-16
-1.10248e-16
0
-3.24641e-16
0
-3.13527e-16
3.08321e-16
0
5.67739e-16
2.68735e-16
-5.57623e-16
4.39579e-16
-3.26341e-18
-1.34154e-16
-2.4278e-16
0
3.26378e-16
-5.49643e-16
5.89028e-16
-7.50429e-16
0
0
3.22689e-16
-1.54316e-18
-3.8071e-18
-6.17518e-16
6.208e-16
-3.01702e-16
3.00473e-16
2.96024e-16
-2.66748e-16
0
0
4.88925e-16
-4.97348e-16
-5.34925e-16
5.29294e-16
-5.1489e-16
5.56315e-16
-8.70873e-16
0
)
;

boundaryField
{
    up
    {
        type            calculated;
        value           nonuniform List<scalar> 
84
(
0
0
0
0
-3.00676e-17
5.45331e-17
-2.28991e-17
1.72749e-17
-1.5025e-17
0
-1.33723e-17
1.27883e-17
-9.80131e-18
4.29641e-19
3.59141e-19
7.92666e-18
0
0
-5.94523e-18
4.37208e-18
4.85639e-18
-4.71552e-18
4.61213e-19
0
1.9887e-18
7.90802e-19
-1.85056e-17
0
2.32837e-17
2.6333e-17
3.29983e-18
-5.60181e-18
2.13836e-18
0
-1.03741e-18
1.69372e-18
-1.50233e-18
2.37122e-18
0
-3.91444e-19
0
0
-1.98461e-19
3.98518e-19
-3.85059e-19
7.94501e-19
-1.51971e-18
1.66367e-18
4.7695e-20
-1.80753e-18
0
0
0
-2.83221e-17
-3.78516e-18
2.74534e-18
0
-1.92016e-17
-1.89262e-17
1.4327e-17
0
0
-5.26475e-18
1.01001e-17
-1.11579e-17
7.43905e-18
0
1.75106e-18
0
0
-7.18423e-18
7.38192e-18
-1.01368e-17
1.19091e-17
0
-1.68666e-17
1.72749e-17
-1.2279e-18
0
4.09476e-17
-4.1565e-17
0
0
0
)
;
    }
    low
    {
        type            calculated;
        value           nonuniform List<scalar> 
84
(
-6.45842e-16
6.4694e-16
-3.19364e-16
4.99623e-16
8.71198e-17
-2.26351e-17
1.89167e-16
1.45563e-17
0
8.12442e-16
-2.06028e-16
1.81728e-16
-1.94782e-16
-1.2275e-15
2.00638e-16
0
-1.86912e-16
1.06554e-17
-1.01263e-17
-1.54204e-16
7.71144e-17
2.10107e-16
3.48518e-16
-3.16752e-16
0
-6.14109e-17
-3.15549e-17
0
-2.89018e-16
-8.08649e-17
-2.69664e-16
-2.91763e-16
3.15646e-16
1.09289e-16
7.49585e-16
6.00357e-17
0
5.05268e-16
4.84797e-16
2.75446e-16
-1.4625e-16
6.02263e-17
6.02283e-17
0
2.39936e-16
5.46966e-16
4.43926e-16
3.34534e-17
0
-1.03872e-15
6.43688e-16
1.23793e-19
1.08723e-19
2.52861e-16
0
-5.91187e-16
0
-3.31827e-17
6.30618e-17
1.28676e-16
1.99329e-16
2.79957e-16
4.35306e-20
6.91988e-16
0
0
-5.25906e-16
5.70511e-16
-5.83454e-16
-2.00808e-16
4.21644e-16
-4.03352e-16
8.68143e-16
4.26408e-16
4.05375e-16
-7.94391e-16
5.61049e-16
-1.73767e-16
3.48926e-16
-2.48794e-16
1.69371e-16
7.24914e-18
-3.24641e-16
3.22851e-16
)
;
    }
    left
    {
        type            calculated;
        value           nonuniform List<scalar> 
19
(
-6.45519e-16
-3.15701e-16
3.18677e-16
5.20998e-18
-6.12148e-16
0
-2.88704e-16
-2.84614e-16
-1.72918e-17
-1.48573e-16
-1.53365e-18
-1.47335e-16
6.51913e-16
-1.45234e-16
6.79569e-16
5.85662e-16
3.48149e-16
5.10133e-16
0
)
;
    }
    right
    {
        type            calculated;
        value           nonuniform List<scalar> 
19
(
3.22689e-16
-1.35915e-18
-3.8071e-18
-6.17513e-16
6.20928e-16
-3.01702e-16
3.00473e-16
2.96024e-16
-2.65871e-16
0
0
4.9363e-16
-5.03989e-16
-5.34925e-16
5.29294e-16
-5.1489e-16
5.56315e-16
-9.41848e-16
0
)
;
    }
    frontAndBackPlanes
    {
        type            empty;
    }
}


// ************************************************************************* //
