/*--------------------------------*- C++ -*----------------------------------*\
  =========                 |
  \\      /  F ield         | OpenFOAM: The Open Source CFD Toolbox
   \\    /   O peration     | Website:  https://openfoam.org
    \\  /    A nd           | Version:  7
     \\/     M anipulation  |
\*---------------------------------------------------------------------------*/
FoamFile
{
    version     2.0;
    format      ascii;
    class       volScalarField;
    location    "0.118";
    object      gradTz;
}
// * * * * * * * * * * * * * * * * * * * * * * * * * * * * * * * * * * * * * //

dimensions      [0 -1 0 1 0 0 0];

internalField   nonuniform List<scalar> 
1596
(
-6.45342e-16
-3.09432e-16
3.19214e-16
1.12833e-17
-5.9569e-16
0
-2.70646e-16
-2.66975e-16
-2.4208e-17
-1.44119e-16
-8.83154e-19
-1.4457e-16
6.45271e-16
-1.44341e-16
6.71625e-16
5.81783e-16
3.46668e-16
4.3951e-16
0
6.39802e-16
0
8.71326e-16
-9.37939e-18
-2.55053e-16
2.51794e-16
5.36051e-16
2.34718e-17
2.50613e-16
-1.22199e-16
2.44912e-16
-2.5377e-18
-3.41461e-16
-2.15115e-16
-5.42354e-16
-5.31505e-16
-4.85094e-16
2.77315e-16
0
-3.06888e-16
0
-5.53797e-16
1.47631e-17
4.81726e-16
-1.47597e-16
1.73392e-17
-3.21337e-18
-2.71823e-18
-2.5101e-18
8.20538e-17
0
1.76949e-16
4.96872e-16
-4.93776e-17
4.09537e-17
9.56627e-17
1.53603e-16
0
4.91e-16
-1.37867e-16
1.37364e-16
0
-1.28726e-16
-1.36523e-16
2.13057e-16
-1.71762e-16
0
0
-7.9793e-17
4.30302e-17
0
-1.43521e-16
-1.7708e-16
1.25671e-16
-1.37215e-16
-7.0092e-18
0
8.67995e-17
2.14576e-16
-1.80004e-16
0
-4.87878e-17
-1.51107e-16
0
2.16447e-16
-2.07754e-17
-1.88538e-17
-3.1705e-17
1.0758e-16
1.38109e-16
1.56123e-17
1.47513e-17
-1.3579e-16
6.74896e-18
6.35253e-17
-2.83095e-17
-2.25404e-17
-2.92659e-16
2.63509e-16
-2.14009e-16
-7.37797e-19
-1.68661e-16
4.60313e-18
-4.61841e-18
-1.20456e-16
0
-2.60232e-17
-1.28372e-16
-1.24322e-16
9.50794e-17
1.12978e-16
-1.5042e-18
-6.79658e-17
-6.44329e-17
5.00425e-17
1.88375e-16
-2.9623e-16
3.09411e-16
1.62884e-16
0
1.31099e-16
7.09012e-17
-3.32933e-17
1.51372e-16
-2.7282e-17
-1.21341e-16
7.7222e-19
-6.75818e-17
-9.54262e-17
-6.99736e-17
6.29166e-17
6.85641e-17
-9.38104e-19
-2.04273e-17
2.79406e-17
4.75822e-16
-5.19097e-16
0
0
-1.5134e-16
0
0
0
8.27143e-17
0
0
6.31865e-17
1.52178e-18
2.46884e-17
-5.57195e-17
0
2.96375e-17
1.25361e-17
0
-2.97221e-16
5.61694e-16
0
0
1.55859e-16
0
-4.90321e-17
4.89826e-17
-8.41911e-17
3.26353e-17
-3.2874e-17
0
4.67709e-17
5.48467e-17
0
-3.1424e-17
-3.02419e-17
-1.10942e-17
7.83372e-16
-3.57417e-16
0
-2.06062e-16
2.03756e-16
0
1.20291e-16
0
0
0
2.73411e-17
-2.74722e-17
0
-3.66515e-17
-9.8034e-18
0
7.17691e-18
1.67557e-17
0
-1.99052e-16
0
0
2.07799e-16
-3.72419e-16
3.1603e-17
1.26414e-17
-4.27753e-17
8.11208e-18
3.08141e-18
-2.80567e-17
-3.98473e-17
0
2.8963e-17
-6.50085e-18
6.59842e-18
2.08632e-17
-1.34922e-17
-5.75765e-18
1.4722e-16
-2.63962e-17
1.42342e-16
4.44031e-16
-3.89261e-17
-1.66779e-16
0
0
0
5.87561e-17
2.04089e-17
7.01619e-17
-1.67121e-17
-2.84449e-17
-1.46248e-17
-9.09121e-18
4.16472e-18
-9.45676e-18
5.39448e-18
-1.74465e-16
1.71766e-16
-3.0701e-16
-4.39637e-16
3.91338e-16
1.31381e-16
-2.31426e-16
1.79329e-16
-1.38156e-16
3.65874e-17
2.31e-17
-1.94807e-17
9.43567e-18
-9.26843e-18
2.83913e-17
0
-2.25345e-18
1.75314e-17
-2.65979e-18
-1.18745e-15
5.28238e-16
3.62886e-19
-9.23833e-17
2.08101e-17
1.27888e-16
-2.3634e-16
-8.41647e-17
6.34644e-17
-4.7369e-17
-3.54972e-17
0
-3.36572e-17
-9.52558e-18
-1.51174e-17
-8.75685e-18
6.75688e-19
-9.36759e-18
6.49476e-19
1.94012e-16
-1.64246e-16
4.3156e-20
-1.10928e-16
-2.47479e-16
2.2612e-16
1.25963e-18
8.20185e-17
-6.17909e-17
9.02076e-17
1.99522e-17
1.44782e-17
3.71132e-17
0
2.62481e-17
1.17875e-17
0
4.58422e-18
4.5858e-19
0
1.59337e-16
1.09353e-16
-2.36852e-16
2.39044e-16
-3.37205e-16
2.20163e-16
6.74746e-17
-1.69563e-17
-9.18668e-17
1.31394e-17
-1.30745e-17
-3.21775e-17
1.10034e-17
-5.73609e-18
-1.0861e-17
4.12691e-18
-2.6069e-18
1.31322e-18
-1.80378e-16
5.63996e-16
-4.24918e-16
2.04297e-16
0
0
-3.7201e-17
8.37949e-17
-4.59607e-17
8.27776e-17
0
0
2.06407e-17
-1.65532e-17
-9.64513e-18
3.04779e-18
-3.26461e-18
1.78735e-18
0
2.33047e-17
1.68852e-16
-1.20776e-16
-9.89496e-17
-1.37755e-16
-2.90007e-17
5.82785e-17
0
-4.21375e-17
-2.82525e-17
2.3886e-17
-1.66071e-17
1.14725e-17
0
3.89833e-18
6.22652e-18
0
0
0
-2.27075e-17
2.36577e-16
7.28156e-17
-3.00932e-16
7.27787e-17
5.7154e-17
0
0
3.85394e-17
-2.06484e-17
-2.3103e-17
1.60621e-17
-1.10948e-17
0
-2.03083e-18
1.44436e-18
0
-1.15525e-18
-4.11845e-19
-1.35979e-16
3.99528e-16
-4.59297e-16
-1.57955e-16
8.60694e-17
-5.19033e-17
3.84382e-17
0
-1.97229e-17
1.47394e-17
0
0
3.72938e-18
-3.73368e-18
8.26843e-19
-1.32721e-18
1.54253e-18
3.09564e-19
3.13757e-19
7.42793e-17
-6.28032e-17
2.90319e-16
-1.84432e-16
-6.3632e-17
1.2397e-17
8.26056e-17
2.51999e-17
1.88719e-17
0
7.12932e-18
-6.46687e-18
4.33394e-18
-3.13175e-18
2.98232e-18
-4.66322e-18
-1.18783e-18
9.90551e-19
2.35145e-19
1.90589e-16
-1.97425e-16
0
1.38296e-16
-7.61497e-17
-4.57725e-17
2.28723e-17
-8.01729e-17
0
-1.35848e-18
-9.20512e-18
-5.18694e-18
5.99379e-18
-7.28322e-19
-2.88236e-18
1.84701e-18
0
5.04746e-19
-2.28324e-19
3.4694e-16
-5.60904e-17
2.11496e-16
-1.64096e-16
7.02722e-17
-4.64438e-18
-7.16153e-17
-1.78648e-17
2.98904e-17
-1.89501e-18
-1.12374e-17
8.56767e-18
-3.35515e-18
-3.3068e-18
0
0
0
-5.08383e-19
1.77722e-20
-2.94521e-16
2.82964e-16
1.54841e-19
3.46751e-17
2.65301e-17
-5.31388e-17
5.67909e-17
-3.95758e-17
2.90877e-17
-6.96623e-18
1.27851e-17
3.42945e-18
-1.26129e-18
6.62772e-20
-2.49244e-19
-4.57704e-19
0
0
0
0
0
1.15908e-16
-7.06692e-17
-1.58171e-16
0
0
-1.13396e-17
-1.50987e-17
1.05616e-17
0
-4.32516e-18
2.75974e-18
-7.26016e-18
7.95742e-18
-2.01246e-18
2.12521e-18
2.04294e-19
0
-5.68857e-17
5.75858e-17
0
-3.74073e-17
3.69745e-17
5.20374e-17
0
1.14479e-17
1.01707e-17
-5.03074e-17
0
-5.12246e-18
3.30363e-18
1.86721e-18
-1.17164e-18
1.52195e-18
0
-4.58333e-19
0
-2.93091e-17
-2.72802e-17
1.61007e-18
3.8435e-17
-9.22308e-17
0
-1.82561e-17
0
3.65457e-17
1.19913e-17
0
2.02153e-17
-1.85595e-17
2.40713e-18
-2.24722e-18
1.26318e-18
2.9389e-18
9.26285e-19
-7.34938e-19
0
5.86965e-17
-4.56893e-17
5.57012e-17
5.75178e-17
0
3.62267e-17
-3.23262e-17
-2.00066e-17
2.40257e-17
-3.54196e-17
-1.34093e-17
0
0
1.65175e-18
0
0
3.51923e-19
0
-2.69338e-16
2.08703e-16
0
4.87046e-18
-3.22385e-17
-1.58995e-18
2.44467e-17
1.30807e-17
-1.94127e-17
-3.53207e-17
4.5988e-17
-1.29017e-17
0
-3.93499e-18
0
0
0
-1.37942e-18
1.10811e-18
-7.83514e-17
6.93289e-17
1.68979e-16
-1.60305e-16
4.53961e-17
3.83487e-18
-2.47514e-17
1.86343e-17
2.74193e-17
1.7513e-17
-3.40763e-17
0
1.14363e-17
-3.20076e-19
-4.50098e-18
-7.62789e-18
6.04272e-18
-6.95957e-19
1.44513e-18
-2.73077e-16
3.53288e-16
-3.45517e-16
5.51748e-17
4.16482e-17
-3.77396e-17
2.97934e-17
-2.00037e-17
0
-1.34615e-17
1.72885e-17
7.31328e-18
1.04361e-17
1.01479e-17
-1.4566e-17
-7.14575e-19
0
-6.61896e-19
2.28462e-19
-2.95152e-16
-8.10766e-17
-1.29763e-16
7.17066e-17
-1.00313e-16
7.87247e-17
-4.46823e-17
3.26129e-17
-3.71388e-18
-3.51771e-18
-1.99782e-17
1.28051e-17
-4.30016e-18
1.43296e-17
-1.53829e-17
1.03008e-18
1.35156e-18
0
-4.26223e-19
3.19124e-16
-8.81204e-17
0
0
-1.02915e-16
1.94299e-16
-4.25691e-17
-6.80113e-18
5.17292e-17
-1.59447e-18
0
0
-7.77799e-18
0
-1.43878e-17
3.25271e-17
-2.17643e-17
0
1.92879e-19
1.06345e-16
1.89932e-16
0
-7.30036e-17
-5.22619e-17
-4.05362e-17
-4.47929e-17
1.61635e-17
-4.28378e-17
-2.03945e-17
0
0
1.31222e-17
0
0
-2.12805e-17
3.56514e-17
0
0
7.30524e-16
-1.00088e-16
-4.13765e-16
-2.01769e-16
2.75742e-16
7.94546e-17
4.34322e-17
0
-1.35925e-17
1.17243e-17
2.9426e-17
-9.08431e-18
-1.15148e-17
1.72539e-17
-1.83529e-17
-4.83002e-18
0
0
0
5.84955e-17
-4.35917e-16
4.25206e-16
-3.81446e-17
-2.72195e-16
4.133e-16
-2.00874e-16
0
0
8.35968e-17
-6.67331e-17
0
-1.68922e-17
3.01173e-17
-2.84294e-18
8.19617e-18
2.37414e-18
3.62351e-20
4.86732e-19
0
0
0
3.28851e-16
-2.21854e-16
2.07816e-16
-3.18373e-16
8.71493e-17
0
-2.7032e-17
3.99584e-17
-4.08398e-17
-7.20093e-18
2.64945e-19
-4.52942e-18
-5.44664e-19
-3.60442e-18
-1.04149e-18
-5.51412e-19
4.82736e-16
-8.44741e-16
3.92484e-16
0
9.15909e-17
-1.25661e-16
1.13905e-16
-9.00416e-17
0
-3.73635e-17
5.25174e-17
0
0
2.45925e-19
0
-5.12634e-18
3.459e-18
5.2267e-19
8.9555e-19
4.84716e-16
0
-1.73019e-16
1.92852e-16
-1.10532e-16
2.37124e-16
-1.0925e-16
-7.74389e-17
7.82477e-17
-7.46476e-18
0
0
4.26097e-18
-6.71334e-18
-4.6637e-18
8.73452e-18
-1.88345e-18
9.17701e-19
0
2.74679e-16
2.01206e-16
-1.39283e-17
-1.84728e-16
-1.7464e-17
-1.18364e-16
1.72959e-17
9.47882e-17
-4.5885e-18
7.60493e-18
0
0
-4.36508e-18
0
4.93856e-18
-5.28308e-18
0
6.66458e-19
-1.82483e-19
-1.45682e-16
-1.01112e-16
9.48098e-17
-1.0219e-17
-4.40795e-18
1.13708e-17
0
-2.75504e-18
3.86911e-17
-3.25683e-17
0
9.86702e-18
-2.16263e-18
-8.47465e-18
-7.5514e-19
-5.81048e-19
0
-5.23012e-19
0
5.78505e-17
-1.08298e-16
3.61824e-19
4.40858e-17
3.72791e-17
-3.68577e-17
-2.40041e-17
2.70967e-17
-8.56011e-18
6.74835e-18
-6.03557e-18
6.22173e-18
0
1.48195e-20
-5.57152e-19
1.99313e-18
-6.74421e-21
0
0
5.78526e-17
-5.76358e-17
-4.38516e-17
3.89595e-17
6.57067e-17
-6.60946e-17
-1.20026e-17
1.20332e-17
-8.63408e-18
8.724e-18
-6.03593e-18
1.12304e-17
-3.15054e-18
-2.17111e-18
-6.42498e-19
2.18281e-19
5.03058e-19
1.31823e-19
-9.87474e-20
0
-1.34834e-17
7.60919e-17
-8.28018e-17
6.54259e-17
-5.81988e-17
0
4.03911e-17
-3.62697e-17
0
1.19141e-17
-1.50073e-17
-8.08768e-18
8.47641e-18
1.49117e-18
0
0
-5.23195e-19
1.89466e-19
2.29974e-16
-4.16683e-16
4.0997e-16
-3.45993e-16
1.33587e-16
-1.03407e-16
9.85917e-17
1.07919e-17
-3.79733e-17
3.38218e-17
0
-2.17712e-17
1.98798e-17
-3.55325e-18
-1.4606e-18
2.18961e-18
1.59052e-18
5.07922e-19
-1.83068e-19
5.4549e-16
0
-1.96222e-16
1.52742e-16
1.72639e-17
-1.23758e-16
2.13923e-16
-1.808e-16
6.94423e-17
-2.68858e-17
2.752e-17
5.18004e-18
8.29761e-18
3.4609e-18
-2.68547e-18
-4.07891e-19
-3.41861e-18
0
3.28087e-19
4.22777e-16
-4.7594e-16
0
3.9597e-17
1.59432e-16
-1.5456e-16
2.43321e-17
2.04028e-17
8.63647e-18
1.40615e-17
0
0
-1.42791e-17
2.57037e-17
-9.20011e-18
-3.16147e-18
3.46128e-18
2.70269e-19
-6.15884e-19
5.58276e-17
4.18579e-16
-4.53626e-17
-2.89892e-16
2.55245e-16
2.82976e-17
-2.38134e-17
-1.99275e-17
5.96828e-17
-7.38282e-17
3.99816e-17
-4.08631e-17
5.48709e-18
-7.7348e-18
1.24472e-17
-8.37996e-18
0
0
5.27463e-19
0
1.02525e-16
-2.87276e-16
3.29531e-16
-2.3988e-16
2.39309e-16
0
6.90836e-17
-6.94001e-17
-4.59551e-17
6.68045e-17
0
2.38234e-17
-3.01526e-17
-4.31756e-18
0
-4.30336e-19
-7.42341e-19
-7.9299e-20
-1.01196e-15
4.72088e-16
0
-2.75725e-16
2.75697e-16
1.5032e-16
-9.82096e-17
3.55726e-17
0
-1.37016e-18
8.21107e-18
-9.07652e-18
-1.15066e-17
1.72407e-17
-1.83326e-17
0
3.23387e-18
-4.70396e-19
-4.65991e-19
6.13628e-16
-5.95049e-16
0
7.19146e-17
6.1163e-17
-5.33816e-17
0
-3.72804e-17
-2.80563e-17
0
-2.62911e-18
0
1.31359e-17
0
0
4.22618e-18
1.52447e-17
-2.01383e-17
0
-8.37718e-21
8.81665e-17
-7.65867e-17
5.44619e-17
-2.80804e-16
1.0314e-16
0
6.80852e-18
1.88051e-17
0
-1.62365e-17
3.92333e-17
-4.12168e-17
5.63117e-18
0
-1.17383e-18
0
0
0
1.45957e-20
0
7.07853e-17
0
-9.0572e-17
9.20118e-17
0
2.51741e-17
-1.76893e-17
5.95054e-17
-2.77019e-17
7.96976e-18
-1.14033e-17
9.25616e-18
-1.54173e-17
-2.29687e-18
0
-9.52925e-19
0
2.33316e-16
-3.95916e-16
0
-5.44787e-17
4.47386e-17
0
0
-4.48547e-17
0
-1.34782e-17
-1.73123e-17
-7.32495e-18
1.0455e-17
0
3.73085e-18
0
0
1.94639e-18
-1.99513e-18
0
3.26341e-16
-2.59475e-16
5.04348e-17
-4.14282e-17
-1.43987e-17
3.94011e-17
3.86528e-17
-3.9662e-17
1.25067e-17
2.07918e-18
-7.44725e-18
2.92531e-17
-8.84832e-18
-1.60417e-17
5.00784e-18
-9.69729e-19
5.97217e-19
-1.40763e-19
-5.72487e-16
2.0883e-16
0
0
1.63549e-17
-1.66311e-17
8.52015e-18
3.26864e-18
3.40929e-17
1.438e-17
-1.32994e-17
-1.24244e-18
-5.06858e-18
3.94237e-18
0
1.27188e-18
8.88827e-19
3.8173e-19
1.2723e-19
0
1.71814e-16
-1.50718e-16
4.63811e-17
4.05097e-17
-7.52764e-18
-2.02585e-17
-1.50226e-17
-4.17483e-17
1.38598e-17
-5.70576e-18
9.73155e-18
4.73975e-18
-4.442e-18
4.71491e-18
2.12225e-18
-2.98391e-18
-3.52584e-19
0
-3.33187e-17
-1.38605e-16
4.5686e-17
3.84481e-17
-1.16078e-16
7.87223e-17
3.04163e-17
-3.10902e-17
1.89939e-17
-1.31537e-17
0
0
-5.78435e-18
9.71208e-18
-3.86997e-18
2.72708e-18
-3.01102e-18
4.15805e-19
-7.36117e-19
6.10068e-17
5.36746e-17
-4.49276e-17
2.83635e-17
-3.71633e-17
-4.46364e-17
0
0
0
0
0
0
2.95796e-18
-6.24424e-18
6.60396e-18
-1.60594e-18
2.02162e-18
8.10305e-19
-6.77094e-19
1.29225e-16
-1.94408e-16
2.41334e-16
-9.18151e-17
1.29495e-16
-7.24799e-17
1.26829e-16
-6.45344e-17
-2.49959e-17
2.55696e-17
0
4.32292e-18
-2.88978e-18
5.44032e-18
-2.37213e-18
-2.23606e-18
-3.61334e-18
3.05592e-19
5.61801e-19
2.02663e-16
5.30593e-17
0
-6.92236e-17
-4.58335e-17
9.85504e-17
4.46712e-18
-2.98513e-17
1.60458e-17
-8.89523e-18
0
-3.42208e-18
0
-1.97169e-18
1.42637e-18
-1.09162e-18
-3.38343e-19
2.00552e-19
0
2.809e-16
-5.60895e-17
2.11598e-16
-1.64374e-16
-2.8282e-17
9.33588e-17
-5.56153e-17
3.94439e-18
2.7219e-18
-8.89724e-18
8.01082e-18
0
0
2.64309e-18
-6.70006e-19
3.55667e-19
1.21701e-18
-4.16033e-19
0
4.24125e-20
0
-4.8604e-17
2.54987e-16
-1.67513e-16
-1.46322e-16
7.89157e-17
-6.25853e-17
5.52539e-17
2.21386e-17
-1.39304e-17
4.92999e-18
-4.00747e-18
9.0716e-19
4.55822e-18
-3.06506e-20
-1.24645e-18
1.18535e-18
-2.52658e-19
6.66772e-16
-2.08802e-16
8.34302e-17
-2.66614e-16
6.36318e-17
-8.64316e-17
4.8851e-17
0
0
-1.49388e-18
-2.40613e-18
-6.74812e-19
0
-4.59459e-18
-2.9824e-18
1.90856e-18
-1.29144e-19
3.13476e-19
5.37101e-19
0
-1.99882e-16
3.08193e-16
5.05116e-17
-2.24937e-16
5.19032e-17
-6.8015e-17
1.81988e-17
4.86027e-17
0
0
7.45181e-19
5.55784e-18
0
-3.52779e-18
-1.36951e-18
2.13338e-19
-5.49504e-19
-7.09653e-19
0
-1.18366e-16
4.26347e-17
2.08043e-16
1.29431e-16
-2.28392e-16
9.80715e-17
-5.39035e-17
3.02439e-17
-3.28159e-17
0
0
0
-7.63939e-18
1.26667e-18
-2.04085e-18
0
-1.07491e-19
5.21239e-19
-4.94362e-16
4.607e-16
4.39473e-16
-5.29138e-16
2.14312e-16
-1.96274e-16
0
5.82979e-17
-7.59348e-17
3.9599e-17
-2.5682e-17
1.81409e-17
1.27688e-17
7.90082e-18
5.46466e-18
0
0
0
0
5.64463e-16
-3.05265e-16
0
0
-8.18203e-17
1.75364e-16
-1.10762e-16
-6.29689e-17
6.22591e-17
3.73594e-17
5.51152e-17
-1.88229e-17
7.39452e-18
4.65045e-18
3.03225e-18
2.55695e-18
3.97204e-18
-1.85896e-19
1.89352e-19
-5.64222e-16
5.02353e-16
2.41295e-16
-1.29331e-16
2.38441e-16
-1.51088e-16
-1.03153e-16
-7.79696e-17
0
-7.88889e-17
6.44351e-18
2.29986e-17
-1.52475e-17
-1.10037e-17
-3.74204e-18
-3.41279e-18
-2.75017e-18
0
0
-1.94089e-16
0
1.35951e-16
8.65617e-20
0
0
1.06405e-16
8.04536e-17
0
4.41268e-17
0
-3.4559e-17
-8.83174e-18
1.50482e-17
0
9.12207e-18
-1.23139e-18
1.25618e-18
0
4.21766e-16
0
2.53923e-16
-4.55955e-16
3.83414e-16
2.71193e-16
-1.46172e-17
0
8.74279e-18
5.59875e-17
0
-4.15812e-17
4.20007e-17
-3.58894e-17
-7.53057e-18
-7.16049e-18
-2.3333e-18
-4.66037e-19
-2.07555e-18
-3.76194e-16
5.37514e-16
-1.41472e-16
-3.45678e-16
-1.8537e-16
-1.46654e-16
-2.28906e-16
-7.85535e-17
1.07551e-17
2.31435e-17
-2.31e-17
6.38411e-17
-2.73529e-17
5.07461e-17
-9.38373e-18
0
1.2528e-17
-8.03276e-18
1.99956e-18
8.67382e-16
-2.62389e-17
-5.92087e-16
4.44034e-16
-3.76309e-16
3.00637e-16
-1.5267e-17
-9.32927e-17
7.38607e-17
2.53839e-17
-4.96826e-18
-5.49204e-17
1.4207e-17
1.91384e-17
-4.96971e-18
5.02639e-18
-1.29759e-17
-3.36028e-18
-4.48069e-18
4.25807e-16
1.68245e-16
2.79173e-16
-2.27808e-16
-1.67399e-16
1.63071e-17
-1.07048e-16
2.53894e-16
1.28002e-17
9.89157e-17
5.44012e-17
-4.66045e-17
0
-2.89634e-17
0
0
2.50243e-17
1.01882e-17
5.12986e-18
3.90656e-16
0
2.73107e-16
2.26338e-16
-1.85156e-16
1.49299e-16
0
-9.72146e-17
-1.27611e-16
-1.02625e-16
-5.48827e-17
4.71314e-17
0
0
0
0
-2.35644e-17
-2.18945e-17
0
-7.64821e-16
0
-2.2558e-17
-2.03811e-17
2.85391e-16
-1.41857e-16
-6.12996e-17
-6.21289e-17
1.32977e-16
0
3.26352e-17
-3.30244e-18
3.41563e-17
0
0
4.86952e-17
-3.72571e-18
2.63589e-17
-1.22398e-17
5.32326e-16
1.42373e-16
-1.40903e-16
-1.16065e-16
-3.64738e-16
2.35607e-16
2.65637e-16
-1.26037e-17
-9.40101e-17
9.78218e-17
1.9544e-17
-1.0467e-16
-8.05417e-17
-5.82164e-17
-6.33041e-17
-5.63483e-17
5.55756e-17
-2.54936e-18
1.25361e-17
-1.60199e-16
6.89121e-17
-3.24709e-16
5.02433e-17
-5.00605e-17
0
-1.34242e-16
-1.74206e-17
-1.24202e-16
1.98885e-17
1.2134e-16
8.26547e-17
-2.20715e-17
1.27183e-19
5.96437e-17
0
-1.21797e-16
-4.88001e-17
-9.91951e-19
3.35859e-16
-8.44333e-18
5.11015e-16
-2.32749e-16
7.37794e-19
5.67604e-18
1.65971e-16
-2.27904e-17
1.20455e-16
-1.12242e-16
-1.06555e-16
0
1.24321e-16
9.35094e-17
1.45264e-18
-2.13768e-18
6.86321e-17
4.95819e-17
0
-2.36535e-16
0
-4.59369e-17
2.24592e-16
4.98181e-18
4.88529e-17
-1.60492e-16
1.48819e-16
1.69851e-16
1.64049e-16
1.60205e-16
0
-1.20776e-16
0
7.27113e-18
-7.55171e-18
0
-7.87071e-19
3.99101e-17
1.70037e-16
1.38682e-17
-1.16613e-16
3.67744e-16
-1.15357e-16
0
0
-2.05424e-16
-1.64569e-16
-1.58926e-16
-3.05338e-16
-4.30299e-17
0
0
0
-1.61116e-17
1.70501e-17
1.13504e-16
-4.05398e-17
1.46664e-17
0
-2.67587e-16
-2.3185e-16
2.51218e-16
-2.5082e-16
-3.53869e-16
4.17849e-16
1.2621e-16
0
1.86568e-16
2.27965e-16
-4.91539e-17
2.73271e-16
-4.5206e-17
4.70484e-17
1.88082e-16
-1.07869e-16
0
-3.22495e-16
0
-3.02602e-16
2.94066e-16
0
5.05382e-16
2.32728e-16
-5.04266e-16
4.17742e-16
-1.79123e-18
-1.2345e-16
-2.20717e-16
0
3.27832e-16
-5.42354e-16
5.84504e-16
-7.4549e-16
0
0
3.22513e-16
-3.47511e-18
-8.46853e-18
-6.01937e-16
6.13227e-16
-2.92628e-16
2.91435e-16
2.87427e-16
-2.41643e-16
0
0
4.90999e-16
-4.99458e-16
-5.23851e-16
5.22275e-16
-5.111e-16
5.54709e-16
-8.70857e-16
0
)
;

boundaryField
{
    up
    {
        type            calculated;
        value           nonuniform List<scalar> 
84
(
0
0
0
0
-2.83095e-17
5.00425e-17
-2.04273e-17
1.25361e-17
-1.10942e-17
0
-5.75765e-18
5.39448e-18
-2.65979e-18
6.49476e-19
4.5858e-19
1.31322e-18
0
0
-4.11845e-19
3.13757e-19
2.35145e-19
-2.28324e-19
1.77722e-20
0
8.46067e-20
5.27756e-20
-6.74601e-19
0
1.10811e-18
1.59065e-18
2.28462e-19
-4.26223e-19
1.92879e-19
0
-6.32611e-20
4.91359e-19
-5.42632e-19
8.88159e-19
0
-1.80568e-19
0
0
-9.85494e-20
1.89466e-19
-1.83068e-19
3.28087e-19
-6.15884e-19
5.27463e-19
-7.9299e-20
-4.65991e-19
0
0
0
-1.99513e-18
-2.86856e-19
1.2723e-19
0
-7.36117e-19
-6.77094e-19
4.77383e-19
0
0
-2.52658e-19
5.37101e-19
-7.09653e-19
5.21239e-19
0
1.89352e-19
0
0
-2.07555e-18
1.99956e-18
-4.48069e-18
5.12986e-18
0
-1.22398e-17
1.25361e-17
-9.91951e-19
0
3.99101e-17
-4.05398e-17
0
0
0
)
;
    }
    low
    {
        type            calculated;
        value           nonuniform List<scalar> 
84
(
-6.46118e-16
6.39802e-16
-3.05474e-16
4.9212e-16
8.75385e-17
-2.27529e-17
1.90112e-16
2.95637e-17
0
7.8524e-16
-1.99052e-16
1.46077e-16
-1.74465e-16
-1.18775e-15
1.94012e-16
0
-1.80378e-16
2.33047e-17
-2.27075e-17
-1.35979e-16
7.42793e-17
1.90589e-16
3.4521e-16
-2.94521e-16
0
-5.68857e-17
-2.93091e-17
0
-2.69338e-16
-7.83514e-17
-2.72083e-16
-2.94464e-16
3.18782e-16
1.06345e-16
7.30872e-16
5.84955e-17
0
4.82736e-16
4.86286e-16
2.75508e-16
-1.46114e-16
5.78505e-17
5.78526e-17
0
2.29974e-16
5.4706e-16
4.22777e-16
5.70406e-17
0
-1.01231e-15
6.13628e-16
-8.37718e-21
1.45957e-20
2.33316e-16
0
-5.7059e-16
0
-3.33187e-17
6.10068e-17
1.28063e-16
2.00716e-16
2.79169e-16
4.24125e-20
6.65521e-16
0
0
-4.94362e-16
5.64119e-16
-5.64112e-16
-1.94089e-16
4.22066e-16
-3.76194e-16
8.69668e-16
4.27302e-16
3.90656e-16
-7.64821e-16
5.30703e-16
-1.58461e-16
3.35859e-16
-2.35796e-16
1.70037e-16
1.6081e-17
-3.22495e-16
3.229e-16
)
;
    }
    left
    {
        type            calculated;
        value           nonuniform List<scalar> 
19
(
-6.45342e-16
-3.09782e-16
3.19214e-16
1.13849e-17
-5.96058e-16
0
-2.70646e-16
-2.66975e-16
-2.53632e-17
-1.44119e-16
-8.83154e-19
-1.4457e-16
6.51572e-16
-1.44341e-16
6.71625e-16
5.81783e-16
3.46668e-16
5.10175e-16
0
)
;
    }
    right
    {
        type            calculated;
        value           nonuniform List<scalar> 
19
(
3.22513e-16
-3.12525e-18
-8.46853e-18
-6.02039e-16
6.13595e-16
-2.92628e-16
2.91435e-16
2.87427e-16
-2.40488e-16
0
0
4.956e-16
-5.05758e-16
-5.23851e-16
5.22275e-16
-5.111e-16
5.54709e-16
-9.41523e-16
0
)
;
    }
    frontAndBackPlanes
    {
        type            empty;
    }
}


// ************************************************************************* //
