/*--------------------------------*- C++ -*----------------------------------*\
  =========                 |
  \\      /  F ield         | OpenFOAM: The Open Source CFD Toolbox
   \\    /   O peration     | Website:  https://openfoam.org
    \\  /    A nd           | Version:  7
     \\/     M anipulation  |
\*---------------------------------------------------------------------------*/
FoamFile
{
    version     2.0;
    format      ascii;
    class       volScalarField;
    location    "0.244";
    object      gradTx;
}
// * * * * * * * * * * * * * * * * * * * * * * * * * * * * * * * * * * * * * //

dimensions      [0 -1 0 1 0 0 0];

internalField   nonuniform List<scalar> 
1596
(
-0.171723
-0.862021
-1.54498
-2.16316
-2.71332
-3.19452
-3.62893
-4.03082
-4.41953
-4.83227
-5.27936
-5.80559
-6.46393
-7.33186
-8.50121
-10.2043
-12.8005
-17.0666
-24.6089
0.0376564
-0.717818
-1.39001
-1.97267
-2.48013
-2.91572
-3.29947
-3.63847
-3.9472
-4.245
-4.53389
-4.83797
-5.16584
-5.53033
-5.92172
-6.32217
-6.63028
-6.63974
-5.91318
0.209262
-0.587234
-1.23793
-1.77916
-2.23873
-2.62561
-2.95707
-3.23776
-3.47733
-3.68616
-3.86271
-4.01963
-4.15359
-4.26208
-4.32755
-4.31949
-4.15673
-3.69734
-2.66338
0.236644
-0.518396
-1.11384
-1.59921
-2.00445
-2.34091
-2.62214
-2.85181
-3.03603
-3.18009
-3.28205
-3.348
-3.37263
-3.35024
-3.26685
-3.09803
-2.79164
-2.2625
-1.34495
0.0699989
-0.542439
-1.04004
-1.45109
-1.79455
-2.07907
-2.31297
-2.49891
-2.64023
-2.73891
-2.79387
-2.80717
-2.77444
-2.69031
-2.54576
-2.32377
-1.99374
-1.50702
-0.768339
-0.276826
-0.67102
-1.03319
-1.35153
-1.6252
-1.85536
-2.0438
-2.1913
-2.29865
-2.36539
-2.39126
-2.37568
-2.31553
-2.20636
-2.04295
-1.81361
-1.50131
-1.07869
-0.491806
-0.738628
-0.893767
-1.09994
-1.31176
-1.50823
-1.68064
-1.8237
-1.93531
-2.01372
-2.05639
-2.06335
-2.03217
-1.96056
-1.84474
-1.68185
-1.46358
-1.18082
-0.81818
-0.34527
-1.22295
-1.1692
-1.22312
-1.32525
-1.44144
-1.55411
-1.65164
-1.72853
-1.78052
-1.80326
-1.79647
-1.7564
-1.68111
-1.56718
-1.41296
-1.21223
-0.960291
-0.648427
-0.259565
-1.72465
-1.52221
-1.44031
-1.43181
-1.4615
-1.5072
-1.55306
-1.59036
-1.61256
-1.61362
-1.59236
-1.54406
-1.46657
-1.35647
-1.21247
-1.02947
-0.804961
-0.53376
-0.206017
-2.0262
-1.76847
-1.60595
-1.51786
-1.47896
-1.46855
-1.47001
-1.47282
-1.469
-1.45146
-1.4181
-1.36365
-1.28571
-1.18086
-1.04789
-0.882515
-0.68334
-0.447258
-0.1685
-2.2719
-1.99035
-1.77908
-1.63194
-1.53513
-1.47309
-1.4313
-1.39909
-1.36799
-1.33044
-1.28344
-1.22151
-1.14181
-1.04084
-0.917194
-0.767002
-0.589252
-0.38189
-0.141444
-2.52198
-2.23771
-1.99591
-1.80232
-1.65346
-1.54048
-1.45289
-1.38156
-1.31852
-1.25631
-1.19136
-1.11803
-1.03307
-0.932712
-0.81516
-0.676646
-0.516069
-0.331739
-0.121266
-2.58961
-2.34313
-2.10678
-1.89835
-1.7233
-1.5794
-1.46079
-1.3609
-1.27331
-1.19136
-1.11158
-1.02859
-0.939038
-0.839171
-0.726954
-0.598778
-0.453415
-0.289341
-0.104706
-2.60539
-2.40034
-2.1836
-1.97553
-1.78743
-1.62276
-1.48025
-1.35644
-1.24699
-1.1466
-1.05228
-0.959217
-0.864123
-0.763353
-0.654693
-0.53464
-0.401756
-0.254518
-0.0913076
-2.59941
-2.43201
-2.23959
-2.04055
-1.84839
-1.67063
-1.50993
-1.36608
-1.23708
-1.11934
-1.01074
-0.9072
-0.805673
-0.702694
-0.59594
-0.481977
-0.359137
-0.225785
-0.0803232
-2.5343
-2.40736
-2.24459
-2.06343
-1.87768
-1.6971
-1.52724
-1.37067
-1.22776
-1.09676
-0.976656
-0.864324
-0.757162
-0.652016
-0.546588
-0.437567
-0.323127
-0.201527
-0.0711004
-2.40786
-2.31937
-2.18915
-2.03241
-1.86205
-1.68855
-1.5191
-1.35838
-1.20874
-1.07017
-0.942924
-0.824913
-0.714143
-0.6079
-0.504045
-0.399475
-0.292324
-0.180829
-0.0632816
-2.25947
-2.19553
-2.09393
-1.96269
-1.81187
-1.65133
-1.48886
-1.3304
-1.17984
-1.03865
-0.908259
-0.787616
-0.675382
-0.569333
-0.467539
-0.367134
-0.266301
-0.163366
-0.0566959
-2.13492
-2.09081
-2.01116
-1.90058
-1.76643
-1.61746
-1.46168
-1.30587
-1.15515
-1.01227
-0.879642
-0.757158
-0.64404
-0.538452
-0.438572
-0.34163
-0.245793
-0.149514
-0.0513908
-1.91879
-1.90077
-1.84656
-1.76155
-1.65133
-1.5231
-1.38412
-1.2412
-1.10002
-0.964123
-0.836715
-0.718506
-0.609311
-0.507762
-0.412212
-0.319978
-0.229168
-0.138445
-0.0470499
-1.67984
-1.6824
-1.65112
-1.59035
-1.50436
-1.39889
-1.28018
-1.15461
-1.02787
-0.903932
-0.786404
-0.676602
-0.574818
-0.480116
-0.391003
-0.30473
-0.218987
-0.132189
-0.0443593
-1.43084
-1.44671
-1.43445
-1.39574
-1.33326
-1.25126
-1.1549
-1.04979
-0.94137
-0.833611
-0.730167
-0.632678
-0.541737
-0.456809
-0.376626
-0.298358
-0.218812
-0.13484
-0.0454577
-1.15498
-1.17745
-1.18063
-1.16291
-1.12481
-1.06878
-0.998641
-0.918925
-0.834411
-0.748703
-0.665055
-0.58512
-0.509532
-0.438158
-0.370236
-0.303332
-0.233568
-0.155039
-0.0601537
-0.843881
-0.831725
-0.804881
-0.763817
-0.711511
-0.652037
-0.590099
-0.529759
-0.474334
-0.425452
-0.383199
-0.346441
-0.313229
-0.281677
-0.250169
-0.2168
-0.17853
-0.129285
-0.0579064
-0.564177
-0.62762
-0.697433
-0.762452
-0.814811
-0.849297
-0.864232
-0.860206
-0.840054
-0.807244
-0.764699
-0.715352
-0.66091
-0.603811
-0.546418
-0.4907
-0.436094
-0.378803
-0.308344
-0.191007
-0.221068
-0.260578
-0.303118
-0.343937
-0.379649
-0.409014
-0.431741
-0.44889
-0.461515
-0.46918
-0.471636
-0.466787
-0.454006
-0.433945
-0.409951
-0.384593
-0.360922
-0.339324
0.182862
0.144974
0.0913206
0.0279935
-0.0393401
-0.106112
-0.169591
-0.22837
-0.282477
-0.332299
-0.376755
-0.414467
-0.441828
-0.456243
-0.456855
-0.447093
-0.430948
-0.4135
-0.396819
0.556225
0.504484
0.431722
0.34491
0.250511
0.153935
0.0588665
-0.0327102
-0.120371
-0.204382
-0.283732
-0.356465
-0.41773
-0.46245
-0.486983
-0.49333
-0.486232
-0.473012
-0.45782
0.894213
0.821052
0.724785
0.613711
0.494622
0.373155
0.253105
0.136291
0.0228641
-0.0880095
-0.196127
-0.299927
-0.394105
-0.471215
-0.523576
-0.549597
-0.55292
-0.543062
-0.527431
1.24545
1.14623
1.02371
0.886632
0.742068
0.595888
0.451869
0.311556
0.174685
0.0396321
-0.0946315
-0.227966
-0.356025
-0.470241
-0.558567
-0.613384
-0.63356
-0.629013
-0.61169
1.51186
1.38261
1.23394
1.07444
0.91113
0.749297
0.59184
0.439346
0.290692
0.143188
-0.00569042
-0.15806
-0.312263
-0.461236
-0.590399
-0.685044
-0.733811
-0.740875
-0.720477
1.76281
1.60773
1.43366
1.25251
1.07176
0.896031
0.727337
0.56543
0.408583
0.253398
0.0962609
-0.0672711
-0.239484
-0.418227
-0.591326
-0.740802
-0.841966
-0.882808
-0.870263
1.99702
1.80836
1.60707
1.40533
1.20969
1.02345
0.847445
0.680549
0.52066
0.364154
0.207171
0.0440535
-0.130913
-0.322368
-0.526613
-0.733115
-0.911741
-1.0292
-1.05213
2.152
1.91245
1.66981
1.43476
1.21193
1.00285
0.807058
0.622735
0.447557
0.278103
0.110793
-0.0597975
-0.240541
-0.440834
-0.667733
-0.92809
-1.21017
-1.4881
-1.71241
2.25184
1.98955
1.74298
1.51871
1.31679
1.13529
0.971176
0.821376
0.683051
0.553482
0.430643
0.312087
0.195031
0.0749846
-0.0546981
-0.207598
-0.397727
-0.641372
-0.945942
2.32893
2.05733
1.81855
1.60978
1.42588
1.26239
1.11502
0.980447
0.856075
0.739728
0.630293
0.526982
0.42937
0.337594
0.252431
0.173496
0.0995934
0.0254481
-0.0592699
2.21281
1.90252
1.64091
1.41751
1.22409
1.05468
0.904247
0.769034
0.646184
0.533252
0.428932
0.332284
0.242702
0.160276
0.0860321
0.0211127
-0.0324728
-0.0725053
-0.0979243
1.94948
1.66554
1.43027
1.23219
1.06284
0.916074
0.786975
0.671877
0.568117
0.473508
0.38686
0.307345
0.234326
0.167595
0.107387
0.0536981
0.00667458
-0.0334861
-0.0670922
1.62496
1.38544
1.18685
1.02037
0.878924
0.757103
0.650619
0.556234
0.471631
0.394908
0.324969
0.261016
0.202331
0.148501
0.0994402
0.0548862
0.0147606
-0.0207877
-0.0519497
1.22676
1.04142
0.889443
0.763305
0.657047
0.566159
0.48717
0.417476
0.355245
0.29898
0.247785
0.201
0.157999
0.118395
0.0820646
0.0487928
0.0185454
-0.00847684
-0.032334
0.774072
0.650385
0.552048
0.471998
0.405386
0.348854
0.299986
0.257027
0.218767
0.184229
0.152815
0.124083
0.0976033
0.0731019
0.0504767
0.0295841
0.0104098
-0.0068757
-0.0222523
0.297612
0.247907
0.209766
0.179128
0.153714
0.132126
0.113429
0.0969675
0.0822959
0.0690526
0.0570068
0.045982
0.0358025
0.0263454
0.0175457
0.00932531
0.00165186
-0.00543105
-0.0119184
-0.297469
-0.247592
-0.209338
-0.178627
-0.15317
-0.131561
-0.112861
-0.0964122
-0.0817645
-0.0685554
-0.0565525
-0.0455779
-0.0354551
-0.0260603
-0.0173273
-0.00917705
-0.00157588
0.00543453
0.0118506
-0.773939
-0.650109
-0.551675
-0.471564
-0.404918
-0.348372
-0.299508
-0.256565
-0.218333
-0.183832
-0.152464
-0.123784
-0.0973629
-0.0729249
-0.0503668
-0.029544
-0.0104409
0.00677423
0.0220831
-1.22663
-1.04116
-0.889082
-0.762876
-0.656575
-0.565664
-0.486668
-0.416982
-0.35477
-0.298533
-0.247374
-0.200633
-0.157679
-0.118126
-0.0818479
-0.0486277
-0.01843
0.00854632
0.0323622
-1.62487
-1.38526
-1.18661
-1.02009
-0.87861
-0.756778
-0.650295
-0.555923
-0.471343
-0.394653
-0.324753
-0.260846
-0.202209
-0.14843
-0.0994186
-0.0549124
-0.0148307
0.0206788
0.0518075
-1.94943
-1.66543
-1.43011
-1.23199
-1.06262
-0.915841
-0.78674
-0.671652
-0.567911
-0.473331
-0.386719
-0.307247
-0.234274
-0.167591
-0.107429
-0.0537803
-0.00678721
0.0333562
0.0669614
-2.21281
-1.90251
-1.64086
-1.41743
-1.22398
-1.05456
-0.904132
-0.768934
-0.64611
-0.533216
-0.428943
-0.332352
-0.242837
-0.160482
-0.0863103
-0.0214514
0.032105
0.0721608
0.0976646
-2.32894
-2.05715
-1.81812
-1.60907
-1.42489
-1.26114
-1.11353
-0.978741
-0.854182
-0.737673
-0.628098
-0.524664
-0.42694
-0.33506
-0.249813
-0.170864
-0.097111
-0.0234658
0.0601746
-2.25225
-1.99065
-1.7448
-1.52123
-1.31998
-1.13909
-0.97556
-0.826289
-0.688454
-0.559347
-0.436965
-0.318892
-0.202394
-0.0830555
0.045684
0.197299
0.38581
0.627697
0.930847
-2.15184
-1.912
-1.66903
-1.43363
-1.21047
-1.00108
-0.805013
-0.620457
-0.445087
-0.275486
-0.108074
0.0625689
0.243312
0.443563
0.670434
0.930912
1.21352
1.49266
1.71912
-1.99717
-1.8087
-1.60758
-1.40597
-1.21044
-1.02428
-0.848326
-0.681474
-0.521623
-0.365154
-0.208216
-0.0451528
0.129761
0.321204
0.525553
0.73238
0.911595
1.0298
1.05326
-1.7629
-1.60795
-1.43398
-1.25292
-1.07223
-0.896543
-0.727884
-0.566005
-0.409183
-0.254023
-0.0969099
0.0666079
0.238841
0.417684
0.591009
0.740856
0.842462
0.883674
0.871319
-1.51195
-1.38283
-1.23426
-1.07485
-0.911608
-0.749823
-0.592398
-0.439924
-0.291281
-0.143779
0.00511187
0.15752
0.311812
0.46095
0.590363
0.68531
0.734349
0.741583
0.721233
-1.24554
-1.14644
-1.02404
-0.887051
-0.742559
-0.596431
-0.452441
-0.31214
-0.175264
-0.0401891
0.0941184
0.22753
0.355715
0.470112
0.558657
0.613691
0.634029
0.629569
0.612279
-0.894289
-0.821246
-0.72509
-0.614109
-0.495091
-0.373671
-0.253643
-0.136831
-0.0233845
0.0875295
0.195713
0.29961
0.393921
0.471197
0.52373
0.5499
0.553325
0.543523
0.527923
-0.556307
-0.504686
-0.432039
-0.345323
-0.250995
-0.154464
-0.0594109
0.0321764
0.119872
0.203943
0.283376
0.356219
0.417618
0.462484
0.487154
0.493612
0.486588
0.473416
0.458259
-0.182932
-0.145165
-0.0916255
-0.0283939
0.0388711
0.105605
0.169077
0.227878
0.282034
0.331928
0.376477
0.4143
0.441784
0.456323
0.457043
0.447366
0.431283
0.413883
0.397248
0.190844
0.220577
0.259741
0.301955
0.342502
0.378017
0.407274
0.429979
0.447186
0.459938
0.467779
0.470448
0.465824
0.453263
0.433398
0.409577
0.384381
0.360899
0.339584
0.56429
0.628055
0.698272
0.763726
0.816507
0.851361
0.866581
0.862743
0.84268
0.809869
0.767248
0.717774
0.663169
0.605897
0.548336
0.492471
0.437738
0.380341
0.30977
0.84376
0.831292
0.804125
0.762767
0.710226
0.650592
0.588575
0.528233
0.47287
0.424101
0.381991
0.345393
0.312343
0.280947
0.249582
0.216342
0.178189
0.129057
0.0578079
1.15505
1.17759
1.18084
1.16318
1.12513
1.06912
0.998972
0.91923
0.834677
0.748922
0.665225
0.585244
0.509616
0.43821
0.370263
0.303341
0.233564
0.155028
0.0601472
1.43086
1.44673
1.43447
1.39577
1.33329
1.25129
1.15492
1.04981
0.941384
0.833616
0.730164
0.632668
0.541723
0.456792
0.376608
0.29834
0.218797
0.134829
0.0454552
1.67985
1.68242
1.65114
1.59037
1.50439
1.39891
1.2802
1.15462
1.02787
0.903932
0.786398
0.676591
0.574805
0.480101
0.390988
0.304717
0.218977
0.132184
0.0443578
1.9188
1.90078
1.84657
1.76156
1.65135
1.52311
1.38413
1.24121
1.10002
0.964118
0.836706
0.718494
0.609298
0.507749
0.4122
0.319968
0.229161
0.138441
0.0470488
2.13493
2.09082
2.01118
1.9006
1.76644
1.61748
1.46169
1.30587
1.15515
1.01226
0.879633
0.757148
0.644029
0.538441
0.438562
0.341623
0.245787
0.149511
0.0513899
2.25947
2.19555
2.09394
1.9627
1.81188
1.65134
1.48886
1.3304
1.17983
1.03865
0.90825
0.787605
0.675371
0.569323
0.46753
0.367127
0.266296
0.163363
0.056695
2.40786
2.31938
2.18916
2.03242
1.86205
1.68855
1.5191
1.35838
1.20873
1.07016
0.942914
0.824903
0.714133
0.607891
0.504037
0.399468
0.292319
0.180826
0.0632809
2.53431
2.40737
2.2446
2.06344
1.87768
1.6971
1.52724
1.37067
1.22776
1.09675
0.976647
0.864314
0.757153
0.652007
0.54658
0.437561
0.323123
0.201524
0.0710999
2.59942
2.43201
2.23959
2.04056
1.8484
1.67063
1.50993
1.36607
1.23707
1.11934
1.01073
0.907191
0.805664
0.702685
0.595933
0.481971
0.359133
0.225783
0.0803229
2.60539
2.40035
2.18361
1.97554
1.78743
1.62276
1.48024
1.35644
1.24698
1.14659
1.05227
0.959208
0.864114
0.763345
0.654686
0.534634
0.401752
0.254517
0.0913077
2.58962
2.34314
2.10679
1.89835
1.72331
1.5794
1.46079
1.3609
1.2733
1.19136
1.11157
1.02859
0.939032
0.839165
0.726949
0.598774
0.453413
0.289341
0.104707
2.52198
2.23771
1.99591
1.80231
1.65345
1.54047
1.45288
1.38154
1.31851
1.2563
1.19135
1.11802
1.03306
0.932705
0.815155
0.676643
0.516068
0.331739
0.121267
2.27191
1.99036
1.77909
1.63195
1.53513
1.47309
1.43129
1.39909
1.36799
1.33043
1.28344
1.2215
1.14181
1.04084
0.917193
0.767002
0.589253
0.381892
0.141445
2.02622
1.76849
1.60596
1.51787
1.47896
1.46854
1.47
1.47282
1.46899
1.45146
1.41809
1.36365
1.28571
1.18086
1.04789
0.882518
0.683344
0.447261
0.168502
1.72467
1.52222
1.44032
1.43181
1.4615
1.5072
1.55306
1.59036
1.61255
1.61361
1.59236
1.54406
1.46658
1.35647
1.21247
1.02948
0.804967
0.533764
0.206018
1.22296
1.1692
1.22312
1.32525
1.44144
1.55411
1.65163
1.72852
1.78052
1.80326
1.79647
1.7564
1.68111
1.56718
1.41297
1.21224
0.960297
0.648431
0.259565
0.738639
0.893774
1.09994
1.31176
1.50823
1.68064
1.8237
1.93531
2.01372
2.05639
2.06335
2.03217
1.96056
1.84475
1.68186
1.46358
1.18082
0.818183
0.34527
0.276834
0.671025
1.0332
1.35153
1.6252
1.85536
2.0438
2.1913
2.29865
2.36539
2.39126
2.37569
2.31554
2.20637
2.04295
1.81361
1.50132
1.07869
0.491805
-0.0699944
0.542444
1.04005
1.45109
1.79455
2.07907
2.31297
2.49891
2.64023
2.73892
2.79387
2.80718
2.77445
2.69031
2.54576
2.32377
1.99374
1.50702
0.768337
-0.236643
0.518399
1.11384
1.59921
2.00445
2.34092
2.62214
2.85181
3.03603
3.18009
3.28205
3.348
3.37263
3.35025
3.26685
3.09803
2.79164
2.2625
1.34494
-0.209264
0.587235
1.23793
1.77916
2.23873
2.62561
2.95707
3.23776
3.47733
3.68616
3.86271
4.01963
4.15359
4.26208
4.32754
4.31949
4.15672
3.69733
2.66338
-0.0376567
0.717818
1.39
1.97267
2.48012
2.91572
3.29947
3.63847
3.94721
4.245
4.53389
4.83797
5.16584
5.53032
5.92171
6.32216
6.63027
6.63973
5.91318
0.171724
0.862022
1.54498
2.16316
2.71332
3.19452
3.62893
4.03082
4.41953
4.83227
5.27936
5.80559
6.46393
7.33185
8.5012
10.2043
12.8005
17.0666
24.6089
)
;

boundaryField
{
    up
    {
        type            calculated;
        value           nonuniform List<scalar> 
84
(
-24.6089
-5.91318
-2.66338
-1.34495
-0.768339
-0.491806
-0.34527
-0.259565
-0.206017
-0.1685
-0.141444
-0.121266
-0.104706
-0.0913076
-0.0803232
-0.0711004
-0.0632816
-0.0566959
-0.0513908
-0.0470499
-0.0443593
-0.0454577
-0.0601537
-0.0579064
-0.264017
-0.317836
-0.375587
-0.434753
-0.501225
-0.58075
-0.681139
-0.810442
-0.95953
-1.69785
-0.979416
-0.0611709
-0.0978157
-0.0669763
-0.0518822
-0.0323119
-0.0222465
-0.011922
0.0118542
0.0220774
0.0323405
0.0517405
0.0668462
0.0975559
0.0620504
0.963884
1.70581
0.96054
0.811361
0.681842
0.581315
0.501705
0.435189
0.376021
0.318229
0.265315
0.0578079
0.0601472
0.0454552
0.0443578
0.0470488
0.0513899
0.056695
0.0632809
0.0710999
0.0803229
0.0913077
0.104707
0.121267
0.141445
0.168502
0.206018
0.259565
0.34527
0.491805
0.768337
1.34494
2.66338
5.91318
24.6089
)
;
    }
    low
    {
        type            calculated;
        value           nonuniform List<scalar> 
84
(
-0.154838
0.0630719
0.250479
0.281648
0.0984159
-0.282106
-0.782269
-1.29651
-1.80987
-2.09606
-2.33272
-2.56992
-2.60813
-2.60552
-2.58776
-2.50601
-2.3656
-2.21366
-2.08072
-1.84937
-1.60353
-1.3539
-1.08063
-0.779226
-0.514059
-0.172989
0.16234
0.505008
0.828018
1.17842
1.45586
1.71624
1.96467
2.13867
2.25395
2.34954
2.25334
1.9941
1.66546
1.25942
0.795892
0.306787
-0.306644
-0.795755
-1.25928
-1.66535
-1.99402
-2.25332
-2.34952
-2.2543
-2.13852
-1.96478
-1.71632
-1.45594
-1.17851
-0.828097
-0.505094
-0.162412
0.172831
0.51417
0.779114
1.08069
1.35391
1.60355
1.84938
2.08073
2.21367
2.36561
2.50602
2.58776
2.60552
2.60814
2.56991
2.33273
2.09608
1.80988
1.29652
0.782282
0.282115
-0.0984114
-0.281648
-0.250483
-0.0630741
0.154838
)
;
    }
    left
    {
        type            calculated;
        value           nonuniform List<scalar> 
19
(
-0.152308
-0.827235
-1.52383
-2.16313
-2.73677
-3.24029
-3.69767
-4.12558
-4.54331
-4.99774
-5.49875
-6.09697
-6.86189
-7.89771
-9.3202
-11.4565
-14.8055
-20.4522
-21.3443
)
;
    }
    right
    {
        type            calculated;
        value           nonuniform List<scalar> 
19
(
0.152309
0.827238
1.52383
2.16313
2.73677
3.24029
3.69768
4.12558
4.54331
4.99774
5.49875
6.09696
6.86188
7.8977
9.32018
11.4565
14.8055
20.4522
21.3443
)
;
    }
    frontAndBackPlanes
    {
        type            empty;
    }
}


// ************************************************************************* //
