/*--------------------------------*- C++ -*----------------------------------*\
  =========                 |
  \\      /  F ield         | OpenFOAM: The Open Source CFD Toolbox
   \\    /   O peration     | Website:  https://openfoam.org
    \\  /    A nd           | Version:  7
     \\/     M anipulation  |
\*---------------------------------------------------------------------------*/
FoamFile
{
    version     2.0;
    format      ascii;
    class       volScalarField;
    location    "0.47";
    object      T;
}
// * * * * * * * * * * * * * * * * * * * * * * * * * * * * * * * * * * * * * //

dimensions      [0 0 0 1 0 0 0];

internalField   nonuniform List<scalar> 
1596
(
4.99006
4.96137
4.93148
4.90221
4.87379
4.84565
4.81708
4.78676
4.75375
4.7159
4.67154
4.61845
4.55114
4.46155
4.33678
4.14748
3.83849
3.29949
2.3095
4.95694
4.86744
4.78133
4.69936
4.62067
4.54349
4.46591
4.38517
4.29904
4.20368
4.09597
3.97216
3.82459
3.64336
3.41561
3.11581
2.70357
2.10875
1.19851
4.91772
4.76709
4.62885
4.50005
4.37787
4.25928
4.14138
4.02067
3.89423
3.75772
3.60768
3.44025
3.24828
3.02318
2.75513
2.42571
2.00864
1.46248
0.709507
4.87903
4.6712
4.48607
4.31637
4.15716
4.00424
3.85398
3.70245
3.54645
3.38161
3.20468
3.01213
2.79794
2.55541
2.27761
1.95195
1.56192
1.08362
0.471817
4.847
4.5899
4.36403
4.15912
3.96856
3.78729
3.61115
3.43598
3.25848
3.07445
2.88089
2.67474
2.45102
2.20456
1.93063
1.62059
1.26408
0.847371
0.343774
4.82567
4.53009
4.27026
4.03538
3.81818
3.61319
3.41593
3.22216
3.02858
2.83117
2.62718
2.41389
2.18711
1.9428
1.67764
1.38558
1.05998
0.692916
0.268237
4.81559
4.49368
4.20709
3.94713
3.70713
3.48179
3.26664
3.0575
2.85111
2.64363
2.4325
2.21524
1.9882
1.74807
1.49243
1.21686
0.916978
0.588184
0.220387
4.81443
4.47785
4.17181
3.89149
3.63201
3.38887
3.15797
2.93539
2.71799
2.50212
2.28535
2.06535
1.83884
1.60297
1.35587
1.09412
0.814719
0.51499
0.188396
4.81986
4.47864
4.15999
3.8638
3.58779
3.32886
3.08368
2.84876
2.62123
2.39764
2.17569
1.95317
1.72701
1.49465
1.2545
1.00381
0.740357
0.462624
0.16618
4.82706
4.48782
4.16253
3.85489
3.5654
3.29272
3.03461
2.78825
2.55116
2.3202
2.09321
1.86806
1.64184
1.41215
1.17755
0.935654
0.68474
0.423931
0.150116
4.83311
4.49873
4.17106
3.85589
3.55594
3.27168
3.00211
2.74527
2.49924
2.26124
2.02933
1.80148
1.5749
1.34727
1.1172
0.882506
0.641731
0.394346
0.138052
4.84044
4.51281
4.18535
3.86532
3.55719
3.26304
2.98315
2.71654
2.46193
2.21702
1.98013
1.74936
1.52202
1.29583
1.06938
0.840566
0.608035
0.371403
0.128837
4.84748
4.52763
4.2021
3.87919
3.56472
3.26215
2.97302
2.69731
2.43451
2.18285
1.94097
1.70714
1.47878
1.25362
1.03018
0.806341
0.580746
0.353015
0.12157
4.85227
4.53942
4.21665
3.89234
3.57312
3.26356
2.96631
2.68232
2.41188
2.1538
1.90711
1.67032
1.44094
1.21672
0.996074
0.776798
0.557443
0.337527
0.11557
4.85647
4.54954
4.22952
3.90448
3.58148
3.2659
2.96134
2.66969
2.39201
2.12775
1.87639
1.63671
1.40635
1.18306
0.965132
0.750234
0.536738
0.323974
0.110433
4.86052
4.5589
4.24132
3.91573
3.58942
3.26839
2.95703
2.65809
2.3734
2.10308
1.8471
1.60453
1.37321
1.1509
0.935746
0.725233
0.517491
0.311573
0.105843
4.8636
4.56645
4.25095
3.92479
3.59543
3.26931
2.95152
2.64557
2.35406
2.07776
1.81718
1.57176
1.33955
1.11836
0.906205
0.700329
0.498554
0.299568
0.101512
4.86599
4.57246
4.25857
3.93169
3.59931
3.26824
2.94417
2.63132
2.333
2.05068
1.78541
1.53707
1.30397
1.08404
0.875159
0.674334
0.478994
0.287354
0.0972115
4.86952
4.57976
4.26723
3.93932
3.60366
3.26742
2.93682
2.61676
2.31125
2.02246
1.75205
1.50037
1.26608
1.04727
0.841794
0.646411
0.458101
0.274469
0.0927802
4.8735
4.58803
4.27688
3.94775
3.60855
3.26683
2.92933
2.60161
2.28838
1.99252
1.71632
1.46067
1.22467
1.00667
0.80461
0.615087
0.43464
0.260111
0.0879593
4.87652
4.59512
4.28532
3.9549
3.61201
3.26457
2.91988
2.58411
2.26266
1.95913
1.67646
1.41616
1.17783
0.960206
0.761449
0.578197
0.4067
0.242992
0.0823347
4.87939
4.60165
4.293
3.96108
3.61422
3.26075
2.90844
2.56408
2.23374
1.92173
1.63172
1.36584
1.12427
0.906223
0.710247
0.533299
0.371733
0.221103
0.0752024
4.88246
4.60818
4.30033
3.96653
3.6153
3.2553
2.89479
2.54114
2.20107
1.8796
1.58113
1.30849
1.06247
0.842814
0.648559
0.477213
0.325827
0.190526
0.0646828
4.88552
4.61432
4.3067
3.97038
3.61415
3.24698
2.87758
2.51386
2.16311
1.83107
1.52289
1.24213
0.99028
0.767588
0.573524
0.406138
0.263514
0.143686
0.0435086
4.89017
4.62603
4.32364
3.99066
3.63578
3.26795
2.89591
2.52769
2.17086
1.8316
1.51571
1.22754
0.969309
0.74186
0.54505
0.377087
0.236378
0.121903
0.0327652
4.89516
4.6405
4.3473
4.02296
3.67576
3.3142
2.94663
2.58074
2.22392
1.88242
1.56231
1.26861
1.00435
0.771141
0.569282
0.397017
0.252267
0.133226
0.0378343
4.89733
4.6478
4.36041
4.04229
3.70132
3.34555
2.98282
2.62031
2.265
1.9229
1.6001
1.30205
1.03252
0.793965
0.5874
0.411282
0.263249
0.140876
0.0412217
4.89665
4.64757
4.36234
4.04781
3.71149
3.3609
3.00326
2.64513
2.29286
1.95193
1.62819
1.32721
1.05333
0.809951
0.59903
0.419556
0.269125
0.144827
0.0430064
4.89395
4.6416
4.35561
4.04267
3.70986
3.36413
3.01199
2.65924
2.31146
1.97343
1.65045
1.34791
1.07045
0.822373
0.606864
0.423893
0.271395
0.146108
0.0436616
4.88931
4.63098
4.34241
4.02993
3.70016
3.3594
3.0134
2.66713
2.32531
1.99188
1.67139
1.3687
1.0884
0.835431
0.614381
0.42678
0.271596
0.145571
0.0435119
4.88335
4.61773
4.32578
4.01346
3.68682
3.3515
3.01245
2.67379
2.33937
2.01225
1.69609
1.39493
1.11281
0.854793
0.626676
0.432022
0.271928
0.144163
0.0428329
4.87789
4.60498
4.30967
3.9977
3.67464
3.34541
3.01417
2.68422
2.35861
2.03954
1.72978
1.43237
1.15031
0.887993
0.651562
0.446396
0.27674
0.143488
0.0417518
4.87217
4.59195
4.29363
3.98269
3.6641
3.342
3.01978
2.69995
2.38486
2.07601
1.77539
1.48509
1.20684
0.94356
0.700306
0.482621
0.297188
0.149718
0.0405108
4.86611
4.57886
4.27837
3.96959
3.65673
3.34311
3.03133
2.72322
2.42055
2.12429
1.83594
1.55694
1.28803
1.03057
0.787484
0.562113
0.35999
0.188729
0.0533916
4.85904
4.56318
4.25887
3.95051
3.64147
3.33428
3.03083
2.73236
2.44021
2.15502
1.87805
1.61052
1.35283
1.10563
0.870306
0.647527
0.438869
0.248011
0.0781698
4.84863
4.53802
4.22392
3.90977
3.59805
3.29053
2.98843
2.69253
2.40379
2.12256
1.84996
1.58712
1.33444
1.09263
0.863162
0.646512
0.443556
0.255999
0.0837893
4.83561
4.50653
4.17939
3.85625
3.53855
3.22727
2.92304
2.62618
2.33734
2.05666
1.78515
1.52396
1.27354
1.03484
0.809752
0.599271
0.405046
0.229593
0.0734261
4.82391
4.47848
4.13999
3.80915
3.48645
3.17217
2.86644
2.5692
2.28088
2.00144
1.73185
1.47328
1.22625
0.991812
0.772003
0.567921
0.381265
0.21451
0.0680599
4.81468
4.45592
4.10806
3.77085
3.44405
3.12738
2.82055
2.52322
2.23562
1.95758
1.69003
1.43412
1.19037
0.959863
0.744624
0.545733
0.364837
0.204345
0.0645744
4.80735
4.43812
4.08297
3.74087
3.41098
3.09259
2.78508
2.48787
2.20105
1.92433
1.65861
1.405
1.16399
0.936626
0.724929
0.529932
0.353241
0.197231
0.0621681
4.80201
4.42525
4.06497
3.71954
3.38762
3.06817
2.76032
2.46334
2.1772
1.90154
1.6372
1.38528
1.14622
0.921051
0.711774
0.519394
0.345504
0.192472
0.0605551
4.79823
4.41702
4.05407
3.70705
3.37427
3.05447
2.74665
2.44997
2.16435
1.8894
1.62593
1.37502
1.13708
0.913138
0.705176
0.514179
0.341725
0.19018
0.0597954
4.79824
4.41704
4.05409
3.70707
3.37429
3.05449
2.74667
2.44999
2.16437
1.88942
1.62595
1.37503
1.13709
0.913149
0.705184
0.514186
0.34173
0.190183
0.0597963
4.80203
4.42529
4.06503
3.7196
3.38769
3.06823
2.76039
2.46341
2.17726
1.9016
1.63726
1.38533
1.14626
0.921087
0.711803
0.519418
0.345521
0.192483
0.0605588
4.80738
4.43819
4.08306
3.74097
3.41109
3.0927
2.78519
2.48797
2.20114
1.92442
1.65869
1.40507
1.16405
0.936676
0.724969
0.529963
0.353263
0.197243
0.0621723
4.81471
4.45601
4.10818
3.77099
3.44419
3.12752
2.82069
2.52335
2.23574
1.95768
1.69012
1.4342
1.19044
0.959918
0.744667
0.545764
0.364858
0.204357
0.064578
4.82395
4.47858
4.14013
3.80931
3.48662
3.17234
2.86661
2.56936
2.28102
2.00156
1.73196
1.47337
1.22632
0.991867
0.772042
0.567947
0.38128
0.214517
0.0680612
4.83566
4.50664
4.17955
3.85643
3.53874
3.22746
2.92322
2.62635
2.3375
2.0568
1.78527
1.52405
1.2736
1.03488
0.809767
0.59927
0.405035
0.229579
0.073418
4.84868
4.53814
4.22409
3.90996
3.59826
3.29074
2.98863
2.69271
2.40395
2.12269
1.85006
1.58718
1.33445
1.0926
0.863097
0.646418
0.44345
0.255909
0.0837475
4.8591
4.56335
4.25915
3.95087
3.64191
3.33479
3.03138
2.73296
2.44085
2.15569
1.87874
1.61123
1.35356
1.10638
0.871069
0.648287
0.439581
0.248575
0.078424
4.86618
4.57907
4.27871
3.97004
3.65729
3.34378
3.03209
2.72406
2.42146
2.12526
1.83696
1.55801
1.28913
1.03169
0.788575
0.563115
0.360816
0.189283
0.0535973
4.87222
4.59212
4.29391
3.98308
3.66458
3.34257
3.02042
2.70066
2.38563
2.07683
1.77624
1.48596
1.2077
0.944387
0.701046
0.483217
0.297593
0.149919
0.0405473
4.87794
4.60514
4.30993
3.99805
3.67509
3.34594
3.01477
2.68488
2.35932
2.04029
1.73054
1.43313
1.15104
0.888651
0.652109
0.4468
0.276993
0.14361
0.0417836
4.88339
4.61786
4.32601
4.01378
3.68724
3.35199
3.01301
2.6744
2.34003
2.01293
1.69677
1.39559
1.11342
0.855326
0.6271
0.432326
0.272119
0.144262
0.0428621
4.88935
4.6311
4.34261
4.03023
3.70054
3.35985
3.01391
2.66769
2.32591
1.9925
1.672
1.36929
1.08893
0.835877
0.614731
0.427032
0.271759
0.145661
0.04354
4.89398
4.6417
4.3558
4.04294
3.7102
3.36454
3.01246
2.65976
2.31201
1.97399
1.651
1.34842
1.07091
0.822758
0.607167
0.424115
0.271543
0.146194
0.0436899
4.89668
4.64766
4.3625
4.04804
3.71179
3.36127
3.00369
2.6456
2.29335
1.95243
1.62868
1.32767
1.05374
0.810291
0.599301
0.41976
0.269268
0.144913
0.0430368
4.89735
4.64787
4.36055
4.04249
3.70159
3.34588
2.9832
2.62073
2.26545
1.92335
1.60054
1.30246
1.03288
0.794274
0.587652
0.411478
0.263393
0.140967
0.0412567
4.89518
4.64056
4.34742
4.02314
3.676
3.31449
2.94697
2.58111
2.22432
1.88282
1.5627
1.26898
1.00468
0.771428
0.569524
0.397215
0.25242
0.13333
0.0378781
4.89017
4.62604
4.32366
3.99069
3.63583
3.26801
2.89598
2.52775
2.17092
1.83166
1.51575
1.22756
0.969311
0.741844
0.545019
0.377047
0.236337
0.12187
0.0327507
4.88551
4.6143
4.30665
3.97032
3.61407
3.24688
2.87747
2.51373
2.16297
1.83093
1.52274
1.24198
0.99013
0.767443
0.573389
0.406019
0.263417
0.143619
0.043481
4.88245
4.60817
4.30031
3.9665
3.61527
3.25526
2.89475
2.5411
2.20103
1.87957
1.5811
1.30846
1.06245
0.8428
0.648552
0.477213
0.325831
0.190531
0.0646854
4.87938
4.60164
4.29298
3.96105
3.6142
3.26072
2.90841
2.56404
2.23371
1.92171
1.6317
1.36582
1.12426
0.906213
0.710242
0.533298
0.371734
0.221104
0.075203
4.87652
4.59511
4.28531
3.95488
3.61198
3.26455
2.91985
2.58408
2.26264
1.9591
1.67644
1.41615
1.17782
0.960198
0.761444
0.578195
0.4067
0.242993
0.0823347
4.87349
4.58802
4.27687
3.94774
3.60854
3.26681
2.92931
2.60159
2.28836
1.9925
1.7163
1.46065
1.22466
1.00666
0.804606
0.615085
0.434639
0.26011
0.087959
4.86952
4.57975
4.26722
3.93931
3.60365
3.26741
2.93681
2.61675
2.31124
2.02245
1.75204
1.50036
1.26607
1.04726
0.841791
0.646409
0.4581
0.274468
0.0927799
4.86599
4.57245
4.25857
3.93168
3.5993
3.26823
2.94416
2.63131
2.33299
2.05067
1.7854
1.53706
1.30397
1.08403
0.875156
0.674332
0.478993
0.287354
0.0972112
4.8636
4.56645
4.25095
3.92479
3.59543
3.2693
2.95151
2.64556
2.35405
2.07776
1.81717
1.57176
1.33955
1.11836
0.906203
0.700328
0.498553
0.299567
0.101512
4.86052
4.5589
4.24132
3.91572
3.58942
3.26838
2.95702
2.65808
2.3734
2.10308
1.84709
1.60453
1.37321
1.15089
0.935745
0.725232
0.51749
0.311572
0.105843
4.85647
4.54954
4.22952
3.90448
3.58148
3.2659
2.96134
2.66969
2.392
2.12775
1.87639
1.63671
1.40634
1.18306
0.965131
0.750233
0.536738
0.323974
0.110433
4.85227
4.53941
4.21665
3.89234
3.57312
3.26356
2.9663
2.68232
2.41188
2.1538
1.90711
1.67032
1.44094
1.21672
0.996074
0.776798
0.557443
0.337527
0.11557
4.84748
4.52763
4.2021
3.87919
3.56472
3.26215
2.97302
2.69731
2.43451
2.18285
1.94097
1.70714
1.47878
1.25362
1.03018
0.806341
0.580746
0.353015
0.121571
4.84044
4.51281
4.18535
3.86532
3.55719
3.26304
2.98315
2.71654
2.46193
2.21702
1.98013
1.74936
1.52202
1.29583
1.06938
0.840567
0.608035
0.371404
0.128838
4.83311
4.49873
4.17106
3.85589
3.55594
3.27168
3.00211
2.74527
2.49924
2.26124
2.02933
1.80148
1.5749
1.34727
1.1172
0.882507
0.641732
0.394347
0.138052
4.82706
4.48782
4.16253
3.85489
3.5654
3.29272
3.03461
2.78825
2.55116
2.3202
2.09321
1.86806
1.64184
1.41215
1.17755
0.935656
0.684742
0.423932
0.150117
4.81986
4.47864
4.15999
3.8638
3.58779
3.32886
3.08368
2.84876
2.62123
2.39764
2.17569
1.95317
1.72701
1.49465
1.2545
1.00381
0.740359
0.462625
0.166181
4.81443
4.47785
4.1718
3.89149
3.63201
3.38887
3.15797
2.93539
2.71799
2.50211
2.28535
2.06535
1.83884
1.60297
1.35587
1.09412
0.81472
0.514991
0.188396
4.81559
4.49367
4.20708
3.94713
3.70713
3.48179
3.26664
3.0575
2.85111
2.64363
2.4325
2.21524
1.9882
1.74807
1.49243
1.21686
0.916979
0.588185
0.220387
4.82567
4.53009
4.27026
4.03538
3.81818
3.61319
3.41592
3.22216
3.02858
2.83116
2.62717
2.41389
2.18711
1.9428
1.67764
1.38558
1.05998
0.692916
0.268237
4.847
4.5899
4.36403
4.15911
3.96856
3.78729
3.61115
3.43598
3.25848
3.07444
2.88089
2.67474
2.45102
2.20456
1.93063
1.62059
1.26408
0.847371
0.343774
4.87903
4.6712
4.48607
4.31637
4.15716
4.00424
3.85398
3.70245
3.54644
3.38161
3.20467
3.01213
2.79794
2.5554
2.27761
1.95195
1.56192
1.08362
0.471817
4.91772
4.76709
4.62885
4.50005
4.37787
4.25927
4.14138
4.02067
3.89423
3.75771
3.60768
3.44025
3.24828
3.02318
2.75513
2.42571
2.00864
1.46248
0.709507
4.95694
4.86744
4.78133
4.69936
4.62067
4.54349
4.4659
4.38517
4.29904
4.20368
4.09596
3.97215
3.82459
3.64336
3.41561
3.11581
2.70356
2.10875
1.1985
4.99006
4.96137
4.93148
4.90221
4.87379
4.84565
4.81708
4.78676
4.75375
4.7159
4.67154
4.61845
4.55114
4.46155
4.33678
4.14748
3.83849
3.29949
2.3095
)
;

boundaryField
{
    up
    {
        type            fixedValue;
        value           uniform 0;
    }
    low
    {
        type            fixedValue;
        value           uniform 5;
    }
    left
    {
        type            fixedValue;
        value           uniform 5;
    }
    right
    {
        type            fixedValue;
        value           uniform 5;
    }
    frontAndBackPlanes
    {
        type            empty;
    }
}


// ************************************************************************* //
