/*--------------------------------*- C++ -*----------------------------------*\
  =========                 |
  \\      /  F ield         | OpenFOAM: The Open Source CFD Toolbox
   \\    /   O peration     | Website:  https://openfoam.org
    \\  /    A nd           | Version:  7
     \\/     M anipulation  |
\*---------------------------------------------------------------------------*/
FoamFile
{
    version     2.0;
    format      ascii;
    class       volScalarField;
    location    "0.01";
    object      gradTy;
}
// * * * * * * * * * * * * * * * * * * * * * * * * * * * * * * * * * * * * * //

dimensions      [0 -1 0 1 0 0 0];

internalField   nonuniform List<scalar> 
1596
(
-9.42423
-12.792
-12.7966
-12.6318
-12.7594
-13.303
-13.8842
-14.6266
-15.4631
-16.275
-17.3826
-18.4457
-19.6213
-20.8947
-22.7613
-25.6508
-32.5106
-48.0649
-111.417
-22.013
-17.7802
-12.3276
-9.50239
-8.54319
-8.53214
-8.76597
-9.15942
-9.64292
-10.1093
-10.7852
-11.4805
-12.2824
-13.1322
-14.2962
-15.7038
-18.6471
-24.6449
-46.0636
-29.4014
-19.2764
-10.4501
-6.05097
-4.43602
-4.05076
-4.0405
-4.18053
-4.39044
-4.60127
-4.92863
-5.29231
-5.73896
-6.23701
-6.92837
-7.72323
-9.31056
-12.6724
-22.7725
-33.0065
-20.0361
-9.52855
-4.25779
-2.25493
-1.65777
-1.52284
-1.53897
-1.60914
-1.68754
-1.81767
-1.9715
-2.17049
-2.4038
-2.7346
-3.10836
-3.83123
-5.48443
-10.2932
-34.6382
-20.879
-9.60892
-3.77675
-1.48015
-0.73827
-0.534575
-0.497073
-0.509484
-0.532806
-0.576351
-0.63055
-0.703612
-0.79282
-0.922056
-1.06525
-1.33142
-2.00859
-4.14329
-35.201
-21.7633
-10.2134
-3.94157
-1.36057
-0.482576
-0.224034
-0.15889
-0.148895
-0.152412
-0.164567
-0.180881
-0.203751
-0.232627
-0.275425
-0.321375
-0.400126
-0.62834
-1.47535
-35.0607
-22.5225
-11.005
-4.37129
-1.49638
-0.46978
-0.152855
-0.0658144
-0.0451823
-0.0417203
-0.0439299
-0.0480868
-0.0543353
-0.0624892
-0.0749199
-0.0877533
-0.106361
-0.169214
-0.465592
-34.4191
-23.0189
-11.774
-4.88086
-1.72399
-0.53958
-0.157545
-0.0475971
-0.0190144
-0.0123235
-0.0114818
-0.0121778
-0.0136529
-0.0156957
-0.0189418
-0.022187
-0.0256004
-0.0394231
-0.130857
-33.4905
-23.3257
-12.4948
-5.42525
-1.99913
-0.646197
-0.189318
-0.0521607
-0.0148247
-0.00543685
-0.00335013
-0.00306729
-0.00330127
-0.00374615
-0.00451699
-0.00528509
-0.0057253
-0.00796254
-0.0329368
-32.3309
-23.2034
-12.8882
-5.81673
-2.22682
-0.745866
-0.224804
-0.062299
-0.0164175
-0.0044402
-0.00152783
-0.000885784
-0.000801101
-0.000863897
-0.00102665
-0.00119949
-0.00122427
-0.00139701
-0.00746663
-31.3508
-22.8614
-13.0013
-6.03026
-2.3754
-0.818577
-0.253382
-0.0717533
-0.0189798
-0.0048182
-0.00125549
-0.000410646
-0.000226526
-0.000200266
-0.000224658
-0.000260381
-0.000255788
-0.000214581
-0.00153554
-30.4071
-22.4915
-13.0164
-6.16149
-2.48031
-0.873811
-0.276326
-0.079822
-0.021447
-0.00544947
-0.00133987
-0.00034004
-0.000106548
-5.55365e-05
-4.95889e-05
-5.45839e-05
-5.28836e-05
-2.98142e-05
-0.000288313
-29.4119
-21.9202
-12.7908
-6.11978
-2.49468
-0.891191
-0.285855
-0.0837457
-0.022797
-0.00584942
-0.00143496
-0.000345443
-8.59488e-05
-2.60473e-05
-1.32662e-05
-1.15643e-05
-1.08872e-05
-4.17838e-06
-4.98747e-05
-28.6751
-21.2724
-12.3645
-5.90915
-2.41284
-0.865551
-0.279204
-0.0823437
-0.022572
-0.005829
-0.00143607
-0.000343589
-8.12842e-05
-1.99711e-05
-5.98185e-06
-2.97875e-06
-2.31835e-06
-7.25923e-07
-8.06048e-06
-28.0894
-20.6328
-11.8398
-5.59591
-2.26605
-0.808554
-0.260003
-0.0765755
-0.0209847
-0.00541982
-0.00133551
-0.000318928
-7.46303e-05
-1.74376e-05
-4.26944e-06
-1.27601e-06
-6.06031e-07
-1.86401e-07
-1.24232e-06
-27.5902
-19.9849
-11.2376
-5.20672
-2.07213
-0.728869
-0.231664
-0.0675927
-0.0183803
-0.0047154
-0.00115506
-0.000274158
-6.36608e-05
-1.46396e-05
-3.39987e-06
-8.35463e-07
-2.50963e-07
-7.32596e-08
-1.92776e-07
-27.2576
-19.3155
-10.5443
-4.74261
-1.83719
-0.631299
-0.196667
-0.0564072
-0.0151124
-0.00382597
-0.000926053
-0.000217313
-4.98959e-05
-1.13289e-05
-2.57798e-06
-5.99016e-07
-1.4896e-07
-3.93135e-08
-3.55997e-08
-27.0903
-18.6568
-9.80399
-4.24035
-1.58356
-0.526625
-0.159414
-0.044592
-0.0116869
-0.00290102
-0.000689742
-0.000159172
-3.59679e-05
-8.0386e-06
-1.79832e-06
-4.07659e-07
-9.53414e-08
-2.35475e-08
-1.02919e-08
-26.951
-18.0654
-9.11409
-3.77281
-1.34979
-0.431242
-0.125856
-0.034067
-0.00866852
-0.00209491
-0.000486004
-0.000109604
-2.4232e-05
-5.30242e-06
-1.16165e-06
-2.5751e-07
-5.83924e-08
-1.38642e-08
-4.51976e-09
-26.8714
-17.4584
-8.4073
-3.31118
-1.12805
-0.344029
-0.0961477
-0.0250103
-0.00613686
-0.00143462
-0.000322815
-7.07578e-05
-1.52294e-05
-3.24813e-06
-6.9416e-07
-1.50132e-07
-3.31624e-08
-7.64051e-09
-2.25479e-09
-27.0022
-16.8496
-7.67068
-2.84853
-0.916902
-0.265128
-0.0705182
-0.0175241
-0.00412295
-0.000927323
-0.000201386
-4.27117e-05
-8.9145e-06
-1.84686e-06
-3.83906e-07
-8.08316e-08
-1.73868e-08
-3.89578e-09
-1.09692e-09
-27.2508
-16.2829
-6.95557
-2.41292
-0.727102
-0.197715
-0.0497003
-0.0117284
-0.00263168
-0.000566747
-0.000118265
-2.41753e-05
-4.87628e-06
-9.78513e-07
-1.97374e-07
-4.03827e-08
-8.44947e-09
-1.84145e-09
-5.00891e-10
-27.5427
-15.7787
-6.29753
-2.02273
-0.56425
-0.142678
-0.033565
-0.00746164
-0.00158673
-0.000325547
-6.50159e-05
-1.27691e-05
-2.48303e-06
-4.81756e-07
-9.41874e-08
-1.87163e-08
-3.80992e-09
-8.08404e-10
-2.13349e-10
-27.8146
-15.3647
-5.72667
-1.68572
-0.42709
-0.0979953
-0.0210312
-0.00430192
-0.000849768
-0.000163391
-3.08027e-05
-5.74503e-06
-1.0657e-06
-1.9791e-07
-3.71235e-08
-7.09386e-09
-1.39054e-09
-2.84999e-10
-7.21493e-11
-28.1551
-15.4307
-5.60655
-1.58828
-0.383462
-0.0833784
-0.0169848
-0.00332703
-0.000639029
-0.000121715
-2.31458e-05
-4.42662e-06
-8.52135e-07
-1.65553e-07
-3.25966e-08
-6.54838e-09
-1.34431e-09
-2.88998e-10
-7.47994e-11
-28.4323
-15.8394
-5.82959
-1.66282
-0.400158
-0.0855439
-0.0168833
-0.00316813
-0.00058142
-0.000106892
-2.00721e-05
-3.90793e-06
-7.89998e-07
-1.65351e-07
-3.56872e-08
-7.9352e-09
-1.81156e-09
-4.34922e-10
-1.30709e-10
-28.5083
-16.344
-6.24601
-1.85288
-0.461747
-0.101098
-0.0200534
-0.00367954
-0.000638327
-0.000107395
-1.81691e-05
-3.25352e-06
-6.42862e-07
-1.42245e-07
-3.45771e-08
-8.96763e-09
-2.42695e-09
-7.02111e-10
-2.8321e-10
-28.3928
-16.9242
-6.87769
-2.19104
-0.588346
-0.138505
-0.0292906
-0.0056314
-0.000992114
-0.000160755
-2.40757e-05
-3.43124e-06
-5.07659e-07
-9.54411e-08
-2.5966e-08
-8.83665e-09
-3.20563e-09
-1.24758e-09
-7.71364e-10
-28.1867
-17.6029
-7.71762
-2.68717
-0.79336
-0.205787
-0.0479312
-0.0101217
-0.00194591
-0.000339056
-5.26021e-05
-7.02151e-06
-7.31067e-07
-4.68681e-08
-4.4255e-09
-5.32748e-09
-4.04643e-09
-2.56116e-09
-2.64911e-09
-28.0406
-18.3516
-8.70008
-3.31773
-1.07881
-0.309025
-0.0796381
-0.0186519
-0.00399177
-0.000778761
-0.000136356
-2.07084e-05
-2.41338e-06
-1.04848e-07
4.28368e-08
1.2138e-08
-1.85676e-09
-4.96798e-09
-9.58681e-09
-28.1468
-19.2067
-9.79361
-4.0682
-1.44929
-0.456334
-0.129653
-0.0336117
-0.00801082
-0.00175726
-0.000351434
-6.27708e-05
-9.24572e-06
-8.0445e-07
1.15064e-07
8.30591e-08
2.42693e-08
-1.70887e-09
-2.89651e-08
-28.2897
-20.1661
-11.0334
-4.97309
-1.93256
-0.666102
-0.207934
-0.0595242
-0.0157783
-0.00389058
-0.000889022
-0.000186691
-3.44309e-05
-4.82168e-06
-9.1527e-08
2.96545e-07
1.70439e-07
6.79773e-08
-3.80254e-08
-28.6189
-21.2242
-12.3789
-6.01481
-2.53535
-0.952545
-0.325814
-0.102852
-0.0303152
-0.00840617
-0.00219489
-0.000540154
-0.000122419
-2.39463e-05
-2.95774e-06
5.87409e-07
7.95573e-07
5.73201e-07
3.81368e-07
-29.2627
-22.4292
-13.8364
-7.19975
-3.27719
-1.33934
-0.502118
-0.175276
-0.0577579
-0.0181661
-0.00549371
-0.0016163
-0.000463314
-0.000129407
-3.47121e-05
-8.65785e-06
-1.60855e-06
2.47219e-07
9.49175e-07
-30.0515
-23.6015
-15.2129
-8.3731
-4.06636
-1.78603
-0.724313
-0.275347
-0.0995233
-0.0346141
-0.0117005
-0.00389825
-0.00129033
-0.000428769
-0.000144382
-5.0069e-05
-1.80947e-05
-7.18246e-06
-3.22166e-06
-31.0352
-24.627
-16.2552
-9.23826
-4.65888
-2.13477
-0.906775
-0.362489
-0.138334
-0.0510036
-0.0183648
-0.0065483
-0.00233292
-0.000839652
-0.00030883
-0.000117976
-4.77124e-05
-2.18871e-05
-1.30355e-05
-32.3543
-25.6647
-17.0795
-9.83491
-5.04285
-2.35678
-1.02414
-0.420173
-0.165123
-0.0629132
-0.0235021
-0.00873049
-0.00325496
-0.00123176
-0.000479032
-0.0001947
-8.46131e-05
-4.2189e-05
-2.71577e-05
-33.5955
-26.6078
-17.8003
-10.3549
-5.38574
-2.56251
-1.13748
-0.478199
-0.193153
-0.0758583
-0.0292961
-0.0112844
-0.00437558
-0.00172749
-0.000703415
-0.000300595
-0.000138284
-7.35662e-05
-5.0339e-05
-34.5605
-27.3998
-18.4307
-10.8212
-5.6991
-2.7538
-1.24475
-0.534203
-0.220802
-0.0889416
-0.0353129
-0.0140167
-0.00561431
-0.00229526
-0.000970588
-0.000432204
-0.000208359
-0.00011684
-8.38732e-05
-35.3315
-28.0301
-18.9301
-11.1911
-5.94965
-2.90867
-1.33301
-0.581154
-0.24448
-0.10041
-0.0407224
-0.0165413
-0.00679281
-0.00285253
-0.00124181
-0.000570807
-0.000285314
-0.000166571
-0.000123909
-35.8959
-28.4777
-19.2741
-11.4422
-6.11962
-3.0146
-1.39418
-0.614228
-0.261466
-0.1088
-0.0447642
-0.0184701
-0.00771462
-0.00329938
-0.00146515
-0.000688299
-0.000352728
-0.000211682
-0.000161227
-36.2984
-28.7176
-19.4297
-11.5491
-6.19225
-3.06123
-1.42209
-0.629864
-0.269761
-0.113021
-0.0468538
-0.0194929
-0.00821534
-0.00354776
-0.00159217
-0.000756693
-0.000392968
-0.000239316
-0.000184574
-36.2985
-28.7182
-19.4305
-11.5499
-6.1928
-3.06158
-1.42229
-0.629966
-0.269812
-0.113045
-0.0468648
-0.019498
-0.00821768
-0.00354887
-0.0015927
-0.000756968
-0.000393121
-0.000239415
-0.000184657
-35.8962
-28.4791
-19.2762
-11.4443
-6.12118
-3.0156
-1.39474
-0.614523
-0.26161
-0.108868
-0.0447957
-0.0184845
-0.00772124
-0.00330247
-0.00146664
-0.000689056
-0.000353146
-0.000211952
-0.000161449
-35.332
-28.0323
-18.9335
-11.1944
-5.95211
-2.91022
-1.33388
-0.581607
-0.2447
-0.100512
-0.040769
-0.0165623
-0.00680229
-0.00285688
-0.00124386
-0.000571829
-0.000285865
-0.000166918
-0.000124189
-34.5612
-27.4029
-18.4352
-10.8255
-5.7023
-2.7558
-1.24587
-0.53477
-0.221073
-0.0890659
-0.0353682
-0.0140411
-0.00562504
-0.00230004
-0.000972783
-0.00043326
-0.000208908
-0.000117171
-8.41311e-05
-33.5963
-26.6115
-17.8058
-10.3601
-5.38956
-2.56486
-1.13876
-0.478839
-0.193453
-0.0759925
-0.0293543
-0.0113092
-0.00438616
-0.00173205
-0.000705424
-0.000301522
-0.000138745
-7.38315e-05
-5.05365e-05
-32.3552
-25.669
-17.0858
-9.84087
-5.04712
-2.35936
-1.02551
-0.420838
-0.165425
-0.0630436
-0.0235564
-0.00875267
-0.00326399
-0.00123548
-0.000480603
-0.000195396
-8.49454e-05
-4.23736e-05
-2.72925e-05
-31.0363
-24.6323
-16.2628
-9.24524
-4.66377
-2.13763
-0.908246
-0.363175
-0.138631
-0.0511256
-0.0184131
-0.00656717
-0.00234032
-0.000842616
-0.000310063
-0.000118517
-4.79688e-05
-2.20287e-05
-1.31439e-05
-30.0523
-23.6068
-15.2217
-8.38169
-4.0726
-1.78975
-0.726229
-0.276229
-0.099897
-0.0347628
-0.0117573
-0.00391953
-0.00129828
-0.000431776
-0.000145544
-5.05303e-05
-1.8284e-05
-7.26729e-06
-3.2746e-06
-29.2644
-22.4372
-13.8475
-7.20932
-3.2835
-1.34279
-0.503754
-0.175975
-0.0580336
-0.0182691
-0.00553079
-0.00162942
-0.000467902
-0.000130985
-3.52312e-05
-8.80777e-06
-1.62941e-06
2.79963e-07
1.02999e-06
-28.6202
-21.231
-12.3881
-6.02222
-2.53986
-0.954786
-0.326776
-0.103221
-0.0304444
-0.00844851
-0.00220795
-0.000543927
-0.000123378
-2.41102e-05
-2.92662e-06
6.47795e-07
8.48172e-07
6.19765e-07
4.41887e-07
-28.291
-20.1728
-11.0417
-4.97932
-1.93603
-0.667683
-0.208552
-0.0597382
-0.0158458
-0.00391033
-0.00089434
-0.00018797
-3.46705e-05
-4.83236e-06
-7.07678e-08
3.11774e-07
1.78945e-07
7.14836e-08
-4.38676e-08
-28.1482
-19.2132
-9.80106
-4.07331
-1.45189
-0.45741
-0.130034
-0.0337311
-0.00804476
-0.00176608
-0.000353486
-6.31731e-05
-9.29734e-06
-8.02074e-07
1.1707e-07
8.09743e-08
2.12477e-08
-5.52116e-09
-4.11177e-08
-28.042
-18.3578
-8.70664
-3.32182
-1.0807
-0.309735
-0.0798658
-0.0187165
-0.00400832
-0.000782571
-0.000137113
-2.08227e-05
-2.42036e-06
-1.03761e-07
4.08844e-08
8.94552e-09
-4.49743e-09
-7.21881e-09
-1.53536e-08
-28.188
-17.6087
-7.72319
-2.69033
-0.79468
-0.206233
-0.0480608
-0.010155
-0.00195359
-0.000340603
-5.28524e-05
-7.04482e-06
-7.29138e-07
-4.68954e-08
-6.1976e-09
-7.19327e-09
-5.35023e-09
-3.47769e-09
-4.62597e-09
-28.3942
-16.9294
-6.88225
-2.19338
-0.589228
-0.138774
-0.0293614
-0.00564784
-0.000995469
-0.000161321
-2.41378e-05
-3.42897e-06
-5.05167e-07
-9.58387e-08
-2.70687e-08
-9.74316e-09
-3.75971e-09
-1.58249e-09
-1.36042e-09
-28.5095
-16.3485
-6.24958
-1.85455
-0.462322
-0.101259
-0.020092
-0.00368763
-0.000639745
-0.000107573
-1.81718e-05
-3.24756e-06
-6.41622e-07
-1.42791e-07
-3.52369e-08
-9.39739e-09
-2.65493e-09
-8.21487e-10
-4.4888e-10
-28.4334
-15.8429
-5.83223
-1.66399
-0.400536
-0.0856439
-0.0169056
-0.00317226
-0.000581986
-0.000106918
-2.00574e-05
-3.90237e-06
-7.89295e-07
-1.65701e-07
-3.6013e-08
-8.11595e-09
-1.89608e-09
-4.73861e-10
-1.74767e-10
-28.1552
-15.4315
-5.60712
-1.5885
-0.383521
-0.0833903
-0.0169859
-0.00332656
-0.000638698
-0.000121589
-2.31087e-05
-4.41772e-06
-8.50447e-07
-1.65365e-07
-3.26303e-08
-6.58484e-09
-1.36307e-09
-2.97549e-10
-8.49174e-11
-27.8138
-15.3636
-5.72576
-1.68524
-0.426902
-0.0979352
-0.0210139
-0.00429715
-0.000848495
-0.000163059
-3.07186e-05
-5.72429e-06
-1.06073e-06
-1.96748e-07
-3.68558e-08
-7.03301e-09
-1.37671e-09
-2.8173e-10
-7.2077e-11
-27.5427
-15.7787
-6.29756
-2.02275
-0.564263
-0.142685
-0.0335676
-0.00746226
-0.00158676
-0.000325495
-6.49824e-05
-1.27554e-05
-2.47844e-06
-4.80385e-07
-9.38066e-08
-1.8615e-08
-3.78358e-09
-8.01507e-10
-2.11193e-10
-27.2508
-16.2829
-6.95558
-2.41292
-0.727098
-0.197716
-0.0497022
-0.0117292
-0.00263186
-0.000566739
-0.000118239
-2.41616e-05
-4.87105e-06
-9.76815e-07
-1.96873e-07
-4.02425e-08
-8.41137e-09
-1.83102e-09
-4.97226e-10
-27.0022
-16.8496
-7.67069
-2.84852
-0.916892
-0.265127
-0.0705197
-0.0175252
-0.00412332
-0.000927396
-0.000201387
-4.27053e-05
-8.91105e-06
-1.84555e-06
-3.8348e-07
-8.07045e-08
-1.73503e-08
-3.88514e-09
-1.09249e-09
-26.8714
-17.4585
-8.40732
-3.31118
-1.12804
-0.344026
-0.0961482
-0.0250114
-0.00613743
-0.00143483
-0.000322878
-7.07744e-05
-1.52333e-05
-3.24899e-06
-6.94345e-07
-1.50171e-07
-3.31691e-08
-7.63962e-09
-2.25099e-09
-26.9509
-18.0654
-9.11411
-3.77282
-1.34979
-0.431236
-0.125855
-0.0340677
-0.0086693
-0.00209533
-0.000486181
-0.000109667
-2.42522e-05
-5.30847e-06
-1.1634e-06
-2.57998e-07
-5.85127e-08
-1.38817e-08
-4.51071e-09
-27.0903
-18.6568
-9.80401
-4.24036
-1.58355
-0.526615
-0.159411
-0.0445926
-0.0116881
-0.0029018
-0.000690104
-0.000159311
-3.60157e-05
-8.05371e-06
-1.80288e-06
-4.08962e-07
-9.55865e-08
-2.35072e-08
-1.0231e-08
-27.2575
-19.3155
-10.5444
-4.74263
-1.83718
-0.631286
-0.196662
-0.0564077
-0.0151141
-0.00382716
-0.000926631
-0.000217544
-4.99777e-05
-1.13556e-05
-2.58624e-06
-6.01258e-07
-1.48653e-07
-3.85597e-08
-3.54016e-08
-27.5902
-19.9849
-11.2377
-5.20675
-2.07213
-0.728856
-0.231658
-0.0675927
-0.018382
-0.00471674
-0.00115575
-0.000274445
-6.37654e-05
-1.4675e-05
-3.41133e-06
-8.37275e-07
-2.45073e-07
-6.81091e-08
-1.93591e-07
-28.0893
-20.6328
-11.8399
-5.59594
-2.26606
-0.808545
-0.259998
-0.076575
-0.020986
-0.00542095
-0.00133612
-0.000319189
-7.47287e-05
-1.74741e-05
-4.28317e-06
-1.26932e-06
-5.65689e-07
-1.5997e-07
-1.25929e-06
-28.6751
-21.2724
-12.3645
-5.90918
-2.41285
-0.865549
-0.279202
-0.0823437
-0.0225728
-0.00582962
-0.00143639
-0.000343723
-8.13409e-05
-2.00081e-05
-6.00504e-06
-2.92326e-06
-2.09923e-06
-6.14674e-07
-8.20691e-06
-29.4119
-21.9202
-12.7908
-6.1198
-2.49469
-0.8912
-0.285858
-0.0837463
-0.0227967
-0.00584906
-0.00143473
-0.00034534
-8.5947e-05
-2.61337e-05
-1.33477e-05
-1.12777e-05
-9.86493e-06
-3.79863e-06
-5.07866e-05
-30.4071
-22.4915
-13.0164
-6.1615
-2.48033
-0.873833
-0.276335
-0.0798229
-0.0214454
-0.005448
-0.00133903
-0.000339704
-0.000106586
-5.5918e-05
-4.99297e-05
-5.33535e-05
-4.87708e-05
-2.88357e-05
-0.000292821
-31.3507
-22.8614
-13.0013
-6.03028
-2.37544
-0.818608
-0.253396
-0.0717551
-0.0189779
-0.00481627
-0.00125438
-0.000410292
-0.000226997
-0.000201767
-0.000225889
-0.0002559
-0.000241709
-0.000213083
-0.00155363
-32.3309
-23.2034
-12.8883
-5.81675
-2.22686
-0.745896
-0.224817
-0.0623003
-0.0164153
-0.0044381
-0.00152666
-0.000885734
-0.000803018
-0.000868752
-0.0010304
-0.00118586
-0.00118399
-0.00139782
-0.00752535
-33.4905
-23.3258
-12.4948
-5.42527
-1.99917
-0.646224
-0.189327
-0.05216
-0.0148219
-0.00543466
-0.00334906
-0.00306821
-0.00330699
-0.00375915
-0.00452621
-0.00525097
-0.00563174
-0.00797527
-0.0330871
-34.4191
-23.0189
-11.774
-4.88088
-1.72402
-0.539595
-0.157548
-0.0475952
-0.019012
-0.0123218
-0.0114813
-0.0121812
-0.0136667
-0.0157236
-0.0189586
-0.022119
-0.0254336
-0.0394603
-0.13114
-35.0607
-22.5225
-11.005
-4.37131
-1.49639
-0.469783
-0.152854
-0.0658123
-0.0451805
-0.0417191
-0.0439307
-0.0480953
-0.0543617
-0.062534
-0.074938
-0.0876526
-0.106161
-0.169257
-0.465916
-35.201
-21.7634
-10.2134
-3.94159
-1.36057
-0.482571
-0.22403
-0.158887
-0.148893
-0.152411
-0.164571
-0.180895
-0.203785
-0.232668
-0.275418
-0.321288
-0.400057
-0.62829
-1.47534
-34.6382
-20.879
-9.60894
-3.77676
-1.48014
-0.73826
-0.534567
-0.497068
-0.50948
-0.532804
-0.576355
-0.630562
-0.703623
-0.792796
-0.921983
-1.06529
-1.33174
-2.00836
-4.14245
-33.0065
-20.0361
-9.52855
-4.25778
-2.25491
-1.65775
-1.52282
-1.53896
-1.60913
-1.68753
-1.81766
-1.97149
-2.17043
-2.40365
-2.73446
-3.10861
-3.83202
-5.48427
-10.2918
-29.4014
-19.2764
-10.4501
-6.05094
-4.43599
-4.05074
-4.04048
-4.18051
-4.39042
-4.60125
-4.9286
-5.29225
-5.73882
-6.23679
-6.92825
-7.72354
-9.3113
-12.6729
-22.772
-22.013
-17.7802
-12.3276
-9.50238
-8.54317
-8.53212
-8.76595
-9.1594
-9.6429
-10.1093
-10.7852
-11.4804
-12.2823
-13.1322
-14.2962
-15.7037
-18.6466
-24.6452
-46.0648
-9.42425
-12.792
-12.7966
-12.6318
-12.7594
-13.3029
-13.8842
-14.6266
-15.4631
-16.275
-17.3826
-18.4457
-19.6214
-20.8948
-22.7615
-25.6509
-32.51
-48.0642
-111.418
)
;

boundaryField
{
    up
    {
        type            calculated;
        value           nonuniform List<scalar> 
84
(
-101.612
-51.938
-25.7369
-11.6068
-4.63742
-1.63185
-0.50722
-0.140069
-0.0345778
-0.0076843
-0.00154741
-0.000284703
-4.83843e-05
-7.69388e-06
-1.16747e-06
-1.76569e-07
-3.03229e-08
-7.66349e-09
-3.03176e-09
-1.43982e-09
-6.81964e-10
-3.0521e-10
-1.27558e-10
-4.07123e-11
-4.40148e-11
-1.02341e-10
-3.01874e-10
-1.09614e-09
-4.54031e-09
-1.81876e-08
-5.88384e-08
-9.05823e-08
3.90667e-07
1.24235e-06
-2.4096e-06
-1.11614e-05
-2.38844e-05
-4.53558e-05
-7.69606e-05
-0.000115182
-0.000151128
-0.000173783
-0.000173864
-0.000151344
-0.000115452
-7.72061e-05
-4.55407e-05
-2.40104e-05
-1.12681e-05
-2.46418e-06
1.34673e-06
4.73751e-07
-9.61579e-08
-7.85523e-08
-2.89174e-08
-8.5417e-09
-2.34032e-09
-6.53025e-10
-1.9503e-10
-6.6467e-11
-4.22425e-11
-1.2629e-10
-3.02578e-10
-6.784e-10
-1.43536e-09
-3.01818e-09
-7.59316e-09
-3.0129e-08
-1.77584e-07
-1.18644e-06
-7.85714e-06
-4.94159e-05
-0.000289915
-0.00156888
-0.00775597
-0.0347662
-0.140434
-0.507643
-1.63181
-4.63626
-11.6049
-25.7363
-51.9396
-101.613
)
;
    }
    low
    {
        type            calculated;
        value           nonuniform List<scalar> 
84
(
-11.2415
-25.9882
-35.0136
-39.4763
-41.3229
-41.6345
-40.947
-39.6541
-37.9771
-36.123
-34.8071
-33.567
-32.237
-31.3945
-30.8194
-30.3272
-30.0958
-30.2083
-30.3201
-30.4564
-30.994
-31.7864
-32.6641
-33.5592
-34.0533
-34.1931
-33.8405
-33.1324
-32.2847
-31.6207
-31.3538
-31.0814
-31.1126
-31.5919
-32.2786
-33.3164
-34.854
-36.219
-37.2331
-38.0514
-38.6601
-39.1557
-39.1557
-38.66
-38.0513
-37.2329
-36.2187
-34.8536
-33.316
-32.277
-31.5913
-31.111
-31.0797
-31.3519
-31.6186
-32.2825
-33.1302
-33.8387
-34.1922
-34.0529
-33.5594
-32.6638
-31.7864
-30.9939
-30.4563
-30.32
-30.2083
-30.0957
-30.3272
-30.8193
-31.3944
-32.237
-33.567
-34.8071
-36.1229
-37.9771
-39.6541
-40.947
-41.6345
-41.3229
-39.4763
-35.0136
-25.9882
-11.2415
)
;
    }
    left
    {
        type            calculated;
        value           nonuniform List<scalar> 
19
(
-9.8177
-13.8287
-14.2644
-14.3518
-14.6354
-15.3302
-16.0422
-16.9365
-17.9247
-18.8876
-20.1781
-21.3778
-22.673
-24.0489
-26.0003
-29.0192
-36.5001
-54.1494
-104.262
)
;
    }
    right
    {
        type            calculated;
        value           nonuniform List<scalar> 
19
(
-9.81772
-13.8287
-14.2644
-14.3518
-14.6354
-15.3302
-16.0422
-16.9365
-17.9247
-18.8876
-20.1781
-21.3778
-22.673
-24.0491
-26.0007
-29.0195
-36.4995
-54.1478
-104.262
)
;
    }
    frontAndBackPlanes
    {
        type            empty;
    }
}


// ************************************************************************* //
