/*--------------------------------*- C++ -*----------------------------------*\
  =========                 |
  \\      /  F ield         | OpenFOAM: The Open Source CFD Toolbox
   \\    /   O peration     | Website:  https://openfoam.org
    \\  /    A nd           | Version:  7
     \\/     M anipulation  |
\*---------------------------------------------------------------------------*/
FoamFile
{
    version     2.0;
    format      ascii;
    class       volScalarField;
    location    "0.01";
    object      T;
}
// * * * * * * * * * * * * * * * * * * * * * * * * * * * * * * * * * * * * * //

dimensions      [0 0 0 1 0 0 0];

internalField   nonuniform List<scalar> 
1596
(
5.65022
4.95548
4.58205
4.43059
4.37473
4.35083
4.3378
4.32863
4.32518
4.32465
4.33276
4.35169
4.37929
4.41491
4.45435
4.45747
4.33378
3.88695
2.78655
4.85926
3.17859
2.36839
2.06142
1.95642
1.91733
1.89908
1.88849
1.88551
1.88754
1.90081
1.92773
1.96815
2.02468
2.10398
2.18805
2.22455
2.05188
1.36477
4.39871
2.23634
1.22715
0.854681
0.734488
0.696292
0.682384
0.676244
0.675249
0.677485
0.686385
0.703258
0.728567
0.764504
0.818103
0.8875
0.959346
0.950934
0.651877
4.23986
1.89816
0.799323
0.391586
0.262143
0.224455
0.213371
0.209826
0.209417
0.210562
0.214521
0.221783
0.232636
0.248024
0.271641
0.305384
0.350949
0.38047
0.285775
4.23989
1.84985
0.695824
0.255942
0.113968
0.0732083
0.0622307
0.0593316
0.0588345
0.0591535
0.0604857
0.0629359
0.0666
0.0717351
0.079663
0.0916084
0.110799
0.131977
0.112181
4.30692
1.91945
0.715932
0.238334
0.0788383
0.0320194
0.0194735
0.0163126
0.015619
0.0155718
0.0159137
0.0166009
0.0176447
0.0190836
0.021266
0.0245805
0.0307085
0.0400625
0.039249
4.39782
2.03582
0.782983
0.261315
0.0794729
0.0241429
0.0089414
0.00507695
0.00416355
0.0039735
0.00401372
0.00417335
0.00443338
0.00478842
0.00530617
0.00604777
0.00759064
0.0107339
0.012275
4.49009
2.16664
0.868378
0.299613
0.0919254
0.0260982
0.0073842
0.0025045
0.00131639
0.00104164
0.000996101
0.00101857
0.0010745
0.00115377
0.00126431
0.00139855
0.00170137
0.00255482
0.00344727
4.57872
2.30086
0.962865
0.346183
0.109902
0.0316477
0.00851222
0.00227466
0.000712192
0.000341163
0.000259365
0.000247212
0.000254889
0.000270486
0.000292465
0.000311716
0.000353713
0.000543621
0.00087323
4.64048
2.40461
1.04214
0.388428
0.127648
0.0378655
0.0103362
0.00266149
0.000680708
0.000198821
8.75525e-05
6.34665e-05
5.99829e-05
6.18652e-05
6.59012e-05
6.79949e-05
7.01157e-05
0.000104137
0.000200435
4.6735
2.47006
1.09698
0.419886
0.141767
0.0431649
0.0120537
0.00314005
0.000779763
0.000192182
5.3431e-05
2.18635e-05
1.50821e-05
1.40232e-05
1.44803e-05
1.46008e-05
1.36943e-05
1.82043e-05
4.18399e-05
4.70204
2.52121
1.14001
0.445166
0.15345
0.0476911
0.0135794
0.00359694
0.000900202
0.000216229
5.19373e-05
1.38894e-05
5.3175e-06
3.46303e-06
3.17305e-06
3.09967e-06
2.71485e-06
2.99533e-06
8.00314e-06
4.71344
2.5425
1.15976
0.457937
0.159849
0.0503406
0.0145242
0.00389556
0.000985188
0.00023746
5.56849e-05
1.31212e-05
3.41066e-06
1.23322e-06
7.65777e-07
6.60911e-07
5.51291e-07
4.863e-07
1.41684e-06
4.69964
2.52445
1.14936
0.454213
0.159051
0.0503302
0.0146051
0.00394136
0.00100269
0.000242774
5.68715e-05
1.30853e-05
3.04181e-06
7.75713e-07
2.70742e-07
1.57363e-07
1.16375e-07
8.27163e-08
2.34757e-07
4.6748
2.48203
1.11791
0.438056
0.152485
0.0480714
0.0139198
0.00375231
0.000954072
0.000230875
5.39988e-05
1.23472e-05
2.79707e-06
6.44325e-07
1.63466e-07
5.52816e-08
2.85105e-08
1.6005e-08
3.71063e-08
4.64028
2.41946
1.06947
0.41202
0.141361
0.0440313
0.0126232
0.00337416
0.000851593
0.000204677
4.75514e-05
1.07914e-05
2.41641e-06
5.40875e-07
1.24634e-07
3.15455e-08
1.02668e-08
4.10594e-09
5.84249e-09
4.58856
2.33052
1.00195
0.376088
0.126077
0.0384853
0.010841
0.00285333
0.00071021
0.000168527
3.86807e-05
8.67421e-06
1.91803e-06
4.22431e-07
9.43075e-08
2.17601e-08
5.53863e-09
1.61851e-09
1.0433e-09
4.52329
2.22131
0.920825
0.333697
0.108329
0.0321351
0.00882619
0.00227145
0.00055405
0.000129052
2.91089e-05
6.41964e-06
1.39643e-06
3.02399e-07
6.61611e-08
1.47444e-08
3.44019e-09
8.60707e-10
2.73714e-10
4.46074
2.11269
0.840751
0.29242
0.0912897
0.0261204
0.0069426
0.00173437
0.000411725
9.35308e-05
2.0607e-05
4.44392e-06
9.45916e-07
2.00506e-07
4.29193e-08
9.32785e-09
2.09344e-09
4.90879e-10
1.12232e-10
4.38848
1.99335
0.757083
0.251239
0.0749608
0.0205528
0.005251
0.00126494
0.000290414
6.39669e-05
1.36924e-05
2.87322e-06
5.95784e-07
1.23125e-07
2.57048e-08
5.44644e-09
1.18784e-09
2.68643e-10
5.51511e-11
4.29672
1.85507
0.666629
0.209477
0.059341
0.0154978
0.0037844
0.000874297
0.000193123
4.10474e-05
8.49992e-06
1.72902e-06
3.48129e-07
6.9948e-08
1.42106e-08
2.93162e-09
6.22292e-10
1.36764e-10
2.69601e-11
4.19807
1.71021
0.576202
0.169901
0.0453313
0.0112003
0.00259881
0.000572836
0.000121175
2.47488e-05
4.9393e-06
9.70834e-07
1.89289e-07
3.68957e-08
7.28169e-09
1.46088e-09
3.01762e-10
6.45585e-11
1.24156e-11
4.10144
1.56894
0.49111
0.134365
0.033389
0.00772829
0.00169033
0.000353241
7.12014e-05
1.39181e-05
2.66864e-06
5.05569e-07
9.5277e-08
1.79928e-08
3.44725e-09
6.72474e-10
1.35239e-10
2.82009e-11
5.32103e-12
4.01724
1.44111
0.414804
0.103339
0.0233493
0.00493751
0.000994732
0.000193259
3.65313e-05
6.74613e-06
1.22938e-06
2.2237e-07
4.01486e-08
7.28172e-09
1.34261e-09
2.52309e-10
4.89296e-11
9.81041e-12
1.73421e-12
3.99758
1.39743
0.386996
0.0918191
0.0196447
0.00393674
0.000757836
0.000142722
2.66171e-05
4.93613e-06
9.17239e-07
1.71147e-07
3.2111e-08
6.07198e-09
1.16725e-09
2.27914e-10
4.5534e-11
9.13704e-12
1.32597e-12
4.03431
1.42713
0.397878
0.0941128
0.0198081
0.00384762
0.000709728
0.000127686
2.29666e-05
4.20293e-06
7.95035e-07
1.55993e-07
3.16358e-08
6.59682e-09
1.41643e-09
3.11796e-10
7.05289e-11
1.59772e-11
2.60568e-12
4.09992
1.50261
0.43524
0.106562
0.0229717
0.00448457
0.000808723
0.000137389
2.25441e-05
3.69719e-06
6.39082e-07
1.22216e-07
2.63447e-08
6.27717e-09
1.60794e-09
4.32032e-10
1.20479e-10
3.36015e-11
6.95898e-12
4.19042
1.62713
0.505083
0.133083
0.0308294
0.00641547
0.0012126
0.000209333
3.30734e-05
4.78699e-06
6.50135e-07
9.10516e-08
1.67533e-08
4.73007e-09
1.69665e-09
6.42246e-10
2.43121e-10
8.81219e-11
2.29583e-11
4.29858
1.79072
0.605257
0.174875
0.0445496
0.0101958
0.00211486
0.000398371
6.77311e-05
1.01764e-05
1.29294e-06
1.23092e-07
6.27855e-09
9.84908e-10
1.39805e-09
1.02391e-09
5.72394e-10
2.74985e-10
8.91643e-11
4.407
1.9712
0.725991
0.23015
0.0645623
0.0163117
0.00374597
0.000784537
0.000149263
2.53287e-05
3.67153e-06
3.92093e-07
8.6331e-09
-8.58665e-09
-1.43011e-09
1.06396e-09
1.20697e-09
8.22472e-10
3.43355e-10
4.50528
2.15151
0.858337
0.296881
0.0912568
0.0253578
0.00643418
0.00149879
0.000320436
6.21449e-05
1.06295e-05
1.45555e-06
9.51793e-08
-2.99581e-08
-1.56845e-08
-3.50743e-09
7.84924e-10
1.70868e-09
1.09443e-09
4.60722
2.34152
1.0073
0.378319
0.126872
0.0386403
0.0108079
0.00279729
0.00067221
0.000149207
3.01747e-05
5.27814e-06
6.54969e-07
-2.48272e-08
-5.90751e-08
-2.91693e-08
-9.85362e-09
-8.16087e-10
1.94827e-09
4.7005
2.52647
1.16442
0.472271
0.172095
0.0573072
0.0176541
0.00507952
0.00137435
0.000349982
8.37848e-05
1.85057e-05
3.55035e-06
4.54609e-07
-5.97153e-08
-8.82744e-08
-5.32789e-08
-2.40282e-08
-4.97055e-09
4.78106
2.69891
1.32417
0.577249
0.227945
0.0829295
0.0281665
0.00903355
0.00276361
0.000811771
0.000231089
6.40229e-05
1.72514e-05
4.47444e-06
1.08363e-06
2.11624e-07
6.22901e-09
-2.8335e-08
-1.64649e-08
4.84473
2.84662
1.47223
0.683089
0.289403
0.113789
0.0420658
0.0147947
0.00500529
0.00164251
0.00052913
0.000168915
5.38867e-05
1.73204e-05
5.67323e-06
1.89146e-06
6.34226e-07
1.9463e-07
2.96209e-08
4.87692
2.93042
1.56258
0.752151
0.332277
0.136851
0.0532234
0.0197777
0.00710136
0.00248479
0.0008579
0.000295188
0.000102158
3.59e-05
1.29836e-05
4.85036e-06
1.86977e-06
7.01196e-07
1.68874e-07
4.8824
2.95686
1.59605
0.780419
0.351324
0.147913
0.0589917
0.0225543
0.00836163
0.00303175
0.00108902
0.000391493
0.000142175
5.26686e-05
2.01768e-05
8.01788e-06
3.29459e-06
1.31376e-06
3.36612e-07
4.88676
2.97789
1.6242
0.805544
0.369113
0.158701
0.064838
0.0254686
0.00972852
0.00364433
0.00135631
0.000506647
0.000191743
7.42373e-05
2.98081e-05
1.24415e-05
5.36897e-06
2.23956e-06
5.98913e-07
4.8945
3.00041
1.65162
0.82926
0.385757
0.168825
0.0703818
0.0282764
0.0110725
0.00426133
0.00163303
0.000629574
0.000246461
9.89265e-05
4.12669e-05
1.79186e-05
8.03852e-06
3.47212e-06
9.59099e-07
4.90019
3.01714
1.67231
0.847438
0.398742
0.176877
0.074883
0.0306077
0.0122154
0.00479958
0.00188109
0.000742994
0.000298512
0.000123177
5.29039e-05
2.36711e-05
1.09325e-05
4.84481e-06
1.36994e-06
4.90309
3.0267
1.68478
0.858824
0.407121
0.182208
0.0779355
0.0322252
0.0130266
0.00519046
0.00206549
0.000829362
0.000339146
0.000142601
6.24723e-05
2.85252e-05
1.34328e-05
6.05361e-06
1.7373e-06
4.8998
3.02558
1.68672
0.862037
0.410093
0.184351
0.079265
0.0329713
0.0134178
0.00538586
0.00216057
0.000875145
0.000361238
0.000153415
6.79195e-05
3.13465e-05
1.49128e-05
6.77956e-06
1.96066e-06
4.89984
3.02566
1.6868
0.8621
0.410133
0.184373
0.0792766
0.0329769
0.0134204
0.00538703
0.0021611
0.000875379
0.000361344
0.000153464
6.79427e-05
3.1358e-05
1.49187e-05
6.78245e-06
1.96158e-06
4.9032
3.02693
1.68503
0.859007
0.407238
0.182274
0.0779692
0.0322415
0.0130342
0.00519386
0.002067
0.000830031
0.000339446
0.000142738
6.25373e-05
2.85571e-05
1.34491e-05
6.0615e-06
1.7398e-06
4.90036
3.01751
1.67269
0.847729
0.398926
0.176979
0.0749355
0.0306328
0.0122269
0.00480468
0.00188332
0.000743965
0.000298939
0.000123369
5.29932e-05
2.37143e-05
1.0954e-05
4.8551e-06
1.37315e-06
4.89474
3.00091
1.65214
0.829648
0.386
0.168959
0.0704492
0.0283082
0.0110868
0.00426754
0.00163569
0.000630703
0.000246945
9.91377e-05
4.13623e-05
1.79633e-05
8.06013e-06
3.48222e-06
9.62177e-07
4.88706
2.97853
1.62484
0.80602
0.369405
0.15886
0.0649164
0.0255049
0.00974445
0.00365107
0.00135911
0.000507799
0.000192219
7.44377e-05
2.98952e-05
1.24807e-05
5.38728e-06
2.24785e-06
6.01365e-07
4.88276
2.95762
1.5968
0.780969
0.351656
0.148088
0.0590761
0.0225921
0.00837767
0.00303828
0.00109161
0.000392516
0.000142581
5.28325e-05
2.02455e-05
8.04788e-06
3.30823e-06
1.31983e-06
3.38401e-07
4.87735
2.93131
1.56346
0.752774
0.332643
0.137038
0.0533101
0.0198148
0.00711635
0.00249062
0.000860123
0.000296038
0.000102489
3.60328e-05
1.30394e-05
4.87494e-06
1.88109e-06
7.06368e-07
1.70496e-07
4.8453
2.84794
1.47357
0.684056
0.289973
0.114079
0.0421976
0.0148496
0.00502679
0.00165057
0.000532086
0.000169993
5.42823e-05
1.7468e-05
5.72963e-06
1.91352e-06
6.42999e-07
1.9799e-07
3.04514e-08
4.78176
2.70037
1.32554
0.57817
0.228449
0.0831683
0.0282675
0.00907286
0.00277803
0.000816847
0.000232829
6.46068e-05
1.74408e-05
4.53154e-06
1.09768e-06
2.12499e-07
3.78403e-09
-3.09511e-08
-1.78311e-08
4.70116
2.52778
1.16557
0.472986
0.172453
0.0574612
0.0177128
0.00509997
0.00138098
0.000351993
8.43475e-05
1.86401e-05
3.56836e-06
4.46574e-07
-7.00816e-08
-9.60901e-08
-5.83792e-08
-2.70478e-08
-6.15004e-09
4.60789
2.34276
1.00831
0.378899
0.127139
0.0387445
0.0108438
0.00280855
0.000675444
0.00015005
3.03633e-05
5.30561e-06
6.50586e-07
-3.15035e-08
-6.33332e-08
-3.13597e-08
-1.07834e-08
-9.67765e-10
2.13415e-09
4.50595
2.15267
0.859202
0.297336
0.0914477
0.0254257
0.0064554
0.00150476
0.000321957
6.24866e-05
1.06911e-05
1.46115e-06
9.36262e-08
-3.06943e-08
-1.54505e-08
-2.9209e-09
1.40768e-09
2.30698e-09
1.49624e-09
4.40766
1.97225
0.726714
0.230496
0.0646944
0.0163543
0.00375804
0.000787602
0.000149956
2.5462e-05
3.69088e-06
3.93666e-07
9.15857e-09
-7.61959e-09
-4.30376e-10
1.85399e-09
1.76702e-09
1.2213e-09
5.65652e-10
4.29921
1.79164
0.605834
0.175126
0.0446362
0.0102211
0.00212137
0.000399855
6.80251e-05
1.0223e-05
1.29779e-06
1.23609e-07
7.04439e-09
1.83695e-09
2.06705e-09
1.47033e-09
8.48857e-10
4.46185e-10
1.74945e-10
4.191
1.6279
0.505522
0.133256
0.0308833
0.00642977
0.00121592
0.000210003
3.3184e-05
4.79902e-06
6.50233e-07
9.11688e-08
1.72648e-08
5.21142e-09
2.02412e-09
8.37056e-10
3.51863e-10
1.4847e-10
5.05733e-11
4.10043
1.50322
0.435561
0.106678
0.0230047
0.00449256
0.000810387
0.000137675
2.25783e-05
3.69759e-06
6.3822e-07
1.22285e-07
2.66545e-08
6.52049e-09
1.75185e-09
5.08279e-10
1.58839e-10
5.27973e-11
1.50038e-11
4.03472
1.4276
0.398109
0.0941911
0.0198291
0.00385232
0.000710585
0.000127799
2.29705e-05
4.19982e-06
7.94107e-07
1.56014e-07
3.17972e-08
6.70742e-09
1.47402e-09
3.39032e-10
8.28911e-11
2.15889e-11
4.77365e-12
3.99768
1.39754
0.387039
0.0918306
0.0196468
0.0039368
0.000757674
0.000142635
2.65863e-05
4.92766e-06
9.15369e-07
1.70851e-07
3.21065e-08
6.09561e-09
1.18211e-09
2.35064e-10
4.86888e-11
1.052e-11
1.85983e-12
4.01713
1.44095
0.41471
0.1033
0.0233363
0.00493368
0.000993668
0.000192973
3.64573e-05
6.72767e-06
1.22496e-06
2.21351e-07
3.99235e-08
7.23448e-09
1.33344e-09
2.50845e-10
4.88326e-11
9.89047e-12
1.79936e-12
4.10144
1.56894
0.491114
0.134368
0.0333904
0.00772879
0.00169044
0.000353236
7.11863e-05
1.391e-05
2.66555e-06
5.0458e-07
9.49937e-08
1.79175e-08
3.42812e-09
6.67774e-10
1.34105e-10
2.79317e-11
5.26814e-12
4.19808
1.71021
0.576202
0.169901
0.0453318
0.0112007
0.00259898
0.000572865
0.000121169
2.47421e-05
4.93611e-06
9.69682e-07
1.8893e-07
3.67941e-08
7.25437e-09
1.45377e-09
2.99926e-10
6.40832e-11
1.23086e-11
4.29673
1.85508
0.666628
0.209476
0.059341
0.0154982
0.00378462
0.000874365
0.000193133
4.10457e-05
8.49802e-06
1.72816e-06
3.47826e-07
6.98545e-08
1.41839e-08
2.92432e-09
6.20308e-10
1.36214e-10
2.68192e-11
4.38848
1.99335
0.757081
0.251237
0.0749604
0.0205531
0.00525124
0.00126505
0.000290452
6.39771e-05
1.36948e-05
2.87366e-06
5.95851e-07
1.2313e-07
2.57037e-08
5.44558e-09
1.18735e-09
2.6835e-10
5.49806e-11
4.46074
2.11269
0.840751
0.292419
0.0912888
0.0261203
0.00694279
0.00173453
0.000411805
9.35625e-05
2.06177e-05
4.44724e-06
9.46869e-07
2.00768e-07
4.29893e-08
9.3458e-09
2.09699e-09
4.90892e-10
1.1173e-10
4.52329
2.22131
0.920827
0.333696
0.108327
0.0321347
0.00882639
0.00227171
0.000554201
0.000129119
2.91336e-05
6.42782e-06
1.39893e-06
3.03121e-07
6.63623e-08
1.47951e-08
3.4453e-09
8.56812e-10
2.71202e-10
4.58856
2.33052
1.00195
0.376086
0.126075
0.0384847
0.0108413
0.00285372
0.000710448
0.000168636
3.87225e-05
8.68847e-06
1.92251e-06
4.23761e-07
9.4678e-08
2.183e-08
5.49934e-09
1.58238e-09
1.03663e-09
4.64028
2.41946
1.06947
0.412018
0.141359
0.0440307
0.0126235
0.00337459
0.000851873
0.000204811
4.76045e-05
1.081e-05
2.4224e-06
5.42689e-07
1.25088e-07
3.14459e-08
9.88155e-09
3.91074e-09
5.87608e-09
4.6748
2.48204
1.11791
0.438056
0.152484
0.0480709
0.01392
0.00375269
0.000954328
0.000231001
5.40497e-05
1.23654e-05
2.80308e-06
6.4615e-07
1.63529e-07
5.39084e-08
2.61684e-08
1.52653e-08
3.77095e-08
4.69964
2.52446
1.14937
0.454213
0.159051
0.0503302
0.0146054
0.00394165
0.00100287
0.000242856
5.69038e-05
1.30968e-05
3.04597e-06
7.76811e-07
2.68328e-07
1.49076e-07
1.04564e-07
8.12013e-08
2.39739e-07
4.71344
2.5425
1.15976
0.457939
0.159851
0.0503412
0.0145245
0.00389564
0.000985194
0.000237452
5.56793e-05
1.31201e-05
3.41219e-06
1.23228e-06
7.51242e-07
6.20083e-07
4.99984e-07
4.9081e-07
1.44706e-06
4.70204
2.52121
1.14001
0.445171
0.153454
0.0476924
0.0135795
0.0035967
0.00089999
0.000216113
5.18902e-05
1.38786e-05
5.32095e-06
3.45452e-06
3.10475e-06
2.92637e-06
2.52541e-06
3.06333e-06
8.14966e-06
4.6735
2.47007
1.09699
0.419893
0.141772
0.0431667
0.0120538
0.00313965
0.000779437
0.000192013
5.33723e-05
2.18651e-05
1.51004e-05
1.39758e-05
1.42025e-05
1.39713e-05
1.31175e-05
1.86307e-05
4.24204e-05
4.64048
2.40462
1.04215
0.388435
0.127653
0.0378671
0.0103361
0.002661
0.000680349
0.000198658
8.75261e-05
6.35177e-05
6.00198e-05
6.16394e-05
6.49365e-05
6.60871e-05
6.87568e-05
0.000106018
0.000202305
4.57872
2.30086
0.962872
0.34619
0.109906
0.0316486
0.00851176
0.00227407
0.000711855
0.000341062
0.00025942
0.00024734
0.000254857
0.000269634
0.000289712
0.000307106
0.000351627
0.000549909
0.00087799
4.49009
2.16664
0.868383
0.299618
0.0919275
0.0260982
0.00738358
0.00250404
0.00131621
0.00104167
0.00099626
0.00101869
0.00107404
0.0011513
0.00125815
0.00139034
0.00170095
0.00257063
0.00345624
4.39782
2.03582
0.782987
0.261317
0.0794731
0.0241424
0.00894096
0.00507677
0.00416355
0.0039736
0.00401382
0.00417309
0.00443167
0.00478319
0.00529639
0.00603943
0.0075988
0.0107616
0.0122853
4.30693
1.91945
0.715934
0.238334
0.0788373
0.0320187
0.0194731
0.0163125
0.0156189
0.0155716
0.0159132
0.0165995
0.0176411
0.0190765
0.0212585
0.0245842
0.0307325
0.0400869
0.0392481
4.23989
1.84986
0.695824
0.25594
0.113966
0.0732071
0.0622298
0.0593308
0.0588336
0.0591525
0.0604841
0.0629332
0.066596
0.0717328
0.0796721
0.0916383
0.110828
0.131954
0.112152
4.23986
1.89816
0.799319
0.391582
0.26214
0.224452
0.213369
0.209824
0.209414
0.210559
0.214519
0.22178
0.232636
0.248035
0.271675
0.305428
0.35094
0.380365
0.285729
4.3987
2.23634
1.22714
0.854673
0.734482
0.696286
0.682379
0.676239
0.675244
0.677481
0.686381
0.703257
0.728573
0.764524
0.818134
0.887507
0.959281
0.950831
0.651862
4.85926
3.17859
2.36838
2.06141
1.95641
1.91732
1.89907
1.88849
1.88551
1.88754
1.90081
1.92773
1.96815
2.02468
2.10396
2.188
2.22452
2.05194
1.36481
5.65021
4.95548
4.58205
4.43059
4.37473
4.35083
4.33779
4.32863
4.32518
4.32465
4.33276
4.35169
4.37929
4.4149
4.45433
4.45745
4.33379
3.88701
2.78656
)
;

boundaryField
{
    up
    {
        type            fixedValue;
        value           uniform 0;
    }
    low
    {
        type            fixedValue;
        value           uniform 6;
    }
    left
    {
        type            fixedValue;
        value           uniform 6;
    }
    right
    {
        type            fixedValue;
        value           uniform 6;
    }
    frontAndBackPlanes
    {
        type            empty;
    }
}


// ************************************************************************* //
