/*--------------------------------*- C++ -*----------------------------------*\
  =========                 |
  \\      /  F ield         | OpenFOAM: The Open Source CFD Toolbox
   \\    /   O peration     | Website:  https://openfoam.org
    \\  /    A nd           | Version:  7
     \\/     M anipulation  |
\*---------------------------------------------------------------------------*/
FoamFile
{
    version     2.0;
    format      ascii;
    class       volScalarField;
    location    "0.262";
    object      gradTz;
}
// * * * * * * * * * * * * * * * * * * * * * * * * * * * * * * * * * * * * * //

dimensions      [0 -1 0 1 0 0 0];

internalField   nonuniform List<scalar> 
1596
(
-3.22736e-16
-1.57015e-16
1.59414e-16
3.34772e-18
-3.04008e-16
0
-1.42148e-16
-1.40164e-16
-9.13467e-18
-7.37518e-17
-6.85265e-19
-7.33483e-17
3.22636e-16
-7.25201e-17
3.38921e-16
2.9242e-16
1.73921e-16
2.19614e-16
0
3.2258e-16
0
4.55267e-16
-3.08561e-18
-1.39752e-16
1.38565e-16
2.85265e-16
8.68852e-18
1.35217e-16
-6.51368e-17
1.29955e-16
-1.99232e-18
-1.80236e-16
-1.12557e-16
-2.7403e-16
-2.67305e-16
-2.43159e-16
1.38391e-16
0
-1.58306e-16
0
-2.97275e-16
4.90129e-18
2.73058e-16
-7.64563e-17
5.76204e-18
-1.90171e-18
-1.94107e-18
-2.07264e-18
4.94009e-17
0
9.34988e-17
2.65293e-16
-2.61413e-17
2.10241e-17
4.94557e-17
7.71882e-17
0
2.48526e-16
-7.48986e-17
7.46251e-17
0
-7.18433e-17
-7.42743e-17
1.26806e-16
-1.10961e-16
0
0
-3.95918e-17
2.57885e-17
0
-7.8181e-17
-9.97135e-17
6.89434e-17
-7.07588e-17
-3.64139e-18
0
4.33998e-17
1.15771e-16
-1.04689e-16
0
-3.0976e-17
-9.42168e-17
0
1.40986e-16
-1.40488e-17
-1.27202e-17
-1.19808e-17
7.34597e-17
9.01928e-17
9.3029e-18
3.11393e-18
-7.45476e-17
3.7579e-18
3.45182e-17
-1.48415e-17
-1.12702e-17
-1.58912e-16
1.51437e-16
-1.32525e-16
-2.70419e-19
-1.17583e-16
3.31719e-18
-3.3282e-18
-9.30971e-17
0
-9.91472e-18
-8.68454e-17
-8.14869e-17
6.63293e-17
6.86254e-17
-9.37197e-19
-4.11436e-17
-3.50113e-17
2.67635e-17
9.41873e-17
-1.6194e-16
1.82075e-16
1.02036e-16
0
9.02368e-17
5.31833e-17
-2.56285e-17
1.18111e-16
-2.22099e-17
-9.3823e-17
8.57968e-19
-5.56992e-17
-6.66466e-17
-5.21749e-17
4.43585e-17
4.15058e-17
-5.54009e-19
-1.11697e-17
9.0954e-18
2.57141e-16
-3.03446e-16
0
0
-1.12015e-16
0
0
0
7.75961e-17
0
0
5.10705e-17
1.92263e-18
1.37822e-17
-3.87692e-17
0
2.06351e-17
8.04439e-18
0
-1.67059e-16
3.21664e-16
0
0
1.1536e-16
0
-4.42548e-17
4.42101e-17
-7.89815e-17
3.29486e-17
-3.31896e-17
0
4.79295e-17
4.64939e-17
0
-2.68428e-17
-2.10857e-17
-7.02563e-18
4.01101e-16
-1.8797e-16
0
-1.34384e-16
1.3288e-16
0
9.91504e-17
0
0
0
3.05137e-17
-3.066e-17
0
-3.70075e-17
-1.06099e-17
0
2.82388e-18
1.53262e-17
0
-1.01808e-16
0
0
1.34711e-16
-2.51725e-16
1.26537e-17
4.87762e-18
-4.09897e-17
4.50375e-18
1.55721e-18
-3.2066e-17
-5.17205e-17
0
3.9111e-17
-7.80521e-18
7.92235e-18
2.06366e-17
-1.20223e-17
-5.54191e-18
8.50115e-17
-8.89133e-18
8.16139e-17
2.79864e-16
-1.4732e-17
-1.17665e-16
0
0
0
6.60541e-17
2.65624e-17
9.5873e-17
-2.31531e-17
-3.84113e-17
-2.29451e-17
-1.24842e-17
5.55974e-18
-1.20917e-17
5.2741e-18
-9.38414e-17
9.19377e-17
-1.70151e-16
-2.7646e-16
2.56349e-16
1.02002e-16
-1.88909e-16
1.63913e-16
-1.42066e-16
3.7032e-17
2.84872e-17
-2.58214e-17
1.68911e-17
-1.51823e-17
4.43983e-17
0
-3.35059e-18
2.46846e-17
-3.66808e-18
-6.06836e-16
2.78959e-16
2.3053e-19
-6.18456e-17
7.75118e-18
9.90883e-17
-1.88386e-16
-7.79424e-17
6.67217e-17
-5.68233e-17
-4.85685e-17
0
-5.54371e-17
-1.65107e-17
-2.9589e-17
-1.76027e-17
1.38591e-18
-1.55358e-17
3.41166e-19
9.91817e-17
-8.85128e-17
1.86934e-19
-6.83138e-17
-1.70948e-16
1.6127e-16
6.59062e-19
7.59548e-17
-6.49624e-17
1.0901e-16
2.58169e-17
2.12856e-17
6.58292e-17
0
5.47615e-17
2.51753e-17
0
8.49136e-18
2.88209e-19
0
8.58677e-17
6.77672e-17
-1.40817e-16
1.65653e-16
-2.49053e-16
1.76547e-16
6.69494e-17
-9.69162e-18
-1.07832e-16
1.98671e-17
-1.97691e-17
-6.01968e-17
2.3979e-17
-1.19515e-17
-2.51948e-17
1.09236e-17
-6.78136e-18
2.65259e-18
-9.23924e-17
3.14377e-16
-2.34152e-16
1.2779e-16
0
0
-3.48929e-17
7.42846e-17
-5.31492e-17
9.99675e-17
0
0
4.06345e-17
-3.55381e-17
-2.52628e-17
7.96797e-18
-8.50343e-18
4.47643e-18
0
7.4529e-18
8.64014e-17
-6.9912e-17
-6.13097e-17
-9.92638e-17
-3.23779e-17
4.47137e-17
0
-4.99711e-17
-4.07468e-17
3.66343e-17
-2.99539e-17
2.43282e-17
0
9.63905e-18
1.89268e-17
0
0
0
-7.13353e-18
1.3859e-16
5.3075e-17
-1.84977e-16
5.11848e-17
4.395e-17
0
0
4.72013e-17
-2.45917e-17
-3.54333e-17
2.89709e-17
-2.35272e-17
0
-6.31142e-18
5.39638e-18
0
-4.55013e-18
-1.58929e-18
-7.42199e-17
2.17799e-16
-2.64551e-16
-1.06069e-16
5.55895e-17
-4.16504e-17
3.50339e-17
0
-2.39942e-17
2.0074e-17
0
0
9.28265e-18
-9.29334e-18
2.79805e-18
-3.709e-18
6.50672e-18
7.89303e-19
1.18228e-18
3.81333e-17
-3.44139e-17
1.76431e-16
-1.13896e-16
-4.63134e-17
5.92478e-18
7.21103e-17
2.74695e-17
2.29588e-17
0
1.33776e-17
-1.23918e-17
9.87803e-18
-8.37544e-18
1.08393e-17
-1.8691e-17
-5.06597e-18
4.42132e-18
1.17847e-18
1.021e-16
-1.03493e-16
0
9.55225e-17
-5.03496e-17
-3.76482e-17
2.61523e-17
-8.3641e-17
0
-1.47593e-18
-1.54406e-17
-1.11469e-17
1.62724e-17
-1.2524e-18
-1.0476e-17
7.75807e-18
0
2.81541e-18
-1.14429e-18
1.74358e-16
-3.08392e-17
1.31391e-16
-1.02931e-16
5.68443e-17
6.32239e-18
-6.52613e-17
-2.23654e-17
4.03145e-17
-1.70384e-18
-2.37012e-17
2.00354e-17
-8.77365e-18
-1.1571e-17
0
0
0
-2.84207e-18
1.05638e-19
-1.55133e-16
1.51093e-16
1.07594e-19
2.31434e-17
1.99416e-17
-4.82308e-17
5.69232e-17
-4.68558e-17
3.99938e-17
-1.33042e-17
2.53104e-17
9.02062e-18
-3.83454e-18
1.96013e-19
-1.38947e-18
-2.44038e-18
0
0
0
0
0
7.42493e-17
-3.60879e-17
-1.12905e-16
0
0
-1.36087e-17
-2.20035e-17
1.84253e-17
0
-1.13766e-17
8.84191e-18
-2.95097e-17
3.39374e-17
-1.10913e-17
1.18103e-17
1.29288e-18
0
-3.0059e-17
3.0429e-17
0
-2.45542e-17
2.49143e-17
4.12929e-17
0
1.37386e-17
1.81792e-17
-8.12854e-17
0
-1.26417e-17
9.87325e-18
7.0803e-18
-5.2674e-18
7.71454e-18
0
-2.84216e-18
0
-1.54582e-17
-1.53949e-17
9.11731e-19
2.52288e-17
-6.78594e-17
0
-1.75212e-17
0
4.97883e-17
2.01291e-17
0
5.0129e-17
-5.26349e-17
5.31958e-18
-1.17013e-17
3.30954e-18
1.48219e-17
5.61607e-18
-4.44866e-18
0
3.19596e-17
-2.80632e-17
3.48271e-17
4.19243e-17
0
3.56652e-17
-3.37304e-17
-2.66889e-17
4.02675e-17
-6.04651e-17
-2.96201e-17
0
0
6.52079e-18
0
0
1.86903e-18
0
-1.41711e-16
1.08792e-16
0
1.65675e-18
-2.44825e-17
-1.35005e-18
2.18287e-17
1.56973e-17
-1.9596e-17
-5.00899e-17
7.97716e-17
-2.16132e-17
0
-1.04057e-17
0
0
0
-7.21949e-18
5.7669e-18
-4.00756e-17
3.75849e-17
1.00629e-16
-9.84486e-17
3.02908e-17
1.68569e-18
-2.21775e-17
1.91776e-17
3.27088e-17
2.51141e-17
-4.96466e-17
0
2.59265e-17
3.68141e-18
-1.19122e-17
-2.61725e-17
2.15811e-17
-3.5059e-18
6.6265e-18
-1.35566e-16
1.95579e-16
-1.94017e-16
3.42152e-17
2.91366e-17
-2.7762e-17
2.33909e-17
-1.86489e-17
0
-1.59229e-17
2.56359e-17
1.11235e-17
1.79768e-17
2.2863e-17
-3.42584e-17
-5.63261e-19
0
-2.68544e-18
8.98416e-19
-1.4658e-16
-4.37265e-17
-7.69069e-17
4.08616e-17
-6.70512e-17
5.84769e-17
-3.4903e-17
2.96585e-17
-2.03403e-18
-2.03087e-18
-2.69195e-17
1.58732e-17
-8.96687e-18
2.72926e-17
-2.92989e-17
3.67316e-18
3.10766e-18
0
-1.55566e-18
1.58485e-16
-4.71558e-17
0
0
-6.90678e-17
1.34491e-16
-3.15033e-17
-6.08092e-18
5.01743e-17
-1.2937e-18
0
0
-1.16853e-17
0
-2.54989e-17
6.19496e-17
-4.30089e-17
0
6.17812e-19
5.42233e-17
1.01425e-16
0
-4.33548e-17
-3.55107e-17
-3.15431e-17
-3.27629e-17
1.36256e-17
-3.8133e-17
-2.09304e-17
0
0
1.55321e-17
0
0
-3.45103e-17
5.68724e-17
0
0
3.72113e-16
-4.38056e-17
-2.25692e-16
-1.23349e-16
1.6728e-16
5.34841e-17
3.17677e-17
0
-1.17313e-17
1.13959e-17
2.82472e-17
-9.1182e-18
-1.36296e-17
2.11535e-17
-2.25009e-17
-6.95707e-18
0
0
0
2.97992e-17
-2.35609e-16
2.31021e-16
-2.21954e-17
-1.72137e-16
2.69748e-16
-1.35609e-16
0
0
7.29234e-17
-5.99465e-17
0
-1.8197e-17
3.16825e-17
-3.57473e-18
9.26858e-18
2.83038e-18
3.05646e-20
6.17724e-19
0
0
0
1.94914e-16
-1.307e-16
1.37943e-16
-2.15209e-16
6.13814e-17
0
-2.22189e-17
3.56331e-17
-3.64191e-17
-7.17079e-18
-1.33816e-19
-4.9309e-18
-7.2875e-19
-3.93094e-18
-1.10213e-18
-6.02366e-19
2.49607e-16
-4.4542e-16
2.11256e-16
0
5.71689e-17
-7.7881e-17
7.83546e-17
-6.21618e-17
0
-3.04387e-17
4.26758e-17
0
0
-9.79791e-20
0
-5.08825e-18
3.48158e-18
6.42626e-19
9.60412e-19
2.42102e-16
0
-9.67452e-17
1.08066e-16
-6.80795e-17
1.48873e-16
-7.04433e-17
-5.53234e-17
5.59012e-17
-5.69738e-18
0
0
3.6666e-18
-6.20431e-18
-4.35014e-18
8.25051e-18
-1.78619e-18
9.14949e-19
0
1.37459e-16
1.07665e-16
-3.54364e-18
-1.03023e-16
-1.04314e-17
-7.53961e-17
8.05637e-18
6.34796e-17
-3.28878e-18
5.80437e-18
0
0
-3.75619e-18
0
4.42359e-18
-4.73219e-18
0
6.0628e-19
-1.68132e-19
-7.29611e-17
-5.40067e-17
5.05692e-17
-5.80651e-18
-2.60793e-18
7.05918e-18
0
-1.87014e-18
2.8082e-17
-2.36496e-17
0
8.04208e-18
-1.57369e-18
-7.10527e-18
-6.50393e-19
-5.07343e-19
0
-4.73881e-19
0
2.98263e-17
-5.67548e-17
-7.86248e-19
2.44445e-17
2.24447e-17
-2.23015e-17
-1.58621e-17
1.7957e-17
-6.1836e-18
4.83619e-18
-4.7146e-18
4.86e-18
0
1.24498e-20
-4.79154e-19
1.72294e-18
-5.89834e-21
0
0
2.98273e-17
-2.97155e-17
-2.43164e-17
2.1539e-17
3.96522e-17
-3.98863e-17
-7.93132e-18
7.95011e-18
-6.23587e-18
6.30134e-18
-4.71476e-18
8.90128e-18
-2.49651e-18
-1.80018e-18
-5.53095e-19
1.83266e-19
4.37602e-19
1.15747e-19
-8.68081e-20
0
-7.08164e-18
4.23615e-17
-4.59118e-17
3.95865e-17
-3.50871e-17
0
2.80775e-17
-2.51124e-17
0
9.38865e-18
-1.18894e-17
-6.78018e-18
7.10606e-18
1.30906e-18
0
0
-4.73952e-19
1.72242e-19
1.18713e-16
-2.18773e-16
2.23557e-16
-1.96621e-16
7.73667e-17
-6.60197e-17
6.2638e-17
7.47229e-18
-2.78796e-17
2.4913e-17
0
-1.81539e-17
1.65306e-17
-3.14785e-18
-1.28222e-18
2.02041e-18
1.48587e-18
4.60116e-19
-1.66425e-19
2.73001e-16
0
-1.09433e-16
8.50416e-17
1.03114e-17
-7.95251e-17
1.41216e-16
-1.25605e-16
4.93536e-17
-2.11895e-17
2.16893e-17
4.30313e-18
7.41357e-18
3.06604e-18
-2.54965e-18
-3.32975e-19
-3.21979e-18
0
3.30046e-19
2.1912e-16
-2.46649e-16
0
2.27263e-17
9.84002e-17
-9.64129e-17
1.65147e-17
1.46728e-17
6.4152e-18
1.13471e-17
0
0
-1.28982e-17
2.42066e-17
-8.85322e-18
-3.1808e-18
3.48244e-18
2.79315e-19
-6.27991e-19
1.96597e-17
2.16664e-16
-2.51205e-17
-1.72235e-16
1.51194e-16
1.81529e-17
-1.61626e-17
-1.43309e-17
4.74286e-17
-5.88377e-17
3.56436e-17
-3.64294e-17
5.73173e-18
-7.253e-18
1.33039e-17
-8.86426e-18
0
0
6.4269e-19
0
5.43688e-17
-1.63936e-16
1.87305e-16
-1.52279e-16
1.51917e-16
0
5.31568e-17
-5.34004e-17
-4.04228e-17
5.99904e-17
0
2.50892e-17
-3.17051e-17
-4.69793e-18
0
-5.31699e-19
-1.06763e-18
-1.44448e-20
-5.1558e-16
2.46223e-16
0
-1.6725e-16
1.67233e-16
1.03214e-16
-6.78566e-17
2.81451e-17
0
-1.27581e-18
9.59311e-18
-9.10568e-18
-1.36115e-17
2.11224e-17
-2.24601e-17
0
4.92686e-18
-1.10168e-18
-6.60987e-19
3.17529e-16
-3.12629e-16
0
4.33134e-17
3.95362e-17
-3.62241e-17
0
-2.94963e-17
-2.55736e-17
0
-1.08578e-18
0
1.55388e-17
0
0
7.08562e-18
2.66941e-17
-3.45073e-17
0
4.35911e-20
4.71786e-17
-4.36875e-17
3.59589e-17
-1.82637e-16
7.00652e-17
0
6.08525e-18
1.72648e-17
0
-1.78787e-17
5.24688e-17
-5.51215e-17
9.36774e-18
0
-1.01939e-18
0
0
0
4.24292e-20
0
4.03782e-17
0
-6.31759e-17
6.41802e-17
0
2.33214e-17
-1.8835e-17
6.86223e-17
-3.31676e-17
1.21136e-17
-1.9627e-17
1.88327e-17
-2.93344e-17
-4.69997e-18
0
-3.17682e-18
0
1.23629e-16
-2.09022e-16
0
-3.42243e-17
3.08661e-17
0
0
-4.26599e-17
0
-1.59345e-17
-2.56557e-17
-1.11335e-17
1.79948e-17
0
9.83853e-18
0
0
6.96551e-18
-7.72877e-18
0
1.81379e-16
-1.45259e-16
3.16839e-17
-2.85822e-17
-1.18435e-17
3.42227e-17
3.87424e-17
-4.78113e-17
1.54434e-17
1.00939e-18
-1.47476e-17
6.05316e-17
-1.8848e-17
-4.439e-17
1.54006e-17
-4.0482e-18
2.41934e-18
-7.48841e-19
-2.93285e-16
1.08786e-16
0
0
1.22567e-17
-1.24637e-17
9.1014e-18
6.1378e-18
4.32675e-17
2.23882e-17
-2.22724e-17
-8.0967e-19
-1.27993e-17
1.0415e-17
0
5.27476e-18
3.71047e-18
2.02531e-18
6.76847e-19
0
9.45365e-17
-8.85756e-17
2.8486e-17
2.97649e-17
-5.759e-18
-1.88144e-17
-1.62035e-17
-5.41975e-17
2.20977e-17
-1.38322e-17
1.86913e-17
1.19689e-17
-1.5194e-17
1.61275e-17
1.04433e-17
-1.3512e-17
-1.87067e-18
0
-1.66128e-17
-7.50103e-17
2.69678e-17
2.52354e-17
-8.76646e-17
6.29737e-17
3.18503e-17
-3.25559e-17
2.53288e-17
-2.09718e-17
0
0
-1.80955e-17
3.25994e-17
-1.44561e-17
1.37423e-17
-1.50097e-17
2.50602e-18
-4.45273e-18
3.12409e-17
2.93068e-17
-2.68266e-17
2.13188e-17
-2.4668e-17
-3.82036e-17
0
0
0
0
0
0
9.30366e-18
-2.48302e-17
2.62606e-17
-8.65949e-18
1.06681e-17
5.05719e-18
-4.29126e-18
6.46124e-17
-1.11166e-16
1.39135e-16
-6.61632e-17
9.13797e-17
-6.79884e-17
1.2738e-16
-7.23355e-17
-3.96507e-17
4.05608e-17
0
1.13696e-17
-9.08919e-18
2.26002e-17
-7.45002e-18
-9.75929e-18
-2.08561e-17
1.5585e-18
3.65575e-18
1.00493e-16
2.91727e-17
0
-4.61377e-17
-3.69478e-17
8.50092e-17
9.03578e-18
-3.50637e-17
2.09931e-17
-1.5152e-17
0
-9.00036e-18
0
-7.48248e-18
6.10793e-18
-5.54347e-18
-1.83941e-18
1.30896e-18
0
1.40448e-16
-3.08388e-17
1.31335e-16
-1.02901e-16
-2.09396e-17
8.36315e-17
-5.01541e-17
2.43842e-18
2.03093e-18
-1.48181e-17
1.43438e-17
0
0
9.0608e-18
-3.35516e-18
2.20596e-18
6.65449e-18
-2.31545e-18
0
2.85624e-20
0
-2.90169e-17
1.71959e-16
-1.16473e-16
-1.2579e-16
6.89719e-17
-7.34666e-17
6.83516e-17
3.43708e-17
-2.63148e-17
1.07898e-17
-9.66952e-18
1.64743e-18
1.62662e-17
6.4755e-19
-6.28894e-18
6.22499e-18
-1.27412e-18
3.42396e-16
-1.09355e-16
5.43788e-17
-1.67539e-16
4.63131e-17
-7.33811e-17
3.92409e-17
0
0
-1.51046e-18
-2.03094e-18
-5.98705e-19
0
-1.41424e-17
-1.08395e-17
8.01653e-18
-5.90464e-19
1.03731e-18
2.51068e-18
0
-1.09033e-16
1.86235e-16
4.25965e-17
-1.53254e-16
4.16502e-17
-6.48315e-17
1.03231e-17
5.32849e-17
0
0
9.96193e-19
1.16633e-17
0
-1.05664e-17
-4.85678e-18
7.12887e-19
-2.56447e-18
-2.91091e-18
0
-6.904e-17
1.45956e-17
1.25698e-16
9.55881e-17
-1.75821e-16
8.02687e-17
-5.7089e-17
3.0435e-17
-4.29949e-17
0
0
0
-1.89029e-17
5.19242e-18
-6.34238e-18
0
-3.97349e-19
1.9936e-18
-2.57774e-16
2.44729e-16
2.64646e-16
-3.21491e-16
1.52301e-16
-1.43582e-16
0
6.00238e-17
-8.24147e-17
4.81512e-17
-3.79991e-17
3.13663e-17
2.57288e-17
1.95498e-17
1.55022e-17
0
0
0
0
2.84435e-16
-1.65104e-16
0
0
-5.53722e-17
1.36324e-16
-8.74142e-17
-6.34268e-17
6.27119e-17
4.74458e-17
8.03324e-17
-3.25456e-17
1.39431e-17
1.06692e-17
7.92699e-18
6.48476e-18
1.05129e-17
-5.17916e-19
5.27544e-19
-2.8856e-16
2.65952e-16
1.43458e-16
-7.44289e-17
1.65625e-16
-1.06446e-16
-8.52115e-17
-7.26407e-17
0
-9.93649e-17
4.6597e-18
3.69951e-17
-2.92717e-17
-2.3979e-17
-8.88139e-18
-9.41989e-18
-7.5276e-18
0
0
-9.92672e-17
0
7.78289e-17
-1.24554e-19
0
0
8.78984e-17
7.49549e-17
0
5.37317e-17
0
-5.62365e-17
-1.58722e-17
2.82543e-17
0
1.82984e-17
-2.59027e-18
2.64242e-18
0
2.10883e-16
0
1.50256e-16
-2.79736e-16
2.5091e-16
2.04934e-16
-6.04451e-18
0
5.37247e-18
6.21398e-17
0
-6.28827e-17
7.08873e-17
-6.32334e-17
-1.38231e-17
-1.47092e-17
-4.32804e-18
-7.71963e-19
-2.73017e-18
-1.96941e-16
2.83923e-16
-8.09662e-17
-2.13311e-16
-1.24307e-16
-1.08319e-16
-1.88425e-16
-7.65436e-17
5.83922e-18
2.85408e-17
-2.84872e-17
9.16945e-17
-4.05929e-17
8.20092e-17
-1.53707e-17
0
1.7465e-17
-1.02659e-17
2.76052e-18
4.33691e-16
-9.05406e-18
-3.34408e-16
2.79866e-16
-2.5276e-16
2.22045e-16
-6.73107e-18
-8.56806e-17
7.53295e-17
3.03438e-17
-3.77363e-18
-7.47765e-17
2.17769e-17
2.28336e-17
-6.97814e-18
7.05774e-18
-1.80895e-17
-1.77968e-18
-4.22705e-18
2.12904e-16
9.0768e-17
1.60665e-16
-1.42309e-16
-1.18815e-16
5.88615e-18
-9.27319e-17
2.24934e-16
7.28063e-18
1.05649e-16
6.2161e-17
-5.52317e-17
0
-3.91109e-17
0
0
2.50007e-17
1.10398e-17
4.93561e-18
2.00239e-16
0
1.58808e-16
1.41391e-16
-1.26593e-16
1.11645e-16
0
-8.82816e-17
-1.22931e-16
-1.07997e-16
-6.27112e-17
5.58562e-17
0
0
0
0
-2.34362e-17
-1.72969e-17
0
-3.92361e-16
0
-7.42502e-18
-6.55521e-18
1.92544e-16
-1.09783e-16
-5.06621e-17
-5.08636e-17
1.24707e-16
0
3.29484e-17
-3.49498e-18
2.94885e-17
0
0
3.88396e-17
-2.88978e-18
2.07681e-17
-7.85425e-18
2.76262e-16
8.03327e-17
-7.95035e-17
-7.0796e-17
-2.48102e-16
1.71495e-16
2.08364e-16
-5.37356e-18
-8.49635e-17
8.38358e-17
1.7675e-17
-8.9561e-17
-7.36135e-17
-4.44184e-17
-4.69937e-17
-4.47736e-17
3.70172e-17
-1.74915e-18
8.0444e-18
-8.5067e-17
3.88864e-17
-1.87729e-16
3.2477e-17
-3.23588e-17
0
-1.0346e-16
-6.87959e-18
-9.59924e-17
7.78777e-18
9.38227e-17
6.95811e-17
-1.70472e-17
7.42291e-18
4.47002e-17
0
-7.6914e-17
-2.81693e-17
-5.8581e-19
1.72634e-16
-4.73768e-18
2.95169e-16
-1.4121e-16
2.70418e-19
3.78088e-18
1.1389e-16
-8.51709e-18
9.30968e-17
-8.72e-17
-8.19989e-17
0
8.14867e-17
6.53087e-17
9.05082e-19
-1.3152e-18
4.15415e-17
2.8633e-17
0
-1.22797e-16
0
-3.01072e-17
1.34474e-16
1.82651e-18
3.10173e-17
-1.1013e-16
1.04262e-16
1.0981e-16
1.05185e-16
1.01068e-16
0
-7.91628e-17
0
4.18545e-18
-4.34696e-18
0
-4.14336e-19
2.0364e-17
8.47817e-17
4.21939e-18
-6.80367e-17
2.09486e-16
-6.73863e-17
0
0
-1.22771e-16
-1.06395e-16
-1.01901e-16
-1.84551e-16
-2.57884e-17
0
0
0
-8.53896e-18
9.03635e-18
5.77438e-17
-2.06742e-17
4.36646e-18
0
-1.45745e-16
-1.33944e-16
1.3996e-16
-1.38897e-16
-1.99217e-16
2.4505e-16
6.7829e-17
0
1.08581e-16
1.22692e-16
-2.64926e-17
1.43781e-16
-2.35403e-17
2.44997e-17
9.51327e-17
-5.48716e-17
0
-1.62056e-16
0
-1.55421e-16
1.52411e-16
0
2.76175e-16
1.29923e-16
-2.72317e-16
2.172e-16
-1.4399e-18
-6.58038e-17
-1.18791e-16
0
1.63379e-16
-2.74029e-16
2.94034e-16
-3.74696e-16
0
0
1.61321e-16
-1.00781e-18
-2.48251e-18
-3.06849e-16
3.09477e-16
-1.4975e-16
1.4914e-16
1.4698e-16
-1.30351e-16
0
0
2.44698e-16
-2.48913e-16
-2.66232e-16
2.63884e-16
-2.57043e-16
2.77992e-16
-4.35435e-16
0
)
;

boundaryField
{
    up
    {
        type            calculated;
        value           nonuniform List<scalar> 
84
(
0
0
0
0
-1.48415e-17
2.67635e-17
-1.11697e-17
8.04439e-18
-7.02563e-18
0
-5.54191e-18
5.2741e-18
-3.66808e-18
3.41166e-19
2.88209e-19
2.65259e-18
0
0
-1.58929e-18
1.18228e-18
1.17847e-18
-1.14429e-18
1.05638e-19
0
4.68124e-19
2.16321e-19
-4.23853e-18
0
5.7669e-18
6.92134e-18
8.98416e-19
-1.55566e-18
6.17812e-19
0
-3.04146e-19
6.39582e-19
-6.01625e-19
9.58995e-19
0
-1.67871e-19
0
0
-8.68576e-20
1.72242e-19
-1.66425e-19
3.30046e-19
-6.27991e-19
6.4269e-19
-1.44448e-20
-6.60987e-19
0
0
0
-7.72877e-18
-1.04389e-18
6.76847e-19
0
-4.45273e-18
-4.29126e-18
3.18922e-18
0
0
-1.27412e-18
2.51068e-18
-2.91091e-18
1.9936e-18
0
5.27544e-19
0
0
-2.73017e-18
2.76052e-18
-4.22705e-18
4.93561e-18
0
-7.85425e-18
8.0444e-18
-5.8581e-19
0
2.0364e-17
-2.06742e-17
0
0
0
)
;
    }
    low
    {
        type            calculated;
        value           nonuniform List<scalar> 
84
(
-3.22954e-16
3.2258e-16
-1.57908e-16
2.48849e-16
4.36191e-17
-1.13351e-17
9.47328e-17
9.61761e-18
0
4.01707e-16
-1.01808e-16
8.46852e-17
-9.38414e-17
-6.06829e-16
9.91817e-17
0
-9.23924e-17
7.4529e-18
-7.13353e-18
-7.42199e-17
3.81333e-17
1.021e-16
1.73738e-16
-1.55133e-16
0
-3.0059e-17
-1.54582e-17
0
-1.41711e-16
-4.00756e-17
-1.35158e-16
-1.46254e-16
1.58261e-16
5.42233e-17
3.72118e-16
2.97992e-17
0
2.49607e-16
2.42597e-16
1.37732e-16
-7.31079e-17
2.98263e-17
2.98273e-17
0
1.18713e-16
2.73496e-16
2.1912e-16
1.99849e-17
0
-5.15585e-16
3.17529e-16
4.35911e-20
4.24292e-20
1.23629e-16
0
-2.92647e-16
0
-1.66128e-17
3.12409e-17
6.42351e-17
9.98296e-17
1.39827e-16
2.85624e-20
3.41877e-16
0
0
-2.57774e-16
2.84169e-16
-2.88379e-16
-9.92672e-17
2.10875e-16
-1.96941e-16
4.34343e-16
2.13371e-16
2.00239e-16
-3.92361e-16
2.7574e-16
-8.45215e-17
1.72634e-16
-1.22577e-16
8.47817e-17
4.7646e-18
-1.62056e-16
1.6143e-16
)
;
    }
    left
    {
        type            calculated;
        value           nonuniform List<scalar> 
19
(
-3.22736e-16
-1.57133e-16
1.59414e-16
3.34644e-18
-3.04088e-16
0
-1.42148e-16
-1.40164e-16
-9.59198e-18
-7.37518e-17
-6.85265e-19
-7.33483e-17
3.25902e-16
-7.25201e-17
3.38921e-16
2.9242e-16
1.73921e-16
2.55068e-16
0
)
;
    }
    right
    {
        type            calculated;
        value           nonuniform List<scalar> 
19
(
1.61321e-16
-8.8963e-19
-2.48251e-18
-3.06848e-16
3.09557e-16
-1.4975e-16
1.4914e-16
1.4698e-16
-1.29893e-16
0
0
2.47018e-16
-2.52179e-16
-2.66232e-16
2.63884e-16
-2.57043e-16
2.77992e-16
-4.7089e-16
0
)
;
    }
    frontAndBackPlanes
    {
        type            empty;
    }
}


// ************************************************************************* //
