/*--------------------------------*- C++ -*----------------------------------*\
  =========                 |
  \\      /  F ield         | OpenFOAM: The Open Source CFD Toolbox
   \\    /   O peration     | Website:  https://openfoam.org
    \\  /    A nd           | Version:  7
     \\/     M anipulation  |
\*---------------------------------------------------------------------------*/
FoamFile
{
    version     2.0;
    format      ascii;
    class       volScalarField;
    location    "0.349";
    object      T;
}
// * * * * * * * * * * * * * * * * * * * * * * * * * * * * * * * * * * * * * //

dimensions      [0 0 0 1 0 0 0];

internalField   nonuniform List<scalar> 
1596
(
0.997769
0.991353
0.984725
0.978334
0.972264
0.966414
0.960644
0.95467
0.948292
0.941042
0.932559
0.922361
0.909299
0.891729
0.867047
0.829367
0.767669
0.659903
0.461906
0.990345
0.970341
0.951275
0.933411
0.916636
0.900608
0.884933
0.869021
0.852377
0.834156
0.813655
0.790033
0.761652
0.726439
0.681752
0.62244
0.540414
0.421676
0.239705
0.981546
0.947871
0.917267
0.88921
0.863167
0.83853
0.814694
0.790893
0.766473
0.740454
0.712037
0.680315
0.64371
0.600373
0.548229
0.483515
0.400938
0.292223
0.141873
0.972837
0.926338
0.885321
0.848324
0.814348
0.782531
0.7521
0.722191
0.692069
0.660732
0.627389
0.591179
0.550719
0.504501
0.451004
0.38759
0.310893
0.216122
0.0942625
0.965585
0.907973
0.857853
0.813091
0.772327
0.734505
0.698729
0.664078
0.629785
0.594864
0.558562
0.520084
0.478237
0.431799
0.379648
0.319918
0.250438
0.168419
0.0685376
0.960688
0.894317
0.83653
0.785074
0.738446
0.695494
0.655258
0.616795
0.579325
0.541891
0.503778
0.464245
0.422242
0.376747
0.326902
0.271326
0.208567
0.136962
0.0532712
0.958287
0.885815
0.821894
0.764742
0.712989
0.66553
0.621405
0.579686
0.5396
0.500223
0.46087
0.420837
0.379169
0.334977
0.287558
0.235834
0.178774
0.115349
0.0435021
0.957875
0.881873
0.81339
0.751516
0.695283
0.643775
0.596122
0.55145
0.509021
0.467948
0.427571
0.38721
0.345974
0.303052
0.257829
0.20941
0.15701
0.0999551
0.0368684
0.958949
0.881637
0.810081
0.744427
0.6843
0.629109
0.578159
0.530684
0.486009
0.443295
0.40191
0.361191
0.320287
0.278433
0.235057
0.189371
0.140728
0.0886509
0.0321575
0.960427
0.883285
0.809966
0.741487
0.678102
0.619627
0.565622
0.515479
0.468619
0.424273
0.381843
0.340686
0.299978
0.258978
0.217131
0.173705
0.128128
0.0800254
0.0286518
0.961654
0.885329
0.811201
0.740761
0.674777
0.613478
0.556716
0.504084
0.455134
0.409187
0.365694
0.324037
0.283415
0.243101
0.202539
0.161023
0.118016
0.0731875
0.0259285
0.963187
0.888116
0.813756
0.741944
0.673858
0.610097
0.550815
0.495828
0.444845
0.397294
0.352691
0.31045
0.269792
0.229998
0.190499
0.150596
0.109757
0.0676592
0.0237635
0.96467
0.891094
0.816891
0.744152
0.674373
0.608479
0.546911
0.489717
0.436778
0.387645
0.341912
0.299035
0.258257
0.218864
0.180269
0.141764
0.102803
0.0630451
0.0219845
0.965645
0.893404
0.819559
0.746236
0.675134
0.60744
0.543855
0.484651
0.42989
0.379258
0.332436
0.28893
0.248012
0.208971
0.171198
0.133968
0.0967059
0.0590393
0.0204646
0.9665
0.895363
0.821881
0.748137
0.675944
0.606687
0.541291
0.480239
0.423771
0.371713
0.323844
0.279725
0.238661
0.199943
0.162943
0.126905
0.0912208
0.0554694
0.0191306
0.967336
0.897178
0.824001
0.749886
0.676723
0.606052
0.538986
0.476205
0.418118
0.364694
0.315811
0.271097
0.229887
0.191482
0.155228
0.120336
0.0861536
0.0522015
0.0179277
0.967957
0.898608
0.825669
0.751196
0.677142
0.605166
0.53655
0.472148
0.412532
0.357809
0.307961
0.262683
0.221352
0.183275
0.147775
0.114026
0.0813204
0.0491133
0.0168078
0.968435
0.899716
0.82693
0.752083
0.677168
0.603954
0.533864
0.467917
0.406836
0.350864
0.300088
0.254272
0.21284
0.175111
0.140387
0.107802
0.0765858
0.046116
0.0157365
0.969195
0.901174
0.828497
0.753224
0.677412
0.602934
0.531355
0.463845
0.401276
0.344026
0.292286
0.245896
0.20433
0.166926
0.132972
0.101564
0.0718635
0.0431516
0.0146925
0.97008
0.902906
0.83037
0.75465
0.677904
0.602125
0.529017
0.459902
0.395797
0.337213
0.284446
0.237418
0.195658
0.158534
0.125332
0.0951187
0.0669898
0.0401145
0.0136418
0.970759
0.904415
0.832054
0.755907
0.678233
0.601151
0.526507
0.455772
0.390102
0.330143
0.276296
0.228568
0.18655
0.149649
0.117168
0.0881708
0.0617067
0.0368316
0.012529
0.971419
0.905857
0.833666
0.757093
0.678486
0.600086
0.523879
0.451482
0.384191
0.322781
0.267764
0.219231
0.176843
0.140056
0.108206
0.0803896
0.0556661
0.0330267
0.011258
0.972145
0.907365
0.835321
0.758296
0.678727
0.598972
0.521155
0.447032
0.378031
0.31506
0.258738
0.209251
0.166331
0.129486
0.0980966
0.0713203
0.0483085
0.0281397
0.00955973
0.972887
0.908855
0.836895
0.759355
0.678767
0.597609
0.518128
0.44221
0.371406
0.306744
0.24896
0.198335
0.154685
0.117567
0.0863958
0.0603838
0.0388186
0.0210562
0.0063706
0.974022
0.911732
0.841086
0.764419
0.684252
0.603069
0.523141
0.446397
0.374456
0.308438
0.249208
0.19719
0.152331
0.114286
0.0825325
0.0563005
0.0349195
0.0178797
0.00478563
0.97525
0.915324
0.846966
0.772413
0.694066
0.61429
0.535268
0.45887
0.386702
0.31993
0.259512
0.206036
0.159633
0.120128
0.0871072
0.0598283
0.0375533
0.0196514
0.00554152
0.975829
0.917317
0.850565
0.777697
0.700984
0.622651
0.544749
0.469041
0.397056
0.329939
0.268687
0.214006
0.166202
0.125295
0.0910267
0.0627192
0.0396066
0.0209659
0.0060761
0.975761
0.917647
0.851754
0.780092
0.704784
0.627891
0.551296
0.476603
0.405213
0.338189
0.276503
0.220927
0.171912
0.129686
0.0942014
0.0649019
0.0410371
0.0218152
0.00640192
0.975251
0.916749
0.851135
0.780314
0.706252
0.630818
0.555697
0.482305
0.411874
0.345336
0.283585
0.227395
0.17732
0.133793
0.0970247
0.0666667
0.0420512
0.0223414
0.00658637
0.974332
0.914898
0.849216
0.77905
0.706182
0.63228
0.55881
0.486981
0.417835
0.352142
0.290675
0.234148
0.183149
0.138276
0.100033
0.0683835
0.042866
0.0226589
0.00667323
0.973158
0.912572
0.846706
0.777158
0.705527
0.633265
0.561618
0.491583
0.424008
0.359489
0.298651
0.242093
0.190346
0.144082
0.104069
0.0706685
0.0438223
0.022902
0.00669856
0.972153
0.910492
0.84448
0.775608
0.705296
0.634787
0.565112
0.497062
0.431306
0.368275
0.308438
0.252239
0.200066
0.15252
0.110482
0.0746821
0.045651
0.0233269
0.00667447
0.971141
0.908462
0.842413
0.774358
0.705531
0.636958
0.569462
0.503646
0.440018
0.378868
0.32053
0.265298
0.213363
0.165108
0.121274
0.0826711
0.0503077
0.0250017
0.00663305
0.970104
0.90652
0.840624
0.773609
0.706495
0.640092
0.575022
0.511719
0.450561
0.391729
0.335468
0.281974
0.231282
0.183526
0.13911
0.0985045
0.0625676
0.0325102
0.00908368
0.968888
0.904098
0.838016
0.77167
0.705868
0.641216
0.578161
0.516996
0.457997
0.40127
0.347016
0.295397
0.246397
0.20004
0.156475
0.115721
0.0779716
0.0437992
0.0137
0.966981
0.899703
0.832177
0.765207
0.699385
0.635136
0.572755
0.512417
0.454312
0.398482
0.345095
0.294294
0.246063
0.200446
0.157613
0.117553
0.0803371
0.0461967
0.0150565
0.964552
0.894007
0.82434
0.756048
0.689491
0.624917
0.562485
0.502266
0.444378
0.388807
0.335697
0.285187
0.237277
0.19205
0.14976
0.1105
0.0744918
0.042125
0.0134372
0.962424
0.88905
0.81755
0.748138
0.68097
0.616143
0.553701
0.493633
0.435999
0.380747
0.328009
0.277928
0.230515
0.18588
0.144313
0.105935
0.0709911
0.0398806
0.0126333
0.960805
0.885179
0.812186
0.741847
0.674165
0.609122
0.546671
0.486735
0.429332
0.374382
0.322004
0.272342
0.225408
0.181323
0.140387
0.102728
0.0685918
0.0383806
0.0121171
0.959537
0.882159
0.80801
0.736959
0.668888
0.603689
0.541245
0.48143
0.42423
0.36954
0.317471
0.268165
0.22163
0.177988
0.137546
0.100429
0.066886
0.0373224
0.0117582
0.958613
0.879968
0.805004
0.733466
0.66514
0.59985
0.537429
0.477716
0.420674
0.366183
0.314346
0.265301
0.219053
0.175723
0.13562
0.0988712
0.0657278
0.0366008
0.0115124
0.957924
0.878512
0.80312
0.731357
0.662937
0.597638
0.535267
0.475642
0.418715
0.364357
0.312669
0.263784
0.217708
0.174558
0.134645
0.0980957
0.0651603
0.036253
0.011397
0.957925
0.878515
0.803124
0.731362
0.662942
0.597644
0.535273
0.475647
0.41872
0.364362
0.312673
0.263788
0.217711
0.174561
0.134648
0.0980976
0.0651617
0.0362539
0.0113973
0.958616
0.879977
0.805017
0.73348
0.665156
0.599866
0.537446
0.477732
0.42069
0.366198
0.31436
0.265313
0.219064
0.175732
0.135628
0.0988778
0.0657326
0.0366037
0.0115134
0.959543
0.882173
0.808029
0.736982
0.668913
0.603715
0.541271
0.481455
0.424254
0.369563
0.317493
0.268184
0.221647
0.178003
0.137558
0.100438
0.0668928
0.0373264
0.0117595
0.960812
0.885197
0.812211
0.741877
0.674198
0.609156
0.546705
0.486768
0.429364
0.374411
0.322031
0.272366
0.225429
0.181341
0.140402
0.102739
0.0685996
0.0383852
0.0121186
0.962433
0.889072
0.817581
0.748175
0.68101
0.616184
0.553743
0.493673
0.436037
0.380783
0.328042
0.277957
0.23054
0.1859
0.144329
0.105947
0.0709992
0.0398852
0.0126347
0.964563
0.894032
0.824375
0.75609
0.689536
0.624964
0.562532
0.502313
0.444422
0.388847
0.335732
0.285218
0.237302
0.192069
0.149774
0.110509
0.0744967
0.0421269
0.0134373
0.966992
0.899731
0.832216
0.765253
0.699435
0.635189
0.572807
0.512468
0.454359
0.398524
0.345131
0.294322
0.246084
0.200457
0.157616
0.117548
0.0803275
0.0461866
0.0150513
0.968901
0.904138
0.83808
0.771754
0.705968
0.641331
0.578287
0.517131
0.458139
0.401417
0.347167
0.295551
0.246552
0.200195
0.15663
0.115873
0.0781099
0.0439064
0.0137476
0.97012
0.906567
0.840699
0.773711
0.70662
0.640239
0.575187
0.5119
0.450755
0.391933
0.33568
0.282192
0.231502
0.183745
0.13932
0.0986947
0.0627226
0.0326131
0.00912148
0.971154
0.908501
0.842477
0.774446
0.705639
0.637086
0.569605
0.503802
0.440184
0.379041
0.320707
0.265475
0.213536
0.165271
0.121417
0.0827857
0.0503853
0.0250403
0.00664036
0.972164
0.910527
0.844539
0.775689
0.705398
0.634907
0.565246
0.497208
0.43146
0.368434
0.308597
0.252395
0.200213
0.15265
0.110589
0.0747612
0.0457004
0.0233508
0.00668068
0.973168
0.912604
0.84676
0.777234
0.705622
0.633376
0.561744
0.491718
0.42415
0.359634
0.298795
0.24223
0.190471
0.144189
0.104153
0.0707285
0.0438597
0.0229213
0.00670416
0.974341
0.914926
0.849265
0.779119
0.70627
0.632383
0.558926
0.487106
0.417966
0.352274
0.290804
0.234268
0.183256
0.138365
0.100103
0.068433
0.0428976
0.022676
0.00667846
0.975258
0.916774
0.851179
0.780377
0.706331
0.630912
0.555804
0.48242
0.411994
0.345456
0.2837
0.227502
0.177414
0.13387
0.0970846
0.0667098
0.0420795
0.0223573
0.00659148
0.975767
0.917669
0.851793
0.780147
0.704856
0.627977
0.551393
0.476708
0.405322
0.338297
0.276607
0.221021
0.171994
0.129754
0.0942545
0.0649409
0.0410635
0.0218306
0.00640718
0.975834
0.917335
0.850598
0.777746
0.701048
0.622728
0.544837
0.469136
0.397154
0.330036
0.268779
0.214091
0.166276
0.125356
0.091075
0.0627557
0.0396324
0.0209817
0.00608192
0.975254
0.915339
0.846995
0.772456
0.694123
0.614358
0.535346
0.458955
0.386789
0.320017
0.259594
0.206111
0.159698
0.120183
0.0871524
0.0598638
0.0375796
0.0196687
0.0055485
0.974022
0.911735
0.841092
0.764428
0.684266
0.603086
0.52316
0.446417
0.374476
0.308457
0.249224
0.197203
0.152339
0.114291
0.0825332
0.0562985
0.0349158
0.0178759
0.00478365
0.972884
0.90885
0.836886
0.759343
0.678752
0.597591
0.518108
0.442189
0.371384
0.306721
0.248937
0.198313
0.154664
0.117547
0.0863771
0.0603672
0.0388049
0.0210465
0.00636637
0.972144
0.907363
0.835318
0.758293
0.678722
0.598967
0.52115
0.447027
0.378028
0.315057
0.258736
0.20925
0.166331
0.129486
0.0980976
0.0713217
0.04831
0.0281409
0.00956015
0.971418
0.905855
0.833664
0.75709
0.678482
0.600082
0.523876
0.451479
0.384188
0.322779
0.267763
0.21923
0.176843
0.140056
0.108207
0.0803907
0.0556671
0.0330274
0.0112582
0.970759
0.904414
0.832053
0.755904
0.67823
0.601149
0.526505
0.45577
0.3901
0.330141
0.276296
0.228568
0.18655
0.149649
0.117169
0.0881715
0.0617073
0.036832
0.0125291
0.97008
0.902905
0.830369
0.754648
0.677902
0.602123
0.529015
0.459901
0.395796
0.337212
0.284446
0.237418
0.195658
0.158534
0.125332
0.0951193
0.0669902
0.0401148
0.0136419
0.969195
0.901173
0.828496
0.753223
0.67741
0.602932
0.531354
0.463844
0.401275
0.344026
0.292286
0.245896
0.20433
0.166926
0.132973
0.101565
0.0718638
0.0431518
0.0146926
0.968435
0.899716
0.826929
0.752082
0.677167
0.603953
0.533864
0.467917
0.406835
0.350864
0.300088
0.254273
0.212841
0.175111
0.140387
0.107802
0.076586
0.0461161
0.0157365
0.967957
0.898607
0.825668
0.751196
0.677141
0.605166
0.53655
0.472148
0.412532
0.357809
0.307962
0.262684
0.221353
0.183276
0.147775
0.114026
0.0813205
0.0491133
0.0168078
0.967336
0.897178
0.824001
0.749885
0.676723
0.606051
0.538986
0.476205
0.418118
0.364694
0.315812
0.271097
0.229887
0.191482
0.155228
0.120337
0.0861537
0.0522016
0.0179277
0.9665
0.895363
0.821881
0.748137
0.675944
0.606687
0.541291
0.480239
0.423771
0.371714
0.323844
0.279725
0.238661
0.199943
0.162943
0.126905
0.0912208
0.0554694
0.0191306
0.965646
0.893404
0.819559
0.746236
0.675134
0.607441
0.543855
0.484652
0.42989
0.379258
0.332436
0.28893
0.248012
0.20897
0.171198
0.133968
0.0967058
0.0590393
0.0204646
0.96467
0.891094
0.816892
0.744152
0.674373
0.60848
0.546912
0.489717
0.436778
0.387645
0.341912
0.299035
0.258257
0.218864
0.180269
0.141764
0.102803
0.0630451
0.0219845
0.963187
0.888117
0.813756
0.741944
0.673858
0.610097
0.550815
0.495828
0.444845
0.397294
0.35269
0.31045
0.269792
0.229998
0.190499
0.150596
0.109757
0.0676592
0.0237635
0.961654
0.885329
0.811202
0.740761
0.674777
0.613478
0.556716
0.504084
0.455134
0.409187
0.365694
0.324037
0.283415
0.243101
0.202539
0.161023
0.118016
0.0731875
0.0259286
0.960427
0.883285
0.809966
0.741487
0.678102
0.619627
0.565621
0.515479
0.468619
0.424273
0.381843
0.340686
0.299978
0.258978
0.217131
0.173705
0.128128
0.0800255
0.0286519
0.958949
0.881637
0.810081
0.744426
0.6843
0.629108
0.578158
0.530684
0.486008
0.443295
0.401909
0.361191
0.320286
0.278432
0.235057
0.189371
0.140728
0.088651
0.0321576
0.957875
0.881873
0.81339
0.751516
0.695283
0.643775
0.596121
0.551449
0.50902
0.467948
0.42757
0.38721
0.345973
0.303051
0.257829
0.20941
0.15701
0.0999552
0.0368685
0.958287
0.885815
0.821894
0.764741
0.712989
0.66553
0.621405
0.579685
0.539599
0.500223
0.460869
0.420836
0.379169
0.334977
0.287557
0.235834
0.178774
0.115349
0.0435022
0.960688
0.894317
0.836529
0.785074
0.738445
0.695494
0.655258
0.616794
0.579324
0.54189
0.503777
0.464245
0.422241
0.376747
0.326902
0.271326
0.208567
0.136962
0.0532712
0.965585
0.907973
0.857852
0.813091
0.772327
0.734504
0.698728
0.664078
0.629784
0.594863
0.558561
0.520084
0.478237
0.431798
0.379648
0.319918
0.250439
0.168419
0.0685376
0.972837
0.926337
0.885321
0.848324
0.814347
0.78253
0.7521
0.72219
0.692068
0.660732
0.627389
0.591178
0.550718
0.504501
0.451003
0.38759
0.310893
0.216121
0.0942625
0.981546
0.94787
0.917267
0.88921
0.863167
0.838529
0.814693
0.790893
0.766473
0.740454
0.712037
0.680315
0.643709
0.600373
0.548229
0.483515
0.400938
0.292223
0.141873
0.990344
0.970341
0.951275
0.933411
0.916636
0.900608
0.884933
0.869021
0.852377
0.834156
0.813654
0.790033
0.761652
0.726438
0.681752
0.62244
0.540414
0.421676
0.239705
0.997769
0.991353
0.984725
0.978334
0.972264
0.966414
0.960644
0.95467
0.948291
0.941042
0.932559
0.922361
0.909299
0.891729
0.867047
0.829367
0.767669
0.659903
0.461906
)
;

boundaryField
{
    up
    {
        type            fixedValue;
        value           uniform 0;
    }
    low
    {
        type            fixedValue;
        value           uniform 1;
    }
    left
    {
        type            fixedValue;
        value           uniform 1;
    }
    right
    {
        type            fixedValue;
        value           uniform 1;
    }
    frontAndBackPlanes
    {
        type            empty;
    }
}


// ************************************************************************* //
