/*--------------------------------*- C++ -*----------------------------------*\
  =========                 |
  \\      /  F ield         | OpenFOAM: The Open Source CFD Toolbox
   \\    /   O peration     | Website:  https://openfoam.org
    \\  /    A nd           | Version:  7
     \\/     M anipulation  |
\*---------------------------------------------------------------------------*/
FoamFile
{
    version     2.0;
    format      ascii;
    class       volScalarField;
    location    "0.16";
    object      T;
}
// * * * * * * * * * * * * * * * * * * * * * * * * * * * * * * * * * * * * * //

dimensions      [0 0 0 1 0 0 0];

internalField   nonuniform List<scalar> 
1596
(
0.996432
0.986246
0.975969
0.96651
0.958178
0.950955
0.944718
0.939112
0.933866
0.928336
0.922021
0.914222
0.903523
0.888058
0.865056
0.828529
0.767469
0.659939
0.461939
0.98463
0.953038
0.923687
0.897484
0.87465
0.854957
0.837993
0.822988
0.80923
0.795483
0.780669
0.763457
0.741612
0.712517
0.673077
0.617798
0.538468
0.421188
0.239727
0.970818
0.917957
0.871135
0.830216
0.794906
0.764648
0.738744
0.716157
0.695894
0.676447
0.656479
0.634412
0.607876
0.574265
0.530824
0.473227
0.395868
0.290437
0.141683
0.957426
0.884968
0.822589
0.768849
0.722819
0.683599
0.650241
0.621539
0.596335
0.573013
0.550142
0.526081
0.498549
0.465144
0.423502
0.370249
0.301508
0.21226
0.0936019
0.946625
0.857595
0.781817
0.716968
0.661638
0.614664
0.574918
0.541095
0.511949
0.48584
0.461321
0.436759
0.410013
0.378894
0.341335
0.294596
0.235828
0.161811
0.0671463
0.939709
0.838056
0.751205
0.676796
0.613277
0.559386
0.51391
0.475511
0.44291
0.414486
0.388808
0.364279
0.338891
0.310631
0.277632
0.237556
0.188138
0.127097
0.0509211
0.936703
0.826709
0.731233
0.648737
0.577955
0.517742
0.466918
0.424181
0.388263
0.35759
0.330764
0.306228
0.282093
0.256483
0.227668
0.193567
0.152243
0.101897
0.0400173
0.936642
0.822272
0.720632
0.631539
0.554389
0.488372
0.432476
0.385506
0.346255
0.313214
0.285028
0.260186
0.236898
0.213401
0.18806
0.158974
0.124398
0.0827785
0.0321373
0.938636
0.823135
0.717586
0.623345
0.540715
0.469404
0.408695
0.357573
0.314938
0.279366
0.249554
0.224037
0.201111
0.179102
0.156456
0.131399
0.10232
0.0677943
0.0261352
0.94101
0.826367
0.718812
0.620886
0.533803
0.457878
0.392781
0.337745
0.291818
0.253681
0.222095
0.195639
0.172686
0.151637
0.131004
0.109122
0.0844776
0.0557297
0.0213724
0.9428
0.829701
0.721447
0.621143
0.530692
0.450987
0.382116
0.323592
0.274647
0.234086
0.200738
0.173234
0.150009
0.129535
0.11038
0.0909741
0.0698925
0.0458594
0.0174967
0.944859
0.833626
0.725323
0.623444
0.5304
0.447573
0.37545
0.313835
0.262154
0.219341
0.184302
0.155714
0.132066
0.111882
0.0937818
0.076277
0.0580202
0.0377968
0.0143302
0.94668
0.837337
0.729308
0.626374
0.531333
0.445965
0.371111
0.306846
0.252788
0.207998
0.17145
0.141863
0.117768
0.0977288
0.0804057
0.0643777
0.0483666
0.0312162
0.0117406
0.947623
0.839632
0.73192
0.628285
0.531761
0.444427
0.367412
0.301029
0.245062
0.198685
0.160935
0.130562
0.106125
0.0862175
0.06953
0.0546978
0.0405038
0.0258474
0.00962563
0.948295
0.841049
0.733391
0.629101
0.531347
0.442425
0.363687
0.295635
0.238191
0.190616
0.15199
0.121082
0.0964621
0.0767426
0.0606322
0.0468111
0.0341134
0.0214896
0.00791084
0.948881
0.841959
0.734008
0.628909
0.529969
0.439654
0.359493
0.290129
0.231582
0.183172
0.143995
0.112818
0.0882091
0.0687813
0.0532518
0.0403338
0.0289032
0.0179556
0.00652719
0.949111
0.842078
0.733497
0.627393
0.527233
0.435647
0.354302
0.283947
0.224659
0.175779
0.136392
0.105237
0.0808641
0.0618731
0.0469796
0.0349202
0.0246053
0.0150702
0.0054085
0.949121
0.841583
0.732048
0.624707
0.523218
0.430388
0.34801
0.276908
0.217181
0.168153
0.128868
0.0980128
0.0740979
0.0556972
0.0415154
0.0303055
0.0210062
0.0126888
0.00449798
0.949619
0.841614
0.730884
0.622006
0.518934
0.424699
0.341238
0.269445
0.209413
0.160423
0.121442
0.0910784
0.0677831
0.0500879
0.0366765
0.0263099
0.0179502
0.0107004
0.00375017
0.950389
0.84215
0.730151
0.619518
0.514621
0.418791
0.334146
0.261654
0.20139
0.152566
0.114042
0.0843237
0.0617803
0.0448869
0.0322968
0.0227741
0.0153002
0.00900716
0.0031254
0.950927
0.842515
0.729283
0.616833
0.510006
0.412489
0.326622
0.25346
0.193052
0.14452
0.106596
0.0776614
0.0559857
0.0399765
0.0282504
0.0195725
0.0129443
0.00752824
0.00259094
0.951554
0.843055
0.728652
0.614377
0.505553
0.406267
0.319114
0.245257
0.184721
0.136528
0.0992701
0.0711839
0.0504297
0.0353372
0.0244808
0.0166251
0.010796
0.00619301
0.00211814
0.952425
0.844078
0.728634
0.612583
0.501743
0.400626
0.312111
0.237491
0.176776
0.128891
0.0922762
0.0650226
0.0451724
0.0309704
0.0209433
0.0138525
0.00875336
0.0049012
0.00165835
0.953463
0.845531
0.729238
0.611545
0.498763
0.395834
0.305934
0.230497
0.169528
0.121863
0.0858026
0.0592908
0.0402574
0.0268615
0.0175763
0.0111518
0.00667098
0.00346448
0.00103767
0.955316
0.849841
0.734983
0.617818
0.504844
0.401228
0.310368
0.233882
0.171909
0.12336
0.0865769
0.059514
0.0400916
0.0264466
0.0170241
0.0105429
0.00607205
0.00295803
0.000770858
0.957454
0.855876
0.744368
0.62973
0.518285
0.415164
0.323879
0.24625
0.182663
0.132276
0.0936328
0.0648514
0.0439535
0.0291249
0.0188106
0.0116912
0.00677483
0.00334447
0.000905424
0.958606
0.859827
0.751232
0.639204
0.529729
0.427734
0.33669
0.258506
0.193744
0.141784
0.101383
0.0708527
0.048363
0.032197
0.0208423
0.0129642
0.00751974
0.00372623
0.00102362
0.958785
0.86158
0.755326
0.645886
0.538767
0.438532
0.348447
0.270384
0.204996
0.151837
0.10987
0.077619
0.0534427
0.0357744
0.0232002
0.0144114
0.00833283
0.00411646
0.00113107
0.958372
0.861865
0.757531
0.650674
0.546222
0.448258
0.359733
0.282374
0.216848
0.162832
0.119476
0.0855214
0.0595351
0.0401466
0.0261017
0.016176
0.00929859
0.00456021
0.00124395
0.957461
0.861154
0.758574
0.654384
0.552877
0.457597
0.371108
0.294931
0.229683
0.175123
0.130559
0.0949297
0.0670146
0.0456593
0.0298237
0.0184429
0.0105178
0.00510324
0.00137617
0.956346
0.860225
0.759476
0.658099
0.559754
0.46744
0.383314
0.308657
0.244005
0.189161
0.14356
0.106312
0.0763786
0.0528088
0.0348005
0.0215223
0.0121569
0.00580718
0.00154173
0.955713
0.860176
0.761457
0.663019
0.56795
0.478734
0.397137
0.324197
0.260358
0.20544
0.158979
0.120221
0.0882634
0.0623056
0.041745
0.0260076
0.0145784
0.00679639
0.00174723
0.955266
0.860613
0.764156
0.668843
0.577217
0.491279
0.412425
0.341457
0.278719
0.224038
0.177029
0.137051
0.103294
0.0750355
0.0517693
0.0330821
0.018764
0.00858463
0.00200523
0.954952
0.861496
0.76757
0.6756
0.58761
0.505146
0.429261
0.360538
0.299229
0.245158
0.198017
0.157274
0.122201
0.092114
0.0665003
0.0449185
0.0272117
0.0134369
0.00349386
0.954521
0.861956
0.770137
0.681052
0.596268
0.516943
0.443828
0.377313
0.317556
0.264365
0.217484
0.17647
0.140684
0.1095
0.0823845
0.0587698
0.0382766
0.0207918
0.00623715
0.953229
0.85989
0.768568
0.680827
0.597848
0.520474
0.449215
0.384291
0.325757
0.27337
0.226874
0.18586
0.149739
0.117946
0.0900153
0.0653966
0.0436769
0.0246018
0.00783903
0.95133
0.856189
0.764393
0.677042
0.594967
0.518742
0.448677
0.38484
0.327189
0.275416
0.229245
0.188273
0.151937
0.119722
0.0912422
0.0660376
0.0438127
0.0244443
0.00769051
0.94988
0.853417
0.761337
0.67437
0.59307
0.517801
0.448709
0.385747
0.328797
0.277505
0.231583
0.190641
0.154142
0.121613
0.0927285
0.0670848
0.0444442
0.0247425
0.00777127
0.949014
0.85172
0.759488
0.672832
0.592118
0.517561
0.449187
0.386862
0.330414
0.279453
0.233686
0.192736
0.156082
0.123286
0.0940656
0.0680552
0.045059
0.025058
0.00787009
0.948405
0.850531
0.758207
0.67179
0.591513
0.517478
0.449627
0.387763
0.331673
0.280945
0.235281
0.194314
0.157537
0.124535
0.0950595
0.068772
0.0455084
0.0252858
0.00794222
0.947952
0.849634
0.757226
0.670968
0.59099
0.517313
0.44982
0.388271
0.332427
0.281858
0.236268
0.195293
0.158438
0.125302
0.0956592
0.0691921
0.0457584
0.0254018
0.00797641
0.947462
0.848778
0.756319
0.670177
0.590397
0.516949
0.449683
0.388333
0.332649
0.282193
0.236667
0.195712
0.158837
0.125652
0.0959398
0.0693937
0.0458823
0.0254624
0.0079963
0.947464
0.848782
0.756325
0.670184
0.590405
0.516958
0.449692
0.388342
0.332658
0.282201
0.236674
0.195719
0.158844
0.125657
0.0959443
0.0693973
0.0458848
0.025464
0.00799683
0.947957
0.849646
0.757244
0.670989
0.591014
0.517338
0.449847
0.388297
0.332453
0.281883
0.236292
0.195315
0.158457
0.125319
0.0956735
0.0692034
0.0457666
0.0254068
0.00797816
0.948412
0.850551
0.758235
0.671824
0.591551
0.517519
0.44967
0.387805
0.331715
0.280985
0.235319
0.194349
0.157568
0.124562
0.095082
0.0687898
0.0455213
0.0252935
0.00794489
0.949025
0.851746
0.759526
0.672878
0.59217
0.517616
0.449244
0.386919
0.33047
0.279506
0.233736
0.192782
0.156123
0.123322
0.0940954
0.0680787
0.0450758
0.0250682
0.00787359
0.949893
0.853449
0.761384
0.674427
0.593134
0.517869
0.44878
0.385818
0.328867
0.277571
0.231645
0.190698
0.154192
0.121656
0.0927648
0.0671133
0.0444647
0.0247548
0.00777546
0.951344
0.856226
0.764447
0.677108
0.595041
0.518822
0.44876
0.384923
0.32727
0.275492
0.229316
0.188338
0.151995
0.119772
0.0912829
0.0660691
0.0438348
0.0244572
0.00769477
0.953245
0.859931
0.768629
0.680902
0.597933
0.520565
0.449309
0.384385
0.325849
0.273456
0.226954
0.185932
0.149801
0.117999
0.0900566
0.0654267
0.0436964
0.024612
0.00784204
0.95454
0.862015
0.770232
0.681176
0.596416
0.517107
0.444003
0.377494
0.317737
0.264542
0.217655
0.176632
0.140836
0.10964
0.0825127
0.0588838
0.0383722
0.0208604
0.00626558
0.954977
0.861567
0.767683
0.675749
0.587787
0.505344
0.429472
0.360756
0.299447
0.245371
0.198221
0.157466
0.122378
0.0922758
0.0666436
0.0450392
0.0273044
0.0134958
0.00351461
0.955286
0.860674
0.764255
0.668974
0.577374
0.491454
0.41261
0.341645
0.278905
0.224216
0.177195
0.137203
0.10343
0.0751526
0.0518654
0.0331546
0.0188112
0.00860792
0.00200993
0.955731
0.860233
0.761551
0.663144
0.568099
0.4789
0.397312
0.324373
0.260529
0.205601
0.159126
0.120352
0.0883756
0.0623979
0.0418164
0.0260576
0.0146086
0.00681053
0.00175065
0.956362
0.860278
0.759564
0.658216
0.559895
0.467596
0.383478
0.308819
0.244161
0.189305
0.143689
0.106424
0.0764712
0.0528822
0.0348548
0.021559
0.0121785
0.00581755
0.00154441
0.957475
0.861202
0.758655
0.654494
0.553009
0.457743
0.37126
0.29508
0.229824
0.175251
0.130671
0.0950244
0.0670912
0.0457182
0.0298661
0.018471
0.0105345
0.00511138
0.00137835
0.958385
0.861908
0.757604
0.650774
0.546343
0.448392
0.359871
0.282509
0.216974
0.162944
0.119573
0.0856015
0.0595986
0.0401944
0.0261356
0.0161983
0.00931187
0.00456685
0.00124579
0.958795
0.861617
0.755391
0.645977
0.538876
0.438652
0.34857
0.270504
0.205107
0.151934
0.109952
0.0776864
0.0534953
0.0358135
0.0232278
0.0144295
0.00834382
0.0041221
0.0011327
0.958615
0.85986
0.75129
0.639283
0.529825
0.427841
0.336799
0.25861
0.19384
0.141868
0.101453
0.0709093
0.0484068
0.0322294
0.0208651
0.0129795
0.00752919
0.00373127
0.00102518
0.957462
0.855904
0.744418
0.629799
0.518369
0.415256
0.323972
0.24634
0.182744
0.132348
0.0936923
0.0648991
0.0439904
0.0291523
0.0188301
0.0117045
0.00678331
0.00334922
0.000907035
0.955316
0.849847
0.734995
0.617836
0.504868
0.401255
0.310396
0.233909
0.171934
0.123383
0.0865964
0.0595299
0.0401039
0.0264556
0.0170301
0.0105466
0.00607377
0.00295842
0.000770637
0.953459
0.845523
0.729227
0.61153
0.498746
0.395816
0.305917
0.230481
0.169514
0.121852
0.0857935
0.0592837
0.0402519
0.0268572
0.0175729
0.011149
0.00666866
0.0034627
0.00103673
0.952425
0.844077
0.728632
0.612581
0.501742
0.400625
0.312111
0.237492
0.176778
0.128893
0.0922786
0.065025
0.0451746
0.0309722
0.0209447
0.0138536
0.00875407
0.00490155
0.00165839
0.951554
0.843054
0.72865
0.614376
0.505552
0.406267
0.319114
0.245258
0.184722
0.13653
0.0992719
0.0711856
0.0504313
0.0353386
0.0244818
0.0166259
0.0107965
0.00619326
0.0021182
0.950927
0.842515
0.729282
0.616832
0.510005
0.412489
0.326623
0.253461
0.193054
0.144521
0.106598
0.0776627
0.0559868
0.0399775
0.0282512
0.0195731
0.0129447
0.00752848
0.002591
0.950389
0.842149
0.73015
0.619517
0.514621
0.418791
0.334146
0.261654
0.201391
0.152567
0.114043
0.0843247
0.0617811
0.0448877
0.0322975
0.0227747
0.0153006
0.00900741
0.00312547
0.949619
0.841614
0.730884
0.622006
0.518934
0.424699
0.341238
0.269445
0.209414
0.160424
0.121442
0.0910792
0.0677839
0.0500887
0.0366771
0.0263105
0.0179507
0.0107007
0.00375024
0.949121
0.841583
0.732048
0.624707
0.523219
0.430389
0.34801
0.276909
0.217181
0.168154
0.128869
0.0980135
0.0740985
0.0556979
0.0415161
0.0303061
0.0210066
0.0126891
0.00449805
0.949111
0.842077
0.733497
0.627393
0.527233
0.435648
0.354302
0.283947
0.22466
0.175779
0.136392
0.105237
0.0808647
0.0618738
0.0469803
0.0349208
0.0246057
0.0150705
0.00540856
0.948881
0.841959
0.734008
0.62891
0.529969
0.439655
0.359493
0.290129
0.231582
0.183172
0.143996
0.112818
0.0882097
0.068782
0.0532525
0.0403343
0.0289036
0.0179558
0.00652722
0.948295
0.841049
0.733392
0.629102
0.531348
0.442425
0.363687
0.295635
0.238191
0.190616
0.151991
0.121082
0.0964628
0.0767432
0.0606328
0.0468115
0.0341137
0.0214897
0.00791085
0.947624
0.839633
0.73192
0.628286
0.531762
0.444428
0.367413
0.301029
0.245062
0.198685
0.160935
0.130563
0.106126
0.086218
0.0695304
0.0546981
0.0405039
0.0258474
0.0096256
0.94668
0.837337
0.729309
0.626375
0.531333
0.445965
0.371111
0.306846
0.252789
0.207998
0.17145
0.141864
0.117768
0.0977291
0.0804058
0.0643776
0.0483664
0.031216
0.0117406
0.944859
0.833626
0.725324
0.623445
0.530401
0.447573
0.37545
0.313835
0.262154
0.219341
0.184302
0.155714
0.132066
0.111882
0.0937815
0.0762766
0.0580197
0.0377965
0.0143301
0.9428
0.829701
0.721448
0.621144
0.530693
0.450987
0.382115
0.323592
0.274647
0.234086
0.200737
0.173233
0.150009
0.129534
0.110379
0.0909732
0.0698917
0.045859
0.0174967
0.94101
0.826368
0.718813
0.620886
0.533803
0.457877
0.392781
0.337745
0.291817
0.253681
0.222094
0.195639
0.172685
0.151636
0.131003
0.109121
0.0844767
0.0557293
0.0213724
0.938637
0.823136
0.717586
0.623344
0.540714
0.469404
0.408694
0.357572
0.314937
0.279365
0.249553
0.224036
0.20111
0.179101
0.156454
0.131398
0.102319
0.0677941
0.0261353
0.936642
0.822272
0.720631
0.631538
0.554388
0.488371
0.432475
0.385505
0.346254
0.313213
0.285027
0.260184
0.236897
0.213399
0.188059
0.158972
0.124397
0.0827783
0.0321375
0.936703
0.826709
0.731232
0.648736
0.577954
0.517741
0.466917
0.42418
0.388262
0.357589
0.330762
0.306226
0.282091
0.256481
0.227666
0.193566
0.152243
0.101897
0.0400175
0.939709
0.838055
0.751205
0.676795
0.613276
0.559385
0.513908
0.47551
0.442908
0.414484
0.388806
0.364277
0.338889
0.310629
0.277631
0.237556
0.188138
0.127097
0.0509213
0.946625
0.857594
0.781816
0.716968
0.661637
0.614663
0.574917
0.541094
0.511947
0.485838
0.461319
0.436757
0.410012
0.378893
0.341334
0.294596
0.235828
0.161812
0.0671465
0.957426
0.884967
0.822588
0.768848
0.722818
0.683598
0.65024
0.621538
0.596333
0.573011
0.55014
0.526079
0.498548
0.465143
0.423502
0.370249
0.301508
0.212261
0.0936019
0.970818
0.917957
0.871135
0.830216
0.794906
0.764648
0.738743
0.716156
0.695893
0.676446
0.656478
0.634411
0.607876
0.574265
0.530824
0.473228
0.395869
0.290437
0.141683
0.984629
0.953038
0.923687
0.897484
0.87465
0.854957
0.837993
0.822987
0.809229
0.795482
0.780669
0.763456
0.741612
0.712517
0.673078
0.617798
0.538468
0.421188
0.239727
0.996432
0.986246
0.975969
0.96651
0.958178
0.950955
0.944718
0.939112
0.933866
0.928336
0.922021
0.914222
0.903523
0.888058
0.865056
0.828529
0.767469
0.659939
0.461939
)
;

boundaryField
{
    up
    {
        type            fixedValue;
        value           uniform 0;
    }
    low
    {
        type            fixedValue;
        value           uniform 1;
    }
    left
    {
        type            fixedValue;
        value           uniform 1;
    }
    right
    {
        type            fixedValue;
        value           uniform 1;
    }
    frontAndBackPlanes
    {
        type            empty;
    }
}


// ************************************************************************* //
