/*--------------------------------*- C++ -*----------------------------------*\
  =========                 |
  \\      /  F ield         | OpenFOAM: The Open Source CFD Toolbox
   \\    /   O peration     | Website:  https://openfoam.org
    \\  /    A nd           | Version:  7
     \\/     M anipulation  |
\*---------------------------------------------------------------------------*/
FoamFile
{
    version     2.0;
    format      ascii;
    class       volScalarField;
    location    "0.03";
    object      T;
}
// * * * * * * * * * * * * * * * * * * * * * * * * * * * * * * * * * * * * * //

dimensions      [0 0 0 1 0 0 0];

internalField   nonuniform List<scalar> 
1596
(
4.92405
4.71809
4.53736
4.40771
4.32788
4.28387
4.26149
4.2497
4.24428
4.24114
4.24114
4.24401
4.24389
4.23074
4.18572
4.06777
3.81068
3.29823
2.31277
4.69027
4.08605
3.60314
3.27037
3.0684
2.95748
2.90108
2.873
2.86096
2.85673
2.86054
2.87233
2.8861
2.89095
2.86628
2.7665
2.52561
2.04956
1.19598
4.46245
3.53098
2.82049
2.34124
2.05268
1.89501
1.81551
1.77757
1.76227
1.75852
1.76498
1.78136
1.80393
1.82568
1.83214
1.78713
1.63614
1.30295
0.683895
4.30048
3.14417
2.27923
1.69961
1.35026
1.15893
1.06252
1.01736
0.99925
0.994751
1.00047
1.01535
1.03744
1.06345
1.08573
1.0807
1.00947
0.813183
0.411648
4.22191
2.94009
1.97918
1.33063
0.935433
0.716444
0.60491
0.552376
0.530491
0.523637
0.526262
0.53624
0.55231
0.573285
0.596194
0.608063
0.584774
0.484986
0.248002
4.20994
2.87913
1.86349
1.16548
0.731859
0.486811
0.359559
0.298445
0.271732
0.261683
0.260703
0.265508
0.274746
0.287951
0.304427
0.318117
0.316047
0.272296
0.144352
4.23593
2.9059
1.86314
1.12821
0.660137
0.38904
0.244835
0.173866
0.14158
0.128142
0.124079
0.125002
0.129108
0.135889
0.145343
0.15507
0.159036
0.142826
0.0795258
4.27604
2.97391
1.92222
1.15981
0.660761
0.363918
0.201917
0.120172
0.081829
0.0650138
0.05854
0.0569895
0.0580112
0.0607881
0.065286
0.0706629
0.0745072
0.0697193
0.041002
4.32015
3.05782
2.00777
1.22471
0.697835
0.375966
0.195773
0.102619
0.0578219
0.0375754
0.029103
0.0260068
0.0253861
0.0260811
0.0278164
0.0302544
0.0325598
0.0316301
0.0196669
4.35434
3.13099
2.0892
1.2933
0.744713
0.401578
0.205082
0.101305
0.0503727
0.0268856
0.0167164
0.0125991
0.0111387
0.0108824
0.0113263
0.0122226
0.0132933
0.0133259
0.00874604
4.37389
3.18071
2.15011
1.34891
0.786254
0.427595
0.218378
0.105922
0.0498185
0.0235559
0.0119849
0.0071421
0.00522812
0.00456238
0.00447759
0.00469825
0.0050907
0.00521711
0.00359839
4.39111
3.21957
2.19742
1.3931
0.820558
0.450381
0.231369
0.112039
0.0517517
0.0232128
0.0105044
0.00511534
0.00292335
0.00207365
0.00179026
0.00175556
0.00185032
0.00190964
0.00137237
4.40194
3.24324
2.22596
1.42001
0.841887
0.464971
0.240055
0.116476
0.0535559
0.0235671
0.0101351
0.00440902
0.00206268
0.00113282
0.000781874
0.000664649
0.000651538
0.00066008
0.00048732
4.40078
3.24377
2.22843
1.4236
0.845493
0.467818
0.241876
0.117399
0.0538612
0.0235154
0.00990534
0.0041001
0.00172131
0.000777175
0.00041326
0.000276853
0.000232515
0.000220019
0.00016248
4.39451
3.22857
2.21039
1.4074
0.833289
0.459723
0.236993
0.114649
0.0523755
0.0227191
0.00946145
0.00382784
0.00152971
0.00062235
0.000273441
0.000140813
9.20445e-05
7.43556e-05
5.19872e-05
4.38495
3.20151
2.17548
1.37413
0.807048
0.441734
0.225956
0.108464
0.049153
0.0211333
0.00870738
0.00347028
0.0013522
0.000523661
0.000208096
8.91062e-05
4.47367e-05
2.79814e-05
1.678e-05
4.36876
3.15921
2.12164
1.32292
0.766697
0.414138
0.209118
0.099122
0.0443638
0.0188364
0.00766022
0.00300877
0.00115109
0.000433696
0.000164059
6.38003e-05
2.68086e-05
1.29237e-05
5.99625e-06
4.34729
3.1033
2.05101
1.25633
0.714729
0.378978
0.187922
0.0875211
0.0385086
0.0160794
0.00643168
0.00248399
0.000933327
0.000344241
0.00012644
4.68147e-05
1.79337e-05
7.28944e-06
2.61235e-06
4.32903
3.04569
1.9746
1.18327
0.657738
0.340692
0.165089
0.0751835
0.0323704
0.0132346
0.00518597
0.00196252
0.000722398
0.000260761
9.34664e-05
3.35234e-05
1.22231e-05
4.54719e-06
1.38197e-06
4.3113
2.9844
1.89147
1.10379
0.596441
0.300215
0.141428
0.0626709
0.0262816
0.010476
0.00400556
0.00148004
0.000532142
0.00018762
6.56352e-05
2.29185e-05
8.08419e-06
2.86751e-06
8.04091e-07
4.2889
2.91311
1.7973
1.01598
0.530579
0.258011
0.117513
0.0504117
0.020497
0.00793317
0.00294931
0.00106077
0.000371583
0.000127718
4.35661e-05
1.48254e-05
5.08679e-06
1.74791e-06
4.71462e-07
4.26753
2.83864
1.69814
0.924675
0.463669
0.216371
0.0946705
0.0390914
0.0153334
0.00573799
0.00206677
0.000721462
0.000245646
8.21626e-05
2.72969e-05
9.05093e-06
3.02554e-06
1.01264e-06
2.6694e-07
4.25154
2.76945
1.60223
0.836034
0.39959
0.177423
0.0739277
0.0291449
0.0109509
0.00393912
0.0013683
0.000461949
0.000152487
4.95453e-05
1.60151e-05
5.17195e-06
1.68468e-06
5.49623e-07
1.42277e-07
4.24293
2.71325
1.51871
0.757128
0.342484
0.143096
0.0559957
0.0207579
0.00735959
0.00250972
0.000830759
0.000268567
8.52523e-05
2.67279e-05
8.35802e-06
2.61328e-06
8.21938e-07
2.54844e-07
5.91403e-08
4.25575
2.71467
1.50453
0.737256
0.325606
0.132122
0.050069
0.0179836
0.00620324
0.00207356
0.000679561
0.000219976
7.07146e-05
2.26815e-05
7.31673e-06
2.37128e-06
7.68966e-07
2.36082e-07
4.47813e-08
4.28293
2.76522
1.55102
0.767672
0.341101
0.138447
0.0521273
0.0184802
0.00626209
0.00205468
0.000663847
0.000214071
6.96447e-05
2.30384e-05
7.81276e-06
2.7092e-06
9.50548e-07
3.14853e-07
6.29644e-08
4.30552
2.82562
1.61966
0.821425
0.373917
0.15494
0.0591527
0.021047
0.00706267
0.00226102
0.000703054
0.00021656
6.76269e-05
2.19276e-05
7.55557e-06
2.78198e-06
1.07704e-06
3.98379e-07
8.7846e-08
4.32265
2.89212
1.70779
0.898998
0.426675
0.184568
0.0734049
0.0270423
0.00929087
0.00299203
0.000911606
0.000265577
7.53575e-05
2.15529e-05
6.63484e-06
2.38063e-06
1.02626e-06
4.54247e-07
1.19101e-07
4.339
2.96509
1.81195
0.997391
0.498717
0.22838
0.0963991
0.0377002
0.0137153
0.0046467
0.00146885
0.000431884
0.000117131
2.87881e-05
6.31162e-06
1.35888e-06
5.43668e-07
3.82892e-07
1.55121e-07
4.35429
3.03986
1.924
1.10913
0.585777
0.285157
0.128594
0.0539487
0.021127
0.00772809
0.00264221
0.000839331
0.000243478
6.14312e-05
1.1481e-05
2.38858e-07
-8.40327e-07
-1.42002e-07
1.56856e-07
4.37048
3.11616
2.04015
1.22949
0.684654
0.353895
0.170504
0.0768711
0.0325493
0.0129641
0.00486761
0.00171785
0.000563305
0.000165789
3.91916e-05
3.55481e-06
-3.09621e-06
-1.88892e-06
-9.44054e-08
4.39442
3.20089
2.16431
1.35995
0.796101
0.435704
0.22376
0.10825
0.0495358
0.0214991
0.00888661
0.00350171
0.00131036
0.000458463
0.000143007
3.25919e-05
-4.90729e-07
-5.25538e-06
-1.41479e-06
4.41961
3.28452
2.28757
1.49362
0.915836
0.528927
0.288693
0.149499
0.0737858
0.0348354
0.015823
0.00694321
0.00294893
0.00120881
0.000471563
0.000164183
4.13797e-05
-6.95625e-07
-5.81569e-06
4.44373
3.36367
2.40657
1.62754
1.04187
0.632989
0.366157
0.202451
0.107512
0.0550741
0.0274015
0.0133249
0.00636749
0.00300281
0.00139986
0.000633432
0.000264599
8.80066e-05
1.07982e-05
4.46325
3.42941
2.50823
1.74647
1.15912
0.734978
0.446515
0.26082
0.147149
0.0805147
0.0430123
0.0225787
0.0117146
0.0060411
0.00311241
0.00158993
0.000782723
0.00033696
7.89838e-05
4.46986
3.4599
2.56115
1.81331
1.22927
0.799625
0.500419
0.302294
0.177038
0.100916
0.0563597
0.0310331
0.0169444
0.00922607
0.00503731
0.0027425
0.00145514
0.000691849
0.000193593
4.46648
3.46372
2.57638
1.83811
1.25911
0.829841
0.527589
0.324636
0.19418
0.113354
0.0650102
0.0368637
0.0207841
0.0117133
0.00662975
0.00374091
0.00205136
0.00100314
0.000288524
4.46475
3.46835
2.5904
1.86009
1.2855
0.856837
0.552251
0.345308
0.210384
0.125385
0.0735862
0.0427952
0.024797
0.0143856
0.00838832
0.00487314
0.0027441
0.00137275
0.000403929
4.466
3.47602
2.60547
1.88104
1.30947
0.880897
0.574128
0.363715
0.224946
0.136343
0.0815259
0.0483921
0.0286638
0.0170184
0.0101598
0.00603763
0.00346934
0.00176524
0.000528254
4.46705
3.48191
2.6169
1.89693
1.32778
0.899437
0.591174
0.37824
0.236602
0.145252
0.0880922
0.0531057
0.0319828
0.0193221
0.0117389
0.00709321
0.00413585
0.00212975
0.000644955
4.46721
3.48462
2.62316
1.90635
1.33914
0.911297
0.602337
0.38794
0.244526
0.15141
0.0927066
0.0564731
0.0343927
0.0210213
0.0129207
0.00789304
0.00464556
0.00241015
0.000735165
4.46468
3.48213
2.62267
1.90817
1.34271
0.915824
0.607058
0.392313
0.24826
0.154411
0.0950156
0.058196
0.0356497
0.0219226
0.0135566
0.00832865
0.00492583
0.00256548
0.000785552
4.4647
3.48217
2.62273
1.90823
1.34277
0.915877
0.607101
0.392347
0.248284
0.154429
0.095028
0.0582045
0.0356555
0.0219265
0.0135593
0.00833045
0.00492699
0.00256614
0.000785775
4.46726
3.48475
2.62333
1.90654
1.33932
0.911454
0.602466
0.38804
0.244599
0.151463
0.0927433
0.0564982
0.0344098
0.0210329
0.0129285
0.00789826
0.00464892
0.00241205
0.000735808
4.46713
3.48211
2.61717
1.89723
1.32807
0.899688
0.591379
0.378398
0.236719
0.145334
0.088149
0.0531444
0.0320088
0.0193394
0.0117505
0.00710088
0.00414073
0.00213249
0.000645873
4.46611
3.4763
2.60584
1.88144
1.30986
0.881234
0.574401
0.363923
0.225098
0.136449
0.0815982
0.0484405
0.0286957
0.0170394
0.0101736
0.0060466
0.00347497
0.00176836
0.000529292
4.46489
3.4687
2.59087
1.8606
1.28598
0.857253
0.552584
0.345559
0.210564
0.125509
0.0736691
0.0428495
0.0248321
0.0144082
0.0084028
0.00488237
0.00274978
0.00137586
0.000404943
4.46664
3.46413
2.57694
1.83871
1.25967
0.830325
0.527971
0.324919
0.19438
0.113488
0.0650982
0.0369199
0.0208195
0.0117355
0.00664358
0.0037495
0.00205654
0.00100593
0.000289426
4.47005
3.46038
2.56181
1.81402
1.22992
0.800179
0.50085
0.302607
0.177253
0.101058
0.0564498
0.0310891
0.0169786
0.00924692
0.00505003
0.00275025
0.00145975
0.000694341
0.000194433
4.46349
3.43011
2.50923
1.74758
1.16017
0.735879
0.447214
0.261323
0.147489
0.080732
0.0431458
0.0226582
0.011761
0.0060679
0.00312793
0.00159902
0.000788054
0.000339883
7.99915e-05
4.44404
3.36449
2.4077
1.62876
1.043
0.633913
0.366845
0.202924
0.107817
0.0552606
0.027511
0.0133873
0.0064025
0.00302229
0.00141074
0.000639545
0.000267955
8.95835e-05
1.11451e-05
4.41988
3.28527
2.28859
1.49469
0.916784
0.529665
0.289211
0.149833
0.073986
0.0349486
0.0158841
0.00697499
0.00296503
0.00121681
0.000475451
0.000165975
4.20527e-05
-6.6101e-07
-6.02464e-06
4.39468
3.20161
2.16529
1.36095
0.796945
0.436329
0.224172
0.108498
0.0496742
0.0215712
0.00892215
0.00351842
0.00131786
0.000461635
0.000144206
3.28839e-05
-6.04387e-07
-5.46832e-06
-1.50953e-06
4.37073
3.11686
2.04108
1.2304
0.685391
0.35441
0.170824
0.0770504
0.0326417
0.0130083
0.00488738
0.00172612
0.000566492
0.000166849
3.94066e-05
3.44347e-06
-3.30723e-06
-2.04461e-06
-1.04523e-07
4.35452
3.04053
1.92486
1.10995
0.586405
0.285571
0.128834
0.054074
0.0211866
0.00775416
0.00265273
0.000843198
0.000244709
6.17037e-05
1.14405e-05
1.15127e-07
-9.59827e-07
-2.03105e-07
1.70659e-07
4.33921
2.96571
1.81273
0.9981
0.499235
0.2287
0.0965723
0.037784
0.0137521
0.00466138
0.00147417
0.00043358
0.000117556
2.88244e-05
6.25519e-06
1.29773e-06
5.02662e-07
3.71809e-07
1.68156e-07
4.32284
2.89268
1.70847
0.899589
0.427082
0.184805
0.0735242
0.0270959
0.00931257
0.00299995
0.000914184
0.000266289
7.54973e-05
2.15495e-05
6.61149e-06
2.36519e-06
1.02179e-06
4.58785e-07
1.26705e-07
4.30568
2.8261
1.62022
0.821895
0.374223
0.155107
0.0592318
0.0210803
0.0070752
0.00226527
0.00070433
0.00021689
6.76957e-05
2.19385e-05
7.55923e-06
2.78719e-06
1.08348e-06
4.0443e-07
9.14544e-08
4.28307
2.76561
1.55147
0.768029
0.341323
0.138563
0.0521793
0.0185009
0.00626954
0.0020571
0.000664574
0.000214278
6.97073e-05
2.30632e-05
7.82671e-06
2.71857e-06
9.56831e-07
3.18515e-07
6.42489e-08
4.25578
2.71477
1.50465
0.737342
0.325654
0.132145
0.0500776
0.0179863
0.00620396
0.0020737
0.000679578
0.000219981
7.07232e-05
2.26905e-05
7.32375e-06
2.37595e-06
7.71615e-07
2.3721e-07
4.49291e-08
4.24288
2.71316
1.5186
0.757024
0.342409
0.14305
0.0559712
0.0207462
0.0073544
0.0025076
0.000829936
0.000268265
8.51462e-05
2.66923e-05
8.3466e-06
2.60979e-06
8.2087e-07
2.54447e-07
5.8997e-08
4.25154
2.76945
1.60223
0.836034
0.39959
0.177423
0.073928
0.0291452
0.0109511
0.00393923
0.00136834
0.000461965
0.000152492
4.95462e-05
1.60151e-05
5.17179e-06
1.68454e-06
5.49523e-07
1.42235e-07
4.26753
2.83864
1.69814
0.924676
0.463668
0.216371
0.0946706
0.0390915
0.0153335
0.00573809
0.00206682
0.000721482
0.000245653
8.21645e-05
2.72972e-05
9.0508e-06
3.02537e-06
1.01253e-06
2.66889e-07
4.2889
2.91311
1.7973
1.01598
0.530578
0.25801
0.117512
0.0504118
0.0204971
0.00793326
0.00294937
0.0010608
0.000371598
0.000127724
4.35685e-05
1.48262e-05
5.08696e-06
1.74793e-06
4.71442e-07
4.3113
2.9844
1.89147
1.10379
0.596441
0.300215
0.141428
0.0626708
0.0262817
0.0104761
0.00400564
0.00148009
0.000532171
0.000187634
6.56419e-05
2.29212e-05
8.08502e-06
2.86781e-06
8.04167e-07
4.32903
3.04569
1.9746
1.18327
0.657738
0.340692
0.165088
0.0751833
0.0323704
0.0132347
0.00518607
0.0019626
0.000722446
0.000260788
9.34792e-05
3.35283e-05
1.22242e-05
4.54775e-06
1.38227e-06
4.34729
3.1033
2.05101
1.25633
0.71473
0.378978
0.187922
0.0875208
0.0385086
0.0160795
0.00643182
0.00248411
0.000933401
0.000344282
0.000126459
4.68197e-05
1.79327e-05
7.29007e-06
2.61352e-06
4.36876
3.15921
2.12164
1.32292
0.766698
0.414138
0.209118
0.0991217
0.0443639
0.0188365
0.00766042
0.00300893
0.00115119
0.00043375
0.000164078
6.37956e-05
2.6797e-05
1.29252e-05
6.00138e-06
4.38496
3.20151
2.17549
1.37413
0.807049
0.441734
0.225956
0.108464
0.0491531
0.0211335
0.00870762
0.00347046
0.00135231
0.000523712
0.000208091
8.9062e-05
4.46953e-05
2.79934e-05
1.68013e-05
4.39451
3.22857
2.21039
1.40741
0.833291
0.459723
0.236994
0.114649
0.0523758
0.0227195
0.00946173
0.00382804
0.00152982
0.000622359
0.000273352
0.000140661
9.19449e-05
7.44241e-05
5.20628e-05
4.40078
3.24377
2.22843
1.4236
0.845495
0.467819
0.241877
0.117399
0.0538618
0.0235159
0.00990566
0.00410027
0.00172135
0.000777051
0.000412959
0.000276479
0.000232357
0.000220297
0.000162702
4.40194
3.24324
2.22596
1.42001
0.841889
0.464973
0.240056
0.116477
0.0535568
0.0235676
0.0101354
0.0044091
0.00206254
0.00113238
0.000781149
0.000663942
0.000651476
0.000660942
0.000487855
4.39112
3.21957
2.19742
1.3931
0.820561
0.450383
0.231372
0.112041
0.0517527
0.0232133
0.0105046
0.00511518
0.00292281
0.00207262
0.00178892
0.00175464
0.00185091
0.00191175
0.00137339
4.37389
3.18072
2.15012
1.34891
0.786258
0.427599
0.218381
0.105924
0.0498196
0.0235563
0.0119848
0.00714151
0.00522692
0.00456058
0.0044758
0.00469789
0.00509305
0.00522114
0.00359984
4.35434
3.131
2.08921
1.2933
0.744718
0.401582
0.205085
0.101307
0.0503735
0.0268856
0.0167158
0.0125978
0.0111367
0.0108801
0.0113251
0.0122246
0.0132987
0.0133316
0.00874721
4.32015
3.05783
2.00778
1.22472
0.697839
0.375969
0.195775
0.102619
0.0578218
0.0375746
0.0291016
0.0260048
0.0253837
0.0260797
0.0278182
0.0302607
0.0325682
0.0316349
0.0196663
4.27604
2.97392
1.92222
1.15982
0.660764
0.36392
0.201918
0.120172
0.081828
0.0650122
0.058538
0.0569873
0.0580099
0.06079
0.065293
0.0706739
0.0745153
0.0697179
0.0409983
4.23593
2.9059
1.86314
1.12821
0.660138
0.38904
0.244834
0.173864
0.141578
0.12814
0.124077
0.125001
0.12911
0.135896
0.145355
0.155081
0.159036
0.142814
0.0795192
4.20994
2.87913
1.86349
1.16548
0.731857
0.486808
0.359556
0.298442
0.271729
0.26168
0.260701
0.265509
0.274752
0.287962
0.304438
0.318119
0.316033
0.272274
0.144347
4.22191
2.94009
1.97918
1.33063
0.935429
0.716439
0.604905
0.552372
0.530487
0.523634
0.526262
0.536242
0.552316
0.573293
0.596195
0.608049
0.584747
0.484965
0.248002
4.30048
3.14416
2.27923
1.69961
1.35026
1.15893
1.06252
1.01736
0.999246
0.994748
1.00046
1.01535
1.03745
1.06345
1.08572
1.08068
1.00944
0.813178
0.411654
4.46245
3.53097
2.82048
2.34123
2.05267
1.895
1.8155
1.77757
1.76226
1.75852
1.76497
1.78136
1.80393
1.82567
1.83212
1.78711
1.63613
1.30297
0.683903
4.69027
4.08605
3.60314
3.27037
3.06839
2.95748
2.90108
2.873
2.86095
2.85673
2.86054
2.87233
2.88609
2.89094
2.86626
2.7665
2.52562
2.04959
1.19598
4.92405
4.71809
4.53736
4.40771
4.32787
4.28387
4.26149
4.2497
4.24427
4.24113
4.24114
4.24401
4.24388
4.23074
4.18571
4.06778
3.81069
3.29823
2.31277
)
;

boundaryField
{
    up
    {
        type            fixedValue;
        value           uniform 0;
    }
    low
    {
        type            fixedValue;
        value           uniform 5;
    }
    left
    {
        type            fixedValue;
        value           uniform 5;
    }
    right
    {
        type            fixedValue;
        value           uniform 5;
    }
    frontAndBackPlanes
    {
        type            empty;
    }
}


// ************************************************************************* //
