/*--------------------------------*- C++ -*----------------------------------*\
  =========                 |
  \\      /  F ield         | OpenFOAM: The Open Source CFD Toolbox
   \\    /   O peration     | Website:  https://openfoam.org
    \\  /    A nd           | Version:  7
     \\/     M anipulation  |
\*---------------------------------------------------------------------------*/
FoamFile
{
    version     2.0;
    format      ascii;
    class       volScalarField;
    location    "0.035";
    object      gradTy;
}
// * * * * * * * * * * * * * * * * * * * * * * * * * * * * * * * * * * * * * //

dimensions      [0 -1 0 1 0 0 0];

internalField   nonuniform List<scalar> 
1596
(
-2.92726
-5.15779
-6.54968
-7.47752
-8.05466
-8.579
-9.01316
-9.52306
-10.0949
-10.6686
-11.4725
-12.3361
-13.514
-15.2774
-18.4246
-23.8693
-34.5636
-55.1785
-130.129
-8.48003
-9.65503
-9.62585
-9.16727
-8.63261
-8.36825
-8.30043
-8.48319
-8.83388
-9.22815
-9.8404
-10.5182
-11.4474
-12.7696
-14.9806
-18.3133
-23.8855
-32.5589
-57.5898
-14.0212
-13.3437
-11.7369
-9.96893
-8.44985
-7.48318
-6.95467
-6.82071
-6.94145
-7.15667
-7.57452
-8.05573
-8.72633
-9.66578
-11.2307
-13.512
-17.2129
-22.7128
-34.6488
-18.5789
-16.0946
-13.115
-10.2669
-7.94934
-6.39807
-5.47556
-5.06088
-4.97294
-5.03183
-5.27858
-5.58967
-6.03762
-6.66251
-7.71623
-9.2433
-11.7339
-15.4017
-21.9165
-21.6228
-17.9811
-14.0639
-10.4422
-7.52638
-5.51071
-4.26148
-3.60737
-3.34053
-3.27016
-3.37767
-3.55412
-3.82869
-4.21494
-4.87963
-5.85169
-7.4822
-9.93398
-13.8752
-23.1629
-19.1574
-14.7907
-10.7059
-7.3761
-5.00213
-3.48222
-2.62362
-2.20452
-2.02767
-2.0267
-2.10234
-2.2515
-2.46984
-2.85687
-3.43217
-4.43794
-6.01367
-8.48749
-23.5475
-19.7669
-15.3617
-11.0837
-7.4997
-4.85871
-3.11421
-2.07864
-1.52808
-1.26165
-1.17772
-1.1808
-1.24514
-1.35458
-1.55997
-1.87192
-2.44506
-3.39263
-4.91307
-23.188
-19.9152
-15.7472
-11.4881
-7.78794
-4.96431
-3.03969
-1.85269
-1.18825
-0.845116
-0.697654
-0.64958
-0.659575
-0.703736
-0.80114
-0.954454
-1.25294
-1.77829
-2.6618
-22.4368
-19.7932
-16.0039
-11.8926
-8.1692
-5.22396
-3.15203
-1.83177
-1.06501
-0.653014
-0.454486
-0.369346
-0.345058
-0.352216
-0.390931
-0.458049
-0.599194
-0.865885
-1.34276
-21.4435
-19.336
-15.9698
-12.1028
-8.45556
-5.47237
-3.31121
-1.89527
-1.04942
-0.582188
-0.344727
-0.23328
-0.187743
-0.174793
-0.184032
-0.208712
-0.268553
-0.391818
-0.629091
-20.6107
-18.8005
-15.7676
-12.1459
-8.61873
-5.65382
-3.45233
-1.97697
-1.07621
-0.568366
-0.302689
-0.172963
-0.114279
-0.0905545
-0.0858865
-0.0915953
-0.113721
-0.165426
-0.273867
-19.8315
-18.2989
-15.5268
-12.112
-8.70415
-5.77873
-3.56372
-2.0528
-1.11484
-0.577898
-0.292105
-0.149704
-0.0827545
-0.0531643
-0.0421365
-0.0399731
-0.04621
-0.0655889
-0.110988
-19.0068
-17.7065
-15.153
-11.9229
-8.64226
-5.78644
-3.59519
-2.08269
-1.13326
-0.584233
-0.289103
-0.140488
-0.0695136
-0.0372232
-0.0235662
-0.0184366
-0.0186168
-0.0247567
-0.0420791
-18.3907
-17.1622
-14.73
-11.6289
-8.45783
-5.68313
-3.54215
-2.057
-1.12022
-0.576077
-0.282463
-0.134017
-0.0627633
-0.0300675
-0.0157509
-0.00976073
-0.00792633
-0.00918298
-0.0151169
-17.9065
-16.7032
-14.3122
-11.2787
-8.18827
-5.4933
-3.41812
-1.98133
-1.07634
-0.55132
-0.26852
-0.125752
-0.05733
-0.0259574
-0.0121281
-0.00620765
-0.00389669
-0.00356509
-0.00528961
-17.4867
-16.3012
-13.9018
-10.8864
-7.84901
-5.22985
-3.23219
-1.86114
-1.00424
-0.510622
-0.246632
-0.114239
-0.0512185
-0.0225134
-0.00991775
-0.0045298
-0.00231476
-0.00158776
-0.00190836
-17.1843
-15.9583
-13.4963
-10.4534
-7.44524
-4.89968
-2.99122
-1.70204
-0.907815
-0.456284
-0.217828
-0.0996299
-0.0440124
-0.0189631
-0.00808788
-0.00348046
-0.00157683
-0.000855678
-0.000774505
-17.0088
-15.6957
-13.115
-9.99999
-6.99856
-4.52349
-2.71271
-1.51714
-0.795845
-0.393591
-0.184965
-0.0832721
-0.0361881
-0.0153098
-0.00638107
-0.00265288
-0.00112804
-0.000532617
-0.00037602
-16.8495
-15.5196
-12.7999
-9.57576
-6.55587
-4.14082
-2.42671
-1.32711
-0.681278
-0.329978
-0.151979
-0.0670838
-0.0285863
-0.0118529
-0.00483373
-0.0019574
-0.000800936
-0.000350752
-0.000211773
-16.681
-15.3741
-12.5096
-9.15451
-6.1033
-3.74733
-2.13444
-1.13532
-0.567477
-0.267923
-0.120417
-0.0519108
-0.0216176
-0.00876194
-0.00349193
-0.00137973
-0.000548227
-0.00022937
-0.000127059
-16.6223
-15.2951
-12.2516
-8.73707
-5.64306
-3.34794
-1.84208
-0.947397
-0.458591
-0.210032
-0.0917228
-0.0384742
-0.0156082
-0.00616817
-0.00239805
-0.00092419
-0.000357568
-0.000144601
-7.61011e-05
-16.6123
-15.288
-12.0438
-8.3442
-5.19536
-2.95988
-1.56254
-0.771862
-0.359604
-0.158906
-0.0671183
-0.0272888
-0.0107506
-0.00413203
-0.00156425
-0.000587429
-0.000221414
-8.69176e-05
-4.40794e-05
-16.5853
-15.3302
-11.8959
-7.99926
-4.78413
-2.60156
-1.30759
-0.615197
-0.273606
-0.115796
-0.0470113
-0.0184346
-0.00702586
-0.00261923
-0.000963809
-0.000352405
-0.000129466
-4.94467e-05
-2.42632e-05
-16.5109
-15.385
-11.7985
-7.71362
-4.42649
-2.2858
-1.08389
-0.479579
-0.200616
-0.0800766
-0.0307758
-0.0114795
-0.00418051
-0.00149519
-0.000529486
-0.000186921
-6.64984e-05
-2.4673e-05
-1.13061e-05
-16.4048
-15.519
-11.9554
-7.78368
-4.4158
-2.2389
-1.03702
-0.446659
-0.181818
-0.0708563
-0.0267453
-0.00989303
-0.00361105
-0.0013097
-0.000475403
-0.000174124
-6.50532e-05
-2.57728e-05
-1.18718e-05
-16.2722
-15.6649
-12.2611
-8.10058
-4.65339
-2.37997
-1.10643
-0.475391
-0.191854
-0.0737786
-0.0274127
-0.0100021
-0.00362596
-0.00132125
-0.000488836
-0.000185487
-7.31283e-05
-3.12764e-05
-1.58716e-05
-16.2147
-15.7565
-12.544
-8.47216
-4.98844
-2.61538
-1.24345
-0.543599
-0.221474
-0.0851249
-0.0312397
-0.0111362
-0.00391488
-0.0013835
-0.000501472
-0.000190335
-7.76782e-05
-3.61115e-05
-2.06917e-05
-16.2699
-15.8087
-12.7871
-8.87295
-5.40846
-2.94876
-1.46052
-0.664433
-0.280492
-0.110837
-0.0412856
-0.0146757
-0.00502601
-0.00168546
-0.000565764
-0.000196664
-7.54511e-05
-3.66098e-05
-2.46877e-05
-16.4208
-15.878
-13.0367
-9.32002
-5.91671
-3.38517
-1.76818
-0.85057
-0.379887
-0.15856
-0.0620724
-0.0229717
-0.00805125
-0.00268305
-0.000849952
-0.000255063
-7.36134e-05
-2.81721e-05
-2.3879e-05
-16.6753
-15.9891
-13.31
-9.80738
-6.49497
-3.91065
-2.1635
-1.10759
-0.528364
-0.236235
-0.0992587
-0.0394621
-0.01484
-0.0052768
-0.00175217
-0.000520528
-0.000114645
-8.32393e-06
-6.76953e-06
-17.0527
-16.2006
-13.6661
-10.3678
-7.15322
-4.52723
-2.65105
-1.44486
-0.737573
-0.354688
-0.16113
-0.0696727
-0.0287
-0.0112863
-0.00420476
-0.00143849
-0.000375562
-1.13885e-05
5.06315e-05
-17.404
-16.4878
-14.1121
-11.0113
-7.89729
-5.23975
-3.23925
-1.87542
-1.02297
-0.528777
-0.259862
-0.122443
-0.0554636
-0.0242903
-0.010291
-0.00418959
-0.00147696
-0.000279213
0.000144111
-17.8387
-16.882
-14.6457
-11.721
-8.70645
-6.03243
-3.92252
-2.4045
-1.39745
-0.774546
-0.410877
-0.210501
-0.104563
-0.050767
-0.0242398
-0.0115243
-0.00522097
-0.00191732
4.79544e-05
-18.4349
-17.4278
-15.298
-12.5216
-9.60197
-6.9263
-4.72499
-3.06122
-1.894
-1.12577
-0.645733
-0.360878
-0.197661
-0.107231
-0.0583076
-0.0325621
-0.0187768
-0.0111453
-0.00620227
-19.1295
-18.0434
-15.9476
-13.2594
-10.4114
-7.74804
-5.48923
-3.71634
-2.41629
-1.51669
-0.923412
-0.549946
-0.322284
-0.18763
-0.109825
-0.0661719
-0.0420052
-0.0290391
-0.0218108
-19.977
-18.7032
-16.5278
-13.8295
-10.9906
-8.32133
-6.02477
-4.18594
-2.80365
-1.81874
-1.14844
-0.711295
-0.43474
-0.264583
-0.162334
-0.102586
-0.0686492
-0.0507801
-0.0426786
-21.0043
-19.4632
-17.1374
-14.3584
-11.4711
-8.76118
-6.41821
-4.52513
-3.08418
-2.04127
-1.31897
-0.838301
-0.527487
-0.331731
-0.21138
-0.139419
-0.0977773
-0.0754557
-0.0650282
-21.9308
-20.1561
-17.6888
-14.8266
-11.8876
-9.13824
-6.75589
-4.81923
-3.33148
-2.24169
-1.47622
-0.958552
-0.617856
-0.399248
-0.262408
-0.179224
-0.130563
-0.104468
-0.0925978
-22.642
-20.7286
-18.163
-15.2365
-12.2543
-9.47035
-7.05377
-5.07984
-3.55239
-2.42273
-1.62033
-1.07068
-0.703864
-0.465058
-0.313545
-0.220353
-0.165521
-0.136266
-0.123418
-23.2052
-21.1863
-18.543
-15.5639
-12.5457
-9.7336
-7.29011
-5.28758
-3.72987
-2.56974
-1.7389
-1.16438
-0.777037
-0.52222
-0.359027
-0.257875
-0.198226
-0.166654
-0.153319
-23.6217
-21.5188
-18.8118
-15.7902
-12.7442
-9.91199
-7.45045
-5.42931
-3.85201
-2.67198
-1.82238
-1.23126
-0.830087
-0.564392
-0.393243
-0.286683
-0.223829
-0.190807
-0.177301
-23.9234
-21.7131
-18.9491
-15.8972
-12.835
-9.99339
-7.52465
-5.49626
-3.91097
-2.72237
-1.86434
-1.2655
-0.857741
-0.586766
-0.411722
-0.302518
-0.238138
-0.204507
-0.191073
-23.9235
-21.7133
-18.9494
-15.8976
-12.8355
-9.99385
-7.52508
-5.49664
-3.91129
-2.72263
-1.86455
-1.26566
-0.857861
-0.586858
-0.411793
-0.302575
-0.238187
-0.204552
-0.191119
-23.6218
-21.5193
-18.8126
-15.7913
-12.7455
-9.91328
-7.45168
-5.43042
-3.85295
-2.67274
-1.82298
-1.23172
-0.830438
-0.564658
-0.393449
-0.286848
-0.22397
-0.190939
-0.177435
-23.2055
-21.187
-18.5443
-15.5657
-12.5477
-9.73568
-7.29209
-5.28935
-3.73137
-2.57095
-1.73984
-1.16509
-0.777576
-0.522625
-0.359336
-0.258119
-0.198433
-0.166844
-0.153509
-22.6423
-20.7296
-18.1647
-15.2388
-12.2569
-9.47311
-7.05639
-5.08216
-3.55433
-2.42429
-1.62154
-1.07159
-0.704534
-0.465552
-0.313914
-0.220639
-0.165756
-0.136478
-0.123627
-21.9311
-20.1572
-17.6908
-14.8294
-11.8909
-9.14161
-6.75907
-4.82203
-3.3338
-2.24353
-1.47762
-0.959585
-0.618606
-0.399789
-0.262802
-0.179521
-0.1308
-0.104676
-0.0927992
-21.0047
-19.4645
-17.1397
-14.3617
-11.4748
-8.76506
-6.42185
-4.5283
-3.08677
-2.04329
-1.32047
-0.839387
-0.528256
-0.33227
-0.211761
-0.139697
-0.0979918
-0.0756382
-0.0652016
-19.9774
-18.7048
-16.5307
-13.8335
-10.9953
-8.32619
-6.02928
-4.18981
-2.80675
-1.8211
-1.15016
-0.7125
-0.435569
-0.265147
-0.162721
-0.102858
-0.0688515
-0.0509453
-0.0428325
-19.1298
-18.0443
-15.9499
-13.2632
-10.4164
-7.75352
-5.49455
-3.72101
-2.42007
-1.51954
-0.925445
-0.55133
-0.323194
-0.188212
-0.110192
-0.0664043
-0.0421612
-0.029165
-0.0219497
-18.4353
-17.4299
-15.3021
-12.5277
-9.60921
-6.93373
-4.73179
-3.06687
-1.89835
-1.12891
-0.647877
-0.362288
-0.198561
-0.107797
-0.0586643
-0.0327942
-0.0189425
-0.0112803
-0.00631399
-17.8389
-16.8833
-14.6489
-11.7259
-8.71227
-6.03825
-3.92762
-2.40852
-1.40034
-0.776479
-0.412091
-0.211228
-0.104983
-0.0510024
-0.0243706
-0.0115996
-0.00526833
-0.00194739
4.95465e-05
-17.4041
-16.4891
-14.1152
-11.0161
-7.90278
-5.24502
-3.24365
-1.87868
-1.02518
-0.530152
-0.260664
-0.122887
-0.0556987
-0.0244112
-0.0103528
-0.00422201
-0.00149249
-0.000281937
0.000151107
-17.0527
-16.2018
-13.6691
-10.3723
-7.15828
-4.53187
-2.65472
-1.44742
-0.739193
-0.355628
-0.161638
-0.0699308
-0.0288248
-0.0113445
-0.00423162
-0.00145098
-0.000379428
-7.97073e-06
5.53767e-05
-16.6752
-15.9902
-13.3129
-9.81164
-6.49957
-3.91467
-2.16649
-1.10955
-0.529519
-0.236858
-0.0995689
-0.0396069
-0.0149036
-0.00530332
-0.00176286
-0.000524574
-0.000114995
-5.82045e-06
-4.95345e-06
-16.4207
-15.8789
-13.0394
-9.32393
-5.92077
-3.38853
-1.77054
-0.852018
-0.380682
-0.158957
-0.062255
-0.0230497
-0.00808217
-0.00269442
-0.000853773
-0.000256051
-7.32857e-05
-2.70692e-05
-2.35281e-05
-16.2698
-15.8095
-12.7896
-8.87644
-5.41192
-2.95148
-1.46231
-0.665459
-0.281018
-0.111081
-0.0413893
-0.0147162
-0.00504055
-0.00169016
-0.000567053
-0.000196842
-7.52493e-05
-3.62984e-05
-2.47979e-05
-16.2146
-15.7572
-12.5462
-8.47514
-4.99127
-2.61747
-1.24475
-0.544301
-0.221812
-0.0852717
-0.031298
-0.0111575
-0.00392201
-0.00138567
-0.000502061
-0.000190457
-7.76815e-05
-3.61182e-05
-2.08609e-05
-16.2721
-15.6655
-12.2629
-8.10293
-4.65552
-2.38148
-1.10733
-0.475851
-0.192065
-0.073866
-0.027446
-0.010014
-0.00362993
-0.00132256
-0.000489283
-0.000185662
-7.32217e-05
-3.13546e-05
-1.59766e-05
-16.4049
-15.5192
-11.9559
-7.78435
-4.41638
-2.23928
-1.03724
-0.446759
-0.18186
-0.0708725
-0.0267511
-0.00989519
-0.00361193
-0.00131012
-0.000475631
-0.000174258
-6.51393e-05
-2.58344e-05
-1.1912e-05
-16.5109
-15.3848
-11.7981
-7.71304
-4.4259
-2.28532
-1.08356
-0.479379
-0.200509
-0.0800233
-0.0307512
-0.0114688
-0.00417607
-0.00149342
-0.000528795
-0.000186658
-6.64009e-05
-2.46365e-05
-1.12879e-05
-16.5853
-15.3302
-11.896
-7.9993
-4.78416
-2.60158
-1.3076
-0.615202
-0.27361
-0.115798
-0.0470125
-0.0184353
-0.00702615
-0.00261934
-0.000963854
-0.000352421
-0.000129471
-4.94477e-05
-2.42625e-05
-16.6123
-15.288
-12.0438
-8.34421
-5.19537
-2.95987
-1.56253
-0.77186
-0.359604
-0.158906
-0.0671188
-0.0272892
-0.0107508
-0.00413215
-0.0015643
-0.000587451
-0.000221422
-8.69196e-05
-4.40787e-05
-16.6223
-15.2951
-12.2516
-8.73708
-5.64306
-3.34794
-1.84208
-0.947394
-0.45859
-0.210032
-0.091723
-0.0384745
-0.0156085
-0.00616835
-0.00239815
-0.00092424
-0.00035759
-0.00014461
-7.61046e-05
-16.681
-15.3741
-12.5096
-9.15452
-6.10331
-3.74733
-2.13444
-1.13532
-0.567476
-0.267923
-0.120417
-0.0519111
-0.021618
-0.00876221
-0.00349211
-0.00137983
-0.000548268
-0.000229387
-0.000127072
-16.8495
-15.5196
-12.7999
-9.57578
-6.55588
-4.14083
-2.42671
-1.32711
-0.681276
-0.329976
-0.151979
-0.0670841
-0.0285868
-0.0118533
-0.00483402
-0.00195755
-0.000800981
-0.000350768
-0.000211805
-17.0088
-15.6956
-13.115
-10
-6.99857
-4.52349
-2.71271
-1.51714
-0.795842
-0.39359
-0.184965
-0.0832725
-0.0361888
-0.0153104
-0.00638149
-0.00265306
-0.00112801
-0.000532591
-0.000376113
-17.1843
-15.9582
-13.4962
-10.4534
-7.44526
-4.89969
-2.99122
-1.70204
-0.907812
-0.456282
-0.217828
-0.0996306
-0.0440133
-0.018964
-0.00808842
-0.00348054
-0.00157646
-0.000855528
-0.000774846
-17.4867
-16.3012
-13.9018
-10.8864
-7.84903
-5.22986
-3.2322
-1.86114
-1.00423
-0.510622
-0.246633
-0.11424
-0.0512198
-0.0225145
-0.00991831
-0.00452935
-0.0023134
-0.00158743
-0.00190963
-17.9065
-16.7032
-14.3122
-11.2787
-8.18828
-5.49331
-3.41813
-1.98133
-1.07634
-0.551321
-0.268521
-0.125754
-0.0573317
-0.0259588
-0.0121283
-0.00620568
-0.00389313
-0.00356493
-0.00529375
-18.3907
-17.1622
-14.7301
-11.6289
-8.45784
-5.68314
-3.54216
-2.05701
-1.12023
-0.57608
-0.282466
-0.13402
-0.0627658
-0.0300692
-0.01575
-0.00975541
-0.00791892
-0.0091846
-0.0151282
-19.0068
-17.7065
-15.153
-11.9229
-8.64227
-5.78644
-3.5952
-2.0827
-1.13327
-0.584239
-0.289107
-0.140492
-0.0695171
-0.0372248
-0.0235624
-0.0184254
-0.0186046
-0.0247644
-0.0421045
-19.8315
-18.2989
-15.5268
-12.112
-8.70415
-5.77873
-3.56373
-2.05281
-1.11485
-0.577906
-0.292111
-0.14971
-0.0827588
-0.0531642
-0.042127
-0.0399539
-0.0461958
-0.0656102
-0.111033
-20.6107
-18.8005
-15.7676
-12.1459
-8.61875
-5.65383
-3.45235
-1.97699
-1.07622
-0.568377
-0.302698
-0.17297
-0.114283
-0.0905494
-0.0858683
-0.0915705
-0.113715
-0.165467
-0.273927
-21.4434
-19.336
-15.9699
-12.1029
-8.45557
-5.47239
-3.31123
-1.89529
-1.04944
-0.5822
-0.344736
-0.233286
-0.187742
-0.174777
-0.184004
-0.208692
-0.268571
-0.391874
-0.629135
-22.4368
-19.7932
-16.0039
-11.8926
-8.16921
-5.22397
-3.15204
-1.83178
-1.06502
-0.653023
-0.454492
-0.369345
-0.345043
-0.352185
-0.390897
-0.458052
-0.599254
-0.86593
-1.34274
-23.188
-19.9152
-15.7472
-11.4881
-7.78795
-4.96432
-3.0397
-1.8527
-1.18826
-0.845119
-0.697651
-0.649565
-0.659541
-0.70369
-0.801117
-0.954499
-1.25304
-1.77828
-2.66165
-23.5475
-19.7669
-15.3617
-11.0837
-7.4997
-4.85871
-3.11422
-2.07864
-1.52808
-1.26164
-1.17771
-1.18076
-1.24509
-1.35454
-1.55997
-1.872
-2.44516
-3.39252
-4.91282
-23.1629
-19.1574
-14.7907
-10.7059
-7.37611
-5.00213
-3.48222
-2.62361
-2.20451
-2.02765
-2.02667
-2.10229
-2.25145
-2.46982
-2.85692
-3.43228
-4.43799
-6.0135
-8.48725
-21.6228
-17.9811
-14.0639
-10.4422
-7.52639
-5.5107
-4.26147
-3.60736
-3.34051
-3.27013
-3.37763
-3.55407
-3.82866
-4.21497
-4.87972
-5.85176
-7.48215
-9.93383
-13.8751
-18.579
-16.0947
-13.115
-10.2669
-7.94934
-6.39806
-5.47554
-5.06086
-4.97291
-5.03179
-5.27854
-5.58964
-6.03763
-6.66258
-7.71633
-9.24331
-11.7338
-15.4017
-21.9166
-14.0213
-13.3437
-11.7369
-9.96893
-8.44984
-7.48317
-6.95466
-6.82069
-6.94143
-7.15664
-7.57449
-8.05573
-8.72638
-9.66587
-11.2308
-13.5119
-17.2128
-22.7128
-34.649
-8.48006
-9.65505
-9.62586
-9.16727
-8.63261
-8.36825
-8.30043
-8.48318
-8.83387
-9.22815
-9.84041
-10.5182
-11.4474
-12.7697
-14.9806
-18.3132
-23.8854
-32.559
-57.5899
-2.92727
-5.1578
-6.54968
-7.47753
-8.05466
-8.579
-9.01316
-9.52306
-10.0949
-10.6686
-11.4726
-12.3362
-13.514
-15.2774
-18.4246
-23.8692
-34.5635
-55.1784
-130.129
)
;

boundaryField
{
    up
    {
        type            calculated;
        value           nonuniform List<scalar> 
84
(
-118.033
-63.7835
-38.1659
-24.1375
-15.3356
-9.42729
-5.48332
-2.98217
-1.50788
-0.707223
-0.307622
-0.124325
-0.0469139
-0.0167031
-0.00574277
-0.00200193
-0.000767605
-0.000348719
-0.000186261
-0.000108066
-6.3364e-05
-3.61295e-05
-1.95151e-05
-8.32356e-06
-8.41533e-06
-1.27173e-05
-1.77574e-05
-2.3437e-05
-2.74374e-05
-1.85087e-05
4.59174e-05
0.000296472
0.000766329
-0.00485409
-0.0203676
-0.0407484
-0.0622458
-0.0895644
-0.120312
-0.150292
-0.174407
-0.188329
-0.188376
-0.174544
-0.150486
-0.120524
-0.0897664
-0.0624189
-0.0409009
-0.0205161
-0.00496579
0.000786896
0.000310812
4.99795e-05
-1.85299e-05
-2.83057e-05
-2.41359e-05
-1.81642e-05
-1.28981e-05
-8.46352e-06
-8.30765e-06
-1.95139e-05
-3.61277e-05
-6.33654e-05
-0.000108077
-0.000186296
-0.000348838
-0.000768056
-0.00200357
-0.00574792
-0.0167168
-0.0469432
-0.124374
-0.307679
-0.707247
-1.5078
-2.98195
-5.48302
-9.42709
-15.3357
-24.1378
-38.1662
-63.7835
-118.033
)
;
    }
    low
    {
        type            calculated;
        value           nonuniform List<scalar> 
84
(
-3.1765
-8.98992
-15.008
-20.0453
-23.4182
-25.063
-25.3426
-24.7685
-23.7063
-22.3881
-21.4231
-20.5249
-19.5193
-18.8232
-18.3075
-17.8236
-17.47
-17.3118
-17.1305
-16.8526
-16.7113
-16.6287
-16.4882
-16.2895
-15.931
-15.6272
-15.5324
-15.7145
-16.0524
-16.5319
-17.0963
-17.5409
-18.0682
-18.7664
-19.5362
-20.4977
-21.6931
-22.7096
-23.4608
-24.0587
-24.5056
-24.8656
-24.8657
-24.5056
-24.0587
-23.4609
-22.7097
-21.6933
-20.4979
-19.5359
-18.7666
-18.0679
-17.5406
-17.096
-16.5316
-16.052
-15.7142
-15.5322
-15.6271
-15.9309
-16.2897
-16.4881
-16.6287
-16.7113
-16.8526
-17.1304
-17.3118
-17.47
-17.8236
-18.3075
-18.8232
-19.5193
-20.5249
-21.423
-22.3881
-23.7063
-24.7685
-25.3426
-25.0631
-23.4183
-20.0454
-15.0081
-8.98995
-3.1765
)
;
    }
    left
    {
        type            calculated;
        value           nonuniform List<scalar> 
19
(
-2.90108
-5.1465
-6.62688
-7.64685
-8.29903
-8.88043
-9.35589
-9.90607
-10.5141
-11.1316
-11.9921
-12.9128
-14.1825
-16.1282
-19.6395
-25.8474
-38.1898
-62.2493
-122.214
)
;
    }
    right
    {
        type            calculated;
        value           nonuniform List<scalar> 
19
(
-2.90108
-5.14651
-6.62688
-7.64685
-8.29903
-8.88043
-9.35589
-9.90607
-10.5141
-11.1316
-11.9921
-12.9128
-14.1826
-16.1282
-19.6395
-25.8472
-38.1897
-62.2494
-122.214
)
;
    }
    frontAndBackPlanes
    {
        type            empty;
    }
}


// ************************************************************************* //
