/*--------------------------------*- C++ -*----------------------------------*\
  =========                 |
  \\      /  F ield         | OpenFOAM: The Open Source CFD Toolbox
   \\    /   O peration     | Website:  https://openfoam.org
    \\  /    A nd           | Version:  7
     \\/     M anipulation  |
\*---------------------------------------------------------------------------*/
FoamFile
{
    version     2.0;
    format      ascii;
    class       volScalarField;
    location    "0.25";
    object      gradTy;
}
// * * * * * * * * * * * * * * * * * * * * * * * * * * * * * * * * * * * * * //

dimensions      [0 -1 0 1 0 0 0];

internalField   nonuniform List<scalar> 
1596
(
-0.0880411
-0.163653
-0.225885
-0.286055
-0.3443
-0.408197
-0.474692
-0.552479
-0.64511
-0.755192
-0.906179
-1.09825
-1.36383
-1.74142
-2.32707
-3.23921
-4.867
-7.86831
-18.5875
-0.268248
-0.331108
-0.374388
-0.414958
-0.454871
-0.502499
-0.55531
-0.621253
-0.703667
-0.80327
-0.939557
-1.11054
-1.33786
-1.639
-2.0632
-2.63547
-3.4856
-4.73475
-8.28001
-0.480203
-0.501717
-0.515281
-0.531974
-0.55154
-0.581125
-0.617762
-0.668345
-0.735303
-0.818051
-0.932524
-1.07462
-1.25925
-1.49442
-1.80992
-2.20967
-2.76412
-3.52426
-5.15593
-0.702564
-0.66804
-0.64608
-0.636395
-0.63442
-0.644817
-0.663856
-0.697089
-0.746019
-0.809214
-0.899613
-1.01201
-1.15684
-1.33731
-1.57222
-1.85735
-2.23403
-2.72323
-3.56184
-0.907927
-0.820664
-0.764081
-0.728285
-0.704972
-0.696072
-0.697224
-0.712556
-0.742837
-0.786193
-0.853079
-0.938078
-1.04869
-1.18574
-1.36167
-1.56961
-1.83543
-2.1666
-2.65
-1.07144
-0.950443
-0.866738
-0.808168
-0.765349
-0.738194
-0.722189
-0.720171
-0.73243
-0.756972
-0.802194
-0.863055
-0.945045
-1.04791
-1.18016
-1.33465
-1.52832
-1.76251
-2.07037
-1.17951
-1.05016
-0.95144
-0.876207
-0.817335
-0.774086
-0.7425
-0.724455
-0.720038
-0.727382
-0.753192
-0.793118
-0.851231
-0.926842
-1.02595
-1.14197
-1.2864
-1.45782
-1.66927
-1.23183
-1.11536
-1.01495
-0.931031
-0.860987
-0.804866
-0.76003
-0.727879
-0.708582
-0.700606
-0.709296
-0.731133
-0.769175
-0.822624
-0.895791
-0.98298
-1.09213
-1.22075
-1.37384
-1.23866
-1.15082
-1.06021
-0.975441
-0.899315
-0.833798
-0.778154
-0.733854
-0.701431
-0.679851
-0.673435
-0.679514
-0.700422
-0.735418
-0.787643
-0.852286
-0.934869
-1.03258
-1.14698
-1.2087
-1.15182
-1.07869
-1.00068
-0.924485
-0.854241
-0.79131
-0.737728
-0.694632
-0.661617
-0.642336
-0.634933
-0.641278
-0.660783
-0.695816
-0.742402
-0.804449
-0.879215
-0.966706
-1.17046
-1.13574
-1.08028
-1.01261
-0.940367
-0.86906
-0.801824
-0.741474
-0.689884
-0.64737
-0.617211
-0.598303
-0.592247
-0.598648
-0.619349
-0.651092
-0.696665
-0.753531
-0.820991
-1.12245
-1.11056
-1.07234
-1.01627
-0.950219
-0.880319
-0.811005
-0.745865
-0.687536
-0.637085
-0.597651
-0.568824
-0.552075
-0.547229
-0.555776
-0.575068
-0.607104
-0.649608
-0.701586
-1.06245
-1.07099
-1.0497
-1.00629
-0.948356
-0.882321
-0.813389
-0.745814
-0.682917
-0.626467
-0.579657
-0.542695
-0.517055
-0.502798
-0.501215
-0.510191
-0.531201
-0.562257
-0.602255
-1.0088
-1.02909
-1.0212
-0.989358
-0.939793
-0.878671
-0.811496
-0.74301
-0.677087
-0.616111
-0.563442
-0.519818
-0.486801
-0.464683
-0.454651
-0.455029
-0.466945
-0.488677
-0.519125
-0.958841
-0.988444
-0.990879
-0.968818
-0.927006
-0.871004
-0.806277
-0.737845
-0.669998
-0.605635
-0.548326
-0.499272
-0.460162
-0.431508
-0.414453
-0.407688
-0.412107
-0.426234
-0.449029
-0.90968
-0.948141
-0.959318
-0.94556
-0.910674
-0.859629
-0.797666
-0.729937
-0.661015
-0.594215
-0.533325
-0.479937
-0.435886
-0.401886
-0.379074
-0.36645
-0.364753
-0.372726
-0.389408
-0.864952
-0.909488
-0.927766
-0.920963
-0.892049
-0.84549
-0.786256
-0.719538
-0.650102
-0.581583
-0.517971
-0.461184
-0.413195
-0.374896
-0.347437
-0.330068
-0.323435
-0.326463
-0.338279
-0.825594
-0.874319
-0.898181
-0.897075
-0.873154
-0.830401
-0.773562
-0.70782
-0.638089
-0.568267
-0.502513
-0.44302
-0.39188
-0.350123
-0.318913
-0.297707
-0.28709
-0.28615
-0.294089
-0.786103
-0.842253
-0.871956
-0.876016
-0.856411
-0.816829
-0.761903
-0.696837
-0.626701
-0.555647
-0.487984
-0.426152
-0.372337
-0.327674
-0.293321
-0.2689
-0.25497
-0.250773
-0.255585
-0.745456
-0.81005
-0.846323
-0.855635
-0.840117
-0.803416
-0.750174
-0.685676
-0.615169
-0.543052
-0.473784
-0.410022
-0.354024
-0.306986
-0.270033
-0.242901
-0.226159
-0.219241
-0.221541
-0.710588
-0.780857
-0.823212
-0.837592
-0.82588
-0.79171
-0.739813
-0.67563
-0.604618
-0.531432
-0.460688
-0.395234
-0.337386
-0.288354
-0.249173
-0.219604
-0.20023
-0.190754
-0.190871
-0.679686
-0.75523
-0.803169
-0.822366
-0.814245
-0.782354
-0.731548
-0.667466
-0.595812
-0.521513
-0.449343
-0.382346
-0.32288
-0.27214
-0.231006
-0.199109
-0.176924
-0.164459
-0.162161
-0.651243
-0.732718
-0.786199
-0.810048
-0.805344
-0.775553
-0.725671
-0.661566
-0.589208
-0.513793
-0.440259
-0.371833
-0.310934
-0.258744
-0.21595
-0.18186
-0.156477
-0.139647
-0.133149
-0.626011
-0.713462
-0.772094
-0.799855
-0.797712
-0.76907
-0.71927
-0.654388
-0.580735
-0.503853
-0.428629
-0.358684
-0.296431
-0.2431
-0.199136
-0.163563
-0.135286
-0.112562
-0.0941326
-0.605671
-0.698663
-0.763327
-0.797029
-0.800659
-0.777233
-0.732083
-0.670978
-0.600133
-0.52518
-0.450596
-0.380392
-0.31693
-0.261892
-0.215871
-0.178359
-0.14769
-0.121412
-0.0956435
-0.591668
-0.687928
-0.75595
-0.79356
-0.801566
-0.782692
-0.742003
-0.68491
-0.617317
-0.54471
-0.471126
-0.400673
-0.335746
-0.278375
-0.229584
-0.189741
-0.157677
-0.131956
-0.11009
-0.59145
-0.688262
-0.757486
-0.79722
-0.808186
-0.793043
-0.756487
-0.703653
-0.640039
-0.570741
-0.49945
-0.42989
-0.364331
-0.304964
-0.253322
-0.210487
-0.175983
-0.148873
-0.127035
-0.6066
-0.701093
-0.768713
-0.807953
-0.81962
-0.806428
-0.772798
-0.723604
-0.663927
-0.598413
-0.530282
-0.462691
-0.397479
-0.336692
-0.282205
-0.235871
-0.198081
-0.168518
-0.145298
-0.635545
-0.726101
-0.789761
-0.826221
-0.836624
-0.823814
-0.792022
-0.745862
-0.690011
-0.628672
-0.564533
-0.500104
-0.4365
-0.375216
-0.318082
-0.267673
-0.225496
-0.192257
-0.166439
-0.677514
-0.761177
-0.818619
-0.850443
-0.85807
-0.844462
-0.81371
-0.770159
-0.718104
-0.661362
-0.602126
-0.542314
-0.482147
-0.422118
-0.363314
-0.308605
-0.260717
-0.22211
-0.1922
-0.731912
-0.805813
-0.85558
-0.881542
-0.885348
-0.870075
-0.839722
-0.79835
-0.749909
-0.697924
-0.644226
-0.59039
-0.535838
-0.479795
-0.421696
-0.363583
-0.308673
-0.261963
-0.225315
-0.791079
-0.856572
-0.898362
-0.917794
-0.917144
-0.899678
-0.869317
-0.82981
-0.784775
-0.737531
-0.689718
-0.642978
-0.596424
-0.54834
-0.495923
-0.438761
-0.377898
-0.319672
-0.270922
-0.858817
-0.914662
-0.947338
-0.959327
-0.95353
-0.93334
-0.902524
-0.864457
-0.822385
-0.779433
-0.737135
-0.697576
-0.660339
-0.623979
-0.584349
-0.538366
-0.481218
-0.414415
-0.340725
-0.938105
-0.982117
-1.0045
-1.00849
-0.997423
-0.974688
-0.943727
-0.907482
-0.868752
-0.830362
-0.793839
-0.761646
-0.734458
-0.712632
-0.693648
-0.675384
-0.650269
-0.613985
-0.561472
-1.02652
-1.0567
-1.06614
-1.05953
-1.04056
-1.01257
-0.978463
-0.940735
-0.901644
-0.86334
-0.827251
-0.795291
-0.768559
-0.748395
-0.73514
-0.730271
-0.731835
-0.737984
-0.744684
-1.12666
-1.13791
-1.13151
-1.11258
-1.08452
-1.05033
-1.01226
-0.972451
-0.932712
-0.894587
-0.859508
-0.828645
-0.802903
-0.78303
-0.76964
-0.763462
-0.765181
-0.775715
-0.796205
-1.23733
-1.22519
-1.20197
-1.17097
-1.13448
-1.09472
-1.05334
-1.01203
-0.972217
-0.935047
-0.901741
-0.873015
-0.849414
-0.83111
-0.818073
-0.809605
-0.805076
-0.803269
-0.803108
-1.3395
-1.30493
-1.2658
-1.22331
-1.17869
-1.13331
-1.08831
-1.04488
-1.00405
-0.966661
-0.933554
-0.905191
-0.881802
-0.863319
-0.84951
-0.8397
-0.833281
-0.829392
-0.827253
-1.42328
-1.37221
-1.32051
-1.26867
-1.21733
-1.16728
-1.11923
-1.07395
-1.03219
-0.9945
-0.961469
-0.933397
-0.910341
-0.892145
-0.878517
-0.868841
-0.862506
-0.858747
-0.856808
-1.49049
-1.42627
-1.36456
-1.3053
-1.24862
-1.19486
-1.14437
-1.0976
-1.05505
-1.01707
-0.984083
-0.95627
-0.933584
-0.915813
-0.902628
-0.893432
-0.887593
-0.884382
-0.883047
-1.53942
-1.46525
-1.39598
-1.33123
-1.27071
-1.21431
-1.16211
-1.11431
-1.07122
-1.03307
-1.00015
-0.972584
-0.950252
-0.932908
-0.920181
-0.911472
-0.9061
-0.903328
-0.902374
-1.57076
-1.48736
-1.41275
-1.34467
-1.282
-1.22421
-1.17114
-1.12283
-1.0795
-1.0413
-1.00845
-0.981055
-0.958969
-0.941932
-0.929567
-0.921293
-0.916423
-0.91423
-0.913922
-1.57076
-1.48738
-1.41276
-1.34469
-1.28202
-1.22423
-1.17116
-1.12285
-1.07952
-1.04132
-1.00847
-0.981079
-0.958994
-0.941958
-0.929594
-0.921321
-0.916452
-0.91426
-0.913953
-1.53943
-1.46528
-1.39602
-1.33128
-1.27076
-1.21436
-1.16217
-1.11437
-1.07128
-1.03314
-1.00021
-0.972651
-0.950323
-0.932983
-0.920261
-0.911558
-0.906193
-0.903429
-0.902486
-1.49051
-1.42632
-1.36463
-1.30538
-1.2487
-1.19494
-1.14446
-1.09769
-1.05515
-1.01718
-0.984189
-0.95638
-0.933699
-0.915934
-0.902756
-0.893568
-0.887739
-0.884538
-0.883214
-1.4233
-1.37227
-1.32059
-1.26877
-1.21743
-1.16739
-1.11934
-1.07407
-1.03232
-0.99463
-0.961604
-0.933536
-0.910486
-0.892295
-0.878673
-0.869003
-0.862675
-0.858925
-0.856994
-1.33952
-1.30499
-1.26589
-1.22342
-1.17881
-1.13344
-1.08845
-1.04502
-1.00421
-0.966818
-0.933716
-0.905358
-0.881974
-0.863496
-0.849691
-0.839885
-0.83347
-0.829586
-0.827452
-1.23736
-1.22526
-1.20207
-1.17108
-1.13461
-1.09486
-1.05349
-1.0122
-0.972385
-0.935222
-0.901923
-0.873202
-0.849604
-0.831301
-0.818261
-0.809786
-0.805245
-0.803425
-0.803249
-1.12669
-1.13799
-1.13163
-1.11273
-1.08471
-1.05053
-1.01249
-0.972708
-0.932994
-0.894894
-0.859843
-0.829009
-0.803299
-0.783457
-0.770094
-0.76392
-0.765602
-0.776026
-0.796298
-1.02654
-1.05672
-1.06616
-1.05955
-1.04059
-1.01261
-0.978495
-0.940764
-0.901666
-0.863346
-0.827233
-0.795237
-0.768453
-0.74822
-0.734892
-0.729965
-0.731555
-0.737896
-0.745056
-0.938115
-0.98216
-1.00458
-1.00861
-0.997584
-0.974894
-0.943979
-0.907778
-0.869089
-0.830739
-0.794255
-0.762104
-0.734969
-0.713224
-0.694376
-0.676329
-0.651538
-0.615669
-0.563622
-0.858821
-0.914669
-0.947361
-0.959375
-0.953607
-0.933449
-0.902665
-0.864629
-0.822586
-0.779661
-0.73739
-0.697865
-0.660674
-0.624384
-0.584852
-0.538982
-0.48192
-0.415113
-0.341249
-0.79108
-0.856573
-0.898377
-0.917832
-0.917213
-0.899782
-0.869455
-0.829982
-0.784979
-0.737768
-0.689987
-0.643285
-0.596779
-0.548753
-0.496392
-0.439266
-0.378389
-0.320093
-0.271255
-0.73191
-0.805807
-0.855585
-0.881568
-0.885403
-0.870164
-0.839847
-0.79851
-0.750103
-0.698151
-0.644485
-0.590684
-0.53617
-0.480162
-0.422082
-0.363962
-0.309015
-0.262251
-0.225552
-0.677512
-0.761167
-0.818616
-0.850459
-0.858115
-0.844539
-0.813823
-0.770307
-0.718286
-0.661575
-0.602369
-0.542585
-0.482443
-0.422429
-0.363624
-0.308893
-0.26097
-0.222324
-0.192384
-0.63554
-0.726087
-0.789751
-0.826228
-0.836658
-0.823879
-0.792122
-0.745996
-0.690178
-0.628868
-0.564754
-0.500346
-0.436756
-0.375475
-0.31833
-0.267898
-0.225692
-0.192427
-0.166591
-0.606596
-0.701077
-0.7687
-0.807955
-0.819646
-0.806483
-0.772886
-0.723724
-0.664077
-0.59859
-0.530479
-0.462903
-0.397697
-0.336907
-0.282405
-0.236051
-0.198239
-0.168659
-0.14543
-0.591445
-0.688246
-0.757471
-0.797218
-0.808205
-0.79309
-0.756564
-0.703759
-0.640172
-0.570896
-0.499622
-0.430072
-0.364515
-0.305141
-0.253485
-0.210634
-0.176115
-0.148996
-0.12716
-0.591662
-0.687911
-0.75593
-0.793547
-0.801568
-0.782714
-0.742049
-0.684978
-0.617405
-0.544814
-0.471242
-0.400794
-0.335866
-0.278488
-0.229685
-0.189831
-0.157759
-0.132043
-0.110204
-0.605685
-0.698671
-0.763337
-0.797044
-0.800684
-0.77727
-0.732135
-0.671044
-0.600214
-0.525275
-0.450701
-0.380504
-0.317045
-0.262008
-0.215984
-0.178468
-0.147791
-0.121504
-0.0957181
-0.626025
-0.713475
-0.772103
-0.799857
-0.797705
-0.769053
-0.719243
-0.654352
-0.580692
-0.503806
-0.42858
-0.358635
-0.296384
-0.243056
-0.199094
-0.163522
-0.135244
-0.112517
-0.0940781
-0.651252
-0.732727
-0.786207
-0.810054
-0.805349
-0.775556
-0.725671
-0.661565
-0.589206
-0.513791
-0.440257
-0.371832
-0.310934
-0.258746
-0.215953
-0.181864
-0.156482
-0.139653
-0.133156
-0.679693
-0.755236
-0.803173
-0.822368
-0.814245
-0.782352
-0.731543
-0.66746
-0.595806
-0.521507
-0.449339
-0.382343
-0.322879
-0.27214
-0.231007
-0.199111
-0.176927
-0.164463
-0.162165
-0.710594
-0.780862
-0.823215
-0.837593
-0.825878
-0.791707
-0.739809
-0.675625
-0.604614
-0.531428
-0.460684
-0.395232
-0.337386
-0.288354
-0.249174
-0.219606
-0.200232
-0.190757
-0.190873
-0.74546
-0.810053
-0.846325
-0.855635
-0.840115
-0.803414
-0.75017
-0.685672
-0.615166
-0.543049
-0.473782
-0.410021
-0.354024
-0.306986
-0.270034
-0.242903
-0.226161
-0.219243
-0.221543
-0.786107
-0.842256
-0.871956
-0.876015
-0.856409
-0.816826
-0.7619
-0.696834
-0.626699
-0.555645
-0.487983
-0.426151
-0.372337
-0.327674
-0.293322
-0.268902
-0.254971
-0.250774
-0.255586
-0.825597
-0.87432
-0.898181
-0.897074
-0.873152
-0.830399
-0.77356
-0.707818
-0.638087
-0.568266
-0.502512
-0.443019
-0.39188
-0.350124
-0.318914
-0.297707
-0.28709
-0.286151
-0.294089
-0.864953
-0.909488
-0.927765
-0.920962
-0.892048
-0.845488
-0.786255
-0.719537
-0.650101
-0.581583
-0.517971
-0.461183
-0.413195
-0.374896
-0.347437
-0.330069
-0.323435
-0.326463
-0.338279
-0.909681
-0.948141
-0.959317
-0.945559
-0.910673
-0.859628
-0.797665
-0.729936
-0.661015
-0.594215
-0.533325
-0.479937
-0.435886
-0.401886
-0.379074
-0.36645
-0.364753
-0.372725
-0.389408
-0.95884
-0.988443
-0.990877
-0.968817
-0.927005
-0.871004
-0.806277
-0.737845
-0.669997
-0.605635
-0.548326
-0.499272
-0.460162
-0.431508
-0.414452
-0.407687
-0.412106
-0.426232
-0.449027
-1.00879
-1.02909
-1.02119
-0.989358
-0.939793
-0.878671
-0.811496
-0.74301
-0.677087
-0.616111
-0.563442
-0.519818
-0.486801
-0.464683
-0.45465
-0.455028
-0.466943
-0.488674
-0.519123
-1.06245
-1.07099
-1.0497
-1.00629
-0.948357
-0.882322
-0.81339
-0.745814
-0.682917
-0.626467
-0.579657
-0.542695
-0.517055
-0.502797
-0.501214
-0.510189
-0.531198
-0.562254
-0.602253
-1.12245
-1.11055
-1.07234
-1.01628
-0.95022
-0.880319
-0.811005
-0.745865
-0.687536
-0.637084
-0.59765
-0.568824
-0.552075
-0.547228
-0.555774
-0.575066
-0.607101
-0.649605
-0.701584
-1.17046
-1.13574
-1.08028
-1.01261
-0.940369
-0.869062
-0.801825
-0.741475
-0.689885
-0.64737
-0.617211
-0.598303
-0.592247
-0.598647
-0.619347
-0.651089
-0.696662
-0.753528
-0.82099
-1.2087
-1.15182
-1.07869
-1.00069
-0.924487
-0.854243
-0.791311
-0.737729
-0.694632
-0.661617
-0.642336
-0.634932
-0.641277
-0.660781
-0.695814
-0.742399
-0.804446
-0.879212
-0.966706
-1.23866
-1.15082
-1.06021
-0.975444
-0.899317
-0.833799
-0.778155
-0.733855
-0.701432
-0.679851
-0.673435
-0.679513
-0.700421
-0.735416
-0.787641
-0.852284
-0.934867
-1.03258
-1.14698
-1.23183
-1.11537
-1.01495
-0.931034
-0.860988
-0.804868
-0.760031
-0.727879
-0.708582
-0.700607
-0.709296
-0.731133
-0.769174
-0.822622
-0.895789
-0.982978
-1.09213
-1.22075
-1.37384
-1.17951
-1.05017
-0.951443
-0.876209
-0.817337
-0.774087
-0.742501
-0.724456
-0.720039
-0.727382
-0.753192
-0.793117
-0.85123
-0.92684
-1.02595
-1.14197
-1.2864
-1.45782
-1.66928
-1.07145
-0.950447
-0.86674
-0.80817
-0.76535
-0.738195
-0.722191
-0.720172
-0.732431
-0.756972
-0.802194
-0.863055
-0.945043
-1.04791
-1.18016
-1.33464
-1.52832
-1.76251
-2.07037
-0.907932
-0.820668
-0.764083
-0.728287
-0.704974
-0.696074
-0.697226
-0.712557
-0.742837
-0.786193
-0.853079
-0.938077
-1.04869
-1.18574
-1.36166
-1.56961
-1.83543
-2.1666
-2.65
-0.702568
-0.668043
-0.646082
-0.636397
-0.634421
-0.644818
-0.663857
-0.69709
-0.746019
-0.809215
-0.899613
-1.01201
-1.15684
-1.33731
-1.57222
-1.85735
-2.23403
-2.72323
-3.56184
-0.480206
-0.501719
-0.515282
-0.531975
-0.551542
-0.581127
-0.617763
-0.668346
-0.735304
-0.818051
-0.932524
-1.07462
-1.25925
-1.49442
-1.80992
-2.20967
-2.76412
-3.52426
-5.15593
-0.268249
-0.331108
-0.374388
-0.414958
-0.454872
-0.502499
-0.55531
-0.621254
-0.703668
-0.80327
-0.939557
-1.11054
-1.33786
-1.639
-2.06319
-2.63547
-3.4856
-4.73475
-8.28001
-0.0880416
-0.163653
-0.225885
-0.286055
-0.3443
-0.408197
-0.474692
-0.552479
-0.64511
-0.755192
-0.906179
-1.09825
-1.36383
-1.74141
-2.32707
-3.23921
-4.867
-7.86831
-18.5875
)
;

boundaryField
{
    up
    {
        type            calculated;
        value           nonuniform List<scalar> 
84
(
-16.8438
-9.12255
-5.59917
-3.82058
-2.81606
-2.18511
-1.75289
-1.43707
-1.19579
-1.00506
-0.851251
-0.72545
-0.621131
-0.533976
-0.460636
-0.39842
-0.345213
-0.299361
-0.259525
-0.224449
-0.192959
-0.163398
-0.131959
-0.0845668
-0.081923
-0.103714
-0.120771
-0.138525
-0.158779
-0.183191
-0.213894
-0.25358
-0.313906
-0.557583
-0.767046
-0.810071
-0.802393
-0.826168
-0.855996
-0.882637
-0.902218
-0.914154
-0.914185
-0.902335
-0.88281
-0.856185
-0.826371
-0.80253
-0.809982
-0.767454
-0.560097
-0.314394
-0.253873
-0.214117
-0.183368
-0.158927
-0.138657
-0.120898
-0.103867
-0.0820208
-0.0845084
-0.131965
-0.163402
-0.192962
-0.224451
-0.259526
-0.299362
-0.345213
-0.398419
-0.460635
-0.533975
-0.62113
-0.725449
-0.851251
-1.00506
-1.19579
-1.43707
-1.75289
-2.18511
-2.81606
-3.82058
-5.59917
-9.12255
-16.8438
)
;
    }
    low
    {
        type            calculated;
        value           nonuniform List<scalar> 
84
(
-0.0944454
-0.280177
-0.506198
-0.746498
-0.968916
-1.14399
-1.25496
-1.30248
-1.29545
-1.24745
-1.19961
-1.14222
-1.06944
-1.00867
-0.954581
-0.899847
-0.850288
-0.809493
-0.767105
-0.719897
-0.680013
-0.64527
-0.612149
-0.582537
-0.554436
-0.537099
-0.537554
-0.558179
-0.594196
-0.645132
-0.707489
-0.771961
-0.845942
-0.932607
-1.0272
-1.13566
-1.25802
-1.3678
-1.4563
-1.52755
-1.57973
-1.61545
-1.61546
-1.57974
-1.52756
-1.45632
-1.36781
-1.25804
-1.13568
-1.02719
-0.93262
-0.845934
-0.771958
-0.707486
-0.64513
-0.594194
-0.55818
-0.537556
-0.537104
-0.554444
-0.582556
-0.612153
-0.645277
-0.680019
-0.719901
-0.767108
-0.809496
-0.850289
-0.899847
-0.95458
-1.00867
-1.06944
-1.14221
-1.1996
-1.24745
-1.29545
-1.30248
-1.25497
-1.144
-0.968922
-0.746504
-0.506203
-0.280179
-0.0944461
)
;
    }
    left
    {
        type            calculated;
        value           nonuniform List<scalar> 
19
(
-0.0863482
-0.160547
-0.223949
-0.28604
-0.346631
-0.413058
-0.482433
-0.563905
-0.661174
-0.778212
-0.939607
-1.14665
-1.4362
-1.85431
-2.50881
-3.54483
-5.41547
-8.90552
-17.4706
)
;
    }
    right
    {
        type            calculated;
        value           nonuniform List<scalar> 
19
(
-0.0863487
-0.160548
-0.223949
-0.286041
-0.346631
-0.413058
-0.482433
-0.563905
-0.661174
-0.778212
-0.939606
-1.14665
-1.43619
-1.85431
-2.50881
-3.54483
-5.41547
-8.90552
-17.4706
)
;
    }
    frontAndBackPlanes
    {
        type            empty;
    }
}


// ************************************************************************* //
