/*--------------------------------*- C++ -*----------------------------------*\
  =========                 |
  \\      /  F ield         | OpenFOAM: The Open Source CFD Toolbox
   \\    /   O peration     | Website:  https://openfoam.org
    \\  /    A nd           | Version:  7
     \\/     M anipulation  |
\*---------------------------------------------------------------------------*/
FoamFile
{
    version     2.0;
    format      ascii;
    class       volScalarField;
    location    "0.347";
    object      gradTx;
}
// * * * * * * * * * * * * * * * * * * * * * * * * * * * * * * * * * * * * * //

dimensions      [0 -1 0 1 0 0 0];

internalField   nonuniform List<scalar> 
1596
(
-0.0712257
-0.358355
-0.645207
-0.910036
-1.15324
-1.37561
-1.58724
-1.79445
-2.00531
-2.23571
-2.4891
-2.78454
-3.1455
-3.60802
-4.21616
-5.08477
-6.39359
-8.53196
-12.3046
0.0157085
-0.298349
-0.57981
-0.827856
-1.04981
-1.24793
-1.43113
-1.60247
-1.7678
-1.93497
-2.10364
-2.28338
-2.47642
-2.68691
-2.9081
-3.12939
-3.29918
-3.31405
-2.95588
0.0869283
-0.244444
-0.516417
-0.745623
-0.944698
-1.11799
-1.27311
-1.41194
-1.53828
-1.65604
-1.76349
-1.86512
-1.95781
-2.03853
-2.0968
-2.11567
-2.05325
-1.8376
-1.32949
0.0981032
-0.216743
-0.465718
-0.670695
-0.844958
-0.9937
-1.12282
-1.23382
-1.32902
-1.41024
-1.47583
-1.52758
-1.56183
-1.57439
-1.55687
-1.49553
-1.36293
-1.11516
-0.668575
0.0283582
-0.228115
-0.43689
-0.610654
-0.75789
-0.882529
-0.988216
-1.07604
-1.14726
-1.20239
-1.24046
-1.26173
-1.26337
-1.24178
-1.19137
-1.10239
-0.958263
-0.733266
-0.378678
-0.116659
-0.283137
-0.436414
-0.571952
-0.689693
-0.790311
-0.874642
-0.943022
-0.9957
-1.03231
-1.05247
-1.05555
-1.03965
-1.00201
-0.939269
-0.844681
-0.708635
-0.516159
-0.239125
-0.30973
-0.377139
-0.466443
-0.558458
-0.644364
-0.720521
-0.78471
-0.83605
-0.873767
-0.896727
-0.904859
-0.896969
-0.871829
-0.827366
-0.76169
-0.670121
-0.547244
-0.384294
-0.164977
-0.512037
-0.492489
-0.519214
-0.566567
-0.619843
-0.67145
-0.716385
-0.752277
-0.777304
-0.789639
-0.789188
-0.774387
-0.744399
-0.69763
-0.633088
-0.547478
-0.437857
-0.299075
-0.121666
-0.721138
-0.639529
-0.610436
-0.612939
-0.631514
-0.656331
-0.680416
-0.699913
-0.711971
-0.714081
-0.705812
-0.68532
-0.651868
-0.60412
-0.541546
-0.461754
-0.363184
-0.242773
-0.0949122
-0.845698
-0.740767
-0.678398
-0.648575
-0.639685
-0.642257
-0.648787
-0.654497
-0.655835
-0.649808
-0.635585
-0.611183
-0.575862
-0.528479
-0.468767
-0.395005
-0.306465
-0.201407
-0.0765163
-0.94601
-0.831016
-0.748631
-0.695011
-0.663199
-0.645649
-0.635516
-0.627771
-0.618508
-0.604438
-0.584323
-0.556081
-0.518881
-0.47167
-0.414272
-0.345407
-0.264804
-0.171538
-0.0637132
-1.04698
-0.931
-0.836331
-0.764269
-0.712144
-0.675029
-0.647565
-0.625129
-0.603867
-0.580386
-0.553124
-0.519909
-0.479757
-0.431608
-0.375258
-0.309677
-0.234806
-0.150177
-0.0547119
-1.07087
-0.970568
-0.878265
-0.800492
-0.7384
-0.689728
-0.650912
-0.618213
-0.58822
-0.557737
-0.525104
-0.488201
-0.445981
-0.397422
-0.342322
-0.279858
-0.210109
-0.132908
-0.047669
-1.07261
-0.989557
-0.905504
-0.828285
-0.761589
-0.705516
-0.658305
-0.617347
-0.579915
-0.543204
-0.505623
-0.465174
-0.420797
-0.371514
-0.317115
-0.25693
-0.191107
-0.119669
-0.0423454
-1.06491
-0.997573
-0.923777
-0.850713
-0.783112
-0.722773
-0.669516
-0.621931
-0.578111
-0.535775
-0.493543
-0.449596
-0.402905
-0.352542
-0.298293
-0.239599
-0.17665
-0.109581
-0.0383089
-1.03276
-0.982109
-0.920621
-0.855219
-0.790875
-0.730364
-0.67466
-0.623412
-0.57554
-0.529348
-0.483774
-0.437237
-0.388792
-0.337589
-0.283437
-0.225892
-0.165204
-0.101607
-0.0351402
-0.975909
-0.940862
-0.89265
-0.837374
-0.779742
-0.722901
-0.668507
-0.61699
-0.567972
-0.52032
-0.473318
-0.425659
-0.376515
-0.325128
-0.271349
-0.214861
-0.156023
-0.0952149
-0.032615
-0.910917
-0.885733
-0.84907
-0.804209
-0.754816
-0.703864
-0.653282
-0.603987
-0.556127
-0.50904
-0.462328
-0.414936
-0.366152
-0.315283
-0.262192
-0.20666
-0.149183
-0.090378
-0.0306691
-0.856462
-0.839382
-0.811766
-0.775549
-0.733368
-0.687827
-0.640953
-0.594006
-0.547559
-0.50136
-0.455291
-0.408513
-0.360386
-0.310209
-0.257748
-0.202747
-0.145766
-0.0877101
-0.0294427
-0.7662
-0.759418
-0.741853
-0.715844
-0.683413
-0.646628
-0.607284
-0.566659
-0.525506
-0.483806
-0.441619
-0.398278
-0.353201
-0.305669
-0.255287
-0.201619
-0.145116
-0.0869626
-0.0288186
-0.668216
-0.669641
-0.661165
-0.644795
-0.622128
-0.594766
-0.56418
-0.531519
-0.497544
-0.46233
-0.425991
-0.387952
-0.347656
-0.304344
-0.257397
-0.205972
-0.149957
-0.090293
-0.029543
-0.56753
-0.574482
-0.573718
-0.566241
-0.553087
-0.535399
-0.514311
-0.490772
-0.465456
-0.438411
-0.409686
-0.378704
-0.34489
-0.307483
-0.265697
-0.218204
-0.163771
-0.101707
-0.0337144
-0.457313
-0.467328
-0.472977
-0.474004
-0.470668
-0.463546
-0.453374
-0.440809
-0.426345
-0.409883
-0.391229
-0.369693
-0.344584
-0.31521
-0.280885
-0.240179
-0.190791
-0.129087
-0.0504429
-0.334079
-0.33096
-0.324462
-0.314753
-0.302862
-0.290112
-0.277976
-0.267537
-0.259413
-0.253393
-0.248474
-0.243083
-0.235526
-0.224348
-0.208463
-0.186679
-0.156998
-0.114879
-0.0515181
-0.223892
-0.252218
-0.286525
-0.323178
-0.359521
-0.393453
-0.423766
-0.449611
-0.470523
-0.485976
-0.494963
-0.496599
-0.490013
-0.475353
-0.45341
-0.425194
-0.390398
-0.346227
-0.284597
-0.0767638
-0.0925448
-0.114191
-0.139423
-0.166578
-0.194426
-0.222471
-0.250368
-0.277995
-0.304873
-0.329398
-0.349798
-0.363522
-0.369107
-0.36636
-0.357223
-0.343663
-0.328134
-0.311435
0.0709194
0.0508519
0.0228453
-0.010826
-0.0480962
-0.0873552
-0.127721
-0.168736
-0.210281
-0.252023
-0.292446
-0.329373
-0.359407
-0.379744
-0.389018
-0.388878
-0.381954
-0.371713
-0.359886
0.219338
0.192547
0.155998
0.112442
0.0643264
0.0135883
-0.038626
-0.0918539
-0.146126
-0.201468
-0.25682
-0.309996
-0.357012
-0.393522
-0.416277
-0.425693
-0.424626
-0.417651
-0.40762
0.355197
0.318565
0.271439
0.217257
0.158713
0.0979001
0.0359881
-0.0267372
-0.0906576
-0.156393
-0.2237
-0.290998
-0.354311
-0.407988
-0.446266
-0.467063
-0.472313
-0.467678
-0.457922
0.498634
0.450426
0.391772
0.326425
0.257278
0.186582
0.115483
0.0440938
-0.0283083
-0.102967
-0.180631
-0.260914
-0.340762
-0.414111
-0.472629
-0.510293
-0.525801
-0.524697
-0.514423
0.610578
0.548721
0.478012
0.402354
0.324743
0.2473
0.170871
0.0951943
0.0191338
-0.0591846
-0.141538
-0.229172
-0.321055
-0.412483
-0.493968
-0.555149
-0.588194
-0.594613
-0.582991
0.719248
0.645245
0.562744
0.47718
0.391809
0.308548
0.227909
0.149325
0.0714183
-0.00803219
-0.0914832
-0.181721
-0.280388
-0.386243
-0.491887
-0.58534
-0.650631
-0.678722
-0.673079
0.824432
0.734794
0.639587
0.544492
0.452433
0.364791
0.281615
0.202034
0.124599
0.0470847
-0.033033
-0.119252
-0.215367
-0.324562
-0.445285
-0.570933
-0.682995
-0.759309
-0.777267
0.899791
0.786385
0.671654
0.560656
0.455405
0.356455
0.263235
0.174589
0.0890376
0.00458362
-0.0809491
-0.17077
-0.269161
-0.382077
-0.514702
-0.671907
-0.847917
-1.02707
-1.17858
0.954568
0.828909
0.710893
0.603901
0.508032
0.422455
0.345642
0.276097
0.21236
0.153032
0.0970722
0.0431527
-0.010254
-0.0657666
-0.127639
-0.204398
-0.305768
-0.443341
-0.623933
1.00174
0.8699
0.754434
0.654387
0.567396
0.491365
0.424085
0.363876
0.309336
0.259271
0.2131
0.170334
0.130839
0.0947752
0.0626605
0.0344136
0.00935321
-0.0158949
-0.0478987
0.965007
0.81373
0.686681
0.579043
0.486767
0.406903
0.336841
0.274687
0.218973
0.168467
0.122604
0.080926
0.0432826
0.00984536
-0.0187338
-0.0417625
-0.0580798
-0.0665902
-0.0667661
0.860916
0.719733
0.603739
0.507207
0.425777
0.356288
0.296153
0.2435
0.196949
0.155395
0.118285
0.0851837
0.0558333
0.0301367
0.00816293
-0.0101888
-0.0249911
-0.036433
-0.0448672
0.725636
0.604487
0.505433
0.423658
0.355317
0.297517
0.247956
0.20494
0.167248
0.133901
0.104346
0.0781381
0.0549124
0.0344123
0.0164908
0.000893332
-0.0125711
-0.0240519
-0.0337806
0.552742
0.457927
0.381466
0.319115
0.267569
0.224366
0.187623
0.155956
0.128385
0.104123
0.0826924
0.0637096
0.0468304
0.0318017
0.0184667
0.00662365
-0.003854
-0.0130119
-0.0209609
0.351003
0.287585
0.23795
0.198253
0.165856
0.138938
0.116194
0.0966847
0.0797582
0.0648975
0.0517744
0.040129
0.029719
0.0203647
0.0119526
0.00435437
-0.00250188
-0.00861257
-0.0140093
0.135605
0.110451
0.0914088
0.076372
0.0641323
0.0539381
0.045285
0.0378207
0.0313038
0.0255439
0.0204155
0.0158195
0.0116613
0.00786824
0.00438997
0.00117187
-0.00182139
-0.00459262
-0.00715098
-0.13554
-0.110312
-0.0912247
-0.0761621
-0.0639101
-0.0537133
-0.0450648
-0.0376105
-0.0311079
-0.0253654
-0.0202572
-0.0156832
-0.0115486
-0.00778042
-0.00432796
-0.0011364
0.00182987
0.00457421
0.00710611
-0.350943
-0.287465
-0.237793
-0.198075
-0.16567
-0.138754
-0.116017
-0.0965204
-0.0796107
-0.0647701
-0.0516693
-0.0400481
-0.0296634
-0.0203354
-0.0119501
-0.00437896
0.00245039
0.00853494
0.0139068
-0.552686
-0.457816
-0.381317
-0.318943
-0.267383
-0.224175
-0.187434
-0.155775
-0.128215
-0.103968
-0.0825546
-0.0635906
-0.0467308
-0.0317215
-0.0184051
-0.00657906
0.00388355
0.0130289
0.0209678
-0.725598
-0.604419
-0.505342
-0.423554
-0.355207
-0.297407
-0.247853
-0.204848
-0.167171
-0.133842
-0.104309
-0.0781227
-0.0549194
-0.0344409
-0.0165389
-0.000958111
0.0124932
0.0239645
0.0336872
-0.860897
-0.719699
-0.60369
-0.507147
-0.42571
-0.356221
-0.29609
-0.243447
-0.196909
-0.155373
-0.118283
-0.0852052
-0.0558786
-0.0302049
-0.00825068
0.0100868
0.0248825
0.0363272
0.0447747
-0.965019
-0.813739
-0.686682
-0.579033
-0.486752
-0.406888
-0.336831
-0.274689
-0.218992
-0.16851
-0.122677
-0.0810343
-0.0434311
-0.0100369
0.0185008
0.0414971
0.0578041
0.0663403
0.0665843
-1.00176
-0.869842
-0.754271
-0.654101
-0.566981
-0.490821
-0.423417
-0.363088
-0.308434
-0.258262
-0.211989
-0.169125
-0.129535
-0.0933771
-0.0611789
-0.0328888
-0.00788747
0.0170812
0.0484374
-0.954759
-0.829407
-0.711715
-0.605051
-0.509505
-0.424247
-0.347748
-0.278514
-0.215088
-0.156078
-0.100452
-0.0468994
0.00608016
0.061059
0.122235
0.198061
0.298257
0.434522
0.613967
-0.899731
-0.786209
-0.671332
-0.560176
-0.454762
-0.355651
-0.262278
-0.17349
-0.08781
-0.00324442
0.0823787
0.172263
0.270685
0.383599
0.516222
0.673508
0.849842
1.02975
1.1826
-0.824501
-0.734954
-0.639823
-0.54479
-0.45278
-0.365178
-0.282034
-0.202483
-0.125078
-0.0475975
0.032477
0.118642
0.214697
0.323854
0.444609
0.570429
0.682834
0.759598
0.777872
-0.719293
-0.645347
-0.562893
-0.477367
-0.392024
-0.308785
-0.228164
-0.149598
-0.0717115
0.00771481
0.0911374
0.181348
0.280007
0.3859
0.491664
0.58533
0.650888
0.679205
0.673683
-0.610621
-0.548819
-0.478158
-0.402538
-0.324957
-0.247538
-0.171126
-0.0954639
-0.0194171
0.0588886
0.141233
0.228873
0.320791
0.412304
0.493931
0.555291
0.588501
0.595024
0.583435
-0.498674
-0.450519
-0.391913
-0.326608
-0.257493
-0.186821
-0.115739
-0.0443609
0.0280343
0.102692
0.180366
0.260678
0.340588
0.414035
0.47268
0.510475
0.526082
0.525034
0.514785
-0.355231
-0.318649
-0.271569
-0.217426
-0.158912
-0.0981219
-0.036224
0.0264945
0.0904153
0.15616
0.22349
0.290832
0.354214
0.407984
0.446366
0.467254
0.472569
0.467973
0.458242
-0.219373
-0.192632
-0.156129
-0.112613
-0.0645289
-0.0138124
0.03839
0.0916153
0.145894
0.201256
0.256641
0.30987
0.356958
0.393552
0.416391
0.425879
0.424863
0.417924
0.407925
-0.0709481
-0.0509292
-0.0229688
0.0106631
0.047903
0.087142
0.127498
0.168516
0.210073
0.251843
0.292305
0.329288
0.35939
0.379801
0.389146
0.389066
0.38219
0.371991
0.360206
0.0766995
0.0923487
0.113851
0.138941
0.165963
0.193698
0.221657
0.249498
0.277102
0.303992
0.32856
0.349033
0.362851
0.368541
0.365901
0.356873
0.343435
0.328068
0.311626
0.22394
0.252397
0.286875
0.323726
0.360276
0.394411
0.424908
0.45091
0.471947
0.487489
0.496529
0.498189
0.491597
0.476913
0.454933
0.426675
0.391832
0.347607
0.285901
0.334034
0.330791
0.324161
0.314324
0.302322
0.289484
0.277288
0.266817
0.258689
0.25269
0.247811
0.242476
0.234983
0.223875
0.208061
0.186347
0.156737
0.114695
0.0514344
0.457344
0.467389
0.47307
0.474126
0.470814
0.463707
0.453541
0.440972
0.426498
0.410021
0.391346
0.369789
0.344659
0.315264
0.28092
0.240197
0.190794
0.129079
0.0504356
0.567539
0.574495
0.573733
0.566261
0.553109
0.535424
0.514336
0.490796
0.465478
0.43843
0.4097
0.378714
0.344896
0.307484
0.265694
0.218197
0.163762
0.101699
0.0337116
0.668226
0.669653
0.661179
0.644812
0.622147
0.594786
0.564199
0.531537
0.49756
0.462342
0.426
0.387958
0.347658
0.304343
0.257393
0.205967
0.149952
0.0902892
0.0295419
0.766208
0.759429
0.741865
0.715858
0.683428
0.646643
0.607298
0.566672
0.525516
0.483814
0.441624
0.39828
0.353201
0.305666
0.255283
0.201615
0.145113
0.0869605
0.028818
0.856471
0.839393
0.811778
0.775562
0.733382
0.68784
0.640965
0.594015
0.547566
0.501365
0.455293
0.408514
0.360385
0.310207
0.257745
0.202744
0.145764
0.0877087
0.0294423
0.910924
0.885742
0.84908
0.80422
0.754827
0.703874
0.65329
0.603993
0.556131
0.509043
0.462329
0.414935
0.36615
0.315281
0.26219
0.206657
0.149181
0.090377
0.0306688
0.975914
0.940869
0.892658
0.837381
0.779749
0.722908
0.668512
0.616993
0.567974
0.52032
0.473318
0.425657
0.376512
0.325125
0.271346
0.214859
0.156021
0.0952141
0.0326148
1.03277
0.982116
0.920629
0.855226
0.790882
0.730369
0.674664
0.623415
0.575541
0.529348
0.483773
0.437235
0.38879
0.337586
0.283435
0.22589
0.165203
0.101607
0.0351401
1.06492
0.997578
0.923782
0.850717
0.783115
0.722775
0.669517
0.621931
0.57811
0.535773
0.493541
0.449594
0.402902
0.35254
0.298291
0.239597
0.17665
0.10958
0.0383089
1.07261
0.989562
0.905509
0.828289
0.761592
0.705518
0.658306
0.617347
0.579914
0.543202
0.505621
0.465172
0.420795
0.371512
0.317114
0.256929
0.191107
0.119669
0.0423455
1.07087
0.970575
0.878271
0.800497
0.738404
0.68973
0.650914
0.618214
0.58822
0.557736
0.525103
0.488201
0.44598
0.397421
0.342322
0.279858
0.210109
0.132909
0.0476692
1.04698
0.931
0.836332
0.764268
0.712142
0.675026
0.647562
0.625127
0.603864
0.580383
0.553121
0.519907
0.479756
0.431607
0.375257
0.309676
0.234806
0.150178
0.0547121
0.946017
0.831023
0.748637
0.695014
0.663201
0.64565
0.635516
0.62777
0.618508
0.604437
0.584322
0.55608
0.518881
0.47167
0.414273
0.345408
0.264805
0.171539
0.0637135
0.845708
0.740775
0.678403
0.648578
0.639687
0.642258
0.648787
0.654497
0.655834
0.649808
0.635585
0.611183
0.575862
0.52848
0.468768
0.395007
0.306466
0.201408
0.0765166
0.721147
0.639535
0.610439
0.612941
0.631515
0.656332
0.680417
0.699913
0.71197
0.714081
0.705812
0.68532
0.651869
0.604122
0.541548
0.461756
0.363186
0.242774
0.0949124
0.512043
0.492493
0.519216
0.566568
0.619843
0.67145
0.716384
0.752277
0.777303
0.789639
0.789188
0.774387
0.7444
0.697631
0.633089
0.547479
0.437858
0.299075
0.121666
0.309735
0.377142
0.466445
0.55846
0.644364
0.720521
0.78471
0.83605
0.873767
0.896727
0.904859
0.89697
0.87183
0.827367
0.76169
0.670122
0.547245
0.384294
0.164977
0.116662
0.283139
0.436416
0.571953
0.689694
0.790311
0.874642
0.943021
0.9957
1.03231
1.05247
1.05555
1.03965
1.00201
0.939269
0.844681
0.708635
0.516159
0.239125
-0.0283561
0.228116
0.436891
0.610655
0.75789
0.882529
0.988216
1.07604
1.14726
1.20239
1.24046
1.26173
1.26337
1.24178
1.19137
1.10239
0.958262
0.733265
0.378678
-0.0981027
0.216744
0.465719
0.670695
0.844958
0.9937
1.12282
1.23382
1.32902
1.41024
1.47583
1.52758
1.56183
1.57439
1.55687
1.49553
1.36293
1.11516
0.668574
-0.0869288
0.244444
0.516417
0.745623
0.944698
1.11799
1.27311
1.41194
1.53827
1.65604
1.76349
1.86512
1.95781
2.03853
2.0968
2.11566
2.05324
1.8376
1.32949
-0.0157087
0.298349
0.579809
0.827856
1.04981
1.24793
1.43113
1.60247
1.7678
1.93497
2.10364
2.28338
2.47641
2.6869
2.9081
3.12938
3.29918
3.31404
2.95588
0.0712259
0.358355
0.645207
0.910036
1.15324
1.37561
1.58724
1.79445
2.00531
2.23571
2.4891
2.78454
3.14549
3.60802
4.21616
5.08477
6.39359
8.53196
12.3046
)
;

boundaryField
{
    up
    {
        type            calculated;
        value           nonuniform List<scalar> 
84
(
-12.3046
-2.95588
-1.32949
-0.668575
-0.378678
-0.239125
-0.164977
-0.121666
-0.0949122
-0.0765163
-0.0637132
-0.0547119
-0.047669
-0.0423454
-0.0383089
-0.0351402
-0.032615
-0.0306691
-0.0294427
-0.0288186
-0.029543
-0.0337144
-0.0504429
-0.0515181
-0.245213
-0.294324
-0.344268
-0.39175
-0.440892
-0.495236
-0.559353
-0.637394
-0.722272
-1.1788
-0.64935
-0.0492995
-0.0668154
-0.0448559
-0.0337702
-0.0209597
-0.0140106
-0.00715461
0.00710972
0.0139082
0.0209666
0.0336768
0.0447634
0.0666329
0.0498212
0.639033
1.18363
0.722798
0.637918
0.559772
0.495589
0.441209
0.392058
0.344598
0.294638
0.246411
0.0514344
0.0504356
0.0337116
0.0295419
0.028818
0.0294423
0.0306688
0.0326148
0.0351401
0.0383089
0.0423455
0.0476692
0.0547121
0.0637135
0.0765166
0.0949124
0.121666
0.164977
0.239125
0.378678
0.668574
1.32949
2.95588
12.3046
)
;
    }
    low
    {
        type            calculated;
        value           nonuniform List<scalar> 
84
(
-0.0643368
0.0258958
0.103552
0.11636
0.0399364
-0.118817
-0.327594
-0.542132
-0.75581
-0.873669
-0.969813
-1.0649
-1.07612
-1.06984
-1.05697
-1.01783
-0.955317
-0.889044
-0.831432
-0.735508
-0.635311
-0.53492
-0.42627
-0.307359
-0.203374
-0.0694135
0.062525
0.198181
0.327389
0.469706
0.58541
0.697326
0.807947
0.891132
0.952536
1.00795
0.980558
0.879112
0.742755
0.566913
0.360639
0.1397
-0.139634
-0.360577
-0.566851
-0.74271
-0.879083
-0.980555
-1.00795
-0.952696
-0.891074
-0.808003
-0.697366
-0.585451
-0.469745
-0.327424
-0.198217
-0.0625543
0.069351
0.203421
0.307317
0.426298
0.53493
0.635321
0.735515
0.831441
0.889051
0.955322
1.01784
1.05697
1.06985
1.07612
1.0649
0.969819
0.873678
0.755819
0.542139
0.3276
0.118821
-0.0399342
-0.11636
-0.103553
-0.0258965
0.0643369
)
;
    }
    left
    {
        type            calculated;
        value           nonuniform List<scalar> 
19
(
-0.063079
-0.343612
-0.635955
-0.909583
-1.16295
-1.39552
-1.6183
-1.83873
-2.0649
-2.31722
-2.59881
-2.93161
-3.34695
-3.89406
-4.62889
-5.71378
-7.39823
-10.226
-10.6728
)
;
    }
    right
    {
        type            calculated;
        value           nonuniform List<scalar> 
19
(
0.0630793
0.343612
0.635956
0.909583
1.16295
1.39552
1.6183
1.83873
2.0649
2.31721
2.59881
2.93161
3.34694
3.89405
4.62889
5.71378
7.39823
10.226
10.6728
)
;
    }
    frontAndBackPlanes
    {
        type            empty;
    }
}


// ************************************************************************* //
