/*--------------------------------*- C++ -*----------------------------------*\
  =========                 |
  \\      /  F ield         | OpenFOAM: The Open Source CFD Toolbox
   \\    /   O peration     | Website:  https://openfoam.org
    \\  /    A nd           | Version:  7
     \\/     M anipulation  |
\*---------------------------------------------------------------------------*/
FoamFile
{
    version     2.0;
    format      ascii;
    class       volScalarField;
    location    "0.1";
    object      gradTx;
}
// * * * * * * * * * * * * * * * * * * * * * * * * * * * * * * * * * * * * * //

dimensions      [0 -1 0 1 0 0 0];

internalField   nonuniform List<scalar> 
1596
(
-0.0804165
-0.402924
-0.714465
-0.981884
-1.19907
-1.36339
-1.4845
-1.56945
-1.62785
-1.67539
-1.71747
-1.77183
-1.85768
-2.00058
-2.22884
-2.60546
-3.22197
-4.27149
-6.15173
0.0208029
-0.326729
-0.631023
-0.883794
-1.08781
-1.243
-1.35827
-1.438
-1.49015
-1.52416
-1.54306
-1.55749
-1.57283
-1.5965
-1.63018
-1.67418
-1.70674
-1.67874
-1.48081
0.105228
-0.24888
-0.536025
-0.767534
-0.952637
-1.09412
-1.19969
-1.27271
-1.31913
-1.34491
-1.35163
-1.34555
-1.32739
-1.29885
-1.25815
-1.2013
-1.1117
-0.957887
-0.672967
0.123139
-0.194631
-0.445555
-0.646047
-0.806204
-0.929893
-1.02303
-1.0883
-1.12991
-1.15148
-1.15404
-1.14094
-1.11132
-1.06457
-0.998332
-0.908601
-0.78519
-0.610863
-0.347999
0.0544074
-0.181865
-0.37629
-0.535549
-0.664923
-0.766996
-0.845223
-0.901467
-0.938335
-0.957759
-0.96056
-0.948132
-0.919125
-0.871921
-0.804191
-0.712219
-0.589933
-0.428312
-0.207311
-0.0901867
-0.218388
-0.341751
-0.451406
-0.544882
-0.621669
-0.682373
-0.727668
-0.758698
-0.776018
-0.780279
-0.771524
-0.748288
-0.708465
-0.649799
-0.568589
-0.460826
-0.321421
-0.13979
-0.278527
-0.300021
-0.348125
-0.403718
-0.457685
-0.505981
-0.546491
-0.578442
-0.601609
-0.615403
-0.62014
-0.61495
-0.598327
-0.567946
-0.521593
-0.455473
-0.36641
-0.250844
-0.102754
-0.470926
-0.407963
-0.388273
-0.391432
-0.405466
-0.423836
-0.442423
-0.459056
-0.472323
-0.480698
-0.483993
-0.48073
-0.469349
-0.447473
-0.412935
-0.361935
-0.291561
-0.198669
-0.0791655
-0.666471
-0.549888
-0.474322
-0.42776
-0.400515
-0.38584
-0.378896
-0.376527
-0.376399
-0.376197
-0.375038
-0.370964
-0.362232
-0.346442
-0.321438
-0.283532
-0.229856
-0.15724
-0.0621787
-0.782251
-0.651335
-0.546093
-0.466238
-0.407818
-0.366202
-0.337279
-0.317721
-0.304801
-0.295792
-0.289234
-0.282898
-0.274888
-0.262871
-0.244773
-0.217208
-0.177431
-0.122312
-0.0485573
-0.878338
-0.744848
-0.623884
-0.520801
-0.437093
-0.371426
-0.321508
-0.284635
-0.258165
-0.239236
-0.225909
-0.215737
-0.206621
-0.196256
-0.182615
-0.162664
-0.133823
-0.0930969
-0.0373236
-0.979698
-0.849972
-0.720153
-0.599373
-0.493456
-0.404677
-0.333234
-0.277741
-0.236109
-0.205576
-0.183839
-0.168196
-0.156256
-0.145619
-0.134221
-0.119322
-0.0985317
-0.069086
-0.02801
-1.01493
-0.903323
-0.778558
-0.653322
-0.536647
-0.433906
-0.347728
-0.278408
-0.224814
-0.184651
-0.155582
-0.134836
-0.119842
-0.108141
-0.0976505
-0.0859102
-0.0707724
-0.0498121
-0.0203927
-1.0338
-0.940269
-0.824967
-0.700713
-0.578429
-0.466032
-0.368376
-0.287543
-0.223536
-0.174693
-0.138831
-0.113163
-0.0949758
-0.0817201
-0.0712529
-0.0613063
-0.0499376
-0.0350614
-0.0144331
-1.04741
-0.969417
-0.864287
-0.743529
-0.618671
-0.499475
-0.392701
-0.30217
-0.229078
-0.172475
-0.130443
-0.100213
-0.0789434
-0.0639612
-0.0530233
-0.0439601
-0.0349732
-0.0242653
-0.00996841
-1.03986
-0.978572
-0.885362
-0.771147
-0.647503
-0.525372
-0.412989
-0.315709
-0.235887
-0.173318
-0.126443
-0.0925735
-0.0687929
-0.0523244
-0.0408256
-0.0321692
-0.0246527
-0.0167032
-0.00677682
-1.00808
-0.963392
-0.883624
-0.778686
-0.659845
-0.538678
-0.424465
-0.323799
-0.240066
-0.173775
-0.123775
-0.0875161
-0.0620782
-0.0446252
-0.0327466
-0.0243372
-0.0177611
-0.0116112
-0.0045979
-0.966122
-0.932796
-0.865321
-0.770431
-0.658303
-0.540603
-0.427272
-0.325832
-0.240516
-0.17246
-0.120891
-0.0834267
-0.0571777
-0.0392877
-0.0273099
-0.0191569
-0.0132434
-0.0082811
-0.00316679
-0.932344
-0.908046
-0.849649
-0.762336
-0.655355
-0.540339
-0.427758
-0.325858
-0.239545
-0.170424
-0.117985
-0.0799369
-0.0533788
-0.0354118
-0.0235446
-0.0156893
-0.0102893
-0.00613554
-0.00225158
-0.856075
-0.845326
-0.799588
-0.723926
-0.626782
-0.519367
-0.412275
-0.31416
-0.230426
-0.1631
-0.111963
-0.0749065
-0.0491307
-0.0318017
-0.0204732
-0.0131163
-0.00823668
-0.00470805
-0.00166051
-0.764311
-0.764785
-0.731382
-0.668042
-0.582328
-0.484783
-0.385791
-0.294076
-0.21529
-0.151751
-0.103475
-0.0685629
-0.0443761
-0.0282167
-0.0177499
-0.0110532
-0.0067225
-0.0037196
-0.00126945
-0.662236
-0.670067
-0.647418
-0.596357
-0.5232
-0.437477
-0.348987
-0.26614
-0.194559
-0.136685
-0.0927141
-0.0609869
-0.0390911
-0.0245464
-0.0152022
-0.00929798
-0.00555217
-0.00302219
-0.00101238
-0.542013
-0.553497
-0.540324
-0.502364
-0.444138
-0.373545
-0.299204
-0.228708
-0.167323
-0.117471
-0.0795174
-0.0521358
-0.0332647
-0.0207659
-0.0127782
-0.00778116
-0.00466427
-0.00259864
-0.000931605
-0.399703
-0.39511
-0.37378
-0.337329
-0.290207
-0.23818
-0.186729
-0.14007
-0.100792
-0.0697353
-0.0465864
-0.0301922
-0.0190707
-0.0118099
-0.00723734
-0.00443577
-0.00274234
-0.00164527
-0.000686766
-0.267491
-0.293287
-0.309535
-0.309757
-0.292545
-0.26074
-0.219837
-0.175892
-0.134162
-0.0979969
-0.0689239
-0.0470014
-0.0312394
-0.0203807
-0.0131814
-0.00859065
-0.00577186
-0.00409817
-0.00302261
-0.0891819
-0.0983376
-0.107868
-0.114227
-0.115198
-0.110069
-0.0996123
-0.0854892
-0.0698786
-0.0546664
-0.0411582
-0.0301007
-0.0214902
-0.0150764
-0.0104639
-0.00729984
-0.00523778
-0.00402616
-0.00340706
0.0901952
0.0808848
0.0639037
0.0424983
0.0204683
0.001169
-0.0132288
-0.0219668
-0.0256413
-0.0255554
-0.0231471
-0.0197728
-0.0161883
-0.0128508
-0.0099463
-0.00761261
-0.00586982
-0.0047419
-0.00412669
0.267001
0.254531
0.228699
0.192944
0.152092
0.111242
0.0746598
0.0449622
0.0229486
0.008003
-0.00120419
-0.00635885
-0.008752
-0.00937733
-0.00887735
-0.00782629
-0.00662293
-0.00564229
-0.00500923
0.422494
0.40307
0.367399
0.319266
0.263818
0.206823
0.153516
0.107525
0.0705913
0.0427189
0.0228708
0.00932494
0.000553953
-0.00470679
-0.00731126
-0.00808715
-0.00770958
-0.00694752
-0.00625626
0.577075
0.547244
0.499691
0.438446
0.369002
0.297519
0.229692
0.169621
0.119577
0.0799649
0.0500129
0.0280348
0.0123836
0.00165774
-0.00501517
-0.00848802
-0.00947728
-0.00909478
-0.00826057
0.685272
0.644255
0.586909
0.517049
0.439936
0.361236
0.286204
0.218678
0.160985
0.113744
0.0764831
0.0477123
0.0258542
0.00952674
-0.00196545
-0.00921388
-0.0125095
-0.0129422
-0.0118296
0.778925
0.728631
0.661947
0.584141
0.500575
0.416404
0.336278
0.263554
0.200378
0.147388
0.1043
0.0697666
0.0422365
0.0202432
0.00315437
-0.00938544
-0.016824
-0.0195067
-0.0186161
0.857814
0.795319
0.719143
0.634667
0.546759
0.459703
0.377282
0.302156
0.236115
0.179688
0.13272
0.0940272
0.0620989
0.0352863
0.0127414
-0.00614982
-0.0201494
-0.0282203
-0.0292595
0.89768
0.817712
0.728701
0.635632
0.542597
0.452901
0.369377
0.29391
0.227758
0.171165
0.123819
0.0845629
0.0518333
0.0237091
-0.00125173
-0.024565
-0.045718
-0.063487
-0.0749178
0.911343
0.825646
0.737632
0.650506
0.566121
0.485832
0.410888
0.342181
0.280451
0.225973
0.178761
0.138364
0.103932
0.0743003
0.0482043
0.0237516
-0.000433869
-0.0256471
-0.0520576
0.914146
0.826869
0.742567
0.661311
0.583198
0.508687
0.438489
0.373294
0.313801
0.260376
0.213199
0.172176
0.136778
0.106379
0.0803148
0.057695
0.037692
0.0193523
0.00147822
0.844992
0.746005
0.656062
0.573194
0.496597
0.426122
0.361861
0.3039
0.25233
0.206959
0.167501
0.133527
0.104309
0.0791539
0.0574641
0.0386536
0.0223291
0.00834633
-0.00349389
0.726842
0.639427
0.560955
0.489494
0.424133
0.364495
0.310425
0.2618
0.21855
0.180415
0.14711
0.118257
0.0932584
0.0715556
0.0526684
0.0361064
0.0215041
0.0086943
-0.00252831
0.593625
0.522064
0.457341
0.398528
0.345033
0.29651
0.252737
0.213509
0.178681
0.147968
0.121101
0.0977463
0.0774106
0.0596414
0.0440628
0.0302861
0.0180336
0.00719578
-0.00237372
0.441078
0.386801
0.338136
0.294305
0.254733
0.219042
0.186965
0.158279
0.132825
0.110355
0.0906557
0.0734723
0.0584422
0.0452397
0.0336031
0.0232601
0.0140256
0.00584092
-0.00138699
0.275245
0.239148
0.207953
0.180456
0.155945
0.13401
0.11439
0.0968948
0.0813914
0.0677053
0.0556948
0.0451955
0.0359821
0.0278546
0.0206565
0.0142241
0.0084514
0.00331312
-0.00123738
0.104961
0.0900428
0.0777139
0.0670501
0.0576286
0.0492453
0.0417877
0.0351774
0.0293592
0.024261
0.0198212
0.0159686
0.0126105
0.00966338
0.00705956
0.00473042
0.00262922
0.000740371
-0.000955521
-0.104911
-0.0899272
-0.0775524
-0.0668583
-0.0574194
-0.0490292
-0.041573
-0.0349706
-0.029165
-0.0240829
-0.0196613
-0.0158282
-0.0124903
-0.00956366
-0.00698042
-0.0046719
-0.00259128
-0.000722637
0.000953574
-0.275197
-0.239044
-0.207809
-0.180285
-0.15576
-0.133819
-0.114202
-0.0967143
-0.0812231
-0.0675522
-0.0555587
-0.0450774
-0.0358827
-0.027774
-0.0205949
-0.0141817
-0.00842799
-0.00330843
0.00122395
-0.441029
-0.386697
-0.337992
-0.294134
-0.254547
-0.218849
-0.186774
-0.158096
-0.132654
-0.110199
-0.090517
-0.0733511
-0.0583389
-0.0451537
-0.0335341
-0.0232073
-0.0139882
-0.00581803
0.00139644
-0.593585
-0.521984
-0.457233
-0.3984
-0.344895
-0.29637
-0.252599
-0.213379
-0.178562
-0.147862
-0.121009
-0.0976692
-0.0773477
-0.0595922
-0.0440265
-0.0302621
-0.0180211
-0.00719396
0.00236575
-0.726812
-0.639367
-0.560873
-0.489396
-0.424026
-0.364386
-0.310318
-0.261701
-0.218462
-0.180339
-0.147046
-0.118205
-0.0932182
-0.0715259
-0.0526484
-0.0360948
-0.0214998
-0.00869563
0.00252316
-0.844982
-0.745974
-0.656012
-0.573131
-0.496528
-0.426053
-0.361798
-0.303847
-0.252287
-0.206928
-0.167481
-0.133517
-0.104308
-0.0791601
-0.0574763
-0.0386702
-0.0223476
-0.00836308
0.00348215
-0.914131
-0.82677
-0.742374
-0.661029
-0.582843
-0.508281
-0.438056
-0.372855
-0.313373
-0.259972
-0.212827
-0.171838
-0.136474
-0.106104
-0.0800642
-0.0574669
-0.0374908
-0.0191966
-0.00140395
-0.911486
-0.826034
-0.738267
-0.651362
-0.567158
-0.487002
-0.412137
-0.343459
-0.281714
-0.227186
-0.179902
-0.139423
-0.104909
-0.0752089
-0.0490648
-0.0245929
-0.000411541
0.0247936
0.0512336
-0.897602
-0.817516
-0.728395
-0.63524
-0.542145
-0.452417
-0.368883
-0.293426
-0.227295
-0.170729
-0.123415
-0.0841916
-0.0514931
-0.023397
0.00154284
0.0248496
0.0460282
0.0638801
0.0754704
-0.857859
-0.795432
-0.71932
-0.634899
-0.547034
-0.460007
-0.377599
-0.302471
-0.236413
-0.179959
-0.132959
-0.0942334
-0.0622723
-0.0354273
-0.0128473
0.0060884
0.020144
0.0282762
0.0293621
-0.778951
-0.7287
-0.662061
-0.584297
-0.500766
-0.41662
-0.336506
-0.26378
-0.20059
-0.147578
-0.104463
-0.0699009
-0.0423429
-0.0203214
-0.00320113
0.00937624
0.0168547
0.0195665
0.0186829
-0.685301
-0.644329
-0.587031
-0.517216
-0.440138
-0.361461
-0.286435
-0.2189
-0.161187
-0.113918
-0.0766263
-0.0478255
-0.0259394
-0.00958516
0.00193421
0.00921098
0.0125323
0.0129803
0.0118653
-0.577105
-0.547325
-0.499824
-0.438626
-0.369216
-0.297751
-0.229924
-0.169837
-0.119765
-0.0801208
-0.0501361
-0.028128
-0.0124504
-0.0017009
0.00499386
0.00848663
0.00949151
0.00911708
0.00828054
-0.422522
-0.403151
-0.367533
-0.319445
-0.264027
-0.207043
-0.153729
-0.107716
-0.0707519
-0.0428463
-0.0229672
-0.00939454
-0.000601282
0.0046783
0.00729882
0.00808785
0.0077193
0.00696132
0.00626832
-0.267035
-0.254622
-0.228846
-0.193134
-0.152306
-0.111459
-0.0748596
-0.0451327
-0.0230845
-0.00810493
0.00113156
0.00630972
0.00872115
0.00936084
0.00887206
0.00782921
0.00663077
0.00565199
0.00501763
-0.0902265
-0.080976
-0.0640502
-0.0426837
-0.0206695
-0.00136329
0.0130588
0.0218302
0.0255395
0.0254848
0.0231009
0.0197449
0.0161734
0.0128454
0.0099475
0.00761805
0.00587732
0.0047499
0.00413379
0.0891048
0.0981102
0.107507
0.113778
0.11472
0.109616
0.0992218
0.0851781
0.0696472
0.0545042
0.0410501
0.0300322
0.0214493
0.0150539
0.0104532
0.00729615
0.00523781
0.00402828
0.00341133
0.267538
0.293464
0.309847
0.310178
0.293027
0.26123
0.220292
0.176284
0.134478
0.0982379
0.0691
0.0471259
0.0313255
0.0204398
0.0132224
0.00861973
0.00579336
0.00411495
0.00303601
0.399642
0.394906
0.373452
0.336919
0.289768
0.237758
0.186357
0.139763
0.100552
0.0695574
0.0464594
0.0301048
0.0190126
0.0117725
0.0072141
0.00442185
0.00273435
0.0016411
0.000685372
0.542041
0.553553
0.540403
0.502454
0.444227
0.373623
0.299265
0.228751
0.167351
0.117487
0.0795255
0.0521393
0.0332659
0.0207662
0.0127782
0.00778123
0.0046644
0.00259885
0.000931838
0.662238
0.670069
0.647419
0.596357
0.523197
0.437472
0.348981
0.266133
0.194553
0.13668
0.0927105
0.0609846
0.03909
0.0245461
0.0152025
0.00929856
0.0055528
0.00302273
0.00101265
0.764313
0.764787
0.731383
0.668042
0.582326
0.484779
0.385785
0.29407
0.215286
0.151747
0.103472
0.068562
0.0443761
0.0282173
0.0177508
0.0110542
0.00672348
0.00372031
0.00126969
0.856075
0.845328
0.79959
0.723926
0.62678
0.519364
0.41227
0.314156
0.230422
0.163097
0.111962
0.0749061
0.0491311
0.0318026
0.0204745
0.0131177
0.00823803
0.00470899
0.0016608
0.932346
0.90805
0.849653
0.762339
0.655355
0.540338
0.427755
0.325855
0.239542
0.170422
0.117984
0.0799368
0.0533795
0.0354132
0.0235464
0.0156913
0.0102912
0.00613676
0.00225193
0.966123
0.932799
0.865324
0.770433
0.658304
0.540602
0.42727
0.325829
0.240514
0.172458
0.12089
0.0834269
0.0571789
0.0392897
0.0273124
0.0191595
0.0132457
0.0082826
0.00316717
1.00808
0.963395
0.883627
0.778688
0.659846
0.538678
0.424463
0.323797
0.240064
0.173774
0.123774
0.0875168
0.06208
0.0446278
0.0327498
0.0243404
0.0177638
0.0116128
0.00459823
1.03986
0.978576
0.885365
0.77115
0.647506
0.525373
0.412989
0.315708
0.235886
0.173318
0.126444
0.092575
0.0687954
0.0523277
0.0408293
0.0321727
0.0246554
0.0167045
0.00677692
1.04741
0.969418
0.864289
0.743531
0.618672
0.499475
0.392701
0.302169
0.229077
0.172475
0.130444
0.100215
0.0789464
0.0639649
0.053027
0.0439631
0.0349749
0.0242656
0.00996811
1.0338
0.940271
0.82497
0.700716
0.578431
0.466033
0.368376
0.287543
0.223536
0.174694
0.138833
0.113166
0.094979
0.0817234
0.0712555
0.0613075
0.0499373
0.0350602
0.0144323
1.01494
0.903327
0.778563
0.653326
0.536651
0.433908
0.347729
0.278409
0.224816
0.184653
0.155585
0.134838
0.119844
0.108142
0.0976505
0.0859082
0.070769
0.0498088
0.0203915
0.979696
0.849972
0.720153
0.599373
0.493456
0.404677
0.333233
0.277741
0.236109
0.205577
0.18384
0.168197
0.156256
0.145617
0.134217
0.119315
0.0985247
0.0690808
0.0280087
0.878343
0.744854
0.623888
0.520804
0.437095
0.371427
0.32151
0.284637
0.258166
0.239237
0.225909
0.215735
0.206617
0.196249
0.182606
0.162653
0.133813
0.0930912
0.0373229
0.78226
0.651341
0.546096
0.46624
0.40782
0.366203
0.33728
0.317722
0.304801
0.295791
0.289231
0.282892
0.274879
0.26286
0.244759
0.217195
0.177421
0.122307
0.0485576
0.666479
0.549893
0.474324
0.427761
0.400516
0.385842
0.378897
0.376528
0.376398
0.376194
0.375031
0.370954
0.362219
0.346426
0.321423
0.28352
0.229849
0.157239
0.0621803
0.470931
0.407965
0.388274
0.391434
0.405468
0.423837
0.442424
0.459055
0.472319
0.480692
0.483982
0.480717
0.469333
0.447458
0.412922
0.361927
0.29156
0.198672
0.079168
0.278532
0.300024
0.348128
0.403722
0.457688
0.505983
0.546491
0.578439
0.601603
0.615394
0.620128
0.614936
0.598313
0.567934
0.521586
0.455473
0.366415
0.250851
0.102756
0.0901896
0.218392
0.341757
0.451411
0.544886
0.62167
0.682371
0.727664
0.758691
0.776008
0.780267
0.771513
0.74828
0.708461
0.649802
0.568597
0.460837
0.32143
0.139791
-0.0544057
0.181869
0.376296
0.535554
0.664926
0.766996
0.845221
0.901462
0.938328
0.957751
0.960552
0.948126
0.919123
0.871926
0.804202
0.712234
0.589947
0.428319
0.20731
-0.123139
0.194635
0.44556
0.646049
0.806205
0.929892
1.02302
1.0883
1.1299
1.15148
1.15404
1.14094
1.11133
1.06458
0.998347
0.908616
0.7852
0.610865
0.347996
-0.105228
0.248881
0.536025
0.767532
0.952634
1.09411
1.19968
1.2727
1.31912
1.34491
1.35164
1.34555
1.3274
1.29886
1.25816
1.20131
1.1117
0.957882
0.672963
-0.0208025
0.326728
0.631019
0.883788
1.0878
1.243
1.35827
1.438
1.49015
1.52416
1.54307
1.5575
1.57284
1.59651
1.63019
1.67418
1.70673
1.67873
1.48081
0.0804175
0.402922
0.71446
0.981878
1.19906
1.36338
1.4845
1.56945
1.62785
1.67539
1.71748
1.77184
1.85769
2.00058
2.22884
2.60545
3.22196
4.27149
6.15174
)
;

boundaryField
{
    up
    {
        type            calculated;
        value           nonuniform List<scalar> 
84
(
-6.15173
-1.48081
-0.672967
-0.347999
-0.207311
-0.13979
-0.102754
-0.0791655
-0.0621787
-0.0485573
-0.0373236
-0.02801
-0.0203927
-0.0144331
-0.00996841
-0.00677682
-0.0045979
-0.00316679
-0.00225158
-0.00166051
-0.00126945
-0.00101238
-0.000931605
-0.000686766
-0.00248846
-0.00304918
-0.00371352
-0.00447751
-0.00550423
-0.00711062
-0.00991716
-0.0149425
-0.0225223
-0.0702653
-0.0522718
0.00147193
-0.00339831
-0.00246617
-0.00233594
-0.00136963
-0.00122895
-0.000952603
0.000950681
0.00121563
0.00137915
0.00232821
0.00246132
0.00338691
-0.00139894
0.0514553
0.0709073
0.022618
0.0149913
0.00994059
0.00712286
0.00551154
0.00448308
0.00371899
0.00305417
0.00249952
0.000685372
0.000931838
0.00101265
0.00126969
0.0016608
0.00225193
0.00316717
0.00459823
0.00677692
0.00996811
0.0144323
0.0203915
0.0280087
0.0373229
0.0485576
0.0621803
0.079168
0.102756
0.139791
0.20731
0.347996
0.672963
1.48081
6.15174
)
;
    }
    low
    {
        type            calculated;
        value           nonuniform List<scalar> 
84
(
-0.072196
0.0334744
0.125177
0.144212
0.0672619
-0.0924902
-0.296899
-0.500941
-0.700618
-0.81041
-0.903957
-1.00211
-1.02795
-1.04173
-1.05265
-1.03992
-1.00328
-0.960211
-0.922866
-0.838879
-0.742271
-0.637678
-0.516087
-0.37566
-0.24762
-0.0817987
0.0817439
0.246422
0.397218
0.553731
0.66853
0.76739
0.852804
0.900212
0.919322
0.92835
0.865244
0.746895
0.610729
0.454261
0.283792
0.108483
-0.108432
-0.283743
-0.454208
-0.610684
-0.746859
-0.865226
-0.928327
-0.919441
-0.900135
-0.852837
-0.767411
-0.668557
-0.553761
-0.397247
-0.246458
-0.0817756
0.0817232
0.247665
0.375603
0.51611
0.637679
0.742272
0.838879
0.922868
0.960213
1.00329
1.03992
1.05265
1.04173
1.02796
1.00211
0.903961
0.810417
0.700624
0.500945
0.296903
0.0924935
-0.0672602
-0.144213
-0.12518
-0.0334764
0.0721964
)
;
    }
    left
    {
        type            calculated;
        value           nonuniform List<scalar> 
19
(
-0.0723111
-0.389659
-0.709353
-0.987604
-1.21535
-1.38808
-1.51592
-1.60682
-1.67029
-1.72524
-1.77709
-1.84509
-1.95365
-2.13564
-2.42566
-2.91062
-3.71693
-5.11402
-5.33419
)
;
    }
    right
    {
        type            calculated;
        value           nonuniform List<scalar> 
19
(
0.0723124
0.38966
0.709351
0.9876
1.21534
1.38808
1.51592
1.60682
1.67029
1.72525
1.7771
1.8451
1.95365
2.13563
2.42565
2.91061
3.71692
5.11402
5.33419
)
;
    }
    frontAndBackPlanes
    {
        type            empty;
    }
}


// ************************************************************************* //
