/*--------------------------------*- C++ -*----------------------------------*\
  =========                 |
  \\      /  F ield         | OpenFOAM: The Open Source CFD Toolbox
   \\    /   O peration     | Website:  https://openfoam.org
    \\  /    A nd           | Version:  7
     \\/     M anipulation  |
\*---------------------------------------------------------------------------*/
FoamFile
{
    version     2.0;
    format      ascii;
    class       volScalarField;
    location    "0.1";
    object      T;
}
// * * * * * * * * * * * * * * * * * * * * * * * * * * * * * * * * * * * * * //

dimensions      [0 0 0 1 0 0 0];

internalField   nonuniform List<scalar> 
1596
(
0.994896
0.980397
0.965993
0.953148
0.94242
0.933834
0.927207
0.922039
0.917944
0.914108
0.909941
0.904597
0.896433
0.883359
0.862389
0.827342
0.767156
0.659974
0.461987
0.978154
0.933487
0.892675
0.857421
0.828292
0.805048
0.787055
0.773171
0.762353
0.752973
0.743691
0.732848
0.717762
0.695327
0.661936
0.611581
0.535734
0.420452
0.239744
0.959008
0.885047
0.820599
0.766085
0.721425
0.685913
0.658452
0.637451
0.621396
0.608236
0.596241
0.583402
0.566819
0.543284
0.509372
0.460034
0.389091
0.287932
0.141385
0.941176
0.841194
0.756389
0.685569
0.627841
0.582013
0.546585
0.519653
0.499386
0.48352
0.470138
0.457116
0.441644
0.420719
0.391266
0.349095
0.289578
0.207132
0.0926639
0.927693
0.806841
0.705255
0.62078
0.551952
0.497236
0.454846
0.42268
0.398703
0.380549
0.366214
0.353563
0.339973
0.322718
0.299071
0.265492
0.218304
0.153523
0.0652937
0.920005
0.784433
0.669739
0.573968
0.495589
0.432976
0.384218
0.347124
0.319542
0.299061
0.283637
0.271155
0.259189
0.245283
0.227021
0.201363
0.165238
0.115504
0.0479869
0.917636
0.7735
0.649332
0.544454
0.457842
0.388089
0.333346
0.291441
0.260178
0.237137
0.220248
0.207421
0.196396
0.184956
0.170952
0.151756
0.124733
0.0872288
0.0359664
0.918888
0.771426
0.64119
0.529321
0.435756
0.359594
0.299238
0.252644
0.217643
0.19183
0.173117
0.159425
0.148622
0.138685
0.12769
0.113364
0.0934284
0.0655742
0.027065
0.922378
0.775479
0.642047
0.52512
0.425832
0.344005
0.278456
0.227366
0.188659
0.159972
0.139201
0.124263
0.113112
0.103863
0.0947818
0.0838927
0.0692363
0.0487995
0.0202411
0.925926
0.78163
0.647221
0.527068
0.423424
0.336901
0.266827
0.211688
0.169555
0.138131
0.115305
0.0989846
0.0871688
0.0780707
0.0700956
0.0615203
0.0506669
0.0358027
0.0149346
0.928393
0.787038
0.653005
0.531167
0.424554
0.334472
0.260766
0.202258
0.157204
0.123395
0.0987293
0.0811026
0.0685341
0.0592978
0.0519015
0.0448238
0.0366307
0.0258537
0.0108252
0.930923
0.792399
0.659183
0.536454
0.427762
0.334957
0.258345
0.197067
0.149577
0.113758
0.0875236
0.068755
0.0554712
0.0459752
0.03884
0.0326953
0.0263044
0.0184339
0.0077135
0.932942
0.796818
0.66444
0.541223
0.431077
0.336257
0.257434
0.194024
0.14465
0.107281
0.0798442
0.0602025
0.0463618
0.0366322
0.0296234
0.0240714
0.0188908
0.013044
0.00541958
0.933706
0.798939
0.66713
0.543648
0.432582
0.336446
0.256162
0.191345
0.140741
0.102382
0.0742003
0.0540396
0.0398876
0.0300518
0.0231618
0.0180278
0.0136767
0.00922563
0.00377577
0.934007
0.799524
0.667665
0.543761
0.43198
0.334975
0.253805
0.188194
0.136951
0.098128
0.0696452
0.0493194
0.0351168
0.0253372
0.018621
0.0138304
0.0100739
0.00658596
0.0026328
0.9341
0.799097
0.666483
0.541769
0.429227
0.331582
0.24994
0.18404
0.132677
0.0938734
0.0655071
0.0453548
0.0313579
0.0218069
0.0153505
0.0108899
0.00759479
0.0047871
0.0018565
0.93366
0.797349
0.663325
0.537391
0.423978
0.325863
0.244119
0.17841
0.127437
0.0891336
0.0612987
0.0416547
0.0281163
0.0189685
0.0128714
0.00876238
0.00586124
0.00355802
0.00133438
0.932881
0.794556
0.658498
0.530902
0.416432
0.317918
0.236351
0.171238
0.121105
0.0837321
0.0568023
0.0379661
0.0251102
0.0165197
0.0108732
0.00714683
0.004607
0.00270073
0.000980618
0.932716
0.792237
0.653603
0.523777
0.407838
0.308739
0.227374
0.163037
0.114005
0.0778439
0.0520756
0.0342572
0.0222413
0.0143151
0.00918156
0.00585889
0.00365959
0.00208154
0.000734888
0.93292
0.790439
0.648909
0.516377
0.398559
0.298641
0.217439
0.153991
0.106259
0.0715348
0.0471352
0.0305021
0.0194477
0.0122651
0.00768799
0.00478206
0.00290819
0.00161301
0.000556906
0.932874
0.78841
0.643872
0.508394
0.388469
0.287619
0.206605
0.144187
0.097954
0.0648748
0.0420254
0.0267159
0.016717
0.0103334
0.00633852
0.00385247
0.0022886
0.00124281
0.000421937
0.933042
0.786738
0.639176
0.500595
0.37836
0.276418
0.195527
0.134158
0.0894997
0.0581591
0.0369435
0.023018
0.0141095
0.00853814
0.0051228
0.00304297
0.00176714
0.000941037
0.00031554
0.933675
0.785985
0.635564
0.493838
0.36913
0.265902
0.184965
0.124527
0.0813722
0.0517267
0.032114
0.0195443
0.0116971
0.00690792
0.00404201
0.00233855
0.00132117
0.000685492
0.00022649
0.934697
0.786248
0.633365
0.488667
0.361473
0.256815
0.175625
0.115897
0.0740384
0.0459102
0.0277538
0.0164222
0.00954408
0.00546603
0.00309482
0.00172375
0.000927095
0.000447966
0.000130861
0.937043
0.791016
0.638818
0.493565
0.365153
0.259126
0.176758
0.1162
0.0738609
0.0455243
0.0273312
0.0160488
0.00924936
0.00524856
0.00293967
0.00161224
0.000843275
0.000384492
9.67177e-05
0.939963
0.798801
0.650084
0.506598
0.37829
0.271067
0.186744
0.12398
0.0795618
0.0494863
0.0299574
0.0177188
0.0102727
0.0058564
0.00329271
0.0018143
0.000956253
0.000442262
0.000115278
0.94167
0.804488
0.659414
0.518467
0.391219
0.28363
0.197879
0.133112
0.0865644
0.0545448
0.0334176
0.0199674
0.0116626
0.00667377
0.00375184
0.00206171
0.00108384
0.000501681
0.000132233
0.942173
0.807856
0.666368
0.528617
0.403414
0.296428
0.209985
0.143628
0.0950571
0.0609779
0.0380122
0.0230686
0.0136375
0.00785482
0.00441236
0.00240526
0.00124844
0.000570163
0.000148614
0.942016
0.809812
0.671856
0.537785
0.4154
0.309837
0.223372
0.155843
0.105395
0.0691729
0.0441329
0.0273849
0.0165029
0.00963172
0.00543111
0.00293738
0.00149672
0.000666867
0.000168674
0.941336
0.810893
0.676553
0.546553
0.427569
0.324075
0.238171
0.169883
0.117759
0.0793837
0.0520922
0.0332545
0.020584
0.0122816
0.00701454
0.00378903
0.00189739
0.000820421
0.000198958
0.940539
0.812026
0.681511
0.555849
0.440624
0.339625
0.254702
0.185998
0.132397
0.0919027
0.0622382
0.0410667
0.0262802
0.0161747
0.00946421
0.00516696
0.00256258
0.00107539
0.000249124
0.940518
0.814533
0.688059
0.566832
0.45548
0.357156
0.273447
0.204555
0.149642
0.107082
0.0749744
0.051282
0.0340935
0.0218193
0.0132437
0.00743096
0.00370822
0.00151423
0.000330083
0.940822
0.817738
0.695505
0.578859
0.471563
0.376183
0.294029
0.225308
0.169399
0.124996
0.0905415
0.064299
0.0445618
0.0298627
0.0190551
0.0112473
0.00584453
0.00239509
0.000457872
0.94133
0.821455
0.703655
0.591749
0.488718
0.396575
0.316353
0.248224
0.191728
0.145821
0.109259
0.0805969
0.0583395
0.0411515
0.027945
0.0178292
0.0102206
0.00475904
0.00113521
0.941676
0.82452
0.710546
0.602843
0.503728
0.414734
0.336619
0.269475
0.212928
0.16611
0.128017
0.0974457
0.0730977
0.0537765
0.0384583
0.0262264
0.0164117
0.00858946
0.00246458
0.940898
0.82427
0.712106
0.606867
0.51034
0.423665
0.347353
0.281377
0.22535
0.178462
0.139819
0.108342
0.082848
0.0622419
0.0455805
0.0319765
0.0207513
0.0114155
0.00355425
0.93931
0.821776
0.710104
0.606142
0.511227
0.42618
0.351292
0.28641
0.231091
0.184519
0.145838
0.114023
0.0879507
0.0665882
0.0490637
0.0345504
0.0224397
0.0123182
0.00382034
0.938205
0.820156
0.70901
0.606155
0.512587
0.428879
0.355157
0.291163
0.236413
0.190082
0.151344
0.119222
0.0926382
0.0706149
0.0523395
0.0370327
0.024134
0.0132795
0.0041327
0.937703
0.819524
0.708877
0.606892
0.514346
0.431643
0.358785
0.29544
0.241091
0.194906
0.156082
0.123675
0.0966444
0.0740541
0.0551385
0.0391562
0.0255855
0.0141052
0.00440375
0.937383
0.819164
0.708914
0.607587
0.515804
0.433849
0.361633
0.298769
0.244717
0.198637
0.15974
0.127111
0.099734
0.0767036
0.0572911
0.0407847
0.0266941
0.0147327
0.00460972
0.937118
0.818805
0.708796
0.607911
0.516654
0.435217
0.363452
0.30093
0.247093
0.201097
0.162164
0.129393
0.101787
0.0784626
0.0587158
0.0418564
0.0274167
0.0151365
0.0047408
0.936672
0.818144
0.708251
0.607639
0.516713
0.435604
0.364128
0.301832
0.248149
0.202234
0.163312
0.130494
0.102792
0.0793319
0.0594261
0.0423947
0.0277825
0.0153426
0.00480885
0.936674
0.818149
0.708259
0.607648
0.516723
0.435615
0.364138
0.301842
0.248159
0.202243
0.163321
0.130502
0.102798
0.0793373
0.0594305
0.0423982
0.0277849
0.0153441
0.00480936
0.937124
0.81882
0.708818
0.607937
0.516683
0.435248
0.363483
0.30096
0.247122
0.201124
0.162188
0.129415
0.101806
0.078479
0.0587294
0.041867
0.0274243
0.0151411
0.00474241
0.937392
0.819189
0.708949
0.607629
0.515851
0.433898
0.361683
0.298818
0.244763
0.19868
0.15978
0.127146
0.0997646
0.0767296
0.0573125
0.0408014
0.026706
0.0147399
0.0046122
0.937715
0.819557
0.708924
0.606949
0.514409
0.43171
0.358853
0.295505
0.241153
0.194964
0.156134
0.123721
0.0966849
0.0740884
0.0551666
0.039178
0.0256011
0.0141146
0.00440699
0.938221
0.820196
0.709069
0.606226
0.512666
0.428963
0.355241
0.291244
0.23649
0.190153
0.151408
0.119279
0.0926874
0.0706564
0.0523732
0.0370588
0.0241525
0.0132907
0.00413653
0.939328
0.821823
0.710172
0.606225
0.51132
0.426278
0.351391
0.286505
0.231181
0.184602
0.145912
0.114088
0.0880063
0.0666346
0.0491011
0.034579
0.0224597
0.01233
0.00382433
0.940919
0.824323
0.712184
0.606964
0.510447
0.423778
0.347466
0.281487
0.225453
0.178555
0.139902
0.108414
0.0829086
0.0622916
0.0456197
0.0320057
0.0207711
0.0114269
0.00355807
0.941701
0.824597
0.710667
0.602998
0.503908
0.414928
0.336817
0.269669
0.21311
0.166278
0.128167
0.0975774
0.0732113
0.0538734
0.0385399
0.0262938
0.0164646
0.0086255
0.00247892
0.941361
0.821546
0.703798
0.591933
0.488929
0.396801
0.316582
0.248445
0.191934
0.146007
0.109422
0.0807376
0.0584586
0.0412508
0.0280264
0.0178935
0.0102677
0.00478796
0.00114517
0.940849
0.817819
0.695632
0.579023
0.471751
0.376381
0.294226
0.225494
0.169569
0.125145
0.090668
0.0644041
0.0446472
0.0299306
0.0191073
0.0112848
0.00586823
0.00240654
0.000460165
0.940543
0.814609
0.688181
0.56699
0.455659
0.357343
0.273631
0.204725
0.149792
0.107211
0.0750804
0.051367
0.0341601
0.02187
0.0132805
0.00745568
0.00372252
0.00152043
0.000331268
0.940562
0.812098
0.681627
0.555999
0.440793
0.339799
0.25487
0.186151
0.132529
0.0920122
0.0623258
0.0411347
0.0263316
0.0162121
0.00949017
0.00518347
0.00257163
0.00107914
0.000249782
0.941356
0.810959
0.676662
0.546692
0.427726
0.324236
0.238323
0.170019
0.117873
0.0794759
0.0521638
0.0333082
0.0206231
0.0123091
0.00703272
0.00380005
0.00190319
0.000822758
0.000199348
0.942034
0.809872
0.671955
0.537914
0.415544
0.309982
0.223507
0.15596
0.105492
0.0692492
0.0441904
0.0274268
0.0165324
0.00965162
0.00544378
0.00294477
0.00150049
0.000668366
0.000168927
0.942189
0.807909
0.666456
0.528731
0.403542
0.296556
0.210102
0.143728
0.0951378
0.0610397
0.0380576
0.0231008
0.0136595
0.00786921
0.00442123
0.00241029
0.00125099
0.000571196
0.000148811
0.941683
0.804534
0.659491
0.518566
0.39133
0.283739
0.197977
0.133195
0.0866302
0.0545943
0.0334533
0.0199922
0.0116791
0.00668435
0.00375825
0.00206533
0.0010857
0.000502499
0.000132427
0.939974
0.79884
0.650149
0.506682
0.378382
0.271158
0.186825
0.124047
0.0796148
0.0495258
0.0299856
0.0177381
0.0102855
0.00586448
0.00329761
0.00181711
0.00095778
0.000443003
0.000115497
0.937044
0.791025
0.638835
0.493587
0.365178
0.259151
0.176782
0.11622
0.0738772
0.0455369
0.0273404
0.0160553
0.0092537
0.0052513
0.00294128
0.00161309
0.000843648
0.000384569
9.66583e-05
0.934693
0.786238
0.63335
0.488649
0.361454
0.256797
0.175609
0.115884
0.0740281
0.0459026
0.0277485
0.0164185
0.00954151
0.00546425
0.00309357
0.00172287
0.000926489
0.000447556
0.00013065
0.933674
0.785983
0.635562
0.493836
0.36913
0.265903
0.184967
0.124529
0.0813739
0.0517282
0.0321151
0.0195451
0.0116975
0.00690811
0.00404207
0.00233854
0.00132114
0.000685452
0.000226453
0.933042
0.786737
0.639175
0.500594
0.37836
0.276419
0.195528
0.134159
0.0895009
0.0581601
0.0369442
0.0230184
0.0141097
0.00853825
0.00512285
0.00304299
0.00176715
0.000941043
0.000315535
0.932874
0.788409
0.643871
0.508393
0.388469
0.287619
0.206606
0.144187
0.0979547
0.0648753
0.0420258
0.0267161
0.0167172
0.0103336
0.00633863
0.00385258
0.0022887
0.00124288
0.000421956
0.93292
0.790438
0.648908
0.516376
0.398559
0.298642
0.217439
0.153992
0.10626
0.0715351
0.0471355
0.0305023
0.0194479
0.0122653
0.00768821
0.00478229
0.00290839
0.00161316
0.00055695
0.932716
0.792236
0.653602
0.523777
0.407838
0.308739
0.227374
0.163037
0.114005
0.077844
0.0520757
0.0342575
0.0222415
0.0143154
0.00918192
0.00585927
0.00365995
0.00208179
0.000734963
0.932881
0.794556
0.658498
0.530902
0.416432
0.317918
0.236351
0.171238
0.121105
0.0837321
0.0568024
0.0379663
0.0251106
0.0165201
0.0108737
0.00714742
0.00460755
0.00270112
0.000980729
0.93366
0.797349
0.663325
0.537391
0.423979
0.325863
0.244119
0.178409
0.127437
0.0891335
0.0612988
0.0416551
0.0281168
0.0189692
0.0128722
0.00876326
0.00586203
0.00355855
0.00133452
0.9341
0.799098
0.666484
0.54177
0.429227
0.331582
0.24994
0.184039
0.132676
0.0938733
0.0655073
0.0453553
0.0313586
0.0218079
0.0153516
0.0108911
0.00759584
0.00478777
0.00185666
0.934007
0.799524
0.667666
0.543762
0.431981
0.334974
0.253805
0.188194
0.136951
0.098128
0.0696455
0.04932
0.0351178
0.0253385
0.0186225
0.0138319
0.0100752
0.0065867
0.00263295
0.933707
0.79894
0.667131
0.543648
0.432582
0.336446
0.256162
0.191344
0.140741
0.102382
0.0742008
0.0540405
0.039889
0.0300535
0.0231637
0.0180296
0.0136781
0.0092263
0.00377584
0.932943
0.796819
0.664441
0.541224
0.431077
0.336257
0.257434
0.194024
0.14465
0.107282
0.079845
0.0602038
0.0463635
0.0366342
0.0296254
0.0240731
0.0188919
0.0130444
0.00541953
0.930923
0.7924
0.659184
0.536455
0.427762
0.334957
0.258344
0.197067
0.149577
0.113759
0.0875247
0.0687566
0.0554731
0.0459772
0.0388418
0.0326966
0.0263049
0.0184338
0.00771331
0.928393
0.787039
0.653006
0.531168
0.424554
0.334471
0.260766
0.202258
0.157204
0.123396
0.0987306
0.0811043
0.0685359
0.0592994
0.0519026
0.0448242
0.0366303
0.025853
0.0108249
0.925926
0.781631
0.647222
0.527068
0.423423
0.3369
0.266826
0.211688
0.169555
0.138131
0.115306
0.0989859
0.08717
0.0780714
0.0700955
0.0615194
0.0506655
0.0358015
0.0149343
0.922379
0.77548
0.642047
0.52512
0.425831
0.344005
0.278455
0.227366
0.18866
0.159973
0.139201
0.124263
0.113112
0.103863
0.0947801
0.0838903
0.0692339
0.048798
0.0202409
0.918888
0.771426
0.641189
0.52932
0.435755
0.359593
0.299238
0.252644
0.217643
0.19183
0.173117
0.159424
0.148621
0.138682
0.127687
0.11336
0.0934254
0.0655727
0.027065
0.917636
0.773499
0.649331
0.544453
0.457841
0.388088
0.333345
0.29144
0.260177
0.237136
0.220247
0.207419
0.196393
0.184952
0.170947
0.151752
0.12473
0.0872278
0.0359668
0.920005
0.784432
0.669739
0.573967
0.495588
0.432975
0.384218
0.347123
0.319541
0.299059
0.283634
0.271152
0.259185
0.245279
0.227016
0.20136
0.165236
0.115504
0.0479874
0.927693
0.806841
0.705255
0.62078
0.551952
0.497236
0.454846
0.422679
0.398702
0.380546
0.36621
0.353559
0.339969
0.322713
0.299067
0.26549
0.218304
0.153524
0.0652943
0.941175
0.841194
0.756389
0.685569
0.627841
0.582013
0.546585
0.519651
0.499384
0.483517
0.470134
0.457112
0.44164
0.420715
0.391264
0.349094
0.289579
0.207133
0.0926644
0.959008
0.885047
0.820599
0.766085
0.721425
0.685913
0.658452
0.63745
0.621394
0.608234
0.596238
0.583399
0.566816
0.543282
0.509371
0.460035
0.389093
0.287934
0.141385
0.978154
0.933487
0.892676
0.857422
0.828292
0.805048
0.787055
0.773171
0.762352
0.752971
0.743689
0.732847
0.717761
0.695327
0.661937
0.611582
0.535736
0.420452
0.239743
0.994896
0.980397
0.965993
0.953148
0.94242
0.933834
0.927207
0.922038
0.917943
0.914108
0.909941
0.904596
0.896433
0.88336
0.862389
0.827343
0.767156
0.659974
0.461987
)
;

boundaryField
{
    up
    {
        type            fixedValue;
        value           uniform 0;
    }
    low
    {
        type            fixedValue;
        value           uniform 1;
    }
    left
    {
        type            fixedValue;
        value           uniform 1;
    }
    right
    {
        type            fixedValue;
        value           uniform 1;
    }
    frontAndBackPlanes
    {
        type            empty;
    }
}


// ************************************************************************* //
