/*--------------------------------*- C++ -*----------------------------------*\
  =========                 |
  \\      /  F ield         | OpenFOAM: The Open Source CFD Toolbox
   \\    /   O peration     | Website:  https://openfoam.org
    \\  /    A nd           | Version:  7
     \\/     M anipulation  |
\*---------------------------------------------------------------------------*/
FoamFile
{
    version     2.0;
    format      ascii;
    class       volScalarField;
    location    "0.4";
    object      gradTy;
}
// * * * * * * * * * * * * * * * * * * * * * * * * * * * * * * * * * * * * * //

dimensions      [0 -1 0 1 0 0 0];

internalField   nonuniform List<scalar> 
1596
(
-0.209676
-0.39196
-0.546623
-0.702334
-0.860847
-1.04218
-1.24024
-1.47851
-1.76804
-2.11704
-2.59125
-3.19304
-4.0159
-5.17335
-6.95084
-9.70305
-14.5959
-23.6041
-55.7621
-0.639917
-0.796209
-0.913492
-1.03269
-1.15906
-1.31344
-1.49001
-1.70929
-1.98073
-2.30672
-2.74064
-3.27846
-3.98204
-4.90319
-6.18776
-7.91229
-10.4648
-14.2109
-24.843
-1.14675
-1.20891
-1.26251
-1.33349
-1.42063
-1.54092
-1.68668
-1.87494
-2.11196
-2.39602
-2.76967
-3.22261
-3.79673
-4.51615
-5.46874
-6.66897
-8.32711
-10.599
-15.4836
-1.67902
-1.6113
-1.58611
-1.60106
-1.64385
-1.72477
-1.83374
-1.98375
-2.17805
-2.41231
-2.72001
-3.08753
-3.54351
-4.09787
-4.8056
-5.65749
-6.77633
-8.22864
-10.7268
-2.17072
-1.97989
-1.87639
-1.83399
-1.83084
-1.87007
-1.93969
-2.04866
-2.1979
-2.38167
-2.62604
-2.91667
-3.27339
-3.69912
-4.22953
-4.84795
-5.6305
-6.60357
-8.02976
-2.5617
-2.29206
-2.12645
-2.03279
-1.98625
-1.98466
-2.0154
-2.08386
-2.18939
-2.32582
-2.51314
-2.73795
-3.01404
-3.34101
-3.74262
-4.20134
-4.76631
-5.44558
-6.34069
-2.81873
-2.53019
-2.32996
-2.19804
-2.11486
-2.07636
-2.07109
-2.10175
-2.16694
-2.26072
-2.39818
-2.56765
-2.77872
-3.02951
-3.33603
-3.68241
-4.10104
-4.59171
-5.19558
-2.94058
-2.68361
-2.47964
-2.32731
-2.21798
-2.14928
-2.11283
-2.10994
-2.13919
-2.19542
-2.28984
-2.41291
-2.57119
-2.76231
-2.99702
-3.26184
-3.5783
-3.94267
-4.3719
-2.95161
-2.7639
-2.58329
-2.42869
-2.30474
-2.21361
-2.15145
-2.11956
-2.11725
-2.14052
-2.19774
-2.28146
-2.39614
-2.53934
-2.71824
-2.92157
-3.16354
-3.4391
-3.75479
-2.87288
-2.76005
-2.62099
-2.4819
-2.35708
-2.25401
-2.17391
-2.11932
-2.09095
-2.08628
-2.1119
-2.16233
-2.24073
-2.34491
-2.47972
-2.63588
-2.82276
-3.03503
-3.27437
-2.7729
-2.71429
-2.6177
-2.50294
-2.38698
-2.28069
-2.18963
-2.11818
-2.06878
-2.04065
-2.03944
-2.06148
-2.10924
-2.18093
-2.27986
-2.3984
-2.54269
-2.70748
-2.89208
-2.64841
-2.64557
-2.59078
-2.50386
-2.40247
-2.29915
-2.2026
-2.11905
-2.05278
-2.00478
-1.98047
-1.97781
-1.99905
-2.0429
-2.11176
-2.19931
-2.30954
-2.43747
-2.58134
-2.49469
-2.54146
-2.52776
-2.47138
-2.38943
-2.29508
-2.1989
-2.10873
-2.03049
-1.96687
-1.92354
-1.90003
-1.89872
-1.91899
-1.96283
-2.02505
-2.10832
-2.20804
-2.32185
-2.35579
-2.43136
-2.45053
-2.42261
-2.36125
-2.2789
-2.18679
-2.09384
-2.0073
-1.93134
-1.87221
-1.83082
-1.80998
-1.80977
-1.83218
-1.87296
-1.93401
-2.01112
-2.10167
-2.22584
-2.32389
-2.36867
-2.36534
-2.32369
-2.25448
-2.16864
-2.0756
-1.98354
-1.89786
-1.82549
-1.76858
-1.73056
-1.71228
-1.71594
-1.73818
-1.78053
-1.83915
-1.91137
-2.09841
-2.21716
-2.28355
-2.30147
-2.27803
-2.22217
-2.14394
-2.05284
-1.95756
-1.86442
-1.78106
-1.7107
-1.65749
-1.6231
-1.61017
-1.61618
-1.64258
-1.68594
-1.74363
-1.98238
-2.11467
-2.19849
-2.23453
-2.22742
-2.18437
-2.1143
-2.02642
-1.92963
-1.83086
-1.73836
-1.65628
-1.5895
-1.54052
-1.51258
-1.50403
-1.51654
-1.54706
-1.59303
-1.88016
-2.02105
-2.1184
-2.1696
-2.1768
-2.14552
-2.08349
-1.9994
-1.90212
-1.79898
-1.69868
-1.60614
-1.52691
-1.46431
-1.42227
-1.40009
-1.39992
-1.41921
-1.45551
-1.77934
-1.93552
-2.04649
-2.11146
-2.13163
-2.11115
-2.05675
-1.97655
-1.87924
-1.77241
-1.66505
-1.56275
-1.47161
-1.39567
-1.3396
-1.30373
-1.29103
-1.29972
-1.32763
-1.67779
-1.85089
-1.97655
-2.05511
-2.08765
-2.07758
-2.03082
-1.95492
-1.85832
-1.74873
-1.63536
-1.52425
-1.42195
-1.33306
-1.26287
-1.21274
-1.18687
-1.18485
-1.20526
-1.59146
-1.77491
-1.91379
-2.00531
-2.0496
-2.04941
-2.01
-1.93844
-1.84292
-1.73115
-1.61246
-1.49322
-1.38031
-1.2786
-1.19377
-1.12783
-1.08647
-1.07157
-1.08394
-1.51625
-1.70907
-1.85987
-1.96362
-2.01914
-2.02845
-1.99622
-1.9291
-1.83499
-1.72155
-1.59815
-1.47142
-1.34845
-1.23421
-1.13427
-1.0505
-0.989483
-0.956007
-0.956491
-1.44876
-1.65262
-1.81522
-1.93075
-1.99709
-2.01562
-1.99048
-1.92797
-1.83569
-1.72113
-1.59367
-1.4601
-1.32777
-1.2017
-1.08702
-0.984238
-0.898509
-0.834956
-0.809944
-1.39069
-1.60626
-1.78008
-1.90576
-1.9808
-2.00599
-1.98551
-1.9252
-1.83251
-1.71495
-1.58119
-1.43898
-1.29583
-1.15727
-1.02788
-0.907006
-0.794683
-0.687538
-0.585337
-1.34563
-1.57239
-1.75899
-1.89828
-1.98799
-2.02827
-2.02326
-1.9778
-1.8985
-1.7925
-1.66644
-1.52861
-1.38594
-1.24535
-1.11162
-0.985775
-0.86449
-0.739725
-0.595529
-1.3167
-1.55026
-1.74306
-1.88934
-1.98716
-2.03662
-2.04167
-2.0066
-1.93719
-1.83979
-1.71914
-1.58308
-1.43815
-1.29224
-1.15181
-1.02193
-0.902092
-0.790088
-0.678409
-1.3212
-1.55759
-1.75353
-1.9041
-2.00755
-2.06459
-2.07893
-2.05488
-1.99751
-1.91204
-1.8019
-1.67293
-1.53054
-1.38262
-1.23731
-1.10223
-0.980032
-0.870753
-0.769079
-1.36327
-1.59811
-1.79264
-1.94278
-2.04729
-2.10768
-2.12781
-2.11223
-2.06564
-1.99232
-1.89439
-1.77528
-1.63831
-1.49009
-1.33964
-1.19708
-1.06867
-0.95691
-0.857824
-1.44031
-1.67152
-1.86055
-2.00585
-2.1072
-2.16711
-2.18983
-2.18031
-2.14314
-2.08204
-1.99799
-1.89204
-1.76451
-1.61919
-1.46426
-1.31195
-1.17283
-1.05333
-0.95121
-1.55182
-1.77359
-1.95242
-2.08876
-2.18326
-2.23943
-2.26204
-2.25652
-2.22757
-2.17882
-2.11053
-2.02195
-1.90999
-1.774
-1.6185
-1.45584
-1.30103
-1.16709
-1.05572
-1.69795
-1.90377
-2.06886
-2.19301
-2.27771
-2.32745
-2.34769
-2.34424
-2.3221
-2.2852
-2.2338
-2.16655
-2.0777
-1.96139
-1.81494
-1.64615
-1.47115
-1.31233
-1.18128
-1.86229
-2.05457
-2.20421
-2.31353
-2.3859
-2.42697
-2.44286
-2.43966
-2.42259
-2.39624
-2.36154
-2.3183
-2.26033
-2.17827
-2.06041
-1.90361
-1.71409
-1.518
-1.3465
-2.05497
-2.22952
-2.35956
-2.45046
-2.50759
-2.53759
-2.54698
-2.54179
-2.52724
-2.50849
-2.48738
-2.46634
-2.44191
-2.40649
-2.34366
-2.2393
-2.0755
-1.85672
-1.59533
-2.28451
-2.43416
-2.5399
-2.60948
-2.6499
-2.66845
-2.67152
-2.66479
-2.65313
-2.64173
-2.63343
-2.63298
-2.64187
-2.66029
-2.67937
-2.68996
-2.66465
-2.58469
-2.43055
-2.54682
-2.66455
-2.73771
-2.77823
-2.79443
-2.79382
-2.78178
-2.76322
-2.74196
-2.72159
-2.70492
-2.69528
-2.69573
-2.71021
-2.74096
-2.79358
-2.86428
-2.94727
-3.03065
-2.84937
-2.92022
-2.95236
-2.95927
-2.94886
-2.92796
-2.90057
-2.87081
-2.84152
-2.81483
-2.7937
-2.77933
-2.774
-2.77936
-2.798
-2.83216
-2.88667
-2.96579
-3.07641
-3.18838
-3.19738
-3.18399
-3.15714
-3.122
-3.08336
-3.0437
-3.00596
-2.97202
-2.94307
-2.92135
-2.90686
-2.90056
-2.90214
-2.91158
-2.9261
-2.94511
-2.96491
-2.98353
-3.51135
-3.45664
-3.39723
-3.33623
-3.27571
-3.21803
-3.16423
-3.1158
-3.0736
-3.03798
-3.01
-2.98909
-2.97524
-2.96754
-2.96534
-2.96644
-2.97034
-2.97509
-2.97991
-3.78622
-3.6806
-3.58226
-3.49167
-3.40888
-3.33433
-3.26783
-3.20963
-3.15973
-3.11783
-3.08415
-3.05794
-3.03872
-3.02553
-3.01764
-3.01341
-3.0123
-3.01292
-3.01449
-4.01121
-3.8629
-3.73217
-3.61709
-3.51591
-3.42744
-3.35044
-3.28412
-3.22781
-3.18074
-3.1426
-3.11253
-3.08981
-3.07348
-3.06275
-3.0563
-3.0534
-3.0529
-3.05397
-4.17612
-3.99485
-3.83925
-3.70578
-3.59111
-3.49258
-3.40807
-3.336
-3.27523
-3.22466
-3.18361
-3.15122
-3.12659
-3.10876
-3.09683
-3.08962
-3.08616
-3.0853
-3.08607
-4.27858
-4.06887
-3.89632
-3.75188
-3.62973
-3.52586
-3.43745
-3.36245
-3.29942
-3.24714
-3.20471
-3.1713
-3.14593
-3.12767
-3.11561
-3.10869
-3.10588
-3.10609
-3.10827
-4.27861
-4.06891
-3.89637
-3.75194
-3.62979
-3.52591
-3.43751
-3.3625
-3.29948
-3.24719
-3.20477
-3.17135
-3.14598
-3.12772
-3.11566
-3.10875
-3.10593
-3.10614
-3.10832
-4.17616
-3.99495
-3.83937
-3.70592
-3.59125
-3.49273
-3.40822
-3.33615
-3.27537
-3.22481
-3.18376
-3.15137
-3.12674
-3.10891
-3.09698
-3.08978
-3.08632
-3.08548
-3.08627
-4.01128
-3.86304
-3.73237
-3.6173
-3.51614
-3.42768
-3.35068
-3.28436
-3.22805
-3.18098
-3.14283
-3.11276
-3.09004
-3.07372
-3.06298
-3.05654
-3.05365
-3.05317
-3.05425
-3.7863
-3.68078
-3.5825
-3.49195
-3.40918
-3.33464
-3.26814
-3.20995
-3.16004
-3.11813
-3.08445
-3.05823
-3.03901
-3.0258
-3.0179
-3.01367
-3.01255
-3.01316
-3.01472
-3.51144
-3.45684
-3.3975
-3.33655
-3.27605
-3.21839
-3.16459
-3.11617
-3.07397
-3.03835
-3.01036
-2.98944
-2.97558
-2.96785
-2.96562
-2.96669
-2.97056
-2.97528
-2.98007
-3.18848
-3.19759
-3.18428
-3.15748
-3.12237
-3.08375
-3.04411
-3.00637
-2.97244
-2.94349
-2.92177
-2.90726
-2.90093
-2.90246
-2.91183
-2.92627
-2.94517
-2.96485
-2.98334
-2.84948
-2.92046
-2.95271
-2.9597
-2.94937
-2.92854
-2.90121
-2.87151
-2.84228
-2.81566
-2.79461
-2.78033
-2.77507
-2.78052
-2.7992
-2.83331
-2.88759
-2.96618
-3.07583
-2.54689
-2.6646
-2.73777
-2.77829
-2.79447
-2.79383
-2.78175
-2.76314
-2.7418
-2.72132
-2.70451
-2.69468
-2.69487
-2.70902
-2.73939
-2.79167
-2.86232
-2.94591
-3.03091
-2.28455
-2.43427
-2.54008
-2.60974
-2.65024
-2.66887
-2.67203
-2.66539
-2.65382
-2.64252
-2.63433
-2.63401
-2.64309
-2.66182
-2.68145
-2.69294
-2.66896
-2.59071
-2.43849
-2.05499
-2.22954
-2.35961
-2.45055
-2.50772
-2.53777
-2.54721
-2.54206
-2.52757
-2.50887
-2.48783
-2.4669
-2.44266
-2.40754
-2.34512
-2.24127
-2.07788
-1.85915
-1.59709
-1.86231
-2.05458
-2.20424
-2.3136
-2.38601
-2.42714
-2.44309
-2.43994
-2.42294
-2.39668
-2.36208
-2.31899
-2.26123
-2.17944
-2.06185
-1.90525
-1.71574
-1.51943
-1.34763
-1.69796
-1.90376
-2.06886
-2.19304
-2.27779
-2.32758
-2.34788
-2.34451
-2.32244
-2.28563
-2.23435
-2.16726
-2.07859
-1.96246
-1.81614
-1.64739
-1.4723
-1.31331
-1.18211
-1.55183
-1.77357
-1.95241
-2.08878
-2.18332
-2.23954
-2.26221
-2.25676
-2.2279
-2.17924
-2.11107
-2.02262
-1.91079
-1.77492
-1.61947
-1.45678
-1.30188
-1.16784
-1.0564
-1.44031
-1.6715
-1.86052
-2.00585
-2.10724
-2.1672
-2.18998
-2.18053
-2.14344
-2.08244
-1.99849
-1.89265
-1.76521
-1.61996
-1.46504
-1.31269
-1.17351
-1.05395
-0.951803
-1.36327
-1.59808
-1.79261
-1.94277
-2.04731
-2.10775
-2.12794
-2.11243
-2.06592
-1.99269
-1.89485
-1.77582
-1.63891
-1.49073
-1.34027
-1.19768
-1.06923
-0.957454
-0.858384
-1.3212
-1.55756
-1.7535
-1.90407
-2.00756
-2.06464
-2.07904
-2.05506
-1.99776
-1.91236
-1.80231
-1.6734
-1.53106
-1.38315
-1.23784
-1.10274
-0.980523
-0.871259
-0.769652
-1.3167
-1.55023
-1.74301
-1.88929
-1.98713
-2.03662
-2.04171
-2.00669
-1.93732
-1.83997
-1.71937
-1.58334
-1.43842
-1.29251
-1.15206
-1.02217
-0.902351
-0.790431
-0.678966
-1.34568
-1.57242
-1.75903
-1.89833
-1.98806
-2.02838
-2.02341
-1.978
-1.89876
-1.79281
-1.6668
-1.52901
-1.38638
-1.24581
-1.1121
-0.986257
-0.864965
-0.740178
-0.595929
-1.39074
-1.60631
-1.78013
-1.90579
-1.98081
-2.00599
-1.98548
-1.92515
-1.83243
-1.71486
-1.58107
-1.43884
-1.29567
-1.15709
-1.02768
-0.906782
-0.794429
-0.687251
-0.585009
-1.4488
-1.65266
-1.81526
-1.93079
-1.99712
-2.01564
-1.99049
-1.92798
-1.8357
-1.72113
-1.59366
-1.4601
-1.32776
-1.20168
-1.08701
-0.984227
-0.898506
-0.834967
-0.80997
-1.51628
-1.7091
-1.85989
-1.96364
-2.01915
-2.02846
-1.99622
-1.9291
-1.83498
-1.72153
-1.59813
-1.4714
-1.34843
-1.23419
-1.13425
-1.05049
-0.98948
-0.956013
-0.956503
-1.59149
-1.77493
-1.91381
-2.00533
-2.04961
-2.04941
-2.00999
-1.93843
-1.84291
-1.73114
-1.61244
-1.49321
-1.3803
-1.27859
-1.19376
-1.12782
-1.08647
-1.07158
-1.08395
-1.67781
-1.85091
-1.97656
-2.05512
-2.08766
-2.07759
-2.03082
-1.95491
-1.85831
-1.74872
-1.63535
-1.52423
-1.42194
-1.33305
-1.26287
-1.21274
-1.18687
-1.18485
-1.20526
-1.77936
-1.93554
-2.04651
-2.11147
-2.13163
-2.11115
-2.05675
-1.97655
-1.87923
-1.7724
-1.66504
-1.56274
-1.4716
-1.39567
-1.3396
-1.30373
-1.29103
-1.29972
-1.32763
-1.88018
-2.02106
-2.11841
-2.1696
-2.17681
-2.14552
-2.08348
-1.9994
-1.90212
-1.79898
-1.69868
-1.60614
-1.52691
-1.46431
-1.42226
-1.40009
-1.39992
-1.41921
-1.45551
-1.98239
-2.11468
-2.19849
-2.23453
-2.22742
-2.18437
-2.1143
-2.02642
-1.92962
-1.83085
-1.73836
-1.65628
-1.58949
-1.54052
-1.51257
-1.50403
-1.51654
-1.54706
-1.59303
-2.09842
-2.21716
-2.28355
-2.30147
-2.27803
-2.22217
-2.14394
-2.05284
-1.95755
-1.86441
-1.78105
-1.7107
-1.65749
-1.6231
-1.61016
-1.61617
-1.64258
-1.68594
-1.74363
-2.22584
-2.32389
-2.36868
-2.36534
-2.32369
-2.25448
-2.16863
-2.0756
-1.98354
-1.89785
-1.82549
-1.76858
-1.73056
-1.71228
-1.71594
-1.73818
-1.78053
-1.83914
-1.91137
-2.3558
-2.43136
-2.45053
-2.42261
-2.36125
-2.2789
-2.18679
-2.09384
-2.0073
-1.93133
-1.87221
-1.83081
-1.80998
-1.80977
-1.83218
-1.87295
-1.934
-2.01111
-2.10166
-2.4947
-2.54147
-2.52776
-2.47139
-2.38943
-2.29508
-2.1989
-2.10873
-2.03049
-1.96687
-1.92354
-1.90003
-1.89872
-1.91899
-1.96283
-2.02505
-2.10832
-2.20804
-2.32185
-2.64841
-2.64557
-2.59078
-2.50386
-2.40247
-2.29915
-2.2026
-2.11905
-2.05277
-2.00478
-1.98046
-1.97781
-1.99905
-2.04289
-2.11176
-2.19931
-2.30953
-2.43747
-2.58134
-2.7729
-2.71429
-2.6177
-2.50294
-2.38698
-2.28069
-2.18963
-2.11818
-2.06878
-2.04065
-2.03944
-2.06148
-2.10924
-2.18092
-2.27986
-2.3984
-2.54269
-2.70747
-2.89207
-2.87288
-2.76005
-2.62099
-2.48191
-2.35708
-2.25401
-2.17391
-2.11932
-2.09095
-2.08628
-2.1119
-2.16232
-2.24073
-2.34491
-2.47972
-2.63587
-2.82276
-3.03503
-3.27437
-2.95162
-2.76391
-2.5833
-2.4287
-2.30474
-2.21361
-2.15145
-2.11956
-2.11725
-2.14052
-2.19774
-2.28146
-2.39613
-2.53934
-2.71823
-2.92157
-3.16354
-3.4391
-3.75479
-2.94059
-2.68362
-2.47965
-2.32732
-2.21798
-2.14928
-2.11283
-2.10994
-2.13919
-2.19542
-2.28984
-2.4129
-2.57119
-2.7623
-2.99702
-3.26184
-3.57829
-3.94267
-4.3719
-2.81874
-2.5302
-2.32996
-2.19804
-2.11486
-2.07636
-2.07109
-2.10175
-2.16694
-2.26072
-2.39817
-2.56765
-2.77872
-3.02951
-3.33603
-3.68241
-4.10104
-4.59171
-5.19558
-2.56172
-2.29206
-2.12646
-2.0328
-1.98625
-1.98466
-2.0154
-2.08386
-2.18939
-2.32582
-2.51314
-2.73795
-3.01404
-3.341
-3.74261
-4.20134
-4.76631
-5.44558
-6.3407
-2.17073
-1.9799
-1.8764
-1.834
-1.83084
-1.87007
-1.93969
-2.04866
-2.1979
-2.38167
-2.62604
-2.91667
-3.27339
-3.69911
-4.22953
-4.84795
-5.63049
-6.60357
-8.02976
-1.67902
-1.61131
-1.58611
-1.60106
-1.64385
-1.72478
-1.83374
-1.98375
-2.17805
-2.41231
-2.72001
-3.08753
-3.5435
-4.09786
-4.8056
-5.65749
-6.77633
-8.22864
-10.7268
-1.14675
-1.20891
-1.26251
-1.33349
-1.42063
-1.54092
-1.68668
-1.87495
-2.11196
-2.39602
-2.76967
-3.22261
-3.79673
-4.51615
-5.46874
-6.66897
-8.32711
-10.599
-15.4836
-0.639919
-0.79621
-0.913493
-1.03269
-1.15906
-1.31344
-1.49001
-1.70929
-1.98073
-2.30672
-2.74064
-3.27846
-3.98203
-4.90319
-6.18776
-7.91229
-10.4648
-14.2109
-24.843
-0.209676
-0.39196
-0.546623
-0.702334
-0.860847
-1.04218
-1.24024
-1.47851
-1.76804
-2.11704
-2.59125
-3.19304
-4.0159
-5.17335
-6.95083
-9.70305
-14.5959
-23.6041
-55.7621
)
;

boundaryField
{
    up
    {
        type            calculated;
        value           nonuniform List<scalar> 
84
(
-50.5301
-27.3666
-16.8057
-11.4919
-8.51393
-6.66913
-5.43002
-4.54574
-3.8868
-3.3772
-2.9732
-2.64597
-2.3742
-2.14437
-1.94644
-1.77265
-1.61721
-1.47576
-1.34467
-1.2198
-1.09635
-0.965676
-0.805081
-0.527986
-0.513867
-0.645154
-0.739521
-0.82846
-0.920285
-1.02137
-1.13927
-1.28296
-1.49724
-2.43609
-3.14035
-3.14198
-2.98741
-2.98016
-3.01426
-3.05417
-3.08653
-3.10975
-3.1098
-3.08674
-3.05446
-3.01449
-2.98032
-2.98719
-3.14062
-3.1407
-2.44549
-1.49885
-1.28395
-1.14006
-1.02203
-0.920876
-0.829028
-0.740117
-0.645957
-0.514424
-0.527654
-0.805114
-0.965688
-1.09636
-1.2198
-1.34467
-1.47576
-1.61721
-1.77265
-1.94644
-2.14437
-2.3742
-2.64597
-2.9732
-3.3772
-3.8868
-4.54574
-5.43003
-6.66913
-8.51393
-11.4919
-16.8057
-27.3666
-50.5301
)
;
    }
    low
    {
        type            calculated;
        value           nonuniform List<scalar> 
84
(
-0.224546
-0.666952
-1.20611
-1.78002
-2.31153
-2.72958
-2.99324
-3.10337
-3.08107
-2.9589
-2.83543
-2.6881
-2.5037
-2.34768
-2.20786
-2.06755
-1.94062
-1.83552
-1.72876
-1.61319
-1.51643
-1.43349
-1.35635
-1.28908
-1.22711
-1.19087
-1.19635
-1.24956
-1.341
-1.47125
-1.63393
-1.80914
-2.0155
-2.26216
-2.53932
-2.86288
-3.23259
-3.57705
-3.86665
-4.10465
-4.28011
-4.39546
-4.39548
-4.28013
-4.10468
-3.8667
-3.5771
-3.23264
-2.86294
-2.53931
-2.2622
-2.01549
-1.80915
-1.63393
-1.47126
-1.341
-1.24957
-1.19636
-1.19089
-1.22714
-1.28914
-1.35637
-1.43352
-1.51646
-1.61321
-1.72878
-1.83553
-1.94064
-2.06756
-2.20787
-2.34768
-2.5037
-2.68809
-2.83542
-2.9589
-3.08107
-3.10338
-2.99325
-2.72959
-2.31154
-1.78003
-1.20612
-0.666954
-0.224546
)
;
    }
    left
    {
        type            calculated;
        value           nonuniform List<scalar> 
19
(
-0.205601
-0.38441
-0.54176
-0.702076
-0.866493
-1.0546
-1.2609
-1.51024
-1.81424
-2.18501
-2.69167
-3.33999
-4.23625
-5.51647
-7.50115
-10.6249
-16.2454
-26.7184
-52.4126
)
;
    }
    right
    {
        type            calculated;
        value           nonuniform List<scalar> 
19
(
-0.205601
-0.384411
-0.54176
-0.702076
-0.866493
-1.0546
-1.2609
-1.51024
-1.81424
-2.18501
-2.69167
-3.33998
-4.23625
-5.51647
-7.50115
-10.6249
-16.2454
-26.7184
-52.4126
)
;
    }
    frontAndBackPlanes
    {
        type            empty;
    }
}


// ************************************************************************* //
