/*--------------------------------*- C++ -*----------------------------------*\
  =========                 |
  \\      /  F ield         | OpenFOAM: The Open Source CFD Toolbox
   \\    /   O peration     | Website:  https://openfoam.org
    \\  /    A nd           | Version:  7
     \\/     M anipulation  |
\*---------------------------------------------------------------------------*/
FoamFile
{
    version     2.0;
    format      ascii;
    class       volScalarField;
    location    "0.04";
    object      gradTy;
}
// * * * * * * * * * * * * * * * * * * * * * * * * * * * * * * * * * * * * * //

dimensions      [0 -1 0 1 0 0 0];

internalField   nonuniform List<scalar> 
1596
(
-2.21398
-3.9369
-5.06531
-5.8632
-6.38831
-6.85566
-7.23318
-7.6587
-8.12908
-8.60375
-9.27567
-10.0211
-11.0656
-12.6528
-15.4589
-20.2564
-29.5349
-47.2761
-111.537
-6.46583
-7.4631
-7.58923
-7.3758
-7.05087
-6.88289
-6.83394
-6.9727
-7.24907
-7.57118
-8.08787
-8.68376
-9.52424
-10.7372
-12.7331
-15.6982
-20.5505
-28.0114
-49.4377
-10.8202
-10.4607
-9.43223
-8.23705
-7.14287
-6.40105
-5.95788
-5.81888
-5.89336
-6.05943
-6.41237
-6.84023
-7.45736
-8.33684
-9.77282
-11.8271
-15.0637
-19.7842
-29.9557
-14.5348
-12.7907
-10.7149
-8.68122
-6.94584
-5.71687
-4.93143
-4.54259
-4.43032
-4.4557
-4.65967
-4.9369
-5.35571
-5.95478
-6.9459
-8.35184
-10.5613
-13.7255
-19.2596
-17.1304
-14.4504
-11.6235
-8.9657
-6.73724
-5.11477
-4.04206
-3.43662
-3.16021
-3.06523
-3.14372
-3.29829
-3.55854
-3.93931
-4.58651
-5.51327
-7.00149
-9.15655
-12.5276
-18.5274
-15.5168
-12.3025
-9.25484
-6.67901
-4.75121
-3.44043
-2.64861
-2.22961
-2.03232
-2.00902
-2.06867
-2.21061
-2.43241
-2.82602
-3.40127
-4.35966
-5.7925
-7.9559
-18.9493
-16.0864
-12.8107
-9.58878
-6.79832
-4.6452
-3.13967
-2.18755
-1.64428
-1.35893
-1.25428
-1.24265
-1.30124
-1.41516
-1.63457
-1.96524
-2.54282
-3.44657
-4.82626
-18.7172
-16.2453
-13.1373
-9.91734
-7.02987
-4.72685
-3.0692
-1.98243
-1.33206
-0.970623
-0.80123
-0.736889
-0.739316
-0.784905
-0.894182
-1.06778
-1.3893
-1.92091
-2.76281
-18.1289
-16.1567
-13.3403
-10.2336
-7.33063
-4.93347
-3.15607
-1.95402
-1.20908
-0.77978
-0.557178
-0.452944
-0.417928
-0.422336
-0.467364
-0.548828
-0.712696
-1.00169
-1.48332
-17.3222
-15.779
-13.2961
-10.3849
-7.54945
-5.12933
-3.28352
-2.00141
-1.18502
-0.7021
-0.438797
-0.305534
-0.246202
-0.226838
-0.237062
-0.26907
-0.344377
-0.488503
-0.744371
-16.6374
-15.3324
-13.1143
-10.4012
-7.66886
-5.27147
-3.39824
-2.06818
-1.20317
-0.68138
-0.388706
-0.235048
-0.160166
-0.127403
-0.119948
-0.127724
-0.15798
-0.22355
-0.349114
-15.993
-14.9109
-12.9014
-10.3567
-7.72667
-5.36869
-3.49
-2.13265
-1.23545
-0.686221
-0.37283
-0.205052
-0.120239
-0.0799219
-0.063833
-0.0605699
-0.0698626
-0.0965877
-0.153262
-15.3105
-14.4153
-12.5814
-10.1871
-7.66375
-5.3674
-3.51246
-2.15617
-1.24969
-0.689243
-0.366278
-0.191559
-0.101853
-0.0579727
-0.0381156
-0.0302998
-0.0307207
-0.0399278
-0.0632928
-14.7978
-13.9623
-12.2279
-9.93846
-7.50434
-5.27497
-3.46239
-2.12979
-1.23453
-0.678464
-0.356757
-0.182006
-0.0918098
-0.0472949
-0.0263881
-0.0170937
-0.0142158
-0.0162758
-0.0249169
-14.3926
-13.5819
-11.8845
-9.65023
-7.27903
-5.1116
-3.35093
-2.05781
-1.18976
-0.651012
-0.339761
-0.170892
-0.0838419
-0.0408964
-0.0205579
-0.0112425
-0.00744139
-0.00691645
-0.00961306
-14.0393
-13.2503
-11.5524
-9.33313
-6.99983
-4.88731
-3.18507
-1.94431
-1.11706
-0.606869
-0.314045
-0.156144
-0.0752651
-0.0356115
-0.0169
-0.00830998
-0.00456473
-0.00330217
-0.00383054
-13.78
-12.9696
-11.2307
-8.98932
-6.67124
-4.60761
-2.97017
-1.79372
-1.01957
-0.547884
-0.280332
-0.137637
-0.0653454
-0.0302822
-0.013901
-0.00644232
-0.0031523
-0.00184754
-0.0016949
-13.6215
-12.7573
-10.9357
-8.63558
-6.31078
-4.2893
-2.72084
-1.61745
-0.905344
-0.47918
-0.241532
-0.116785
-0.0545535
-0.024818
-0.0111254
-0.00497577
-0.00228224
-0.00117044
-0.000871605
-13.4732
-12.6159
-10.6995
-8.3111
-5.95635
-3.96524
-2.46305
-1.43431
-0.786879
-0.408411
-0.201973
-0.0958288
-0.0439204
-0.0195888
-0.0085912
-0.0037402
-0.00164801
-0.000782685
-0.00050741
-13.312
-12.4986
-10.4881
-7.9944
-5.59599
-3.63099
-2.19719
-1.24697
-0.667251
-0.338087
-0.163363
-0.0757805
-0.0339715
-0.0148206
-0.00635445
-0.00269919
-0.00115383
-0.000522388
-0.000312202
-13.2337
-12.435
-10.3096
-7.68819
-5.2328
-3.29127
-1.92893
-1.06081
-0.550716
-0.271107
-0.127456
-0.0575946
-0.0251764
-0.0107177
-0.00448554
-0.00185901
-0.000773581
-0.000338072
-0.000192104
-13.1897
-12.4275
-10.1763
-7.40818
-4.88315
-2.9609
-1.67015
-0.884308
-0.442682
-0.210573
-0.0958661
-0.0420334
-0.0178595
-0.00740026
-0.00301776
-0.0012193
-0.000494348
-0.000209576
-0.000114765
-13.1289
-12.4557
-10.0922
-7.17067
-4.56613
-2.65628
-1.43249
-0.724621
-0.347023
-0.158326
-0.0693501
-0.0293479
-0.0120701
-0.00485334
-0.00192462
-0.000757437
-0.000299389
-0.000123443
-6.5372e-05
-13.0315
-12.4896
-10.0442
-6.97911
-4.29276
-2.38767
-1.22245
-0.584596
-0.26436
-0.114051
-0.0473643
-0.0190805
-0.0075005
-0.00289373
-0.00110448
-0.000419866
-0.00016088
-6.44914e-05
-3.17361e-05
-12.9137
-12.574
-10.178
-7.06329
-4.31099
-2.36441
-1.18781
-0.555272
-0.245141
-0.103441
-0.042187
-0.0168205
-0.00660352
-0.00257131
-0.00100074
-0.000392819
-0.000157558
-6.72704e-05
-3.3147e-05
-12.7848
-12.6597
-10.4071
-7.32854
-4.53172
-2.51075
-1.26908
-0.593884
-0.261057
-0.109197
-0.0440096
-0.0173472
-0.00676049
-0.00263472
-0.00103786
-0.000418169
-0.000175212
-8.00153e-05
-4.33831e-05
-12.7377
-12.7153
-10.61
-7.62073
-4.8202
-2.73364
-1.41245
-0.673218
-0.299638
-0.125928
-0.0505102
-0.019632
-0.00748808
-0.00284828
-0.00109929
-0.000439412
-0.000187466
-9.11036e-05
-5.45998e-05
-12.8027
-12.7562
-10.777
-7.91811
-5.16062
-3.02982
-1.62442
-0.803299
-0.369926
-0.159972
-0.0654073
-0.0255809
-0.00965071
-0.00355827
-0.00130238
-0.000485041
-0.00019348
-9.42239e-05
-6.2584e-05
-12.9604
-12.8226
-10.9476
-8.24009
-5.5586
-3.40307
-1.91242
-0.994363
-0.482042
-0.219299
-0.0940088
-0.0382966
-0.0148735
-0.00553676
-0.00197752
-0.000676658
-0.000223644
-8.74669e-05
-5.95107e-05
-13.2098
-12.9278
-11.1375
-8.58812
-6.00376
-3.84225
-2.27198
-1.24921
-0.642839
-0.31138
-0.142406
-0.0619604
-0.0256902
-0.0101787
-0.00382907
-0.00133521
-0.000393592
-8.90289e-05
-2.97941e-05
-13.5588
-13.1131
-11.3954
-8.99532
-6.51062
-4.35198
-2.70685
-1.57472
-0.861809
-0.446132
-0.2191
-0.102894
-0.0463186
-0.0200788
-0.0083543
-0.00327544
-0.001088
-0.000221667
3.90691e-05
-13.8848
-13.3555
-11.7259
-9.47023
-7.08457
-4.93566
-3.22209
-1.97963
-1.15077
-0.63635
-0.335781
-0.170511
-0.0836315
-0.0399107
-0.0185848
-0.00842469
-0.00345668
-0.00103193
3.55848e-05
-14.2734
-13.6819
-12.1301
-10.0021
-7.71052
-5.57996
-3.81063
-2.46505
-1.51795
-0.894537
-0.506112
-0.277343
-0.147864
-0.0774011
-0.0400847
-0.0208045
-0.0104383
-0.00453778
-0.000731254
-14.7865
-14.1291
-12.6345
-10.613
-8.40835
-6.30429
-4.4935
-3.05543
-1.99139
-1.25065
-0.759803
-0.450589
-0.26237
-0.151644
-0.088075
-0.0526163
-0.0324297
-0.0205187
-0.012389
-15.3757
-14.6348
-13.1441
-11.1796
-9.03577
-6.96019
-5.12901
-3.62708
-2.47177
-1.63074
-1.04579
-0.657004
-0.406656
-0.250375
-0.155235
-0.0992209
-0.0667613
-0.048563
-0.0379751
-16.0861
-15.1806
-13.6101
-11.6267
-9.48898
-7.41736
-5.57034
-4.03061
-2.82084
-1.91716
-1.2709
-0.827481
-0.532264
-0.341296
-0.220928
-0.147492
-0.104188
-0.0806983
-0.0698222
-16.9366
-15.8076
-14.1084
-12.0554
-9.87883
-7.77943
-5.90285
-4.32759
-3.0769
-2.12983
-1.44208
-0.961678
-0.635611
-0.420347
-0.282022
-0.195989
-0.144489
-0.116075
-0.102391
-17.7007
-16.3777
-14.5593
-12.436
-10.2176
-8.08945
-6.18666
-4.58258
-3.29961
-2.31822
-1.59694
-1.08606
-0.734011
-0.497898
-0.343927
-0.246919
-0.188448
-0.156311
-0.141318
-18.2868
-16.8479
-14.9468
-12.7693
-10.5159
-8.36249
-6.43657
-4.80766
-3.49735
-2.48703
-1.73745
-1.2007
-0.826447
-0.572403
-0.404967
-0.298562
-0.234284
-0.199277
-0.183598
-18.7503
-17.2235
-15.2575
-13.036
-10.7536
-8.57918
-6.63478
-4.98668
-3.65559
-2.62333
-1.85224
-1.29568
-0.904336
-0.636418
-0.458581
-0.344977
-0.276397
-0.239474
-0.22366
-19.0926
-17.4966
-15.4777
-13.221
-10.916
-8.72632
-6.76933
-5.10873
-3.76427
-2.71782
-1.93271
-1.36314
-0.960472
-0.683326
-0.49859
-0.380258
-0.308949
-0.270939
-0.255249
-19.3398
-17.6565
-15.5911
-13.3094
-10.991
-8.79391
-6.83184
-5.16647
-3.81673
-2.76435
-1.97309
-1.3976
-0.989647
-0.708123
-0.520101
-0.399539
-0.327013
-0.28864
-0.273231
-19.3399
-17.6567
-15.5914
-13.3097
-10.9914
-8.79428
-6.83219
-5.1668
-3.81702
-2.76459
-1.97328
-1.39776
-0.989772
-0.708223
-0.520182
-0.399607
-0.327074
-0.288698
-0.273291
-19.0927
-17.4969
-15.4783
-13.2218
-10.917
-8.72734
-6.77034
-5.10966
-3.76509
-2.71852
-1.93328
-1.3636
-0.960838
-0.683617
-0.498826
-0.380456
-0.309125
-0.271108
-0.255425
-18.7504
-17.2241
-15.2584
-13.0373
-10.7551
-8.58083
-6.6364
-4.98817
-3.65691
-2.62444
-1.85314
-1.2964
-0.904903
-0.636864
-0.458938
-0.345273
-0.276657
-0.239721
-0.223914
-18.287
-16.8486
-14.9481
-12.771
-10.518
-8.36467
-6.43872
-4.80963
-3.49907
-2.48847
-1.73861
-1.20161
-0.827157
-0.572952
-0.405399
-0.298912
-0.234585
-0.199558
-0.183883
-17.701
-16.3786
-14.5609
-12.4381
-10.2201
-8.09212
-6.18928
-4.58497
-3.30168
-2.31993
-1.5983
-1.08711
-0.734815
-0.498507
-0.344395
-0.247289
-0.188758
-0.156593
-0.1416
-16.9369
-15.8086
-14.1102
-12.0579
-9.88174
-7.78252
-5.90586
-4.33032
-3.07923
-2.13173
-1.44357
-0.962802
-0.636447
-0.420963
-0.282481
-0.196342
-0.144775
-0.116327
-0.102635
-16.0864
-15.1818
-13.6124
-11.6298
-9.49267
-7.42127
-5.57413
-4.034
-2.82369
-1.91943
-1.27263
-0.828763
-0.533192
-0.341962
-0.22141
-0.14785
-0.104469
-0.0809366
-0.0700456
-15.3759
-14.6354
-13.1457
-11.1824
-9.03947
-6.96445
-5.13333
-3.63106
-2.47516
-1.63343
-1.04781
-0.658464
-0.40767
-0.251061
-0.155692
-0.0995242
-0.0669746
-0.0487497
-0.0382062
-14.7867
-14.1306
-12.6376
-10.6176
-8.41401
-6.31034
-4.49929
-3.0605
-1.9955
-1.25378
-0.762073
-0.452172
-0.263445
-0.152363
-0.0885566
-0.0529502
-0.0326814
-0.0207395
-0.0126224
-14.2735
-13.6828
-12.1324
-10.0057
-7.71505
-5.58472
-3.81503
-2.46871
-1.52075
-0.896533
-0.507451
-0.2782
-0.148392
-0.0777193
-0.0402759
-0.0209265
-0.0105244
-0.00459527
-0.000744083
-13.8848
-13.3563
-11.7282
-9.47379
-7.0889
-4.94005
-3.22597
-1.9827
-1.15299
-0.637833
-0.336711
-0.171065
-0.0839481
-0.0400867
-0.0186826
-0.00848234
-0.00349362
-0.00104981
5.25066e-05
-13.5588
-13.1138
-11.3975
-8.99871
-6.51465
-4.35591
-2.71016
-1.57721
-0.8635
-0.447191
-0.219719
-0.103236
-0.0464991
-0.020171
-0.00840113
-0.00329995
-0.00110054
-0.000224485
5.17819e-05
-13.2097
-12.9285
-11.1395
-8.59134
-6.00746
-3.84571
-2.27475
-1.25118
-0.644094
-0.312115
-0.142806
-0.0621648
-0.0257893
-0.0102249
-0.00385008
-0.00134443
-0.00039666
-8.80497e-05
-2.37086e-05
-12.9602
-12.8232
-10.9495
-8.24306
-5.56191
-3.40604
-1.91468
-0.995868
-0.482943
-0.219793
-0.0942582
-0.0384145
-0.0149258
-0.00555877
-0.00198624
-0.000679594
-0.00022388
-8.6432e-05
-5.72766e-05
-12.8026
-12.7567
-10.7787
-7.92078
-5.16349
-3.03227
-1.62619
-0.804408
-0.370549
-0.160291
-0.0655576
-0.0256466
-0.00967749
-0.00356839
-0.00130581
-0.000485838
-0.00019327
-9.37721e-05
-6.2022e-05
-12.7376
-12.7157
-10.6116
-7.62303
-4.82258
-2.73558
-1.41377
-0.674005
-0.300057
-0.12613
-0.0506
-0.0196689
-0.0075022
-0.00285327
-0.00110087
-0.000439767
-0.000187443
-9.10704e-05
-5.46198e-05
-12.7847
-12.6601
-10.4083
-7.33036
-4.53353
-2.51217
-1.27001
-0.594416
-0.261328
-0.109323
-0.0440636
-0.0173689
-0.0067688
-0.0026378
-0.00103898
-0.000418577
-0.000175387
-8.0155e-05
-4.35391e-05
-12.9138
-12.5741
-10.1784
-7.06383
-4.3115
-2.36479
-1.18805
-0.555401
-0.245203
-0.103469
-0.0421986
-0.0168253
-0.00660558
-0.00257226
-0.00100121
-0.000393075
-0.00015772
-6.73962e-05
-3.3217e-05
-13.0315
-12.4895
-10.0439
-6.97865
-4.29227
-2.38724
-1.22214
-0.584387
-0.264236
-0.113984
-0.0473298
-0.0190639
-0.0074929
-0.00289037
-0.00110304
-0.000419254
-0.000160628
-6.43911e-05
-3.16695e-05
-13.1289
-12.4557
-10.0922
-7.1707
-4.56616
-2.6563
-1.4325
-0.724628
-0.347027
-0.158328
-0.0693508
-0.0293481
-0.0120701
-0.00485328
-0.00192457
-0.0007574
-0.000299367
-0.000123433
-6.53564e-05
-13.1897
-12.4275
-10.1763
-7.40818
-4.88315
-2.9609
-1.67015
-0.884309
-0.442683
-0.210574
-0.0958665
-0.0420337
-0.0178596
-0.0074003
-0.00301776
-0.0012193
-0.000494341
-0.000209571
-0.000114752
-13.2337
-12.4349
-10.3096
-7.68819
-5.23281
-3.29127
-1.92893
-1.06081
-0.550716
-0.271107
-0.127456
-0.0575949
-0.0251767
-0.0107178
-0.0044856
-0.00185904
-0.000773588
-0.000338077
-0.000192092
-13.312
-12.4986
-10.4881
-7.9944
-5.596
-3.63099
-2.19719
-1.24697
-0.66725
-0.338087
-0.163363
-0.0757809
-0.0339719
-0.0148208
-0.00635461
-0.00269927
-0.00115386
-0.000522412
-0.000312197
-13.4732
-12.6159
-10.6995
-8.3111
-5.95636
-3.96524
-2.46305
-1.43431
-0.786878
-0.408411
-0.201973
-0.0958293
-0.043921
-0.0195892
-0.00859149
-0.00374034
-0.00164805
-0.000782739
-0.000507426
-13.6215
-12.7572
-10.9357
-8.63559
-6.31079
-4.2893
-2.72084
-1.61744
-0.905342
-0.479179
-0.241533
-0.116786
-0.0545542
-0.0248187
-0.0111258
-0.00497593
-0.0022822
-0.00117055
-0.000871696
-13.78
-12.9696
-11.2307
-8.98933
-6.67125
-4.60761
-2.97017
-1.79372
-1.01957
-0.547883
-0.280332
-0.137638
-0.0653466
-0.0302832
-0.0139016
-0.00644233
-0.00315199
-0.00184787
-0.00169528
-14.0393
-13.2503
-11.5524
-9.33315
-6.99984
-4.88732
-3.18507
-1.94431
-1.11706
-0.606869
-0.314046
-0.156146
-0.0752668
-0.0356129
-0.0169005
-0.00830935
-0.00456377
-0.00330331
-0.00383185
-14.3926
-13.5819
-11.8845
-9.65024
-7.27904
-5.1116
-3.35093
-2.05781
-1.18976
-0.651012
-0.339763
-0.170895
-0.0838443
-0.0408979
-0.0205578
-0.0112402
-0.00743936
-0.00692016
-0.00961684
-14.7977
-13.9623
-12.2279
-9.93848
-7.50435
-5.27497
-3.46239
-2.12979
-1.23453
-0.678467
-0.356761
-0.182009
-0.0918128
-0.0472961
-0.026386
-0.0170882
-0.0142128
-0.0162862
-0.0249258
-15.3105
-14.4153
-12.5814
-10.1872
-7.66376
-5.36741
-3.51246
-2.15617
-1.24969
-0.689248
-0.366283
-0.191564
-0.101857
-0.0579723
-0.0381093
-0.0302895
-0.030719
-0.0399524
-0.0633094
-15.993
-14.9109
-12.9014
-10.3567
-7.72668
-5.3687
-3.49
-2.13265
-1.23546
-0.686228
-0.372837
-0.205057
-0.120241
-0.0799171
-0.0638199
-0.0605547
-0.069868
-0.0966354
-0.153284
-16.6373
-15.3324
-13.1143
-10.4012
-7.66888
-5.27148
-3.39825
-2.06819
-1.20318
-0.681389
-0.388713
-0.235052
-0.160164
-0.12739
-0.119927
-0.127708
-0.158001
-0.223624
-0.349129
-17.3222
-15.779
-13.2961
-10.3849
-7.54946
-5.12935
-3.28353
-2.00142
-1.18503
-0.70211
-0.438803
-0.305534
-0.24619
-0.226814
-0.237033
-0.269062
-0.344421
-0.488588
-0.744351
-18.1289
-16.1567
-13.3403
-10.2336
-7.33064
-4.93348
-3.15608
-1.95403
-1.20909
-0.779786
-0.557178
-0.452933
-0.417903
-0.422301
-0.467338
-0.548842
-0.71276
-1.00175
-1.48323
-18.7172
-16.2453
-13.1373
-9.91734
-7.02987
-4.72685
-3.06921
-1.98244
-1.33206
-0.970622
-0.801219
-0.736864
-0.739278
-0.784867
-0.894175
-1.06783
-1.38937
-1.92087
-2.76265
-18.9493
-16.0864
-12.8107
-9.58878
-6.79832
-4.64521
-3.13967
-2.18755
-1.64428
-1.35891
-1.25426
-1.24261
-1.3012
-1.41513
-1.6346
-1.96532
-2.54285
-3.44641
-4.8261
-18.5274
-15.5168
-12.3026
-9.25484
-6.67901
-4.75121
-3.44043
-2.64861
-2.2296
-2.0323
-2.00899
-2.06862
-2.21059
-2.43242
-2.82609
-3.40135
-4.35962
-5.79225
-7.95583
-17.1305
-14.4504
-11.6235
-8.9657
-6.73724
-5.11476
-4.04205
-3.43661
-3.16019
-3.0652
-3.14368
-3.29826
-3.55854
-3.93936
-4.58659
-5.51332
-7.0014
-9.15633
-12.5277
-14.5348
-12.7907
-10.7149
-8.68123
-6.94585
-5.71687
-4.93142
-4.54258
-4.4303
-4.45567
-4.65965
-4.9369
-5.35575
-5.95486
-6.94598
-8.35184
-10.5612
-13.7254
-19.2599
-10.8202
-10.4607
-9.43225
-8.23707
-7.14288
-6.40105
-5.95787
-5.81886
-5.89335
-6.05942
-6.41236
-6.84025
-7.45742
-8.33692
-9.77285
-11.827
-15.0636
-19.7842
-29.956
-6.46586
-7.46308
-7.58923
-7.37581
-7.05088
-6.88289
-6.83394
-6.9727
-7.24906
-7.57119
-8.08789
-8.6838
-9.5243
-10.7372
-12.733
-15.6981
-20.5504
-28.0115
-49.4378
-2.214
-3.9369
-5.0653
-5.8632
-6.38831
-6.85566
-7.23319
-7.6587
-8.12908
-8.60376
-9.27568
-10.0211
-11.0657
-12.6528
-15.4588
-20.2563
-29.5348
-47.2762
-111.537
)
;

boundaryField
{
    up
    {
        type            calculated;
        value           nonuniform List<scalar> 
84
(
-101.146
-54.7006
-32.9206
-21.1342
-13.7825
-8.79208
-5.35896
-3.08047
-1.65863
-0.833852
-0.391071
-0.17134
-0.0704614
-0.0274956
-0.0104244
-0.00402131
-0.0016923
-0.000822448
-0.000457357
-0.000272999
-0.000164665
-9.691e-05
-5.41546e-05
-2.39837e-05
-2.41732e-05
-3.57866e-05
-4.73207e-05
-5.73927e-05
-5.77223e-05
-2.43291e-05
0.0001035
0.000443893
0.000637339
-0.0102661
-0.0360002
-0.0672535
-0.0986403
-0.137399
-0.179736
-0.220025
-0.251867
-0.270089
-0.270151
-0.252049
-0.220287
-0.180028
-0.137687
-0.0988851
-0.0674714
-0.0362526
-0.0105389
0.000636044
0.000484107
0.00012958
-1.28821e-05
-5.37635e-05
-5.63795e-05
-4.72466e-05
-3.59533e-05
-2.42312e-05
-2.39069e-05
-5.4128e-05
-9.68859e-05
-0.000164637
-0.000272966
-0.000457321
-0.00082243
-0.00169241
-0.0040219
-0.0104261
-0.027499
-0.070464
-0.171331
-0.391022
-0.833726
-1.65841
-3.0802
-5.3588
-8.7922
-13.783
-21.1349
-32.9211
-54.7006
-101.146
)
;
    }
    low
    {
        type            calculated;
        value           nonuniform List<scalar> 
84
(
-2.39726
-6.83502
-11.547
-15.6341
-18.4973
-19.9912
-20.3416
-19.9443
-19.1082
-18.0402
-17.2484
-16.5084
-15.6803
-15.1026
-14.6708
-14.2639
-13.9601
-13.8104
-13.6383
-13.382
-13.2281
-13.1156
-12.9542
-12.7494
-12.4295
-12.1709
-12.1025
-12.2761
-12.5899
-13.0263
-13.5321
-13.9411
-14.4119
-15.0134
-15.668
-16.4732
-17.4609
-18.2989
-18.9183
-19.4103
-19.7776
-20.0719
-20.072
-19.7776
-19.4104
-18.9184
-18.299
-17.4611
-16.4734
-15.6678
-15.0136
-14.4117
-13.941
-13.5319
-13.0261
-12.5897
-12.2759
-12.1023
-12.1708
-12.4294
-12.7496
-12.9541
-13.1156
-13.2281
-13.382
-13.6383
-13.8104
-13.9601
-14.2639
-14.6707
-15.1025
-15.6803
-16.5083
-17.2484
-18.0401
-19.1081
-19.9442
-20.3416
-19.9912
-18.4973
-15.6342
-11.5471
-6.83509
-2.39728
)
;
    }
    left
    {
        type            calculated;
        value           nonuniform List<scalar> 
19
(
-2.19057
-3.91742
-5.10775
-5.97346
-6.5564
-7.06876
-7.47936
-7.93657
-8.43508
-8.94447
-9.66251
-10.4582
-11.5879
-13.3444
-16.4827
-21.9578
-32.6671
-53.3657
-104.772
)
;
    }
    right
    {
        type            calculated;
        value           nonuniform List<scalar> 
19
(
-2.19059
-3.91743
-5.10775
-5.97346
-6.5564
-7.06876
-7.47936
-7.93657
-8.43508
-8.94448
-9.66253
-10.4583
-11.5879
-13.3443
-16.4826
-21.9576
-32.6669
-53.3657
-104.772
)
;
    }
    frontAndBackPlanes
    {
        type            empty;
    }
}


// ************************************************************************* //
