/*--------------------------------*- C++ -*----------------------------------*\
  =========                 |
  \\      /  F ield         | OpenFOAM: The Open Source CFD Toolbox
   \\    /   O peration     | Website:  https://openfoam.org
    \\  /    A nd           | Version:  7
     \\/     M anipulation  |
\*---------------------------------------------------------------------------*/
FoamFile
{
    version     2.0;
    format      ascii;
    class       volScalarField;
    location    "0.2";
    object      gradTy;
}
// * * * * * * * * * * * * * * * * * * * * * * * * * * * * * * * * * * * * * //

dimensions      [0 -1 0 1 0 0 0];

internalField   nonuniform List<scalar> 
1596
(
-0.708121
-1.31277
-1.80319
-2.26736
-2.70384
-3.17016
-3.63963
-4.17739
-4.80751
-5.54727
-6.56863
-7.86935
-9.68304
-12.2824
-16.3453
-22.7015
-34.0785
-55.0797
-130.113
-2.15418
-2.64862
-2.9738
-3.2634
-3.53306
-3.84847
-4.18893
-4.61555
-5.15253
-5.80425
-6.71574
-7.86965
-9.42294
-11.4991
-14.4465
-18.438
-24.3846
-33.1309
-57.9545
-3.84803
-4.00285
-4.07769
-4.16109
-4.25187
-4.40738
-4.60498
-4.89891
-5.3078
-5.82722
-6.57741
-7.5263
-8.78302
-10.4039
-12.6005
-15.3959
-19.2856
-24.6215
-36.062
-5.61434
-5.31533
-5.09673
-4.95787
-4.86481
-4.85624
-4.90474
-5.05498
-5.31951
-5.68821
-6.26002
-6.99532
-7.9717
-9.21131
-10.8488
-12.8492
-15.5043
-18.9551
-24.8568
-7.23199
-6.51147
-6.01149
-5.6572
-5.38655
-5.21751
-5.11867
-5.1242
-5.24174
-5.45823
-5.85472
-6.39047
-7.12212
-8.05522
-9.27987
-10.7425
-12.627
-14.9795
-18.405
-8.5049
-7.52
-6.80356
-6.26515
-5.83581
-5.51839
-5.28117
-5.14867
-5.12541
-5.19765
-5.43132
-5.78886
-6.31245
-7.00015
-7.91491
-9.00111
-10.381
-12.0578
-14.2606
-9.33092
-8.28616
-7.45343
-6.7835
-6.22652
-5.78101
-5.42037
-5.16204
-5.00937
-4.94984
-5.03666
-5.23777
-5.58498
-6.07344
-6.74859
-7.55948
-8.59037
-9.82609
-11.3551
-9.71527
-8.77787
-7.93633
-7.20083
-6.55762
-6.012
-5.54839
-5.18085
-4.91373
-4.73729
-4.69431
-4.75926
-4.95631
-5.28007
-5.76402
-6.36422
-7.14017
-8.07015
-9.18674
-9.74562
-9.0365
-8.27648
-7.53826
-6.85039
-6.2335
-5.68736
-5.22694
-4.85973
-4.58002
-4.42262
-4.36863
-4.43661
-4.62165
-4.94876
-5.38107
-5.96097
-6.66556
-7.50386
-9.495
-9.02824
-8.40807
-7.72681
-7.04225
-6.39199
-5.7923
-5.26285
-4.81599
-4.45105
-4.19749
-4.04265
-4.0013
-4.0696
-4.26664
-4.5623
-4.98724
-5.5201
-6.15973
-9.18856
-8.89125
-8.40941
-7.81118
-7.16062
-6.50552
-5.87589
-5.29761
-4.78885
-4.35462
-4.02124
-3.78178
-3.64854
-3.61896
-3.70782
-3.89075
-4.18991
-4.58634
-5.0745
-8.81461
-8.68978
-8.34013
-7.83253
-7.23166
-6.59
-5.9473
-5.33556
-4.77889
-4.28811
-3.88822
-3.57744
-3.36664
-3.25462
-3.25294
-3.34202
-3.53776
-3.82372
-4.1927
-8.35465
-8.38287
-8.16111
-7.75026
-7.21253
-6.60234
-5.96515
-5.33823
-4.75088
-4.21932
-3.76871
-3.40166
-3.12862
-2.94971
-2.87433
-2.88691
-2.9989
-3.1964
-3.4718
-7.95041
-8.0638
-7.94081
-7.61613
-7.14124
-6.56885
-5.94657
-5.31557
-4.70934
-4.14873
-3.6599
-3.24912
-2.92696
-2.69473
-2.56032
-2.51128
-2.55584
-2.68225
-2.88315
-7.57936
-7.75972
-7.71099
-7.45683
-7.03797
-6.50299
-5.89934
-5.27062
-4.6535
-4.07262
-3.55549
-3.11139
-2.75125
-2.47744
-2.29668
-2.19894
-2.19005
-2.26004
-2.40211
-7.21685
-7.46253
-7.47594
-7.27988
-6.90897
-6.40825
-5.82398
-5.20124
-4.57897
-3.98485
-3.44781
-2.97947
-2.59125
-2.28628
-2.07044
-1.93543
-1.88528
-1.91146
-2.00775
-6.88993
-7.18097
-7.24447
-7.09558
-6.76397
-6.29219
-5.72534
-5.10953
-4.48545
-3.88314
-3.33279
-2.84781
-2.44002
-2.11303
-1.87191
-1.70957
-1.62863
-1.62164
-1.68293
-6.60476
-6.92821
-7.03094
-6.91942
-6.61859
-6.16901
-5.61536
-5.00471
-4.37936
-3.77135
-3.21191
-2.71581
-2.29502
-1.95331
-1.6949
-1.51342
-1.41028
-1.37878
-1.41369
-6.31641
-6.70044
-6.84602
-6.76818
-6.49232
-6.05868
-5.51282
-4.90331
-4.27439
-3.66017
-3.09282
-2.58827
-2.15839
-1.80681
-1.53673
-1.34205
-1.22309
-1.17364
-1.18878
-6.01565
-6.47084
-6.66708
-6.62472
-6.37221
-5.95156
-5.41049
-4.79985
-4.16626
-3.54605
-2.97235
-2.46205
-2.02677
-1.66968
-1.39276
-1.18977
-1.06001
-0.997752
-0.99838
-5.75723
-6.26296
-6.50749
-6.50021
-6.26916
-5.85835
-5.31851
-4.70357
-4.06304
-3.43572
-2.85582
-2.34108
-1.90269
-1.54306
-1.2627
-1.05467
-0.917217
-0.845126
-0.834679
-5.52621
-6.08035
-6.37052
-6.39744
-6.18674
-5.78374
-5.24255
-4.62066
-3.971
-3.33517
-2.74853
-2.22971
-1.78941
-1.42913
-1.14756
-0.936417
-0.792322
-0.710506
-0.689685
-5.3102
-5.91854
-6.25504
-6.31594
-6.12508
-5.72885
-5.18484
-4.55442
-3.89423
-3.24885
-2.6549
-2.13195
-1.69026
-1.33046
-1.04936
-0.836491
-0.68544
-0.589839
-0.552827
-5.11509
-5.7776
-6.15771
-6.24771
-6.07124
-5.67579
-5.12382
-4.48035
-3.80632
-3.14979
-2.54729
-2.02055
-1.57884
-1.22208
-0.944875
-0.734863
-0.57993
-0.466386
-0.383657
-4.95494
-5.66782
-6.10055
-6.23925
-6.10619
-5.74558
-5.22044
-4.59461
-3.92993
-3.27663
-2.66991
-2.13503
-1.6814
-1.31164
-1.02115
-0.799856
-0.632833
-0.503302
-0.389368
-4.84174
-5.58548
-6.0511
-6.22696
-6.13309
-5.80989
-5.31754
-4.71706
-4.06881
-3.4234
-2.8148
-2.2706
-1.8015
-1.41277
-1.10227
-0.864225
-0.685533
-0.55342
-0.451372
-4.83535
-5.5837
-6.06166
-6.25874
-6.19271
-5.90147
-5.44091
-4.86897
-4.24304
-3.61194
-3.00864
-2.46022
-1.97809
-1.56959
-1.23596
-0.975502
-0.778416
-0.634069
-0.527069
-4.94824
-5.67374
-6.13812
-6.33359
-6.27727
-6.00535
-5.56967
-5.02446
-4.42326
-3.8119
-3.22095
-2.67555
-2.18607
-1.7604
-1.40259
-1.11582
-0.894851
-0.732201
-0.613144
-5.16659
-5.85315
-6.28266
-6.45691
-6.39451
-6.13054
-5.71314
-5.19243
-4.61754
-4.03063
-3.4589
-2.92465
-2.43528
-1.99708
-1.61504
-1.29735
-1.04512
-0.856515
-0.718334
-5.48266
-6.10478
-6.48036
-6.61827
-6.53814
-6.27388
-5.87018
-5.37278
-4.82614
-4.26862
-3.72364
-3.2105
-2.73236
-2.29124
-1.88934
-1.53791
-1.24536
-1.01997
-0.853363
-5.88982
-6.42437
-6.73462
-6.82687
-6.7213
-6.45071
-6.05682
-5.58086
-5.06274
-4.53733
-4.02465
-3.54199
-3.08833
-2.65967
-2.25019
-1.86825
-1.526
-1.24668
-1.03537
-6.32487
-6.78425
-7.0284
-7.07114
-6.93636
-6.65642
-6.27035
-5.81485
-5.32545
-4.83392
-4.35769
-3.91404
-3.5001
-3.10715
-2.71769
-2.328
-1.93943
-1.58442
-1.29626
-6.81698
-7.19349
-7.36467
-7.35247
-7.18439
-6.89209
-6.51157
-6.07483
-5.61288
-5.15454
-4.7151
-4.3138
-3.95002
-3.61663
-3.28863
-2.94831
-2.5651
-2.14684
-1.7063
-7.38832
-7.66767
-7.7591
-7.6894
-7.48814
-7.18547
-6.81331
-6.39876
-5.96801
-5.54642
-5.14792
-4.79317
-4.48741
-4.23363
-4.01548
-3.82037
-3.60114
-3.33323
-2.98597
-8.01768
-8.18724
-8.18023
-8.03398
-7.78001
-7.44702
-7.06179
-6.64722
-6.22459
-5.81375
-5.42744
-5.08233
-4.78626
-4.54811
-4.36828
-4.25447
-4.19037
-4.16272
-4.1434
-8.72438
-8.74719
-8.62035
-8.38362
-8.06574
-7.6922
-7.28439
-6.86183
-6.44194
-6.03975
-5.66778
-5.33739
-5.05543
-4.82741
-4.6562
-4.54577
-4.49671
-4.51256
-4.59617
-9.50082
-9.34692
-9.09466
-8.76941
-8.39127
-7.97971
-7.55123
-7.12178
-6.70566
-6.31485
-5.96039
-5.65037
-5.38946
-5.17966
-5.02028
-4.90667
-4.83224
-4.78793
-4.76406
-10.2054
-9.8878
-9.52029
-9.11319
-8.67849
-8.22972
-7.7793
-7.33951
-6.92182
-6.53558
-6.18942
-5.88942
-5.63817
-5.43594
-5.28078
-5.16768
-5.09019
-5.04092
-5.01188
-10.7709
-10.3379
-9.88258
-9.41087
-8.93085
-8.45207
-7.9839
-7.53568
-7.11655
-6.7338
-6.39428
-6.10263
-5.86023
-5.66653
-5.5191
-5.4129
-5.34156
-5.29801
-5.27446
-11.2192
-10.6968
-10.1731
-9.65118
-9.13592
-8.63384
-8.15183
-7.69695
-7.27655
-6.89635
-6.56192
-6.27694
-6.04195
-5.85586
-5.71594
-5.617
-5.55263
-5.51588
-5.49904
-11.5443
-10.955
-10.3801
-9.8213
-9.28084
-8.76241
-8.27086
-7.81149
-7.39035
-7.01211
-6.68147
-6.40148
-6.17215
-5.99202
-5.85808
-5.76496
-5.70603
-5.6742
-5.66167
-11.7567
-11.1025
-10.4905
-9.90912
-9.35454
-8.8275
-8.33118
-7.86975
-7.44852
-7.07158
-6.7432
-6.46613
-6.24013
-6.06361
-5.93353
-5.84453
-5.79
-5.76291
-5.75539
-11.7568
-11.1026
-10.4907
-9.90926
-9.35469
-8.82765
-8.33134
-7.86991
-7.4487
-7.07176
-6.74338
-6.46632
-6.24033
-6.06383
-5.93375
-5.84476
-5.79025
-5.76317
-5.75566
-11.5444
-10.9552
-10.3804
-9.82165
-9.28122
-8.76282
-8.2713
-7.81195
-7.39083
-7.01261
-6.68199
-6.40203
-6.17273
-5.99264
-5.85874
-5.76566
-5.70679
-5.67504
-5.66258
-11.2193
-10.6971
-10.1736
-9.65172
-9.13653
-8.63449
-8.15253
-7.69769
-7.27732
-6.89716
-6.56277
-6.27783
-6.04289
-5.85685
-5.71699
-5.61812
-5.55384
-5.51718
-5.50044
-10.771
-10.3383
-9.88316
-9.41156
-8.93163
-8.45291
-7.9848
-7.53663
-7.11755
-6.73485
-6.39537
-6.10377
-5.86142
-5.66778
-5.52041
-5.41428
-5.34301
-5.29955
-5.27608
-10.2056
-9.88827
-9.52095
-9.11398
-8.6794
-8.23071
-7.78036
-7.34065
-6.92301
-6.53683
-6.19073
-5.89079
-5.63959
-5.43742
-5.28232
-5.16928
-5.09186
-5.04267
-5.0137
-9.50104
-9.34743
-9.09538
-8.77029
-8.39227
-7.98081
-7.55242
-7.12304
-6.707
-6.31625
-5.96185
-5.65189
-5.39103
-5.18127
-5.02192
-4.90832
-4.83388
-4.78954
-4.76565
-8.72462
-8.74778
-8.62124
-8.38477
-8.06712
-7.69378
-7.28617
-6.86379
-6.44407
-6.04205
-5.67026
-5.34006
-5.0583
-4.83048
-4.65946
-4.54909
-4.49989
-4.51519
-4.59766
-8.01783
-8.18734
-8.18038
-8.03421
-7.78034
-7.44743
-7.06227
-6.64776
-6.22515
-5.81427
-5.42788
-5.08259
-4.78626
-4.54775
-4.36756
-4.25349
-4.18964
-4.16322
-4.14667
-7.38839
-7.66802
-7.75975
-7.6904
-7.48954
-7.18727
-6.81549
-6.40131
-5.97089
-5.54958
-5.15133
-4.79681
-4.49133
-4.23795
-4.0205
-3.82653
-3.60904
-3.34338
-2.99867
-6.81699
-7.19355
-7.36489
-7.35293
-7.18514
-6.89314
-6.51292
-6.07646
-5.61473
-5.15659
-4.71732
-4.31618
-3.95262
-3.61956
-3.29202
-2.95225
-2.56943
-2.15108
-1.7095
-6.32487
-6.78425
-7.02855
-7.07153
-6.93704
-6.65742
-6.27166
-5.81646
-5.3273
-4.83597
-4.35992
-3.91643
-3.50269
-3.10999
-2.72074
-2.33117
-1.94245
-1.58698
-1.29825
-5.8898
-6.42432
-6.73469
-6.82716
-6.72188
-6.4516
-6.05803
-5.58235
-5.06447
-4.53926
-4.02673
-3.54421
-3.09068
-2.66212
-2.25266
-1.8706
-1.52808
-1.24839
-1.03674
-5.48263
-6.1047
-6.48037
-6.61848
-6.53863
-6.27467
-5.87128
-5.37416
-4.82774
-4.2704
-3.72555
-3.2125
-2.73441
-2.29329
-1.89129
-1.53967
-1.24687
-1.02121
-0.854393
-5.16654
-5.85303
-6.28261
-6.45704
-6.3949
-6.13123
-5.71413
-5.19368
-4.619
-4.03225
-3.46061
-2.9264
-2.43703
-1.99877
-1.61658
-1.29871
-1.04626
-0.857467
-0.719149
-4.94819
-5.67361
-6.13804
-6.33368
-6.27759
-6.00596
-5.57054
-5.02558
-4.42457
-3.81334
-3.22245
-2.67707
-2.18754
-1.76177
-1.40382
-1.11688
-0.895747
-0.732965
-0.613827
-4.83529
-5.58357
-6.06157
-6.25879
-6.19298
-5.90199
-5.44168
-4.86995
-4.24419
-3.61319
-3.00994
-2.4615
-1.97931
-1.57071
-1.23694
-0.976351
-0.779143
-0.634712
-0.527684
-4.84168
-5.58534
-6.05097
-6.22693
-6.13322
-5.81021
-5.31806
-4.71774
-4.06962
-3.42428
-2.81571
-2.27149
-1.80234
-1.41352
-1.10292
-0.864776
-0.686009
-0.553877
-0.451912
-4.95503
-5.66787
-6.10062
-6.23937
-6.10639
-5.74587
-5.22083
-4.5951
-3.9305
-3.27725
-2.67057
-2.1357
-1.68206
-1.31227
-1.02174
-0.800405
-0.633332
-0.503739
-0.389703
-5.1152
-5.77769
-6.15776
-6.24769
-6.07115
-5.67561
-5.12356
-4.48004
-3.80597
-3.14943
-2.54694
-2.02022
-1.57854
-1.22183
-0.944654
-0.734669
-0.57975
-0.4662
-0.383424
-5.31026
-5.91859
-6.25508
-6.31597
-6.12509
-5.72885
-5.18483
-4.5544
-3.89421
-3.24883
-2.6549
-2.13196
-1.69027
-1.33048
-1.04938
-0.836521
-0.685474
-0.589878
-0.55286
-5.52626
-6.08038
-6.37054
-6.39744
-6.18672
-5.78371
-5.24251
-4.62061
-3.97096
-3.33514
-2.74851
-2.2297
-1.78941
-1.42913
-1.14758
-0.936437
-0.792347
-0.710531
-0.689708
-5.75727
-6.26298
-6.5075
-6.50021
-6.26914
-5.85832
-5.31848
-4.70353
-4.06301
-3.4357
-2.85581
-2.34108
-1.90269
-1.54307
-1.26271
-1.05468
-0.917236
-0.845145
-0.834696
-6.01567
-6.47086
-6.66708
-6.62471
-6.37219
-5.95153
-5.41047
-4.79983
-4.16624
-3.54603
-2.97234
-2.46205
-2.02677
-1.66968
-1.39277
-1.18978
-1.06003
-0.997767
-0.998394
-6.31643
-6.70045
-6.84602
-6.76817
-6.4923
-6.05866
-5.5128
-4.90329
-4.27438
-3.66016
-3.09282
-2.58827
-2.15839
-1.80681
-1.53674
-1.34206
-1.2231
-1.17366
-1.18879
-6.60478
-6.92821
-7.03093
-6.9194
-6.61858
-6.169
-5.61535
-5.0047
-4.37936
-3.77134
-3.2119
-2.71581
-2.29502
-1.95331
-1.69491
-1.51342
-1.41029
-1.37879
-1.4137
-6.88994
-7.18097
-7.24446
-7.09557
-6.76396
-6.29218
-5.72533
-5.10953
-4.48545
-3.88313
-3.33278
-2.84781
-2.44001
-2.11303
-1.87191
-1.70957
-1.62864
-1.62165
-1.68293
-7.21685
-7.46253
-7.47593
-7.27987
-6.90896
-6.40825
-5.82398
-5.20124
-4.57897
-3.98485
-3.44781
-2.97946
-2.59124
-2.28628
-2.07044
-1.93543
-1.88528
-1.91146
-2.00775
-7.57935
-7.75971
-7.71098
-7.45682
-7.03796
-6.50299
-5.89934
-5.27062
-4.6535
-4.07261
-3.55549
-3.11138
-2.75125
-2.47744
-2.29668
-2.19894
-2.19004
-2.26003
-2.4021
-7.95039
-8.06378
-7.9408
-7.61612
-7.14125
-6.56886
-5.94657
-5.31557
-4.70934
-4.14873
-3.6599
-3.24912
-2.92696
-2.69473
-2.56032
-2.51128
-2.55583
-2.68223
-2.88314
-8.35463
-8.38286
-8.1611
-7.75027
-7.21254
-6.60235
-5.96516
-5.33823
-4.75088
-4.21932
-3.7687
-3.40166
-3.12862
-2.94971
-2.87433
-2.8869
-2.99888
-3.19638
-3.47178
-8.81458
-8.68976
-8.34013
-7.83254
-7.23167
-6.59001
-5.9473
-5.33556
-4.77889
-4.2881
-3.88822
-3.57743
-3.36664
-3.25462
-3.25293
-3.34201
-3.53773
-3.82369
-4.19268
-9.18852
-8.89124
-8.40942
-7.81119
-7.16063
-6.50553
-5.8759
-5.29761
-4.78885
-4.35462
-4.02124
-3.78177
-3.64853
-3.61896
-3.70781
-3.89073
-4.18988
-4.58631
-5.07448
-9.49498
-9.02825
-8.40809
-7.72683
-7.04226
-6.392
-5.7923
-5.26285
-4.81599
-4.45105
-4.19749
-4.04265
-4.00129
-4.06959
-4.26663
-4.56228
-4.9872
-5.52007
-6.15972
-9.74562
-9.03652
-8.27651
-7.53828
-6.85041
-6.23351
-5.68736
-5.22695
-4.85974
-4.58002
-4.42262
-4.36863
-4.43661
-4.62164
-4.94874
-5.38104
-5.96094
-6.66554
-7.50386
-9.71529
-8.7779
-7.93635
-7.20085
-6.55763
-6.01201
-5.5484
-5.18085
-4.91374
-4.73729
-4.69431
-4.75926
-4.95631
-5.28005
-5.764
-6.3642
-7.14014
-8.07013
-9.18676
-9.33095
-8.28619
-7.45346
-6.78352
-6.22654
-5.78102
-5.42038
-5.16205
-5.00938
-4.94985
-5.03666
-5.23777
-5.58497
-6.07343
-6.74857
-7.55946
-8.59035
-9.82609
-11.3551
-8.50494
-7.52003
-6.80358
-6.26517
-5.83583
-5.51841
-5.28119
-5.14869
-5.12542
-5.19765
-5.43132
-5.78886
-6.31244
-7.00014
-7.91489
-9.0011
-10.381
-12.0578
-14.2606
-7.23203
-6.51149
-6.0115
-5.65721
-5.38657
-5.21753
-5.11869
-5.12421
-5.24175
-5.45824
-5.85472
-6.39047
-7.12211
-8.05521
-9.27986
-10.7425
-12.627
-14.9795
-18.405
-5.61437
-5.31535
-5.09674
-4.95788
-4.86482
-4.85626
-4.90476
-5.05499
-5.31952
-5.68821
-6.26002
-6.99531
-7.97169
-9.2113
-10.8488
-12.8492
-15.5043
-18.9551
-24.8568
-3.84806
-4.00286
-4.0777
-4.1611
-4.25189
-4.40739
-4.60499
-4.89892
-5.30781
-5.82723
-6.5774
-7.52629
-8.78301
-10.4039
-12.6005
-15.3959
-19.2856
-24.6215
-36.062
-2.15419
-2.64862
-2.9738
-3.2634
-3.53306
-3.84848
-4.18894
-4.61556
-5.15253
-5.80426
-6.71574
-7.86964
-9.42293
-11.4991
-14.4465
-18.438
-24.3846
-33.1309
-57.9545
-0.708126
-1.31277
-1.80319
-2.26736
-2.70384
-3.17016
-3.63963
-4.17739
-4.80752
-5.54727
-6.56863
-7.86934
-9.68303
-12.2824
-16.3453
-22.7015
-34.0785
-55.0797
-130.113
)
;

boundaryField
{
    up
    {
        type            calculated;
        value           nonuniform List<scalar> 
84
(
-117.909
-63.8597
-39.1785
-26.6879
-19.5917
-15.0901
-11.9663
-9.6527
-7.86461
-6.44203
-5.29461
-4.36288
-3.60254
-2.98221
-2.47603
-2.06207
-1.72213
-1.44135
-1.20767
-1.01082
-0.842327
-0.693038
-0.546052
-0.343358
-0.331558
-0.42213
-0.496764
-0.578847
-0.677844
-0.8038
-0.970376
-1.19555
-1.5483
-2.94444
-4.2491
-4.66326
-4.7522
-5.00015
-5.26597
-5.49417
-5.65912
-5.75566
-5.75593
-5.66008
-5.49561
-5.26764
-5.00202
-4.7538
-4.66377
-4.25263
-2.95918
-1.5513
-1.1973
-0.971648
-0.804775
-0.678628
-0.579513
-0.497375
-0.422829
-0.331978
-0.343098
-0.546076
-0.693058
-0.842343
-1.01083
-1.20768
-1.44135
-1.72213
-2.06207
-2.47602
-2.98219
-3.60253
-4.36287
-5.29461
-6.44204
-7.86463
-9.65273
-11.9664
-15.0901
-19.5917
-26.6879
-39.1785
-63.8597
-117.909
)
;
    }
    low
    {
        type            calculated;
        value           nonuniform List<scalar> 
84
(
-0.760132
-2.25187
-4.05979
-5.97023
-7.72339
-9.08638
-9.93266
-10.2763
-10.1959
-9.80328
-9.4228
-8.97746
-8.41961
-7.96193
-7.56027
-7.15497
-6.79036
-6.49379
-6.18144
-5.82647
-5.52573
-5.26143
-5.00515
-4.77238
-4.54711
-4.40534
-4.40443
-4.56325
-4.84129
-5.23245
-5.70634
-6.18593
-6.72911
-7.35944
-8.03742
-8.8084
-9.67361
-10.434
-11.0324
-11.5082
-11.8555
-12.0996
-12.0996
-11.8556
-11.5083
-11.0325
-10.4341
-9.67374
-8.80856
-8.03737
-7.35953
-6.72904
-6.18589
-5.70631
-5.23242
-4.84126
-4.56324
-4.40444
-4.40536
-4.54715
-4.77252
-5.00517
-5.26148
-5.52576
-5.82649
-6.18145
-6.49381
-6.79037
-7.15498
-7.56026
-7.96191
-8.41959
-8.97742
-9.42276
-9.80324
-10.1959
-10.2763
-9.9327
-9.08643
-7.72345
-5.97028
-4.05983
-2.25189
-0.760139
)
;
    }
    left
    {
        type            calculated;
        value           nonuniform List<scalar> 
19
(
-0.694703
-1.28843
-1.78863
-2.26842
-2.72341
-3.20898
-3.69939
-4.26301
-4.92466
-5.7115
-6.80348
-8.20606
-10.1845
-13.0653
-17.6085
-24.8319
-37.9103
-62.3353
-122.293
)
;
    }
    right
    {
        type            calculated;
        value           nonuniform List<scalar> 
19
(
-0.694707
-1.28843
-1.78863
-2.26842
-2.72341
-3.20898
-3.69939
-4.26301
-4.92466
-5.71149
-6.80348
-8.20605
-10.1845
-13.0653
-17.6085
-24.8319
-37.9103
-62.3353
-122.293
)
;
    }
    frontAndBackPlanes
    {
        type            empty;
    }
}


// ************************************************************************* //
