/*--------------------------------*- C++ -*----------------------------------*\
  =========                 |
  \\      /  F ield         | OpenFOAM: The Open Source CFD Toolbox
   \\    /   O peration     | Website:  https://openfoam.org
    \\  /    A nd           | Version:  7
     \\/     M anipulation  |
\*---------------------------------------------------------------------------*/
FoamFile
{
    version     2.0;
    format      ascii;
    class       volScalarField;
    location    "0.2";
    object      gradTx;
}
// * * * * * * * * * * * * * * * * * * * * * * * * * * * * * * * * * * * * * //

dimensions      [0 -1 0 1 0 0 0];

internalField   nonuniform List<scalar> 
1596
(
-0.340405
-1.70734
-3.05279
-4.25713
-5.30899
-6.20299
-6.98057
-7.66869
-8.30546
-8.96315
-9.66425
-10.4961
-11.5597
-12.998
-14.9775
-17.9086
-22.4206
-29.8707
-43.0651
0.075766
-1.41842
-2.74315
-3.88123
-4.85701
-5.67457
-6.37171
-6.96211
-7.47468
-7.94805
-8.3892
-8.84679
-9.34123
-9.90111
-10.5147
-11.1558
-11.6497
-11.6368
-10.3502
0.41761
-1.15242
-2.4327
-3.49067
-4.37801
-5.11054
-5.7211
-6.21883
-6.62331
-6.9559
-7.21626
-7.43106
-7.59798
-7.71718
-7.76239
-7.68501
-7.34681
-6.50266
-4.66743
0.47456
-1.00515
-2.17178
-3.11872
-3.90229
-4.54336
-5.06771
-5.48259
-5.80047
-6.03257
-6.17696
-6.24718
-6.23606
-6.13666
-5.92785
-5.57094
-4.97852
-4.00558
-2.36504
0.149617
-1.03937
-2.00661
-2.8039
-3.46629
-4.00957
-4.44946
-4.79108
-5.04126
-5.20438
-5.27935
-5.27125
-5.17341
-4.97812
-4.67185
-4.2277
-3.59549
-2.69409
-1.36032
-0.527692
-1.27947
-1.97313
-2.58303
-3.10603
-3.54357
-3.89875
-4.17296
-4.36784
-4.48263
-4.51718
-4.47075
-4.33797
-4.11154
-3.7835
-3.33506
-2.73896
-1.95074
-0.879584
-1.42743
-1.70601
-2.0872
-2.48211
-2.84943
-3.17186
-3.43905
-3.64679
-3.79169
-3.86868
-3.8777
-3.81386
-3.67254
-3.44661
-3.13123
-2.71231
-2.17551
-1.4964
-0.624868
-2.36833
-2.23809
-2.3169
-2.49138
-2.69628
-2.89791
-3.07416
-3.21442
-3.3105
-3.35373
-3.34312
-3.2709
-3.13245
-2.92053
-2.63157
-2.25402
-1.78027
-1.1965
-0.4751
-3.34125
-2.92367
-2.73502
-2.68835
-2.7183
-2.7835
-2.85447
-2.91481
-2.95216
-2.95471
-2.9196
-2.83696
-2.70139
-2.50501
-2.24416
-1.90836
-1.49275
-0.988639
-0.380009
-3.92573
-3.40451
-3.05885
-2.85414
-2.74573
-2.69632
-2.67587
-2.6651
-2.64925
-2.61475
-2.55695
-2.46498
-2.33269
-2.15188
-1.91851
-1.62285
-1.2612
-0.827468
-0.311849
-4.40422
-3.84062
-3.40121
-3.07977
-2.85464
-2.69955
-2.58942
-2.50546
-2.43247
-2.35629
-2.27082
-2.16475
-2.03114
-1.86145
-1.65087
-1.38996
-1.07501
-0.700915
-0.260946
-4.89488
-4.32895
-3.83143
-3.41846
-3.08861
-2.82943
-2.62449
-2.45872
-2.31858
-2.19054
-2.06761
-1.93841
-1.79517
-1.62885
-1.43368
-1.20009
-0.923663
-0.599259
-0.221222
-5.03612
-4.54604
-4.06095
-3.61927
-3.23663
-2.91373
-2.6437
-2.4172
-2.2242
-2.05329
-1.89796
-1.74761
-1.59439
-1.42934
-1.24619
-1.03554
-0.792427
-0.511564
-0.187676
-5.08018
-4.67226
-4.22679
-3.78622
-3.3769
-3.01075
-2.6901
-2.41227
-2.1718
-1.96041
-1.7729
-1.59999
-1.43417
-1.26675
-1.09114
-0.898142
-0.682216
-0.437816
-0.159689
-5.08474
-4.75096
-4.35383
-3.93115
-3.51295
-3.11895
-2.75936
-2.43823
-2.15519
-1.90566
-1.68651
-1.4901
-1.30957
-1.1367
-0.964726
-0.784618
-0.590347
-0.376028
-0.13623
-4.97561
-4.72168
-4.38335
-3.996
-3.58975
-3.18854
-2.80821
-2.45867
-2.14448
-1.86505
-1.61979
-1.4031
-1.20916
-1.03045
-0.860348
-0.690095
-0.513362
-0.324027
-0.11645
-4.74619
-4.56882
-4.29548
-3.9568
-3.58066
-3.19224
-2.8106
-2.44995
-2.11911
-1.82124
-1.55851
-1.32758
-1.12398
-0.941187
-0.772946
-0.610963
-0.448837
-0.280383
-0.0998551
-4.47175
-4.34387
-4.12817
-3.84071
-3.50341
-3.13996
-2.77053
-2.41199
-2.07643
-1.77021
-1.49809
-1.25898
-1.04987
-0.865339
-0.699665
-0.545082
-0.395286
-0.244189
-0.0860966
-4.24186
-4.15357
-3.98173
-3.7354
-3.43095
-3.08973
-2.73222
-2.37707
-2.03893
-1.72684
-1.44776
-1.20254
-0.989438
-0.803925
-0.640685
-0.492288
-0.352449
-0.215195
-0.0750103
-3.82707
-3.79202
-3.67228
-3.4782
-3.2223
-2.92251
-2.59777
-2.26675
-1.94536
-1.64444
-1.37272
-1.13287
-0.924518
-0.744249
-0.58739
-0.446998
-0.31693
-0.191523
-0.0659248
-3.36178
-3.36874
-3.29618
-3.15203
-2.94589
-2.69236
-2.40814
-2.11087
-1.81658
-1.53704
-1.28201
-1.05555
-0.85844
-0.688346
-0.541274
-0.410709
-0.290393
-0.17459
-0.0592918
-2.87149
-2.90517
-2.87149
-2.77282
-2.61523
-2.40994
-2.1711
-1.91458
-1.65572
-1.40635
-1.17646
-0.970978
-0.791469
-0.636595
-0.503147
-0.38511
-0.275772
-0.16809
-0.0571046
-2.32277
-2.36909
-2.36682
-2.31157
-2.20477
-2.05348
-1.86863
-1.66344
-1.45163
-1.2442
-1.05053
-0.875796
-0.72196
-0.588647
-0.473791
-0.372514
-0.278018
-0.180932
-0.0696422
-1.69914
-1.67477
-1.61459
-1.51967
-1.39661
-1.25474
-1.1048
-0.956451
-0.817989
-0.694396
-0.587816
-0.497838
-0.422035
-0.357591
-0.301746
-0.251181
-0.201168
-0.143477
-0.064003
-1.13555
-1.25855
-1.38512
-1.49056
-1.55827
-1.57899
-1.55213
-1.48303
-1.38222
-1.26141
-1.13095
-0.999945
-0.873525
-0.756326
-0.651501
-0.560821
-0.482288
-0.410072
-0.330469
-0.382745
-0.436855
-0.505868
-0.576126
-0.637418
-0.682635
-0.709307
-0.717562
-0.710932
-0.693635
-0.668092
-0.637166
-0.600147
-0.557842
-0.511948
-0.467114
-0.426196
-0.392413
-0.365237
0.371538
0.305221
0.209298
0.096364
-0.0214537
-0.134052
-0.23496
-0.320743
-0.391526
-0.449062
-0.493788
-0.526529
-0.54455
-0.546419
-0.532471
-0.508386
-0.479709
-0.45314
-0.430861
1.12265
1.03199
0.899787
0.740047
0.566428
0.39102
0.222829
0.0673732
-0.073451
-0.20004
-0.311939
-0.408529
-0.485116
-0.536956
-0.560927
-0.561507
-0.545967
-0.52488
-0.503816
1.79868
1.66854
1.492
1.28533
1.06264
0.836442
0.6162
0.407614
0.212843
0.0313946
-0.136648
-0.290517
-0.424377
-0.529902
-0.598307
-0.629524
-0.629815
-0.613555
-0.591368
2.49513
2.31553
2.08853
1.83101
1.55758
1.28118
1.01138
0.753608
0.509726
0.27849
0.0587569
-0.150147
-0.343197
-0.510027
-0.635375
-0.7109
-0.736514
-0.727929
-0.702757
3.01507
2.77922
2.50352
2.20424
1.8956
1.5891
1.29246
1.00916
0.739589
0.480908
0.230102
-0.016254
-0.256335
-0.481174
-0.671121
-0.807473
-0.87558
-0.883688
-0.853344
3.49654
3.21308
2.89024
2.55061
2.20913
1.8759
1.55674
1.25338
0.96492
0.687305
0.415974
0.144365
-0.130942
-0.407366
-0.667688
-0.887785
-1.03332
-1.08982
-1.06924
3.93649
3.59074
3.21763
2.84002
2.47103
2.11802
1.78436
1.46979
1.17243
0.887504
0.609948
0.331417
0.0436416
-0.260222
-0.574217
-0.883819
-1.14528
-1.31293
-1.34158
4.21349
3.77376
3.32515
2.88769
2.47102
2.07919
1.71304
1.37077
1.04971
0.74503
0.451617
0.161155
-0.136716
-0.456077
-0.80651
-1.19774
-1.61068
-2.00738
-2.31606
4.37705
3.8989
3.44637
3.03142
2.65462
2.31294
2.00181
1.71639
1.45242
1.20571
0.973181
0.751005
0.534697
0.317201
0.0887498
-0.170784
-0.480554
-0.862343
-1.32366
4.49222
4.00057
3.56466
3.17901
2.83473
2.52428
2.24087
1.97928
1.73574
1.50709
1.29174
1.08865
0.89692
0.716463
0.548132
0.390776
0.242228
0.0946434
-0.0671205
4.23733
3.67712
3.2014
2.79135
2.43281
2.11575
1.83201
1.57542
1.34142
1.12596
0.9267
0.741963
0.570245
0.411214
0.266074
0.136222
0.0244829
-0.0655958
-0.132397
3.70848
3.20168
2.7777
2.41674
2.10457
1.83101
1.58802
1.36958
1.17134
0.989662
0.822417
0.668161
0.525518
0.393907
0.273583
0.164474
0.066874
-0.0185199
-0.0919993
3.07306
2.64983
2.29449
1.99268
1.73293
1.50648
1.30637
1.12729
0.965472
0.817715
0.682128
0.557356
0.442024
0.335349
0.237192
0.147149
0.0652045
-0.00809079
-0.072901
2.30905
1.98381
1.71329
1.48556
1.29103
1.12243
0.974139
0.84189
0.722704
0.614074
0.514495
0.422872
0.338073
0.259424
0.186763
0.119767
0.0584741
0.00342168
-0.0454012
1.45207
1.23532
1.06068
0.916495
0.79481
0.690129
0.598507
0.517061
0.443818
0.377141
0.316037
0.259776
0.207604
0.159054
0.113991
0.0722006
0.0337163
-0.00106099
-0.032052
0.556856
0.469041
0.400864
0.34536
0.298701
0.258574
0.223451
0.192257
0.164262
0.138858
0.115657
0.0943566
0.0746404
0.0562883
0.0391929
0.0232206
0.00832795
-0.00538073
-0.0178874
-0.556589
-0.468444
-0.400041
-0.344387
-0.297635
-0.257459
-0.222323
-0.191145
-0.163191
-0.13785
-0.114729
-0.0935247
-0.0739181
-0.0556875
-0.0387226
-0.0228881
-0.00813785
0.00542791
0.0177941
-1.45182
-1.23479
-1.05995
-0.915643
-0.793881
-0.689163
-0.597538
-0.516115
-0.442918
-0.376307
-0.315286
-0.259123
-0.207061
-0.158631
-0.113697
-0.0720425
-0.0336972
0.000941952
0.0317994
-2.30879
-1.98329
-1.71258
-1.48471
-1.2901
-1.12144
-0.973132
-0.840892
-0.721739
-0.613162
-0.513653
-0.422113
-0.337408
-0.258859
-0.186303
-0.119413
-0.0582237
-0.00326942
0.0454633
-3.07287
-2.64947
-2.29399
-1.99209
-1.73228
-1.5058
-1.30568
-1.12663
-0.964842
-0.81714
-0.681623
-0.556932
-0.441689
-0.335109
-0.237048
-0.1471
-0.0652455
0.00796625
0.0727015
-3.70835
-3.20144
-2.77736
-2.41632
-2.1041
-1.8305
-1.5875
-1.36907
-1.17087
-0.989234
-0.822051
-0.667869
-0.525306
-0.393781
-0.273542
-0.16451
-0.0669764
0.0183703
0.0918266
-4.23732
-3.67705
-3.20126
-2.79114
-2.43254
-2.11546
-1.83172
-1.57516
-1.34119
-1.12579
-0.926608
-0.74196
-0.570344
-0.411424
-0.266395
-0.136639
-0.0249536
0.0651443
0.132049
-4.49221
-4.00018
-3.56379
-3.17762
-2.83284
-2.52192
-2.23811
-1.97618
-1.73238
-1.50352
-1.28801
-1.08481
-0.892981
-0.712444
-0.54406
-0.386748
-0.238478
-0.0916749
0.0684818
-4.37783
-3.90097
-3.44977
-3.03611
-2.66051
-2.3199
-2.00971
-1.72509
-1.46181
-1.2157
-0.983703
-0.762069
-0.546384
-0.329711
-0.102401
0.155522
0.463244
0.842845
1.30255
-4.21316
-3.77287
-3.32362
-2.88553
-2.46828
-2.07593
-1.70936
-1.36675
-1.04545
-0.740613
-0.447119
-0.156654
0.141148
0.46039
0.810745
1.20213
1.61583
2.0143
2.32611
-3.93676
-3.59137
-3.21858
-2.84121
-2.47242
-2.11955
-1.78598
-1.47149
-1.17416
-0.889263
-0.611732
-0.333231
-0.0454744
0.258437
0.572649
0.882783
1.14514
1.31391
1.34337
-3.49671
-3.21347
-2.89083
-2.55136
-2.21001
-1.87687
-1.55778
-1.25446
-0.966026
-0.688425
-0.417097
-0.145467
0.129916
0.406532
0.667225
0.887891
1.03409
1.09114
1.07082
-3.01524
-2.77962
-2.50413
-2.20502
-1.89652
-1.59011
-1.29352
-1.01026
-0.74068
-0.481972
-0.231111
0.0153435
0.255595
0.48071
0.671046
0.807853
0.876369
0.884726
0.854445
-2.4953
-2.31593
-2.08915
-1.83182
-1.55854
-1.28223
-1.01248
-0.754716
-0.510802
-0.279499
-0.0596597
0.149398
0.342667
0.509787
0.63547
0.71132
0.737175
0.728717
0.703586
-1.79883
-1.66892
-1.4926
-1.28611
-1.06357
-0.837451
-0.617243
-0.408643
-0.213814
-0.0322682
0.13591
0.289958
0.424041
0.529825
0.598492
0.62993
0.630369
0.614185
0.592033
-1.12281
-1.03239
-0.900416
-0.740867
-0.567387
-0.392057
-0.223881
-0.0683845
0.0725286
0.199247
0.31131
0.408094
0.484899
0.536964
0.561138
0.561877
0.54644
0.525412
0.504386
-0.371676
-0.305603
-0.20991
-0.0971651
0.0205232
0.13306
0.233975
0.319824
0.390721
0.448407
0.493307
0.526238
0.544454
0.546507
0.532712
0.508741
0.480141
0.453625
0.431394
0.382418
0.43587
0.504207
0.573857
0.63468
0.679608
0.706184
0.71452
0.708115
0.691146
0.665988
0.635472
0.598851
0.556904
0.511308
0.466717
0.426001
0.392431
0.365563
1.13577
1.25941
1.38675
1.49297
1.56142
1.58271
1.55622
1.48729
1.38646
1.26546
1.1347
1.00334
0.876538
0.758974
0.653825
0.562878
0.484134
0.411756
0.332006
1.69889
1.6739
1.61309
1.51761
1.39414
1.25203
1.10202
0.953754
0.815487
0.692167
0.585895
0.496233
0.42073
0.356558
0.300949
0.250584
0.200741
0.143202
0.06389
2.3229
2.36937
2.36723
2.31209
2.20535
2.05407
1.8692
1.66393
1.45204
1.24451
1.05075
0.875946
0.722049
0.588692
0.473807
0.372512
0.278006
0.180918
0.0696371
2.87151
2.9052
2.87152
2.77286
2.61527
2.40997
2.17112
1.91459
1.65572
1.40633
1.17644
0.970943
0.791432
0.636559
0.503115
0.385083
0.275752
0.168079
0.057103
3.3618
3.36877
3.29621
3.15206
2.94592
2.69238
2.40815
2.11087
1.81657
1.53702
1.28198
1.05552
0.85841
0.688319
0.541252
0.410691
0.290381
0.174584
0.0592905
3.82708
3.79203
3.6723
3.47822
3.22232
2.92252
2.59777
2.26675
1.94534
1.64442
1.37269
1.13284
0.924494
0.744229
0.587374
0.446986
0.316923
0.191519
0.0659237
4.24188
4.1536
3.98175
3.73543
3.43097
3.08975
2.73223
2.37707
2.03892
1.72682
1.44774
1.20252
0.98942
0.80391
0.640673
0.49228
0.352443
0.215192
0.0750093
4.47177
4.34389
4.12819
3.84073
3.50343
3.13997
2.77053
2.41199
2.07642
1.7702
1.49808
1.25896
1.04986
0.865327
0.699655
0.545074
0.39528
0.244186
0.0860954
4.74619
4.56883
4.2955
3.95682
3.58067
3.19224
2.8106
2.44994
2.1191
1.82123
1.55849
1.32756
1.12397
0.941175
0.772935
0.610954
0.44883
0.280379
0.0998538
4.97562
4.7217
4.38337
3.99602
3.58976
3.18854
2.80821
2.45866
2.14447
1.86504
1.61978
1.40308
1.20915
1.03044
0.860337
0.690085
0.513353
0.324022
0.116449
5.08474
4.75096
4.35384
3.93116
3.51295
3.11894
2.75935
2.43822
2.15517
1.90565
1.68649
1.49008
1.30956
1.13668
0.964712
0.784605
0.590336
0.376022
0.136228
5.08019
4.67228
4.22681
3.78623
3.37691
3.01075
2.69009
2.41226
2.17179
1.96039
1.77289
1.59998
1.43416
1.26674
1.09113
0.898128
0.682206
0.43781
0.159688
5.03614
4.54606
4.06097
3.61928
3.23664
2.91373
2.6437
2.4172
2.22419
2.05328
1.89795
1.74759
1.59438
1.42932
1.24617
1.03553
0.792418
0.51156
0.187677
4.89486
4.32894
3.83142
3.41844
3.08859
2.82941
2.62447
2.4587
2.31856
2.19052
2.06759
1.93839
1.79515
1.62883
1.43366
1.20008
0.923656
0.599257
0.221223
4.40425
3.84064
3.40122
3.07977
2.85463
2.69955
2.58941
2.50545
2.43245
2.35627
2.2708
2.16473
2.03113
1.86143
1.65086
1.38996
1.07501
0.700917
0.260949
3.92577
3.40453
3.05887
2.85415
2.74573
2.69632
2.67586
2.66509
2.64924
2.61473
2.55693
2.46497
2.33267
2.15187
1.91851
1.62285
1.2612
0.827474
0.311853
3.34129
2.92369
2.73503
2.68835
2.7183
2.7835
2.85446
2.9148
2.95215
2.95469
2.91959
2.83695
2.70138
2.50501
2.24416
1.90837
1.49277
0.988649
0.380013
2.36835
2.2381
2.3169
2.49138
2.69628
2.8979
3.07415
3.21441
3.31049
3.35372
3.34312
3.2709
3.13245
2.92053
2.63158
2.25404
1.78028
1.19651
0.475102
1.42745
1.70602
2.08721
2.48211
2.84943
3.17186
3.43904
3.64678
3.79168
3.86867
3.8777
3.81387
3.67254
3.44662
3.13124
2.71233
2.17552
1.49641
0.624868
0.527707
1.27948
1.97315
2.58304
3.10604
3.54358
3.89875
4.17296
4.36784
4.48263
4.51719
4.47076
4.33799
4.11156
3.78352
3.33508
2.73897
1.95075
0.879582
-0.149609
1.03938
2.00662
2.80391
3.4663
4.00958
4.44946
4.79108
5.04126
5.20438
5.27935
5.27126
5.17343
4.97814
4.67187
4.22771
3.5955
2.69409
1.36032
-0.474559
1.00516
2.17179
3.11873
3.90229
4.54337
5.06772
5.48259
5.80047
6.03258
6.17697
6.24719
6.23607
6.13667
5.92786
5.57094
4.97852
4.00557
2.36503
-0.417613
1.15242
2.4327
3.49067
4.37801
5.11054
5.7211
6.21883
6.62331
6.95591
7.21627
7.43107
7.59799
7.71719
7.76239
7.685
7.34679
6.50265
4.66743
-0.0757663
1.41842
2.74315
3.88122
4.857
5.67457
6.37171
6.96211
7.47469
7.94806
8.38921
8.8468
9.34124
9.90111
10.5147
11.1558
11.6497
11.6368
10.3502
0.340407
1.70734
3.05279
4.25712
5.30898
6.20299
6.98057
7.6687
8.30546
8.96316
9.66425
10.4961
11.5596
12.998
14.9774
17.9085
22.4206
29.8707
43.0651
)
;

boundaryField
{
    up
    {
        type            calculated;
        value           nonuniform List<scalar> 
84
(
-43.0651
-10.3502
-4.66743
-2.36504
-1.36032
-0.879584
-0.624868
-0.4751
-0.380009
-0.311849
-0.260946
-0.221222
-0.187676
-0.159689
-0.13623
-0.11645
-0.0998551
-0.0860966
-0.0750103
-0.0659248
-0.0592918
-0.0571046
-0.0696422
-0.064003
-0.281438
-0.339594
-0.404285
-0.47374
-0.555861
-0.659293
-0.796351
-0.980921
-1.20302
-2.27964
-1.3647
-0.0695001
-0.132007
-0.0917043
-0.0727338
-0.0453403
-0.0320309
-0.0178885
0.0177952
0.0317787
0.0454029
0.0725355
0.0915331
0.13166
0.0708265
1.34308
2.29149
1.20464
0.982293
0.797362
0.660074
0.556498
0.474295
0.404815
0.340059
0.282824
0.06389
0.0696371
0.057103
0.0592905
0.0659237
0.0750093
0.0860954
0.0998538
0.116449
0.136228
0.159688
0.187677
0.221223
0.260949
0.311853
0.380013
0.475102
0.624868
0.879582
1.36032
2.36503
4.66743
10.3502
43.0651
)
;
    }
    low
    {
        type            calculated;
        value           nonuniform List<scalar> 
84
(
-0.306649
0.126949
0.500218
0.564303
0.206007
-0.538119
-1.51321
-2.51237
-3.50783
-4.06267
-4.52451
-4.99179
-5.07777
-5.08795
-5.07124
-4.93076
-4.6744
-4.39287
-4.14592
-3.69953
-3.21869
-2.72509
-2.1795
-1.57338
-1.03721
-0.347241
0.331104
1.02223
1.67012
2.36703
2.91071
3.41229
3.88118
4.19556
4.38874
4.53876
4.32036
3.79724
3.1522
2.37201
1.49376
0.57429
-0.574022
-1.4935
-2.37174
-3.15198
-3.79707
-4.32031
-4.5387
-4.38939
-4.19524
-3.88139
-3.41243
-2.91087
-2.36719
-1.67027
-1.0224
-0.331246
0.346922
1.03743
1.57315
2.17961
2.72512
3.21871
3.69954
4.14594
4.39289
4.6744
4.93077
5.07124
5.08796
5.07779
4.99178
4.52453
4.0627
3.50786
2.51239
1.51324
0.538135
-0.205999
-0.564304
-0.500226
-0.126954
0.30665
)
;
    }
    left
    {
        type            calculated;
        value           nonuniform List<scalar> 
19
(
-0.302433
-1.63999
-3.01338
-4.25986
-5.35736
-6.29327
-7.11203
-7.8451
-8.53031
-9.2578
-10.0495
-11.0032
-12.2498
-13.9799
-16.4016
-20.0917
-25.9232
-35.7917
-37.3508
)
;
    }
    right
    {
        type            calculated;
        value           nonuniform List<scalar> 
19
(
0.302436
1.64
3.01338
4.25986
5.35736
6.29327
7.11203
7.8451
8.53031
9.2578
10.0495
11.0032
12.2498
13.9799
16.4016
20.0917
25.9231
35.7917
37.3508
)
;
    }
    frontAndBackPlanes
    {
        type            empty;
    }
}


// ************************************************************************* //
