/*--------------------------------*- C++ -*----------------------------------*\
  =========                 |
  \\      /  F ield         | OpenFOAM: The Open Source CFD Toolbox
   \\    /   O peration     | Website:  https://openfoam.org
    \\  /    A nd           | Version:  7
     \\/     M anipulation  |
\*---------------------------------------------------------------------------*/
FoamFile
{
    version     2.0;
    format      ascii;
    class       volScalarField;
    location    "0.2";
    object      gradTx;
}
// * * * * * * * * * * * * * * * * * * * * * * * * * * * * * * * * * * * * * //

dimensions      [0 -1 0 1 0 0 0];

internalField   nonuniform List<scalar> 
1596
(
-0.243146
-1.21953
-2.18056
-3.0408
-3.79213
-4.43071
-4.98612
-5.47764
-5.93247
-6.40225
-6.90304
-7.49723
-8.2569
-9.2843
-10.6982
-12.7918
-16.0147
-21.3362
-30.7608
0.0541186
-1.01315
-1.95939
-2.7723
-3.46929
-4.05327
-4.55122
-4.97293
-5.33906
-5.67718
-5.99229
-6.31914
-6.67231
-7.07222
-7.51052
-7.96841
-8.32125
-8.31198
-7.393
0.298293
-0.823157
-1.73765
-2.49333
-3.12715
-3.65039
-4.0865
-4.44202
-4.73093
-4.9685
-5.15447
-5.3079
-5.42713
-5.51227
-5.54456
-5.48929
-5.24772
-4.64476
-3.33388
0.338971
-0.717967
-1.55127
-2.22766
-2.78735
-3.24526
-3.6198
-3.91613
-4.14319
-4.30898
-4.41211
-4.46227
-4.45433
-4.38333
-4.23418
-3.97924
-3.55609
-2.86113
-1.68931
0.106869
-0.742407
-1.43329
-2.00279
-2.47592
-2.86398
-3.17818
-3.4222
-3.6009
-3.71741
-3.77096
-3.76518
-3.69529
-3.5558
-3.33704
-3.01979
-2.56821
-1.92435
-0.971659
-0.376923
-0.913906
-1.40938
-1.84502
-2.2186
-2.53112
-2.78482
-2.98068
-3.11989
-3.20188
-3.22656
-3.1934
-3.09855
-2.93682
-2.7025
-2.38218
-1.9564
-1.39339
-0.628274
-1.01959
-1.21858
-1.49086
-1.77293
-2.03531
-2.26561
-2.45646
-2.60485
-2.70835
-2.76334
-2.76979
-2.72419
-2.62324
-2.46186
-2.23659
-1.93736
-1.55393
-1.06886
-0.446334
-1.69166
-1.59863
-1.65493
-1.77955
-1.92591
-2.06993
-2.19583
-2.29601
-2.36464
-2.39552
-2.38795
-2.33636
-2.23747
-2.08609
-1.87969
-1.61002
-1.27162
-0.854646
-0.339357
-2.38661
-2.08834
-1.95359
-1.92025
-1.94165
-1.98821
-2.0389
-2.08201
-2.10868
-2.1105
-2.08543
-2.0264
-1.92956
-1.78929
-1.60297
-1.36311
-1.06625
-0.706171
-0.271435
-2.80409
-2.43179
-2.1849
-2.03867
-1.96124
-1.92594
-1.91133
-1.90364
-1.89232
-1.86768
-1.82639
-1.7607
-1.6662
-1.53706
-1.37036
-1.15918
-0.900854
-0.591048
-0.222749
-3.14587
-2.7433
-2.42943
-2.19983
-2.03903
-1.92825
-1.84958
-1.78961
-1.73748
-1.68306
-1.62201
-1.54625
-1.45082
-1.32961
-1.17919
-0.99283
-0.767863
-0.500653
-0.18639
-3.49634
-3.0921
-2.73674
-2.44175
-2.20615
-2.02102
-1.87463
-1.75623
-1.65613
-1.56467
-1.47687
-1.38458
-1.28226
-1.16346
-1.02405
-0.857207
-0.65976
-0.428042
-0.158015
-3.59723
-3.24717
-2.90068
-2.58519
-2.31188
-2.08124
-1.88836
-1.72657
-1.58871
-1.46664
-1.35569
-1.24829
-1.13885
-1.02096
-0.890133
-0.739672
-0.566019
-0.365403
-0.134055
-3.6287
-3.33733
-3.01914
-2.70444
-2.41207
-2.15054
-1.9215
-1.72305
-1.55128
-1.40029
-1.26636
-1.14285
-1.02441
-0.904822
-0.779388
-0.64153
-0.487297
-0.312725
-0.114063
-3.63196
-3.39354
-3.10988
-2.80796
-2.50925
-2.22782
-1.97097
-1.74159
-1.53942
-1.36119
-1.20465
-1.06435
-0.935409
-0.811926
-0.68909
-0.560441
-0.421676
-0.268592
-0.0973069
-3.55401
-3.37263
-3.13096
-2.85429
-2.56411
-2.27753
-2.00587
-1.75619
-1.53177
-1.33218
-1.15699
-1.00221
-0.863685
-0.736037
-0.614534
-0.492925
-0.366687
-0.231448
-0.0831789
-3.39013
-3.26344
-3.0682
-2.82629
-2.55761
-2.28017
-2.00757
-1.74996
-1.51365
-1.30089
-1.11322
-0.94827
-0.802846
-0.672276
-0.552104
-0.436402
-0.320598
-0.200274
-0.0713251
-3.19411
-3.10277
-2.94869
-2.74336
-2.50244
-2.24283
-1.97895
-1.72285
-1.48317
-1.26444
-1.07007
-0.89927
-0.749911
-0.618099
-0.499761
-0.389344
-0.282347
-0.174421
-0.0614976
-3.0299
-2.96684
-2.84409
-2.66815
-2.45068
-2.20695
-1.95159
-1.69791
-1.45638
-1.23346
-1.03411
-0.858954
-0.706742
-0.574232
-0.457632
-0.351634
-0.251749
-0.153711
-0.0535788
-2.73362
-2.70858
-2.62306
-2.48443
-2.30164
-2.08751
-1.85555
-1.61911
-1.38954
-1.1746
-0.980514
-0.809192
-0.66037
-0.531606
-0.419564
-0.319284
-0.226379
-0.136802
-0.0470892
-2.40127
-2.40624
-2.35441
-2.25145
-2.10421
-1.92311
-1.7201
-1.50776
-1.29756
-1.09789
-0.91572
-0.753963
-0.613171
-0.491676
-0.386624
-0.293363
-0.207423
-0.124707
-0.0423513
-2.05106
-2.07512
-2.05106
-1.98059
-1.86802
-1.72138
-1.55078
-1.36756
-1.18266
-1.00453
-0.840332
-0.693556
-0.565335
-0.454711
-0.359391
-0.275079
-0.19698
-0.120064
-0.040789
-1.65912
-1.69221
-1.69058
-1.65112
-1.57484
-1.46677
-1.33474
-1.18817
-1.03688
-0.888712
-0.750376
-0.625568
-0.515686
-0.420462
-0.338422
-0.266081
-0.198585
-0.129237
-0.0497444
-1.21367
-1.19626
-1.15328
-1.08548
-0.997576
-0.896242
-0.78914
-0.68318
-0.584278
-0.495997
-0.419869
-0.355599
-0.301453
-0.255422
-0.215533
-0.179415
-0.143691
-0.102483
-0.0457164
-0.811106
-0.898967
-0.989373
-1.06468
-1.11305
-1.12785
-1.10866
-1.05931
-0.987304
-0.901007
-0.807825
-0.714247
-0.623947
-0.540233
-0.465358
-0.400587
-0.344491
-0.292908
-0.236049
-0.273389
-0.312039
-0.361334
-0.411519
-0.455299
-0.487596
-0.506648
-0.512544
-0.507809
-0.495453
-0.477208
-0.455118
-0.428676
-0.398458
-0.365677
-0.333653
-0.304426
-0.280295
-0.260884
0.265384
0.218015
0.149498
0.0688314
-0.0153241
-0.0957515
-0.167829
-0.229102
-0.279662
-0.320759
-0.352706
-0.376092
-0.388964
-0.390299
-0.380336
-0.363133
-0.342649
-0.323671
-0.307758
0.801891
0.737133
0.642705
0.528605
0.404592
0.2793
0.159164
0.0481237
-0.052465
-0.142886
-0.222814
-0.291806
-0.346512
-0.38354
-0.400662
-0.401076
-0.389977
-0.374914
-0.359869
1.28477
1.19182
1.06572
0.918094
0.759032
0.597459
0.440143
0.291153
0.152031
0.0224247
-0.0976057
-0.207512
-0.303126
-0.378501
-0.427362
-0.44966
-0.449868
-0.438254
-0.422406
1.78224
1.65395
1.49181
1.30786
1.11256
0.915129
0.722414
0.538292
0.36409
0.198922
0.0419692
-0.107248
-0.245141
-0.364305
-0.453839
-0.507786
-0.526081
-0.519949
-0.501969
2.15362
1.98515
1.78823
1.57446
1.354
1.13507
0.923183
0.720832
0.528278
0.343506
0.164358
-0.01161
-0.183096
-0.343696
-0.479372
-0.576766
-0.625414
-0.631206
-0.609531
2.49753
2.29505
2.06446
1.82186
1.57795
1.33993
1.11196
0.89527
0.689229
0.490932
0.297124
0.103118
-0.0935298
-0.290976
-0.47692
-0.634132
-0.738086
-0.778445
-0.763741
2.81178
2.56481
2.29831
2.02858
1.76502
1.51287
1.27454
1.04985
0.83745
0.633932
0.435677
0.236726
0.0311726
-0.185873
-0.410155
-0.631299
-0.818057
-0.937806
-0.958272
3.00964
2.69554
2.37511
2.06264
1.76501
1.48513
1.2236
0.979119
0.749792
0.532164
0.322583
0.115111
-0.0976543
-0.325769
-0.576079
-0.855532
-1.15049
-1.43384
-1.65433
3.12647
2.78493
2.46169
2.1653
1.89616
1.6521
1.42987
1.22599
1.03744
0.861224
0.695129
0.536432
0.381926
0.226572
0.0633927
-0.121989
-0.343253
-0.615959
-0.945474
3.20873
2.85755
2.54619
2.27072
2.02481
1.80306
1.60062
1.41377
1.23982
1.07649
0.922669
0.777608
0.640657
0.511759
0.391523
0.279126
0.17302
0.0676024
-0.0479432
3.02666
2.62652
2.28672
1.99382
1.73772
1.51125
1.30858
1.1253
0.958157
0.804259
0.661929
0.529974
0.407318
0.293724
0.190053
0.0973013
0.0174878
-0.0468541
-0.0945691
2.64891
2.28692
1.98407
1.72624
1.50327
1.30786
1.1343
0.978269
0.836674
0.706901
0.58744
0.477258
0.37537
0.281362
0.195417
0.117481
0.0477671
-0.0132285
-0.0657138
2.19504
1.89274
1.63892
1.42334
1.23781
1.07606
0.933122
0.80521
0.689623
0.584082
0.487234
0.398111
0.315731
0.239535
0.169423
0.105106
0.0465746
-0.00577914
-0.0520722
1.64932
1.417
1.22378
1.06111
0.922167
0.801738
0.695813
0.60135
0.516217
0.438624
0.367497
0.302051
0.241481
0.185303
0.133402
0.085548
0.0417672
0.00244406
-0.0324295
1.03719
0.88237
0.757626
0.654639
0.567721
0.492949
0.427505
0.36933
0.317013
0.269386
0.22574
0.185555
0.148289
0.11361
0.081422
0.0515718
0.024083
-0.000757852
-0.0228943
0.397755
0.335029
0.286331
0.246686
0.213358
0.184696
0.159608
0.137327
0.11733
0.0991846
0.0826121
0.0673976
0.0533146
0.0402059
0.027995
0.0165862
0.00594854
-0.00384338
-0.0127767
-0.397564
-0.334603
-0.285743
-0.245991
-0.212596
-0.183899
-0.158802
-0.136532
-0.116565
-0.0984642
-0.0819493
-0.0668033
-0.0527987
-0.0397768
-0.027659
-0.0163486
-0.00581275
0.00387708
0.0127101
-1.03701
-0.881991
-0.757109
-0.65403
-0.567058
-0.49226
-0.426813
-0.368654
-0.31637
-0.268791
-0.225204
-0.185088
-0.147901
-0.113308
-0.0812124
-0.0514589
-0.0240694
0.000672823
0.0227138
-1.64914
-1.41664
-1.22327
-1.06051
-0.921498
-0.801032
-0.695094
-0.600637
-0.515528
-0.437973
-0.366895
-0.301509
-0.241005
-0.1849
-0.133073
-0.085295
-0.0415884
-0.0023353
0.0324738
-2.19491
-1.89248
-1.63857
-1.42292
-1.23735
-1.07557
-0.932632
-0.804733
-0.689173
-0.583672
-0.486874
-0.397809
-0.315492
-0.239363
-0.16932
-0.105071
-0.046604
0.00569018
0.0519296
-2.64882
-2.28674
-1.98383
-1.72594
-1.50293
-1.3075
-1.13393
-0.977908
-0.836335
-0.706596
-0.587179
-0.477049
-0.375219
-0.281272
-0.195387
-0.117507
-0.0478403
0.0131216
0.0655904
-3.02666
-2.62647
-2.28661
-1.99367
-1.73753
-1.51104
-1.30837
-1.12511
-0.957995
-0.804139
-0.661863
-0.529972
-0.407388
-0.293874
-0.190282
-0.0975993
-0.017824
0.0465316
0.0943206
-3.20872
-2.85727
-2.54557
-2.26973
-2.02345
-1.80137
-1.59865
-1.41156
-1.23742
-1.07395
-0.920009
-0.774863
-0.637844
-0.508888
-0.388614
-0.276249
-0.170342
-0.0654821
0.0489156
-3.12702
-2.78641
-2.46412
-2.16865
-1.90036
-1.65707
-1.43551
-1.23221
-1.04415
-0.868355
-0.702645
-0.544335
-0.390274
-0.235508
-0.0731439
0.111087
0.330889
0.602032
0.930394
-3.0094
-2.6949
-2.37402
-2.06109
-1.76306
-1.48281
-1.22097
-0.976252
-0.746749
-0.529009
-0.319371
-0.111896
0.10082
0.32885
0.579104
0.858667
1.15416
1.43879
1.66151
-2.81197
-2.56526
-2.29898
-2.02944
-1.76601
-1.51396
-1.2757
-1.05106
-0.838687
-0.635188
-0.436951
-0.238022
-0.0324817
0.184598
0.409035
0.630559
0.81796
0.938509
0.959551
-2.49765
-2.29534
-2.06488
-1.8224
-1.57858
-1.34062
-1.1127
-0.89604
-0.690018
-0.491732
-0.297926
-0.103905
0.0927973
0.29038
0.476589
0.634208
0.738636
0.779384
0.764873
-2.15374
-1.98544
-1.78866
-1.57502
-1.35465
-1.13579
-0.923945
-0.721612
-0.529057
-0.344266
-0.165079
0.0109597
0.182568
0.343365
0.479318
0.577038
0.625978
0.631947
0.610318
-1.78236
-1.65423
-1.49225
-1.30844
-1.11324
-0.91588
-0.723201
-0.539083
-0.364858
-0.199642
-0.0426141
0.106713
0.244762
0.364133
0.453907
0.508086
0.526554
0.520512
0.502561
-1.28488
-1.19209
-1.06614
-0.918652
-0.75969
-0.598179
-0.440888
-0.291888
-0.152724
-0.0230487
0.0970788
0.207113
0.302887
0.378446
0.427494
0.44995
0.450263
0.438703
0.422881
-0.802005
-0.737419
-0.643154
-0.52919
-0.405276
-0.28004
-0.159915
-0.0488461
0.0518061
0.14232
0.222364
0.291496
0.346357
0.383546
0.400813
0.40134
0.390314
0.375294
0.360276
-0.265483
-0.218288
-0.149935
-0.0694036
0.0146595
0.0950429
0.167125
0.228446
0.279086
0.320291
0.352362
0.375884
0.388896
0.390362
0.380508
0.363387
0.342958
0.324018
0.308139
0.273156
0.311336
0.360148
0.409898
0.453343
0.485434
0.504417
0.510372
0.505797
0.493676
0.475705
0.453909
0.427751
0.397789
0.36522
0.333369
0.304287
0.280308
0.261116
0.811265
0.899578
0.990533
1.06641
1.1153
1.1305
1.11159
1.06235
0.990325
0.903897
0.810503
0.71667
0.626099
0.542125
0.467018
0.402056
0.34581
0.294111
0.237147
1.21349
1.19564
1.1522
1.08401
0.995812
0.894306
0.787155
0.681253
0.582491
0.494405
0.418496
0.354452
0.300522
0.254685
0.214964
0.178988
0.143386
0.102287
0.0456357
1.65922
1.6924
1.69088
1.6515
1.57525
1.4672
1.33514
1.18852
1.03717
0.888939
0.750539
0.625676
0.51575
0.420494
0.338434
0.26608
0.198576
0.129227
0.0497408
2.05108
2.07514
2.05109
1.98062
1.86805
1.72141
1.5508
1.36756
1.18266
1.00452
0.840311
0.693531
0.565308
0.454685
0.359368
0.27506
0.196966
0.120056
0.0407879
2.40129
2.40626
2.35444
2.25147
2.10423
1.92313
1.72011
1.50776
1.29755
1.09787
0.9157
0.753941
0.61315
0.491657
0.386608
0.293351
0.207415
0.124703
0.0423504
2.73363
2.7086
2.62307
2.48444
2.30166
2.08752
1.85555
1.6191
1.38953
1.17459
0.980496
0.809174
0.660353
0.531592
0.419553
0.319276
0.226374
0.136799
0.0470884
3.02991
2.96686
2.84411
2.66816
2.4507
2.20696
1.95159
1.69791
1.45637
1.23345
1.0341
0.85894
0.706729
0.574222
0.457624
0.351628
0.251745
0.153708
0.0535781
3.19412
3.10278
2.9487
2.74338
2.50245
2.24283
1.97895
1.72285
1.48316
1.26443
1.07005
0.899258
0.7499
0.618091
0.499753
0.389339
0.282343
0.174418
0.0614967
3.39014
3.26345
3.06821
2.8263
2.55762
2.28017
2.00757
1.74995
1.51364
1.30088
1.11321
0.94826
0.802836
0.672268
0.552097
0.436396
0.320593
0.200271
0.0713242
3.55401
3.37264
3.13098
2.8543
2.56411
2.27753
2.00587
1.75619
1.53177
1.33217
1.15698
1.0022
0.863676
0.736029
0.614526
0.492918
0.366681
0.231444
0.0831779
3.63196
3.39355
3.10989
2.80797
2.50925
2.22782
1.97096
1.74159
1.53941
1.36118
1.20464
1.06434
0.935398
0.811916
0.68908
0.560432
0.421669
0.268587
0.097306
3.62871
3.33734
3.01915
2.70445
2.41208
2.15053
1.92149
1.72304
1.55128
1.40028
1.26635
1.14284
1.0244
0.904811
0.779377
0.64152
0.48729
0.312721
0.114063
3.59724
3.24718
2.90069
2.5852
2.31189
2.08124
1.88836
1.72657
1.58871
1.46663
1.35568
1.24828
1.13884
1.02095
0.890122
0.739662
0.566013
0.3654
0.134055
3.49633
3.0921
2.73673
2.44175
2.20614
2.02101
1.87462
1.75621
1.65612
1.56466
1.47685
1.38456
1.28225
1.16345
1.02404
0.857197
0.659754
0.42804
0.158016
3.14589
2.74331
2.42945
2.19984
2.03902
1.92825
1.84958
1.7896
1.73747
1.68305
1.622
1.54624
1.4508
1.32959
1.17918
0.992825
0.767862
0.500655
0.186392
2.80412
2.43181
2.18491
2.03868
1.96123
1.92594
1.91133
1.90363
1.89231
1.86767
1.82638
1.76069
1.66619
1.53705
1.37036
1.15918
0.900857
0.591053
0.222752
2.38663
2.08835
1.95359
1.92025
1.94164
1.98821
2.0389
2.082
2.10868
2.1105
2.08542
2.02639
1.92956
1.78929
1.60297
1.36312
1.06626
0.706178
0.271438
1.69168
1.59864
1.65493
1.77955
1.92591
2.06993
2.19582
2.29601
2.36464
2.39551
2.38794
2.33635
2.23747
2.0861
1.8797
1.61003
1.27163
0.854653
0.339359
1.01961
1.21858
1.49086
1.77294
2.03531
2.26562
2.45646
2.60484
2.70834
2.76334
2.76979
2.72419
2.62325
2.46187
2.2366
1.93738
1.55395
1.06887
0.446334
0.376933
0.913914
1.40939
1.84503
2.2186
2.53113
2.78482
2.98068
3.11989
3.20188
3.22656
3.1934
3.09856
2.93683
2.70252
2.3822
1.95641
1.39339
0.628273
-0.106863
0.742415
1.4333
2.00279
2.47593
2.86398
3.17818
3.4222
3.6009
3.71742
3.77097
3.76519
3.6953
3.55581
3.33705
3.0198
2.56821
1.92435
0.971656
-0.33897
0.717973
1.55128
2.22766
2.78735
3.24526
3.6198
3.91613
4.1432
4.30898
4.41212
4.46228
4.45434
4.38334
4.23419
3.97924
3.55609
2.86112
1.68931
-0.298295
0.823159
1.73765
2.49333
3.12715
3.65039
4.0865
4.44202
4.73094
4.96851
5.15448
5.3079
5.42714
5.51228
5.54456
5.48929
5.24771
4.64475
3.33388
-0.0541188
1.01315
1.95939
2.7723
3.46929
4.05326
4.55122
4.97294
5.33906
5.67718
5.99229
6.31914
6.67231
7.07222
7.51051
7.9684
8.32123
8.31198
7.393
0.243148
1.21953
2.18056
3.0408
3.79213
4.43071
4.98612
5.47764
5.93247
6.40226
6.90304
7.49722
8.25689
9.28429
10.6982
12.7918
16.0147
21.3362
30.7608
)
;

boundaryField
{
    up
    {
        type            calculated;
        value           nonuniform List<scalar> 
84
(
-30.7608
-7.393
-3.33388
-1.68931
-0.971659
-0.628274
-0.446334
-0.339357
-0.271435
-0.222749
-0.18639
-0.158015
-0.134055
-0.114063
-0.0973069
-0.0831789
-0.0713251
-0.0614976
-0.0535788
-0.0470892
-0.0423513
-0.040789
-0.0497444
-0.0457164
-0.201027
-0.242567
-0.288775
-0.338386
-0.397044
-0.470924
-0.568822
-0.700658
-0.859302
-1.62832
-0.974783
-0.0496429
-0.094291
-0.065503
-0.0519527
-0.0323859
-0.0228792
-0.0127775
0.0127109
0.0226991
0.0324307
0.0518111
0.0653808
0.0940432
0.0505903
0.959343
1.63678
0.860455
0.701638
0.569544
0.471481
0.397499
0.338782
0.289154
0.242899
0.202017
0.0456357
0.0497408
0.0407879
0.0423504
0.0470884
0.0535781
0.0614967
0.0713242
0.0831779
0.097306
0.114063
0.134055
0.158016
0.186392
0.222752
0.271438
0.339359
0.446334
0.628273
0.971656
1.68931
3.33388
7.393
30.7608
)
;
    }
    low
    {
        type            calculated;
        value           nonuniform List<scalar> 
84
(
-0.219035
0.0906776
0.357299
0.403073
0.147148
-0.384371
-1.08087
-1.79455
-2.50559
-2.9019
-3.23179
-3.56557
-3.62698
-3.63425
-3.62232
-3.52197
-3.33885
-3.13777
-2.96137
-2.64252
-2.29907
-1.94649
-1.55678
-1.12385
-0.740862
-0.248029
0.236503
0.730166
1.19294
1.69073
2.07908
2.43735
2.77227
2.99683
3.13481
3.24197
3.08597
2.71231
2.25157
1.69429
1.06697
0.410207
-0.410016
-1.06679
-1.6941
-2.25141
-2.7122
-3.08593
-3.24193
-3.13528
-2.9966
-2.77242
-2.43745
-2.07919
-1.69085
-1.19305
-0.730286
-0.236604
0.247802
0.741019
1.12368
1.55687
1.94651
2.29908
2.64253
2.96138
3.13778
3.33886
3.52198
3.62232
3.63426
3.62699
3.56555
3.23181
2.90193
2.50562
1.79457
1.08088
0.384382
-0.147142
-0.403075
-0.357305
-0.0906813
0.219036
)
;
    }
    left
    {
        type            calculated;
        value           nonuniform List<scalar> 
19
(
-0.216023
-1.17142
-2.15241
-3.04276
-3.82669
-4.49519
-5.08002
-5.60364
-6.09308
-6.61271
-7.17823
-7.85943
-8.74987
-9.98563
-11.7155
-14.3512
-18.5165
-25.5655
-26.6791
)
;
    }
    right
    {
        type            calculated;
        value           nonuniform List<scalar> 
19
(
0.216026
1.17143
2.15241
3.04276
3.82669
4.49519
5.08002
5.60364
6.09308
6.61271
7.17823
7.85942
8.74986
9.98561
11.7154
14.3512
18.5165
25.5655
26.6791
)
;
    }
    frontAndBackPlanes
    {
        type            empty;
    }
}


// ************************************************************************* //
