/*--------------------------------*- C++ -*----------------------------------*\
  =========                 |
  \\      /  F ield         | OpenFOAM: The Open Source CFD Toolbox
   \\    /   O peration     | Website:  https://openfoam.org
    \\  /    A nd           | Version:  7
     \\/     M anipulation  |
\*---------------------------------------------------------------------------*/
FoamFile
{
    version     2.0;
    format      ascii;
    class       volScalarField;
    location    "0.34";
    object      gradTx;
}
// * * * * * * * * * * * * * * * * * * * * * * * * * * * * * * * * * * * * * //

dimensions      [0 -1 0 1 0 0 0];

internalField   nonuniform List<scalar> 
1596
(
-0.143803
-0.723399
-1.30211
-1.83579
-2.32506
-2.77141
-3.19511
-3.60889
-4.02903
-4.4876
-4.99165
-5.57959
-6.29864
-7.22114
-8.43533
-10.1711
-12.7878
-17.064
-24.6092
0.0316752
-0.602348
-1.17032
-1.67038
-2.11717
-2.51515
-2.88228
-3.22471
-3.5543
-3.88691
-4.22198
-4.57891
-4.96233
-5.38075
-5.82085
-6.26155
-6.59975
-6.6286
-5.91183
0.175421
-0.493628
-1.04258
-1.50484
-1.90581
-2.25421
-2.56534
-2.84306
-3.09504
-3.32925
-3.5423
-3.74338
-3.92636
-4.08535
-4.19957
-4.23523
-4.1087
-3.67617
-2.65917
0.197953
-0.437797
-0.940417
-1.35394
-1.70512
-2.00438
-2.26363
-2.48588
-2.67589
-2.83735
-2.96705
-3.06871
-3.13508
-3.15795
-3.12065
-2.99585
-2.72878
-2.23174
-1.33749
0.0571219
-0.460823
-0.882337
-1.23297
-1.52978
-1.7807
-1.99308
-2.16912
-2.31136
-2.42093
-2.49591
-2.53693
-2.53838
-2.49318
-2.39025
-2.2102
-1.92001
-1.46834
-0.757841
-0.2357
-0.571971
-0.881441
-1.15493
-1.39232
-1.59495
-1.76451
-1.90169
-2.007
-2.07973
-2.11916
-2.1241
-2.09076
-2.01371
-1.8863
-1.69515
-1.42114
-1.03443
-0.478858
-0.625609
-0.761849
-0.942113
-1.12772
-1.30086
-1.45421
-1.58329
-1.68632
-1.76176
-1.80734
-1.82293
-1.80616
-1.75461
-1.66417
-1.53112
-1.34617
-1.09857
-0.770894
-0.330653
-1.03427
-0.994896
-1.04874
-1.14411
-1.25134
-1.35514
-1.44543
-1.51743
-1.56746
-1.59185
-1.59043
-1.56004
-1.49903
-1.40422
-1.27367
-1.10081
-0.879852
-0.600559
-0.244092
-1.4568
-1.29202
-1.23305
-1.23773
-1.2748
-1.32444
-1.3726
-1.41153
-1.43548
-1.43939
-1.42239
-1.38076
-1.31301
-1.21647
-1.09008
-0.929081
-0.730392
-0.487951
-0.190608
-1.70871
-1.49678
-1.37054
-1.30986
-1.29137
-1.29601
-1.30867
-1.31975
-1.32209
-1.30964
-1.28075
-1.23138
-1.16004
-1.06441
-0.943951
-0.795209
-0.616753
-0.405148
-0.153815
-1.91175
-1.67942
-1.51267
-1.40382
-1.33891
-1.3028
-1.2817
-1.26553
-1.24643
-1.21776
-1.17702
-1.12001
-1.04501
-0.949881
-0.834241
-0.695497
-0.533115
-0.345262
-0.128178
-2.11625
-1.88181
-1.69013
-1.5439
-1.4378
-1.362
-1.30574
-1.25975
-1.21631
-1.16858
-1.11342
-1.04643
-0.965579
-0.868695
-0.755331
-0.623367
-0.472671
-0.302302
-0.110112
-2.16505
-1.96225
-1.77528
-1.61742
-1.49107
-1.39178
-1.31244
-1.24557
-1.18437
-1.12241
-1.05635
-0.981912
-0.896937
-0.799317
-0.688594
-0.563049
-0.422802
-0.267494
-0.095947
-2.16912
-2.00111
-1.83076
-1.67393
-1.53816
-1.42377
-1.3273
-1.24359
-1.1672
-1.09253
-1.01639
-0.934761
-0.845453
-0.746447
-0.637254
-0.516444
-0.384262
-0.240702
-0.0852024
-2.15411
-2.01781
-1.86812
-1.7196
-1.58188
-1.45872
-1.34985
-1.25256
-1.16308
-1.07689
-0.991253
-0.902495
-0.808517
-0.707392
-0.598616
-0.480966
-0.354752
-0.22017
-0.0770151
-2.08962
-1.98703
-1.86218
-1.72907
-1.59783
-1.47417
-1.36019
-1.2553
-1.15744
-1.06329
-0.970751
-0.876671
-0.779126
-0.676347
-0.567871
-0.452695
-0.331225
-0.203839
-0.0705523
-1.97509
-1.90406
-1.80602
-1.69334
-1.57558
-1.45922
-1.34773
-1.24211
-1.14174
-1.04444
-0.94885
-0.852384
-0.753371
-0.65024
-0.542609
-0.429724
-0.312187
-0.190644
-0.0653674
-1.84399
-1.7929
-1.71821
-1.62655
-1.52538
-1.42082
-1.31688
-1.21558
-1.11734
-1.02098
-0.925787
-0.829715
-0.731345
-0.629258
-0.523101
-0.412314
-0.297756
-0.180516
-0.0613275
-1.73412
-1.6994
-1.64297
-1.56872
-1.48205
-1.3883
-1.2917
-1.19494
-1.09935
-1.00456
-0.910459
-0.815462
-0.718313
-0.617604
-0.512802
-0.403284
-0.290015
-0.174632
-0.0586989
-1.55165
-1.53778
-1.50168
-1.44806
-1.38106
-1.30493
-1.22342
-1.13927
-1.05417
-0.968241
-0.881754
-0.793487
-0.702334
-0.606879
-0.5063
-0.399635
-0.28764
-0.172478
-0.0572427
-1.35341
-1.35614
-1.33841
-1.30427
-1.25698
-1.19983
-1.13591
-1.0677
-0.996906
-0.923847
-0.848926
-0.771125
-0.689417
-0.602335
-0.508646
-0.406619
-0.295923
-0.178242
-0.0584056
-1.14958
-1.16346
-1.1613
-1.14512
-1.11701
-1.07935
-1.03452
-0.984597
-0.931099
-0.87431
-0.814506
-0.75069
-0.681816
-0.606436
-0.523021
-0.428924
-0.321647
-0.199714
-0.0662656
-0.926347
-0.94636
-0.957131
-0.958105
-0.94981
-0.933449
-0.910599
-0.882713
-0.850954
-0.81531
-0.775574
-0.730536
-0.678937
-0.61948
-0.550853
-0.47024
-0.373102
-0.252255
-0.0985482
-0.676673
-0.67
-0.65616
-0.635496
-0.610123
-0.582758
-0.556443
-0.533441
-0.515097
-0.5011
-0.489553
-0.477422
-0.461394
-0.438619
-0.406958
-0.364059
-0.305985
-0.223834
-0.100382
-0.453394
-0.510247
-0.578776
-0.651534
-0.723086
-0.789175
-0.847405
-0.896166
-0.9347
-0.962168
-0.976804
-0.977099
-0.96151
-0.930486
-0.885687
-0.829176
-0.760367
-0.673801
-0.553654
-0.155305
-0.186668
-0.229602
-0.279468
-0.332877
-0.387337
-0.441854
-0.495763
-0.54889
-0.60038
-0.64716
-0.685858
-0.711526
-0.721363
-0.71504
-0.696425
-0.669386
-0.638738
-0.606017
0.143849
0.103936
0.0482131
-0.0187014
-0.0926127
-0.170251
-0.249822
-0.330404
-0.411778
-0.493344
-0.57216
-0.644026
-0.702303
-0.741537
-0.75909
-0.758272
-0.744277
-0.723952
-0.700682
0.444364
0.390975
0.318068
0.231215
0.135374
0.0344743
-0.0691463
-0.174531
-0.281732
-0.390825
-0.499742
-0.604236
-0.696482
-0.767967
-0.812329
-0.830469
-0.82804
-0.814106
-0.794294
0.719259
0.646096
0.551921
0.443677
0.3268
0.205534
0.0822606
-0.0424093
-0.169214
-0.299385
-0.432454
-0.565337
-0.690204
-0.795936
-0.871192
-0.911935
-0.92202
-0.912686
-0.893349
1.00921
0.912759
0.795378
0.664629
0.526348
0.385077
0.243159
0.100857
-0.0432341
-0.191574
-0.345641
-0.504689
-0.662689
-0.807673
-0.923195
-0.997432
-1.02784
-1.02547
-1.00504
1.23513
1.11125
0.969658
0.818197
0.662892
0.508013
0.355284
0.204217
0.0525732
-0.103357
-0.267081
-0.441072
-0.62327
-0.804368
-0.965591
-1.08651
-1.15167
-1.16416
-1.141
1.45406
1.30582
1.14056
0.969196
0.798268
0.631625
0.470317
0.313234
0.157651
-0.000837726
-0.167086
-0.346609
-0.54263
-0.752664
-0.962019
-1.14702
-1.27608
-1.33143
-1.32
1.66553
1.48592
1.29517
1.10467
0.920272
0.744761
0.578241
0.418988
0.26412
0.109219
-0.0507134
-0.222606
-0.413948
-0.631004
-0.870613
-1.11968
-1.34151
-1.49232
-1.52749
1.81641
1.58911
1.35921
1.13681
0.925974
0.7278
0.541168
0.363772
0.192675
0.023897
-0.146879
-0.326024
-0.522014
-0.74662
-1.01002
-1.32179
-1.67033
-2.02456
-2.32349
1.92544
1.67374
1.43739
1.22313
1.03114
0.859731
0.705833
0.566439
0.43862
0.319575
0.207214
0.0988882
-0.00844675
-0.119992
-0.244157
-0.397817
-0.600131
-0.873908
-1.23243
2.01888
1.75498
1.52386
1.32357
1.14933
0.996931
0.861958
0.741036
0.631365
0.530558
0.43745
0.351068
0.271136
0.197967
0.132586
0.0748245
0.0233314
-0.0285622
-0.0938464
1.9433
1.64056
1.3863
1.17083
0.986048
0.826036
0.685577
0.560878
0.448999
0.347474
0.255164
0.171147
0.0951122
0.0273928
-0.0307156
-0.0778343
-0.11165
-0.129963
-0.131712
1.73245
1.45019
1.21823
1.0251
0.862093
0.722889
0.602321
0.496645
0.403099
0.319473
0.244658
0.177785
0.118335
0.0661158
0.021277
-0.0163675
-0.0469425
-0.0707908
-0.0885937
1.4593
1.21731
1.01933
0.855791
0.719013
0.60323
0.503849
0.417488
0.341706
0.274551
0.214915
0.161913
0.114821
0.0731333
0.0365705
0.00464077
-0.0230184
-0.0466787
-0.0667868
1.11104
0.921754
0.769002
0.644344
0.541197
0.454658
0.380974
0.317384
0.26193
0.213045
0.169776
0.131362
0.09712
0.0665531
0.0393601
0.01515
-0.00631612
-0.0251121
-0.0414495
0.705281
0.57869
0.479545
0.400189
0.335368
0.281454
0.235842
0.196662
0.162613
0.132666
0.106165
0.0825974
0.0614814
0.042464
0.0253264
0.00981945
-0.00419251
-0.0166924
-0.0277383
0.272402
0.222158
0.184101
0.154025
0.129523
0.109094
0.0917354
0.0767431
0.0636365
0.0520356
0.041691
0.0324055
0.0239913
0.0163049
0.00924795
0.00271347
-0.00336669
-0.00899514
-0.0141887
-0.272271
-0.221879
-0.18373
-0.153602
-0.129073
-0.108639
-0.0912883
-0.0763157
-0.0632372
-0.0516712
-0.0413668
-0.0321257
-0.0237593
-0.0161233
-0.00911882
-0.00263836
0.00338682
0.00896044
0.0141
-0.705162
-0.578449
-0.479228
-0.399831
-0.334992
-0.281079
-0.235482
-0.196326
-0.162311
-0.132403
-0.105947
-0.082428
-0.0613632
-0.0423991
-0.0253159
-0.00986388
0.00409329
0.0165399
0.027535
-1.11093
-0.92153
-0.768701
-0.643994
-0.54082
-0.454271
-0.38059
-0.317014
-0.261583
-0.212728
-0.169493
-0.131116
-0.0969141
-0.0663866
-0.0392315
-0.0150565
0.00637839
0.0251479
0.041464
-1.45922
-1.21717
-1.01915
-0.855579
-0.718788
-0.603005
-0.503636
-0.417296
-0.341545
-0.274426
-0.214832
-0.161875
-0.114828
-0.0731833
-0.0366603
-0.00476461
0.0228673
0.0465075
0.0666023
-1.73241
-1.45012
-1.21813
-1.02498
-0.861956
-0.72275
-0.60219
-0.496531
-0.403012
-0.319421
-0.244648
-0.17782
-0.118417
-0.0662441
-0.0214449
0.0161704
0.0467312
0.0705836
0.0884117
-1.94333
-1.64058
-1.3863
-1.17081
-0.986014
-0.826001
-0.685552
-0.560875
-0.449031
-0.347554
-0.255302
-0.171355
-0.0953997
-0.0277658
0.0302604
0.0773143
0.111109
0.129471
0.131354
-2.01891
-1.75486
-1.52353
-1.32299
-1.14849
-0.995836
-0.860613
-0.739452
-0.629556
-0.528536
-0.435228
-0.348653
-0.268534
-0.195181
-0.129638
-0.0717931
-0.0204202
0.0309167
0.0949157
-1.92582
-1.67474
-1.43904
-1.22544
-1.0341
-0.863326
-0.710054
-0.571277
-0.444074
-0.325655
-0.213952
-0.106348
0.000147109
0.110642
0.233437
0.385261
0.585263
0.856472
1.21275
-1.81629
-1.58876
-1.35856
-1.13584
-0.924679
-0.726184
-0.539247
-0.361568
-0.190217
-0.0212195
0.149734
0.329003
0.525049
0.74965
1.01305
1.32498
1.67416
2.02989
2.33147
-1.66567
-1.48624
-1.29564
-1.10526
-0.920969
-0.745536
-0.579081
-0.419886
-0.265077
-0.110242
0.0496056
0.221393
0.412619
0.629603
0.869277
1.11869
1.3412
1.4929
1.5287
-1.45415
-1.30602
-1.14086
-0.969571
-0.798699
-0.6321
-0.470829
-0.313781
-0.158237
0.00020461
0.166397
0.345869
0.541874
0.751987
0.961581
1.14701
1.2766
1.33239
1.32121
-1.23521
-1.11144
-0.969951
-0.818568
-0.663323
-0.50849
-0.355796
-0.204757
-0.0531398
0.102766
0.266475
0.440477
0.622747
0.804015
0.96552
1.0868
1.15229
1.16498
1.14189
-1.00929
-0.912947
-0.795663
-0.664997
-0.52678
-0.385557
-0.243672
-0.101393
0.0426855
0.191025
0.345112
0.50422
0.662342
0.807523
0.923299
0.997795
1.0284
1.02614
1.00576
-0.719327
-0.646265
-0.552183
-0.444017
-0.327203
-0.20598
-0.0827349
0.0419219
0.168728
0.29892
0.432036
0.565007
0.690013
0.79593
0.871389
0.912315
0.922528
0.91327
0.893982
-0.444434
-0.391145
-0.318333
-0.23156
-0.135783
-0.034926
0.0686711
0.174051
0.281268
0.3904
0.499386
0.603985
0.696373
0.768026
0.812555
0.830836
0.828508
0.814647
0.794895
-0.143907
-0.104092
-0.0484626
0.0183721
0.0922225
0.169821
0.249374
0.329961
0.411362
0.492982
0.571879
0.643857
0.70227
0.741651
0.759342
0.758643
0.744743
0.724498
0.70131
0.155175
0.186271
0.228916
0.278493
0.331636
0.385872
0.44022
0.494021
0.547107
0.598626
0.645497
0.684345
0.710204
0.720252
0.714142
0.695745
0.668945
0.638615
0.606393
0.453489
0.510609
0.579484
0.652639
0.724607
0.791099
0.849694
0.898765
0.937539
0.965176
0.979909
0.980239
0.96463
0.933549
0.88867
0.832069
0.763164
0.67649
0.556191
0.676582
0.669657
0.655549
0.634629
0.609032
0.581492
0.555058
0.531995
0.513647
0.499695
0.488233
0.476215
0.460319
0.437685
0.406165
0.363407
0.305473
0.223475
0.100219
0.926409
0.946483
0.957319
0.958352
0.950102
0.933771
0.910932
0.883039
0.851259
0.815582
0.775805
0.730724
0.679082
0.619585
0.550921
0.470275
0.373107
0.252239
0.098534
1.1496
1.16348
1.16133
1.14515
1.11705
1.07939
1.03457
0.984643
0.931141
0.874345
0.814533
0.750708
0.681825
0.606437
0.523014
0.42891
0.321629
0.199698
0.0662603
1.35343
1.35616
1.33844
1.30431
1.25701
1.19987
1.13595
1.06774
0.996936
0.923871
0.848943
0.771135
0.689419
0.602332
0.508638
0.406608
0.295912
0.178234
0.0584034
1.55166
1.5378
1.5017
1.44809
1.38109
1.30496
1.22345
1.1393
1.05419
0.968255
0.881763
0.79349
0.702333
0.606874
0.506292
0.399626
0.287633
0.172474
0.0572415
1.73414
1.69943
1.64299
1.56875
1.48207
1.38832
1.29172
1.19496
1.09936
1.00456
0.910464
0.815462
0.71831
0.617598
0.512796
0.403277
0.29001
0.17463
0.0586981
1.844
1.79292
1.71823
1.62657
1.5254
1.42084
1.3169
1.21559
1.11735
1.02098
0.925787
0.829712
0.73134
0.629252
0.523095
0.412309
0.297753
0.180514
0.0613269
1.9751
1.90407
1.80604
1.69335
1.5756
1.45923
1.34774
1.24212
1.14174
1.04444
0.948848
0.85238
0.753366
0.650234
0.542604
0.42972
0.312183
0.190643
0.065367
2.08963
1.98705
1.86219
1.72908
1.59784
1.47418
1.36019
1.25531
1.15745
1.06329
0.970748
0.876667
0.779121
0.676342
0.567867
0.452691
0.331223
0.203838
0.0705521
2.15411
2.01782
1.86813
1.71961
1.58189
1.45872
1.34985
1.25256
1.16308
1.07689
0.991248
0.90249
0.808512
0.707388
0.598612
0.480963
0.35475
0.220169
0.077015
2.16913
2.00112
1.83077
1.67394
1.53817
1.42378
1.3273
1.24358
1.1672
1.09252
1.01639
0.934756
0.845449
0.746444
0.637252
0.516442
0.384261
0.240702
0.0852026
2.16506
1.96226
1.77529
1.61743
1.49108
1.39179
1.31244
1.24558
1.18437
1.12241
1.05635
0.98191
0.896935
0.799316
0.688594
0.563049
0.422803
0.267495
0.0959475
2.11625
1.88181
1.69013
1.54389
1.4378
1.36199
1.30573
1.25975
1.21631
1.16858
1.11342
1.04642
0.965575
0.868693
0.75533
0.623366
0.472671
0.302302
0.110112
1.91177
1.67943
1.51268
1.40383
1.33892
1.3028
1.28171
1.26553
1.24643
1.21775
1.17702
1.12001
1.04501
0.949882
0.834242
0.695498
0.533117
0.345263
0.128179
1.70873
1.4968
1.37055
1.30987
1.29137
1.29601
1.30867
1.31975
1.32208
1.30964
1.28075
1.23138
1.16004
1.06441
0.943954
0.795212
0.616756
0.40515
0.153816
1.45681
1.29203
1.23306
1.23774
1.2748
1.32444
1.3726
1.41153
1.43548
1.43939
1.42239
1.38076
1.31301
1.21647
1.09009
0.929085
0.730396
0.487953
0.190609
1.03429
0.994904
1.04875
1.14411
1.25134
1.35514
1.44543
1.51742
1.56746
1.59185
1.59043
1.56004
1.49903
1.40422
1.27367
1.10082
0.879854
0.60056
0.244092
0.62562
0.761856
0.942117
1.12772
1.30086
1.45421
1.58329
1.68632
1.76176
1.80734
1.82293
1.80616
1.75462
1.66417
1.53112
1.34617
1.09857
0.770894
0.330653
0.235707
0.571976
0.881444
1.15494
1.39232
1.59495
1.76451
1.90168
2.007
2.07973
2.11916
2.1241
2.09076
2.01371
1.88631
1.69515
1.42114
1.03443
0.478857
-0.0571176
0.460827
0.88234
1.23297
1.52978
1.7807
1.99308
2.16911
2.31136
2.42093
2.49591
2.53693
2.53838
2.49318
2.39025
2.2102
1.92001
1.46834
0.75784
-0.197952
0.437799
0.940418
1.35394
1.70512
2.00438
2.26363
2.48588
2.67589
2.83735
2.96705
3.06871
3.13508
3.15795
3.12065
2.99585
2.72878
2.23173
1.33749
-0.175422
0.493628
1.04258
1.50484
1.90581
2.25421
2.56534
2.84306
3.09504
3.32925
3.5423
3.74337
3.92636
4.08535
4.19957
4.23523
4.10869
3.67616
2.65917
-0.0316756
0.602348
1.17032
1.67038
2.11717
2.51514
2.88228
3.22471
3.5543
3.8869
4.22198
4.57891
4.96232
5.38075
5.82084
6.26155
6.59974
6.62859
5.91183
0.143803
0.7234
1.30211
1.83579
2.32506
2.77141
3.19511
3.60889
4.02903
4.4876
4.99165
5.57958
6.29863
7.22114
8.43533
10.1711
12.7878
17.064
24.6092
)
;

boundaryField
{
    up
    {
        type            calculated;
        value           nonuniform List<scalar> 
84
(
-24.6092
-5.91183
-2.65917
-1.33749
-0.757841
-0.478858
-0.330653
-0.244092
-0.190608
-0.153815
-0.128178
-0.110112
-0.095947
-0.0852024
-0.0770151
-0.0705523
-0.0653674
-0.0613275
-0.0586989
-0.0572427
-0.0584056
-0.0662656
-0.0985482
-0.100382
-0.47691
-0.5725
-0.669961
-0.762967
-0.859634
-0.966971
-1.09404
-1.24912
-1.41828
-2.32302
-1.28234
-0.096601
-0.1318
-0.0885661
-0.0667635
-0.041446
-0.0277405
-0.0141958
0.0141071
0.0275375
0.0414607
0.0665792
0.0883841
0.13144
0.0976367
1.26197
2.3326
1.41933
1.25017
1.09487
0.96767
0.860262
0.763574
0.670609
0.573115
0.479241
0.100219
0.098534
0.0662603
0.0584034
0.0572415
0.0586981
0.0613269
0.065367
0.0705521
0.077015
0.0852026
0.0959475
0.110112
0.128179
0.153816
0.190609
0.244092
0.330653
0.478857
0.75784
1.33749
2.65917
5.91183
24.6092
)
;
    }
    low
    {
        type            calculated;
        value           nonuniform List<scalar> 
84
(
-0.129881
0.0522873
0.209047
0.234872
0.0805336
-0.240063
-0.661737
-1.09515
-1.52698
-1.76541
-1.96008
-2.15274
-2.17597
-2.16386
-2.13839
-2.05977
-1.93377
-1.80005
-1.68376
-1.48978
-1.287
-1.08372
-0.863614
-0.622655
-0.4119
-0.14044
0.126876
0.401612
0.663123
0.950905
1.18451
1.41007
1.63259
1.79928
1.92167
2.0317
1.97485
1.76923
1.49383
1.13958
0.724668
0.280636
-0.280504
-0.724545
-1.13945
-1.49373
-1.76916
-1.97485
-2.03169
-1.92199
-1.79916
-1.6327
-1.41015
-1.18459
-0.950983
-0.663193
-0.401686
-0.126935
0.140313
0.411994
0.62257
0.863669
1.08374
1.28702
1.48979
1.68378
1.80007
1.93378
2.05979
2.13839
2.16387
2.17598
2.15274
1.96009
1.76543
1.527
1.09517
0.661749
0.240071
-0.0805293
-0.234872
-0.209049
-0.0522887
0.129881
)
;
    }
    left
    {
        type            calculated;
        value           nonuniform List<scalar> 
19
(
-0.12736
-0.693654
-1.28346
-1.8349
-2.34464
-2.81147
-3.25749
-3.69768
-4.14838
-4.65069
-5.21104
-5.87359
-6.7013
-7.79292
-9.2605
-11.4288
-14.7968
-20.4519
-21.3455
)
;
    }
    right
    {
        type            calculated;
        value           nonuniform List<scalar> 
19
(
0.127361
0.693655
1.28346
1.8349
2.34464
2.81147
3.25749
3.69768
4.14838
4.65069
5.21104
5.87358
6.7013
7.79292
9.2605
11.4288
14.7968
20.4519
21.3455
)
;
    }
    frontAndBackPlanes
    {
        type            empty;
    }
}


// ************************************************************************* //
