/*--------------------------------*- C++ -*----------------------------------*\
  =========                 |
  \\      /  F ield         | OpenFOAM: The Open Source CFD Toolbox
   \\    /   O peration     | Website:  https://openfoam.org
    \\  /    A nd           | Version:  7
     \\/     M anipulation  |
\*---------------------------------------------------------------------------*/
FoamFile
{
    version     2.0;
    format      ascii;
    class       volScalarField;
    location    "0.03";
    object      gradTz;
}
// * * * * * * * * * * * * * * * * * * * * * * * * * * * * * * * * * * * * * //

dimensions      [0 -1 0 1 0 0 0];

internalField   nonuniform List<scalar> 
1596
(
-3.2239e-16
-1.4258e-16
1.60052e-16
1.66595e-17
-2.73038e-16
0
-1.11311e-16
-1.1043e-16
-2.34992e-17
-6.60052e-17
2.2708e-20
-6.72814e-17
3.22636e-16
-6.94734e-17
3.12477e-16
2.77051e-16
1.66943e-16
2.21874e-16
0
3.06256e-16
0
3.45959e-16
-8.58633e-18
-7.9379e-17
7.99033e-17
2.06911e-16
2.20143e-17
9.13286e-17
-4.57214e-17
9.25061e-17
2.09685e-19
-1.26189e-16
-8.05563e-17
-2.49842e-16
-2.51802e-16
-2.35803e-16
1.40967e-16
0
-1.30889e-16
0
-1.89918e-16
1.25461e-17
1.26958e-16
-5.94906e-17
1.26737e-17
-4.33512e-19
-1.5558e-19
2.28279e-20
1.66013e-17
0
6.51527e-17
1.66802e-16
-1.6827e-17
1.63683e-17
3.61974e-17
7.25284e-17
0
2.32105e-16
-4.55626e-17
4.53962e-17
0
-3.57692e-17
-4.06062e-17
4.79813e-17
-2.62109e-17
0
0
-2.99441e-17
8.80812e-18
0
-4.29828e-17
-4.21667e-17
3.33686e-17
-5.29795e-17
-2.54078e-18
0
4.33998e-17
7.93371e-17
-4.49671e-17
0
-7.0904e-18
-2.50674e-17
0
3.17173e-17
-2.41594e-18
-2.3071e-18
-1.31041e-17
1.19478e-17
1.76896e-17
2.76806e-18
1.24343e-17
-3.58791e-17
1.60554e-18
1.73407e-17
-9.63173e-18
-1.12702e-17
-1.04371e-16
7.02253e-17
-4.14716e-17
-3.77043e-19
-1.62311e-17
3.66021e-19
-3.67236e-19
-7.3859e-18
0
-7.33778e-18
-1.48468e-17
-1.5626e-17
8.38764e-18
1.80871e-17
-2.03029e-19
-1.04087e-17
-1.75885e-17
1.52553e-17
9.41873e-17
-1.0998e-16
8.4153e-17
2.85914e-17
0
1.31907e-17
4.8416e-18
-1.92953e-18
8.86437e-18
-1.2539e-18
-7.79262e-18
-1.21132e-20
-3.00014e-18
-8.37563e-18
-4.30273e-18
4.75994e-18
1.05003e-17
-1.6049e-19
-5.35369e-18
2.70626e-17
1.85218e-16
-1.48837e-16
0
0
-1.40824e-17
0
0
0
1.94378e-18
0
0
3.08534e-18
-3.67829e-20
2.7191e-18
-4.41491e-18
0
2.34677e-18
1.47672e-18
0
-1.02897e-16
1.80229e-16
0
0
1.4503e-17
0
-1.55453e-18
1.55295e-18
-1.97849e-18
5.37101e-19
-5.41029e-19
0
7.43865e-19
1.91682e-18
0
-1.00356e-18
-2.38008e-18
-1.36628e-18
3.67262e-16
-1.54681e-16
0
-4.09672e-17
4.05087e-17
0
8.29872e-18
0
0
0
2.84546e-19
-2.8591e-19
0
-6.24877e-19
-1.13068e-19
0
5.87937e-19
4.1185e-19
0
-9.33083e-17
0
0
4.32021e-17
-6.68377e-17
1.12274e-17
4.34219e-18
-1.51084e-18
7.9473e-19
1.45005e-19
-3.41277e-19
-2.36597e-19
0
1.29958e-19
-4.58068e-20
4.64943e-20
3.56596e-19
-3.59843e-19
-1.22847e-19
4.32658e-17
-2.43854e-17
4.58989e-17
1.02708e-16
-1.89684e-17
-2.52363e-17
0
0
0
8.93452e-19
1.48603e-19
3.43543e-19
-7.66721e-20
-1.27633e-19
-3.29813e-20
-3.53334e-20
1.82603e-20
-5.78201e-20
1.10893e-19
-6.97725e-17
7.16427e-17
-1.11915e-16
-1.02361e-16
7.82654e-17
1.37837e-17
-2.04524e-17
1.00242e-17
-4.65908e-18
1.12525e-18
3.13276e-19
-1.17405e-19
1.05074e-20
-1.78571e-20
6.68678e-20
0
-6.40957e-21
7.58176e-20
-1.33787e-20
-5.57698e-16
2.24175e-16
-1.56886e-19
-1.68448e-17
1.12679e-17
1.35595e-17
-2.23723e-17
-4.31673e-18
1.9559e-18
-8.41864e-19
-3.51573e-19
0
-1.04797e-19
-2.25378e-20
-1.57479e-20
-6.89683e-21
2.64227e-22
-2.05017e-20
8.60008e-21
9.08489e-17
-6.47898e-17
-5.19424e-19
-2.73223e-17
-3.99991e-17
3.25262e-17
2.91809e-19
4.20666e-18
-1.90432e-18
1.59583e-18
2.24892e-19
1.16235e-19
1.07581e-19
0
2.4369e-20
7.88908e-21
0
5.46668e-21
2.763e-21
0
6.28536e-17
2.58687e-17
-6.64538e-17
3.7986e-17
-4.28162e-17
2.0125e-17
2.76419e-18
-1.5139e-18
-1.95582e-18
1.03556e-19
-1.03045e-19
-9.13307e-20
1.62478e-20
-5.71442e-21
-6.49643e-21
1.2524e-21
-7.30026e-22
1.25215e-21
-8.36946e-17
1.98161e-16
-1.55325e-16
4.64145e-17
0
0
-1.87251e-18
5.20763e-18
-1.05513e-18
1.62005e-18
0
0
5.37886e-20
-2.85354e-20
-6.65275e-21
1.87386e-21
-1.03952e-21
5.33334e-22
0
2.2839e-17
7.86544e-17
-3.66533e-17
-2.34803e-17
-1.8542e-17
2.78501e-18
6.06506e-18
0
-8.775e-19
-1.55554e-19
1.8424e-19
-7.01956e-20
2.60899e-20
0
3.24944e-21
2.65652e-21
0
0
0
-2.26905e-17
6.47316e-17
1.16403e-18
-7.30033e-17
1.02854e-17
5.82075e-18
0
0
7.09022e-19
-4.32258e-19
-1.782e-19
6.7892e-20
-2.52309e-20
0
-9.67962e-22
6.04245e-22
0
-1.18181e-22
-3.54578e-23
-4.99616e-17
1.50681e-16
-1.39612e-16
-2.70066e-17
1.67746e-17
-4.31666e-18
1.97615e-18
0
-3.49808e-19
1.75481e-19
0
0
5.24892e-21
-5.25497e-21
3.2534e-22
-6.05495e-22
1.99229e-22
5.00371e-23
2.71463e-23
3.3808e-17
-2.23407e-17
7.11126e-17
-4.23817e-17
-7.3966e-18
2.08319e-18
5.11643e-18
6.45661e-19
3.34714e-19
0
2.82457e-20
-2.56443e-20
9.2005e-21
-3.51194e-21
1.01268e-21
-9.57276e-22
-1.32869e-22
8.12707e-23
1.11957e-23
7.40619e-17
-8.32635e-17
0
1.98616e-17
-1.25939e-17
-3.32993e-18
3.79717e-19
-2.4586e-18
0
-1.30618e-20
-5.2854e-20
-1.21217e-20
6.42172e-21
-1.32487e-21
-9.7874e-22
3.32432e-22
0
2.25554e-23
-1.08709e-23
1.7024e-16
-1.90167e-17
4.40942e-17
-3.31001e-17
5.25638e-18
-3.27482e-18
-3.33016e-18
-2.63833e-19
3.60185e-19
-3.37182e-20
-2.63328e-20
1.59298e-20
-4.01418e-21
-1.37551e-21
0
0
0
-2.254e-23
6.12318e-25
-1.20363e-16
1.0932e-16
-3.23272e-19
4.82204e-18
2.38114e-18
-2.29275e-18
1.74785e-18
-6.61641e-19
2.61829e-19
-2.09232e-20
3.48697e-20
3.05107e-21
-6.24617e-22
2.15256e-23
1.24306e-23
-3.2392e-23
0
0
0
0
0
1.9561e-17
-2.07442e-17
-1.66486e-17
0
0
-1.30407e-19
-9.85677e-20
3.08841e-20
0
-3.84796e-21
1.27358e-21
-1.41459e-21
1.35284e-21
-1.19338e-22
1.26082e-22
6.05364e-24
0
-2.26705e-17
2.29496e-17
0
-5.3239e-18
3.87983e-18
3.31697e-18
0
1.31652e-19
2.38744e-20
-1.89656e-19
0
-3.49784e-21
1.16049e-21
4.04363e-22
-1.41539e-22
1.04627e-22
0
-1.45782e-23
0
-1.1775e-17
-7.676e-18
4.70413e-19
5.47017e-18
-7.80369e-18
0
-4.8213e-19
0
2.26056e-19
3.36997e-20
0
1.23597e-20
-7.65726e-21
1.08824e-21
3.09277e-23
2.07224e-22
1.68648e-22
3.14783e-23
-2.50493e-23
0
2.02849e-17
-9.3473e-18
1.06909e-17
5.16738e-18
0
8.92889e-19
-6.46396e-19
-1.31399e-19
6.3774e-20
-8.62523e-20
-1.0425e-20
0
0
1.45065e-22
0
0
1.07654e-23
0
-1.10593e-16
8.87963e-17
0
2.41248e-18
-2.0649e-18
-8.19173e-20
1.01192e-18
1.01442e-19
-3.63543e-19
-2.14388e-19
1.11282e-19
-2.89499e-20
0
-9.35611e-22
0
0
0
-4.10556e-23
3.26309e-23
-3.60902e-17
2.50845e-17
4.22825e-17
-3.48727e-17
6.43757e-18
1.00605e-18
-1.00676e-18
4.18223e-19
3.25254e-19
9.80585e-20
-1.75459e-19
0
6.39471e-21
-4.1077e-21
-1.09151e-21
-1.60962e-23
-3.56817e-23
-3.33881e-23
2.0564e-24
-1.39875e-16
1.2157e-16
-1.11998e-16
1.19486e-17
5.82182e-18
-4.36107e-18
2.37239e-18
-7.59885e-19
0
-1.77897e-19
8.02127e-20
2.89347e-20
2.17188e-20
4.8778e-21
-5.87423e-21
-4.55531e-22
0
3.50556e-23
-2.95858e-23
-1.50712e-16
-3.0816e-17
-3.4672e-17
2.2179e-17
-1.61274e-17
8.32605e-18
-3.861e-18
1.42633e-18
-2.87905e-19
-2.01604e-19
-1.41997e-19
1.16086e-19
3.23687e-21
1.56865e-20
-1.68396e-20
-9.66576e-22
3.54775e-22
0
1.14503e-22
1.62953e-16
-3.50733e-17
0
0
-1.71086e-17
2.81257e-17
-4.61374e-18
-3.21141e-19
1.70076e-18
-1.09397e-19
0
0
-2.95702e-20
0
-1.97295e-20
2.98645e-20
-1.56943e-20
0
-9.42451e-23
5.00377e-17
7.63081e-17
0
-1.96196e-17
-8.17841e-18
-2.08301e-18
-4.95928e-18
9.68467e-19
-2.03779e-18
-4.11745e-19
0
0
1.33894e-19
0
0
-3.98832e-20
7.72027e-20
0
0
3.45601e-16
-6.60766e-17
-1.54947e-16
-4.85964e-17
6.8476e-17
1.26114e-17
4.80864e-18
0
-6.87576e-19
4.08547e-19
8.26485e-19
-2.10667e-19
-1.17493e-19
1.26555e-19
-1.34616e-19
-1.66002e-20
0
0
0
2.76177e-17
-1.68507e-16
1.61313e-16
-1.09921e-17
-5.59749e-17
7.48553e-17
-3.09483e-17
0
0
3.62434e-18
-2.52557e-18
0
-2.12435e-19
4.14645e-19
-1.3046e-20
6.54087e-20
1.44051e-20
4.33141e-22
2.09293e-21
0
0
0
8.76267e-17
-6.05729e-17
3.32791e-17
-4.70037e-17
1.04673e-17
0
-1.41315e-18
1.2894e-18
-1.31784e-18
-1.26247e-19
1.79011e-20
-4.28199e-20
-3.02515e-21
-2.73158e-20
-7.62757e-21
-3.65174e-21
2.16519e-16
-3.54207e-16
1.52285e-16
0
1.87969e-17
-2.67829e-17
1.46105e-17
-1.12861e-17
0
-1.7769e-18
2.5969e-18
0
0
1.91405e-20
0
-5.27452e-20
3.3442e-20
1.889e-21
6.30939e-21
2.43151e-16
0
-5.70667e-17
6.29877e-17
-2.35852e-17
4.63549e-17
-1.85539e-17
-7.54964e-18
7.62849e-18
-4.62472e-19
0
0
1.08386e-19
-1.1722e-19
-6.36889e-20
1.10892e-19
-2.18305e-20
8.20139e-21
0
1.3695e-16
7.87145e-17
-1.61731e-17
-6.09531e-17
-4.23272e-18
-2.06621e-17
6.74871e-18
1.2636e-17
-3.97283e-19
4.71156e-19
0
0
-1.11034e-19
0
7.62329e-20
-8.1551e-20
0
7.98873e-21
-2.08282e-21
-7.245e-17
-3.96368e-17
3.73578e-17
-3.07482e-18
-1.08481e-18
2.21581e-18
0
-3.21852e-19
3.04248e-18
-2.54821e-18
0
3.23962e-19
-1.3151e-19
-2.14834e-19
-1.38101e-20
-9.07052e-21
0
-6.36295e-21
0
2.5961e-17
-4.57322e-17
2.9166e-18
1.47015e-17
8.42185e-18
-8.12228e-18
-3.2796e-18
3.64558e-18
-6.72402e-19
5.55111e-19
-2.67473e-19
2.75723e-19
0
3.3768e-22
-9.12302e-21
3.37263e-20
-9.67401e-23
0
0
2.5962e-17
-2.58647e-17
-1.46186e-17
1.31542e-17
1.46657e-17
-1.47523e-17
-1.63996e-18
1.64581e-18
-6.79011e-19
6.85704e-19
-2.67514e-19
4.445e-19
-1.21657e-19
-5.67151e-20
-1.1212e-20
4.87823e-21
7.72931e-21
1.79621e-21
-1.32443e-21
0
-5.65259e-18
2.50315e-17
-2.77438e-17
1.45525e-17
-1.31575e-17
0
4.1663e-18
-3.81802e-18
0
5.17114e-19
-6.30968e-19
-2.05095e-19
2.14953e-19
2.57475e-20
0
0
-6.36951e-21
2.23713e-21
1.03118e-16
-1.75725e-16
1.48909e-16
-1.05426e-16
3.71614e-17
-1.77993e-17
1.74022e-17
1.21159e-18
-2.91528e-18
2.55084e-18
0
-6.80409e-19
6.20071e-19
-6.97005e-20
-2.52196e-20
2.87519e-20
1.84007e-20
6.18357e-21
-2.16158e-21
2.71952e-16
0
-6.53953e-17
5.11193e-17
4.18489e-18
-2.13455e-17
3.23845e-17
-2.07897e-17
6.92666e-18
-1.42687e-18
1.46052e-18
1.75396e-19
1.91358e-19
6.7889e-20
-3.68888e-20
-7.97355e-21
-3.96135e-20
0
2.79041e-21
1.88109e-16
-2.11856e-16
0
1.17245e-17
3.47145e-17
-3.2078e-17
3.38483e-18
2.11106e-18
6.91805e-19
7.66583e-19
0
0
-2.97516e-19
4.44549e-19
-1.37444e-19
-3.06063e-20
3.35088e-20
2.12732e-21
-5.04385e-21
5.21919e-17
1.87525e-16
-1.59232e-17
-7.64155e-17
6.82497e-17
5.17685e-18
-3.31267e-18
-2.06187e-18
3.8035e-18
-4.57897e-18
1.29139e-18
-1.31986e-18
6.36134e-20
-1.51686e-19
1.1843e-19
-7.99532e-20
0
0
2.55328e-21
0
4.22932e-17
-9.05087e-17
1.05407e-16
-4.85793e-17
4.84636e-17
0
5.71569e-18
-5.74188e-18
-1.89247e-18
2.53114e-18
0
3.34348e-19
-4.15737e-19
-4.08811e-20
0
-2.10838e-21
-2.09035e-21
-1.0842e-21
-4.78127e-16
2.06653e-16
0
-6.85049e-17
6.8498e-17
2.2057e-17
-1.40321e-17
2.75954e-18
0
-4.72232e-20
6.73473e-20
-2.10942e-19
-1.17739e-19
1.26827e-19
-1.34859e-19
0
8.46211e-21
1.15878e-21
-1.46145e-21
2.75383e-16
-2.53684e-16
0
1.81882e-17
1.15808e-17
-8.21627e-18
0
-2.89202e-18
-1.17343e-18
0
-1.78738e-19
0
1.3441e-19
0
0
7.89588e-21
1.96573e-20
-3.04718e-20
0
-2.57321e-19
3.50966e-17
-2.37425e-17
9.13694e-18
-5.28561e-17
1.60557e-17
0
3.22007e-19
7.48336e-19
0
-2.74607e-19
2.58853e-19
-2.7194e-19
1.23732e-20
0
-5.2612e-21
0
0
0
-2.37533e-19
0
2.1944e-17
0
-1.24295e-17
1.26271e-17
0
9.88938e-19
-3.8603e-19
9.27368e-19
-3.49973e-19
3.16383e-20
-2.38278e-20
4.58444e-21
-1.69645e-20
-1.5454e-21
0
1.45178e-22
0
9.47366e-17
-1.62992e-16
0
-1.08037e-17
5.94653e-18
0
0
-1.55942e-18
0
-1.78536e-19
-8.05525e-20
-2.90785e-20
2.18463e-20
0
6.64448e-22
0
0
-2.28874e-22
1.56943e-22
0
1.08654e-16
-8.37368e-17
1.00017e-17
-5.50652e-18
-9.08066e-19
1.93155e-18
1.01735e-18
-4.60202e-19
1.3718e-19
3.37025e-20
-8.86697e-21
2.93124e-20
-6.16437e-21
-2.58e-21
2.8471e-22
6.6441e-24
-3.48926e-23
-5.79955e-24
-2.62167e-16
8.93983e-17
0
0
1.44517e-18
-1.46957e-18
4.69218e-20
-1.79559e-19
2.79758e-19
5.36513e-20
-3.95052e-20
-5.48248e-21
-1.90318e-21
9.38944e-22
0
4.2602e-23
-6.0898e-24
1.1561e-23
5.24198e-24
0
5.73982e-17
-3.78235e-17
9.49207e-18
3.53142e-18
-5.74817e-19
-6.54002e-19
-2.54886e-19
-3.17358e-19
4.33887e-20
4.66456e-22
1.44581e-20
1.77971e-21
-5.35226e-22
5.6811e-22
1.05541e-22
-1.32486e-22
-1.06783e-23
0
-1.66074e-17
-4.93195e-17
1.08169e-17
5.47404e-18
-9.00204e-18
4.81092e-18
5.81429e-19
-5.9431e-19
1.24923e-19
-4.1178e-20
0
0
-1.54801e-21
2.15459e-21
-5.6447e-22
1.56726e-22
-1.69877e-22
1.45858e-23
-2.55541e-23
2.76481e-17
1.8222e-17
-1.00815e-17
2.09342e-18
-5.10245e-18
-1.95723e-18
0
0
0
0
0
0
1.18732e-21
-1.07919e-21
1.14136e-21
-9.26966e-23
1.32177e-22
2.55049e-23
-2.00657e-23
6.46124e-17
-5.50461e-17
6.56945e-17
-9.1959e-18
1.43865e-17
-2.51993e-18
3.49908e-18
-1.10765e-18
-1.20437e-19
1.23202e-19
0
3.84311e-21
-1.15995e-21
1.02055e-21
-7.27389e-22
-2.96092e-22
-1.82825e-22
2.06635e-23
1.43106e-23
1.0438e-16
1.79889e-17
0
-9.96045e-18
-3.10528e-18
5.23181e-18
-3.61929e-19
-5.38628e-19
1.76467e-19
-4.05649e-20
0
-3.04226e-21
0
-5.98816e-22
2.70378e-22
-1.02048e-22
-2.11907e-23
4.83915e-24
0
1.40331e-16
-1.90162e-17
4.47091e-17
-3.36693e-17
-2.90672e-18
4.67316e-18
-2.64186e-18
1.86895e-19
8.97857e-20
-5.56643e-20
3.45716e-20
0
0
1.16071e-21
-1.6043e-23
6.91892e-24
7.21769e-23
-1.80595e-23
0
-1.39492e-19
0
-1.19446e-17
4.00601e-17
-2.36144e-17
-9.07041e-18
4.6186e-18
-1.21982e-18
9.24329e-19
1.59119e-19
-5.30246e-20
1.32759e-20
-6.54679e-21
1.22733e-21
1.72816e-21
-9.2781e-23
-1.09034e-22
6.35426e-23
-1.20321e-23
3.05702e-16
-8.8995e-17
1.47735e-17
-5.7013e-17
7.39658e-18
-6.13611e-18
3.9115e-18
0
0
-2.01909e-20
-4.11474e-20
-5.35474e-21
0
-2.97319e-21
-1.01272e-21
3.43509e-22
-1.23517e-23
4.01879e-23
3.05362e-23
0
-7.38579e-17
7.80598e-17
-2.39498e-18
-3.64e-17
4.31665e-18
-3.10773e-18
1.73463e-18
1.32623e-18
0
0
3.97351e-21
1.46858e-20
0
-2.03127e-21
-4.41479e-22
7.50696e-23
-2.93504e-23
-5.42274e-23
0
-3.47819e-17
3.16255e-17
5.39243e-17
1.53893e-17
-2.43096e-17
8.05498e-18
-1.69025e-18
1.1201e-18
-4.51678e-19
0
0
0
-9.22424e-21
3.52996e-23
-9.72838e-22
0
-1.16669e-23
4.7335e-23
-2.17006e-16
1.90139e-16
1.16179e-16
-1.35273e-16
3.01868e-17
-2.49259e-17
0
2.04818e-18
-2.33262e-18
7.78348e-19
-2.23487e-19
8.6717e-20
3.28475e-20
9.5399e-21
3.49455e-21
0
0
0
0
2.75737e-16
-1.18376e-16
0
0
-1.38999e-17
1.77496e-17
-1.06742e-17
-2.42297e-18
2.39566e-18
5.77387e-19
5.01304e-19
-8.99772e-20
1.97168e-20
2.77432e-21
1.86433e-21
6.5926e-22
1.20442e-21
-4.01804e-23
4.09274e-23
-2.64513e-16
2.10545e-16
6.77004e-17
-4.04123e-17
3.73765e-17
-2.25828e-17
-8.24393e-18
-3.92013e-18
0
-1.26241e-18
2.28074e-19
1.24015e-19
-4.24638e-20
-1.62495e-20
-2.52498e-21
-6.62916e-22
-6.71179e-22
0
0
-9.06859e-17
0
4.36359e-17
4.76471e-19
0
0
8.50388e-18
4.04502e-18
0
7.76867e-19
0
-1.75031e-19
-1.02701e-20
2.45817e-20
0
7.44925e-21
-7.53041e-22
7.68202e-22
0
2.10883e-16
0
7.35302e-17
-1.16758e-16
7.669e-17
3.13963e-17
-4.27821e-18
0
5.56043e-19
1.40596e-18
0
-2.06384e-19
1.33699e-19
-7.18378e-20
-1.08453e-20
-5.37107e-21
-2.39118e-21
-9.18184e-22
-1.19134e-20
-1.6438e-16
2.28427e-16
-4.56869e-17
-8.54277e-17
-3.34451e-17
-1.82536e-17
-1.83896e-17
-3.23571e-18
1.17601e-18
3.13873e-19
-3.13284e-19
3.3592e-19
-9.29682e-20
1.13625e-19
-1.80677e-20
0
4.90083e-20
-4.87768e-20
1.04594e-20
4.33691e-16
-2.14954e-17
-2.02688e-16
1.02709e-16
-7.00199e-17
3.8775e-17
-4.11238e-18
-4.2356e-18
1.95785e-18
3.20791e-19
-1.72105e-19
-3.30357e-19
4.77567e-20
1.1381e-19
-1.73023e-20
1.74996e-20
-5.07607e-20
-9.91957e-20
-1.02212e-19
2.12904e-16
6.68667e-17
8.91449e-17
-5.35005e-17
-2.42134e-17
7.58015e-18
-6.342e-18
1.3056e-17
7.67626e-19
1.67317e-18
5.5266e-19
-3.80862e-19
0
-1.29903e-19
0
0
4.105e-19
1.25917e-19
1.10733e-19
1.82202e-16
0
8.32933e-17
5.31551e-17
-2.87009e-17
1.63854e-17
0
-4.03959e-18
-3.29794e-18
-1.72178e-18
-5.57552e-19
3.85169e-19
0
0
0
0
-3.94002e-19
-9.98226e-19
0
-3.55686e-16
0
-1.73778e-17
-1.67758e-17
4.46167e-17
-9.59121e-18
-2.1824e-18
-2.76488e-18
3.24494e-18
0
5.37065e-19
-3.62399e-20
1.139e-18
0
0
2.12542e-18
-1.75515e-19
1.20765e-18
-1.4417e-18
2.38372e-16
4.7698e-17
-4.72057e-17
-2.83144e-17
-5.30142e-17
2.38181e-17
1.59984e-17
-1.33877e-18
-2.64504e-18
3.65627e-18
5.54995e-19
-4.07798e-18
-2.22192e-18
-3.33609e-18
-3.98513e-18
-2.49707e-18
5.35487e-18
-2.08525e-19
1.47661e-18
-6.61763e-17
2.22943e-17
-9.1293e-17
8.26632e-18
-8.23625e-18
0
-8.21208e-18
-3.26617e-18
-7.61551e-18
3.63675e-18
7.79253e-18
3.46745e-18
-1.2606e-18
-3.13197e-18
3.58195e-18
0
-1.56647e-17
-9.51429e-18
-1.69688e-19
1.52042e-16
-2.6586e-18
1.37682e-16
-4.5468e-17
3.77043e-19
6.77266e-19
1.71066e-17
-6.73211e-18
7.3858e-18
-7.00654e-18
-7.01219e-18
0
1.56262e-17
8.20783e-18
1.96076e-19
-3.06379e-19
1.05172e-17
9.64437e-18
0
-1.02972e-16
0
-7.10856e-18
4.73694e-17
2.63752e-18
7.09984e-18
-1.65419e-17
1.46384e-17
2.65038e-17
2.64868e-17
2.70128e-17
0
-1.51806e-17
0
1.47892e-18
-1.53599e-18
0
-2.59471e-19
1.64649e-17
8.49975e-17
1.69814e-17
-2.58373e-17
9.29311e-17
-2.54333e-17
0
0
-4.67333e-17
-2.56795e-17
-2.56598e-17
-6.49184e-17
-8.80812e-18
0
0
0
-5.1717e-18
5.47296e-18
4.81345e-17
-1.67783e-17
2.04668e-17
0
-8.46155e-17
-5.34164e-17
7.15837e-17
-7.89187e-17
-1.05887e-16
1.03572e-16
4.6597e-17
0
4.5954e-17
7.85769e-17
-1.56675e-17
9.95216e-17
-1.66446e-17
1.7323e-17
8.42249e-17
-4.57811e-17
0
-1.56899e-16
0
-1.31392e-16
1.23266e-16
0
1.70546e-16
7.35542e-17
-1.82877e-16
1.76414e-16
-3.01741e-21
-4.61896e-17
-7.60785e-17
0
1.62845e-16
-2.49842e-16
2.76182e-16
-3.53797e-16
0
0
1.60975e-16
-5.72845e-18
-1.27688e-17
-2.75951e-16
2.94049e-16
-1.33383e-16
1.3284e-16
1.31754e-16
-8.67975e-17
0
0
2.49869e-16
-2.54173e-16
-2.34841e-16
2.40592e-16
-2.42136e-16
2.70265e-16
-4.35296e-16
0
)
;

boundaryField
{
    up
    {
        type            calculated;
        value           nonuniform List<scalar> 
84
(
0
0
0
0
-9.63173e-18
1.52553e-17
-5.35369e-18
1.47672e-18
-1.36628e-18
0
-1.22847e-19
1.10893e-19
-1.33787e-20
8.60008e-21
2.763e-21
1.25215e-21
0
0
-3.54578e-23
2.71463e-23
1.11957e-23
-1.08709e-23
6.12318e-25
0
4.06735e-24
4.06441e-24
-2.10227e-23
0
3.26309e-23
-2.92557e-23
-2.95858e-23
1.14503e-22
-9.42451e-23
0
1.33641e-21
1.8694e-21
-3.32786e-21
5.93925e-21
0
-1.88211e-21
0
0
-1.27654e-21
2.23713e-21
-2.16158e-21
2.79041e-21
-5.04385e-21
2.55328e-21
-1.0842e-21
-1.46145e-21
0
0
0
1.56943e-22
3.12575e-23
5.24198e-24
0
-2.55541e-23
-2.00657e-23
1.02611e-23
0
0
-1.20321e-23
3.05362e-23
-5.42274e-23
4.7335e-23
0
4.09274e-23
0
0
-1.19134e-20
1.04594e-20
-1.02212e-19
1.10733e-19
0
-1.4417e-18
1.47661e-18
-1.69688e-19
0
1.64649e-17
-1.67783e-17
0
0
0
)
;
    }
    low
    {
        type            calculated;
        value           nonuniform List<scalar> 
84
(
-3.23899e-16
3.06256e-16
-1.28209e-16
2.33975e-16
4.44956e-17
-1.15543e-17
9.63409e-17
2.90004e-17
0
3.69781e-16
-9.33083e-17
4.12536e-17
-6.97725e-17
-5.59072e-16
9.08489e-17
0
-8.36946e-17
2.2839e-17
-2.26905e-17
-4.99616e-17
3.3808e-17
7.40619e-17
1.70421e-16
-1.20363e-16
0
-2.26705e-17
-1.1775e-17
0
-1.10593e-16
-3.60902e-17
-1.4026e-16
-1.5131e-16
1.63768e-16
5.00377e-17
3.4682e-16
2.76177e-17
0
2.16519e-16
2.45195e-16
1.37991e-16
-7.29798e-17
2.5961e-17
2.5962e-17
0
1.03118e-16
2.73996e-16
1.88109e-16
5.40442e-17
0
-4.79345e-16
2.75383e-16
-2.57321e-19
-2.37533e-19
9.47366e-17
0
-2.61596e-16
0
-1.66074e-17
2.76481e-17
6.42849e-17
1.043e-16
1.40511e-16
-1.39492e-19
3.06283e-16
0
0
-2.17006e-16
2.76762e-16
-2.65667e-16
-9.06859e-17
2.12257e-16
-1.6438e-16
4.37715e-16
2.15153e-16
1.82202e-16
-3.55686e-16
2.36434e-16
-6.40228e-17
1.52042e-16
-1.01876e-16
8.49975e-17
2.31473e-17
-1.56899e-16
1.6173e-16
)
;
    }
    left
    {
        type            calculated;
        value           nonuniform List<scalar> 
19
(
-3.2239e-16
-1.42525e-16
1.60052e-16
1.78708e-17
-2.74629e-16
0
-1.11311e-16
-1.1043e-16
-2.55856e-17
-6.60052e-17
2.2708e-20
-6.72814e-17
3.27539e-16
-6.94734e-17
3.12477e-16
2.77051e-16
1.66943e-16
2.56179e-16
0
)
;
    }
    right
    {
        type            calculated;
        value           nonuniform List<scalar> 
19
(
1.60975e-16
-5.78264e-18
-1.27688e-17
-2.77163e-16
2.9564e-16
-1.33383e-16
1.3284e-16
1.31754e-16
-8.47111e-17
0
0
2.545e-16
-2.59077e-16
-2.34841e-16
2.40592e-16
-2.42136e-16
2.70265e-16
-4.69601e-16
0
)
;
    }
    frontAndBackPlanes
    {
        type            empty;
    }
}


// ************************************************************************* //
