/*--------------------------------*- C++ -*----------------------------------*\
  =========                 |
  \\      /  F ield         | OpenFOAM: The Open Source CFD Toolbox
   \\    /   O peration     | Website:  https://openfoam.org
    \\  /    A nd           | Version:  7
     \\/     M anipulation  |
\*---------------------------------------------------------------------------*/
FoamFile
{
    version     2.0;
    format      ascii;
    class       volScalarField;
    location    "0.223";
    object      gradTy;
}
// * * * * * * * * * * * * * * * * * * * * * * * * * * * * * * * * * * * * * //

dimensions      [0 -1 0 1 0 0 0];

internalField   nonuniform List<scalar> 
1596
(
-0.471733
-0.875666
-1.20563
-1.52122
-1.8223
-2.14829
-2.4821
-2.86865
-3.32545
-3.8652
-4.60786
-5.55316
-6.86552
-8.7385
-11.6543
-16.2052
-24.3382
-39.3421
-92.9375
-1.43626
-1.76929
-1.99333
-2.19811
-2.39434
-2.62629
-2.88026
-3.19789
-3.59615
-4.07844
-4.74521
-5.58534
-6.70896
-8.20383
-10.3173
-13.1738
-17.423
-23.6696
-41.3982
-2.56868
-2.67776
-2.73869
-2.8107
-2.89269
-3.02288
-3.18577
-3.4179
-3.73199
-4.12503
-4.67972
-5.37444
-6.28533
-7.45255
-9.02604
-11.0239
-13.7991
-17.6049
-25.7697
-3.75363
-3.56124
-3.42909
-3.35625
-3.31914
-3.34313
-3.40906
-3.54671
-3.76432
-4.05472
-4.48556
-5.02971
-5.74098
-6.63524
-7.80752
-9.23484
-11.1246
-13.5797
-17.7834
-4.84413
-4.36968
-4.05081
-3.83609
-3.68249
-3.60117
-3.56994
-3.61128
-3.72984
-3.9163
-4.22574
-4.63013
-5.16842
-5.84467
-6.72206
-7.76432
-9.10171
-10.7694
-13.2008
-5.70812
-5.05477
-4.59086
-4.25357
-3.99467
-3.81485
-3.69139
-3.6401
-3.66332
-3.75117
-3.94827
-4.22861
-4.62102
-5.12416
-5.78176
-6.55602
-7.53295
-8.71695
-10.2728
-6.27484
-5.5788
-5.03563
-4.60967
-4.26506
-3.99927
-3.79277
-3.65645
-3.59169
-3.58939
-3.68541
-3.85745
-4.12711
-4.49096
-4.98018
-5.56008
-6.28941
-7.15916
-8.23348
-6.54489
-5.91891
-5.36807
-4.89682
-4.49338
-4.1596
-3.88313
-3.67244
-3.52949
-3.44697
-3.45368
-3.53171
-3.69745
-3.947
-4.30313
-4.7358
-5.28607
-5.93987
-6.72124
-6.57471
-6.10153
-5.60404
-5.12949
-4.69474
-4.3119
-3.97881
-3.70445
-3.49278
-3.33916
-3.26703
-3.26297
-3.33959
-3.49333
-3.74104
-4.05744
-4.47144
-4.96773
-5.5533
-6.41188
-6.10262
-5.69859
-5.26112
-4.82721
-4.42049
-4.04992
-3.72754
-3.46054
-3.24767
-3.10878
-3.03471
-3.03561
-3.10871
-3.26686
-3.48927
-3.79668
-4.17447
-4.62211
-6.20791
-6.01472
-5.70429
-5.3222
-4.91022
-4.49899
-4.10682
-3.74991
-3.43937
-3.17775
-2.98286
-2.84949
-2.78625
-2.79134
-2.87479
-3.01969
-3.24099
-3.52541
-3.86912
-5.95494
-5.8807
-5.66072
-5.34004
-4.96122
-4.55821
-4.15606
-3.77506
-3.43036
-3.12845
-2.88631
-2.70232
-2.58428
-2.53145
-2.55187
-2.6319
-2.7823
-2.99138
-3.25396
-5.64085
-5.67269
-5.54094
-5.28656
-4.95063
-4.56849
-4.16917
-3.77653
-3.40926
-3.07755
-2.79855
-2.57378
-2.4109
-2.31026
-2.27867
-2.30527
-2.39797
-2.54674
-2.74599
-5.36219
-5.45421
-5.3915
-5.19702
-4.90456
-4.54822
-4.15858
-3.7621
-3.38034
-3.02671
-2.71912
-2.46174
-2.26249
-2.12276
-2.04856
-2.0313
-2.07689
-2.17677
-2.32547
-5.10439
-5.24392
-5.23388
-5.08929
-4.8364
-4.5063
-4.12943
-3.73381
-3.34319
-2.97364
-2.64407
-2.3609
-2.1325
-1.96118
-1.85248
-1.7996
-1.80703
-1.86748
-1.97588
-4.85145
-5.03673
-5.07106
-4.96827
-4.75005
-4.44472
-4.08172
-3.68992
-3.29465
-2.91407
-2.56818
-2.26522
-2.01412
-1.81797
-1.68199
-1.60079
-1.57785
-1.60699
-1.68355
-4.62219
-4.83907
-4.90935
-4.84112
-4.65214
-4.36853
-4.01865
-3.63182
-3.23448
-2.84649
-2.4888
-2.17114
-1.90292
-1.68788
-1.53094
-1.42781
-1.38123
-1.38588
-1.43753
-4.42121
-4.66029
-4.75881
-4.7185
-4.55331
-4.28737
-3.94828
-3.56572
-3.16706
-2.77359
-2.40705
-2.07842
-1.79745
-1.56828
-1.39555
-1.27576
-1.21105
-1.19677
-1.22907
-4.21874
-4.49809
-4.62676
-4.61172
-4.46657
-4.2145
-3.88312
-3.50265
-3.10158
-2.70261
-2.32825
-1.99053
-1.69942
-1.4593
-1.2744
-1.14173
-1.06291
-1.03389
-1.0511
-4.00898
-4.33483
-4.4982
-4.50927
-4.38302
-4.14309
-3.81779
-3.43835
-3.03458
-2.63061
-2.24973
-1.90492
-1.60626
-1.35812
-1.16423
-1.02178
-0.932026
-0.891522
-0.897121
-3.82885
-4.18685
-4.38278
-4.41933
-4.3106
-4.08081
-3.7595
-3.37934
-2.97171
-2.56233
-2.1753
-1.82446
-1.51993
-1.26586
-1.0652
-0.914948
-0.815952
-0.765569
-0.761668
-3.66851
-4.05683
-4.28308
-4.34411
-4.25195
-4.03095
-3.71207
-3.32972
-2.91712
-2.5017
-2.10845
-1.75208
-1.4427
-1.18413
-0.97827
-0.821306
-0.713169
-0.652054
-0.638461
-3.51979
-3.94208
-4.19872
-4.28369
-4.20743
-3.99438
-3.67699
-3.29158
-2.87334
-2.45152
-2.05201
-1.6904
-1.37683
-1.11484
-0.905161
-0.742417
-0.624234
-0.547779
-0.518252
-3.3867
-3.84303
-4.12805
-4.23329
-4.16877
-3.95907
-3.63919
-3.24719
-2.82066
-2.391
-1.98402
-1.61712
-1.30015
-1.03652
-0.825587
-0.660584
-0.534379
-0.43763
-0.363221
-3.27844
-3.76634
-4.08505
-4.22248
-4.18799
-4.00398
-3.70555
-3.32952
-2.9135
-2.48987
-2.08292
-1.71232
-1.38787
-1.11511
-0.894081
-0.720035
-0.583462
-0.472233
-0.36886
-3.20288
-3.70973
-4.0483
-4.20857
-4.19893
-4.03974
-3.76442
-3.40782
-3.0062
-2.59161
-2.18676
-1.81237
-1.47878
-1.19335
-0.958121
-0.772039
-0.627479
-0.516219
-0.42606
-3.19999
-3.70973
-4.05549
-4.22841
-4.23593
-4.09744
-3.84393
-3.50845
-3.1251
-2.72427
-2.32735
-1.95387
-1.61411
-1.31656
-1.06576
-0.863938
-0.706378
-0.586878
-0.494541
-3.27814
-3.7739
-4.11065
-4.28151
-4.294
-4.16712
-3.92979
-3.61312
-3.24876
-2.8648
-2.48054
-2.11335
-1.77198
-1.46477
-1.19812
-0.977962
-0.803386
-0.670884
-0.570393
-3.42846
-3.90052
-4.2148
-4.37089
-4.37775
-4.25442
-4.02811
-3.72785
-3.38269
-3.01827
-2.65125
-2.29628
-1.95921
-1.64639
-1.36445
-1.12294
-0.926014
-0.774772
-0.660621
-3.64625
-4.07815
-4.35752
-4.48878
-4.48205
-4.35634
-4.13736
-3.85197
-3.5266
-3.18452
-2.83973
-2.50425
-2.18009
-1.86955
-1.57639
-1.31201
-1.08626
-0.908231
-0.77341
-3.92765
-4.30394
-4.54068
-4.64072
-4.61503
-4.4826
-4.26795
-3.99566
-3.68971
-3.37134
-3.05237
-2.74316
-2.44215
-2.14627
-1.85227
-1.56847
-1.3073
-1.08958
-0.92172
-4.23096
-4.55938
-4.75243
-4.81819
-4.77061
-4.62909
-4.41705
-4.15675
-3.86975
-3.57568
-3.2849
-3.00784
-2.74144
-2.47853
-2.20604
-1.92187
-1.62919
-1.35553
-1.1298
-4.57604
-4.8507
-4.99473
-5.02201
-4.94939
-4.7964
-4.58507
-4.33508
-4.06548
-3.79434
-3.53094
-3.28746
-3.06276
-2.85082
-2.63249
-2.39395
-2.11239
-1.79456
-1.45196
-4.97818
-5.18849
-5.27814
-5.26467
-5.16678
-5.00352
-4.79472
-4.55724
-4.30732
-4.06104
-3.82715
-3.61925
-3.44095
-3.29428
-3.16718
-3.04997
-2.90696
-2.71874
-2.46181
-5.42373
-5.56019
-5.58219
-5.51468
-5.37804
-5.19065
-4.96921
-4.72801
-4.48021
-4.23822
-4.01014
-3.80673
-3.63357
-3.49726
-3.39883
-3.34479
-3.32441
-3.3284
-3.3366
-5.92602
-5.96271
-5.90226
-5.77155
-5.58925
-5.37178
-5.13233
-4.8831
-4.63475
-4.39648
-4.1763
-3.98123
-3.81599
-3.68448
-3.5893
-3.53376
-3.51982
-3.55108
-3.63141
-6.47932
-6.39443
-6.24716
-6.05464
-5.82973
-5.58477
-5.3297
-5.07435
-4.82729
-4.59566
-4.38642
-4.20427
-4.05224
-3.93153
-3.84184
-3.77984
-3.74161
-3.72092
-3.71165
-6.98555
-6.78623
-6.55804
-6.30763
-6.04222
-5.76998
-5.49811
-5.23385
-4.98386
-4.75349
-4.54794
-4.37052
-4.22274
-4.10457
-4.01475
-3.94983
-3.90603
-3.87859
-3.86271
-7.39613
-7.11447
-6.82357
-6.52679
-6.22845
-5.93388
-5.64813
-5.37637
-5.12367
-4.89397
-4.69116
-4.51765
-4.37408
-4.25987
-4.17345
-4.11151
-4.07027
-4.04531
-4.032
-7.72351
-7.37713
-7.03693
-6.70372
-6.37955
-6.06746
-5.77075
-5.49298
-5.23796
-5.0086
-4.80785
-4.63751
-4.49765
-4.38736
-4.30485
-4.24681
-4.20939
-4.18831
-4.17897
-7.96135
-7.5663
-7.18899
-6.829
-6.48627
-6.16183
-5.85751
-5.57562
-5.31908
-5.09007
-4.89093
-4.72309
-4.58623
-4.47921
-4.40006
-4.34538
-4.31112
-4.29294
-4.28612
-8.11517
-7.67401
-7.27015
-6.89379
-6.54071
-6.20974
-5.90159
-5.61774
-5.36059
-5.13195
-4.93385
-4.76752
-4.63251
-4.52759
-4.45076
-4.39867
-4.36726
-4.35224
-4.34885
-8.11521
-7.67408
-7.27024
-6.89389
-6.54081
-6.20985
-5.9017
-5.61785
-5.36071
-5.13207
-4.93397
-4.76765
-4.63264
-4.52773
-4.45091
-4.39882
-4.36743
-4.35241
-4.34903
-7.96141
-7.56645
-7.18919
-6.82924
-6.48653
-6.16211
-5.8578
-5.57593
-5.31941
-5.0904
-4.89128
-4.72346
-4.58661
-4.47962
-4.4005
-4.34585
-4.31163
-4.2935
-4.28673
-7.72361
-7.37736
-7.03725
-6.7041
-6.37997
-6.06791
-5.77122
-5.49348
-5.23848
-5.00914
-4.80841
-4.6381
-4.49827
-4.38802
-4.30555
-4.24756
-4.21019
-4.18917
-4.17989
-7.39626
-7.11476
-6.82398
-6.52727
-6.22899
-5.93446
-5.64874
-5.37702
-5.12434
-4.89466
-4.69189
-4.51841
-4.37487
-4.2607
-4.17432
-4.11242
-4.07122
-4.04631
-4.03305
-6.98569
-6.78655
-6.5585
-6.30818
-6.04284
-5.77066
-5.49883
-5.23461
-4.98466
-4.75433
-4.54881
-4.37142
-4.22368
-4.10555
-4.01575
-3.95088
-3.90711
-3.87971
-3.86387
-6.47948
-6.39479
-6.24766
-6.05524
-5.83041
-5.58552
-5.33051
-5.0752
-4.82818
-4.5966
-4.3874
-4.20528
-4.05328
-3.93258
-3.8429
-3.78089
-3.74263
-3.72191
-3.71259
-5.9262
-5.96312
-5.90288
-5.77234
-5.5902
-5.37286
-5.13354
-4.88444
-4.63621
-4.39806
-4.17803
-3.98309
-3.81801
-3.68665
-3.59161
-3.53611
-3.52203
-3.55282
-3.6322
-5.42384
-5.56026
-5.58228
-5.51482
-5.37822
-5.19088
-4.96946
-4.72827
-4.48046
-4.23842
-4.01024
-3.80668
-3.63331
-3.49671
-3.39796
-3.34369
-3.32348
-3.32839
-3.33873
-4.97823
-5.18872
-5.27857
-5.26532
-5.16767
-5.00467
-4.79612
-4.55889
-4.30919
-4.06311
-3.82941
-3.6217
-3.44363
-3.29732
-3.17081
-3.05455
-2.91297
-2.72659
-2.47173
-4.57605
-4.85074
-4.99487
-5.0223
-4.94985
-4.79704
-4.5859
-4.33609
-4.06664
-3.79564
-3.53237
-3.28904
-3.06453
-2.85289
-2.63497
-2.39692
-2.11571
-1.79783
-1.45442
-4.23096
-4.55939
-4.75252
-4.81843
-4.77103
-4.6297
-4.41786
-4.15775
-3.87092
-3.57701
-3.28637
-3.00947
-2.74326
-2.48058
-2.20831
-1.92427
-1.63151
-1.35751
-1.13135
-3.92764
-4.3039
-4.54071
-4.64088
-4.61537
-4.48313
-4.26869
-3.99659
-3.69081
-3.37259
-3.05376
-2.74469
-2.44383
-2.14807
-1.85413
-1.57027
-1.3089
-1.09092
-0.92281
-3.64624
-4.07809
-4.35752
-4.4889
-4.48233
-4.35681
-4.13803
-3.85283
-3.52762
-3.18569
-2.84102
-2.50565
-2.18157
-1.87107
-1.57787
-1.31337
-1.08743
-0.909215
-0.774242
-3.42843
-3.90044
-4.21476
-4.37095
-4.37797
-4.25483
-4.02871
-3.72863
-3.38362
-3.01933
-2.65242
-2.29752
-1.96048
-1.64765
-1.36563
-1.12399
-0.926918
-0.77554
-0.661294
-3.27811
-3.77381
-4.11059
-4.28154
-4.29418
-4.16747
-3.93032
-3.61382
-3.2496
-2.86576
-2.48158
-2.11443
-1.77305
-1.4658
-1.19907
-0.978796
-0.804106
-0.671512
-0.570969
-3.19996
-3.70964
-4.05542
-4.22842
-4.23607
-4.09774
-3.84439
-3.50906
-3.12585
-2.72511
-2.32824
-1.95479
-1.61501
-1.31741
-1.06653
-0.864613
-0.70697
-0.587416
-0.495071
-3.20285
-3.70963
-4.04821
-4.20852
-4.19898
-4.0399
-3.76471
-3.40823
-3.00671
-2.59219
-2.18738
-1.81299
-1.47938
-1.19391
-0.958612
-0.772466
-0.627859
-0.516599
-0.426534
-3.2785
-3.76638
-4.0851
-4.22256
-4.18812
-4.00417
-3.70582
-3.32986
-2.91391
-2.49033
-2.08341
-1.71284
-1.3884
-1.11562
-0.894573
-0.720501
-0.583892
-0.472616
-0.369162
-3.38677
-3.8431
-4.12809
-4.23329
-4.16872
-3.95896
-3.63903
-3.24698
-2.82043
-2.39075
-1.98377
-1.61688
-1.29993
-1.03632
-0.825404
-0.660415
-0.534214
-0.437456
-0.363007
-3.51984
-3.94212
-4.19875
-4.28371
-4.20744
-3.99438
-3.67699
-3.29157
-2.87333
-2.45151
-2.05201
-1.6904
-1.37684
-1.11485
-0.905178
-0.742438
-0.62426
-0.54781
-0.518281
-3.66854
-4.05685
-4.28309
-4.34411
-4.25194
-4.03093
-3.71204
-3.32969
-2.91709
-2.50167
-2.10843
-1.75207
-1.4427
-1.18413
-0.978279
-0.82132
-0.713187
-0.652074
-0.63848
-3.82888
-4.18687
-4.38279
-4.41933
-4.31059
-4.08079
-3.75948
-3.37932
-2.97169
-2.56231
-2.17529
-1.82445
-1.51993
-1.26586
-1.0652
-0.91496
-0.815966
-0.765583
-0.761682
-4.009
-4.33485
-4.4982
-4.50926
-4.38301
-4.14307
-3.81777
-3.43833
-3.03456
-2.6306
-2.24972
-1.90491
-1.60626
-1.35813
-1.16424
-1.02179
-0.932036
-0.891533
-0.897131
-4.21875
-4.4981
-4.62676
-4.61171
-4.46656
-4.21449
-3.88311
-3.50263
-3.10157
-2.70261
-2.32825
-1.99053
-1.69942
-1.4593
-1.27441
-1.14173
-1.06291
-1.03389
-1.05111
-4.42122
-4.66029
-4.75881
-4.71849
-4.5533
-4.28736
-3.94827
-3.56571
-3.16705
-2.77358
-2.40705
-2.07842
-1.79745
-1.56828
-1.39556
-1.27577
-1.21105
-1.19677
-1.22907
-4.6222
-4.83907
-4.90934
-4.84111
-4.65213
-4.36853
-4.01864
-3.63182
-3.23448
-2.84649
-2.4888
-2.17114
-1.90292
-1.68788
-1.53094
-1.42781
-1.38123
-1.38588
-1.43753
-4.85145
-5.03673
-5.07105
-4.96826
-4.75005
-4.44471
-4.08172
-3.68992
-3.29464
-2.91407
-2.56818
-2.26522
-2.01412
-1.81797
-1.68199
-1.60079
-1.57785
-1.60698
-1.68354
-5.10439
-5.24391
-5.23387
-5.08928
-4.83639
-4.5063
-4.12943
-3.73381
-3.34319
-2.97364
-2.64407
-2.3609
-2.13249
-1.96118
-1.85248
-1.7996
-1.80702
-1.86748
-1.97587
-5.36218
-5.4542
-5.39149
-5.19702
-4.90457
-4.54823
-4.15859
-3.7621
-3.38034
-3.02671
-2.71912
-2.46174
-2.26249
-2.12276
-2.04856
-2.03129
-2.07688
-2.17675
-2.32546
-5.64084
-5.67269
-5.54094
-5.28656
-4.95064
-4.56849
-4.16918
-3.77653
-3.40926
-3.07755
-2.79855
-2.57378
-2.4109
-2.31026
-2.27866
-2.30526
-2.39796
-2.54672
-2.74597
-5.95492
-5.88069
-5.66072
-5.34004
-4.96122
-4.55821
-4.15606
-3.77506
-3.43036
-3.12845
-2.88631
-2.70232
-2.58428
-2.53145
-2.55186
-2.63189
-2.78228
-2.99136
-3.25395
-6.20789
-6.01472
-5.7043
-5.32221
-4.91023
-4.499
-4.10683
-3.74992
-3.43937
-3.17776
-2.98286
-2.84949
-2.78624
-2.79133
-2.87478
-3.01968
-3.24097
-3.52539
-3.86912
-6.41187
-6.10262
-5.69861
-5.26113
-4.82722
-4.4205
-4.04993
-3.72754
-3.46055
-3.24768
-3.10878
-3.03471
-3.03561
-3.10871
-3.26685
-3.48926
-3.79667
-4.17445
-4.62211
-6.57471
-6.10154
-5.60406
-5.1295
-4.69475
-4.31191
-3.97882
-3.70445
-3.49278
-3.33917
-3.26703
-3.26296
-3.33958
-3.49332
-3.74103
-4.05742
-4.47143
-4.96771
-5.5533
-6.5449
-5.91893
-5.36809
-4.89683
-4.49339
-4.15961
-3.88313
-3.67244
-3.52949
-3.44697
-3.45368
-3.53171
-3.69744
-3.947
-4.30311
-4.73579
-5.28606
-5.93986
-6.72125
-6.27487
-5.57882
-5.03564
-4.60968
-4.26507
-3.99928
-3.79278
-3.65646
-3.5917
-3.58939
-3.68541
-3.85744
-4.12711
-4.49095
-4.98017
-5.56007
-6.2894
-7.15916
-8.23349
-5.70815
-5.05479
-4.59087
-4.25358
-3.99468
-3.81486
-3.6914
-3.64011
-3.66332
-3.75117
-3.94827
-4.22861
-4.62101
-5.12415
-5.78175
-6.55602
-7.53295
-8.71696
-10.2728
-4.84416
-4.36969
-4.05083
-3.8361
-3.6825
-3.60118
-3.56995
-3.61129
-3.72984
-3.9163
-4.22574
-4.63012
-5.16841
-5.84466
-6.72205
-7.76432
-9.10171
-10.7694
-13.2008
-3.75366
-3.56125
-3.4291
-3.35626
-3.31915
-3.34314
-3.40907
-3.54672
-3.76432
-4.05472
-4.48556
-5.02971
-5.74098
-6.63523
-7.80752
-9.23484
-11.1246
-13.5797
-17.7835
-2.5687
-2.67777
-2.7387
-2.81071
-2.89269
-3.02289
-3.18578
-3.41791
-3.732
-4.12503
-4.67972
-5.37443
-6.28532
-7.45254
-9.02603
-11.0239
-13.7991
-17.6049
-25.7697
-1.43626
-1.76929
-1.99333
-2.19812
-2.39434
-2.6263
-2.88027
-3.19789
-3.59615
-4.07844
-4.74521
-5.58533
-6.70895
-8.20382
-10.3173
-13.1738
-17.423
-23.6696
-41.3982
-0.471736
-0.875667
-1.20563
-1.52122
-1.8223
-2.1483
-2.4821
-2.86865
-3.32545
-3.8652
-4.60786
-5.55315
-6.86551
-8.73849
-11.6543
-16.2052
-24.3382
-39.3421
-92.9375
)
;

boundaryField
{
    up
    {
        type            calculated;
        value           nonuniform List<scalar> 
84
(
-84.2201
-45.6134
-27.9906
-19.0839
-14.0394
-10.8556
-8.66066
-7.04572
-5.8043
-4.81912
-4.02381
-3.3749
-2.84038
-2.39846
-2.03171
-1.72579
-1.46908
-1.25224
-1.06771
-0.908752
-0.769472
-0.642578
-0.512858
-0.325745
-0.31507
-0.399981
-0.468208
-0.541254
-0.626957
-0.733054
-0.869763
-1.05025
-1.32823
-2.43658
-3.42955
-3.68972
-3.7055
-3.85573
-4.0269
-4.1762
-4.28483
-4.34954
-4.34972
-4.28547
-4.17715
-4.02798
-3.85692
-3.70643
-3.68971
-3.43187
-2.44814
-1.33052
-1.05161
-0.870779
-0.733849
-0.62761
-0.541822
-0.46874
-0.400607
-0.315458
-0.325511
-0.512883
-0.642595
-0.769484
-0.908762
-1.06772
-1.25224
-1.46907
-1.72579
-2.03171
-2.39845
-2.84038
-3.37489
-4.02381
-4.81913
-5.80432
-7.04574
-8.66068
-10.8556
-14.0394
-19.0839
-27.9906
-45.6134
-84.2201
)
;
    }
    low
    {
        type            calculated;
        value           nonuniform List<scalar> 
84
(
-0.506225
-1.5008
-2.70897
-3.9901
-5.17158
-6.09673
-6.67814
-6.92183
-6.87764
-6.61905
-6.36459
-6.06257
-5.68145
-5.36581
-5.08664
-4.8044
-4.54954
-4.34085
-4.12256
-3.87708
-3.66935
-3.4876
-3.31291
-3.15553
-3.00475
-2.91076
-2.91155
-3.01974
-3.20899
-3.47593
-3.80099
-4.13343
-4.51233
-4.95397
-5.43233
-5.97837
-6.59253
-7.13771
-7.57179
-7.91905
-8.17291
-8.34895
-8.34898
-8.17294
-7.91909
-7.57185
-7.13778
-6.59262
-5.97848
-5.4323
-4.95404
-4.51229
-4.13341
-3.80096
-3.47591
-3.20897
-3.01974
-2.91155
-2.91078
-3.00478
-3.15563
-3.31293
-3.48763
-3.66938
-3.8771
-4.12257
-4.34086
-4.54954
-4.8044
-5.08663
-5.3658
-5.68143
-6.06255
-6.36456
-6.61903
-6.87763
-6.92184
-6.67816
-6.09677
-5.17162
-3.99014
-2.70899
-1.50081
-0.506229
)
;
    }
    left
    {
        type            calculated;
        value           nonuniform List<scalar> 
19
(
-0.462721
-0.85922
-1.19556
-1.52149
-1.83501
-2.17417
-2.52263
-2.92763
-3.40729
-3.98127
-4.77522
-5.79438
-7.22555
-9.3004
-12.5599
-17.7303
-27.078
-44.5264
-87.3527
)
;
    }
    right
    {
        type            calculated;
        value           nonuniform List<scalar> 
19
(
-0.462724
-0.859222
-1.19556
-1.52149
-1.83501
-2.17417
-2.52263
-2.92763
-3.40729
-3.98127
-4.77521
-5.79437
-7.22553
-9.30038
-12.5599
-17.7302
-27.078
-44.5265
-87.3527
)
;
    }
    frontAndBackPlanes
    {
        type            empty;
    }
}


// ************************************************************************* //
