/*--------------------------------*- C++ -*----------------------------------*\
  =========                 |
  \\      /  F ield         | OpenFOAM: The Open Source CFD Toolbox
   \\    /   O peration     | Website:  https://openfoam.org
    \\  /    A nd           | Version:  7
     \\/     M anipulation  |
\*---------------------------------------------------------------------------*/
FoamFile
{
    version     2.0;
    format      ascii;
    class       volScalarField;
    location    "0.15";
    object      gradTy;
}
// * * * * * * * * * * * * * * * * * * * * * * * * * * * * * * * * * * * * * //

dimensions      [0 -1 0 1 0 0 0];

internalField   nonuniform List<scalar> 
1596
(
-0.493819
-0.912299
-1.24541
-1.55184
-1.82853
-2.11297
-2.38508
-2.6864
-3.02991
-3.42433
-3.97507
-4.67707
-5.66985
-7.11246
-9.39742
-13.0004
-19.4835
-31.4758
-74.3507
-1.49784
-1.83205
-2.03824
-2.20774
-2.35116
-2.51333
-2.67994
-2.8912
-3.16147
-3.49215
-3.97374
-4.59267
-5.44365
-6.59856
-8.26036
-10.5261
-13.9191
-18.919
-33.1108
-2.66319
-2.75398
-2.77541
-2.78846
-2.79391
-2.83214
-2.88905
-3.00118
-3.18033
-3.42297
-3.80515
-4.30499
-4.98915
-5.89025
-7.13264
-8.72599
-10.9561
-14.0195
-20.5758
-3.86143
-3.63472
-3.44552
-3.29513
-3.16369
-3.07983
-3.02754
-3.03756
-3.1185
-3.26366
-3.53615
-3.91
-4.43319
-5.11841
-6.04597
-7.1917
-8.72525
-10.7221
-14.1253
-4.93732
-4.42342
-4.03769
-3.73364
-3.47436
-3.27532
-3.11901
-3.02957
-3.01298
-3.06095
-3.22531
-3.4798
-3.8597
-4.36807
-5.05976
-5.89993
-6.99715
-8.37284
-10.37
-5.76039
-5.07405
-4.54217
-4.11104
-3.7413
-3.43918
-3.18812
-3.00617
-2.89772
-2.85432
-2.91791
-3.06451
-3.32034
-3.68406
-4.19487
-4.81731
-5.62507
-6.61583
-7.91817
-6.27085
-5.55388
-4.94828
-4.43014
-3.97478
-3.58649
-3.25324
-2.98878
-2.79718
-2.67101
-2.64369
-2.69492
-2.84407
-3.08803
-3.45562
-3.91478
-4.51764
-5.25249
-6.16819
-6.48377
-5.84687
-5.24168
-4.68382
-4.17349
-3.72033
-3.32051
-2.98608
-2.72221
-2.52352
-2.41638
-2.3847
-2.44257
-2.58633
-2.83738
-3.16841
-3.61717
-4.16945
-4.84301
-6.46733
-5.98632
-5.44095
-4.88624
-4.35007
-3.85266
-3.40099
-3.00832
-2.68226
-2.4204
-2.24367
-2.1402
-2.11997
-2.17933
-2.33392
-2.56121
-2.88852
-3.30212
-3.80698
-6.2758
-5.95429
-5.50462
-4.99202
-4.4623
-3.9468
-3.46357
-3.02946
-2.65564
-2.34329
-2.10968
-1.94685
-1.86183
-1.85119
-1.92619
-2.0686
-2.29818
-2.603
-2.98289
-6.05948
-5.84468
-5.48594
-5.03036
-4.52626
-4.01123
-3.51216
-3.05032
-2.64091
-2.28907
-2.00994
-1.79908
-1.66145
-1.59394
-1.60427
-1.67773
-1.82819
-2.04565
-2.32787
-5.81007
-5.70136
-5.42627
-5.03002
-4.55996
-4.05631
-3.55189
-3.07222
-2.6365
-2.25375
-1.93831
-1.68873
-1.50871
-1.3954
-1.35372
-1.37167
-1.45844
-1.60571
-1.81044
-5.51383
-5.49754
-5.30109
-4.96582
-4.53671
-4.05499
-3.55672
-3.07094
-2.62024
-2.21713
-1.8761
-1.59819
-1.38646
-1.23838
-1.15673
-1.13155
-1.16852
-1.26067
-1.40478
-5.26155
-5.29303
-5.1545
-4.87095
-4.48038
-4.02295
-3.53579
-3.05052
-2.59231
-2.17655
-1.81836
-1.52069
-1.28636
-1.11309
-1.00201
-0.94458
-0.943768
-0.993564
-1.09076
-5.03632
-5.10455
-5.0071
-4.76326
-4.40469
-3.96943
-3.49439
-3.01288
-2.55194
-2.12911
-1.76032
-1.44988
-1.20055
-1.01016
-0.878581
-0.798156
-0.769788
-0.788101
-0.849937
-4.81998
-4.92555
-4.86132
-4.64793
-4.31439
-3.89746
-3.43359
-2.95723
-2.49672
-2.07117
-1.69717
-1.37993
-1.12212
-0.921558
-0.777059
-0.681475
-0.634138
-0.630055
-0.66613
-4.6288
-4.76028
-4.72185
-4.53111
-4.21559
-3.81192
-3.35655
-2.88497
-2.42649
-2.00124
-1.62625
-1.30714
-1.04635
-0.841459
-0.690375
-0.586132
-0.526849
-0.507728
-0.525725
-4.46555
-4.61618
-4.59719
-4.42233
-4.11819
-3.72197
-3.27102
-2.80206
-2.34534
-1.92175
-1.54842
-1.23096
-0.971343
-0.766686
-0.613967
-0.506161
-0.440395
-0.411929
-0.417738
-4.29891
-4.49003
-4.49419
-4.33289
-4.03543
-3.64114
-3.18962
-2.71943
-2.26217
-1.83947
-1.46836
-1.15416
-0.898116
-0.696606
-0.545613
-0.437818
-0.369472
-0.335774
-0.333674
-4.1215
-4.36285
-4.39724
-4.25145
-3.95935
-3.56414
-3.1089
-2.63492
-2.17559
-1.75341
-1.3852
-1.07577
-0.825372
-0.629444
-0.482863
-0.377836
-0.309819
-0.2739
-0.267001
-3.96941
-4.24888
-4.31349
-4.18376
-3.89579
-3.49693
-3.03471
-2.55396
-2.09037
-1.66756
-1.30206
-0.998018
-0.75445
-0.565646
-0.425242
-0.324799
-0.258986
-0.222763
-0.213101
-3.83187
-4.14956
-4.24415
-4.13097
-3.8468
-3.44269
-2.97116
-2.48111
-2.01111
-1.58619
-1.22262
-0.923807
-0.687411
-0.506419
-0.373122
-0.278242
-0.215561
-0.179853
-0.168408
-3.69986
-4.06082
-4.18734
-4.09191
-3.81207
-3.40232
-2.92029
-2.41934
-1.94131
-1.5129
-1.1502
-0.855963
-0.626417
-0.453233
-0.327322
-0.238405
-0.179096
-0.143501
-0.129548
-3.57707
-3.98139
-4.13906
-4.05969
-3.78231
-3.36462
-2.87012
-2.35644
-1.86904
-1.4366
-1.07438
-0.785003
-0.562928
-0.398499
-0.28113
-0.199662
-0.144952
-0.109223
-0.0868505
-3.47345
-3.91886
-4.11663
-4.07065
-3.81865
-3.41672
-2.93012
-2.4174
-1.92635
-1.48817
-1.1184
-0.821769
-0.592688
-0.422287
-0.299939
-0.214931
-0.157046
-0.117575
-0.0879369
-3.39752
-3.86988
-4.09691
-4.08204
-3.85957
-3.48171
-3.01168
-2.50706
-2.01637
-1.5729
-1.19342
-0.885171
-0.643878
-0.461916
-0.329392
-0.236577
-0.173272
-0.131315
-0.102973
-3.39014
-3.86719
-4.1069
-4.11184
-3.91265
-3.5576
-3.10597
-2.61315
-2.12681
-1.68098
-1.29376
-0.974088
-0.719246
-0.523136
-0.37725
-0.273142
-0.20123
-0.153556
-0.122166
-3.45988
-3.91852
-4.15041
-4.1589
-3.97197
-3.63408
-3.19976
-2.72084
-2.24272
-1.79888
-1.40774
-1.07939
-0.812225
-0.601508
-0.440296
-0.322069
-0.238532
-0.182423
-0.145467
-3.59654
-4.02295
-4.23063
-4.22878
-4.04429
-3.71792
-3.2992
-2.83543
-2.36868
-1.93085
-1.53976
-1.20612
-0.928749
-0.703758
-0.525436
-0.389645
-0.290278
-0.221877
-0.176194
-3.79387
-4.16933
-4.33928
-4.31699
-4.12792
-3.80906
-3.40487
-2.95762
-2.50537
-2.07775
-1.69133
-1.35702
-1.07346
-0.836708
-0.641179
-0.484782
-0.364308
-0.278042
-0.219072
-4.0463
-4.35537
-4.48041
-4.43192
-4.23365
-3.91903
-3.52784
-3.09721
-2.66099
-2.24632
-1.8682
-1.53773
-1.25315
-1.0097
-0.799985
-0.622061
-0.474626
-0.361978
-0.281966
-4.30973
-4.56285
-4.64414
-4.56807
-4.35888
-4.04716
-3.66844
-3.25485
-2.83609
-2.43679
-2.07034
-1.74849
-1.4696
-1.22831
-1.01385
-0.821044
-0.645229
-0.495166
-0.379557
-4.60376
-4.79804
-4.83278
-4.72669
-4.50452
-4.19419
-3.8271
-3.43052
-3.03005
-2.64771
-2.29526
-1.98557
-1.71835
-1.48976
-1.28679
-1.09999
-0.913016
-0.726658
-0.542846
-4.94295
-5.07147
-5.05702
-4.92014
-4.68529
-4.37753
-4.02377
-3.64662
-3.26749
-2.90553
-2.5712
-2.2779
-2.02805
-1.8224
-1.65168
-1.50885
-1.37075
-1.22598
-1.05985
-5.31212
-5.36886
-5.29404
-5.11425
-4.85406
-4.53633
-4.18347
-3.81436
-3.44653
-3.09545
-2.77063
-2.48342
-2.23772
-2.03723
-1.88002
-1.76745
-1.68823
-1.63406
-1.58924
-5.72408
-5.68646
-5.53729
-5.30405
-5.0088
-4.6716
-4.31063
-3.94198
-3.58022
-3.2376
-2.92336
-2.64595
-2.40915
-2.2155
-2.06489
-1.95775
-1.89088
-1.86345
-1.8731
-6.17569
-6.02691
-5.80034
-5.51393
-5.1838
-4.8259
-4.45488
-4.08428
-3.72649
-3.39172
-3.08842
-2.82327
-2.59917
-2.41724
-2.27619
-2.1728
-2.10128
-2.05553
-2.02823
-6.57831
-6.33009
-6.03442
-5.69995
-5.33771
-4.95987
-4.57832
-4.20424
-3.84815
-3.51858
-3.2227
-2.96603
-2.75048
-2.57636
-2.44186
-2.34334
-2.27516
-2.23164
-2.20608
-6.89368
-6.57878
-6.23236
-5.86109
-5.47376
-5.08024
-4.69046
-4.31378
-3.95924
-3.63405
-3.34444
-3.09502
-2.88708
-2.72041
-2.59302
-2.50102
-2.43886
-2.40087
-2.38044
-7.14072
-6.77554
-6.39054
-5.99114
-5.58459
-5.17907
-4.78298
-4.40432
-4.05102
-3.72927
-3.44462
-3.20101
-2.99929
-2.83888
-2.71765
-2.63149
-2.57491
-2.54219
-2.52677
-7.31946
-6.91695
-6.50308
-6.08312
-5.66285
-5.24894
-4.84854
-4.46863
-4.11631
-3.7971
-3.51607
-3.27671
-3.07958
-2.92385
-2.80726
-2.72549
-2.67303
-2.64404
-2.63193
-7.43937
-6.99858
-6.56311
-6.13023
-5.70219
-5.28385
-4.88136
-4.50101
-4.14944
-3.83177
-3.55285
-3.31592
-3.12141
-2.96839
-2.85458
-2.77562
-2.72605
-2.70001
-2.6909
-7.43941
-6.99864
-6.56319
-6.13032
-5.70229
-5.28396
-4.88147
-4.50112
-4.14956
-3.83189
-3.55297
-3.31605
-3.12154
-2.96853
-2.85472
-2.77577
-2.72621
-2.70018
-2.69108
-7.31951
-6.91708
-6.50326
-6.08334
-5.6631
-5.24921
-4.84883
-4.46893
-4.11664
-3.79743
-3.51642
-3.27708
-3.07996
-2.92425
-2.80768
-2.72594
-2.67352
-2.64457
-2.6325
-7.14079
-6.77573
-6.39082
-5.99149
-5.58499
-5.17951
-4.78345
-4.40482
-4.05154
-3.72981
-3.44519
-3.2016
-2.9999
-2.83953
-2.71833
-2.63221
-2.57568
-2.54301
-2.52766
-6.89378
-6.57903
-6.23272
-5.86153
-5.47427
-5.08081
-4.69107
-4.31442
-3.95992
-3.63476
-3.34518
-3.09578
-2.88787
-2.72123
-2.59387
-2.50192
-2.43981
-2.40188
-2.38151
-6.57843
-6.33038
-6.03483
-5.70047
-5.33831
-4.96053
-4.57905
-4.20502
-3.84897
-3.51943
-3.22359
-2.96694
-2.75142
-2.57733
-2.44287
-2.34439
-2.27626
-2.2328
-2.20731
-6.17582
-6.02722
-5.8008
-5.5145
-5.18447
-4.82665
-4.45569
-4.08515
-3.72741
-3.39268
-3.08941
-2.82429
-2.60021
-2.4183
-2.27728
-2.1739
-2.10241
-2.05669
-2.02941
-5.72423
-5.68683
-5.53786
-5.3048
-5.00971
-4.67265
-4.31181
-3.94327
-3.58161
-3.23906
-2.92489
-2.64755
-2.41082
-2.21724
-2.0667
-1.95958
-1.89268
-1.86506
-1.87432
-5.31221
-5.36892
-5.29417
-5.11447
-4.85439
-4.53678
-4.18403
-3.81501
-3.44724
-3.09618
-2.77135
-2.48407
-2.23826
-2.03762
-1.88027
-1.7676
-1.68851
-1.63489
-1.59126
-4.94299
-5.07172
-5.0575
-4.9209
-4.68636
-4.3789
-4.02542
-3.64852
-3.26958
-2.90775
-2.57351
-2.28025
-2.03044
-1.82486
-1.65432
-1.51184
-1.37432
-1.23037
-1.06519
-4.60376
-4.79809
-4.83299
-4.7271
-4.50517
-4.19509
-3.82822
-3.43183
-3.0315
-2.64924
-2.29683
-1.98714
-1.71993
-1.49138
-1.2885
-1.10183
-0.914936
-0.728486
-0.544232
-4.30972
-4.56287
-4.64429
-4.56843
-4.35949
-4.04802
-3.66953
-3.25612
-2.83749
-2.43826
-2.07183
-1.74997
-1.47106
-1.22976
-1.01531
-0.822469
-0.646542
-0.496255
-0.380374
-4.04628
-4.35535
-4.48051
-4.43221
-4.23419
-3.91982
-3.52886
-3.0984
-2.66229
-2.24767
-1.86955
-1.53905
-1.25442
-1.01091
-0.801121
-0.623091
-0.475505
-0.362678
-0.282493
-3.79384
-4.16928
-4.33934
-4.31723
-4.1284
-3.80977
-3.4058
-2.95872
-2.50655
-2.07896
-1.69253
-1.35816
-1.07452
-0.837684
-0.642049
-0.485528
-0.364918
-0.278519
-0.219438
-3.59649
-4.02288
-4.23064
-4.22897
-4.0447
-3.71856
-3.30004
-2.83642
-2.36975
-1.93192
-1.5408
-1.20709
-0.929628
-0.704534
-0.526101
-0.390194
-0.290715
-0.22222
-0.176463
-3.45983
-3.91844
-4.1504
-4.15905
-3.97233
-3.63465
-3.20051
-2.72171
-2.24366
-1.79981
-1.40862
-1.0802
-0.81294
-0.602121
-0.440805
-0.322481
-0.238857
-0.182681
-0.145676
-3.3901
-3.86711
-4.10688
-4.11197
-3.91296
-3.5581
-3.10663
-2.61391
-2.12761
-1.68177
-1.2945
-0.974754
-0.719824
-0.523622
-0.377647
-0.273459
-0.201481
-0.153761
-0.122343
-3.39747
-3.86979
-4.09687
-4.0821
-3.85978
-3.48206
-3.01216
-2.50762
-2.01696
-1.57348
-1.19396
-0.885647
-0.644285
-0.462253
-0.329662
-0.23679
-0.173441
-0.13146
-0.103122
-3.47351
-3.91889
-4.11668
-4.07074
-3.8188
-3.41693
-2.93037
-2.41769
-1.92666
-1.48848
-1.11871
-0.822053
-0.592945
-0.422516
-0.300138
-0.215103
-0.157193
-0.117697
-0.0880213
-3.57713
-3.98144
-4.13908
-4.05965
-3.78221
-3.36447
-2.86993
-2.35623
-1.86882
-1.43639
-1.07419
-0.784842
-0.562797
-0.398396
-0.28105
-0.1996
-0.144901
-0.109176
-0.0867892
-3.6999
-4.06084
-4.18736
-4.09192
-3.81207
-3.40231
-2.92028
-2.41933
-1.9413
-1.5129
-1.15021
-0.855975
-0.626431
-0.453247
-0.327336
-0.238418
-0.179108
-0.143512
-0.129555
-3.83189
-4.14957
-4.24416
-4.13097
-3.84678
-3.44267
-2.97113
-2.48109
-2.0111
-1.58619
-1.22261
-0.923809
-0.687416
-0.506426
-0.37313
-0.27825
-0.21557
-0.179861
-0.168414
-3.96943
-4.2489
-4.31349
-4.18375
-3.89577
-3.49691
-3.0347
-2.55395
-2.09036
-1.66756
-1.30206
-0.99802
-0.754454
-0.56565
-0.425248
-0.324805
-0.258993
-0.22277
-0.213108
-4.12152
-4.36286
-4.39724
-4.25144
-3.95934
-3.56413
-3.10889
-2.63491
-2.17558
-1.75341
-1.38519
-1.07577
-0.825373
-0.629446
-0.482866
-0.377841
-0.309826
-0.273909
-0.267008
-4.29892
-4.49003
-4.49419
-4.33288
-4.03541
-3.64114
-3.18961
-2.71943
-2.26217
-1.83947
-1.46836
-1.15416
-0.898115
-0.696606
-0.545615
-0.437823
-0.369479
-0.335784
-0.333683
-4.46556
-4.61619
-4.59718
-4.42233
-4.11818
-3.72196
-3.27101
-2.80205
-2.34534
-1.92175
-1.54842
-1.23095
-0.97134
-0.766685
-0.613969
-0.506166
-0.440404
-0.41194
-0.417748
-4.6288
-4.76028
-4.72184
-4.5311
-4.21558
-3.81192
-3.35655
-2.88497
-2.42649
-2.00123
-1.62625
-1.30713
-1.04634
-0.841457
-0.690377
-0.586138
-0.526859
-0.50774
-0.525735
-4.81998
-4.92554
-4.86131
-4.64793
-4.31439
-3.89747
-3.43359
-2.95723
-2.49672
-2.07116
-1.69716
-1.37992
-1.12212
-0.921556
-0.777061
-0.681482
-0.634148
-0.630066
-0.666138
-5.03631
-5.10454
-5.00709
-4.76326
-4.40469
-3.96944
-3.49439
-3.01288
-2.55193
-2.12911
-1.76031
-1.44987
-1.20054
-1.01016
-0.878583
-0.798162
-0.769797
-0.788109
-0.849941
-5.26154
-5.29302
-5.15449
-4.87095
-4.48038
-4.02296
-3.53579
-3.05052
-2.59231
-2.17654
-1.81835
-1.52068
-1.28636
-1.11308
-1.00201
-0.944586
-0.943772
-0.993565
-1.09075
-5.51381
-5.49753
-5.30109
-4.96582
-4.53672
-4.055
-3.55672
-3.07094
-2.62023
-2.21712
-1.87609
-1.59818
-1.38646
-1.23838
-1.15673
-1.13156
-1.16852
-1.26066
-1.40477
-5.81005
-5.70134
-5.42627
-5.03003
-4.55997
-4.05631
-3.55189
-3.07222
-2.63649
-2.25374
-1.9383
-1.68873
-1.50871
-1.3954
-1.35372
-1.37167
-1.45843
-1.60569
-1.81042
-6.05946
-5.84467
-5.48594
-5.03038
-4.52627
-4.01124
-3.51216
-3.05031
-2.64091
-2.28906
-2.00994
-1.79907
-1.66145
-1.59394
-1.60426
-1.67772
-1.82817
-2.04562
-2.32785
-6.27578
-5.95429
-5.50464
-4.99204
-4.46231
-3.9468
-3.46357
-3.02946
-2.65564
-2.34329
-2.10968
-1.94685
-1.86183
-1.85119
-1.92619
-2.06859
-2.29815
-2.60296
-2.98287
-6.46733
-5.98634
-5.44097
-4.88625
-4.35007
-3.85266
-3.40099
-3.00831
-2.68226
-2.4204
-2.24367
-2.1402
-2.11998
-2.17933
-2.33391
-2.56119
-2.88848
-3.30208
-3.80697
-6.48378
-5.84689
-5.2417
-4.68383
-4.1735
-3.72033
-3.32051
-2.98608
-2.72222
-2.52353
-2.41639
-2.38471
-2.44257
-2.58633
-2.83736
-3.16839
-3.61714
-4.16942
-4.84302
-6.27087
-5.55391
-4.94829
-4.43015
-3.97479
-3.5865
-3.25324
-2.98879
-2.79719
-2.67101
-2.6437
-2.69492
-2.84407
-3.08802
-3.4556
-3.91476
-4.51762
-5.25247
-6.16821
-5.76041
-5.07407
-4.54218
-4.11105
-3.74131
-3.43919
-3.18812
-3.00618
-2.89774
-2.85433
-2.91792
-3.06452
-3.32034
-3.68404
-4.19485
-4.81729
-5.62505
-6.61583
-7.91819
-4.93734
-4.42343
-4.0377
-3.73365
-3.47437
-3.27533
-3.11902
-3.02958
-3.01299
-3.06097
-3.22532
-3.4798
-3.8597
-4.36806
-5.05974
-5.89991
-6.99715
-8.37286
-10.37
-3.86145
-3.63473
-3.44553
-3.29514
-3.1637
-3.07985
-3.02756
-3.03757
-3.11851
-3.26367
-3.53616
-3.91
-4.43318
-5.11839
-6.04596
-7.19169
-8.72526
-10.7221
-14.1253
-2.6632
-2.75398
-2.77541
-2.78847
-2.79392
-2.83215
-2.88907
-3.00119
-3.18034
-3.42299
-3.80516
-4.30499
-4.98914
-5.89024
-7.13263
-8.72598
-10.9561
-14.0195
-20.5758
-1.49785
-1.83205
-2.03824
-2.20774
-2.35116
-2.51334
-2.67995
-2.89121
-3.16148
-3.49216
-3.97374
-4.59267
-5.44364
-6.59854
-8.26034
-10.5261
-13.9191
-18.919
-33.1108
-0.493822
-0.912298
-1.24541
-1.55183
-1.82853
-2.11297
-2.38508
-2.68641
-3.02992
-3.42433
-3.97508
-4.67706
-5.66984
-7.11245
-9.3974
-13.0003
-19.4835
-31.4758
-74.3507
)
;

boundaryField
{
    up
    {
        type            calculated;
        value           nonuniform List<scalar> 
84
(
-67.3795
-36.4929
-22.3707
-15.1913
-11.0711
-8.41598
-6.53936
-5.12705
-4.02553
-3.15074
-2.45473
-1.90427
-1.47277
-1.13865
-0.882684
-0.687805
-0.539531
-0.426093
-0.338328
-0.269237
-0.213787
-0.167974
-0.126926
-0.0770893
-0.0740906
-0.095125
-0.113511
-0.135071
-0.163087
-0.201848
-0.257755
-0.339876
-0.477986
-1.03196
-1.61759
-1.89158
-2.01769
-2.197
-2.37381
-2.52254
-2.62929
-2.68983
-2.69001
-2.62989
-2.52346
-2.37491
-2.19826
-2.01888
-1.89245
-1.61975
-1.03811
-0.479297
-0.340581
-0.258223
-0.202179
-0.163333
-0.135266
-0.11368
-0.0953071
-0.0741894
-0.0770169
-0.126927
-0.167978
-0.213793
-0.269244
-0.338336
-0.426101
-0.539539
-0.68781
-0.882684
-1.13865
-1.47276
-1.90426
-2.45472
-3.15074
-4.02554
-5.12707
-6.5394
-8.41602
-11.0712
-15.1913
-22.3707
-36.4928
-67.3795
)
;
    }
    low
    {
        type            calculated;
        value           nonuniform List<scalar> 
84
(
-0.530474
-1.56722
-2.81227
-4.10961
-5.27659
-6.15764
-6.67758
-6.85933
-6.76686
-6.48089
-6.21724
-5.92332
-5.56541
-5.28071
-5.0376
-4.79453
-4.57925
-4.40886
-4.22562
-4.01023
-3.82759
-3.66507
-3.5029
-3.35175
-3.20057
-3.10289
-3.09889
-3.20155
-3.38148
-3.63273
-3.93303
-4.22819
-4.55748
-4.93633
-5.33753
-5.79113
-6.29944
-6.73633
-7.07058
-7.33319
-7.52452
-7.6637
-7.66372
-7.52454
-7.33323
-7.07063
-6.73638
-6.29952
-5.79122
-5.33749
-4.93639
-4.55742
-4.22815
-3.93299
-3.6327
-3.38144
-3.20154
-3.09888
-3.10289
-3.20059
-3.35183
-3.5029
-3.6651
-3.8276
-4.01024
-4.22563
-4.40887
-4.57926
-4.79453
-5.0376
-5.2807
-5.5654
-5.92329
-6.21721
-6.48086
-6.76684
-6.85933
-6.67759
-6.15766
-5.27662
-4.10965
-2.8123
-1.56724
-0.53048
)
;
    }
    left
    {
        type            calculated;
        value           nonuniform List<scalar> 
19
(
-0.484749
-0.896218
-1.23668
-1.55433
-1.84377
-2.14084
-2.42575
-2.74198
-3.10265
-3.5224
-4.11131
-4.8685
-5.95235
-7.55313
-10.1108
-14.209
-21.6655
-35.6168
-69.8803
)
;
    }
    right
    {
        type            calculated;
        value           nonuniform List<scalar> 
19
(
-0.484753
-0.896219
-1.23668
-1.55433
-1.84377
-2.14084
-2.42576
-2.74199
-3.10265
-3.52241
-4.11131
-4.86849
-5.95233
-7.55311
-10.1108
-14.2089
-21.6655
-35.6168
-69.8803
)
;
    }
    frontAndBackPlanes
    {
        type            empty;
    }
}


// ************************************************************************* //
