/*--------------------------------*- C++ -*----------------------------------*\
  =========                 |
  \\      /  F ield         | OpenFOAM: The Open Source CFD Toolbox
   \\    /   O peration     | Website:  https://openfoam.org
    \\  /    A nd           | Version:  7
     \\/     M anipulation  |
\*---------------------------------------------------------------------------*/
FoamFile
{
    version     2.0;
    format      ascii;
    class       volScalarField;
    location    "0.15";
    object      gradTz;
}
// * * * * * * * * * * * * * * * * * * * * * * * * * * * * * * * * * * * * * //

dimensions      [0 -1 0 1 0 0 0];

internalField   nonuniform List<scalar> 
1596
(
-6.45391e-16
-3.11228e-16
3.19073e-16
9.49728e-18
-6.00442e-16
0
-2.75867e-16
-2.72076e-16
-2.19198e-17
-1.45416e-16
-1.06387e-18
-1.45404e-16
6.45271e-16
-1.44627e-16
6.74167e-16
5.83054e-16
3.47165e-16
4.39386e-16
0
6.41878e-16
0
8.8649e-16
-8.16288e-18
-2.64456e-16
2.6147e-16
5.49243e-16
2.11501e-17
2.58178e-16
-1.25307e-16
2.50708e-16
-3.0752e-18
-3.48914e-16
-2.19087e-16
-5.44686e-16
-5.32795e-16
-4.85612e-16
2.77093e-16
0
-3.10614e-16
0
-5.69454e-16
1.29034e-17
5.06169e-16
-1.49768e-16
1.52793e-17
-3.44085e-18
-3.14629e-18
-3.10261e-18
8.83315e-17
0
1.80885e-16
5.1013e-16
-5.05324e-17
4.1402e-17
9.69893e-17
1.53931e-16
0
4.93306e-16
-1.42382e-16
1.41862e-16
0
-1.34451e-16
-1.41324e-16
2.2825e-16
-1.90166e-16
0
0
-7.98722e-17
4.62415e-17
0
-1.48536e-16
-1.8575e-16
1.30481e-16
-1.38974e-16
-7.12082e-18
0
8.67995e-17
2.20768e-16
-1.90748e-16
0
-5.36241e-17
-1.64938e-16
0
2.40437e-16
-2.34346e-17
-2.12464e-17
-2.93165e-17
1.21806e-16
1.53621e-16
1.67505e-17
1.17142e-17
-1.41028e-16
7.04996e-18
6.57164e-17
-2.88683e-17
-2.25404e-17
-3.01891e-16
2.77943e-16
-2.32273e-16
-6.70168e-19
-1.92204e-16
5.32514e-18
-5.34282e-18
-1.4336e-16
0
-2.44082e-17
-1.44802e-16
-1.38488e-16
1.08604e-16
1.2214e-16
-1.64309e-18
-7.33958e-17
-6.66553e-17
5.14382e-17
1.88375e-16
-3.0592e-16
3.28655e-16
1.77665e-16
0
1.48663e-16
8.32211e-17
-3.95133e-17
1.8085e-16
-3.31673e-17
-1.44456e-16
1.0803e-18
-8.25506e-17
-1.0905e-16
-8.20899e-17
7.21804e-17
7.40419e-17
-1.00333e-18
-2.11874e-17
2.45691e-17
4.89255e-16
-5.49574e-16
0
0
-1.75856e-16
0
0
0
1.06375e-16
0
0
7.65757e-17
2.25892e-18
2.61597e-17
-6.3595e-17
0
3.38304e-17
1.38548e-17
0
-3.09765e-16
5.89604e-16
0
0
1.81108e-16
0
-6.18596e-17
6.17971e-17
-1.08275e-16
4.32876e-17
-4.36042e-17
0
6.24068e-17
6.77483e-17
0
-3.89214e-17
-3.45397e-17
-1.21994e-17
7.89669e-16
-3.63612e-16
0
-2.26837e-16
2.24299e-16
0
1.45171e-16
0
0
0
3.77178e-17
-3.78987e-17
0
-4.86106e-17
-1.33807e-17
0
7.0435e-18
2.13256e-17
0
-2.00562e-16
0
0
2.27906e-16
-4.14907e-16
2.99175e-17
1.16482e-17
-5.48442e-17
8.56951e-18
3.44296e-18
-3.88457e-17
-5.825e-17
0
4.32074e-17
-9.25473e-18
9.39363e-18
2.74144e-17
-1.69971e-17
-7.47816e-18
1.54748e-16
-2.35651e-17
1.49176e-16
4.81424e-16
-3.61841e-17
-1.88588e-16
0
0
0
8.04947e-17
2.97445e-17
1.04589e-16
-2.50777e-17
-4.24344e-17
-2.3187e-17
-1.36683e-17
6.18971e-18
-1.37877e-17
7.04876e-18
-1.78815e-16
1.75697e-16
-3.17931e-16
-4.7611e-16
4.30013e-16
1.53816e-16
-2.76141e-16
2.23661e-16
-1.80699e-16
4.76012e-17
3.26233e-17
-2.86278e-17
1.56508e-17
-1.49308e-17
4.49242e-17
0
-3.49886e-18
2.65702e-17
-3.99769e-18
-1.19614e-15
5.38043e-16
4.0202e-19
-1.02289e-16
1.92222e-17
1.49399e-16
-2.78976e-16
-1.05157e-16
8.33222e-17
-6.55836e-17
-5.1916e-17
0
-5.36641e-17
-1.55552e-17
-2.60856e-17
-1.53307e-17
1.19547e-18
-1.51728e-17
7.42514e-19
1.95467e-16
-1.68498e-16
1.74454e-19
-1.19203e-16
-2.77033e-16
2.56051e-16
1.4207e-18
1.02476e-16
-8.11252e-17
1.25004e-16
2.86027e-17
2.17506e-17
6.05898e-17
0
4.63228e-17
2.11006e-17
0
7.77794e-18
5.66642e-19
0
1.63463e-16
1.17819e-16
-2.51423e-16
2.67894e-16
-3.86613e-16
2.60168e-16
8.62852e-17
-1.8308e-17
-1.25437e-16
1.98447e-17
-1.97468e-17
-5.32756e-17
1.94113e-17
-1.00963e-17
-2.00114e-17
8.03666e-18
-5.06007e-18
2.30684e-18
-1.81892e-16
5.85568e-16
-4.39388e-16
2.20965e-16
0
0
-4.65386e-17
1.02686e-16
-6.21965e-17
1.13848e-16
0
0
3.47244e-17
-2.89453e-17
-1.83464e-17
5.82238e-18
-6.31819e-18
3.42477e-18
0
2.04758e-17
1.70196e-16
-1.27104e-16
-1.0659e-16
-1.56711e-16
-3.93514e-17
6.78294e-17
0
-5.75046e-17
-4.169e-17
3.59501e-17
-2.66353e-17
1.96498e-17
0
7.24134e-18
1.25339e-17
0
0
0
-1.98352e-17
2.5036e-16
8.37714e-17
-3.23717e-16
8.22329e-17
6.6606e-17
0
0
5.32251e-17
-2.8203e-17
-3.47716e-17
2.57612e-17
-1.90028e-17
0
-4.0897e-18
3.07589e-18
0
-2.6021e-18
-9.25128e-19
-1.40314e-16
4.11955e-16
-4.83115e-16
-1.75579e-16
9.43999e-17
-6.16109e-17
4.77896e-17
0
-2.72471e-17
2.1196e-17
0
0
6.76666e-18
-6.77445e-18
1.71087e-18
-2.60491e-18
3.51988e-18
6.16836e-19
6.99795e-19
7.49924e-17
-6.49295e-17
3.11531e-16
-1.99091e-16
-7.30226e-17
1.26694e-17
1.0126e-16
3.35394e-17
2.60714e-17
0
1.15746e-17
-1.05593e-17
7.57027e-18
-5.83369e-18
6.30014e-18
-1.03221e-17
-2.72989e-18
2.32674e-18
5.78854e-19
1.95433e-16
-2.0085e-16
0
1.55737e-16
-8.4453e-17
-5.49419e-17
3.11297e-17
-1.05062e-16
0
-1.89387e-18
-1.43777e-17
-8.88283e-18
1.12332e-17
-1.177e-18
-6.08898e-18
4.1564e-18
0
1.28628e-18
-5.62062e-19
3.47588e-16
-5.81002e-17
2.29239e-16
-1.78491e-16
8.40473e-17
-9.46671e-20
-8.95848e-17
-2.51554e-17
4.32343e-17
-2.46573e-18
-1.92707e-17
1.5228e-17
-6.22845e-18
-6.88367e-18
0
0
0
-1.29672e-18
4.64771e-20
-3.00229e-16
2.89913e-16
2.00284e-19
3.86748e-17
3.09214e-17
-6.65259e-17
7.3796e-17
-5.4768e-17
4.26873e-17
-1.15639e-17
2.14816e-17
6.46593e-18
-2.52683e-18
1.21994e-19
-6.43236e-19
-1.14237e-18
0
0
0
0
0
1.27278e-16
-7.17236e-17
-1.81026e-16
0
0
-1.5874e-17
-2.27006e-17
1.70905e-17
0
-8.15472e-18
5.61721e-18
-1.62925e-17
1.81869e-17
-5.11232e-18
5.40592e-18
5.49531e-19
0
-5.80673e-17
5.8782e-17
0
-4.14911e-17
4.15282e-17
6.20751e-17
0
1.60256e-17
1.66566e-17
-7.91012e-17
0
-9.54218e-18
6.6393e-18
4.09276e-18
-2.74816e-18
3.76146e-18
0
-1.2263e-18
0
-2.9897e-17
-2.85568e-17
1.68711e-18
4.2631e-17
-1.06916e-16
0
-2.34756e-17
0
5.39075e-17
1.91868e-17
0
3.77962e-17
-3.6564e-17
4.38764e-18
-5.71312e-18
2.51857e-18
7.30135e-18
2.46628e-18
-1.9567e-18
0
6.06004e-17
-4.93773e-17
6.06e-17
6.64266e-17
0
4.70353e-17
-4.29357e-17
-2.92903e-17
3.85183e-17
-5.7222e-17
-2.40262e-17
0
0
3.7357e-18
0
0
9.0152e-19
0
-2.74452e-16
2.11939e-16
0
4.39335e-18
-3.78491e-17
-1.94665e-18
3.05268e-17
1.83926e-17
-2.55542e-17
-5.29547e-17
7.47938e-17
-2.07593e-17
0
-7.61168e-18
0
0
0
-3.52027e-18
2.82379e-18
-7.9003e-17
7.14382e-17
1.80328e-16
-1.73107e-16
5.06367e-17
3.75715e-18
-3.095e-17
2.4609e-17
3.84008e-17
2.63985e-17
-5.17067e-17
0
2.07796e-17
8.00202e-19
-8.71402e-18
-1.64512e-17
1.32588e-17
-1.76448e-18
3.51897e-18
-2.72373e-16
3.66718e-16
-3.60577e-16
5.97594e-17
4.71947e-17
-4.35905e-17
3.53345e-17
-2.5376e-17
0
-1.87833e-17
2.64291e-17
1.13028e-17
1.69691e-17
1.8409e-17
-2.68746e-17
-9.94546e-19
0
-1.53421e-18
5.24719e-19
-2.94442e-16
-8.33467e-17
-1.38123e-16
7.5213e-17
-1.11764e-16
9.13144e-17
-5.2846e-17
4.09566e-17
-3.98522e-18
-3.86184e-18
-2.93976e-17
1.82534e-17
-7.60445e-18
2.42873e-17
-2.60727e-17
2.30873e-18
2.4723e-18
0
-9.48305e-19
3.18357e-16
-9.02987e-17
0
0
-1.14759e-16
2.19269e-16
-4.92995e-17
-8.48479e-18
6.66633e-17
-1.90215e-18
0
0
-1.19745e-17
0
-2.37037e-17
5.51526e-17
-3.74549e-17
0
4.07231e-19
1.07086e-16
1.94471e-16
0
-7.77385e-17
-5.85634e-17
-4.79872e-17
-5.16698e-17
1.97122e-17
-5.33875e-17
-2.69529e-17
0
0
1.84015e-17
0
0
-3.38717e-17
5.63519e-17
0
0
7.35327e-16
-9.57573e-17
-4.26909e-16
-2.17214e-16
2.95985e-16
8.87546e-17
5.01003e-17
0
-1.67595e-17
1.51096e-17
3.79371e-17
-1.19183e-17
-1.61475e-17
2.45982e-17
-2.6165e-17
-7.33548e-18
0
0
0
5.88834e-17
-4.48294e-16
4.38114e-16
-4.03291e-17
-2.97003e-16
4.56481e-16
-2.24823e-16
0
0
1.03779e-16
-8.38292e-17
0
-2.29105e-17
4.04861e-17
-4.10864e-18
1.1367e-17
3.3619e-18
4.57425e-20
7.06402e-19
0
0
0
3.50211e-16
-2.35722e-16
2.31337e-16
-3.56996e-16
9.93496e-17
0
-3.28466e-17
5.02689e-17
-5.13778e-17
-9.47557e-18
1.65746e-19
-6.19076e-18
-8.03752e-19
-4.94414e-18
-1.41519e-18
-7.57888e-19
4.88624e-16
-8.61205e-16
4.03206e-16
0
9.96387e-17
-1.36297e-16
1.28825e-16
-1.02004e-16
0
-4.54133e-17
6.37223e-17
0
0
1.6093e-19
0
-6.79608e-18
4.60977e-18
7.51563e-19
1.22267e-18
4.84532e-16
0
-1.8041e-16
2.01263e-16
-1.19714e-16
2.58816e-16
-1.20545e-16
-8.9168e-17
9.00992e-17
-8.85296e-18
0
0
5.33068e-18
-8.63677e-18
-6.03997e-18
1.13683e-17
-2.45737e-18
1.22042e-18
0
2.74767e-16
2.06377e-16
-1.14324e-17
-1.92512e-16
-1.86938e-17
-1.30113e-16
1.69167e-17
1.0639e-16
-5.30516e-18
9.0192e-18
0
0
-5.46092e-18
0
6.30501e-18
-6.74485e-18
0
8.57785e-19
-2.3596e-19
-1.45771e-16
-1.03664e-16
9.71522e-17
-1.07307e-17
-4.70598e-18
1.23758e-17
0
-3.11471e-18
4.50101e-17
-3.78978e-17
0
1.2093e-17
-2.52053e-18
-1.05228e-17
-9.50154e-19
-7.35819e-19
0
-6.72182e-19
0
5.8521e-17
-1.10236e-16
-3.53782e-19
4.58684e-17
4.00892e-17
-3.97165e-17
-2.6836e-17
3.03293e-17
-9.94655e-18
7.815e-18
-7.26329e-18
7.48731e-18
0
1.84436e-20
-7.01819e-19
2.5135e-18
-8.55425e-21
0
0
5.8523e-17
-5.83037e-17
-4.56261e-17
4.0489e-17
7.07282e-17
-7.11457e-17
-1.34186e-17
1.34517e-17
-1.00317e-17
1.01365e-17
-7.26366e-18
1.3605e-17
-3.81639e-18
-2.68554e-18
-8.08852e-19
2.71594e-19
6.36446e-19
1.67516e-19
-1.25555e-19
0
-1.37337e-17
7.92798e-17
-8.6132e-17
7.04751e-17
-6.26018e-17
0
4.61174e-17
-4.13449e-17
0
1.43793e-17
-1.81525e-17
-1.00419e-17
1.05246e-17
1.88887e-18
0
0
-6.72369e-19
2.43849e-19
2.32703e-16
-4.24321e-16
4.23556e-16
-3.63239e-16
1.4131e-16
-1.13789e-16
1.0827e-16
1.22743e-17
-4.43352e-17
3.9541e-17
0
-2.68841e-17
2.45304e-17
-4.50448e-18
-1.85015e-18
2.82762e-18
2.06534e-18
6.52742e-19
-2.35613e-19
5.45674e-16
0
-2.04403e-16
1.59026e-16
1.84793e-17
-1.36372e-16
2.3833e-16
-2.05751e-16
7.97992e-17
-3.22956e-17
3.30574e-17
6.37841e-18
1.05155e-17
4.38741e-18
-3.49672e-18
-5.04146e-19
-4.45055e-18
0
4.37819e-19
4.283e-16
-4.82138e-16
0
4.16946e-17
1.72625e-16
-1.68051e-16
2.73509e-17
2.34819e-17
1.00985e-17
1.69822e-17
0
0
-1.81928e-17
3.32696e-17
-1.2015e-17
-4.21264e-18
4.61214e-18
3.64151e-19
-8.25828e-19
4.9989e-17
4.23802e-16
-4.70772e-17
-3.09015e-16
2.71753e-16
3.10975e-17
-2.67678e-17
-2.29348e-17
7.15047e-17
-8.85837e-17
5.0293e-17
-5.14018e-17
7.37493e-18
-9.97269e-18
1.69122e-17
-1.13484e-17
0
0
7.54086e-19
0
1.0471e-16
-3.0143e-16
3.45262e-16
-2.62118e-16
2.61494e-16
0
8.14686e-17
-8.18419e-17
-5.72615e-17
8.39085e-17
0
3.20267e-17
-4.05269e-17
-5.90015e-18
0
-6.1815e-19
-1.12873e-18
-7.97541e-20
-1.0187e-15
4.79231e-16
0
-2.95953e-16
2.95923e-16
1.69198e-16
-1.10819e-16
4.23265e-17
0
-1.74272e-18
1.14393e-17
-1.19057e-17
-1.61321e-17
2.45729e-17
-2.61292e-17
0
5.02051e-18
-8.80531e-19
-7.04326e-19
6.21168e-16
-6.05666e-16
0
7.69883e-17
6.72515e-17
-5.98059e-17
0
-4.43586e-17
-3.52919e-17
0
-2.68724e-18
0
1.84164e-17
0
0
6.80759e-18
2.50056e-17
-3.27409e-17
0
3.06479e-20
9.03446e-17
-8.03619e-17
6.03864e-17
-3.09433e-16
1.15568e-16
0
8.49278e-18
2.37283e-17
0
-2.20509e-17
5.76449e-17
-6.05593e-17
9.03602e-18
0
-1.54819e-18
0
0
0
4.53991e-20
0
7.42745e-17
0
-1.02549e-16
1.04179e-16
0
3.1854e-17
-2.36561e-17
8.21601e-17
-3.88466e-17
1.2314e-17
-1.85356e-17
1.61388e-17
-2.61197e-17
-4.00649e-18
0
-2.03733e-18
0
2.38307e-16
-4.03843e-16
0
-5.93275e-17
5.0498e-17
0
0
-5.73583e-17
0
-1.88027e-17
-2.64591e-17
-1.13177e-17
1.69942e-17
0
7.21608e-18
0
0
4.29045e-18
-4.5454e-18
0
3.39342e-16
-2.70548e-16
5.49238e-17
-4.67614e-17
-1.73986e-17
4.86492e-17
5.04939e-17
-5.57682e-17
1.77489e-17
2.34223e-18
-1.28053e-17
5.11664e-17
-1.56888e-17
-3.16264e-17
1.03204e-17
-2.26645e-18
1.38333e-18
-3.62422e-19
-5.77601e-16
2.12005e-16
0
0
1.90743e-17
-1.93964e-17
1.1462e-17
5.71409e-18
4.89702e-17
2.24011e-17
-2.13025e-17
-1.57531e-18
-9.60288e-18
7.62273e-18
0
2.95165e-18
2.07736e-18
9.77511e-19
3.27579e-19
0
1.7807e-16
-1.60153e-16
5.01234e-17
4.69284e-17
-8.8548e-18
-2.57089e-17
-2.02222e-17
-6.04711e-17
2.17795e-17
-1.06645e-17
1.64672e-17
8.97988e-18
-9.50213e-18
1.00859e-17
5.26081e-18
-7.16379e-18
-9.02876e-19
0
-3.32885e-17
-1.42771e-16
4.86425e-17
4.26442e-17
-1.35894e-16
9.42305e-17
4.04419e-17
-4.13378e-17
2.78037e-17
-2.06698e-17
0
0
-1.18679e-17
2.04794e-17
-8.5261e-18
6.77309e-18
-7.45841e-18
1.10671e-18
-1.95947e-18
6.15501e-17
5.54765e-17
-4.80426e-17
3.31551e-17
-4.13865e-17
-5.48511e-17
0
0
0
0
0
0
6.0228e-18
-1.39932e-17
1.47993e-17
-4.06937e-18
5.06694e-18
2.17277e-18
-1.82408e-18
1.29225e-16
-2.04426e-16
2.54569e-16
-1.05473e-16
1.47542e-16
-9.20744e-17
1.65327e-16
-8.77887e-17
-3.88644e-17
3.97565e-17
0
8.15036e-18
-5.88396e-18
1.23021e-17
-4.8628e-18
-5.1791e-18
-9.33315e-18
7.54146e-19
1.52549e-18
2.02052e-16
5.49606e-17
0
-7.71317e-17
-5.4876e-17
1.21041e-16
8.02658e-18
-4.11394e-17
2.30815e-17
-1.41052e-17
0
-6.45193e-18
0
-4.25448e-18
3.2335e-18
-2.65471e-18
-8.46699e-19
5.45485e-19
0
2.80903e-16
-5.80994e-17
2.29238e-16
-1.78619e-16
-3.27198e-17
1.16008e-16
-6.93827e-17
4.43741e-18
3.30456e-18
-1.38342e-17
1.28892e-17
0
0
5.45941e-18
-1.6269e-18
9.47644e-19
3.0617e-18
-1.0601e-18
0
5.37524e-20
0
-5.18932e-17
2.84607e-16
-1.89022e-16
-1.78624e-16
9.68307e-17
-8.57636e-17
7.7166e-17
3.36305e-17
-2.2723e-17
8.50125e-18
-7.17827e-18
1.50062e-18
9.54923e-18
8.92666e-20
-3.02908e-18
2.95288e-18
-6.23122e-19
6.73138e-16
-2.12316e-16
9.19253e-17
-2.89696e-16
7.30224e-17
-1.04643e-16
5.80287e-17
0
0
-2.00881e-18
-3.02189e-18
-8.77447e-19
0
-9.05895e-18
-6.30035e-18
4.29493e-18
-3.04206e-19
6.70263e-19
1.28954e-18
0
-2.06184e-16
3.2985e-16
6.14786e-17
-2.51307e-16
6.16108e-17
-8.58127e-17
1.97269e-17
6.4524e-17
0
0
1.08615e-18
9.41866e-18
0
-6.96146e-18
-2.89529e-18
4.37966e-19
-1.31745e-18
-1.62753e-18
0
-1.24975e-16
3.84064e-17
2.22369e-16
1.48803e-16
-2.66238e-16
1.16911e-16
-7.05615e-17
3.88702e-17
-4.65092e-17
0
0
0
-1.39691e-17
2.82082e-18
-4.10982e-18
0
-2.37283e-19
1.16659e-18
-5.01602e-16
4.70477e-16
4.69042e-16
-5.66561e-16
2.4265e-16
-2.24476e-16
0
7.54853e-17
-1.00182e-16
5.44743e-17
-3.82114e-17
2.87289e-17
2.15512e-17
1.44471e-17
1.06212e-17
0
0
0
0
5.65978e-16
-3.13665e-16
0
0
-9.09569e-17
2.04908e-16
-1.30109e-16
-8.08949e-17
7.9983e-17
5.23855e-17
8.16714e-17
-2.9809e-17
1.23672e-17
8.46027e-18
5.79253e-18
4.91358e-18
7.73469e-18
-3.70729e-19
3.77621e-19
-5.68534e-16
5.12256e-16
2.56139e-16
-1.3576e-16
2.67471e-16
-1.70328e-16
-1.23278e-16
-9.74706e-17
0
-1.10764e-16
7.64112e-18
3.57933e-17
-2.54121e-17
-1.94116e-17
-6.9299e-18
-6.7453e-18
-5.43073e-18
0
0
-1.95587e-16
0
1.42393e-16
-3.16619e-20
0
0
1.27166e-16
1.00576e-16
0
6.12041e-17
0
-5.4121e-17
-1.46718e-17
2.53779e-17
0
1.59476e-17
-2.20017e-18
2.24447e-18
0
4.21766e-16
0
2.69008e-16
-4.89188e-16
4.21074e-16
3.13979e-16
-1.39818e-17
0
9.79163e-18
7.52351e-17
0
-6.39509e-17
6.75381e-17
-5.90732e-17
-1.26528e-17
-1.26331e-17
-3.96204e-18
-7.55966e-19
-3.0628e-18
-3.82028e-16
5.47515e-16
-1.48153e-16
-3.71853e-16
-2.05434e-16
-1.68426e-16
-2.74181e-16
-1.00539e-16
1.14874e-17
3.26847e-17
-3.26233e-17
9.65006e-17
-4.21908e-17
8.11476e-17
-1.51162e-17
0
1.89344e-17
-1.17097e-17
3.00556e-18
8.67382e-16
-2.36084e-17
-6.17319e-16
4.81428e-16
-4.17684e-16
3.45878e-16
-1.50745e-17
-1.17271e-16
9.70167e-17
3.56062e-17
-5.85246e-18
-8.14824e-17
2.21354e-17
2.72956e-17
-7.54096e-18
7.62697e-18
-1.96114e-17
-3.67235e-18
-5.77418e-18
4.25807e-16
1.72639e-16
2.93047e-16
-2.46583e-16
-1.90049e-16
1.47739e-17
-1.31588e-16
3.15068e-16
1.41498e-17
1.33169e-16
7.55738e-17
-6.58517e-17
0
-4.32073e-17
0
0
3.30157e-17
1.38835e-17
6.66118e-18
3.93951e-16
0
2.88118e-16
2.44991e-16
-2.07828e-16
1.73232e-16
0
-1.22144e-16
-1.64827e-16
-1.37533e-16
-7.62427e-17
6.65963e-17
0
0
0
0
-3.10326e-17
-2.62788e-17
0
-7.7155e-16
0
-1.98514e-17
-1.77401e-17
3.19027e-16
-1.67935e-16
-7.47643e-17
-7.54703e-17
1.70576e-16
0
4.32873e-17
-4.44891e-18
4.25541e-17
0
0
5.86873e-17
-4.44111e-18
3.16053e-17
-1.35273e-17
5.3928e-16
1.48716e-16
-1.47181e-16
-1.24724e-16
-4.09684e-16
2.72008e-16
3.1676e-16
-1.26905e-17
-1.18931e-16
1.21388e-16
2.48014e-17
-1.29824e-16
-1.02595e-16
-6.89441e-17
-7.41329e-17
-6.78104e-17
6.23353e-17
-2.89397e-18
1.38548e-17
-1.63653e-16
7.20546e-17
-3.4288e-16
5.54347e-17
-5.52331e-17
0
-1.5915e-16
-1.68312e-17
-1.47818e-16
1.91216e-17
1.44455e-16
1.01839e-16
-2.62711e-17
4.81147e-18
7.01126e-17
0
-1.33717e-16
-5.17157e-17
-1.06092e-18
3.39295e-16
-8.81798e-18
5.39785e-16
-2.50911e-16
6.70166e-19
6.35362e-18
1.88236e-16
-2.13366e-17
1.43359e-16
-1.33882e-16
-1.26607e-16
0
1.38487e-16
1.0686e-16
1.58678e-18
-2.32335e-18
7.41117e-17
5.25534e-17
0
-2.39843e-16
0
-5.09688e-17
2.40825e-16
4.51436e-18
5.36957e-17
-1.82021e-16
1.70236e-16
1.88095e-16
1.81063e-16
1.75688e-16
0
-1.34538e-16
0
7.69587e-18
-7.99284e-18
0
-8.03941e-19
4.02503e-17
1.69872e-16
1.18146e-17
-1.23849e-16
3.8712e-16
-1.22661e-16
0
0
-2.20417e-16
-1.82245e-16
-1.7541e-16
-3.29077e-16
-4.62413e-17
0
0
0
-1.64998e-17
1.74609e-17
1.14328e-16
-4.08766e-17
1.24057e-17
0
-2.76748e-16
-2.45503e-16
2.62177e-16
-2.61095e-16
-3.7075e-16
4.44975e-16
1.29821e-16
0
1.98106e-16
2.34707e-16
-5.06557e-17
2.78927e-16
-4.59622e-17
4.78355e-17
1.8899e-16
-1.08648e-16
0
-3.23125e-16
0
-3.05803e-16
2.9823e-16
0
5.23308e-16
2.43001e-16
-5.19674e-16
4.24184e-16
-2.18984e-18
-1.2659e-16
-2.27244e-16
0
3.27452e-16
-5.44686e-16
5.85985e-16
-7.47123e-16
0
0
3.22561e-16
-2.90435e-18
-7.11122e-18
-6.06484e-16
6.15448e-16
-2.95271e-16
2.94068e-16
2.89935e-16
-2.48942e-16
0
0
4.90362e-16
-4.9881e-16
-5.27317e-16
5.2452e-16
-5.12341e-16
5.55249e-16
-8.70863e-16
0
)
;

boundaryField
{
    up
    {
        type            calculated;
        value           nonuniform List<scalar> 
84
(
0
0
0
0
-2.88683e-17
5.14382e-17
-2.11874e-17
1.38548e-17
-1.21994e-17
0
-7.47816e-18
7.04876e-18
-3.99769e-18
7.42514e-19
5.66642e-19
2.30684e-18
0
0
-9.25128e-19
6.99795e-19
5.78854e-19
-5.62062e-19
4.64771e-20
0
2.15834e-19
1.23638e-19
-1.82034e-18
0
2.82379e-18
3.79034e-18
5.24719e-19
-9.48305e-19
4.07231e-19
0
-1.8031e-19
7.20085e-19
-7.50077e-19
1.21594e-18
0
-2.34394e-19
0
0
-1.25457e-19
2.43849e-19
-2.35613e-19
4.37819e-19
-8.25828e-19
7.54086e-19
-7.97541e-20
-7.04326e-19
0
0
0
-4.5454e-18
-6.34342e-19
3.27579e-19
0
-1.95947e-18
-1.82408e-18
1.31025e-18
0
0
-6.23122e-19
1.28954e-18
-1.62753e-18
1.16659e-18
0
3.77621e-19
0
0
-3.0628e-18
3.00556e-18
-5.77418e-18
6.66118e-18
0
-1.35273e-17
1.38548e-17
-1.06092e-18
0
4.02503e-17
-4.08766e-17
0
0
0
)
;
    }
    low
    {
        type            calculated;
        value           nonuniform List<scalar> 
84
(
-6.46033e-16
6.41878e-16
-3.09437e-16
4.94247e-16
8.74274e-17
-2.27231e-17
1.89885e-16
2.59949e-17
0
7.9132e-16
-2.00562e-16
1.53779e-16
-1.78815e-16
-1.19631e-15
1.95467e-16
0
-1.81892e-16
2.04758e-17
-1.98352e-17
-1.40314e-16
7.49924e-17
1.95433e-16
3.45987e-16
-3.00229e-16
0
-5.80673e-17
-2.9897e-17
0
-2.74452e-16
-7.9003e-17
-2.71414e-16
-2.93741e-16
3.17954e-16
1.07086e-16
7.35544e-16
5.88834e-17
0
4.88624e-16
4.85891e-16
2.75492e-16
-1.46151e-16
5.8521e-17
5.8523e-17
0
2.32703e-16
5.47033e-16
4.283e-16
5.09983e-17
0
-1.01892e-15
6.21168e-16
3.06479e-20
4.53991e-20
2.38307e-16
0
-5.759e-16
0
-3.32885e-17
6.15501e-17
1.28192e-16
2.00287e-16
2.79302e-16
5.37524e-20
6.71912e-16
0
0
-5.01602e-16
5.65528e-16
-5.68303e-16
-1.95587e-16
4.21936e-16
-3.82028e-16
8.6932e-16
4.27111e-16
3.93951e-16
-7.7155e-16
5.37854e-16
-1.62143e-16
3.39295e-16
-2.39215e-16
1.69872e-16
1.35827e-17
-3.23125e-16
3.22882e-16
)
;
    }
    left
    {
        type            calculated;
        value           nonuniform List<scalar> 
19
(
-6.45391e-16
-3.11541e-16
3.19073e-16
9.54297e-18
-6.00711e-16
0
-2.75867e-16
-2.72076e-16
-2.29619e-17
-1.45416e-16
-1.06387e-18
-1.45404e-16
6.51634e-16
-1.44627e-16
6.74167e-16
5.83054e-16
3.47165e-16
5.10153e-16
0
)
;
    }
    right
    {
        type            calculated;
        value           nonuniform List<scalar> 
19
(
3.22561e-16
-2.59118e-18
-7.11122e-18
-6.0653e-16
6.15717e-16
-2.95271e-16
2.94068e-16
2.89935e-16
-2.479e-16
0
0
4.94944e-16
-5.05173e-16
-5.27317e-16
5.2452e-16
-5.12341e-16
5.55249e-16
-9.4163e-16
0
)
;
    }
    frontAndBackPlanes
    {
        type            empty;
    }
}


// ************************************************************************* //
