/*--------------------------------*- C++ -*----------------------------------*\
  =========                 |
  \\      /  F ield         | OpenFOAM: The Open Source CFD Toolbox
   \\    /   O peration     | Website:  https://openfoam.org
    \\  /    A nd           | Version:  7
     \\/     M anipulation  |
\*---------------------------------------------------------------------------*/
FoamFile
{
    version     2.0;
    format      ascii;
    class       volScalarField;
    location    "0.15";
    object      T;
}
// * * * * * * * * * * * * * * * * * * * * * * * * * * * * * * * * * * * * * //

dimensions      [0 0 0 1 0 0 0];

internalField   nonuniform List<scalar> 
1596
(
3.98505
3.94238
3.89941
3.86002
3.82555
3.79597
3.77079
3.74855
3.72811
3.70682
3.68262
3.65261
3.61101
3.55024
3.45912
3.31364
3.06976
2.63977
1.84778
3.93562
3.80338
3.68077
3.57176
3.4774
3.39681
3.32833
3.26875
3.21511
3.16226
3.10575
3.04003
2.95589
2.84261
2.68758
2.46862
2.15277
1.68447
0.958919
3.87792
3.65689
3.46151
3.29144
3.14563
3.02187
2.91727
2.82751
2.74843
2.67374
2.59787
2.51421
2.41296
2.28334
2.11399
1.88731
1.58066
1.16074
0.566617
3.82221
3.51968
3.2597
3.03657
2.84663
2.68623
2.55144
2.43722
2.33869
2.24911
2.16246
2.07186
1.96783
1.84037
1.67965
1.47177
1.20095
0.846906
0.374031
3.77757
3.40649
3.09112
2.82217
2.59399
2.40186
2.24109
2.10622
1.99198
1.89151
1.7987
1.7067
1.60659
1.48921
1.3459
1.16529
0.935604
0.643685
0.267814
3.74933
3.32644
2.96555
2.65729
2.3955
2.17503
1.99086
1.83738
1.70916
1.5994
1.50207
1.41043
1.31612
1.21072
1.08638
0.933339
0.742113
0.503233
0.20242
3.73741
3.28071
2.88463
2.5433
2.25176
2.00541
1.79934
1.6281
1.48631
1.36733
1.26526
1.17353
1.08429
0.989706
0.882495
0.753952
0.595923
0.400807
0.158257
3.73766
3.26368
2.84272
2.47457
2.15707
1.887
1.66018
1.47159
1.31609
1.18731
1.07952
0.986323
0.900304
0.81411
0.720902
0.612724
0.482236
0.322808
0.126183
3.74629
3.2684
2.83194
2.44305
2.10331
1.81169
1.56523
1.35967
1.19028
1.05104
0.9364
0.840183
0.755313
0.674842
0.59229
0.50029
0.392076
0.261563
0.101661
3.75634
3.28261
2.83849
2.43492
2.07726
1.76698
1.50273
1.28125
1.09843
0.948653
0.826621
0.726329
0.641008
0.564051
0.489286
0.409842
0.319415
0.212309
0.082183
3.76383
3.29692
2.85044
2.4376
2.06654
1.74112
1.4617
1.22616
1.03114
0.871513
0.74223
0.637481
0.550761
0.475747
0.406545
0.336721
0.260394
0.172202
0.0663725
3.77232
3.31334
2.86705
2.44818
2.06694
1.72914
1.43677
1.1889
0.982952
0.814287
0.67815
0.5689
0.480234
0.406057
0.340703
0.278117
0.212794
0.139697
0.05353
3.77973
3.32858
2.88365
2.46082
2.07181
1.72405
1.42094
1.16265
0.947342
0.77087
0.628735
0.515439
0.424826
0.350967
0.28837
0.231294
0.174569
0.113465
0.0431272
3.78343
3.33772
2.89419
2.46875
2.07406
1.71872
1.40728
1.14082
0.918164
0.735588
0.588808
0.472426
0.380383
0.30686
0.246497
0.193808
0.143914
0.0923754
0.0347428
3.78596
3.34303
2.89967
2.47171
2.07231
1.71094
1.393
1.12029
0.892132
0.705125
0.555119
0.436755
0.344011
0.271123
0.212813
0.163795
0.119435
0.0755506
0.0280549
3.7881
3.34608
2.90131
2.47007
2.06609
1.69948
1.37629
1.09884
0.866786
0.676904
0.525069
0.405882
0.313286
0.241515
0.185326
0.139583
0.0998474
0.0621642
0.0227588
3.78873
3.34571
2.89802
2.46259
2.05382
1.68245
1.35502
1.0742
0.839793
0.648594
0.49638
0.377609
0.286124
0.216103
0.1623
0.119688
0.083991
0.0514503
0.0185633
3.78843
3.3427
2.89064
2.44996
2.03589
1.65984
1.32881
1.04566
0.810198
0.61906
0.467791
0.350604
0.261166
0.193547
0.142467
0.102978
0.0709429
0.0427777
0.0152186
3.79016
3.34181
2.88427
2.437
2.01648
1.63505
1.30021
1.015
0.779077
0.588808
0.439355
0.324572
0.237867
0.173141
0.125045
0.0886821
0.0600301
0.0356622
0.0125245
3.79304
3.34298
2.87957
2.4247
1.99666
1.60901
1.26993
0.982653
0.746616
0.557785
0.410815
0.299092
0.215679
0.154255
0.109366
0.0761506
0.0506876
0.0296965
0.0103129
3.79498
3.34349
2.8743
2.41148
1.97541
1.58112
1.23765
0.948428
0.712665
0.525828
0.381955
0.273872
0.194233
0.136453
0.0949537
0.0649016
0.0424815
0.0245613
0.00845166
3.79734
3.3448
2.87008
2.39924
1.95479
1.55347
1.20529
0.914021
0.678608
0.493977
0.353481
0.249319
0.173682
0.119686
0.0816104
0.0546464
0.0350965
0.0199982
0.006833
3.80078
3.34826
2.86857
2.38989
1.93693
1.52826
1.17502
0.881382
0.646089
0.463519
0.326312
0.226006
0.154305
0.103999
0.0692037
0.0451238
0.0281932
0.015674
0.00529467
3.80498
3.3537
2.86993
2.38399
1.92282
1.50683
1.14836
0.852058
0.616514
0.435606
0.301291
0.20446
0.136343
0.0893976
0.0575568
0.0360076
0.0213036
0.0109859
0.00328374
3.81266
3.37132
2.89305
2.40878
1.94633
1.52715
1.16456
0.864006
0.62458
0.440423
0.303583
0.204927
0.135593
0.0879198
0.0557142
0.0340419
0.0194013
0.00938471
0.00243663
3.8216
3.39639
2.93173
2.45738
2.0005
1.58252
1.2174
0.911546
0.665176
0.473463
0.32925
0.223993
0.149147
0.0971619
0.0617797
0.0378805
0.0217163
0.0106394
0.00286651
3.82646
3.41302
2.96045
2.49666
2.04741
1.63336
1.26843
0.959562
0.707833
0.509408
0.358023
0.245878
0.164947
0.107982
0.0688149
0.0422161
0.0242131
0.0118992
0.00324946
3.82731
3.42072
2.97813
2.52511
2.08535
1.678
1.31627
1.00709
0.752086
0.548253
0.390249
0.271137
0.183599
0.120906
0.0771979
0.0472781
0.0270111
0.0132198
0.00360535
3.82574
3.42252
2.98834
2.54629
2.11749
1.71912
1.36311
1.05599
0.799576
0.591556
0.427456
0.301256
0.206471
0.137086
0.0877867
0.0536279
0.0304356
0.0147685
0.00399066
3.82214
3.42035
2.99405
2.56343
2.14688
1.75926
1.411
1.10787
0.851691
0.640633
0.471004
0.337676
0.235027
0.157872
0.101662
0.0619878
0.0348827
0.0167248
0.00445788
3.81777
3.41744
2.99939
2.58087
2.1775
1.80185
1.46271
1.16497
0.910283
0.697158
0.522571
0.382188
0.271179
0.185167
0.120484
0.0735445
0.0409938
0.0193313
0.00506264
3.81547
3.4183
3.00934
2.60342
2.2137
1.85057
1.52124
1.22972
0.977381
0.762983
0.584045
0.436904
0.317359
0.221672
0.146945
0.090527
0.050132
0.023064
0.00583663
3.81398
3.42126
3.02232
2.62975
2.25435
1.90449
1.58587
1.30161
1.05281
0.838361
0.656238
0.503352
0.375978
0.270763
0.18523
0.117344
0.0659264
0.0298155
0.00683288
3.81308
3.42609
3.03824
2.65988
2.29955
1.96376
1.65681
1.38097
1.13705
0.924047
0.740337
0.583381
0.449877
0.336721
0.24149
0.162098
0.0975939
0.0478731
0.0123297
3.81171
3.42917
3.05065
2.68461
2.33766
2.01468
1.71875
1.45138
1.21306
1.00277
0.819199
0.660232
0.522992
0.404664
0.302827
0.214979
0.139396
0.0753987
0.0225007
3.80679
3.42181
3.046
2.68599
2.34683
2.03203
1.74372
1.48272
1.24913
1.04175
0.859334
0.699921
0.560874
0.439654
0.334118
0.241856
0.161034
0.0904663
0.0287472
3.79936
3.40767
3.03052
2.67263
2.33756
2.02777
1.74452
1.48804
1.25804
1.0531
0.871874
0.712471
0.572359
0.449208
0.341197
0.246263
0.163024
0.0907957
0.028518
3.79377
3.39727
3.01947
2.66358
2.33202
2.02637
1.74725
1.49441
1.26726
1.0642
0.883863
0.724414
0.583432
0.458767
0.348844
0.251824
0.166561
0.0926132
0.0290581
3.79053
3.39114
3.01314
2.65887
2.32997
2.02742
1.75134
1.50115
1.27603
1.07426
0.894442
0.734806
0.593015
0.467055
0.355531
0.256767
0.169788
0.0943392
0.0296103
3.78828
3.38692
3.00887
2.65583
2.32892
2.02865
1.75479
1.50651
1.28285
1.08197
0.902487
0.742664
0.600229
0.473267
0.360521
0.260433
0.17216
0.0955951
0.0300142
3.78659
3.38369
3.00552
2.65331
2.32776
2.02904
1.75671
1.50974
1.28708
1.08682
0.907571
0.747637
0.604783
0.477161
0.363612
0.262658
0.173551
0.0962944
0.0302298
3.78468
3.38041
3.00215
2.65051
2.32584
2.02812
1.75674
1.5106
1.28858
1.08876
0.909748
0.749852
0.606868
0.478983
0.365085
0.263739
0.174242
0.0966534
0.030348
3.78468
3.38043
3.00218
2.65054
2.32587
2.02815
1.75678
1.51064
1.28862
1.0888
0.909779
0.749881
0.606894
0.479006
0.365103
0.263754
0.174253
0.0966597
0.0303502
3.78661
3.38374
3.00559
2.6534
2.32786
2.02915
1.75682
1.50985
1.28718
1.08692
0.907667
0.747725
0.604862
0.47723
0.363669
0.262704
0.173584
0.0963147
0.0302369
3.78831
3.387
3.00899
2.65598
2.32908
2.02882
1.75497
1.50669
1.28302
1.08213
0.90264
0.742805
0.600355
0.473376
0.360612
0.260506
0.172212
0.0956265
0.0300251
3.79057
3.39124
3.0133
2.65906
2.33019
2.02765
1.75158
1.50138
1.27626
1.07448
0.894647
0.734994
0.593183
0.4672
0.355652
0.256863
0.169856
0.0943806
0.0296245
3.79382
3.3974
3.01966
2.66382
2.33229
2.02666
1.74754
1.4947
1.26754
1.06447
0.884116
0.724645
0.583637
0.458944
0.348991
0.25194
0.166644
0.092663
0.0290751
3.79942
3.40782
3.03074
2.6729
2.33787
2.0281
1.74486
1.48838
1.25837
1.05341
0.872167
0.712737
0.572594
0.449409
0.341363
0.246391
0.163114
0.0908487
0.0285355
3.80685
3.42198
3.04625
2.68631
2.34718
2.03241
1.74411
1.48311
1.2495
1.04211
0.859662
0.700216
0.56113
0.439868
0.334288
0.241981
0.161116
0.0905105
0.0287606
3.81179
3.42942
3.05105
2.68512
2.33827
2.01535
1.71947
1.45212
1.21379
1.00348
0.819879
0.660871
0.523584
0.405207
0.303319
0.215412
0.139757
0.0756554
0.0226064
3.81318
3.42638
3.03871
2.66049
2.30028
1.96457
1.65767
1.38185
1.13793
0.924892
0.741139
0.584127
0.450562
0.337337
0.24203
0.16255
0.0979388
0.048091
0.0124062
3.81407
3.42152
3.02273
2.6303
2.25499
1.9052
1.58662
1.30237
1.05355
0.839064
0.656888
0.503939
0.376497
0.271206
0.185591
0.117614
0.066102
0.0299019
0.00685036
3.81554
3.41854
3.00972
2.60394
2.21432
1.85125
1.52195
1.23042
0.97806
0.763615
0.584615
0.437405
0.317786
0.22202
0.147212
0.0907128
0.0502434
0.0231159
0.00584899
3.81784
3.41766
2.99975
2.58135
2.17808
1.80249
1.46337
1.16562
0.9109
0.697722
0.523068
0.382613
0.271528
0.185441
0.120686
0.0736793
0.0410729
0.0193688
0.00507207
3.8222
3.42055
2.99438
2.56389
2.14742
1.75986
1.41161
1.10847
0.852247
0.641131
0.471435
0.338034
0.235314
0.15809
0.101818
0.0620899
0.0349424
0.0167536
0.00446539
3.82579
3.4227
2.98865
2.54671
2.11799
1.71966
1.36367
1.05652
0.800069
0.591992
0.427825
0.301557
0.206706
0.137261
0.0879094
0.0537076
0.0304825
0.0147916
0.00399688
3.82735
3.42088
2.9784
2.52549
2.08579
1.67849
1.31676
1.00757
0.752517
0.548628
0.390562
0.271388
0.183792
0.121048
0.0772962
0.0473421
0.0270492
0.013239
0.00361078
3.8265
3.41316
2.96069
2.49699
2.04781
1.63379
1.26886
0.959974
0.708205
0.509728
0.358287
0.246087
0.165106
0.108097
0.0688954
0.0422691
0.0242454
0.0119161
0.00325458
3.82163
3.3965
2.93194
2.45767
2.00084
1.58289
1.21777
0.911898
0.665491
0.473733
0.329471
0.224168
0.14928
0.0972588
0.0618477
0.037926
0.0217449
0.0106551
0.00287176
3.81266
3.37134
2.8931
2.40886
1.94643
1.52725
1.16467
0.864114
0.624679
0.44051
0.303656
0.204986
0.135638
0.0879523
0.0557361
0.034055
0.0194076
0.00938626
0.00243592
3.80496
3.35367
2.86988
2.38393
1.92275
1.50676
1.14829
0.851995
0.616461
0.435563
0.301257
0.204435
0.136323
0.0893826
0.0575451
0.0359981
0.0212959
0.01098
0.0032806
3.80078
3.34825
2.86856
2.38988
1.93692
1.52826
1.17502
0.881387
0.646096
0.463528
0.326321
0.226015
0.154313
0.104006
0.0692087
0.0451273
0.0281954
0.015675
0.00529475
3.79734
3.34479
2.87007
2.39923
1.95478
1.55347
1.20529
0.914025
0.678614
0.493984
0.353488
0.249325
0.173687
0.119691
0.0816138
0.0546489
0.0350981
0.0199991
0.00683318
3.79498
3.34348
2.87429
2.41148
1.97541
1.58112
1.23765
0.948431
0.71267
0.525833
0.38196
0.273876
0.194237
0.136456
0.0949563
0.0649036
0.042483
0.0245621
0.00845189
3.79304
3.34298
2.87957
2.42469
1.99666
1.60901
1.26994
0.982656
0.746619
0.557789
0.410819
0.299096
0.215682
0.154258
0.109369
0.0761526
0.0506892
0.0296974
0.0103132
3.79016
3.3418
2.88427
2.437
2.01648
1.63505
1.30021
1.015
0.77908
0.588811
0.439357
0.324575
0.237869
0.173144
0.125047
0.0886844
0.0600319
0.0356633
0.0125248
3.78843
3.3427
2.89064
2.44996
2.03589
1.65984
1.32881
1.04566
0.810199
0.619062
0.467793
0.350607
0.261169
0.19355
0.14247
0.102981
0.0709449
0.0427789
0.0152189
3.78873
3.34571
2.89802
2.46259
2.05383
1.68245
1.35502
1.0742
0.839795
0.648596
0.496381
0.377611
0.286127
0.216106
0.162303
0.119691
0.0839931
0.0514515
0.0185636
3.7881
3.34608
2.90131
2.47007
2.06609
1.69948
1.37629
1.09884
0.866787
0.676905
0.525071
0.405884
0.313289
0.241518
0.185329
0.139586
0.0998494
0.0621652
0.022759
3.78596
3.34303
2.89967
2.47171
2.07232
1.71094
1.393
1.12029
0.892133
0.705126
0.555121
0.436758
0.344014
0.271126
0.212816
0.163798
0.119436
0.0755512
0.028055
3.78343
3.33772
2.8942
2.46876
2.07406
1.71872
1.40728
1.14082
0.918164
0.735589
0.58881
0.472429
0.380386
0.306863
0.2465
0.193809
0.143915
0.0923755
0.0347427
3.77973
3.32858
2.88365
2.46082
2.07181
1.72405
1.42094
1.16265
0.947343
0.770871
0.628737
0.515441
0.424829
0.350969
0.288372
0.231294
0.174569
0.113464
0.043127
3.77232
3.31334
2.86705
2.44818
2.06694
1.72914
1.43677
1.1889
0.982952
0.814287
0.678151
0.568901
0.480235
0.406057
0.340703
0.278115
0.212792
0.139695
0.0535296
3.76383
3.29692
2.85044
2.4376
2.06655
1.74112
1.4617
1.22616
1.03114
0.871513
0.74223
0.637481
0.55076
0.475745
0.406542
0.336718
0.260391
0.1722
0.0663723
3.75634
3.28262
2.83849
2.43493
2.07726
1.76698
1.50273
1.28125
1.09842
0.948651
0.826619
0.726326
0.641005
0.564047
0.489282
0.409837
0.319411
0.212307
0.0821831
3.74629
3.2684
2.83194
2.44305
2.10331
1.81169
1.56523
1.35966
1.19028
1.05103
0.936397
0.840179
0.755307
0.674836
0.592283
0.500284
0.392072
0.261562
0.101661
3.73766
3.26368
2.84272
2.47457
2.15706
1.88699
1.66017
1.47159
1.31609
1.18731
1.07951
0.986317
0.900297
0.814103
0.720894
0.612718
0.482233
0.322807
0.126183
3.73741
3.28071
2.88463
2.54329
2.25176
2.0054
1.79934
1.6281
1.4863
1.36732
1.26525
1.17352
1.08428
0.989698
0.882488
0.753947
0.59592
0.400807
0.158258
3.74933
3.32644
2.96554
2.65729
2.39549
2.17503
1.99086
1.83737
1.70916
1.5994
1.50206
1.41042
1.31611
1.21072
1.08638
0.933336
0.742113
0.503234
0.202421
3.77757
3.40649
3.09112
2.82216
2.59398
2.40185
2.24108
2.10621
1.99197
1.8915
1.79869
1.7067
1.60658
1.48921
1.3459
1.16529
0.935606
0.643687
0.267815
3.82221
3.51968
3.2597
3.03657
2.84663
2.68623
2.55144
2.43722
2.33869
2.2491
2.16245
2.07186
1.96782
1.84037
1.67965
1.47178
1.20095
0.846908
0.374031
3.87792
3.65689
3.46151
3.29144
3.14563
3.02187
2.91726
2.8275
2.74842
2.67373
2.59786
2.51421
2.41296
2.28334
2.11399
1.88731
1.58067
1.16074
0.566617
3.93562
3.80338
3.68077
3.57176
3.4774
3.39681
3.32833
3.26875
3.2151
3.16226
3.10575
3.04002
2.95589
2.84262
2.68759
2.46862
2.15277
1.68447
0.958918
3.98505
3.94238
3.89941
3.86002
3.82555
3.79597
3.77079
3.74855
3.72811
3.70682
3.68262
3.65261
3.61101
3.55024
3.45912
3.31364
3.06976
2.63977
1.84778
)
;

boundaryField
{
    up
    {
        type            fixedValue;
        value           uniform 0;
    }
    low
    {
        type            fixedValue;
        value           uniform 4;
    }
    left
    {
        type            fixedValue;
        value           uniform 4;
    }
    right
    {
        type            fixedValue;
        value           uniform 4;
    }
    frontAndBackPlanes
    {
        type            empty;
    }
}


// ************************************************************************* //
