/*--------------------------------*- C++ -*----------------------------------*\
  =========                 |
  \\      /  F ield         | OpenFOAM: The Open Source CFD Toolbox
   \\    /   O peration     | Website:  https://openfoam.org
    \\  /    A nd           | Version:  7
     \\/     M anipulation  |
\*---------------------------------------------------------------------------*/
FoamFile
{
    version     2.0;
    format      ascii;
    class       volScalarField;
    location    "0.214";
    object      gradTz;
}
// * * * * * * * * * * * * * * * * * * * * * * * * * * * * * * * * * * * * * //

dimensions      [0 -1 0 1 0 0 0];

internalField   nonuniform List<scalar> 
1596
(
-4.84085e-16
-2.34903e-16
2.39178e-16
5.64099e-18
-4.54331e-16
0
-2.1135e-16
-2.08415e-16
-1.45066e-17
-1.10166e-16
-9.58951e-19
-1.0974e-16
4.83954e-16
-1.08692e-16
5.076e-16
4.38254e-16
2.60741e-16
3.29453e-16
0
4.83139e-16
0
6.77555e-16
-5.07155e-18
-2.06284e-16
2.04351e-16
4.23168e-16
1.38705e-17
2.00105e-16
-9.66096e-17
1.92908e-16
-2.78416e-18
-2.6783e-16
-1.6753e-16
-4.10326e-16
-4.00575e-16
-3.64591e-16
2.07652e-16
0
-2.36112e-16
0
-4.40308e-16
8.04685e-18
4.00617e-16
-1.14025e-16
9.52049e-18
-2.7692e-18
-2.74253e-18
-2.8697e-18
7.17517e-17
0
1.38913e-16
3.93478e-16
-3.88327e-17
3.13987e-17
7.37739e-17
1.1569e-16
0
3.71943e-16
-1.1067e-16
1.10266e-16
0
-1.057e-16
-1.09857e-16
1.84492e-16
-1.59195e-16
0
0
-5.96169e-17
3.74871e-17
0
-1.15558e-16
-1.46562e-16
1.018e-16
-1.05596e-16
-5.42755e-18
0
6.50996e-17
1.71144e-16
-1.5271e-16
0
-4.45524e-17
-1.35976e-16
0
2.01988e-16
-2.00012e-17
-1.8119e-17
-1.93045e-17
1.04425e-16
1.292e-16
1.35412e-17
5.93777e-18
-1.10062e-16
5.53508e-18
5.10577e-17
-2.20883e-17
-1.69053e-17
-2.3467e-16
2.21379e-16
-1.91071e-16
-4.35899e-19
-1.66256e-16
4.66999e-18
-4.68549e-18
-1.29544e-16
0
-1.60914e-17
-1.23647e-16
-1.16655e-16
9.39553e-17
9.9557e-17
-1.35385e-18
-5.97307e-17
-5.17871e-17
3.96947e-17
1.41281e-16
-2.38588e-16
2.64617e-16
1.46855e-16
0
1.27885e-16
7.42714e-17
-3.56493e-17
1.64087e-16
-3.06393e-17
-1.30588e-16
1.13135e-18
-7.66964e-17
-9.43867e-17
-7.30723e-17
6.27237e-17
6.02564e-17
-8.07826e-19
-1.65049e-17
1.51951e-17
3.79672e-16
-4.41303e-16
0
0
-1.5626e-16
0
0
0
1.04417e-16
0
0
7.05544e-17
2.49162e-18
2.04666e-17
-5.49481e-17
0
2.92405e-17
1.15615e-17
0
-2.4459e-16
4.69332e-16
0
0
1.60927e-16
0
-5.97849e-17
5.97245e-17
-1.06281e-16
4.38322e-17
-4.41528e-17
0
6.36247e-17
6.37135e-17
0
-3.67302e-17
-2.98718e-17
-1.01216e-17
5.98511e-16
-2.78866e-16
0
-1.91107e-16
1.88969e-16
0
1.35266e-16
0
0
0
3.98704e-17
-4.00616e-17
0
-4.92476e-17
-1.39602e-17
0
4.67657e-18
2.07269e-17
0
-1.51936e-16
0
0
1.91561e-16
-3.55144e-16
2.02038e-17
7.71778e-18
-5.45062e-17
6.66957e-18
2.56277e-18
-4.15532e-17
-6.57295e-17
0
4.9536e-17
-1.00931e-17
1.02446e-17
2.75475e-17
-1.63338e-17
-7.42976e-18
1.23633e-16
-1.48133e-17
1.18834e-16
3.99752e-16
-2.38725e-17
-1.64485e-16
0
0
0
8.55974e-17
3.36456e-17
1.2068e-16
-2.90985e-17
-4.86499e-17
-2.83363e-17
-1.57832e-17
7.06301e-18
-1.54604e-17
7.05095e-18
-1.38499e-16
1.35804e-16
-2.49522e-16
-3.94945e-16
3.63138e-16
1.39883e-16
-2.56673e-16
2.18306e-16
-1.85513e-16
4.85071e-17
3.61666e-17
-3.26222e-17
2.02738e-17
-1.85913e-17
5.48362e-17
0
-4.1804e-18
3.10466e-17
-4.63038e-18
-9.05802e-16
4.13378e-16
3.29608e-19
-8.72036e-17
1.25972e-17
1.35763e-16
-2.56663e-16
-1.03258e-16
8.64328e-17
-7.20001e-17
-6.02774e-17
0
-6.72281e-17
-1.9898e-17
-3.50775e-17
-2.08292e-17
1.63597e-18
-1.90071e-17
5.5675e-19
1.48041e-16
-1.30609e-16
2.37419e-19
-9.79716e-17
-2.39423e-16
2.24407e-16
1.10088e-18
1.00625e-16
-8.41537e-17
1.37723e-16
3.23986e-17
2.6061e-17
7.84969e-17
0
6.40762e-17
2.94386e-17
0
1.02049e-17
4.59058e-19
0
1.26706e-16
9.70871e-17
-2.03469e-16
2.31838e-16
-3.44052e-16
2.39982e-16
8.73414e-17
-1.44332e-17
-1.36568e-16
2.40995e-17
-2.39806e-17
-7.07636e-17
2.75099e-17
-1.39662e-17
-2.89599e-17
1.22946e-17
-7.67504e-18
3.14084e-18
-1.37875e-16
4.60657e-16
-3.43927e-16
1.82811e-16
0
0
-4.59671e-17
9.89538e-17
-6.7305e-17
1.25548e-16
0
0
4.72052e-17
-4.07951e-17
-2.81184e-17
8.90258e-18
-9.59876e-18
5.1077e-18
0
1.25737e-17
1.28953e-16
-1.01652e-16
-8.7829e-17
-1.37923e-16
-4.16435e-17
6.13505e-17
0
-6.29159e-17
-4.95976e-17
4.39893e-17
-3.49671e-17
2.76583e-17
0
1.08287e-17
2.04954e-17
0
0
0
-1.20818e-17
2.01219e-16
7.39366e-17
-2.65759e-16
7.15854e-17
6.02985e-17
0
0
5.90535e-17
-3.09139e-17
-4.25472e-17
3.38196e-17
-2.67476e-17
0
-6.76954e-18
5.54673e-18
0
-4.73931e-18
-1.66703e-18
-1.09348e-16
3.20894e-16
-3.85459e-16
-1.49789e-16
7.91686e-17
-5.67931e-17
4.65696e-17
0
-3.01226e-17
2.4626e-17
0
0
1.02227e-17
-1.02345e-17
2.94377e-18
-4.09919e-18
6.63609e-18
9.20675e-19
1.2472e-18
5.68964e-17
-5.06811e-17
2.54409e-16
-1.63723e-16
-6.44843e-17
9.25057e-18
9.68143e-17
3.53203e-17
2.88228e-17
0
1.54675e-17
-1.42507e-17
1.10183e-17
-9.0963e-18
1.12056e-17
-1.91039e-17
-5.16609e-18
4.48395e-18
1.17208e-18
1.5105e-16
-1.53777e-16
0
1.34424e-16
-7.15113e-17
-5.11701e-17
3.34284e-17
-1.08532e-16
0
-1.97456e-18
-1.82802e-17
-1.25888e-17
1.76297e-17
-1.4986e-18
-1.083e-17
7.85523e-18
0
2.736e-18
-1.13808e-18
2.61271e-16
-4.5409e-17
1.88916e-16
-1.47714e-16
7.76687e-17
5.9294e-18
-8.71737e-17
-2.81093e-17
4.99232e-17
-2.36743e-18
-2.70305e-17
2.23699e-17
-9.60413e-18
-1.20443e-17
0
0
0
-2.76087e-18
1.0159e-19
-2.30329e-16
2.23735e-16
1.66362e-19
3.28613e-17
2.76655e-17
-6.45835e-17
7.4802e-17
-5.96773e-17
4.96058e-17
-1.55108e-17
2.92806e-17
9.95518e-18
-4.13715e-18
2.00579e-19
-1.36037e-18
-2.38651e-18
0
0
0
0
0
1.0625e-16
-5.41663e-17
-1.58339e-16
0
0
-1.73665e-17
-2.70369e-17
2.19797e-17
0
-1.25553e-17
9.42254e-18
-3.02572e-17
3.44948e-17
-1.0816e-17
1.14869e-17
1.23301e-18
0
-4.46077e-17
4.51567e-17
0
-3.49957e-17
3.53934e-17
5.68211e-17
0
1.75323e-17
2.16263e-17
-9.8394e-17
0
-1.42338e-17
1.07543e-17
7.36531e-18
-5.32236e-18
7.65813e-18
0
-2.72446e-18
0
-2.29485e-17
-2.25678e-17
1.3354e-18
3.59572e-17
-9.47198e-17
0
-2.33183e-17
0
6.22543e-17
2.42439e-17
0
5.64696e-17
-5.78961e-17
6.19667e-18
-1.16792e-17
3.80515e-18
1.47916e-17
5.41769e-18
-4.29427e-18
0
4.71607e-17
-4.04825e-17
5.00696e-17
5.86216e-17
0
4.72439e-17
-4.42263e-17
-3.35171e-17
4.86219e-17
-7.27987e-17
-3.41257e-17
0
0
6.80222e-18
0
0
1.85955e-18
0
-2.10459e-16
1.61864e-16
0
2.76261e-18
-3.39934e-17
-1.83568e-18
2.94193e-17
2.01025e-17
-2.59217e-17
-6.22596e-17
9.58278e-17
-2.6176e-17
0
-1.16629e-17
0
0
0
-7.20951e-18
5.76722e-18
-5.98433e-17
5.5498e-17
1.45938e-16
-1.41966e-16
4.30339e-17
2.64178e-18
-2.98716e-17
2.52101e-17
4.19127e-17
3.1185e-17
-6.14958e-17
0
2.98254e-17
3.33539e-18
-1.33547e-17
-2.8127e-17
2.30479e-17
-3.54142e-18
6.79298e-18
-2.0364e-16
2.87555e-16
-2.84489e-16
4.92328e-17
4.09841e-17
-3.86887e-17
3.22389e-17
-2.49365e-17
0
-2.0441e-17
3.16685e-17
1.36912e-17
2.16716e-17
2.63495e-17
-3.91842e-17
-8.88955e-19
0
-2.8113e-18
9.47242e-19
-2.20174e-16
-6.46154e-17
-1.1159e-16
5.97351e-17
-9.5137e-17
8.13797e-17
-4.81329e-17
3.98241e-17
-3.08045e-18
-3.05203e-18
-3.38202e-17
2.02508e-17
-1.05025e-17
3.23664e-17
-3.47457e-17
3.96855e-18
3.56986e-18
0
-1.65968e-18
2.38056e-16
-6.97771e-17
0
0
-9.7898e-17
1.8957e-16
-4.3872e-17
-8.19204e-18
6.66504e-17
-1.76236e-18
0
0
-1.44246e-17
0
-3.0626e-17
7.34882e-17
-5.06989e-17
0
6.74144e-19
8.1011e-17
1.5014e-16
0
-6.28777e-17
-5.02307e-17
-4.35997e-17
-4.5748e-17
1.85548e-17
-5.14431e-17
-2.75847e-17
0
0
2.00037e-17
0
0
-4.21145e-17
6.95848e-17
0
0
5.56049e-16
-6.76559e-17
-3.32699e-16
-1.77937e-16
2.4165e-16
7.5808e-17
4.43584e-17
0
-1.5929e-17
1.51266e-17
3.77115e-17
-1.20771e-17
-1.75534e-17
2.71197e-17
-2.8847e-17
-8.66787e-18
0
0
0
4.45288e-17
-3.47968e-16
3.40846e-16
-3.23297e-17
-2.46888e-16
3.84688e-16
-1.92245e-16
0
0
9.90094e-17
-8.09847e-17
0
-2.38848e-17
4.17727e-17
-4.57263e-18
1.20849e-17
3.65609e-18
4.26056e-20
7.8911e-19
0
0
0
2.83002e-16
-1.89982e-16
1.96319e-16
-3.05335e-16
8.64814e-17
0
-3.05266e-17
4.83397e-17
-4.9406e-17
-9.54841e-18
-6.92077e-20
-6.47434e-18
-9.20166e-19
-5.16885e-18
-1.45917e-18
-7.92469e-19
3.71939e-16
-6.61215e-16
3.1238e-16
0
8.23188e-17
-1.12266e-16
1.10964e-16
-8.79917e-17
0
-4.19936e-17
5.88737e-17
0
0
-3.97812e-20
0
-6.81658e-18
4.65181e-18
8.27172e-19
1.26812e-18
3.63229e-16
0
-1.42103e-16
1.58674e-16
-9.8318e-17
2.14311e-16
-1.0096e-16
-7.79957e-17
7.88102e-17
-7.95778e-18
0
0
5.03351e-18
-8.40839e-18
-5.89704e-18
1.11592e-17
-2.41549e-18
1.22579e-18
0
2.06154e-16
1.59458e-16
-6.30448e-18
-1.51448e-16
-1.51495e-17
-1.08373e-16
1.22749e-17
9.05153e-17
-4.64299e-18
8.10721e-18
0
0
-5.1565e-18
0
6.04665e-18
-6.46847e-18
0
8.27478e-19
-2.28894e-19
-1.09407e-16
-8.00287e-17
7.49555e-17
-8.50969e-18
-3.79706e-18
1.0194e-17
0
-2.66389e-18
3.95902e-17
-3.33404e-17
0
1.1154e-17
-2.21856e-18
-9.81707e-18
-8.95825e-19
-6.97542e-19
0
-6.47293e-19
0
4.44855e-17
-8.43977e-17
-9.05526e-19
3.59888e-17
3.25882e-17
-3.23538e-17
-2.26926e-17
2.56777e-17
-8.72924e-18
6.83571e-18
-6.58221e-18
6.78522e-18
0
1.72123e-20
-6.60869e-19
2.37279e-18
-8.11211e-21
0
0
4.44871e-17
-4.43204e-17
-3.57998e-17
3.17278e-17
5.75512e-17
-5.78909e-17
-1.13467e-17
1.13739e-17
-8.80327e-18
8.89559e-18
-6.58247e-18
1.24025e-17
-3.47866e-18
-2.49311e-18
-7.6224e-19
2.53396e-19
6.02262e-19
1.59108e-19
-1.1931e-19
0
-1.05251e-17
6.23148e-17
-6.75833e-17
5.74149e-17
-5.09214e-17
0
3.98412e-17
-3.56578e-17
0
1.30824e-17
-1.65524e-17
-9.36809e-18
9.81836e-18
1.79593e-18
0
0
-6.47417e-19
2.35146e-19
1.76993e-16
-3.25146e-16
3.29968e-16
-2.88094e-16
1.12994e-16
-9.48666e-17
9.0078e-17
1.0593e-17
-3.92e-17
3.50097e-17
0
-2.5052e-17
2.28287e-17
-4.30385e-18
-1.75912e-18
2.74658e-18
2.01627e-18
6.28518e-19
-2.27205e-19
4.09425e-16
0
-1.60817e-16
1.25022e-16
1.49754e-17
-1.14046e-16
2.01616e-16
-1.77864e-16
6.96447e-17
-2.94307e-17
3.01249e-17
5.93692e-18
1.00968e-17
4.19199e-18
-3.4419e-18
-4.64048e-19
-4.36099e-18
0
4.41445e-19
3.26359e-16
-3.67367e-16
0
3.32174e-17
1.41936e-16
-1.38811e-16
2.34283e-17
2.06165e-17
8.98207e-18
1.56529e-17
0
0
-1.75442e-17
3.26681e-17
-1.19052e-17
-4.25028e-18
4.65335e-18
3.71566e-19
-8.37657e-19
3.2005e-17
3.22752e-16
-3.69318e-17
-2.49971e-16
2.19544e-16
2.60008e-17
-2.29288e-17
-2.01362e-17
6.55163e-17
-8.12553e-17
4.83567e-17
-4.94228e-17
7.57884e-18
-9.78211e-18
1.75395e-17
-1.17137e-17
0
0
8.27433e-19
0
8.05979e-17
-2.39608e-16
2.73973e-16
-2.18251e-16
2.17731e-16
0
7.36869e-17
-7.40245e-17
-5.48181e-17
8.10494e-17
0
3.30651e-17
-4.18064e-17
-6.16907e-18
0
-6.82563e-19
-1.3319e-18
-4.03414e-20
-7.70403e-16
3.66185e-16
0
-2.41611e-16
2.41587e-16
1.45769e-16
-9.57328e-17
3.87652e-17
0
-1.71069e-18
1.237e-17
-1.20617e-17
-1.75321e-17
2.70834e-17
-2.87986e-17
0
6.07753e-18
-1.27235e-18
-8.26329e-19
4.72984e-16
-4.64273e-16
0
6.2649e-17
5.64366e-17
-5.12617e-17
0
-4.06262e-17
-3.43529e-17
0
-1.8265e-18
0
2.00146e-17
0
0
8.59041e-18
3.21363e-17
-4.16928e-17
0
5.28762e-20
6.98114e-17
-6.38531e-17
5.11346e-17
-2.60378e-16
9.90976e-17
0
8.19843e-18
2.3167e-17
0
-2.32665e-17
6.60741e-17
-6.94147e-17
1.13673e-17
0
-1.45087e-18
0
0
0
5.54507e-20
0
5.90162e-17
0
-8.89295e-17
9.03432e-17
0
3.12175e-17
-2.46156e-17
8.8466e-17
-4.2499e-17
1.49117e-17
-2.36643e-17
2.21052e-17
-3.47936e-17
-5.50572e-18
0
-3.43662e-18
0
1.83325e-16
-3.10174e-16
0
-4.91403e-17
4.35589e-17
0
0
-5.68418e-17
0
-2.04577e-17
-3.16963e-17
-1.37052e-17
2.16963e-17
0
1.10421e-17
0
0
7.45249e-18
-8.16188e-18
0
2.66516e-16
-2.13151e-16
4.54927e-17
-4.03358e-17
-1.61909e-17
4.63394e-17
5.11579e-17
-6.11504e-17
1.96687e-17
1.70893e-18
-1.73571e-17
7.06705e-17
-2.19196e-17
-4.94007e-17
1.68501e-17
-4.20963e-18
2.53328e-18
-7.46627e-19
-4.3782e-16
1.61871e-16
0
0
1.70441e-17
-1.73319e-17
1.19049e-17
7.41752e-18
5.48635e-17
2.74013e-17
-2.68895e-17
-1.30406e-18
-1.44345e-17
1.16752e-17
0
5.47661e-18
3.85843e-18
2.01539e-18
6.74846e-19
0
1.39215e-16
-1.28826e-16
4.10929e-17
4.15566e-17
-7.98036e-18
-2.51868e-17
-2.11277e-17
-6.84041e-17
2.69049e-17
-1.57236e-17
2.20364e-17
1.3498e-17
-1.62628e-17
1.7262e-17
1.05132e-17
-1.38086e-17
-1.86152e-18
0
-2.49348e-17
-1.10815e-16
3.91972e-17
3.59671e-17
-1.21768e-16
8.65543e-17
4.17124e-17
-4.26365e-17
3.18111e-17
-2.55341e-17
0
0
-1.95897e-17
3.48526e-17
-1.51848e-17
1.37163e-17
-1.50242e-17
2.4229e-18
-4.29885e-18
4.6644e-17
4.32239e-17
-3.89043e-17
2.96393e-17
-3.50767e-17
-5.18626e-17
0
0
0
0
0
0
9.99711e-18
-2.56751e-17
2.71542e-17
-8.50833e-18
1.05055e-17
4.84145e-18
-4.09391e-18
9.69186e-17
-1.62497e-16
2.03071e-16
-9.26297e-17
1.28416e-16
-9.06207e-17
1.67624e-16
-9.33149e-17
-4.80142e-17
4.91163e-17
0
1.2548e-17
-9.76666e-18
2.30717e-17
-8.04522e-18
-9.90599e-18
-2.01569e-17
1.54211e-18
3.4662e-18
1.50991e-16
4.29552e-17
0
-6.55059e-17
-5.06032e-17
1.14945e-16
1.07374e-17
-4.4689e-17
2.62576e-17
-1.80103e-17
0
-9.93314e-18
0
-7.70147e-18
6.16423e-18
-5.44314e-18
-1.78655e-18
1.24076e-18
0
2.10675e-16
-4.54083e-17
1.8885e-16
-1.47701e-16
-2.90969e-17
1.12057e-16
-6.71921e-17
3.6105e-18
2.92566e-18
-1.75459e-17
1.68408e-17
0
0
9.46642e-18
-3.30904e-18
2.1083e-18
6.4698e-18
-2.25203e-18
0
4.4017e-20
0
-4.20359e-17
2.43118e-16
-1.63639e-16
-1.69579e-16
9.26068e-17
-9.32505e-17
8.58599e-17
4.13231e-17
-3.044e-17
1.21507e-17
-1.07004e-17
1.95517e-18
1.68567e-17
5.14105e-19
-6.18825e-18
6.11666e-18
-1.26538e-18
5.10785e-16
-1.62497e-16
7.73742e-17
-2.40033e-16
6.44839e-17
-9.88885e-17
5.35062e-17
0
0
-2.03342e-18
-2.81764e-18
-8.31451e-19
0
-1.50072e-17
-1.12059e-17
8.11699e-18
-5.93818e-19
1.12724e-18
2.53152e-18
0
-1.60642e-16
2.68734e-16
5.77494e-17
-2.15759e-16
5.6793e-17
-8.53055e-17
1.55261e-17
6.81881e-17
0
0
1.24199e-18
1.32167e-17
0
-1.1359e-17
-5.079e-18
7.49815e-19
-2.58512e-18
-3.01412e-18
0
-1.00275e-16
2.42932e-17
1.81196e-16
1.32337e-16
-2.4117e-16
1.08764e-16
-7.34703e-17
3.95734e-17
-5.31347e-17
0
0
0
-2.0995e-17
5.27415e-18
-6.80277e-18
0
-4.19844e-19
2.09423e-18
-3.83207e-16
3.62372e-16
3.81661e-16
-4.62807e-16
2.12259e-16
-1.98873e-16
0
7.76458e-17
-1.05482e-16
6.02659e-17
-4.60181e-17
3.7005e-17
2.96352e-17
2.17135e-17
1.68988e-17
0
0
0
0
4.25939e-16
-2.43509e-16
0
0
-7.78942e-17
1.86438e-16
-1.1917e-16
-8.24248e-17
8.14957e-17
5.9038e-17
9.769e-17
-3.83963e-17
1.64613e-17
1.22162e-17
8.8568e-18
7.37163e-18
1.18324e-17
-5.7908e-19
5.89845e-19
-4.30674e-16
3.9398e-16
2.07285e-16
-1.08305e-16
2.31703e-16
-1.48473e-16
-1.15189e-16
-9.59753e-17
0
-1.24324e-16
6.67784e-18
4.45777e-17
-3.41665e-17
-2.751e-17
-1.01411e-17
-1.05098e-17
-8.4261e-18
0
0
-1.48161e-16
0
1.13345e-16
-1.31576e-19
0
0
1.18821e-16
9.9033e-17
0
6.7681e-17
0
-6.77123e-17
-1.90405e-17
3.35898e-17
0
2.16511e-17
-3.04601e-18
3.10734e-18
0
3.16324e-16
0
2.17279e-16
-4.01433e-16
3.5543e-16
2.82217e-16
-9.56167e-18
0
7.96528e-18
7.98709e-17
0
-7.7288e-17
8.55406e-17
-7.60607e-17
-1.65584e-17
-1.73277e-17
-5.19904e-18
-9.45793e-19
-3.47576e-18
-2.92391e-16
4.20705e-16
-1.17921e-16
-3.05912e-16
-1.75263e-16
-1.49875e-16
-2.55711e-16
-1.00855e-16
8.86448e-18
3.62347e-17
-3.61666e-17
1.13958e-16
-5.04175e-17
1.0052e-16
-1.8822e-17
0
2.20171e-17
-1.31273e-17
3.48342e-18
6.50536e-16
-1.49883e-17
-4.88533e-16
3.99754e-16
-3.56614e-16
3.07754e-16
-1.06371e-17
-1.14526e-16
9.90422e-17
3.88858e-17
-5.23018e-18
-9.39711e-17
2.6843e-17
2.96334e-17
-8.7892e-18
8.88945e-18
-2.28043e-17
-2.77573e-18
-5.68713e-18
3.19355e-16
1.33896e-16
2.33826e-16
-2.03913e-16
-1.66145e-16
9.51742e-18
-1.25305e-16
3.02865e-16
1.11008e-17
1.38417e-16
8.0749e-17
-7.14249e-17
0
-4.95359e-17
0
0
3.33177e-17
1.45093e-17
6.61712e-18
2.98725e-16
0
2.30903e-16
2.02597e-16
-1.78647e-16
1.54835e-16
0
-1.18581e-16
-1.63916e-16
-1.4199e-16
-8.14637e-17
7.22325e-17
0
0
0
0
-3.12561e-17
-2.39831e-17
0
-5.85269e-16
0
-1.23106e-17
-1.08894e-17
2.72582e-16
-1.52052e-16
-6.95457e-17
-6.99276e-17
1.67512e-16
0
4.38319e-17
-4.59442e-18
4.03154e-17
0
0
5.37736e-17
-4.02047e-18
2.88103e-17
-1.12883e-17
4.11154e-16
1.17604e-16
-1.1639e-16
-1.02041e-16
-3.51148e-16
2.39965e-16
2.88313e-16
-8.7691e-18
-1.14934e-16
1.14634e-16
2.39632e-17
-1.22544e-16
-9.96135e-17
-6.19742e-17
-6.58648e-17
-6.20306e-17
5.28588e-17
-2.48529e-18
1.15616e-17
-1.26029e-16
5.69689e-17
-2.73904e-16
4.64559e-17
-4.62869e-17
0
-1.43719e-16
-1.12607e-17
-1.33573e-16
1.2733e-17
1.30587e-16
9.54677e-17
-2.3737e-17
8.66734e-18
6.25482e-17
0
-1.1083e-16
-4.12346e-17
-8.54197e-19
2.57558e-16
-6.95291e-18
4.3094e-16
-2.0452e-16
4.35899e-19
5.38944e-18
1.6167e-16
-1.39532e-17
1.29544e-16
-1.21259e-16
-1.14221e-16
0
1.16655e-16
9.24918e-17
1.30746e-18
-1.90402e-18
6.03098e-17
4.19103e-17
0
-1.82854e-16
0
-4.29606e-17
1.952e-16
2.93819e-18
4.46119e-17
-1.56332e-16
1.47518e-16
1.57528e-16
1.51112e-16
1.45609e-16
0
-1.13328e-16
0
6.12925e-18
-6.36577e-18
0
-6.16211e-19
3.04455e-17
1.27246e-16
7.09192e-18
-9.92546e-17
3.07046e-16
-9.83395e-17
0
0
-1.78495e-16
-1.52629e-16
-1.46394e-16
-2.67805e-16
-3.74871e-17
0
0
0
-1.2684e-17
1.34228e-17
8.63714e-17
-3.09121e-17
7.37837e-18
0
-2.1532e-16
-1.9588e-16
2.0597e-16
-2.04618e-16
-2.92637e-16
3.57438e-16
1.00451e-16
0
1.58612e-16
1.81689e-16
-3.92301e-17
2.13796e-16
-3.50703e-17
3.64996e-17
1.4243e-16
-8.20765e-17
0
-2.42865e-16
0
-2.32014e-16
2.27154e-16
0
4.07791e-16
1.91123e-16
-4.02932e-16
3.23553e-16
-2.00295e-18
-9.75989e-17
-1.75912e-16
0
2.45228e-16
-4.10326e-16
4.40612e-16
-5.61568e-16
0
0
2.41963e-16
-1.70812e-18
-4.20121e-18
-4.58674e-16
4.63441e-16
-2.23689e-16
2.22777e-16
2.1958e-16
-1.92923e-16
0
0
3.67256e-16
-3.73583e-16
-3.98241e-16
3.95134e-16
-3.85197e-16
4.16835e-16
-6.53151e-16
0
)
;

boundaryField
{
    up
    {
        type            calculated;
        value           nonuniform List<scalar> 
84
(
0
0
0
0
-2.20883e-17
3.96947e-17
-1.65049e-17
1.15615e-17
-1.01216e-17
0
-7.42976e-18
7.05095e-18
-4.63038e-18
5.5675e-19
4.59058e-19
3.14084e-18
0
0
-1.66703e-18
1.2472e-18
1.17208e-18
-1.13808e-18
1.0159e-19
0
4.56946e-19
2.27498e-19
-4.06226e-18
0
5.76722e-18
7.15719e-18
9.47242e-19
-1.65968e-18
6.74144e-19
0
-3.29171e-19
8.13256e-19
-7.89335e-19
1.26478e-18
0
-2.28219e-19
0
0
-1.19338e-19
2.35146e-19
-2.27205e-19
4.41445e-19
-8.37657e-19
8.27433e-19
-4.03414e-20
-8.26329e-19
0
0
0
-8.16188e-18
-1.1112e-18
6.74846e-19
0
-4.29885e-18
-4.09391e-18
3.01073e-18
0
0
-1.26538e-18
2.53152e-18
-3.01412e-18
2.09423e-18
0
5.89845e-19
0
0
-3.47576e-18
3.48342e-18
-5.68713e-18
6.61712e-18
0
-1.12883e-17
1.15616e-17
-8.54197e-19
0
3.04455e-17
-3.09121e-17
0
0
0
)
;
    }
    low
    {
        type            calculated;
        value           nonuniform List<scalar> 
84
(
-4.84458e-16
4.83139e-16
-2.35428e-16
3.72496e-16
6.54729e-17
-1.70152e-17
1.42202e-16
1.6074e-17
0
5.99535e-16
-1.51936e-16
1.23064e-16
-1.38499e-16
-9.0583e-16
1.48041e-16
0
-1.37875e-16
1.25737e-17
-1.20818e-17
-1.09348e-16
5.68964e-17
1.5105e-16
2.60243e-16
-2.30329e-16
0
-4.46077e-17
-2.29485e-17
0
-2.10459e-16
-5.98433e-17
-2.02989e-16
-2.19667e-16
2.37726e-16
8.1011e-17
5.56103e-16
4.45288e-17
0
3.71939e-16
3.64058e-16
2.06605e-16
-1.09647e-16
4.44855e-17
4.44871e-17
0
1.76993e-16
4.10254e-16
3.26359e-16
3.25774e-17
0
-7.70456e-16
4.72984e-16
5.28762e-20
5.54507e-20
1.83325e-16
0
-4.36756e-16
0
-2.49348e-17
4.6644e-17
9.62824e-17
1.4988e-16
2.09646e-16
4.4017e-20
5.09946e-16
0
0
-3.83207e-16
4.25546e-16
-4.30422e-16
-1.48161e-16
3.16353e-16
-2.92391e-16
6.51675e-16
3.20152e-16
2.98725e-16
-5.85269e-16
4.10275e-16
-1.25108e-16
2.57558e-16
-1.82481e-16
1.27246e-16
8.0619e-18
-2.42865e-16
2.42149e-16
)
;
    }
    left
    {
        type            calculated;
        value           nonuniform List<scalar> 
19
(
-4.84085e-16
-2.351e-16
2.39178e-16
5.64577e-18
-4.54471e-16
0
-2.1135e-16
-2.08415e-16
-1.52157e-17
-1.10166e-16
-9.58951e-19
-1.0974e-16
4.8881e-16
-1.08692e-16
5.076e-16
4.38254e-16
2.60741e-16
3.82605e-16
0
)
;
    }
    right
    {
        type            calculated;
        value           nonuniform List<scalar> 
19
(
2.41963e-16
-1.51187e-18
-4.20121e-18
-4.58679e-16
4.6358e-16
-2.23689e-16
2.22777e-16
2.1958e-16
-1.92214e-16
0
0
3.70716e-16
-3.78439e-16
-3.98241e-16
3.95134e-16
-3.85197e-16
4.16835e-16
-7.06303e-16
0
)
;
    }
    frontAndBackPlanes
    {
        type            empty;
    }
}


// ************************************************************************* //
