/*--------------------------------*- C++ -*----------------------------------*\
  =========                 |
  \\      /  F ield         | OpenFOAM: The Open Source CFD Toolbox
   \\    /   O peration     | Website:  https://openfoam.org
    \\  /    A nd           | Version:  7
     \\/     M anipulation  |
\*---------------------------------------------------------------------------*/
FoamFile
{
    version     2.0;
    format      ascii;
    class       volScalarField;
    location    "0.26";
    object      T;
}
// * * * * * * * * * * * * * * * * * * * * * * * * * * * * * * * * * * * * * //

dimensions      [0 0 0 1 0 0 0];

internalField   nonuniform List<scalar> 
1596
(
2.99221
2.96985
2.94697
2.92529
2.90525
2.8866
2.86894
2.85136
2.8332
2.8129
2.78926
2.76064
2.72337
2.67234
2.59961
2.48747
2.30286
1.97974
1.38574
2.9663
2.8967
2.83103
2.7706
2.71534
2.66431
2.61632
2.56945
2.52202
2.47116
2.41444
2.34889
2.26911
2.16841
2.03853
1.86376
1.61977
1.26467
0.719133
2.93565
2.81859
2.71329
2.61848
2.53274
2.45428
2.38121
2.311
2.2414
2.16901
2.09096
2.00392
1.90248
1.78044
1.63104
1.44257
1.19893
0.875318
0.42548
2.90536
2.74384
2.60279
2.47777
2.36582
2.26431
2.17076
2.0823
1.99636
1.9094
1.81846
1.72025
1.60982
1.48188
1.33114
1.14913
0.925384
0.6454
0.28229
2.88018
2.68018
2.50782
2.35643
2.22183
2.10074
1.99027
1.88734
1.78923
1.69241
1.59398
1.49077
1.37832
1.25211
1.10794
0.939501
0.739772
0.500102
0.204546
2.86322
2.6329
2.43409
2.25979
2.10534
1.96718
1.84219
1.72721
1.61949
1.51554
1.41256
1.3075
1.1963
1.07496
0.939984
0.786415
0.609244
0.403049
0.15798
2.85492
2.60347
2.38343
2.18946
2.01741
1.86389
1.72584
1.60014
1.48407
1.37426
1.26798
1.16229
1.05339
0.937642
0.811949
0.672173
0.514456
0.335126
0.127731
2.85346
2.58976
2.35386
2.14345
1.95581
1.78824
1.638
1.50222
1.37828
1.26297
1.15364
1.04743
0.940737
0.83013
0.712744
0.58492
0.44344
0.285566
0.106747
2.8571
2.58875
2.34208
2.1184
1.91708
1.73655
1.57471
1.4291
1.29734
1.17639
1.06374
0.956577
0.851442
0.74505
0.634635
0.516818
0.388723
0.24809
0.0914272
2.86205
2.59409
2.34113
2.10745
1.8946
1.70245
1.52978
1.3747
1.23518
1.10847
0.99217
0.883573
0.77932
0.67622
0.57155
0.462079
0.34511
0.218602
0.079669
2.86606
2.60062
2.34462
2.10394
1.88188
1.67973
1.4973
1.33338
1.18644
1.05402
0.933925
0.823556
0.719659
0.61911
0.519199
0.416775
0.309218
0.194561
0.0702551
2.87107
2.60953
2.35241
2.10674
1.8772
1.66635
1.47504
1.30283
1.14872
1.01062
0.886567
0.774099
0.670062
0.571386
0.475354
0.37885
0.279268
0.17463
0.0625521
2.87585
2.61892
2.36191
2.11272
1.87713
1.65878
1.45952
1.27965
1.11875
0.975159
0.847165
0.732452
0.627969
0.530696
0.437894
0.346452
0.253742
0.157725
0.0560871
2.87882
2.62581
2.36951
2.11795
1.8776
1.65299
1.44682
1.26014
1.09311
0.944483
0.812825
0.695982
0.59101
0.49493
0.404982
0.318038
0.231426
0.143021
0.0505192
2.88134
2.63134
2.37565
2.12221
1.87788
1.64789
1.43564
1.24289
1.07033
0.917121
0.782124
0.663341
0.557929
0.462948
0.375606
0.292747
0.211639
0.130053
0.0456532
2.88378
2.63628
2.38088
2.12562
1.87769
1.64285
1.42512
1.22687
1.04928
0.891928
0.753928
0.633439
0.527707
0.433819
0.348945
0.269887
0.193837
0.118452
0.0413411
2.88549
2.63981
2.38437
2.12726
1.87594
1.63664
1.41394
1.21071
1.02863
0.867608
0.727013
0.605139
0.499309
0.406623
0.324204
0.2488
0.177518
0.10789
0.0374543
2.8867
2.64221
2.38637
2.12725
1.8726
1.62907
1.40173
1.19395
1.00779
0.843533
0.700726
0.577787
0.4721
0.380763
0.300845
0.229028
0.162324
0.0981314
0.0339004
2.88898
2.64592
2.38946
2.12807
1.86987
1.62198
1.38997
1.17769
0.987579
0.820216
0.675345
0.551473
0.446022
0.356076
0.278644
0.210333
0.148047
0.0890317
0.0306224
2.89177
2.65073
2.39374
2.12993
1.868
1.61559
1.3788
1.16196
0.967905
0.797488
0.650618
0.525872
0.420696
0.332146
0.257168
0.192303
0.134344
0.0803665
0.0275435
2.89389
2.65492
2.39758
2.13145
1.86579
1.60886
1.36733
1.146
0.948094
0.774729
0.625961
0.500421
0.39556
0.308405
0.235844
0.174381
0.120734
0.0718118
0.0245568
2.89603
2.65911
2.40152
2.13313
1.86379
1.60234
1.35605
1.13023
0.928458
0.752131
0.601436
0.475047
0.370413
0.284517
0.214208
0.155994
0.106606
0.0628808
0.0214914
2.89851
2.66382
2.40606
2.13549
1.86248
1.5965
1.34541
1.11503
0.909297
0.729874
0.577079
0.449632
0.344977
0.260047
0.191648
0.136325
0.0909546
0.0525672
0.0178632
2.90113
2.6688
2.4109
2.13816
1.86152
1.59106
1.3352
1.10023
0.890441
0.707739
0.552585
0.423755
0.318702
0.234309
0.16731
0.114261
0.072244
0.0388121
0.0117216
2.90528
2.67916
2.42578
2.15588
1.88045
1.60974
1.35236
1.11487
0.901826
0.71544
0.556513
0.424158
0.316106
0.229421
0.160926
0.107168
0.0652699
0.0330147
0.00877746
2.90984
2.69244
2.44732
2.18473
1.91519
1.64856
1.39326
1.15578
0.94085
0.750983
0.587409
0.449816
0.336499
0.245004
0.172452
0.115462
0.0710077
0.0365988
0.0102057
2.91212
2.70035
2.46151
2.20528
1.94158
1.67972
1.42767
1.19168
0.976365
0.78436
0.617181
0.474994
0.356678
0.260358
0.183598
0.123205
0.0760979
0.0395772
0.0112972
2.91214
2.70266
2.4679
2.21688
1.95882
1.70228
1.45461
1.22155
1.00743
0.814766
0.645204
0.499261
0.376359
0.275281
0.194196
0.130263
0.0804636
0.0419408
0.0120811
2.91069
2.701
2.46863
2.22198
1.96943
1.7187
1.47633
1.24742
1.03582
0.843798
0.672942
0.523982
0.396797
0.290848
0.205077
0.137221
0.084498
0.0439523
0.0126829
2.90791
2.69639
2.46551
2.22287
1.97595
1.73151
1.49524
1.27149
1.06353
0.873264
0.702105
0.55083
0.419616
0.308536
0.217417
0.144858
0.0886288
0.0458198
0.0131809
2.9044
2.69059
2.46103
2.22245
1.98141
1.74373
1.51419
1.29636
1.09292
0.905363
0.734821
0.581969
0.447064
0.33058
0.233182
0.154583
0.0936006
0.0478085
0.0136378
2.90169
2.68612
2.45817
2.22391
1.98904
1.75843
1.53602
1.32464
1.1264
0.942367
0.773376
0.619879
0.481975
0.36018
0.255659
0.169191
0.10114
0.0504923
0.0140633
2.89915
2.68225
2.45638
2.22693
1.9987
1.77568
1.56096
1.3567
1.1645
0.985049
0.818916
0.666307
0.527003
0.401183
0.289878
0.194268
0.116051
0.0564539
0.0145119
2.89669
2.67905
2.45595
2.23197
2.01101
1.79618
1.5898
1.39341
1.20818
1.03452
0.8728
0.723105
0.584947
0.458048
0.342791
0.239706
0.150329
0.0770448
0.0211182
2.89379
2.67455
2.45315
2.23346
2.01852
1.81064
1.61147
1.42206
1.24322
1.07512
0.918066
0.772101
0.63669
0.511369
0.395994
0.290085
0.193676
0.107797
0.0333292
2.8887
2.66373
2.43999
2.22049
2.00747
1.80257
1.6069
1.42106
1.24559
1.08042
0.925777
0.781651
0.647546
0.523077
0.408199
0.302386
0.205396
0.117443
0.0380331
2.88202
2.64883
2.42044
2.1988
1.98535
1.78113
1.58674
1.40244
1.22849
1.06464
0.911009
0.76759
0.633916
0.509732
0.395236
0.290206
0.194824
0.109771
0.0348784
2.8764
2.63637
2.40416
2.18078
1.96702
1.76338
1.57009
1.38711
1.21449
1.05187
0.899294
0.756779
0.623897
0.500487
0.386884
0.282985
0.189089
0.10597
0.033488
2.87238
2.62717
2.39193
2.16713
1.95303
1.74977
1.55728
1.37529
1.20371
1.04206
0.890383
0.748678
0.616547
0.493878
0.38108
0.278106
0.185311
0.103527
0.0326373
2.86932
2.62015
2.38262
2.15671
1.94235
1.73937
1.54747
1.36623
1.19545
1.03457
0.88361
0.742571
0.611062
0.489001
0.376844
0.274578
0.182596
0.101783
0.0320402
2.86709
2.61504
2.37587
2.14921
1.93468
1.73191
1.54045
1.35975
1.18954
1.02922
0.87878
0.738229
0.607175
0.485555
0.373853
0.272082
0.180666
0.100534
0.0316085
2.86527
2.61138
2.37134
2.14437
1.92987
1.72733
1.5362
1.35588
1.18606
1.02612
0.876028
0.735804
0.605054
0.48372
0.372302
0.270821
0.179716
0.0999333
0.0314092
2.86527
2.61139
2.37135
2.14438
1.92989
1.72735
1.53622
1.3559
1.18608
1.02613
0.876046
0.73582
0.605068
0.483732
0.372313
0.270829
0.179722
0.0999368
0.0314103
2.8671
2.61507
2.37591
2.14926
1.93474
1.73197
1.54051
1.35981
1.1896
1.02928
0.878833
0.738278
0.60722
0.485593
0.373886
0.272108
0.180685
0.100545
0.0316125
2.86934
2.6202
2.38269
2.15679
1.94244
1.73946
1.54757
1.36633
1.19554
1.03466
0.883694
0.742648
0.611131
0.489061
0.376894
0.274618
0.182625
0.1018
0.032046
2.87241
2.62723
2.39202
2.16723
1.95315
1.7499
1.55741
1.37541
1.20383
1.04218
0.890493
0.748779
0.616636
0.493955
0.381144
0.278156
0.185346
0.103548
0.0326445
2.87643
2.63645
2.40427
2.18091
1.96716
1.76353
1.57025
1.38726
1.21464
1.05201
0.899428
0.756901
0.624005
0.500579
0.386959
0.283044
0.18913
0.105994
0.033496
2.88205
2.64891
2.42056
2.19895
1.98552
1.78131
1.58692
1.40262
1.22866
1.0648
0.911161
0.767726
0.634035
0.509831
0.395315
0.290264
0.194863
0.109792
0.0348843
2.88874
2.66383
2.44013
2.22065
2.00766
1.80277
1.6071
1.42127
1.24578
1.0806
0.92594
0.781794
0.647663
0.523166
0.408259
0.302418
0.205406
0.117439
0.038028
2.89383
2.67469
2.45337
2.23375
2.01887
1.81103
1.6119
1.42251
1.24369
1.0756
0.918555
0.772588
0.637171
0.511841
0.396451
0.290517
0.19406
0.108087
0.0334549
2.89675
2.67921
2.45621
2.23232
2.01144
1.79668
1.59034
1.39399
1.2088
1.03515
0.873446
0.723752
0.585585
0.458666
0.34337
0.240219
0.150739
0.0773132
0.0212154
2.89919
2.68239
2.45661
2.22723
1.99907
1.77611
1.56143
1.35721
1.16503
0.985589
0.819454
0.666833
0.527503
0.401641
0.290274
0.194578
0.116259
0.0565573
0.0145321
2.90173
2.68625
2.45838
2.2242
1.98939
1.75884
1.53647
1.32512
1.1269
0.942863
0.773861
0.620341
0.482399
0.360549
0.255957
0.169407
0.101274
0.050557
0.0140799
2.90444
2.6907
2.46122
2.22272
1.98175
1.74412
1.51461
1.2968
1.09338
0.905816
0.735257
0.582374
0.447424
0.330882
0.233416
0.154747
0.0937016
0.0478597
0.0136523
2.90794
2.6965
2.46569
2.22312
1.97625
1.73187
1.49563
1.2719
1.06395
0.873677
0.702496
0.551186
0.419925
0.308788
0.217608
0.144991
0.0887125
0.0458639
0.013194
2.91071
2.70109
2.46879
2.2222
1.96971
1.71902
1.47669
1.2478
1.03621
0.844171
0.673291
0.524295
0.397064
0.291063
0.20524
0.137335
0.084571
0.0439919
0.0126952
2.91216
2.70274
2.46804
2.21708
1.95908
1.70258
1.45494
1.2219
1.00777
0.815101
0.645514
0.499535
0.376592
0.275467
0.194337
0.130364
0.0805295
0.0419777
0.0120931
2.91214
2.70042
2.46163
2.20545
1.94181
1.67999
1.42797
1.19199
0.976675
0.784658
0.617455
0.475236
0.356882
0.260522
0.183724
0.123297
0.0761597
0.0396134
0.0113098
2.90986
2.6925
2.44743
2.18488
1.91539
1.6488
1.39352
1.15606
0.941125
0.751246
0.587651
0.450029
0.336679
0.24515
0.172566
0.115548
0.0710679
0.0366362
0.01022
2.90528
2.67917
2.42581
2.15592
1.8805
1.6098
1.35244
1.11495
0.901904
0.715514
0.556578
0.424212
0.316148
0.22945
0.160943
0.107176
0.0652699
0.0330109
0.00877429
2.90113
2.66878
2.41087
2.13813
1.86148
1.59101
1.33514
1.10017
0.890387
0.707688
0.552537
0.42371
0.318662
0.234272
0.167277
0.114232
0.0722196
0.0387944
0.0117133
2.89851
2.66382
2.40606
2.13548
1.86247
1.59649
1.3454
1.11502
0.909294
0.729873
0.577081
0.449637
0.344983
0.260053
0.191654
0.136331
0.0909594
0.0525704
0.0178641
2.89603
2.65911
2.40151
2.13313
1.86378
1.60234
1.35604
1.13022
0.928457
0.752133
0.601439
0.475051
0.370418
0.284522
0.214213
0.155998
0.106609
0.0628827
0.0214919
2.89389
2.65492
2.39758
2.13144
1.86579
1.60886
1.36733
1.146
0.948094
0.774731
0.625964
0.500425
0.395565
0.308409
0.235848
0.174385
0.120736
0.071813
0.0245572
2.89176
2.65073
2.39374
2.12993
1.868
1.61559
1.3788
1.16196
0.967906
0.797491
0.650621
0.525876
0.420699
0.33215
0.257171
0.192306
0.134346
0.0803674
0.0275437
2.88898
2.64592
2.38946
2.12806
1.86987
1.62198
1.38997
1.17769
0.987581
0.820219
0.675348
0.551476
0.446024
0.356079
0.278646
0.210335
0.148048
0.0890323
0.0306226
2.8867
2.64221
2.38636
2.12725
1.8726
1.62907
1.40173
1.19395
1.0078
0.843535
0.700729
0.57779
0.472102
0.380764
0.300846
0.229029
0.162325
0.0981318
0.0339005
2.88549
2.63981
2.38437
2.12726
1.87594
1.63664
1.41394
1.21071
1.02863
0.86761
0.727015
0.60514
0.499311
0.406624
0.324205
0.2488
0.177518
0.10789
0.0374543
2.88378
2.63628
2.38088
2.12562
1.8777
1.64285
1.42512
1.22687
1.04928
0.89193
0.75393
0.63344
0.527708
0.43382
0.348946
0.269887
0.193837
0.118452
0.0413411
2.88134
2.63134
2.37565
2.12221
1.87788
1.64789
1.43565
1.2429
1.07033
0.917122
0.782125
0.663342
0.55793
0.462948
0.375606
0.292747
0.211639
0.130053
0.0456532
2.87882
2.62581
2.36951
2.11795
1.8776
1.65299
1.44682
1.26015
1.09311
0.944483
0.812825
0.695982
0.591009
0.494929
0.404981
0.318037
0.231426
0.143021
0.0505192
2.87585
2.61892
2.36191
2.11272
1.87713
1.65879
1.45952
1.27965
1.11875
0.975158
0.847165
0.732451
0.627968
0.530695
0.437893
0.346451
0.253741
0.157724
0.0560871
2.87107
2.60954
2.35241
2.10674
1.8772
1.66635
1.47504
1.30283
1.14872
1.01062
0.886565
0.774098
0.67006
0.571385
0.475353
0.378849
0.279267
0.17463
0.0625521
2.86606
2.60062
2.34462
2.10394
1.88188
1.67973
1.4973
1.33338
1.18644
1.05402
0.933923
0.823555
0.719657
0.619109
0.519197
0.416774
0.309217
0.194561
0.0702553
2.86205
2.59409
2.34113
2.10745
1.8946
1.70244
1.52978
1.37469
1.23518
1.10847
0.992168
0.883571
0.779318
0.676218
0.571548
0.462078
0.34511
0.218602
0.0796693
2.8571
2.58875
2.34208
2.1184
1.91708
1.73654
1.57471
1.4291
1.29733
1.17639
1.06373
0.956575
0.85144
0.745048
0.634634
0.516817
0.388723
0.24809
0.0914275
2.85346
2.58976
2.35386
2.14345
1.95581
1.78824
1.638
1.50222
1.37828
1.26297
1.15364
1.04743
0.940734
0.830128
0.712743
0.58492
0.44344
0.285566
0.106747
2.85491
2.60347
2.38343
2.18946
2.01741
1.86389
1.72583
1.60014
1.48407
1.37426
1.26798
1.16229
1.05339
0.93764
0.811948
0.672173
0.514456
0.335126
0.127731
2.86322
2.63289
2.43409
2.25979
2.10534
1.96717
1.84218
1.72721
1.61948
1.51554
1.41255
1.3075
1.1963
1.07496
0.939984
0.786415
0.609244
0.403049
0.15798
2.88018
2.68018
2.50782
2.35643
2.22183
2.10073
1.99027
1.88734
1.78923
1.69241
1.59398
1.49077
1.37832
1.25211
1.10794
0.939501
0.739772
0.500103
0.204546
2.90536
2.74384
2.60278
2.47777
2.36582
2.2643
2.17076
2.0823
1.99636
1.9094
1.81846
1.72025
1.60982
1.48188
1.33114
1.14913
0.925384
0.6454
0.28229
2.93565
2.81859
2.71329
2.61848
2.53274
2.45428
2.38121
2.311
2.2414
2.16901
2.09096
2.00392
1.90247
1.78044
1.63104
1.44257
1.19893
0.875318
0.42548
2.9663
2.8967
2.83103
2.7706
2.71534
2.66431
2.61632
2.56944
2.52202
2.47116
2.41444
2.34889
2.26911
2.16841
2.03853
1.86376
1.61977
1.26467
0.719133
2.99221
2.96985
2.94697
2.92529
2.90525
2.8866
2.86894
2.85136
2.8332
2.8129
2.78926
2.76064
2.72337
2.67234
2.59961
2.48747
2.30286
1.97974
1.38574
)
;

boundaryField
{
    up
    {
        type            fixedValue;
        value           uniform 0;
    }
    low
    {
        type            fixedValue;
        value           uniform 3;
    }
    left
    {
        type            fixedValue;
        value           uniform 3;
    }
    right
    {
        type            fixedValue;
        value           uniform 3;
    }
    frontAndBackPlanes
    {
        type            empty;
    }
}


// ************************************************************************* //
