/*--------------------------------*- C++ -*----------------------------------*\
  =========                 |
  \\      /  F ield         | OpenFOAM: The Open Source CFD Toolbox
   \\    /   O peration     | Website:  https://openfoam.org
    \\  /    A nd           | Version:  7
     \\/     M anipulation  |
\*---------------------------------------------------------------------------*/
FoamFile
{
    version     2.0;
    format      ascii;
    class       volScalarField;
    location    "0.13";
    object      gradTy;
}
// * * * * * * * * * * * * * * * * * * * * * * * * * * * * * * * * * * * * * //

dimensions      [0 -1 0 1 0 0 0];

internalField   nonuniform List<scalar> 
1596
(
-0.411607
-0.758994
-1.03281
-1.28092
-1.50019
-1.72107
-1.92656
-2.14995
-2.40063
-2.68448
-3.08356
-3.59206
-4.31715
-5.3795
-7.07599
-9.76418
-14.6177
-23.6077
-55.7633
-1.2461
-1.51979
-1.68266
-1.8102
-1.91159
-2.02415
-2.13634
-2.28069
-2.46803
-2.69857
-3.04317
-3.48976
-4.11149
-4.96295
-6.19843
-7.89012
-10.4321
-14.1828
-24.8299
-2.20859
-2.2764
-2.2808
-2.27259
-2.25368
-2.25832
-2.27576
-2.3358
-2.44747
-2.60716
-2.87454
-3.23136
-3.72936
-4.39333
-5.31846
-6.51076
-8.18615
-10.4902
-15.4163
-3.18867
-2.99184
-2.81831
-2.67044
-2.53411
-2.43432
-2.35938
-2.33449
-2.3663
-2.4488
-2.63135
-2.89269
-3.27009
-3.77324
-4.46424
-5.32356
-6.48021
-7.98881
-10.5554
-4.0567
-3.62456
-3.28766
-3.01064
-2.76649
-2.56987
-2.40847
-2.3022
-2.25579
-2.26203
-2.3611
-2.53162
-2.80083
-3.17103
-3.68511
-4.31575
-5.14634
-6.19128
-7.7068
-4.70795
-4.13854
-3.68267
-3.30083
-2.96518
-2.68334
-2.44436
-2.26338
-2.14404
-2.07907
-2.10048
-2.18875
-2.36372
-2.62423
-3.00118
-3.46713
-4.07941
-4.83523
-5.83035
-5.09913
-4.50979
-3.99632
-3.54452
-3.13939
-2.7875
-2.48217
-2.2353
-2.05051
-1.92144
-1.87305
-1.8887
-1.98249
-2.15169
-2.41903
-2.75995
-3.21556
-3.7767
-4.47984
-5.24884
-4.72845
-4.21847
-3.73649
-3.28806
-2.88448
-2.52622
-2.22413
-1.98296
-1.79819
-1.68891
-1.64179
-1.66636
-1.75922
-1.93697
-2.1789
-2.51503
-2.93498
-3.45237
-5.21708
-4.82448
-4.36552
-3.88845
-3.42087
-2.98288
-2.58398
-2.23638
-1.94709
-1.71415
-1.55222
-1.45123
-1.41712
-1.44618
-1.55005
-1.71175
-1.953
-2.26425
-2.64988
-5.05013
-4.78548
-4.40509
-3.964
-3.5035
-3.05259
-2.62979
-2.25053
-1.92492
-1.65411
-1.44983
-1.30503
-1.22306
-1.20003
-1.24367
-1.3402
-1.50508
-1.73036
-2.01683
-4.86926
-4.68804
-4.38062
-3.98646
-3.54798
-3.09898
-2.66497
-2.26518
-1.91315
-1.61331
-1.37586
-1.19639
-1.07646
-1.01212
-1.00786
-1.05241
-1.15619
-1.31272
-1.52131
-4.66713
-4.56777
-4.32609
-3.9795
-3.56898
-3.13019
-2.69317
-2.2807
-1.90962
-1.5876
-1.32433
-1.11765
-0.968018
-0.87143
-0.829789
-0.833622
-0.889287
-0.991382
-1.13857
-4.43177
-4.40301
-4.22212
-3.92341
-3.5456
-3.12498
-2.6939
-2.27804
-1.89695
-1.56113
-1.28054
-1.05486
-0.883994
-0.763968
-0.694729
-0.66806
-0.687209
-0.74753
-0.847368
-4.23487
-4.24086
-4.10344
-3.84423
-3.4963
-3.09508
-2.67354
-2.25942
-1.87427
-1.53079
-1.23956
-1.00162
-0.816656
-0.68072
-0.59229
-0.543936
-0.536534
-0.565848
-0.630001
-4.06191
-4.09414
-3.98633
-3.75621
-3.4321
-3.04789
-2.63628
-2.22628
-1.84078
-1.4941
-1.19741
-0.95267
-0.759471
-0.613837
-0.513137
-0.450385
-0.424681
-0.431972
-0.470192
-3.89759
-3.95709
-3.87249
-3.6635
-3.35692
-2.98601
-2.58311
-2.1781
-1.79474
-1.44829
-1.1504
-0.903495
-0.707028
-0.556902
-0.449628
-0.378416
-0.341074
-0.333597
-0.353765
-3.75437
-3.83254
-3.76521
-3.57068
-3.27539
-2.91313
-2.51642
-2.11594
-1.73595
-1.39222
-1.09652
-0.851276
-0.655691
-0.505383
-0.396145
-0.321208
-0.277447
-0.260834
-0.269039
-3.63402
-3.72601
-3.67095
-3.48511
-3.19524
-2.83641
-2.44224
-2.04439
-1.66759
-1.32778
-1.03644
-0.795644
-0.604068
-0.456872
-0.349163
-0.274068
-0.227765
-0.206171
-0.206879
-3.51069
-3.63472
-3.59527
-3.41604
-3.12726
-2.76682
-2.37068
-1.97212
-1.59663
-1.26019
-0.973747
-0.738706
-0.552922
-0.410895
-0.307002
-0.234144
-0.187937
-0.164218
-0.16052
-3.37791
-3.54301
-3.52549
-3.35448
-3.0654
-2.70052
-2.29946
-1.89787
-1.52237
-1.18908
-0.908144
-0.68005
-0.501587
-0.366402
-0.268078
-0.199213
-0.154958
-0.131081
-0.125083
-3.26459
-3.46175
-3.46672
-3.30451
-3.01388
-2.64196
-2.23298
-1.82574
-1.44845
-1.11746
-0.841984
-0.621363
-0.451081
-0.323753
-0.232091
-0.168309
-0.127142
-0.104307
-0.0973264
-3.16158
-3.39169
-3.41963
-3.26694
-2.97445
-2.59393
-2.17481
-1.75964
-1.37871
-1.04881
-0.778183
-0.564902
-0.402976
-0.283862
-0.199329
-0.141129
-0.103572
-0.0823102
-0.0750033
-3.06115
-3.32902
-3.38228
-3.24064
-2.94698
-2.55749
-2.12708
-1.70244
-1.31633
-0.986237
-0.719484
-0.512885
-0.358898
-0.24778
-0.17033
-0.117772
-0.0838974
-0.0641021
-0.0562966
-2.96601
-3.27203
-3.35066
-3.21952
-2.92398
-2.52435
-2.08154
-1.64626
-1.25406
-0.923359
-0.660124
-0.460264
-0.314446
-0.211703
-0.141798
-0.0955137
-0.0658752
-0.0475515
-0.0369097
-2.8844
-3.22712
-3.34005
-3.23557
-2.95812
-2.56736
-2.12656
-1.68811
-1.29006
-0.953042
-0.683371
-0.478234
-0.328021
-0.221963
-0.149581
-0.101734
-0.0708179
-0.0510169
-0.0373203
-2.82335
-3.19106
-3.33104
-3.25416
-3.00119
-2.62827
-2.19741
-1.76098
-1.35866
-1.01356
-0.73362
-0.518124
-0.358364
-0.244181
-0.16527
-0.112726
-0.0786871
-0.0573597
-0.0439158
-2.81623
-3.1888
-3.34145
-3.28331
-3.05094
-2.69636
-2.27811
-1.84722
-1.44359
-1.09194
-0.802061
-0.575179
-0.403917
-0.279109
-0.191085
-0.131403
-0.0922328
-0.0676373
-0.0524459
-2.87011
-3.22672
-3.37429
-3.32177
-3.10223
-2.76312
-2.3584
-1.93609
-1.53485
-1.17991
-0.882341
-0.645112
-0.462187
-0.325556
-0.226467
-0.157414
-0.111004
-0.0814239
-0.0630788
-2.97646
-3.30462
-3.43309
-3.37498
-3.16106
-2.83415
-2.44297
-2.03141
-1.63571
-1.28068
-0.977902
-0.731877
-0.537693
-0.388416
-0.27623
-0.194988
-0.138309
-0.101153
-0.07767
-3.12988
-3.41384
-3.51213
-3.44049
-3.22709
-2.91
-2.53252
-2.13372
-1.74666
-1.39497
-1.09015
-0.83791
-0.634189
-0.472782
-0.346358
-0.25014
-0.179288
-0.130725
-0.099085
-3.32562
-3.55312
-3.61572
-3.52615
-3.30982
-3.0003
-2.63576
-2.25035
-1.87364
-1.52764
-1.22335
-0.96759
-0.756916
-0.585486
-0.445471
-0.332556
-0.24302
-0.177218
-0.132278
-3.52742
-3.70805
-3.73672
-3.62857
-3.40815
-3.1053
-2.75354
-2.38226
-2.01746
-1.67939
-1.3783
-1.12216
-0.908395
-0.731601
-0.582548
-0.455559
-0.345128
-0.254385
-0.18666
-3.75147
-3.88401
-3.87722
-3.74885
-3.52277
-3.22542
-2.88595
-2.52918
-2.17756
-1.84934
-1.55383
-1.30023
-1.08739
-0.911476
-0.762443
-0.63265
-0.509917
-0.393146
-0.281933
-4.00982
-4.08978
-4.04598
-3.89694
-3.66526
-3.3741
-3.04815
-2.70787
-2.3721
-2.05685
-1.77053
-1.52305
-1.31532
-1.14686
-1.01021
-0.899545
-0.798603
-0.699278
-0.591357
-4.29002
-4.31339
-4.22387
-4.0443
-3.79673
-3.50188
-3.1802
-2.8487
-2.5229
-2.21595
-1.93561
-1.69053
-1.48294
-1.31455
-1.18276
-1.08704
-1.01823
-0.969692
-0.929933
-4.60271
-4.55181
-4.40501
-4.1856
-3.91317
-3.60581
-3.28019
-2.95081
-2.63065
-2.33029
-2.0573
-1.81838
-1.61587
-1.451
-1.32269
-1.23016
-1.16963
-1.13925
-1.13584
-4.94626
-4.80832
-4.60166
-4.34181
-4.04347
-3.72123
-3.38874
-3.05835
-2.74122
-2.44629
-2.18062
-1.94965
-1.7553
-1.59803
-1.47622
-1.38689
-1.32485
-1.28502
-1.26123
-5.25083
-5.03604
-4.77642
-4.48019
-4.15797
-3.82129
-3.4815
-3.14902
-2.83346
-2.54249
-2.28225
-2.05737
-1.8692
-1.71767
-1.60094
-1.51572
-1.45693
-1.41969
-1.39816
-5.4873
-5.22203
-4.92405
-4.60021
-4.25942
-3.91139
-3.56586
-3.23179
-2.91765
-2.63005
-2.37448
-2.15492
-1.97232
-1.82629
-1.71489
-1.63464
-1.58057
-1.54771
-1.53028
-5.67194
-5.36894
-5.04196
-4.69708
-4.34204
-3.98529
-3.63533
-3.30006
-2.98705
-2.70213
-2.45031
-2.23509
-2.05711
-1.91575
-1.80899
-1.73316
-1.68336
-1.65457
-1.64103
-5.80561
-5.4746
-5.12585
-4.76553
-4.40027
-4.03739
-3.68439
-3.34836
-3.03624
-2.75331
-2.50428
-2.29227
-2.11773
-1.97988
-1.87662
-1.80413
-1.75751
-1.73162
-1.72068
-5.89642
-5.53587
-5.17056
-4.80041
-4.42932
-4.06319
-3.70873
-3.37249
-3.06104
-2.77936
-2.53197
-2.32182
-2.14928
-2.01347
-1.91231
-1.84192
-1.79744
-1.77374
-1.765
-5.89645
-5.53592
-5.17062
-4.80049
-4.4294
-4.06328
-3.70882
-3.37258
-3.06114
-2.77945
-2.53206
-2.32192
-2.14938
-2.01357
-1.91242
-1.84203
-1.79756
-1.77386
-1.76514
-5.80565
-5.47469
-5.12599
-4.7657
-4.40048
-4.03761
-3.68463
-3.34861
-3.03651
-2.75359
-2.50456
-2.29256
-2.11803
-1.98019
-1.87695
-1.80447
-1.75788
-1.73202
-1.72111
-5.672
-5.36909
-5.04218
-4.69736
-4.34237
-3.98565
-3.63572
-3.30046
-2.98748
-2.70257
-2.45077
-2.23556
-2.05759
-1.91624
-1.80951
-1.7337
-1.68394
-1.6552
-1.6417
-5.48738
-5.22222
-4.92433
-4.60057
-4.25983
-3.91185
-3.56636
-3.23233
-2.91821
-2.63063
-2.37507
-2.15553
-1.97294
-1.82693
-1.71555
-1.63533
-1.58129
-1.54847
-1.53109
-5.25091
-5.03626
-4.77675
-4.48061
-4.15846
-3.82184
-3.48211
-3.14966
-2.83414
-2.54318
-2.28296
-2.0581
-1.86994
-1.71843
-1.60171
-1.51652
-1.45777
-1.42057
-1.39909
-4.94636
-4.80857
-4.60203
-4.34227
-4.04401
-3.72185
-3.38942
-3.05908
-2.74198
-2.44708
-2.18142
-1.95046
-1.75612
-1.59885
-1.47706
-1.38773
-1.32571
-1.2859
-1.26213
-4.60282
-4.5521
-4.40547
-4.1862
-3.91391
-3.60668
-3.28116
-2.95187
-2.63177
-2.33145
-2.0585
-1.8196
-1.61711
-1.45226
-1.32399
-1.23147
-1.17091
-1.14042
-1.1368
-4.29009
-4.31345
-4.22398
-4.04451
-3.79706
-3.50233
-3.18075
-2.84934
-2.52361
-2.21667
-1.93633
-1.6912
-1.48353
-1.31503
-1.18313
-1.08734
-1.0186
-0.970402
-0.931385
-4.00985
-4.09
-4.0464
-3.8976
-3.66619
-3.37529
-3.04957
-2.70948
-2.37384
-2.05867
-1.77238
-1.52488
-1.31712
-1.14865
-1.01205
-0.901533
-0.800893
-0.702018
-0.594649
-3.75147
-3.88406
-3.87741
-3.74924
-3.52337
-3.22623
-2.88695
-2.53033
-2.17879
-1.85062
-1.55509
-1.30145
-1.08856
-0.912621
-0.763592
-0.633839
-0.511128
-0.394282
-0.282795
-3.5274
-3.70808
-3.73687
-3.62892
-3.40872
-3.10609
-2.75451
-2.38336
-2.01865
-1.68059
-1.37947
-1.12328
-0.909443
-0.732592
-0.583496
-0.456461
-0.345946
-0.255055
-0.187147
-3.3256
-3.55311
-3.61583
-3.52644
-3.31033
-3.00102
-2.63666
-2.25138
-1.87472
-1.52872
-1.22439
-0.968553
-0.757797
-0.586287
-0.446195
-0.333195
-0.243557
-0.177636
-0.132576
-3.12986
-3.41381
-3.5122
-3.44073
-3.22755
-2.91067
-2.53335
-2.13466
-1.74764
-1.39593
-1.09105
-0.838727
-0.634912
-0.473414
-0.3469
-0.250592
-0.179648
-0.130998
-0.0992806
-2.97641
-3.30456
-3.43312
-3.37518
-3.16147
-2.83475
-2.44373
-2.03226
-1.63658
-1.28152
-0.978673
-0.732557
-0.538278
-0.388909
-0.276635
-0.195311
-0.138557
-0.10134
-0.077806
-2.87007
-3.22666
-3.37431
-3.32194
-3.10259
-2.76366
-2.35907
-1.93684
-1.53561
-1.18063
-0.882987
-0.645669
-0.462653
-0.325937
-0.22677
-0.157649
-0.111182
-0.0815579
-0.0631801
-2.81619
-3.18874
-3.34145
-3.28346
-3.05126
-2.69683
-2.27869
-1.84786
-1.44423
-1.09254
-0.802592
-0.575629
-0.404287
-0.279405
-0.191315
-0.131578
-0.0923653
-0.0677396
-0.0525291
-2.82331
-3.19099
-3.33103
-3.25425
-3.00142
-2.62862
-2.19784
-1.76145
-1.35914
-1.014
-0.734005
-0.518448
-0.358626
-0.244388
-0.165428
-0.112845
-0.0787762
-0.0574313
-0.0439843
-2.88444
-3.22714
-3.3401
-3.23566
-2.95825
-2.56753
-2.12676
-1.68833
-1.29029
-0.953257
-0.683568
-0.478409
-0.328172
-0.22209
-0.149686
-0.101821
-0.0708892
-0.0510737
-0.0373569
-2.96605
-3.27206
-3.35066
-3.21948
-2.92389
-2.52422
-2.08138
-1.64609
-1.2539
-0.923208
-0.659995
-0.460158
-0.314364
-0.211641
-0.141752
-0.0954794
-0.065849
-0.0475287
-0.03688
-3.06118
-3.32904
-3.38229
-3.24064
-2.94697
-2.55749
-2.12708
-1.70244
-1.31633
-0.986243
-0.719494
-0.512896
-0.358909
-0.24779
-0.170338
-0.117779
-0.0839029
-0.0641067
-0.0562982
-3.16159
-3.3917
-3.41964
-3.26694
-2.97444
-2.59391
-2.1748
-1.75963
-1.37871
-1.04881
-0.778185
-0.564906
-0.40298
-0.283867
-0.199334
-0.141133
-0.103576
-0.0823138
-0.0750058
-3.26461
-3.46176
-3.46672
-3.3045
-3.01387
-2.64195
-2.23297
-1.82573
-1.44845
-1.11745
-0.841985
-0.621365
-0.451083
-0.323756
-0.232094
-0.168312
-0.127146
-0.104312
-0.0973302
-3.37792
-3.54302
-3.52549
-3.35447
-3.06539
-2.70051
-2.29945
-1.89787
-1.52237
-1.18908
-0.908144
-0.68005
-0.501587
-0.366402
-0.26808
-0.199216
-0.154962
-0.131087
-0.125089
-3.5107
-3.63473
-3.59527
-3.41603
-3.12725
-2.76681
-2.37068
-1.97212
-1.59662
-1.26019
-0.973745
-0.738705
-0.552921
-0.410895
-0.307003
-0.234147
-0.187942
-0.164226
-0.160528
-3.63402
-3.72601
-3.67095
-3.48511
-3.19524
-2.83641
-2.44224
-2.04439
-1.66759
-1.32778
-1.03643
-0.79564
-0.604064
-0.45687
-0.349163
-0.274072
-0.227773
-0.206181
-0.206889
-3.75437
-3.83254
-3.76521
-3.57067
-3.27539
-2.91313
-2.51642
-2.11594
-1.73595
-1.39222
-1.09651
-0.851271
-0.655686
-0.505381
-0.396146
-0.321213
-0.277457
-0.260846
-0.26905
-3.89759
-3.95709
-3.87248
-3.6635
-3.35692
-2.98601
-2.58311
-2.1781
-1.79473
-1.44829
-1.1504
-0.903487
-0.707022
-0.5569
-0.44963
-0.378422
-0.341085
-0.33361
-0.353776
-4.0619
-4.09413
-3.98632
-3.75621
-3.43211
-3.0479
-2.63629
-2.22627
-1.84078
-1.49409
-1.1974
-0.952662
-0.759465
-0.613834
-0.513139
-0.450392
-0.424693
-0.431985
-0.4702
-4.23486
-4.24085
-4.10344
-3.84423
-3.49631
-3.09509
-2.67355
-2.25942
-1.87426
-1.53078
-1.23955
-1.00161
-0.81665
-0.680718
-0.592293
-0.543944
-0.536544
-0.565856
-0.630003
-4.43176
-4.403
-4.22212
-3.92342
-3.54561
-3.12499
-2.69391
-2.27804
-1.89695
-1.56112
-1.28053
-1.05486
-0.883989
-0.763968
-0.694734
-0.668067
-0.687214
-0.747529
-0.847362
-4.66711
-4.56776
-4.32609
-3.97951
-3.56898
-3.13019
-2.69317
-2.2807
-1.90961
-1.58759
-1.32432
-1.11765
-0.968015
-0.871431
-0.829793
-0.833625
-0.889284
-0.99137
-1.13856
-4.86924
-4.68803
-4.38063
-3.98647
-3.54799
-3.09899
-2.66497
-2.26518
-1.91314
-1.6133
-1.37586
-1.19639
-1.07646
-1.01213
-1.00786
-1.05241
-1.15618
-1.31269
-1.52129
-5.05012
-4.78549
-4.4051
-3.96402
-3.50351
-3.0526
-2.62978
-2.25053
-1.92492
-1.6541
-1.44983
-1.30503
-1.22306
-1.20004
-1.24366
-1.34019
-1.50505
-1.73032
-2.01681
-5.21707
-4.82449
-4.36553
-3.88846
-3.42088
-2.98288
-2.58398
-2.23638
-1.94709
-1.71415
-1.55222
-1.45123
-1.41713
-1.44618
-1.55004
-1.71173
-1.95296
-2.26421
-2.64986
-5.24884
-4.72846
-4.21848
-3.7365
-3.28806
-2.88448
-2.52622
-2.22413
-1.98296
-1.79819
-1.68892
-1.64179
-1.66636
-1.75922
-1.93696
-2.17888
-2.515
-2.93495
-3.45236
-5.09915
-4.50981
-3.99633
-3.54452
-3.13939
-2.7875
-2.48217
-2.23531
-2.05051
-1.92145
-1.87306
-1.88871
-1.98249
-2.15169
-2.41901
-2.75993
-3.21553
-3.77667
-4.47985
-4.70797
-4.13855
-3.68268
-3.30084
-2.96519
-2.68334
-2.44436
-2.26338
-2.14405
-2.07908
-2.10049
-2.18876
-2.36372
-2.62422
-3.00117
-3.4671
-4.07939
-4.83522
-5.83037
-4.05672
-3.62457
-3.28767
-3.01065
-2.7665
-2.56988
-2.40848
-2.30221
-2.25581
-2.26205
-2.36111
-2.53163
-2.80083
-3.17102
-3.68509
-4.31573
-5.14633
-6.19129
-7.70682
-3.18868
-2.99184
-2.81831
-2.67045
-2.53412
-2.43433
-2.3594
-2.3345
-2.36632
-2.44881
-2.63137
-2.89269
-3.27009
-3.77323
-4.46422
-5.32355
-6.48022
-7.98883
-10.5555
-2.2086
-2.27639
-2.2808
-2.27259
-2.25369
-2.25833
-2.27578
-2.33582
-2.44748
-2.60717
-2.87455
-3.23137
-3.72935
-4.39332
-5.31844
-6.51076
-8.18615
-10.4902
-15.4163
-1.24611
-1.51978
-1.68265
-1.8102
-1.91159
-2.02416
-2.13634
-2.2807
-2.46804
-2.69858
-3.04317
-3.48977
-4.11148
-4.96294
-6.19841
-7.89011
-10.4321
-14.1828
-24.8299
-0.41161
-0.758993
-1.0328
-1.28092
-1.50019
-1.72107
-1.92657
-2.14995
-2.40063
-2.68448
-3.08356
-3.59206
-4.31715
-5.37948
-7.07598
-9.76416
-14.6177
-23.6077
-55.7633
)
;

boundaryField
{
    up
    {
        type            calculated;
        value           nonuniform List<scalar> 
84
(
-50.536
-27.3703
-16.7692
-11.364
-8.24285
-6.2136
-4.7665
-3.67118
-2.81673
-2.14291
-1.61439
-1.20535
-0.893926
-0.661309
-0.490425
-0.366269
-0.276342
-0.210802
-0.162314
-0.125604
-0.0971176
-0.0743454
-0.0548006
-0.0325592
-0.031232
-0.0402788
-0.0483374
-0.0580036
-0.0710232
-0.0899422
-0.118787
-0.163559
-0.242938
-0.571138
-0.942189
-1.1438
-1.25256
-1.39084
-1.52485
-1.6374
-1.71827
-1.76372
-1.76385
-1.71872
-1.63809
-1.52569
-1.3918
-1.25348
-1.14455
-0.94374
-0.574918
-0.243758
-0.163971
-0.119042
-0.0901108
-0.0711418
-0.0580938
-0.0484137
-0.0403601
-0.0312732
-0.0325235
-0.0547992
-0.0743466
-0.0971206
-0.125608
-0.162321
-0.210811
-0.276351
-0.366277
-0.49043
-0.661307
-0.893917
-1.20533
-1.61437
-2.14289
-2.81673
-3.6712
-4.76654
-6.21364
-8.24289
-11.364
-16.7692
-27.3703
-50.536
)
;
    }
    low
    {
        type            calculated;
        value           nonuniform List<scalar> 
84
(
-0.442314
-1.3044
-2.33322
-3.39495
-4.33696
-5.03394
-5.43069
-5.55317
-5.45887
-5.2157
-4.99751
-4.76077
-4.47713
-4.2554
-4.06911
-3.88402
-3.7219
-3.59614
-3.45933
-3.29526
-3.1564
-3.0321
-2.90587
-2.78636
-2.66437
-2.58439
-2.57976
-2.66121
-2.804
-3.00263
-3.23842
-3.46656
-3.71945
-4.00983
-4.3156
-4.66139
-5.04987
-5.3811
-5.63186
-5.82823
-5.97142
-6.07728
-6.0773
-5.97144
-5.82826
-5.6319
-5.38114
-5.04993
-4.66146
-4.31557
-4.00987
-3.7194
-3.46653
-3.23839
-3.0026
-2.80397
-2.66119
-2.57975
-2.58439
-2.66438
-2.78643
-2.90588
-3.03212
-3.15641
-3.29526
-3.45934
-3.59615
-3.7219
-3.88402
-4.0691
-4.25539
-4.47712
-4.76075
-4.99748
-5.21567
-5.45885
-5.55317
-5.4307
-5.03396
-4.33698
-3.39497
-2.33324
-1.30441
-0.442319
)
;
    }
    left
    {
        type            calculated;
        value           nonuniform List<scalar> 
19
(
-0.404209
-0.746087
-1.02632
-1.284
-1.51389
-1.74504
-1.96054
-2.1952
-2.45839
-2.76057
-3.1873
-3.73578
-4.52766
-5.70728
-7.60733
-10.6666
-16.2506
-26.711
-52.4095
)
;
    }
    right
    {
        type            calculated;
        value           nonuniform List<scalar> 
19
(
-0.404212
-0.746087
-1.02632
-1.28399
-1.51389
-1.74504
-1.96055
-2.19521
-2.4584
-2.76057
-3.1873
-3.73577
-4.52765
-5.70726
-7.60731
-10.6666
-16.2506
-26.711
-52.4095
)
;
    }
    frontAndBackPlanes
    {
        type            empty;
    }
}


// ************************************************************************* //
