/*--------------------------------*- C++ -*----------------------------------*\
  =========                 |
  \\      /  F ield         | OpenFOAM: The Open Source CFD Toolbox
   \\    /   O peration     | Website:  https://openfoam.org
    \\  /    A nd           | Version:  7
     \\/     M anipulation  |
\*---------------------------------------------------------------------------*/
FoamFile
{
    version     2.0;
    format      ascii;
    class       volScalarField;
    location    "0.148";
    object      gradTx;
}
// * * * * * * * * * * * * * * * * * * * * * * * * * * * * * * * * * * * * * //

dimensions      [0 -1 0 1 0 0 0];

internalField   nonuniform List<scalar> 
1596
(
-0.359182
-1.8003
-3.20819
-4.44744
-5.4985
-6.35091
-7.04551
-7.60973
-8.08385
-8.54174
-9.00921
-9.57512
-10.3388
-11.4352
-13.0164
-15.4424
-19.2539
-25.6112
-36.912
0.0839098
-1.48467
-2.86852
-4.04172
-5.0237
-5.81523
-6.45407
-6.95488
-7.34912
-7.67796
-7.95263
-8.22474
-8.51961
-8.87102
-9.27741
-9.72485
-10.0694
-10.0058
-8.87565
0.449932
-1.18249
-2.51083
-3.59823
-4.4935
-5.21049
-5.78226
-6.21907
-6.54283
-6.77738
-6.92605
-7.01836
-7.05685
-7.04778
-6.97503
-6.80455
-6.42458
-5.63142
-4.01257
0.51715
-0.997506
-2.19247
-3.15695
-3.94469
-4.57517
-5.07426
-5.45015
-5.71718
-5.88838
-5.96445
-5.96091
-5.8737
-5.70023
-5.4264
-5.02461
-4.42604
-3.51371
-2.04747
0.187544
-0.999638
-1.96939
-2.76721
-3.42496
-3.957
-4.37887
-4.69626
-4.91725
-5.04735
-5.08697
-5.04214
-4.90743
-4.67719
-4.34162
-3.88074
-3.25606
-2.40462
-1.19322
-0.501927
-1.21782
-1.88714
-2.47778
-2.98344
-3.40406
-3.74242
-4.0001
-4.17951
-4.28038
-4.30315
-4.24719
-4.10684
-3.87493
-3.54448
-3.09998
-2.5206
-1.77303
-0.785435
-1.4118
-1.63315
-1.96762
-2.32386
-2.65908
-2.95511
-3.20157
-3.39425
-3.53021
-3.60454
-3.61706
-3.56243
-3.43471
-3.22553
-2.92898
-2.53148
-2.02112
-1.37956
-0.568207
-2.35554
-2.16198
-2.17997
-2.29985
-2.45829
-2.62219
-2.77032
-2.89224
-2.98019
-3.02551
-3.02666
-2.97516
-2.8645
-2.68532
-2.43169
-2.09055
-1.65387
-1.11012
-0.437861
-3.32555
-2.85014
-2.59483
-2.48197
-2.45222
-2.46725
-2.50001
-2.53494
-2.56038
-2.56465
-2.54404
-2.48794
-2.38873
-2.23606
-2.02313
-1.73667
-1.36949
-0.912303
-0.351454
-3.90504
-3.33642
-2.92561
-2.64973
-2.47303
-2.36366
-2.29571
-2.25171
-2.21816
-2.18188
-2.13736
-2.07309
-1.98064
-1.84931
-1.6716
-1.4344
-1.13042
-0.751136
-0.286316
-4.38232
-3.78171
-3.28159
-2.8875
-2.5883
-2.36518
-2.19883
-2.0735
-1.9759
-1.89273
-1.81703
-1.737
-1.64353
-1.52565
-1.37513
-1.17902
-0.929436
-0.617667
-0.234663
-4.87784
-4.2829
-3.72946
-3.24399
-2.83601
-2.50205
-2.23298
-2.01801
-1.84632
-1.70562
-1.5882
-1.48218
-1.3777
-1.26342
-1.13031
-0.965501
-0.760301
-0.505478
-0.191978
-5.03335
-4.52004
-3.98399
-3.47189
-3.00972
-2.60791
-2.26787
-1.98572
-1.75489
-1.56573
-1.41114
-1.28007
-1.1626
-1.04762
-0.925799
-0.784763
-0.615518
-0.408703
-0.15527
-5.0987
-4.67119
-4.17837
-3.66924
-3.1796
-2.73146
-2.33609
-1.99727
-1.71368
-1.4792
-1.28824
-1.13096
-0.997737
-0.87777
-0.761581
-0.637322
-0.495846
-0.32785
-0.124401
-5.1302
-4.77883
-4.33648
-3.84622
-3.34674
-2.86804
-2.42972
-2.04314
-1.71266
-1.43621
-1.21036
-1.02672
-0.876173
-0.748242
-0.63336
-0.520117
-0.399313
-0.261804
-0.0988745
-5.05137
-4.78191
-4.40012
-3.9459
-3.45743
-2.9691
-2.50653
-2.08766
-1.72238
-1.41285
-1.15832
-0.952145
-0.786014
-0.649932
-0.534394
-0.428426
-0.322904
-0.208953
-0.0782049
-4.85165
-4.66184
-4.34749
-3.94318
-3.48443
-3.007
-2.54012
-2.10676
-1.7216
-1.39086
-1.11665
-0.894317
-0.716646
-0.574316
-0.458076
-0.357422
-0.263425
-0.167562
-0.0618921
-4.60384
-4.46676
-4.21305
-3.86187
-3.44231
-2.98868
-2.5317
-2.09764
-1.705
-1.36351
-1.07804
-0.845914
-0.661124
-0.515124
-0.399031
-0.302804
-0.21777
-0.135775
-0.0493281
-4.39805
-4.30278
-4.09476
-3.78562
-3.39862
-2.96587
-2.51874
-2.08581
-1.6886
-1.33973
-1.0463
-0.807308
-0.617675
-0.469435
-0.353934
-0.261416
-0.183361
-0.111889
-0.0398851
-3.99602
-3.95917
-3.80822
-3.55538
-3.21956
-2.8292
-2.41439
-2.00419
-1.62188
-1.28224
-0.994349
-0.758959
-0.572193
-0.426994
-0.315275
-0.227799
-0.156382
-0.0935501
-0.0327115
-3.53261
-3.54233
-3.44401
-3.2465
-2.96499
-2.62405
-2.25143
-1.87529
-1.51939
-1.19974
-0.926745
-0.7026
-0.524581
-0.386634
-0.281398
-0.20028
-0.135476
-0.0798636
-0.0274201
-3.03391
-3.07307
-3.01842
-2.87228
-2.64536
-2.35799
-2.03481
-1.70192
-1.38238
-1.0924
-0.842947
-0.637265
-0.473618
-0.347014
-0.251012
-0.177852
-0.120166
-0.070934
-0.0241915
-2.46486
-2.51751
-2.49865
-2.40286
-2.23504
-2.00996
-1.74792
-1.47146
-1.20162
-0.953763
-0.73862
-0.560165
-0.417551
-0.307041
-0.223485
-0.160414
-0.111244
-0.0689403
-0.0259814
-1.80821
-1.78524
-1.71209
-1.5909
-1.43138
-1.24738
-1.05408
-0.865132
-0.691709
-0.540535
-0.414798
-0.314238
-0.236069
-0.176679
-0.132356
-0.0992608
-0.0734213
-0.0499154
-0.0219044
-1.20871
-1.33421
-1.44675
-1.51723
-1.52924
-1.47848
-1.37232
-1.22536
-1.05642
-0.883019
-0.718937
-0.573506
-0.450129
-0.349702
-0.271025
-0.21178
-0.168155
-0.135428
-0.106369
-0.405326
-0.455497
-0.515905
-0.571133
-0.609859
-0.625045
-0.615249
-0.582787
-0.534
-0.476094
-0.415094
-0.356528
-0.302157
-0.253397
-0.210977
-0.176312
-0.149495
-0.130718
-0.118447
0.40055
0.3431
0.254631
0.148849
0.0399308
-0.0597676
-0.141813
-0.201877
-0.240447
-0.260859
-0.266882
-0.263194
-0.251624
-0.234041
-0.212152
-0.189502
-0.168728
-0.152677
-0.141663
1.19969
1.12182
0.996488
0.838335
0.663548
0.487864
0.324287
0.181553
0.0633702
-0.030607
-0.102275
-0.155178
-0.190582
-0.209633
-0.213486
-0.206511
-0.193409
-0.18007
-0.169198
1.91242
1.7978
1.62837
1.42064
1.19122
0.956708
0.731569
0.526099
0.34591
0.192191
0.0641866
-0.0407581
-0.123056
-0.182191
-0.216881
-0.230125
-0.227047
-0.21662
-0.204937
2.63647
2.47279
2.25151
1.98967
1.70457
1.41354
1.13166
0.869719
0.634033
0.426289
0.246026
0.0905617
-0.0404842
-0.145313
-0.219194
-0.261305
-0.27406
-0.268259
-0.254632
3.16343
2.94511
2.6766
2.37398
2.05387
1.73178
1.42078
1.12972
0.863865
0.624228
0.409983
0.217757
0.0462742
-0.102647
-0.221125
-0.302554
-0.341451
-0.345433
-0.328351
3.63836
3.37453
3.06044
2.71863
2.36645
2.01775
1.68338
1.37014
1.08199
0.81898
0.579669
0.359403
0.154644
-0.0355531
-0.203578
-0.33914
-0.425099
-0.45689
-0.444001
4.05818
3.73434
3.37222
2.99464
2.61707
2.25028
1.9022
1.5771
1.27745
1.00234
0.749948
0.514826
0.291063
0.0729653
-0.137097
-0.333192
-0.491133
-0.588031
-0.601623
4.30133
3.88823
3.45622
3.02567
2.60878
2.21291
1.84303
1.50119
1.18833
0.902694
0.641707
0.399576
0.168826
-0.0606507
-0.295283
-0.542191
-0.789369
-1.01537
-1.17915
4.42257
3.97704
3.54543
3.13985
2.76293
2.41415
2.0922
1.79519
1.5217
1.26989
1.03832
0.824546
0.625065
0.434478
0.246068
0.0465113
-0.175146
-0.430696
-0.72195
4.49112
4.03633
3.62256
3.2455
2.89894
2.57821
2.27987
2.0016
1.74228
1.50084
1.27692
1.07021
0.87956
0.704055
0.543177
0.394718
0.256103
0.121778
-0.0179478
4.19538
3.67855
3.23045
2.83522
2.48217
2.16438
1.87674
1.61545
1.37787
1.1613
0.963902
0.784137
0.619862
0.469701
0.333305
0.210418
0.101899
0.00964473
-0.0657329
3.64034
3.1793
2.78447
2.43999
2.1353
1.86323
1.61846
1.39698
1.19604
1.013
0.846158
0.694145
0.555157
0.42798
0.312072
0.206695
0.111577
0.0271813
-0.0468081
2.99421
2.61385
2.28584
1.99993
1.74809
1.5243
1.32389
1.14322
0.979761
0.831132
0.695784
0.57246
0.459564
0.35597
0.261118
0.174269
0.0951247
0.0241015
-0.0389949
2.23658
1.94666
1.69863
1.48415
1.29652
1.13066
0.982706
0.849661
0.729469
0.620221
0.520704
0.429927
0.346665
0.270061
0.199714
0.135094
0.0760473
0.0229859
-0.0241582
1.40066
1.20773
1.04812
0.912853
0.795944
0.693368
0.602289
0.52063
0.446986
0.380092
0.319148
0.263499
0.212358
0.165171
0.121683
0.0815619
0.0447338
0.0115056
-0.0181006
0.535482
0.456449
0.393642
0.341247
0.296223
0.256824
0.221935
0.190774
0.162815
0.137576
0.114732
0.0940017
0.0750495
0.0576189
0.0415559
0.0266839
0.0129216
0.000337744
-0.0110749
-0.535225
-0.455865
-0.392829
-0.340278
-0.295157
-0.255706
-0.220804
-0.18966
-0.161744
-0.136569
-0.113808
-0.0931727
-0.0743276
-0.0570138
-0.041075
-0.0263329
-0.0127041
-0.000253643
0.0110282
-1.40042
-1.20721
-1.0474
-0.911995
-0.795003
-0.692386
-0.601301
-0.519664
-0.446065
-0.379235
-0.318371
-0.262815
-0.211778
-0.164703
-0.121334
-0.0813385
-0.0446383
-0.0115374
0.0179453
-2.23633
-1.94614
-1.69791
-1.48329
-1.29557
-1.12966
-0.981691
-0.84866
-0.728506
-0.619316
-0.519872
-0.429179
-0.34601
-0.269505
-0.19926
-0.134743
-0.0757978
-0.0228331
0.0242207
-2.99402
-2.61347
-2.28532
-1.99931
-1.7474
-1.52358
-1.32316
-1.14251
-0.979095
-0.83052
-0.695238
-0.57199
-0.459174
-0.355667
-0.260903
-0.17414
-0.0950807
-0.0241372
0.0388855
-3.6402
-3.17903
-2.78409
-2.43953
-2.13477
-1.86267
-1.6179
-1.39644
-1.19552
-1.01253
-0.845748
-0.693801
-0.554883
-0.42778
-0.311944
-0.206635
-0.111578
-0.0272319
0.046724
-4.19535
-3.67844
-3.23025
-2.83495
-2.48184
-2.16404
-1.8764
-1.61514
-1.37759
-1.16107
-0.96374
-0.784043
-0.61984
-0.469755
-0.333431
-0.210607
-0.102126
-0.0098691
0.0655569
-4.49108
-4.0359
-3.62164
-3.24409
-2.89708
-2.57597
-2.27734
-1.99886
-1.73943
-1.49794
-1.27402
-1.06736
-0.876764
-0.701321
-0.540509
-0.39216
-0.253774
-0.119957
0.0187925
-4.42331
-3.97903
-3.5487
-3.14432
-2.76845
-2.42055
-2.0993
-1.80278
-1.52962
-1.278
-1.04651
-0.832771
-0.633345
-0.442916
-0.25484
-0.0558807
0.164953
0.419645
0.710448
-4.30098
-3.8873
-3.45468
-3.02357
-2.60621
-2.20997
-1.83984
-1.49783
-1.18491
-0.899281
-0.638358
-0.396335
-0.165726
0.0636002
0.298128
0.545083
0.792679
1.01972
1.18536
-4.05842
-3.73493
-3.37312
-2.99579
-2.61841
-2.25176
-1.90377
-1.5787
-1.27905
-1.00389
-0.751444
-0.516252
-0.292406
-0.0741846
0.136093
0.332572
0.491092
0.588681
0.602785
-3.63851
-3.3749
-3.06101
-2.71937
-2.36733
-2.01873
-1.68443
-1.37122
-1.08306
-0.820014
-0.580642
-0.360293
-0.155418
0.0349555
0.203249
0.339183
0.425557
0.457677
0.444933
-3.16359
-2.9455
-2.6772
-2.37477
-2.0548
-1.73282
-1.42186
-1.1308
-0.864916
-0.625207
-0.410862
-0.218508
-0.0468641
0.102265
0.221003
0.302721
0.341876
0.346013
0.328952
-2.63663
-2.47319
-2.25214
-1.9905
-1.70555
-1.41461
-1.13278
-0.870814
-0.63506
-0.427208
-0.246812
-0.091191
0.0400347
0.145067
0.219166
0.261481
0.274389
0.268667
0.25505
-1.91256
-1.79819
-1.62899
-1.42145
-1.19218
-0.957749
-0.732625
-0.52711
-0.346828
-0.192981
-0.0648288
0.0402771
0.122745
0.182055
0.216911
0.230291
0.227305
0.216922
0.205246
-1.19985
-1.12224
-0.99715
-0.839199
-0.664549
-0.488925
-0.325333
-0.182521
-0.0642133
0.0299155
0.101745
0.154811
0.190373
0.209569
0.213546
0.206664
0.193619
0.180308
0.169444
-0.400694
-0.343506
-0.255285
-0.149697
-0.0408979
0.0587671
0.140858
0.20103
0.239745
0.260318
0.2665
0.262959
0.251521
0.234049
0.212245
0.189654
0.168914
0.152883
0.141879
0.404978
0.454456
0.514185
0.568858
0.60723
0.622291
0.612584
0.580372
0.531935
0.47442
0.413801
0.355579
0.3015
0.252972
0.210725
0.176184
0.149454
0.130751
0.118579
1.20894
1.33508
1.44836
1.51954
1.53211
1.48168
1.37564
1.22858
1.05938
0.885632
0.721153
0.575335
0.451609
0.350887
0.271975
0.212555
0.168805
0.135991
0.106864
1.80794
1.78431
1.71052
1.58883
1.42899
1.24488
1.05165
0.862907
0.689771
0.538919
0.413496
0.313223
0.235301
0.176114
0.131952
0.0989809
0.0732363
0.0498058
0.0218631
2.46499
2.51778
2.49905
2.40335
2.23556
2.01047
1.74836
1.47182
1.20189
0.953948
0.738733
0.560225
0.417575
0.307045
0.22348
0.160407
0.111236
0.0689362
0.0259819
3.03393
3.07309
3.01844
2.87229
2.64538
2.35799
2.0348
1.7019
1.38234
1.09236
0.842908
0.637229
0.473587
0.34699
0.250996
0.177842
0.120162
0.0709333
0.0241928
3.53262
3.54234
3.44403
3.24651
2.96499
2.62404
2.25141
1.87527
1.51936
1.19971
0.926715
0.702575
0.524562
0.386621
0.281391
0.200278
0.135477
0.0798652
0.0274209
3.99603
3.95918
3.80823
3.55539
3.21956
2.82919
2.41437
2.00417
1.62185
1.28221
0.994327
0.758942
0.572182
0.426989
0.315274
0.227801
0.156386
0.0935527
0.0327123
4.39806
4.3028
4.09478
3.78564
3.39863
2.96587
2.51873
2.0858
1.68859
1.33972
1.04629
0.807298
0.617671
0.469435
0.353937
0.261421
0.183365
0.111891
0.0398857
4.60385
4.46677
4.21306
3.86188
3.44232
2.98868
2.53169
2.09763
1.70499
1.3635
1.07803
0.845909
0.661123
0.515127
0.399036
0.302809
0.217774
0.135777
0.0493283
4.85165
4.66185
4.34751
3.94319
3.48443
3.007
2.54012
2.10675
1.72159
1.39085
1.11664
0.894315
0.716648
0.57432
0.458081
0.357426
0.263427
0.167561
0.0618916
5.05138
4.78193
4.40013
3.94591
3.45744
2.9691
2.50652
2.08765
1.72238
1.41285
1.15832
0.952146
0.786017
0.649934
0.534395
0.428425
0.322901
0.20895
0.0782035
5.1302
4.77884
4.33649
3.84623
3.34674
2.86804
2.42971
2.04313
1.71266
1.43621
1.21036
1.02672
0.876172
0.74824
0.633355
0.52011
0.399305
0.261797
0.0988723
5.09871
4.6712
4.17839
3.66925
3.1796
2.73147
2.33609
1.99727
1.71368
1.4792
1.28824
1.13095
0.997732
0.877761
0.761568
0.637307
0.495831
0.32784
0.124398
5.03337
4.52007
3.98401
3.47191
3.00973
2.60792
2.26787
1.98572
1.75489
1.56573
1.41114
1.28006
1.16259
1.0476
0.925778
0.784741
0.615499
0.408691
0.155269
4.87783
4.28289
3.72946
3.24398
2.836
2.50204
2.23296
2.018
1.84631
1.70561
1.58819
1.48216
1.37767
1.26339
1.13028
0.965473
0.760279
0.505467
0.191978
4.38234
3.78173
3.28161
2.88751
2.5883
2.36518
2.19883
2.07349
1.97589
1.89271
1.81701
1.73698
1.6435
1.52562
1.3751
1.179
0.929418
0.617661
0.234666
3.90508
3.33645
2.92563
2.64973
2.47303
2.36366
2.29571
2.25171
2.21814
2.18187
2.13734
2.07305
1.98061
1.84928
1.67157
1.43438
1.13041
0.751137
0.28632
3.32558
2.85016
2.59483
2.48197
2.45222
2.46724
2.50001
2.53493
2.56037
2.56463
2.54401
2.48791
2.3887
2.23603
2.02311
1.73667
1.36949
0.912312
0.351459
2.35556
2.16199
2.17998
2.29986
2.45829
2.62218
2.77031
2.89223
2.98017
3.02548
3.02663
2.97513
2.86447
2.6853
2.43168
2.09056
1.65389
1.11013
0.437866
1.41182
1.63316
1.96764
2.32387
2.65909
2.95511
3.20156
3.39424
3.53019
3.60452
3.61704
3.56241
3.4347
3.22553
2.92899
2.5315
2.02114
1.37958
0.56821
0.501941
1.21784
1.88715
2.47779
2.98345
3.40406
3.74242
4.00009
4.17949
4.28036
4.30314
4.24718
4.10684
3.87495
3.5445
3.10002
2.52063
1.77305
0.785434
-0.187536
0.999653
1.96941
2.76722
3.42497
3.957
4.37886
4.69625
4.91724
5.04734
5.08696
5.04215
4.90744
4.67722
4.34166
3.88077
3.25608
2.40463
1.19322
-0.517149
0.997518
2.19248
3.15695
3.94469
4.57517
5.07425
5.45015
5.71717
5.88838
5.96446
5.96093
5.87373
5.70026
5.42643
5.02463
4.42605
3.51371
2.04746
-0.449935
1.1825
2.51083
3.59822
4.4935
5.21049
5.78225
6.21907
6.54284
6.77739
6.92607
7.01839
7.05687
7.04781
6.97505
6.80455
6.42456
5.63141
4.01256
-0.0839093
1.48467
2.86851
4.04171
5.02369
5.81522
6.45406
6.95489
7.34913
7.67798
7.95265
8.22476
8.51963
8.87103
9.2774
9.72483
10.0694
10.0058
8.87564
0.359186
1.8003
3.20818
4.44743
5.49849
6.35091
7.04551
7.60973
8.08386
8.54175
9.00923
9.57512
10.3388
11.4351
13.0164
15.4423
19.2539
25.6111
36.912
)
;

boundaryField
{
    up
    {
        type            calculated;
        value           nonuniform List<scalar> 
84
(
-36.912
-8.87565
-4.01257
-2.04747
-1.19322
-0.785435
-0.568207
-0.437861
-0.351454
-0.286316
-0.234663
-0.191978
-0.15527
-0.124401
-0.0988745
-0.0782049
-0.0618921
-0.0493281
-0.0398851
-0.0327115
-0.0274201
-0.0241915
-0.0259814
-0.0219044
-0.0895636
-0.108549
-0.130718
-0.156017
-0.18826
-0.232631
-0.297297
-0.392922
-0.51791
-1.14247
-0.73773
-0.0188881
-0.0652073
-0.0464625
-0.0387971
-0.0240777
-0.0180671
-0.0110679
0.0110212
0.0179123
0.0241407
0.0386891
0.0463802
0.0650331
0.0197143
0.726076
1.14972
0.518975
0.393708
0.297822
0.233003
0.18854
0.156245
0.130923
0.108722
0.0899997
0.0218631
0.0259819
0.0241928
0.0274209
0.0327123
0.0398857
0.0493283
0.0618916
0.0782035
0.0988723
0.124398
0.155269
0.191978
0.234666
0.28632
0.351459
0.437866
0.56821
0.785434
1.19322
2.04746
4.01256
8.87564
36.912
)
;
    }
    low
    {
        type            calculated;
        value           nonuniform List<scalar> 
84
(
-0.323131
0.139005
0.538054
0.611922
0.24647
-0.512701
-1.49946
-2.50123
-3.49292
-4.04264
-4.50475
-4.97986
-5.08372
-5.1188
-5.13232
-5.02437
-4.79861
-4.54392
-4.32029
-3.88351
-3.40083
-2.89508
-2.32539
-1.68344
-1.10932
-0.369099
0.359245
1.09789
1.78411
2.51208
3.06651
3.56417
4.01474
4.2957
4.4458
4.54766
4.28551
3.73317
3.07517
2.29994
1.44216
0.552706
-0.552449
-1.44191
-2.29968
-3.07495
-3.733
-4.28543
-4.54757
-4.44643
-4.29535
-4.01493
-3.5643
-3.06666
-2.51224
-1.78425
-1.09806
-0.359392
0.368759
1.10954
1.68319
2.32551
2.89509
3.40084
3.88351
4.3203
4.54393
4.79862
5.02438
5.13232
5.11881
5.08373
4.97984
4.50477
4.04267
3.49294
2.50125
1.49948
0.512717
-0.246462
-0.611925
-0.538064
-0.139012
0.323133
)
;
    }
    left
    {
        type            calculated;
        value           nonuniform List<scalar> 
19
(
-0.32038
-1.73312
-3.17274
-4.4576
-5.55597
-6.44934
-7.18101
-7.78273
-8.29428
-8.80642
-9.34485
-10.0075
-10.9216
-12.2636
-14.2221
-17.2994
-22.2451
-30.6798
-32.0117
)
;
    }
    right
    {
        type            calculated;
        value           nonuniform List<scalar> 
19
(
0.320384
1.73313
3.17274
4.45759
5.55596
6.44934
7.18101
7.78273
8.29429
8.80643
9.34485
10.0075
10.9215
12.2635
14.2221
17.2993
22.2451
30.6798
32.0117
)
;
    }
    frontAndBackPlanes
    {
        type            empty;
    }
}


// ************************************************************************* //
