/*--------------------------------*- C++ -*----------------------------------*\
  =========                 |
  \\      /  F ield         | OpenFOAM: The Open Source CFD Toolbox
   \\    /   O peration     | Website:  https://openfoam.org
    \\  /    A nd           | Version:  7
     \\/     M anipulation  |
\*---------------------------------------------------------------------------*/
FoamFile
{
    version     2.0;
    format      ascii;
    class       volScalarField;
    location    "0.087";
    object      T;
}
// * * * * * * * * * * * * * * * * * * * * * * * * * * * * * * * * * * * * * //

dimensions      [0 0 0 1 0 0 0];

internalField   nonuniform List<scalar> 
1596
(
4.97142
4.8904
4.8104
4.73991
4.68215
4.63718
4.60375
4.57889
4.56041
4.54395
4.52656
4.50393
4.46759
4.40675
4.306
4.13394
3.83499
3.29992
2.31005
4.87801
4.62911
4.40318
4.21043
4.05421
3.93286
3.84225
3.77552
3.72661
3.68674
3.64907
3.60515
3.54121
3.44108
3.28578
3.04407
2.67235
2.10046
1.19873
4.7722
4.36186
4.00662
3.70985
3.47129
3.2865
3.14846
3.04752
2.9748
2.9191
2.87146
2.82166
2.75491
2.65458
2.50249
2.27189
1.93041
1.43388
0.706176
4.67529
4.12377
3.65876
3.27508
2.968
2.73026
2.5524
2.42278
2.33056
2.26319
2.2106
2.16199
2.10319
2.01878
1.89255
1.70208
1.42252
1.02435
0.461139
4.60398
3.94171
3.38791
2.93256
2.56794
2.28487
2.07218
1.91697
1.80704
1.72911
1.67248
1.62625
1.57732
1.51198
1.41609
1.27079
1.05609
0.750212
0.322384
4.56532
3.82747
3.20595
2.69231
2.27871
1.95556
1.71095
1.53139
1.40384
1.31455
1.25242
1.20654
1.16493
1.11548
1.04596
0.940522
0.782537
0.554506
0.23381
4.55557
3.77621
3.10726
2.54752
2.09217
1.73295
1.45836
1.25492
1.10919
1.00718
0.937391
0.888914
0.850609
0.811746
0.761781
0.687402
0.574666
0.408848
0.17188
4.56471
3.77187
3.07394
2.47961
1.98943
1.59807
1.29546
1.0688
0.904649
0.788925
0.709793
0.656211
0.617607
0.584284
0.547084
0.494889
0.416074
0.298136
0.126038
4.58497
3.79866
3.08681
2.4681
1.94961
1.53005
1.20166
0.952857
0.770612
0.640879
0.551521
0.49128
0.449858
0.418244
0.388329
0.350819
0.296132
0.213793
0.0912335
4.60472
3.83473
3.12019
2.4866
1.94698
1.50433
1.15373
0.885216
0.686472
0.543658
0.444416
0.377235
0.331877
0.299722
0.273393
0.245034
0.20681
0.150132
0.0647054
4.61811
3.86522
3.15453
2.51389
1.96034
1.50059
1.13249
0.84786
0.635315
0.481366
0.373548
0.300124
0.250799
0.217129
0.192205
0.169247
0.141836
0.103076
0.0447654
4.63143
3.89418
3.18897
2.54503
1.982
1.50943
1.12758
0.829951
0.60613
0.443023
0.328128
0.2495
0.196703
0.161316
0.136673
0.116737
0.0961586
0.0694469
0.0302326
4.64175
3.91714
3.21691
2.57137
2.00193
1.52015
1.12816
0.820844
0.588602
0.418703
0.298623
0.216233
0.160924
0.124215
0.0995415
0.0813448
0.0650366
0.0462122
0.0200048
4.64518
3.92718
3.23007
2.58383
2.01065
1.52331
1.12513
0.811899
0.574598
0.400728
0.277736
0.193338
0.136777
0.0994975
0.0749768
0.0579655
0.0443988
0.0306696
0.0130627
4.64597
3.92849
3.23089
2.58291
2.00701
1.51647
1.11514
0.799228
0.559901
0.3847
0.260963
0.176254
0.119693
0.0826681
0.0586836
0.0427019
0.0310172
0.0205848
0.00852244
4.6455
3.92392
3.2218
2.56989
1.99102
1.49859
1.09641
0.780511
0.54186
0.367754
0.245297
0.161867
0.106487
0.0705231
0.0475256
0.0326292
0.0223907
0.0141612
0.0056391
4.64203
3.91181
3.20148
2.54343
1.96113
1.46791
1.06701
0.753784
0.518495
0.347905
0.228726
0.14812
0.0950487
0.0609115
0.0393567
0.0256985
0.0167171
0.0100601
0.00383236
4.63661
3.89364
3.17157
2.50502
1.9185
1.42515
1.02728
0.719032
0.489505
0.324607
0.210493
0.134069
0.0842745
0.052608
0.0328787
0.0206138
0.0128131
0.00737093
0.00269025
4.63439
3.87758
3.14057
2.46241
1.86961
1.37543
0.981024
0.67892
0.456626
0.298862
0.191032
0.119721
0.0738555
0.0450809
0.0274169
0.016636
0.00996559
0.00552214
0.00194388
4.63411
3.86389
3.10987
2.41741
1.81627
1.32032
0.929536
0.634452
0.420578
0.271129
0.170567
0.105094
0.0636424
0.0380489
0.0225969
0.0133424
0.0077566
0.00417182
0.00142859
4.63248
3.84871
3.07677
2.36858
1.75798
1.25994
0.873254
0.586196
0.38192
0.241871
0.149423
0.0903657
0.0536727
0.0314364
0.0182606
0.0105251
0.00596581
0.00313269
0.00105161
4.63212
3.83544
3.0452
2.3202
1.69903
1.19822
0.815508
0.536792
0.342623
0.212469
0.128503
0.0760751
0.0442263
0.0253455
0.0143961
0.00810622
0.00448763
0.0023072
0.000763554
4.63449
3.82741
3.01957
2.27727
1.64447
1.13978
0.760202
0.489286
0.3049
0.184425
0.108756
0.0627742
0.0355875
0.0198913
0.0110179
0.00604532
0.0032574
0.00163163
0.000531626
4.63927
3.82556
3.00229
2.24341
1.59856
1.08891
0.711133
0.4467
0.270938
0.159188
0.0910598
0.0509415
0.0279797
0.0151482
0.00812059
0.00429681
0.00221068
0.00103404
0.000297969
4.65168
3.84935
3.0276
2.26392
1.61165
1.09488
0.711872
0.444476
0.267607
0.15592
0.0883996
0.0490087
0.0266834
0.0143273
0.00761846
0.00398818
0.00200783
0.000890753
0.00022052
4.66761
3.89086
3.08596
2.32895
1.67428
1.14887
0.754389
0.47549
0.288791
0.169606
0.0968274
0.0539968
0.0295418
0.0159272
0.00850456
0.00447989
0.0022793
0.00102941
0.000264895
4.67719
3.92238
3.1365
2.3912
1.73939
1.20913
0.804926
0.514471
0.316754
0.188427
0.108791
0.0612119
0.0336801
0.0181881
0.00968863
0.00508053
0.00257713
0.00116666
0.000304616
4.68044
3.94258
3.17669
2.44766
1.80435
1.27409
0.863157
0.562174
0.352936
0.214074
0.125889
0.0719693
0.0400596
0.0217363
0.0115297
0.00596683
0.00297199
0.0013223
0.000341039
4.68036
3.95616
3.21085
2.50142
1.87111
1.34504
0.930302
0.620082
0.399127
0.248502
0.150028
0.0879385
0.0500054
0.0275198
0.0146315
0.00747324
0.00362074
0.00155469
0.000384983
4.67771
3.96576
3.24195
2.5546
1.94064
1.42218
1.00638
0.688503
0.456144
0.292997
0.182775
0.110743
0.0649924
0.0367277
0.0198355
0.0101089
0.00477767
0.00196305
0.000456641
4.67466
3.97609
3.27498
2.61123
2.01562
1.50706
1.09232
0.768252
0.525042
0.348981
0.225866
0.142267
0.0868652
0.0509833
0.0284048
0.0147079
0.0068822
0.00271672
0.000590011
4.676
3.994
3.31655
2.67676
2.10009
1.60246
1.19003
0.860857
0.60735
0.418212
0.281345
0.184784
0.117983
0.0725513
0.042304
0.0227376
0.0107947
0.00414423
0.00083021
4.67914
4.01554
3.36255
2.74734
2.19065
1.70555
1.29741
0.965058
0.702736
0.501289
0.350654
0.240427
0.160988
0.104379
0.0645303
0.0368991
0.0185094
0.00723599
0.00124917
4.68334
4.03945
3.41164
2.82173
2.28619
1.81543
1.41382
1.08064
0.81157
0.599281
0.435611
0.311752
0.219136
0.150379
0.0995916
0.0621092
0.0348508
0.0158688
0.00365968
4.68655
4.05945
3.45341
2.88605
2.37025
1.914
1.52057
1.18926
0.916644
0.696715
0.522825
0.38755
0.283359
0.203539
0.142478
0.0953702
0.0587387
0.0303138
0.00855965
4.68359
4.06128
3.46623
2.91255
2.41022
1.96524
1.57973
1.25264
0.980741
0.758563
0.58024
0.439112
0.328294
0.241585
0.173737
0.120047
0.0769686
0.0419457
0.0129513
4.67614
4.05063
3.45934
2.91306
2.41938
1.98263
1.60389
1.28155
1.01229
0.790731
0.611348
0.467849
0.353691
0.262994
0.190828
0.132725
0.0853966
0.0465618
0.0143632
4.67107
4.04407
3.45643
2.91648
2.42997
1.99999
1.6268
1.30837
1.04125
0.820163
0.63982
0.494234
0.377138
0.282924
0.206936
0.1449
0.0937182
0.0513042
0.0159087
4.66902
4.04225
3.45787
2.92284
2.44176
2.01683
1.64776
1.33218
1.06655
0.845656
0.664376
0.516953
0.397326
0.300101
0.220839
0.155424
0.100921
0.0554149
0.0172583
4.66775
4.04142
3.45958
2.92825
2.45123
2.03009
1.66411
1.35067
1.08618
0.86544
0.683453
0.534628
0.413053
0.313492
0.231675
0.163617
0.106512
0.0585949
0.0183026
4.66663
4.04021
3.45993
2.9311
2.45687
2.03839
1.6746
1.36273
1.09912
0.878577
0.696192
0.546478
0.423621
0.322496
0.238954
0.1691
0.110229
0.0606892
0.0189848
4.6644
4.03705
3.45755
2.93025
2.4578
2.04102
1.67868
1.36789
1.10497
0.88473
0.702303
0.55226
0.428845
0.326991
0.242616
0.171878
0.112125
0.0617645
0.0193396
4.66441
4.03708
3.45759
2.93029
2.45785
2.04108
1.67873
1.36794
1.10502
0.884774
0.702343
0.552295
0.428875
0.327016
0.242636
0.171894
0.112136
0.0617713
0.019342
4.66666
4.04029
3.46005
2.93124
2.45703
2.03855
1.67476
1.36288
1.09927
0.878709
0.69631
0.546582
0.423711
0.322572
0.239016
0.169148
0.110264
0.06071
0.018992
4.6678
4.04155
3.45977
2.92848
2.45147
2.03035
1.66436
1.35092
1.08641
0.865651
0.683643
0.534795
0.413196
0.313612
0.231773
0.163693
0.106566
0.0586273
0.0183138
4.66909
4.04242
3.45812
2.92314
2.44209
2.01718
1.64811
1.33251
1.06686
0.845939
0.664628
0.517173
0.397515
0.300259
0.220966
0.155523
0.10099
0.0554568
0.0172727
4.67115
4.04428
3.45675
2.91686
2.43039
2.00042
1.62723
1.30878
1.04163
0.82051
0.640128
0.494502
0.377365
0.283112
0.207087
0.145016
0.0938002
0.0513532
0.0159256
4.67623
4.05088
3.4597
2.91351
2.41987
1.98314
1.6044
1.28204
1.01273
0.791133
0.6117
0.468152
0.353946
0.263202
0.190994
0.132851
0.085484
0.0466133
0.0143806
4.6837
4.06157
3.46665
2.91306
2.41079
1.96583
1.58032
1.2532
0.981248
0.759015
0.580632
0.439444
0.328569
0.241807
0.17391
0.120175
0.0770556
0.041996
0.0129683
4.68669
4.05986
3.45405
2.88688
2.37119
1.915
1.52157
1.19022
0.917532
0.697507
0.523514
0.388137
0.28385
0.203944
0.14281
0.0956368
0.0589436
0.0304514
0.00861389
4.68351
4.03995
3.41241
2.8227
2.28729
1.81658
1.41496
1.08172
0.812549
0.600139
0.436341
0.312361
0.219635
0.150783
0.0999132
0.0623577
0.0350299
0.0159779
0.00369706
4.67929
4.01598
3.36323
2.74821
2.19163
1.70657
1.29839
0.96596
0.703531
0.501962
0.351208
0.240871
0.161338
0.104649
0.0647328
0.0370426
0.0185991
0.00727888
0.00125755
4.67613
3.99442
3.31721
2.67759
2.10102
1.60341
1.19093
0.861669
0.608045
0.418783
0.281798
0.185135
0.118248
0.0727475
0.0424438
0.02283
0.0108472
0.00416601
0.000833659
4.67478
3.97648
3.27561
2.61202
2.0165
1.50794
1.09314
0.768972
0.525641
0.349457
0.226231
0.14254
0.0870636
0.0511237
0.0284997
0.0147669
0.00691335
0.00272852
0.000591384
4.67782
3.96612
3.24254
2.55534
1.94146
1.42298
1.00712
0.689132
0.456652
0.293388
0.183065
0.110951
0.0651382
0.0368262
0.0198986
0.0101457
0.00479582
0.00196939
0.000457152
4.68046
3.95649
3.21139
2.5021
1.87185
1.34576
0.930948
0.62062
0.399549
0.248817
0.150254
0.0880951
0.0501105
0.0275876
0.0146727
0.0074958
0.00363118
0.0015581
0.000385185
4.68053
3.94287
3.17717
2.44826
1.805
1.27472
0.863707
0.562623
0.353279
0.214323
0.126063
0.0720853
0.0401346
0.0217826
0.0115565
0.00598076
0.00297819
0.00132433
0.000341215
4.67726
3.92263
3.13692
2.39172
1.73994
1.20966
0.805382
0.514835
0.317027
0.188621
0.108922
0.0612978
0.033734
0.0182203
0.00970662
0.00508973
0.0025813
0.00116823
0.000304908
4.66767
3.89107
3.0863
2.32938
1.67474
1.1493
0.754758
0.475781
0.289006
0.169757
0.0969284
0.0540617
0.0295818
0.0159507
0.00851769
0.00448678
0.00228272
0.00103097
0.000265345
4.65169
3.8494
3.02769
2.26403
1.61177
1.095
0.711977
0.444561
0.267671
0.155967
0.0884316
0.0490295
0.0266962
0.0143347
0.00762236
0.00398999
0.0020085
0.000890804
0.000220322
4.63924
3.8255
3.00221
2.24332
1.59846
1.08882
0.711056
0.44664
0.270893
0.159155
0.0910374
0.0509262
0.0279694
0.0151413
0.00811595
0.00429375
0.00220872
0.00103281
0.00029737
4.63449
3.82741
3.01956
2.27727
1.64447
1.13978
0.760209
0.489294
0.304907
0.18443
0.108759
0.0627756
0.0355878
0.0198911
0.0110175
0.00604485
0.00325704
0.00163137
0.000531473
4.63212
3.83543
3.04519
2.3202
1.69903
1.19822
0.815513
0.536797
0.342627
0.212472
0.128505
0.0760759
0.0442265
0.0253453
0.0143958
0.00810603
0.00448752
0.00230714
0.00076351
4.63248
3.84871
3.07677
2.36857
1.75798
1.25995
0.873257
0.586199
0.381923
0.241873
0.149425
0.0903664
0.0536731
0.0314366
0.0182608
0.0105253
0.00596604
0.00313287
0.00105166
4.63411
3.86389
3.10987
2.41741
1.81627
1.32032
0.929538
0.634454
0.420579
0.27113
0.170568
0.105095
0.0636431
0.0380496
0.0225976
0.0133431
0.00775727
0.00417231
0.00142873
4.63439
3.87757
3.14056
2.46241
1.86961
1.37543
0.981025
0.67892
0.456626
0.298862
0.191033
0.119722
0.0738565
0.0450821
0.0274182
0.0166374
0.00996689
0.00552309
0.00194417
4.63661
3.89364
3.17157
2.50502
1.9185
1.42515
1.02728
0.719031
0.489504
0.324607
0.210494
0.13407
0.084276
0.0526098
0.0328809
0.0206161
0.0128153
0.00737254
0.00269073
4.64203
3.91181
3.20148
2.54343
1.96114
1.46791
1.06701
0.753782
0.518493
0.347904
0.228726
0.148121
0.0950508
0.0609143
0.0393601
0.0257022
0.0167206
0.0100626
0.00383306
4.6455
3.92392
3.22181
2.56989
1.99102
1.49859
1.0964
0.780509
0.541858
0.367753
0.245298
0.161869
0.10649
0.0705273
0.0475308
0.0326348
0.0223959
0.0141646
0.00563998
4.64597
3.92849
3.2309
2.58291
2.00701
1.51646
1.11514
0.799225
0.5599
0.384699
0.260964
0.176257
0.119698
0.0826742
0.0586909
0.0427096
0.0310241
0.0205891
0.00852336
4.64518
3.92718
3.23008
2.58383
2.01065
1.52331
1.12512
0.811896
0.574596
0.400728
0.277738
0.193342
0.136784
0.099506
0.0749866
0.0579754
0.0444069
0.0306741
0.0130633
4.64175
3.91714
3.21692
2.57137
2.00193
1.52015
1.12816
0.820842
0.588601
0.418704
0.298627
0.216239
0.160933
0.124226
0.0995534
0.0813557
0.0650446
0.0462159
0.0200048
4.63144
3.89418
3.18897
2.54503
1.982
1.50943
1.12757
0.829949
0.60613
0.443026
0.328133
0.249508
0.196714
0.161328
0.136685
0.116747
0.0961643
0.0694481
0.0302316
4.61811
3.86522
3.15453
2.51389
1.96034
1.50059
1.13249
0.847859
0.635317
0.48137
0.373555
0.300134
0.25081
0.217141
0.192215
0.169253
0.141837
0.103074
0.0447634
4.60472
3.83474
3.1202
2.4866
1.94698
1.50433
1.15373
0.885216
0.686475
0.543663
0.444424
0.377244
0.331887
0.29973
0.273397
0.245033
0.206803
0.150125
0.0647028
4.58498
3.79867
3.08681
2.4681
1.94961
1.53004
1.20165
0.952858
0.770615
0.640884
0.551528
0.491287
0.449863
0.418245
0.388324
0.350808
0.296119
0.213782
0.0912313
4.56472
3.77187
3.07394
2.4796
1.98942
1.59806
1.29546
1.0688
0.904651
0.788928
0.709796
0.656212
0.617604
0.584275
0.547068
0.494869
0.416055
0.298125
0.126037
4.55557
3.77621
3.10725
2.54751
2.09216
1.73295
1.45836
1.25492
1.10919
1.00718
0.937388
0.888908
0.850597
0.811726
0.761756
0.687376
0.574646
0.40884
0.171881
4.56532
3.82746
3.20595
2.69231
2.27871
1.95555
1.71095
1.53139
1.40383
1.31455
1.25241
1.20653
1.1649
1.11545
1.04593
0.940497
0.782522
0.554503
0.233813
4.60398
3.94171
3.38791
2.93256
2.56794
2.28487
2.07217
1.91696
1.80703
1.7291
1.67247
1.62622
1.57729
1.51196
1.41606
1.27077
1.05609
0.750216
0.322388
4.67529
4.12377
3.65876
3.27508
2.968
2.73026
2.55239
2.42277
2.33055
2.26317
2.21058
2.16197
2.10316
2.01876
1.89253
1.70207
1.42253
1.02435
0.461142
4.7722
4.36186
4.00662
3.70985
3.4713
3.2865
3.14846
3.04751
2.97479
2.91909
2.87144
2.82164
2.75489
2.65456
2.50248
2.2719
1.93042
1.43389
0.706177
4.87801
4.62911
4.40318
4.21044
4.05422
3.93286
3.84225
3.77551
3.7266
3.68673
3.64906
3.60514
3.5412
3.44108
3.28578
3.04408
2.67236
2.10046
1.19872
4.97142
4.8904
4.8104
4.73991
4.68215
4.63718
4.60375
4.57889
4.56041
4.54395
4.52656
4.50393
4.46759
4.40675
4.30601
4.13395
3.83499
3.29992
2.31004
)
;

boundaryField
{
    up
    {
        type            fixedValue;
        value           uniform 0;
    }
    low
    {
        type            fixedValue;
        value           uniform 5;
    }
    left
    {
        type            fixedValue;
        value           uniform 5;
    }
    right
    {
        type            fixedValue;
        value           uniform 5;
    }
    frontAndBackPlanes
    {
        type            empty;
    }
}


// ************************************************************************* //
