/*--------------------------------*- C++ -*----------------------------------*\
  =========                 |
  \\      /  F ield         | OpenFOAM: The Open Source CFD Toolbox
   \\    /   O peration     | Website:  https://openfoam.org
    \\  /    A nd           | Version:  7
     \\/     M anipulation  |
\*---------------------------------------------------------------------------*/
FoamFile
{
    version     2.0;
    format      ascii;
    class       volScalarField;
    location    "0.05";
    object      gradTy;
}
// * * * * * * * * * * * * * * * * * * * * * * * * * * * * * * * * * * * * * //

dimensions      [0 -1 0 1 0 0 0];

internalField   nonuniform List<scalar> 
1596
(
-0.602422
-1.08408
-1.41965
-1.67619
-1.85952
-2.02266
-2.15309
-2.2921
-2.44213
-2.59546
-2.81569
-3.07311
-3.44538
-4.01675
-5.00648
-6.66608
-9.80772
-15.7508
-37.178
-1.77872
-2.09024
-2.18309
-2.1845
-2.13961
-2.11901
-2.11564
-2.159
-2.24262
-2.34522
-2.5175
-2.72949
-3.03764
-3.48502
-4.19924
-5.23598
-6.88432
-9.38014
-16.5088
-3.02697
-2.98785
-2.78545
-2.52933
-2.27149
-2.08151
-1.95303
-1.90347
-1.91767
-1.966
-2.0837
-2.23899
-2.47166
-2.80575
-3.33051
-4.05853
-5.161
-6.7317
-10.0921
-4.148
-3.72717
-3.24064
-2.75327
-2.31068
-1.97269
-1.73329
-1.59865
-1.54711
-1.54415
-1.6093
-1.71037
-1.87255
-2.10861
-2.48325
-2.99535
-3.75936
-4.81473
-6.62866
-4.98491
-4.2855
-3.58046
-2.91071
-2.31994
-1.85898
-1.52475
-1.31495
-1.20411
-1.15539
-1.17394
-1.22844
-1.33149
-1.48824
-1.7451
-2.09852
-2.63131
-3.36482
-4.47345
-5.47846
-4.66459
-3.83483
-3.04309
-2.34387
-1.78574
-1.37243
-1.09743
-0.934096
-0.845298
-0.824161
-0.840686
-0.897117
-0.992846
-1.15919
-1.39333
-1.75639
-2.26529
-2.99474
-5.66598
-4.88083
-4.01911
-3.16646
-2.39799
-1.76791
-1.29058
-0.959888
-0.750578
-0.62673
-0.572404
-0.558834
-0.580187
-0.631345
-0.731052
-0.877151
-1.11338
-1.45563
-1.94392
-5.63276
-4.95627
-4.13334
-3.27324
-2.47213
-1.79483
-1.26877
-0.892259
-0.643687
-0.489547
-0.40787
-0.370861
-0.366794
-0.387103
-0.440578
-0.524876
-0.669264
-0.887951
-1.20714
-5.47106
-4.94185
-4.19926
-3.36809
-2.56118
-1.85583
-1.2931
-0.878677
-0.596217
-0.415428
-0.310875
-0.255389
-0.233131
-0.232962
-0.256337
-0.300091
-0.381948
-0.513063
-0.711914
-5.22964
-4.82917
-4.18293
-3.40773
-2.62148
-1.91097
-1.32878
-0.889126
-0.581775
-0.380363
-0.258302
-0.189078
-0.154332
-0.141207
-0.146208
-0.165186
-0.207396
-0.280395
-0.396991
-5.01875
-4.69057
-4.12234
-3.40567
-2.65142
-1.94992
-1.36124
-0.907152
-0.58324
-0.36709
-0.232423
-0.153431
-0.110388
-0.0893884
-0.0838828
-0.0888895
-0.107983
-0.145364
-0.209168
-4.81725
-4.55683
-4.05097
-3.38513
-2.66326
-1.97605
-1.38774
-0.926056
-0.591475
-0.365076
-0.221582
-0.135814
-0.087358
-0.0616769
-0.0504473
-0.0480887
-0.0547014
-0.0719171
-0.104277
-4.60287
-4.39921
-3.94643
-3.32636
-2.63792
-1.97115
-1.39172
-0.931271
-0.593804
-0.363202
-0.215551
-0.126368
-0.0751515
-0.0471399
-0.0331415
-0.0272596
-0.0276883
-0.0343862
-0.0494503
-4.43989
-4.25555
-3.83389
-3.24612
-2.58503
-1.93892
-1.37274
-0.919805
-0.585853
-0.356487
-0.208966
-0.119459
-0.0677396
-0.0391397
-0.0241887
-0.0169212
-0.0146238
-0.0163173
-0.0226142
-4.30958
-4.13508
-3.72677
-3.15657
-2.51405
-1.88561
-1.33416
-0.892706
-0.56704
-0.343313
-0.199492
-0.112271
-0.0618902
-0.0340009
-0.0192266
-0.0117243
-0.00845797
-0.00801958
-0.0102348
-4.19467
-4.03028
-3.62531
-3.06084
-2.42844
-1.81399
-1.27776
-0.85082
-0.537427
-0.323161
-0.18615
-0.103476
-0.0559749
-0.0298112
-0.0159608
-0.0088587
-0.00547746
-0.00429175
-0.00478188
-4.10743
-3.94203
-3.5298
-2.96019
-2.32992
-1.72579
-1.20504
-0.795286
-0.497755
-0.296384
-0.168916
-0.0927324
-0.0493827
-0.0257328
-0.0133135
-0.00697217
-0.00387861
-0.00256784
-0.0024224
-4.04948
-3.87549
-3.44548
-2.86006
-2.22402
-1.6262
-1.12054
-0.729786
-0.450759
-0.264834
-0.148896
-0.0805736
-0.0422331
-0.0215981
-0.0109007
-0.0054999
-0.00286535
-0.00168445
-0.00136533
-3.9929
-3.83037
-3.38117
-2.77188
-2.1222
-1.5255
-1.03279
-0.66088
-0.401144
-0.231648
-0.128025
-0.0680886
-0.0350559
-0.0175866
-0.00868289
-0.00425949
-0.00212585
-0.00115797
-0.000840595
-3.92985
-3.79147
-3.32611
-2.68891
-2.02055
-1.42195
-0.941519
-0.589183
-0.34987
-0.197756
-0.107035
-0.0557649
-0.028128
-0.0138198
-0.0066749
-0.00319434
-0.00154384
-0.00079955
-0.000540145
-3.88915
-3.76793
-3.28333
-2.61293
-1.92079
-1.31749
-0.848847
-0.516746
-0.298684
-0.164483
-0.0868279
-0.0441597
-0.0217593
-0.0104476
-0.00493117
-0.00230372
-0.00108309
-0.000540296
-0.000347889
-3.85675
-3.75973
-3.25545
-2.54788
-1.82768
-1.2169
-0.758977
-0.446895
-0.249979
-0.133397
-0.0683484
-0.0337945
-0.0162126
-0.00758796
-0.00349387
-0.00159262
-0.000729549
-0.000352608
-0.000218946
-3.81867
-3.76009
-3.24186
-2.49701
-1.74624
-1.1254
-0.67628
-0.382796
-0.205792
-0.105675
-0.0522102
-0.0249545
-0.0116013
-0.00527373
-0.00236318
-0.00104994
-0.000469017
-0.000220244
-0.000132129
-3.77133
-3.7606
-3.23664
-2.45832
-1.67745
-1.04499
-0.602634
-0.325609
-0.166602
-0.0813741
-0.0382664
-0.0174509
-0.00776299
-0.00338736
-0.00146126
-0.000627497
-0.000272116
-0.00012418
-6.86227e-05
-3.72121
-3.77173
-3.27514
-2.49416
-1.69763
-1.04951
-0.598098
-0.318164
-0.159932
-0.0767532
-0.0355179
-0.0160171
-0.00708879
-0.00310214
-0.0013536
-0.000595153
-0.000268131
-0.00012916
-7.08074e-05
-3.67327
-3.78151
-3.33129
-2.57282
-1.77468
-1.10992
-0.638286
-0.341452
-0.171928
-0.0823573
-0.0379172
-0.0169929
-0.00748168
-0.00326944
-0.00143307
-0.000638815
-0.000295723
-0.000149623
-8.91425e-05
-3.65937
-3.7908
-3.3795
-2.65281
-1.86526
-1.19081
-0.698962
-0.380988
-0.194818
-0.0943359
-0.0436399
-0.0195291
-0.00853557
-0.00368749
-0.00159511
-0.000703591
-0.00032613
-0.000170068
-0.000108088
-3.68846
-3.80558
-3.41879
-2.728
-1.96261
-1.28794
-0.779304
-0.43835
-0.23112
-0.115093
-0.0544753
-0.0247669
-0.0108931
-0.00468054
-0.0019838
-0.000842822
-0.000371194
-0.000187531
-0.000122403
-3.75271
-3.83477
-3.46092
-2.80643
-2.07045
-1.40301
-0.881164
-0.516296
-0.28413
-0.14778
-0.0729607
-0.0344957
-0.015689
-0.00690753
-0.00295004
-0.00122449
-0.000496754
-0.0002184
-0.000129682
-3.84901
-3.87881
-3.50982
-2.8906
-2.18809
-1.53366
-1.00273
-0.614744
-0.355397
-0.194805
-0.101585
-0.0508093
-0.0244642
-0.0113997
-0.00513172
-0.00221109
-0.000878973
-0.000326116
-0.000137576
-3.97653
-3.94676
-3.57958
-2.99274
-2.32315
-1.68363
-1.14599
-0.735685
-0.447613
-0.259411
-0.143634
-0.076608
-0.0395193
-0.0198487
-0.0097037
-0.00457705
-0.00197297
-0.000723784
-0.000203941
-4.09719
-4.02998
-3.6704
-3.11531
-2.47767
-1.85413
-1.312
-0.880876
-0.563602
-0.345281
-0.203125
-0.115718
-0.0641465
-0.0349015
-0.0187113
-0.00987692
-0.00488797
-0.00207147
-0.000598162
-4.23507
-4.13685
-3.78394
-3.25659
-2.64832
-2.04149
-1.49798
-1.0493
-0.704433
-0.455301
-0.284098
-0.172586
-0.102615
-0.0603252
-0.0353471
-0.0208583
-0.0120137
-0.00630499
-0.00224354
-4.40784
-4.27868
-3.9289
-3.42435
-2.8425
-2.2531
-1.71153
-1.24926
-0.87942
-0.599704
-0.397409
-0.258053
-0.165178
-0.105407
-0.0678749
-0.0449951
-0.0306383
-0.0212304
-0.0141364
-4.60194
-4.43847
-4.07831
-3.58214
-3.01643
-2.44085
-1.9036
-1.43419
-1.04724
-0.743902
-0.515732
-0.351399
-0.236619
-0.159016
-0.107987
-0.0757488
-0.0557502
-0.0437442
-0.0361662
-4.83109
-4.61172
-4.21984
-3.7116
-3.14503
-2.57241
-2.03576
-1.56211
-1.16566
-0.848611
-0.604906
-0.424803
-0.295577
-0.205642
-0.144887
-0.105463
-0.0809451
-0.067092
-0.0605149
-5.09982
-4.80902
-4.37429
-3.84207
-3.26272
-2.68293
-2.14039
-1.65998
-1.2551
-0.928014
-0.673696
-0.483138
-0.344405
-0.246395
-0.179313
-0.135196
-0.107476
-0.0915091
-0.0834247
-5.33974
-4.98737
-4.51391
-3.95831
-3.36543
-2.77758
-2.22915
-1.74296
-1.33145
-0.996693
-0.734189
-0.535509
-0.389297
-0.284875
-0.212749
-0.164983
-0.134955
-0.117841
-0.109509
-5.52361
-5.13402
-4.63359
-4.06014
-3.45609
-2.86114
-2.30735
-1.81602
-1.39884
-1.05769
-0.788435
-0.583091
-0.430761
-0.32112
-0.24495
-0.194334
-0.162631
-0.144849
-0.136619
-5.66854
-5.25099
-4.72965
-4.1419
-3.52862
-2.9277
-2.36948
-1.87409
-1.45259
-1.10665
-0.83239
-0.622115
-0.465273
-0.351805
-0.27272
-0.220112
-0.187344
-0.169286
-0.161382
-5.7753
-5.33599
-4.79792
-4.19888
-3.57848
-2.97311
-2.41178
-1.91371
-1.48947
-1.14049
-0.863075
-0.649675
-0.489973
-0.374092
-0.293202
-0.239405
-0.206069
-0.187963
-0.180394
-5.8519
-5.38592
-4.83351
-4.22656
-3.60188
-2.99422
-2.43159
-1.93254
-1.5073
-1.15716
-0.878454
-0.663723
-0.502769
-0.38582
-0.304144
-0.249856
-0.216347
-0.19834
-0.19108
-5.85192
-5.38597
-4.83358
-4.22665
-3.60197
-2.99433
-2.43169
-1.93264
-1.5074
-1.15724
-0.878527
-0.663786
-0.502823
-0.385866
-0.304184
-0.249892
-0.21638
-0.198373
-0.191114
-5.77534
-5.33609
-4.7981
-4.19911
-3.57875
-2.9734
-2.41208
-1.91401
-1.48974
-1.14074
-0.863289
-0.649859
-0.490129
-0.374225
-0.293318
-0.239508
-0.206167
-0.188061
-0.180498
-5.6686
-5.25115
-4.72992
-4.14226
-3.52906
-2.92817
-2.36996
-1.87456
-1.45303
-1.10704
-0.832731
-0.622406
-0.465518
-0.352013
-0.272898
-0.22027
-0.187491
-0.169431
-0.161534
-5.52369
-5.13423
-4.63395
-4.06062
-3.45666
-2.86176
-2.30799
-1.81665
-1.39942
-1.0582
-0.788877
-0.583464
-0.431071
-0.321379
-0.245168
-0.194524
-0.162805
-0.145019
-0.136795
-5.33983
-4.98762
-4.51434
-3.95888
-3.36612
-2.77835
-2.22994
-1.74373
-1.33215
-0.997311
-0.734714
-0.535946
-0.389654
-0.285166
-0.21299
-0.165188
-0.135139
-0.118016
-0.109689
-5.09992
-4.8093
-4.37476
-3.84272
-3.26352
-2.68382
-2.1413
-1.66087
-1.2559
-0.928712
-0.67428
-0.483612
-0.344783
-0.246695
-0.179554
-0.135396
-0.107649
-0.0916694
-0.0835837
-4.8312
-4.61206
-4.22042
-3.71243
-3.14605
-2.57356
-2.03694
-1.56323
-1.16667
-0.849476
-0.605616
-0.425368
-0.296018
-0.205984
-0.145156
-0.105679
-0.0811283
-0.067256
-0.0606716
-4.60201
-4.43861
-4.07867
-3.58279
-3.01737
-2.44201
-1.90486
-1.43544
-1.04838
-0.744878
-0.516525
-0.352014
-0.237081
-0.159354
-0.10823
-0.075924
-0.0558883
-0.0438852
-0.0363574
-4.40791
-4.27907
-3.92969
-3.42557
-2.84408
-2.25489
-1.71337
-1.25098
-0.880929
-0.600949
-0.39839
-0.258798
-0.165731
-0.105813
-0.0681765
-0.0452305
-0.0308411
-0.0214318
-0.0143604
-4.23509
-4.13706
-3.7845
-3.25754
-2.64957
-2.04291
-1.49939
-1.05057
-0.705493
-0.456126
-0.284705
-0.173015
-0.102908
-0.0605234
-0.0354849
-0.0209638
-0.0121024
-0.00637594
-0.0022816
-4.09719
-4.03016
-3.67094
-3.11623
-2.47889
-1.85547
-1.31329
-0.881988
-0.564484
-0.345933
-0.203579
-0.116019
-0.0643407
-0.0350253
-0.0187931
-0.00993694
-0.00493536
-0.00210136
-0.000597281
-3.97651
-3.9469
-3.58008
-2.99363
-2.32429
-1.68486
-1.14713
-0.736625
-0.448323
-0.259908
-0.143961
-0.076813
-0.0396433
-0.019923
-0.00974957
-0.00460763
-0.00199376
-0.000733424
-0.000196559
-3.84897
-3.87892
-3.51029
-2.89144
-2.18916
-1.53477
-1.00372
-0.615522
-0.355955
-0.195175
-0.101815
-0.0509453
-0.0245415
-0.011443
-0.0051563
-0.00222533
-0.000886445
-0.000327615
-0.00013174
-3.75266
-3.83485
-3.46135
-2.80721
-2.07142
-1.40399
-0.881995
-0.516922
-0.284558
-0.148049
-0.0731188
-0.0345837
-0.015736
-0.00693193
-0.00296253
-0.0012305
-0.000498756
-0.000217644
-0.000126328
-3.68841
-3.80565
-3.41918
-2.72871
-1.96347
-1.28877
-0.77998
-0.438838
-0.231437
-0.115283
-0.0545812
-0.0248226
-0.010921
-0.00469396
-0.00198991
-0.000845147
-0.00037144
-0.000186696
-0.00012087
-3.65932
-3.79086
-3.37985
-2.65343
-1.86598
-1.19148
-0.699491
-0.381355
-0.195047
-0.094468
-0.0437105
-0.0195648
-0.00855256
-0.00369516
-0.00159829
-0.00070461
-0.000326118
-0.000169683
-0.00010761
-3.67323
-3.78157
-3.33158
-2.5733
-1.77523
-1.11042
-0.63867
-0.341711
-0.172087
-0.0824462
-0.0379636
-0.0170157
-0.00749229
-0.00327412
-0.00143499
-0.000639467
-0.000295835
-0.000149592
-8.91497e-05
-3.72124
-3.77178
-3.27524
-2.49431
-1.69779
-1.04965
-0.598208
-0.318239
-0.159978
-0.0767791
-0.0355313
-0.0160237
-0.00709178
-0.00310344
-0.00135411
-0.000595325
-0.000268181
-0.000129198
-7.07966e-05
-3.77136
-3.7606
-3.23656
-2.45819
-1.6773
-1.04485
-0.602519
-0.325525
-0.166545
-0.0813379
-0.0382444
-0.0174382
-0.00775589
-0.00338355
-0.00145926
-0.000626459
-0.000271588
-0.000123915
-6.8406e-05
-3.81869
-3.7601
-3.24185
-2.497
-1.74624
-1.12541
-0.676293
-0.382806
-0.205798
-0.105677
-0.0522105
-0.024954
-0.0116006
-0.00527309
-0.00236272
-0.00104964
-0.000468837
-0.000220137
-0.000132017
-3.85676
-3.75974
-3.25544
-2.54786
-1.82767
-1.2169
-0.758981
-0.446899
-0.249982
-0.133399
-0.0683491
-0.0337946
-0.0162124
-0.00758771
-0.00349365
-0.00159245
-0.000729437
-0.000352536
-0.000218859
-3.88916
-3.76794
-3.28333
-2.61292
-1.92079
-1.31749
-0.848847
-0.516748
-0.298686
-0.164485
-0.0868291
-0.0441603
-0.0217596
-0.0104477
-0.00493112
-0.00230364
-0.00108302
-0.00054026
-0.000347819
-3.92985
-3.79148
-3.32611
-2.68891
-2.02054
-1.42194
-0.941517
-0.589183
-0.349871
-0.197758
-0.107036
-0.0557659
-0.0281287
-0.0138201
-0.00667504
-0.00319436
-0.00154384
-0.000799594
-0.00054013
-3.9929
-3.83037
-3.38118
-2.77188
-2.1222
-1.5255
-1.03279
-0.660878
-0.401143
-0.231648
-0.128027
-0.0680898
-0.0350568
-0.0175872
-0.00868321
-0.00425962
-0.00212596
-0.00115821
-0.000840744
-4.04948
-3.87549
-3.44548
-2.86006
-2.22403
-1.62619
-1.12054
-0.729782
-0.450757
-0.264834
-0.148897
-0.0805748
-0.0422343
-0.0215989
-0.0109012
-0.00550012
-0.00286566
-0.00168517
-0.00136591
-4.10742
-3.94203
-3.5298
-2.9602
-2.32992
-1.72579
-1.20503
-0.79528
-0.497751
-0.296383
-0.168917
-0.0927337
-0.0493841
-0.0257339
-0.0133141
-0.00697244
-0.00387932
-0.00256967
-0.00242396
-4.19466
-4.03028
-3.62532
-3.06085
-2.42844
-1.81399
-1.27775
-0.850814
-0.537422
-0.323159
-0.18615
-0.103477
-0.0559764
-0.0298122
-0.0159611
-0.00885888
-0.00547906
-0.00429603
-0.00478545
-4.30956
-4.13508
-3.72678
-3.15659
-2.51406
-1.88561
-1.33415
-0.892698
-0.567034
-0.34331
-0.199492
-0.112272
-0.0618915
-0.0340013
-0.0192261
-0.0117242
-0.00846149
-0.00802868
-0.0102419
-4.43988
-4.25555
-3.8339
-3.24613
-2.58504
-1.93892
-1.37273
-0.919798
-0.585848
-0.356484
-0.208965
-0.11946
-0.06774
-0.0391387
-0.0241865
-0.0169209
-0.0146312
-0.0163347
-0.022626
-4.60285
-4.39921
-3.94644
-3.32638
-2.63793
-1.97115
-1.39171
-0.931265
-0.593799
-0.3632
-0.215551
-0.126368
-0.0751501
-0.0471361
-0.0331368
-0.0272597
-0.0277023
-0.0344151
-0.0494662
-4.81723
-4.55682
-4.05098
-3.38514
-2.66327
-1.97605
-1.38774
-0.926051
-0.591471
-0.365074
-0.221581
-0.135812
-0.087353
-0.0616686
-0.0504398
-0.0480908
-0.0547246
-0.0719574
-0.104291
-5.01873
-4.69056
-4.12235
-3.40568
-2.65143
-1.94993
-1.36124
-0.907151
-0.58324
-0.367089
-0.232421
-0.153426
-0.110378
-0.0893751
-0.0838736
-0.088896
-0.108015
-0.145408
-0.209168
-5.22963
-4.82917
-4.18293
-3.40774
-2.62148
-1.91097
-1.32878
-0.889127
-0.581776
-0.380363
-0.258298
-0.189068
-0.154316
-0.14119
-0.1462
-0.165199
-0.20743
-0.280423
-0.396961
-5.47106
-4.94186
-4.19927
-3.36809
-2.56118
-1.85583
-1.2931
-0.878678
-0.596217
-0.415424
-0.310866
-0.255373
-0.233111
-0.232946
-0.256337
-0.30011
-0.381969
-0.51305
-0.711846
-5.63277
-4.95629
-4.13335
-3.27324
-2.47212
-1.79483
-1.26877
-0.892259
-0.643684
-0.48954
-0.407855
-0.370841
-0.366776
-0.387096
-0.44059
-0.524897
-0.669257
-0.88788
-1.20705
-5.66599
-4.88085
-4.01911
-3.16645
-2.39798
-1.7679
-1.29058
-0.959885
-0.750572
-0.626719
-0.572388
-0.558818
-0.580179
-0.631355
-0.731078
-0.877168
-1.11333
-1.4555
-1.94383
-5.47847
-4.66462
-3.83483
-3.04309
-2.34387
-1.78574
-1.37243
-1.09743
-0.934089
-0.845287
-0.824149
-0.84068
-0.897126
-0.992875
-1.15923
-1.39334
-1.75631
-2.26516
-2.99472
-4.98492
-4.28551
-3.58046
-2.91071
-2.31994
-1.85898
-1.52475
-1.31495
-1.2041
-1.15538
-1.17394
-1.22845
-1.33152
-1.48828
-1.74514
-2.09851
-2.63123
-3.36473
-4.47351
-4.14801
-3.72717
-3.24065
-2.75329
-2.31069
-1.9727
-1.73329
-1.59865
-1.54711
-1.54415
-1.60931
-1.71039
-1.87259
-2.10865
-2.48327
-2.99532
-3.7593
-4.81472
-6.62878
-3.02697
-2.98783
-2.78545
-2.52935
-2.2715
-2.08152
-1.95304
-1.90348
-1.91767
-1.96601
-2.08372
-2.23903
-2.4717
-2.80578
-3.33051
-4.05849
-5.16097
-6.73174
-10.0922
-1.77872
-2.09021
-2.18308
-2.18451
-2.13962
-2.11902
-2.11565
-2.15901
-2.24263
-2.34524
-2.51753
-2.72953
-3.03767
-3.48503
-4.19921
-5.23593
-6.8843
-9.38019
-16.5088
-0.602429
-1.08407
-1.41964
-1.67618
-1.85952
-2.02266
-2.15309
-2.2921
-2.44214
-2.59547
-2.8157
-3.07312
-3.44538
-4.01674
-5.00643
-6.66601
-9.80766
-15.7508
-37.178
)
;

boundaryField
{
    up
    {
        type            calculated;
        value           nonuniform List<scalar> 
84
(
-33.7062
-18.2424
-11.0551
-7.23413
-4.88557
-3.28135
-2.139
-1.33385
-0.789273
-0.441236
-0.232674
-0.115853
-0.054731
-0.0248134
-0.0110454
-0.00501854
-0.00244541
-0.00132193
-0.000785912
-0.000492564
-0.000311748
-0.000193549
-0.000114578
-5.4164e-05
-5.38935e-05
-7.61744e-05
-9.52236e-05
-0.000109517
-0.000112062
-9.45745e-05
-5.97335e-05
-6.99684e-05
-0.000813361
-0.0123267
-0.0349194
-0.0590267
-0.081105
-0.107237
-0.13452
-0.159523
-0.178748
-0.189612
-0.189648
-0.178855
-0.15968
-0.134701
-0.107422
-0.0812654
-0.0591787
-0.0351294
-0.0125847
-0.000844501
-5.18961e-05
-4.09145e-05
-8.31501e-05
-0.000106414
-0.000107173
-9.4506e-05
-7.61897e-05
-5.38812e-05
-5.39151e-05
-0.000114434
-0.000193434
-0.000311636
-0.000492478
-0.00078593
-0.00132223
-0.00244637
-0.00502074
-0.0110493
-0.0248185
-0.0547334
-0.115843
-0.232636
-0.441157
-0.789159
-1.33374
-2.13896
-3.28144
-4.88579
-7.2344
-11.0553
-18.2424
-33.7061
)
;
    }
    low
    {
        type            calculated;
        value           nonuniform List<scalar> 
84
(
-0.65053
-1.87362
-3.21831
-4.44479
-5.36254
-5.89066
-6.06288
-5.98385
-5.7489
-5.42868
-5.18495
-4.95425
-4.69587
-4.5129
-4.37394
-4.24202
-4.13996
-4.0824
-4.01614
-3.92188
-3.85519
-3.79898
-3.72829
-3.64736
-3.53876
-3.45612
-3.43908
-3.50208
-3.61379
-3.76703
-3.943
-4.09133
-4.25672
-4.4587
-4.67451
-4.93356
-5.24449
-5.50739
-5.70189
-5.85583
-5.97034
-6.06122
-6.06124
-5.97036
-5.85586
-5.70192
-5.50743
-5.24454
-4.93363
-4.67446
-4.45875
-4.25667
-4.09128
-3.94295
-3.76698
-3.61373
-3.50203
-3.43903
-3.45609
-3.53874
-3.64742
-3.72827
-3.79899
-3.85519
-3.92188
-4.01613
-4.08239
-4.13995
-4.24201
-4.37391
-4.51288
-4.69585
-4.95422
-5.18493
-5.42866
-5.74888
-5.98385
-6.06288
-5.89066
-5.36254
-4.44481
-3.21834
-1.87366
-0.650545
)
;
    }
    left
    {
        type            calculated;
        value           nonuniform List<scalar> 
19
(
-0.594717
-1.0747
-1.42508
-1.69911
-1.89842
-2.07453
-2.21487
-2.36329
-2.52163
-2.68561
-2.92067
-3.19632
-3.60079
-4.23523
-5.34479
-7.23965
-10.8644
-17.7937
-34.9302
)
;
    }
    right
    {
        type            calculated;
        value           nonuniform List<scalar> 
19
(
-0.594725
-1.0747
-1.42507
-1.6991
-1.89841
-2.07453
-2.21488
-2.36329
-2.52164
-2.68562
-2.92068
-3.19633
-3.60078
-4.23519
-5.34469
-7.23952
-10.8643
-17.7937
-34.9302
)
;
    }
    frontAndBackPlanes
    {
        type            empty;
    }
}


// ************************************************************************* //
