/*--------------------------------*- C++ -*----------------------------------*\
  =========                 |
  \\      /  F ield         | OpenFOAM: The Open Source CFD Toolbox
   \\    /   O peration     | Website:  https://openfoam.org
    \\  /    A nd           | Version:  7
     \\/     M anipulation  |
\*---------------------------------------------------------------------------*/
FoamFile
{
    version     2.0;
    format      ascii;
    class       volScalarField;
    location    "0.127";
    object      gradTy;
}
// * * * * * * * * * * * * * * * * * * * * * * * * * * * * * * * * * * * * * //

dimensions      [0 -1 0 1 0 0 0];

internalField   nonuniform List<scalar> 
1596
(
-0.977443
-1.8018
-2.45047
-3.03677
-3.55303
-4.07134
-4.55132
-5.0715
-5.6537
-6.31133
-7.23705
-8.41637
-10.1004
-12.5711
-16.5225
-22.789
-34.1102
-55.0851
-130.115
-2.95811
-3.60602
-3.98915
-4.28659
-4.5203
-4.77905
-5.03558
-5.3668
-5.79796
-6.32907
-7.12664
-8.16168
-9.60565
-11.5863
-14.4645
-18.4085
-24.3386
-33.0905
-57.9351
-5.23993
-5.39773
-5.40275
-5.37569
-5.32173
-5.3225
-5.35295
-5.48352
-5.73525
-6.09927
-6.71572
-7.54117
-8.69701
-10.2413
-12.397
-15.1778
-19.088
-24.4667
-35.9646
-7.55937
-7.08878
-6.67034
-6.31031
-5.97625
-5.72811
-5.5388
-5.46791
-5.531
-5.71343
-6.13107
-6.73346
-7.60808
-8.77762
-10.3878
-12.3926
-15.0939
-18.6183
-24.613
-9.60856
-8.58089
-7.77474
-7.10764
-6.51713
-6.0388
-5.64437
-5.38099
-5.2597
-5.26306
-5.48514
-5.87531
-6.49734
-7.3566
-8.55395
-10.0253
-11.9661
-14.4095
-17.9528
-11.1405
-9.7896
-8.70215
-7.78663
-6.97912
-6.29876
-5.72074
-5.28101
-4.98808
-4.82442
-4.8647
-5.06268
-5.46454
-6.06752
-6.94437
-8.03083
-9.46166
-11.23
-13.5592
-12.0554
-10.6594
-9.43673
-8.35614
-7.38442
-6.53847
-5.80379
-5.20881
-4.76204
-4.44823
-4.32524
-4.3536
-4.56583
-4.95538
-5.57569
-6.36944
-7.43336
-8.74617
-10.393
-12.3997
-11.1683
-9.95514
-8.8041
-7.73056
-6.76282
-5.90346
-5.1786
-4.59953
-4.15539
-3.89016
-3.77208
-3.82279
-4.03402
-4.4446
-5.00632
-5.78988
-6.77141
-7.9829
-12.3172
-11.3883
-10.2968
-9.15826
-8.04019
-6.99169
-6.03683
-5.20508
-4.51322
-3.95651
-3.56845
-3.32491
-3.23897
-3.3014
-3.53928
-3.913
-4.47376
-5.19973
-6.10155
-11.9182
-11.291
-10.3855
-9.33276
-8.23214
-7.15378
-6.14306
-5.23722
-4.46047
-3.81545
-3.32887
-2.98362
-2.78654
-2.72792
-2.82532
-3.04667
-3.42819
-3.95191
-4.62014
-11.4887
-11.0574
-10.3241
-9.38251
-8.33441
-7.26117
-6.22456
-5.27093
-4.43264
-3.7202
-3.15671
-2.73125
-2.44642
-2.2922
-2.27838
-2.37862
-2.61714
-2.97932
-3.46408
-11.0111
-10.7717
-10.1929
-9.36356
-8.38169
-7.33293
-6.28971
-5.30678
-4.42432
-3.66054
-3.03741
-2.54931
-2.19615
-1.96771
-1.86758
-1.87345
-1.99985
-2.23457
-2.57492
-10.4569
-10.3826
-9.94635
-9.22958
-8.32484
-7.31918
-6.29036
-5.29997
-4.39465
-3.59925
-2.93647
-2.40496
-2.00334
-1.72139
-1.55799
-1.49363
-1.53543
-1.67277
-1.90213
-9.99456
-10.0009
-9.66606
-9.04169
-8.20707
-7.24716
-6.24112
-5.25534
-4.34115
-3.52861
-2.84188
-2.28278
-1.84941
-1.53156
-1.32462
-1.2108
-1.19155
-1.25708
-1.40322
-9.58957
-9.65656
-9.39025
-8.83349
-8.05438
-7.13435
-6.15183
-5.17621
-4.26194
-3.44274
-2.74424
-2.17033
-1.71891
-1.37964
-1.14531
-0.999081
-0.938178
-0.95312
-1.0392
-9.20554
-9.3358
-9.12288
-8.61471
-7.876
-6.98685
-6.02487
-5.06144
-4.1529
-3.33518
-2.63493
-2.05706
-1.59915
-1.25056
-1.00206
-0.837204
-0.750201
-0.731578
-0.776186
-8.87166
-9.04506
-8.87151
-8.39597
-7.68274
-6.81333
-5.86582
-4.91342
-4.01359
-3.20324
-2.50922
-1.93638
-1.48165
-1.13371
-0.881679
-0.70913
-0.608107
-0.569029
-0.586434
-8.59192
-8.79722
-8.65123
-8.1946
-7.49274
-6.63055
-5.68878
-4.74294
-3.85144
-3.05135
-2.36874
-1.80748
-1.3632
-1.02352
-0.775971
-0.603894
-0.497747
-0.447802
-0.448384
-8.30513
-8.5857
-8.47523
-8.03243
-7.3315
-6.46439
-5.51759
-4.57039
-3.68277
-2.89175
-2.22188
-1.67527
-1.2456
-0.918907
-0.681051
-0.514882
-0.409607
-0.355319
-0.346193
-7.99578
-8.37337
-8.31356
-7.88837
-7.1849
-6.306
-5.34704
-4.39292
-3.50615
-2.72369
-2.06805
-1.53893
-1.12742
-0.817528
-0.59334
-0.437028
-0.336799
-0.282609
-0.268569
-7.73204
-8.1857
-8.17804
-7.77185
-7.06275
-6.16572
-5.18739
-4.22014
-3.33001
-2.55422
-1.91276
-1.40238
-1.01102
-0.720255
-0.512176
-0.36814
-0.275482
-0.224072
-0.208083
-7.49211
-8.0243
-8.07019
-7.68475
-6.96925
-6.05026
-5.04719
-4.06135
-3.16349
-2.39154
-1.76284
-1.27091
-0.900086
-0.629212
-0.438241
-0.307547
-0.223585
-0.176133
-0.159674
-7.25756
-7.87996
-7.98524
-7.62437
-6.90414
-5.96231
-4.93168
-3.9235
-3.01421
-2.24304
-1.62476
-1.1497
-0.798386
-0.546819
-0.372758
-0.25546
-0.180308
-0.136592
-0.119342
-7.03464
-7.74831
-7.91343
-7.5762
-6.84989
-5.88264
-4.82198
-3.78882
-2.86598
-2.09456
-1.48584
-1.0277
-0.696319
-0.464815
-0.308595
-0.205988
-0.140802
-0.100855
-0.0779334
-6.84287
-7.64461
-7.89141
-7.61686
-6.93213
-5.98421
-4.9266
-3.88455
-2.94702
-2.16029
-1.53649
-1.06628
-0.725091
-0.486345
-0.32482
-0.218946
-0.151128
-0.10813
-0.0787837
-6.69889
-7.56097
-7.87302
-7.66451
-7.03766
-6.13103
-5.09534
-4.05621
-3.10688
-2.29979
-1.65103
-1.15621
-0.792785
-0.535425
-0.359162
-0.242805
-0.168078
-0.12169
-0.0927792
-6.68164
-7.55568
-7.89865
-7.7355
-7.15793
-6.29437
-5.28741
-4.25968
-3.30535
-2.48109
-1.80769
-1.28542
-0.89486
-0.612892
-0.415846
-0.283418
-0.197261
-0.143657
-0.110902
-6.80786
-7.64384
-7.97541
-7.82673
-7.28061
-6.45415
-5.47878
-4.47009
-3.51963
-2.68576
-1.99259
-1.44483
-1.02633
-0.716639
-0.494107
-0.340394
-0.237973
-0.173281
-0.133574
-7.05731
-7.82519
-8.11201
-7.95139
-7.42009
-6.62355
-5.68038
-4.69627
-3.75732
-2.92123
-2.21381
-1.64374
-1.19774
-0.858005
-0.605004
-0.423371
-0.297701
-0.216018
-0.164889
-7.41717
-8.07953
-8.29537
-8.10416
-7.57592
-6.80407
-5.89387
-4.93945
-4.0195
-3.18926
-2.47476
-1.88798
-1.41796
-1.04884
-0.762314
-0.5461
-0.388127
-0.280676
-0.21126
-7.87608
-8.4041
-8.5361
-8.30406
-7.77082
-7.0185
-6.13972
-5.21669
-4.3199
-3.50107
-2.7854
-2.18783
-1.69926
-1.30501
-0.985859
-0.730681
-0.529866
-0.383275
-0.283853
-8.34824
-8.76509
-8.81772
-8.54349
-8.00259
-7.26774
-6.42008
-5.53032
-4.66056
-3.85848
-3.14783
-2.54659
-2.04797
-1.63865
-1.29654
-1.00766
-0.758442
-0.554987
-0.403983
-8.8721
-9.1753
-9.14523
-8.82505
-8.27278
-7.55264
-6.73503
-5.87962
-5.04006
-4.2595
-3.55962
-2.96154
-2.46197
-2.05145
-1.7063
-1.40838
-1.12927
-0.865754
-0.616252
-9.47621
-9.65562
-9.53942
-9.17219
-8.60864
-7.90472
-7.11997
-6.30359
-5.50065
-4.74907
-4.06859
-3.48208
-2.99121
-2.59428
-2.27364
-2.01537
-1.78193
-1.55448
-1.30948
-10.1312
-10.1776
-9.95477
-9.51721
-8.918
-8.20706
-7.43365
-6.63872
-5.85941
-5.12691
-4.45956
-3.87745
-3.3854
-2.98687
-2.67531
-2.44884
-2.28581
-2.1706
-2.07648
-10.8622
-10.7342
-10.3772
-9.84694
-9.19043
-8.45122
-7.6695
-6.88015
-6.11426
-5.39705
-4.74637
-4.17787
-3.69675
-3.30555
-3.00127
-2.7816
-2.6372
-2.56327
-2.55192
-11.6659
-11.3334
-10.8362
-10.2114
-9.49462
-8.72098
-7.9235
-7.13191
-6.37299
-5.66813
-5.03397
-4.48333
-4.0205
-3.6463
-3.35667
-3.14435
-2.99691
-2.90228
-2.84583
-12.378
-11.8653
-11.244
-10.5343
-9.76192
-8.95479
-8.14048
-7.34413
-6.58891
-5.89313
-5.2714
-4.73467
-4.28592
-3.92487
-3.64691
-3.44415
-3.30441
-3.21602
-3.16509
-12.9301
-12.2994
-11.5886
-10.8145
-9.99881
-9.16534
-8.33776
-7.53779
-6.78587
-6.09785
-5.48686
-4.96231
-4.52632
-4.17789
-3.91221
-3.72094
-3.59213
-3.51397
-3.47261
-13.3611
-12.6423
-11.8638
-11.0406
-10.1917
-9.33798
-8.50014
-7.69739
-6.9481
-6.26627
-5.66394
-5.14937
-4.72401
-4.38631
-4.13135
-3.95031
-3.83145
-3.76275
-3.73046
-13.6732
-12.889
-12.0596
-11.2003
-10.3276
-9.45961
-8.61471
-7.81022
-7.06301
-6.38581
-5.78989
-5.28273
-4.86533
-4.53573
-4.28889
-4.11559
-4.0041
-3.94217
-3.91597
-13.8856
-13.0321
-12.1639
-11.2816
-10.3953
-9.51977
-8.67148
-7.86652
-7.12088
-6.44657
-5.85447
-5.35164
-4.93886
-4.614
-4.37201
-4.20357
-4.09707
-4.04019
-4.0191
-13.8857
-13.0323
-12.1641
-11.2818
-10.3955
-9.51997
-8.67169
-7.86674
-7.1211
-6.4468
-5.8547
-5.35187
-4.9391
-4.61425
-4.37226
-4.20384
-4.09735
-4.04049
-4.01942
-13.6733
-12.8892
-12.0599
-11.2007
-10.3281
-9.46014
-8.61528
-7.81082
-7.06364
-6.38645
-5.79056
-5.28341
-4.86604
-4.53646
-4.28965
-4.11639
-4.00496
-3.9431
-3.91698
-13.3612
-12.6427
-11.8643
-11.0412
-10.1925
-9.33883
-8.50106
-7.69836
-6.94911
-6.26732
-5.66501
-5.15047
-4.72514
-4.38748
-4.13257
-3.95159
-3.8328
-3.7642
-3.73202
-12.9303
-12.2999
-11.5893
-10.8153
-9.99979
-9.16644
-8.33895
-7.53906
-6.78719
-6.09922
-5.48825
-4.96374
-4.52778
-4.17937
-3.91375
-3.72254
-3.59381
-3.51574
-3.4745
-12.3781
-11.8658
-11.2448
-10.5353
-9.76308
-8.9561
-8.14191
-7.34565
-6.5905
-5.89478
-5.27309
-4.73638
-4.28765
-3.92663
-3.64871
-3.44601
-3.30635
-3.21806
-3.16725
-11.6662
-11.334
-10.837
-10.2125
-9.49592
-8.72245
-7.92511
-7.13363
-6.3748
-5.66999
-5.03586
-4.48524
-4.02242
-3.64823
-3.35861
-3.14632
-2.99891
-2.90433
-2.84793
-10.8625
-10.7348
-10.3783
-9.84839
-9.1922
-8.45327
-7.6718
-6.88264
-6.1169
-5.39978
-4.74917
-4.18072
-3.69964
-3.30848
-3.00425
-2.7846
-2.64013
-2.56597
-2.55414
-10.1313
-10.1778
-9.95505
-9.51772
-8.91879
-8.20814
-7.435
-6.64028
-5.86112
-5.12867
-4.4613
-3.87907
-3.38683
-2.98805
-2.67623
-2.44959
-2.28672
-2.17227
-2.07983
-9.47629
-9.65613
-9.54042
-9.17379
-8.61087
-7.90757
-7.12336
-6.30742
-5.50478
-4.75337
-4.07294
-3.48637
-2.99541
-2.59842
-2.27786
-2.01991
-1.78712
-1.56067
-1.3169
-8.8721
-9.17543
-9.14569
-8.82598
-8.27423
-7.55459
-6.73743
-5.88236
-5.04299
-4.26252
-3.5626
-2.96441
-2.4647
-2.05409
-1.70892
-1.41108
-1.13201
-0.868319
-0.618196
-8.34821
-8.76515
-8.81809
-8.54433
-8.00396
-7.26963
-6.4224
-5.53296
-4.66336
-3.86131
-3.15057
-2.54918
-2.05039
-1.64092
-1.29869
-1.0097
-0.760288
-0.556496
-0.405073
-7.87602
-8.40408
-8.53636
-8.30477
-7.77206
-7.02025
-6.14188
-5.21914
-4.32247
-3.50362
-2.78783
-2.19006
-1.70129
-1.30683
-0.987498
-0.732121
-0.531071
-0.384211
-0.284513
-7.4171
-8.07945
-8.29554
-8.10477
-7.57704
-6.80568
-5.89586
-4.94169
-4.02182
-3.19152
-2.47686
-1.88987
-1.41962
-1.05028
-0.763537
-0.547114
-0.38893
-0.281282
-0.211688
-7.05721
-7.82506
-8.1121
-7.95188
-7.42107
-6.625
-5.68219
-4.69829
-3.75938
-2.9232
-2.2156
-1.6453
-1.19907
-0.859119
-0.605913
-0.424092
-0.298253
-0.216429
-0.165184
-6.80777
-7.64369
-7.97546
-7.82715
-7.28148
-6.45545
-5.48039
-4.47186
-3.52142
-2.68744
-1.99408
-1.44611
-1.02738
-0.717497
-0.494784
-0.340915
-0.238365
-0.173573
-0.133792
-6.68154
-7.55554
-7.89868
-7.73587
-7.1587
-6.2955
-5.28881
-4.2612
-3.30686
-2.48249
-1.80891
-1.28645
-0.895697
-0.613556
-0.416359
-0.283805
-0.197551
-0.143878
-0.11108
-6.69879
-7.56082
-7.87299
-7.66475
-7.03822
-6.13187
-5.09638
-4.05734
-3.108
-2.30081
-1.65192
-1.15695
-0.793379
-0.535889
-0.359513
-0.243067
-0.168272
-0.121844
-0.0929254
-6.84296
-7.64466
-7.89152
-7.61705
-6.93244
-5.98461
-4.92708
-3.88507
-2.94754
-2.16079
-1.53694
-1.06667
-0.725428
-0.486627
-0.325051
-0.219135
-0.151282
-0.108251
-0.0788609
-7.03474
-7.74839
-7.91344
-7.5761
-6.84967
-5.88233
-4.82161
-3.78842
-2.86559
-2.09421
-1.48555
-1.02746
-0.696133
-0.464675
-0.308491
-0.205912
-0.140744
-0.100805
-0.0778691
-7.25762
-7.88001
-7.98527
-7.62438
-6.90413
-5.96229
-4.93166
-3.9235
-3.01422
-2.24305
-1.62479
-1.14973
-0.798412
-0.546841
-0.372776
-0.255474
-0.18032
-0.136602
-0.119344
-7.49215
-8.02433
-8.0702
-7.68473
-6.96921
-6.05022
-5.04715
-4.06132
-3.16348
-2.39154
-1.76284
-1.27092
-0.900097
-0.629223
-0.43825
-0.307555
-0.223594
-0.176141
-0.159679
-7.73207
-8.18573
-8.17805
-7.77183
-7.06271
-6.16568
-5.18736
-4.22012
-3.33
-2.55422
-1.91276
-1.40239
-1.01103
-0.72026
-0.512182
-0.368147
-0.27549
-0.224081
-0.208092
-7.99581
-8.37339
-8.31356
-7.88835
-7.18487
-6.30597
-5.34702
-4.39291
-3.50614
-2.72369
-2.06805
-1.53893
-1.12742
-0.81753
-0.593343
-0.437034
-0.336809
-0.282622
-0.268581
-8.30515
-8.58571
-8.47523
-8.03242
-7.33148
-6.46437
-5.51758
-4.57038
-3.68276
-2.89175
-2.22188
-1.67527
-1.2456
-0.918905
-0.681053
-0.514888
-0.40962
-0.355337
-0.346211
-8.59193
-8.79723
-8.65122
-8.19459
-7.49273
-6.63055
-5.68878
-4.74294
-3.85144
-3.05134
-2.36873
-1.80747
-1.3632
-1.02352
-0.775973
-0.603903
-0.497765
-0.447826
-0.448407
-8.87167
-9.04506
-8.8715
-8.39596
-7.68274
-6.81334
-5.86582
-4.91342
-4.01358
-3.20323
-2.50921
-1.93637
-1.48164
-1.13371
-0.881681
-0.709142
-0.608129
-0.56906
-0.586461
-9.20554
-9.33579
-9.12287
-8.6147
-7.87601
-6.98686
-6.02488
-5.06144
-4.15289
-3.33516
-2.63491
-2.05704
-1.59913
-1.25055
-1.00206
-0.837219
-0.750228
-0.731611
-0.776213
-9.58956
-9.65655
-9.39024
-8.83349
-8.05439
-7.13436
-6.15184
-5.1762
-4.26193
-3.44272
-2.74422
-2.17031
-1.71889
-1.37964
-1.14532
-0.999099
-0.938207
-0.953152
-1.03922
-9.99454
-10.0009
-9.66605
-9.0417
-8.20709
-7.24718
-6.24113
-5.25533
-4.34114
-3.52859
-2.84186
-2.28276
-1.8494
-1.53156
-1.32463
-1.21082
-1.19158
-1.2571
-1.40323
-10.4569
-10.3826
-9.94635
-9.2296
-8.32486
-7.31919
-6.29037
-5.29996
-4.39463
-3.59923
-2.93644
-2.40494
-2.00333
-1.72139
-1.558
-1.49365
-1.53544
-1.67277
-1.90212
-11.0111
-10.7717
-10.1929
-9.36358
-8.38171
-7.33294
-6.28971
-5.30676
-4.4243
-3.66051
-3.03738
-2.54929
-2.19614
-1.96771
-1.86759
-1.87346
-1.99985
-2.23455
-2.57489
-11.4886
-11.0574
-10.3241
-9.38253
-8.33443
-7.26118
-6.22456
-5.27092
-4.43262
-3.72018
-3.15669
-2.73124
-2.44642
-2.2922
-2.27839
-2.37862
-2.61711
-2.97926
-3.46403
-11.9181
-11.291
-10.3855
-9.33279
-8.23216
-7.15379
-6.14305
-5.23721
-4.46045
-3.81543
-3.32886
-2.98361
-2.78655
-2.72793
-2.82532
-3.04665
-3.42814
-3.95183
-4.62008
-12.3172
-11.3883
-10.2968
-9.15828
-8.0402
-6.99169
-6.03682
-5.20507
-4.51321
-3.9565
-3.56845
-3.32491
-3.23898
-3.30141
-3.53927
-3.91297
-4.47368
-5.19964
-6.10151
-12.3997
-11.1683
-9.95518
-8.80411
-7.73056
-6.76281
-5.90346
-5.17859
-4.59953
-4.15539
-3.89017
-3.77209
-3.8228
-4.03402
-4.44458
-5.00627
-5.7898
-6.77132
-7.98288
-12.0554
-10.6594
-9.43675
-8.35615
-7.38442
-6.53847
-5.80379
-5.20881
-4.76205
-4.44825
-4.32526
-4.35362
-4.56584
-4.95538
-5.57566
-6.36938
-7.43329
-8.74611
-10.393
-11.1406
-9.78964
-8.70217
-7.78665
-6.97913
-6.29877
-5.72076
-5.28103
-4.9881
-4.82445
-4.86473
-5.0627
-5.46455
-6.06751
-6.94433
-8.03078
-9.4616
-11.23
-13.5592
-9.6086
-8.58092
-7.77476
-7.10765
-6.51715
-6.03882
-5.6444
-5.38102
-5.25973
-5.26309
-5.48517
-5.87533
-6.49734
-7.35658
-8.5539
-10.0253
-11.9661
-14.4095
-17.9529
-7.5594
-7.08879
-6.67035
-6.31033
-5.97627
-5.72814
-5.53883
-5.46795
-5.53104
-5.71347
-6.1311
-6.73347
-7.60807
-8.77759
-10.3877
-12.3926
-15.0939
-18.6184
-24.613
-5.23995
-5.39772
-5.40274
-5.3757
-5.32175
-5.32252
-5.35298
-5.48355
-5.73529
-6.0993
-6.71574
-7.54118
-8.697
-10.2413
-12.397
-15.1777
-19.088
-24.4667
-35.9646
-2.95812
-3.606
-3.98913
-4.28659
-4.52031
-4.77907
-5.0356
-5.36683
-5.79799
-6.3291
-7.12666
-8.16169
-9.60564
-11.5863
-14.4644
-18.4084
-24.3386
-33.0905
-57.9351
-0.97745
-1.8018
-2.45046
-3.03676
-3.55302
-4.07134
-4.55132
-5.07151
-5.65372
-6.31135
-7.23706
-8.41637
-10.1004
-12.5711
-16.5224
-22.789
-34.1102
-55.0851
-130.115
)
;

boundaryField
{
    up
    {
        type            calculated;
        value           nonuniform List<scalar> 
84
(
-117.918
-63.8642
-39.1244
-26.5033
-19.2077
-14.4573
-11.0649
-8.4954
-6.49159
-4.91394
-3.68004
-2.729
-2.00882
-1.47438
-1.08472
-0.803976
-0.602406
-0.456763
-0.349854
-0.269453
-0.207414
-0.158081
-0.116024
-0.0686665
-0.0658515
-0.084991
-0.102076
-0.122623
-0.150454
-0.191239
-0.254048
-0.352518
-0.528848
-1.26287
-2.10215
-2.56851
-2.82543
-3.14789
-3.45981
-3.72184
-3.91018
-4.01592
-4.01624
-3.91123
-3.72345
-3.46175
-3.1501
-2.82757
-2.57028
-2.10573
-1.27138
-0.530697
-0.353435
-0.254607
-0.191605
-0.150708
-0.122815
-0.102237
-0.0851636
-0.0659379
-0.0685888
-0.11602
-0.158083
-0.207421
-0.269464
-0.34987
-0.456783
-0.602428
-0.803996
-1.08474
-1.47437
-2.0088
-2.72896
-3.68
-4.9139
-6.49159
-8.49544
-11.065
-14.4574
-19.2078
-26.5034
-39.1244
-63.8642
-117.918
)
;
    }
    low
    {
        type            calculated;
        value           nonuniform List<scalar> 
84
(
-1.05042
-3.09673
-5.53604
-8.04894
-10.273
-11.9125
-12.8396
-13.1188
-12.8882
-12.3092
-11.7919
-11.2332
-10.5655
-10.0451
-9.60903
-9.17628
-8.79799
-8.50566
-8.18704
-7.80357
-7.47923
-7.18864
-6.89261
-6.61156
-6.32363
-6.13438
-6.1229
-6.31461
-6.65071
-7.11795
-7.67196
-8.2066
-8.79864
-9.47836
-10.1936
-11.0026
-11.912
-12.6867
-13.2722
-13.7306
-14.0649
-14.3127
-14.3128
-14.065
-13.7307
-13.2723
-12.6868
-11.9122
-11.0027
-10.1935
-9.47846
-8.79853
-8.20652
-7.67188
-7.11788
-6.65063
-6.31457
-6.12287
-6.13438
-6.32366
-6.61172
-6.89261
-7.18868
-7.47926
-7.80359
-8.18705
-8.50568
-8.798
-9.17628
-9.60902
-10.0451
-10.5655
-11.2331
-11.7918
-12.3091
-12.8882
-13.1188
-12.8396
-11.9125
-10.273
-8.04901
-5.53609
-3.09676
-1.05044
)
;
    }
    left
    {
        type            calculated;
        value           nonuniform List<scalar> 
19
(
-0.959945
-1.77136
-2.43542
-3.0445
-3.58601
-4.12861
-4.63212
-5.17865
-5.78992
-6.49004
-7.47986
-8.7519
-10.5911
-13.3349
-17.7608
-24.8929
-37.9188
-62.3249
-122.288
)
;
    }
    right
    {
        type            calculated;
        value           nonuniform List<scalar> 
19
(
-0.959952
-1.77136
-2.43541
-3.0445
-3.586
-4.12861
-4.63212
-5.17865
-5.78993
-6.49005
-7.47987
-8.75189
-10.5911
-13.3349
-17.7607
-24.8929
-37.9188
-62.3249
-122.289
)
;
    }
    frontAndBackPlanes
    {
        type            empty;
    }
}


// ************************************************************************* //
