/*--------------------------------*- C++ -*----------------------------------*\
  =========                 |
  \\      /  F ield         | OpenFOAM: The Open Source CFD Toolbox
   \\    /   O peration     | Website:  https://openfoam.org
    \\  /    A nd           | Version:  7
     \\/     M anipulation  |
\*---------------------------------------------------------------------------*/
FoamFile
{
    version     2.0;
    format      ascii;
    class       volScalarField;
    location    "0.03";
    object      gradTx;
}
// * * * * * * * * * * * * * * * * * * * * * * * * * * * * * * * * * * * * * //

dimensions      [0 -1 0 1 0 0 0];

internalField   nonuniform List<scalar> 
1596
(
-0.227777
-1.12735
-1.90518
-2.44573
-2.76655
-2.92051
-2.98066
-2.98847
-2.96865
-2.94058
-2.89578
-2.84367
-2.79242
-2.7627
-2.78801
-2.95745
-3.39481
-4.32371
-6.15163
0.0969597
-0.803234
-1.52763
-2.02689
-2.32866
-2.47946
-2.54213
-2.55298
-2.53832
-2.51347
-2.47657
-2.43445
-2.38191
-2.31638
-2.23044
-2.12577
-1.99357
-1.81362
-1.50674
0.366277
-0.421721
-1.0293
-1.44906
-1.70789
-1.84293
-1.90253
-1.91727
-1.91055
-1.89525
-1.87378
-1.85163
-1.82299
-1.78061
-1.7097
-1.59303
-1.40707
-1.1306
-0.722272
0.431193
-0.131892
-0.573685
-0.889521
-1.09218
-1.20443
-1.25796
-1.27597
-1.2769
-1.27104
-1.26309
-1.25743
-1.25092
-1.23783
-1.20571
-1.13381
-0.994313
-0.761041
-0.403784
0.270759
-0.0193088
-0.275862
-0.476939
-0.616379
-0.700415
-0.744407
-0.762864
-0.768397
-0.768453
-0.768102
-0.770662
-0.775375
-0.779371
-0.775295
-0.746528
-0.66867
-0.513504
-0.250866
-0.0450008
-0.0852385
-0.164226
-0.249612
-0.321634
-0.372076
-0.402105
-0.417071
-0.423485
-0.425749
-0.427912
-0.432247
-0.439197
-0.447933
-0.455363
-0.451038
-0.417713
-0.330652
-0.160193
-0.422002
-0.276462
-0.203833
-0.180038
-0.182721
-0.194621
-0.206055
-0.21365
-0.217863
-0.219846
-0.221837
-0.225083
-0.230244
-0.237406
-0.24586
-0.250234
-0.2404
-0.198426
-0.0991712
-0.782396
-0.520362
-0.332146
-0.213517
-0.149557
-0.120564
-0.110068
-0.107366
-0.107289
-0.10765
-0.108555
-0.110228
-0.11303
-0.117212
-0.122958
-0.127995
-0.127325
-0.109949
-0.0577257
-1.13387
-0.811086
-0.534402
-0.32835
-0.194559
-0.117911
-0.0791314
-0.0615558
-0.0544383
-0.0517628
-0.0510945
-0.0514219
-0.0525107
-0.0544029
-0.0573801
-0.0606543
-0.0621634
-0.0561061
-0.0311734
-1.34313
-1.02016
-0.703977
-0.443589
-0.258618
-0.142907
-0.0787342
-0.0466745
-0.0321783
-0.0261237
-0.0238589
-0.0232096
-0.0233237
-0.0239452
-0.0251791
-0.0267859
-0.0280624
-0.0263543
-0.0155238
-1.51968
-1.20287
-0.864015
-0.563421
-0.335555
-0.184297
-0.095421
-0.048431
-0.0259199
-0.01601
-0.0119824
-0.0104878
-0.0100372
-0.0100566
-0.0104338
-0.0110602
-0.0117374
-0.0114034
-0.00711459
-1.71056
-1.3996
-1.03949
-0.700087
-0.428912
-0.240257
-0.124357
-0.0604403
-0.0285287
-0.0139277
-0.00774357
-0.00530577
-0.00440808
-0.00412423
-0.0041342
-0.00430636
-0.00457346
-0.0045564
-0.00299807
-1.79304
-1.51097
-1.15237
-0.795861
-0.4991
-0.285406
-0.149879
-0.0729113
-0.0333832
-0.0148033
-0.0067279
-0.00345639
-0.00220146
-0.00174443
-0.00160673
-0.00160388
-0.00167593
-0.00169075
-0.00116459
-1.84973
-1.59212
-1.23784
-0.870091
-0.554573
-0.321942
-0.17126
-0.0840421
-0.0384255
-0.0166004
-0.00695484
-0.00298133
-0.00143211
-0.000853986
-0.000649731
-0.000586475
-0.000584962
-0.000586852
-0.000418643
-1.90103
-1.66064
-1.30748
-0.929032
-0.597728
-0.349976
-0.187587
-0.0926298
-0.0424859
-0.0182658
-0.00746691
-0.0029772
-0.00121244
-0.000549689
-0.000310032
-0.000225895
-0.000200897
-0.000193379
-0.000140147
-1.91901
-1.6986
-1.3484
-0.963137
-0.621735
-0.36489
-0.195907
-0.096856
-0.0444419
-0.0190691
-0.00773422
-0.00300935
-0.00114776
-0.000447808
-0.000194277
-0.000104254
-7.34165e-05
-6.27489e-05
-4.43657e-05
-1.8962
-1.69733
-1.35341
-0.966814
-0.622563
-0.364028
-0.194615
-0.0958028
-0.0437704
-0.0186927
-0.0075363
-0.00290066
-0.00107933
-0.000396415
-0.000149885
-6.27656e-05
-3.24615e-05
-2.17836e-05
-1.37821e-05
-1.85701
-1.67127
-1.33204
-0.946476
-0.604372
-0.349941
-0.185172
-0.0902395
-0.0408338
-0.0172781
-0.00690387
-0.00263108
-0.000965604
-0.000345639
-0.000123412
-4.55103e-05
-1.859e-05
-9.19045e-06
-4.56817e-06
-1.83709
-1.66029
-1.31727
-0.92594
-0.582716
-0.331929
-0.172701
-0.0827754
-0.0368634
-0.0153622
-0.00605044
-0.00227362
-0.000822237
-0.000289042
-0.000100292
-3.49381e-05
-1.26458e-05
-4.98763e-06
-1.83291e-06
-1.73735
-1.58845
-1.2572
-0.873424
-0.54027
-0.301646
-0.153678
-0.072132
-0.031481
-0.0128691
-0.00497761
-0.00183869
-0.000654064
-0.000226085
-7.69281e-05
-2.60354e-05
-8.92901e-06
-3.14858e-06
-9.34083e-07
-1.60073
-1.48126
-1.16903
-0.801061
-0.48544
-0.264581
-0.131404
-0.0601277
-0.0256041
-0.0102244
-0.00386882
-0.0014
-0.000488459
-0.00016574
-5.53587e-05
-1.83456e-05
-6.11149e-06
-2.0485e-06
-5.49073e-07
-1.43226
-1.34011
-1.05414
-0.711732
-0.421781
-0.223843
-0.108044
-0.0480331
-0.0198868
-0.00773085
-0.00285238
-0.00100809
-0.000344053
-0.000114353
-3.74524e-05
-1.21708e-05
-3.96898e-06
-1.29478e-06
-3.32936e-07
-1.20916
-1.1439
-0.89833
-0.598981
-0.347889
-0.180089
-0.0845753
-0.0365499
-0.0147136
-0.00556669
-0.00200182
-0.000690693
-0.000230531
-7.50625e-05
-2.41244e-05
-7.70431e-06
-2.47344e-06
-7.98152e-07
-2.06987e-07
-0.91456
-0.843162
-0.642441
-0.41435
-0.232537
-0.116318
-0.0528113
-0.0220688
-0.00858825
-0.00313808
-0.00108819
-0.000361248
-0.000115683
-3.60225e-05
-1.10336e-05
-3.3498e-06
-1.02862e-06
-3.3144e-07
-9.95549e-08
-0.616707
-0.614462
-0.503186
-0.345224
-0.204139
-0.106803
-0.0505235
-0.0219777
-0.00892262
-0.00341852
-0.00124974
-0.000440794
-0.000151114
-5.07644e-05
-1.68619e-05
-5.59398e-06
-1.88814e-06
-6.9673e-07
-3.32103e-07
-0.202103
-0.198705
-0.172336
-0.129721
-0.0851873
-0.0495416
-0.0259444
-0.0124136
-0.00550641
-0.0022905
-0.000903512
-0.000342275
-0.000125506
-4.49413e-05
-1.58447e-05
-5.54425e-06
-1.96293e-06
-7.74945e-07
-4.27247e-07
0.224278
0.209999
0.149169
0.081144
0.0330183
0.00837091
-0.000699951
-0.00249596
-0.00196203
-0.00113512
-0.000560466
-0.000251409
-0.00010544
-4.22516e-05
-1.64048e-05
-6.21059e-06
-2.32339e-06
-9.6163e-07
-5.78788e-07
0.634124
0.599011
0.462701
0.296801
0.161414
0.0755659
0.0306543
0.0106943
0.00308659
0.000630424
5.08152e-06
-8.73109e-05
-6.39368e-05
-3.44003e-05
-1.62685e-05
-7.08098e-06
-2.83945e-06
-1.16629e-06
-7.355e-07
0.972181
0.911426
0.720573
0.485162
0.282841
0.144955
0.0661088
0.0270347
0.0099402
0.00326071
0.000933822
0.000212985
2.30282e-05
-1.37972e-05
-1.38672e-05
-8.41104e-06
-3.92762e-06
-1.49304e-06
-8.14208e-07
1.27779
1.1805
0.943239
0.655289
0.400575
0.218139
0.107041
0.0477575
0.0195186
0.00733098
0.00253797
0.000800807
0.000222077
4.60714e-05
-1.99278e-07
-8.36755e-06
-5.95402e-06
-2.235e-06
-5.20477e-07
1.45904
1.33446
1.07815
0.771016
0.49214
0.283107
0.148259
0.0713094
0.0317799
0.0132098
0.00516909
0.00191059
0.000666136
0.000213185
5.64101e-05
5.28558e-06
-5.9384e-06
-3.34842e-06
1.01411e-06
1.59392
1.44986
1.18287
0.867331
0.575183
0.347644
0.193197
0.0995545
0.048016
0.0218567
0.00950587
0.00398847
0.00163052
0.000649687
0.000248105
8.09558e-05
1.75997e-05
1.58098e-06
4.84038e-06
1.68953
1.52459
1.25315
0.939374
0.645145
0.408403
0.240142
0.132197
0.0687873
0.0341493
0.0164018
0.00772183
0.00361615
0.00170177
0.000809323
0.000373177
0.000160449
6.39893e-05
4.20362e-05
1.70902
1.52085
1.24911
0.946845
0.664105
0.432595
0.263074
0.150138
0.0809513
0.041484
0.0203953
0.00970164
0.00450534
0.00204887
0.000904454
0.000342954
5.34245e-05
-0.000105953
-0.000166914
1.68315
1.49274
1.23945
0.963499
0.702337
0.481367
0.311485
0.191135
0.111873
0.062812
0.0340951
0.0180403
0.00937429
0.00481439
0.00245274
0.0012031
0.00050467
5.55797e-05
-0.000281203
1.64318
1.45308
1.21567
0.960938
0.718244
0.508814
0.342907
0.220768
0.136536
0.0815592
0.0473907
0.027005
0.0151928
0.00849803
0.00475637
0.00265226
0.00143688
0.000683715
0.000149385
1.48755
1.28413
1.05519
0.823277
0.610106
0.430383
0.290027
0.187464
0.116863
0.0706358
0.0416864
0.0242173
0.0139357
0.00799156
0.00458537
0.00260871
0.00141946
0.000653281
0.000103667
1.26019
1.08422
0.890568
0.696915
0.519834
0.370378
0.252919
0.166164
0.105583
0.0652139
0.0394197
0.0235036
0.0139049
0.00820719
0.00484793
0.00283628
0.00158285
0.0007449
0.000122826
1.01795
0.875594
0.7194
0.564126
0.422603
0.303132
0.208891
0.138811
0.0894095
0.0560946
0.0345094
0.0209781
0.0126723
0.00764459
0.00461541
0.00275567
0.00156357
0.000742512
0.000116601
0.750727
0.644048
0.528759
0.415184
0.312092
0.225088
0.156262
0.104803
0.0682506
0.0433635
0.0270579
0.0167064
0.0102622
0.00629986
0.00387112
0.00235069
0.0013551
0.000655056
0.000112678
0.46631
0.396535
0.324161
0.254194
0.19123
0.138267
0.0963732
0.0649816
0.0425963
0.0272727
0.0171674
0.0107031
0.00664382
0.0041231
0.00256042
0.00156876
0.000908889
0.000436869
6.55915e-05
0.177257
0.148662
0.120538
0.0939664
0.0703462
0.0506406
0.0351524
0.0236096
0.0154179
0.00983511
0.00616839
0.00383189
0.00237
0.00146519
0.000905644
0.000550768
0.000313798
0.000142644
5.90989e-06
-0.177171
-0.148467
-0.120284
-0.0936955
-0.0700907
-0.0504198
-0.0349742
-0.0234735
-0.0153184
-0.00976487
-0.00612005
-0.00379918
-0.00234808
-0.00145057
-0.000895922
-0.000544409
-0.000309861
-0.000140593
-5.47975e-06
-0.466227
-0.396361
-0.323938
-0.25396
-0.191012
-0.138082
-0.0962265
-0.0648713
-0.042517
-0.0272177
-0.0171301
-0.0106783
-0.00662742
-0.00411233
-0.00255338
-0.00156427
-0.000906232
-0.000435648
-6.56151e-05
-0.75064
-0.643875
-0.528543
-0.414963
-0.311892
-0.224922
-0.156133
-0.104708
-0.0681842
-0.0433185
-0.0270283
-0.0166872
-0.0102498
-0.00629192
-0.00386602
-0.00234744
-0.00135308
-0.000653899
-0.000112181
-1.01788
-0.875461
-0.719247
-0.563982
-0.422484
-0.303042
-0.208829
-0.138771
-0.0893853
-0.0560808
-0.0345018
-0.0209742
-0.0126704
-0.00764377
-0.00461512
-0.00275564
-0.00156366
-0.000742645
-0.00011673
-1.26013
-1.08412
-0.890464
-0.696832
-0.519779
-0.370351
-0.252912
-0.166169
-0.105593
-0.0652247
-0.0394293
-0.0235112
-0.0139105
-0.00821121
-0.00485071
-0.00283815
-0.00158403
-0.000745538
-0.000122967
-1.48751
-1.28407
-1.05515
-0.823266
-0.610129
-0.43043
-0.290084
-0.18752
-0.116912
-0.0706743
-0.0417146
-0.0242369
-0.0139488
-0.00800003
-0.00459076
-0.00261206
-0.00142144
-0.000654254
-0.000103841
-1.64313
-1.4529
-1.21541
-0.960653
-0.717982
-0.508602
-0.342753
-0.220665
-0.136473
-0.0815237
-0.0473717
-0.0269954
-0.0151882
-0.00849577
-0.00475517
-0.00265146
-0.00143612
-0.000682945
-0.000148759
-1.68337
-1.4934
-1.2405
-0.964802
-0.703702
-0.482627
-0.312538
-0.191942
-0.112448
-0.0631978
-0.0343412
-0.0181915
-0.00946462
-0.00486758
-0.00248406
-0.00122198
-0.000516566
-6.33943e-05
0.000276819
-1.70887
-1.52058
-1.24884
-0.946645
-0.663991
-0.432545
-0.263054
-0.150127
-0.0809376
-0.0414672
-0.0203778
-0.0096859
-0.00449261
-0.00203929
-0.000897544
-0.000337927
-4.92748e-05
0.000110144
0.000171222
-1.6896
-1.52483
-1.25358
-0.939939
-0.645742
-0.408937
-0.240561
-0.132492
-0.068978
-0.0342643
-0.016468
-0.00775899
-0.00363692
-0.00171355
-0.000816252
-0.000377332
-0.0001628
-6.50587e-05
-4.33807e-05
-1.59395
-1.45003
-1.18322
-0.867799
-0.575672
-0.348069
-0.193514
-0.0997642
-0.048142
-0.0219268
-0.00954299
-0.00400754
-0.00164023
-0.000654661
-0.000250681
-8.22547e-05
-1.82563e-05
-1.96416e-06
-5.19931e-06
-1.45909
-1.33465
-1.0785
-0.771476
-0.492598
-0.283483
-0.148522
-0.0714706
-0.0318694
-0.0132556
-0.00519119
-0.00192081
-0.000670724
-0.000215169
-5.71752e-05
-5.44838e-06
5.97694e-06
3.25083e-06
-1.14006e-06
-1.27785
-1.1807
-0.943598
-0.655733
-0.400992
-0.218458
-0.107248
-0.0478754
-0.0195788
-0.00735906
-0.00255017
-0.000805771
-0.000223942
-4.66609e-05
1.32403e-07
8.51999e-06
6.13584e-06
2.26653e-06
4.87308e-07
-0.972237
-0.911622
-0.72091
-0.485552
-0.283183
-0.145199
-0.0662556
-0.0271118
-0.00997632
-0.00327605
-0.00093977
-0.000215055
-2.36189e-05
1.37293e-05
1.39691e-05
8.55613e-06
4.04585e-06
1.52383e-06
8.11827e-07
-0.634199
-0.599225
-0.463024
-0.297138
-0.161683
-0.0757409
-0.0307506
-0.0107404
-0.00310621
-0.000637864
-7.56693e-06
8.66409e-05
6.38541e-05
3.44737e-05
1.63641e-05
7.16128e-06
2.88998e-06
1.17828e-06
7.39511e-07
-0.224353
-0.210207
-0.149446
-0.0813992
-0.0331997
-0.00847646
0.000647874
0.0024737
0.00195374
0.0011325
0.00055984
0.000251376
0.00010553
4.2337e-05
1.6463e-05
6.24457e-06
2.33887e-06
9.63849e-07
5.82266e-07
0.201925
0.198269
0.171844
0.129334
0.0849488
0.0494192
0.0258904
0.0123927
0.00549927
0.00228841
0.000903039
0.000342235
0.000125545
4.49752e-05
1.58628e-05
5.55078e-06
1.96327e-06
7.7323e-07
4.28245e-07
0.616778
0.61471
0.50352
0.345527
0.204353
0.10693
0.0505893
0.0220088
0.00893638
0.00342434
0.00125212
0.000441752
0.000151488
5.0906e-05
1.69129e-05
5.61082e-06
1.89293e-06
6.98164e-07
3.33419e-07
0.914409
0.842754
0.641957
0.413947
0.232269
0.116167
0.0527372
0.0220359
0.00857483
0.00313297
0.00108634
0.000360594
0.000115454
3.59403e-05
1.10023e-05
3.33703e-06
1.02316e-06
3.29292e-07
9.91177e-08
1.20921
1.14399
0.898436
0.599067
0.347943
0.180117
0.0845891
0.0365559
0.014716
0.00556765
0.00200217
0.000690809
0.000230566
7.50712e-05
2.41257e-05
7.70396e-06
2.47302e-06
7.97972e-07
2.06944e-07
1.43226
1.3401
1.05414
0.71173
0.42178
0.223841
0.108043
0.0480326
0.0198866
0.00773085
0.00285241
0.00100812
0.000344067
0.000114359
3.74552e-05
1.21719e-05
3.9693e-06
1.29489e-06
3.32956e-07
1.60072
1.48125
1.16903
0.80106
0.485439
0.26458
0.131404
0.0601272
0.0256038
0.0102244
0.00386886
0.00140004
0.000488488
0.000165756
5.53663e-05
1.83488e-05
6.11256e-06
2.04891e-06
5.49195e-07
1.73735
1.58845
1.2572
0.873424
0.540271
0.301646
0.153677
0.0721315
0.0314808
0.012869
0.00497766
0.00183876
0.000654109
0.000226111
7.69409e-05
2.60403e-05
8.93019e-06
3.14915e-06
9.34399e-07
1.83709
1.66028
1.31727
0.925942
0.582718
0.331929
0.172701
0.0827751
0.0368632
0.0153622
0.00605052
0.0022737
0.000822299
0.000289079
0.000100308
3.4942e-05
1.26443e-05
4.98801e-06
1.83396e-06
1.85701
1.67127
1.33204
0.946477
0.604373
0.349941
0.185172
0.0902393
0.0408337
0.0172782
0.00690399
0.00263118
0.000965679
0.000345679
0.000123425
4.55025e-05
1.85775e-05
9.1913e-06
4.57275e-06
1.8962
1.69733
1.35341
0.966816
0.622565
0.364029
0.194615
0.0958028
0.0437705
0.0186928
0.00753643
0.00290077
0.0010794
0.000396441
0.000149869
6.27171e-05
3.24196e-05
2.17938e-05
1.38012e-05
1.91901
1.6986
1.3484
0.96314
0.621738
0.364892
0.195908
0.0968566
0.0444421
0.0190693
0.00773435
0.00300943
0.00114779
0.000447779
0.000194174
0.000104103
7.33211e-05
6.28111e-05
4.44327e-05
1.90103
1.66064
1.30748
0.929033
0.59773
0.349978
0.187588
0.0926307
0.0424864
0.0182661
0.00746703
0.00297724
0.00121239
0.000549527
0.00030973
0.000225545
0.000200757
0.00019363
0.000140339
1.84974
1.59213
1.23784
0.870093
0.554576
0.321945
0.171262
0.0840436
0.0384263
0.0166007
0.00695493
0.00298126
0.00143189
0.000853541
0.000649067
0.000585863
0.000584942
0.000587612
0.000419086
1.79304
1.51098
1.15238
0.795866
0.499105
0.28541
0.149882
0.0729132
0.0333841
0.0148036
0.00672785
0.00345611
0.0022009
0.00174352
0.00160563
0.00160322
0.00167655
0.00169252
0.00116537
1.71056
1.3996
1.03949
0.700088
0.428913
0.240259
0.124359
0.0604416
0.0285292
0.0139277
0.00774325
0.00530514
0.00440704
0.00412284
0.00413302
0.0043065
0.00457568
0.0045595
0.00299899
1.51969
1.20289
0.864025
0.563428
0.33556
0.184301
0.0954233
0.0484322
0.0259203
0.0160098
0.0119818
0.0104868
0.0100358
0.0100553
0.0104339
0.0110628
0.011742
0.011407
0.00711484
1.34315
1.02017
0.70399
0.443598
0.258623
0.14291
0.0787354
0.0466745
0.0321777
0.0261228
0.0238577
0.0232082
0.0233226
0.0239456
0.0251824
0.0267923
0.0280683
0.0263551
0.015522
1.13388
0.811099
0.534412
0.328356
0.194562
0.117912
0.0791308
0.0615545
0.0544369
0.0517613
0.051093
0.0514209
0.0525113
0.0544068
0.0573879
0.0606631
0.0621662
0.0560995
0.0311688
0.782407
0.520371
0.332153
0.21352
0.149556
0.120562
0.110065
0.107364
0.107287
0.107649
0.108554
0.110229
0.113034
0.11722
0.122968
0.128
0.127318
0.109933
0.05772
0.422012
0.276469
0.203837
0.180038
0.182719
0.194617
0.206051
0.213647
0.217861
0.219845
0.221837
0.225086
0.230251
0.237414
0.245864
0.250226
0.240379
0.198406
0.0991691
0.0450083
0.0852412
0.164226
0.249609
0.32163
0.372071
0.4021
0.417067
0.423483
0.425748
0.427913
0.432251
0.439202
0.447934
0.455353
0.451014
0.417687
0.330644
0.160199
-0.270754
0.0193081
0.275858
0.476934
0.616373
0.70041
0.744402
0.76286
0.768394
0.768451
0.768103
0.770663
0.775373
0.779359
0.77527
0.746498
0.668659
0.513521
0.250878
-0.431192
0.131889
0.573679
0.889513
1.09218
1.20442
1.25795
1.27596
1.27689
1.27103
1.26308
1.25742
1.25091
1.23781
1.20568
1.1338
0.994333
0.761078
0.403792
-0.366279
0.421717
1.0293
1.44906
1.70788
1.84293
1.90252
1.91726
1.91055
1.89525
1.87377
1.85162
1.82298
1.78059
1.7097
1.59305
1.40711
1.13063
0.722266
-0.0969619
0.803231
1.52763
2.02689
2.32866
2.47946
2.54213
2.55298
2.53832
2.51347
2.47656
2.43444
2.38191
2.31638
2.23045
2.1258
1.99359
1.8136
1.50673
0.227776
1.12735
1.90518
2.44573
2.76655
2.92051
2.98066
2.98847
2.96865
2.94058
2.89578
2.84367
2.79242
2.76271
2.78802
2.95744
3.39479
4.32369
6.15163
)
;

boundaryField
{
    up
    {
        type            calculated;
        value           nonuniform List<scalar> 
84
(
-6.15163
-1.50674
-0.722272
-0.403784
-0.250866
-0.160193
-0.0991712
-0.0577257
-0.0311734
-0.0155238
-0.00711459
-0.00299807
-0.00116459
-0.000418643
-0.000140147
-4.43657e-05
-1.37821e-05
-4.56817e-06
-1.83291e-06
-9.34083e-07
-5.49073e-07
-3.32936e-07
-2.06987e-07
-9.95549e-08
-2.21448e-07
-3.14133e-07
-4.66725e-07
-6.91034e-07
-1.03197e-06
-1.3919e-06
-4.09571e-07
9.63752e-06
7.5112e-05
-9.3122e-05
-0.000240416
0.000154739
0.000110849
0.000129112
0.00012187
0.00011607
6.7807e-05
6.98898e-06
-6.55112e-06
-6.78137e-05
-0.00011557
-0.000121983
-0.000129243
-0.000111012
-0.000154115
0.000236893
9.71239e-05
-7.78098e-05
-1.0418e-05
4.09178e-07
1.51861e-06
1.11917e-06
7.32827e-07
4.83502e-07
3.18807e-07
2.2256e-07
9.91177e-08
2.06944e-07
3.32956e-07
5.49195e-07
9.34399e-07
1.83396e-06
4.57275e-06
1.38012e-05
4.44327e-05
0.000140339
0.000419086
0.00116537
0.00299899
0.00711484
0.015522
0.0311688
0.05772
0.0991691
0.160199
0.250878
0.403792
0.722266
1.50673
6.15163
)
;
    }
    low
    {
        type            calculated;
        value           nonuniform List<scalar> 
84
(
-0.199848
0.143976
0.432507
0.493361
0.304735
-0.0505412
-0.463331
-0.847916
-1.21033
-1.41266
-1.58954
-1.78052
-1.85051
-1.90198
-1.95259
-1.96507
-1.93695
-1.9
-1.87875
-1.76682
-1.6215
-1.44635
-1.21438
-0.912668
-0.606276
-0.196319
0.21684
0.617872
0.957929
1.27582
1.47198
1.61499
1.71907
1.74688
1.72536
1.69199
1.54211
1.30953
1.05821
0.780833
0.485442
0.184972
-0.184886
-0.485357
-0.780741
-1.05813
-1.30945
-1.54206
-1.69192
-1.72553
-1.74672
-1.7191
-1.61499
-1.47199
-1.27585
-0.957964
-0.617935
-0.216911
0.196139
0.606339
0.912531
1.21442
1.44634
1.62149
1.76682
1.87875
1.9
1.93695
1.96507
1.95259
1.90198
1.85052
1.78052
1.58955
1.41267
1.21034
0.847928
0.463342
0.0505496
-0.304729
-0.49336
-0.432509
-0.143978
0.199847
)
;
    }
    left
    {
        type            calculated;
        value           nonuniform List<scalar> 
19
(
-0.218645
-1.1312
-1.95226
-2.53105
-2.87796
-3.04612
-3.11365
-3.12633
-3.10841
-3.08374
-3.04116
-2.98938
-2.94223
-2.92864
-2.99074
-3.24751
-3.86427
-5.1428
-5.32228
)
;
    }
    right
    {
        type            calculated;
        value           nonuniform List<scalar> 
19
(
0.218645
1.1312
1.95226
2.53105
2.87796
3.04612
3.11365
3.12633
3.10841
3.08374
3.04116
2.98939
2.94224
2.92865
2.99075
3.2475
3.86423
5.14278
5.32229
)
;
    }
    frontAndBackPlanes
    {
        type            empty;
    }
}


// ************************************************************************* //
