/*--------------------------------*- C++ -*----------------------------------*\
  =========                 |
  \\      /  F ield         | OpenFOAM: The Open Source CFD Toolbox
   \\    /   O peration     | Website:  https://openfoam.org
    \\  /    A nd           | Version:  7
     \\/     M anipulation  |
\*---------------------------------------------------------------------------*/
FoamFile
{
    version     2.0;
    format      ascii;
    class       volScalarField;
    location    "0.03";
    object      gradTx;
}
// * * * * * * * * * * * * * * * * * * * * * * * * * * * * * * * * * * * * * //

dimensions      [0 -1 0 1 0 0 0];

internalField   nonuniform List<scalar> 
1596
(
-1.59444
-7.89146
-13.3362
-17.1201
-19.3658
-20.4435
-20.8646
-20.9193
-20.7806
-20.5841
-20.2705
-19.9057
-19.5469
-19.3389
-19.516
-20.7021
-23.7637
-30.266
-43.0614
0.678718
-5.62264
-10.6934
-14.1882
-16.3006
-17.3562
-17.7949
-17.8709
-17.7682
-17.5943
-17.336
-17.0411
-16.6734
-16.2146
-15.6131
-14.8804
-13.955
-12.6953
-10.5472
2.56394
-2.95205
-7.20512
-10.1434
-11.9552
-12.9005
-13.3177
-13.4209
-13.3739
-13.2668
-13.1165
-12.9614
-12.7609
-12.4642
-11.9679
-11.1512
-9.8495
-7.9142
-5.0559
3.01835
-0.923247
-4.01579
-6.22664
-7.64529
-8.43101
-8.80571
-8.93177
-8.93827
-8.89726
-8.8416
-8.80201
-8.75642
-8.66483
-8.43997
-7.93666
-6.96019
-5.32729
-2.82649
1.89531
-0.135161
-1.93103
-3.33857
-4.31465
-4.90291
-5.21085
-5.34005
-5.37878
-5.37917
-5.37672
-5.39464
-5.42763
-5.4556
-5.42707
-5.22569
-4.68069
-3.59452
-1.75606
-0.315006
-0.59667
-1.14959
-1.74729
-2.25144
-2.60453
-2.81473
-2.9195
-2.9644
-2.98024
-2.99538
-3.02573
-3.07438
-3.13553
-3.18754
-3.15727
-2.92399
-2.31457
-1.12135
-2.95402
-1.93524
-1.42683
-1.26026
-1.27905
-1.36235
-1.44238
-1.49555
-1.52504
-1.53893
-1.55286
-1.57558
-1.61171
-1.66184
-1.72102
-1.75164
-1.6828
-1.38898
-0.694199
-5.47677
-3.64253
-2.32503
-1.49462
-1.0469
-0.843945
-0.770474
-0.751564
-0.751023
-0.753552
-0.759885
-0.771598
-0.791211
-0.820483
-0.860706
-0.895965
-0.891277
-0.769645
-0.40408
-7.93706
-5.6776
-3.74081
-2.29845
-1.36191
-0.825375
-0.55392
-0.43089
-0.381068
-0.362339
-0.357661
-0.359953
-0.367575
-0.38082
-0.401661
-0.42458
-0.435144
-0.392743
-0.218214
-9.40194
-7.14111
-4.92784
-3.10513
-1.81032
-1.00035
-0.55114
-0.326721
-0.225248
-0.182866
-0.167012
-0.162467
-0.163266
-0.167617
-0.176254
-0.187501
-0.196437
-0.18448
-0.108666
-10.6377
-8.42012
-6.0481
-3.94394
-2.34888
-1.29008
-0.667947
-0.339017
-0.18144
-0.11207
-0.083877
-0.0734147
-0.0702603
-0.0703964
-0.0730367
-0.0774212
-0.0821615
-0.0798238
-0.0498021
-11.9739
-9.79723
-7.27645
-4.90061
-3.00238
-1.6818
-0.8705
-0.423082
-0.199701
-0.0974941
-0.054205
-0.0371404
-0.0308566
-0.0288696
-0.0289394
-0.0301445
-0.0320142
-0.0318948
-0.0209865
-12.5513
-10.5768
-8.06661
-5.57103
-3.4937
-1.99784
-1.04915
-0.510379
-0.233682
-0.103623
-0.0470953
-0.0241947
-0.0154102
-0.012211
-0.0112471
-0.0112272
-0.0117315
-0.0118352
-0.00815212
-12.9481
-11.1449
-8.66489
-6.09064
-3.88201
-2.2536
-1.19882
-0.588294
-0.268978
-0.116203
-0.0486839
-0.0208693
-0.0100247
-0.0059779
-0.00454812
-0.00410533
-0.00409474
-0.00410796
-0.0029305
-13.3072
-11.6245
-9.15233
-6.50322
-4.18409
-2.44983
-1.31311
-0.648408
-0.297401
-0.127861
-0.0522683
-0.0208404
-0.00848708
-0.00384782
-0.00217022
-0.00158127
-0.00140628
-0.00135365
-0.000981026
-13.4331
-11.8902
-9.43877
-6.74196
-4.35215
-2.55423
-1.37135
-0.677992
-0.311093
-0.133484
-0.0541396
-0.0210654
-0.0080343
-0.00313465
-0.00135994
-0.00072978
-0.000513915
-0.000439243
-0.00031056
-13.2734
-11.8813
-9.47385
-6.7677
-4.35794
-2.5482
-1.3623
-0.67062
-0.306393
-0.130849
-0.0527541
-0.0203046
-0.0075553
-0.0027749
-0.0010492
-0.000439359
-0.00022723
-0.000152485
-9.64748e-05
-12.9991
-11.6989
-9.3243
-6.62533
-4.2306
-2.44958
-1.2962
-0.631677
-0.285837
-0.120947
-0.0483271
-0.0184175
-0.00675922
-0.00241947
-0.000863887
-0.000318572
-0.00013013
-6.43331e-05
-3.19772e-05
-12.8596
-11.622
-9.22092
-6.48158
-4.07901
-2.3235
-1.20891
-0.579428
-0.258043
-0.107536
-0.0423531
-0.0159153
-0.00575566
-0.0020233
-0.000702044
-0.000244567
-8.85205e-05
-3.49134e-05
-1.28304e-05
-12.1615
-11.1192
-8.80041
-6.11397
-3.78189
-2.11152
-1.07575
-0.504924
-0.220367
-0.0900834
-0.0348432
-0.0128709
-0.00457845
-0.0015826
-0.000538496
-0.000182247
-6.2503e-05
-2.204e-05
-6.53858e-06
-11.2051
-10.3688
-8.1832
-5.60742
-3.39808
-1.85206
-0.919831
-0.420894
-0.179228
-0.0715707
-0.0270818
-0.0098
-0.00341921
-0.00116018
-0.000387511
-0.000128419
-4.27804e-05
-1.43395e-05
-3.84351e-06
-10.0258
-9.38077
-7.37898
-4.98213
-2.95247
-1.5669
-0.756309
-0.336232
-0.139207
-0.054116
-0.0199667
-0.00705665
-0.00240837
-0.000800468
-0.000262167
-8.51959e-05
-2.77829e-05
-9.06345e-06
-2.33055e-06
-8.46409
-8.0073
-6.28831
-4.19287
-2.43523
-1.26062
-0.592027
-0.255849
-0.102995
-0.0389668
-0.0140127
-0.00483485
-0.00161372
-0.000525437
-0.000168871
-5.39302e-05
-1.73141e-05
-5.58706e-06
-1.44891e-06
-6.40192
-5.90213
-4.49709
-2.90045
-1.62776
-0.814224
-0.369679
-0.154482
-0.0601178
-0.0219666
-0.00761734
-0.00252873
-0.000809783
-0.000252158
-7.72349e-05
-2.34486e-05
-7.20035e-06
-2.32008e-06
-6.96884e-07
-4.31695
-4.30124
-3.5223
-2.41657
-1.42897
-0.74762
-0.353664
-0.153844
-0.0624583
-0.0239296
-0.00874815
-0.00308556
-0.0010578
-0.000355351
-0.000118033
-3.91579e-05
-1.3217e-05
-4.87711e-06
-2.32472e-06
-1.41472
-1.39093
-1.20635
-0.908046
-0.596311
-0.346791
-0.181611
-0.0868954
-0.0385449
-0.0160335
-0.00632458
-0.00239593
-0.00087854
-0.000314589
-0.000110913
-3.88098e-05
-1.37405e-05
-5.42462e-06
-2.99073e-06
1.56995
1.46999
1.04418
0.568008
0.231128
0.0585964
-0.00489966
-0.0174717
-0.0137342
-0.00794584
-0.00392326
-0.00175986
-0.000738079
-0.000295761
-0.000114834
-4.34741e-05
-1.62637e-05
-6.73141e-06
-4.05151e-06
4.43887
4.19308
3.2389
2.07761
1.1299
0.528962
0.21458
0.0748599
0.0216061
0.00441297
3.55707e-05
-0.000611176
-0.000447558
-0.000240802
-0.00011388
-4.95668e-05
-1.98761e-05
-8.164e-06
-5.1485e-06
6.80527
6.37998
5.04401
3.39614
1.97989
1.01469
0.462762
0.189243
0.0695814
0.022825
0.00653675
0.0014909
0.000161198
-9.65803e-05
-9.70702e-05
-5.88773e-05
-2.74934e-05
-1.04513e-05
-5.69946e-06
8.94454
8.26351
6.60267
4.58703
2.80403
1.52697
0.749285
0.334303
0.13663
0.0513169
0.0177658
0.00560565
0.00155454
0.0003225
-1.39495e-06
-5.85729e-05
-4.16781e-05
-1.5645e-05
-3.64334e-06
10.2133
9.34124
7.54705
5.39711
3.44498
1.98175
1.03782
0.499166
0.222459
0.0924688
0.0361837
0.0133741
0.00466295
0.0014923
0.000394871
3.69991e-05
-4.15688e-05
-2.3439e-05
7.09877e-06
11.1574
10.149
8.28012
6.07132
4.02628
2.43351
1.35238
0.696881
0.336112
0.152997
0.0665411
0.0279193
0.0114137
0.00454781
0.00173673
0.00056669
0.000123198
1.10669e-05
3.38827e-05
11.8267
10.6721
8.77204
6.57562
4.51602
2.85882
1.68099
0.925376
0.481511
0.239045
0.114812
0.0540528
0.025313
0.0119124
0.00566526
0.00261224
0.00112314
0.000447925
0.000294253
11.9631
10.646
8.74378
6.62791
4.64873
3.02817
1.84152
1.05097
0.566659
0.290388
0.142767
0.0679115
0.0315374
0.0143421
0.00633118
0.00240068
0.000373972
-0.000741669
-0.0011684
11.782
10.4492
8.67616
6.74449
4.91636
3.36957
2.1804
1.33795
0.783113
0.439684
0.238666
0.126282
0.06562
0.0337008
0.0171692
0.00842169
0.00353269
0.000389058
-0.00196842
11.5022
10.1716
8.5097
6.72656
5.02771
3.5617
2.40035
1.54537
0.955753
0.570915
0.331735
0.189035
0.10635
0.0594862
0.0332946
0.0185659
0.0100582
0.00478601
0.00104569
10.4128
8.98891
7.38633
5.76294
4.27075
3.01268
2.03019
1.31225
0.81804
0.49445
0.291805
0.169521
0.0975502
0.0559409
0.0320976
0.018261
0.00993625
0.00457297
0.000725667
8.82136
7.58957
6.23398
4.87841
3.63884
2.59265
1.77043
1.16315
0.73908
0.456497
0.275938
0.164525
0.0973343
0.0574503
0.0339355
0.019854
0.0110799
0.0052143
0.00085978
7.12568
6.12916
5.0358
3.94888
2.95822
2.12192
1.46224
0.97168
0.625866
0.392662
0.241566
0.146847
0.0887062
0.0535121
0.0323079
0.0192897
0.010945
0.00519758
0.000816204
5.25509
4.50833
3.70131
2.90629
2.18465
1.57562
1.09384
0.733621
0.477754
0.303544
0.189406
0.116945
0.0718354
0.044099
0.0270978
0.0164548
0.0094857
0.00458539
0.000788747
3.26417
2.77575
2.26913
1.77936
1.33861
0.967871
0.674613
0.454871
0.298174
0.190909
0.120171
0.0749219
0.0465068
0.0288617
0.0179229
0.0109813
0.00636222
0.00305808
0.00045914
1.2408
1.04063
0.843769
0.657765
0.492424
0.354484
0.246067
0.165267
0.107925
0.0688458
0.0431787
0.0268233
0.01659
0.0102563
0.00633951
0.00385538
0.00219659
0.000998509
4.13692e-05
-1.2402
-1.03927
-0.841989
-0.655868
-0.490635
-0.352939
-0.244819
-0.164314
-0.107229
-0.0683541
-0.0428403
-0.0265942
-0.0164365
-0.010154
-0.00627146
-0.00381087
-0.00216903
-0.000984152
-3.83582e-05
-3.26359
-2.77452
-2.26756
-1.77772
-1.33708
-0.966576
-0.673585
-0.454099
-0.297619
-0.190524
-0.11991
-0.0747479
-0.046392
-0.0287863
-0.0178737
-0.0109499
-0.00634363
-0.00304954
-0.000459306
-5.25448
-4.50712
-3.6998
-2.90474
-2.18324
-1.57445
-1.09293
-0.732958
-0.477289
-0.303229
-0.189198
-0.11681
-0.0717487
-0.0440434
-0.0270622
-0.0164321
-0.00947153
-0.00457729
-0.000785265
-7.12516
-6.12823
-5.03473
-3.94787
-2.95739
-2.1213
-1.4618
-0.9714
-0.625697
-0.392565
-0.241513
-0.146819
-0.0886931
-0.0535064
-0.0323058
-0.0192895
-0.0109456
-0.00519852
-0.000817107
-8.82094
-7.58886
-6.23325
-4.87782
-3.63846
-2.59246
-1.77039
-1.16318
-0.739149
-0.456573
-0.276005
-0.164578
-0.0973738
-0.0574785
-0.0339549
-0.019867
-0.0110882
-0.00521877
-0.000860769
-10.4126
-8.98852
-7.38602
-5.76286
-4.2709
-3.01301
-2.03059
-1.31264
-0.818383
-0.49472
-0.292002
-0.169658
-0.0976417
-0.0560002
-0.0321353
-0.0182844
-0.00995007
-0.00457978
-0.000726886
-11.5019
-10.1703
-8.50789
-6.72457
-5.02588
-3.56022
-2.39927
-1.54466
-0.955314
-0.570666
-0.331602
-0.188968
-0.106317
-0.0594704
-0.0332862
-0.0185602
-0.0100528
-0.00478061
-0.00104131
-11.7836
-10.4538
-8.68353
-6.75362
-4.92591
-3.37839
-2.18776
-1.34359
-0.787139
-0.442385
-0.240389
-0.12734
-0.0662524
-0.034073
-0.0173884
-0.00855389
-0.00361596
-0.00044376
0.00193773
-11.9621
-10.6441
-8.74187
-6.62651
-4.64794
-3.02782
-1.84138
-1.05089
-0.566563
-0.29027
-0.142645
-0.0678013
-0.0314483
-0.014275
-0.00628281
-0.00236549
-0.000344924
0.000771007
0.00119856
-11.8272
-10.6738
-8.77508
-6.57957
-4.52019
-2.86256
-1.68393
-0.927444
-0.482846
-0.23985
-0.115276
-0.0543129
-0.0254584
-0.0119949
-0.00571376
-0.00264132
-0.0011396
-0.000455411
-0.000303665
-11.1577
-10.1502
-8.28254
-6.07459
-4.02971
-2.43648
-1.3546
-0.69835
-0.336994
-0.153488
-0.066801
-0.0280528
-0.0114816
-0.00458263
-0.00175476
-0.000575783
-0.000127794
-1.37491e-05
-3.63952e-05
-10.2136
-9.34254
-7.54953
-5.40033
-3.44819
-1.98438
-1.03965
-0.500294
-0.223086
-0.0927895
-0.0363383
-0.0134457
-0.00469507
-0.00150618
-0.000400227
-3.81386e-05
4.18386e-05
2.27558e-05
-7.98039e-06
-8.94492
-8.26489
-6.60519
-4.59013
-2.80694
-1.52921
-0.750735
-0.335128
-0.137051
-0.0515134
-0.0178512
-0.00564039
-0.0015676
-0.000326626
9.26823e-07
5.96399e-05
4.29509e-05
1.58657e-05
3.41116e-06
-6.80566
-6.38135
-5.04637
-3.39886
-1.98228
-1.01639
-0.463789
-0.189782
-0.0698342
-0.0229323
-0.00657839
-0.00150538
-0.000165332
9.61048e-05
9.77835e-05
5.98929e-05
2.8321e-05
1.06668e-05
5.68279e-06
-4.43939
-4.19458
-3.24117
-2.07996
-1.13178
-0.530186
-0.215254
-0.0751829
-0.0217435
-0.00446505
-5.29685e-05
0.000606487
0.000446979
0.000241316
0.000114548
5.01289e-05
2.02299e-05
8.24793e-06
5.17658e-06
-1.57047
-1.47145
-1.04612
-0.569794
-0.232398
-0.0593352
0.00453512
0.0173159
0.0136762
0.00792751
0.00391888
0.00175963
0.000738712
0.000296359
0.000115241
4.3712e-05
1.63721e-05
6.74694e-06
4.07586e-06
1.41347
1.38788
1.20291
0.905338
0.594641
0.345934
0.181233
0.0867489
0.0384949
0.0160189
0.00632127
0.00239565
0.000878816
0.000314827
0.000111039
3.88555e-05
1.37429e-05
5.41261e-06
2.99771e-06
4.31744
4.30297
3.52464
2.41869
1.43047
0.748507
0.354125
0.154062
0.0625546
0.0239704
0.00876486
0.00309226
0.00106041
0.000356342
0.00011839
3.92758e-05
1.32505e-05
4.88715e-06
2.33394e-06
6.40086
5.89928
4.4937
2.89763
1.62589
0.813172
0.36916
0.154252
0.0600238
0.0219308
0.00760435
0.00252416
0.000808179
0.000251582
7.70161e-05
2.33592e-05
7.16212e-06
2.30504e-06
6.93824e-07
8.46444
8.00796
6.28905
4.19347
2.4356
1.26082
0.592124
0.255891
0.103012
0.0389735
0.0140152
0.00483566
0.00161396
0.000525498
0.00016888
5.39278e-05
1.73112e-05
5.5858e-06
1.44861e-06
10.0258
9.38071
7.37895
4.98211
2.95246
1.56689
0.756301
0.336228
0.139206
0.0541159
0.0199669
0.00705682
0.00240847
0.000800514
0.000262186
8.5203e-05
2.77851e-05
9.06423e-06
2.33069e-06
11.2051
10.3688
8.18318
5.60742
3.39807
1.85206
0.919825
0.42089
0.179227
0.0715706
0.027082
0.00980029
0.00341941
0.00116029
0.000387564
0.000128441
4.27879e-05
1.43423e-05
3.84436e-06
12.1614
11.1191
8.80039
6.11397
3.7819
2.11152
1.07574
0.50492
0.220366
0.0900831
0.0348436
0.0128713
0.00457876
0.00158278
0.000538586
0.000182282
6.25114e-05
2.20441e-05
6.54079e-06
12.8596
11.622
9.22092
6.48159
4.07902
2.32351
1.20891
0.579426
0.258042
0.107536
0.0423536
0.0159159
0.00575609
0.00202355
0.000702159
0.000244594
8.85098e-05
3.4916e-05
1.28377e-05
12.9991
11.6989
9.3243
6.62534
4.23061
2.44959
1.2962
0.631675
0.285836
0.120947
0.0483279
0.0184183
0.00675975
0.00241975
0.000863973
0.000318517
0.000130042
6.43391e-05
3.20092e-05
13.2734
11.8813
9.47384
6.76771
4.35795
2.5482
1.36231
0.67062
0.306393
0.13085
0.052755
0.0203054
0.00755578
0.00277509
0.00104908
0.00043902
0.000226937
0.000152556
9.66083e-05
13.4331
11.8902
9.43878
6.74198
4.35216
2.55424
1.37135
0.677996
0.311095
0.133485
0.0541405
0.021066
0.00803454
0.00313446
0.00135922
0.000728721
0.000513248
0.000439678
0.000311029
13.3072
11.6245
9.15234
6.50323
4.18411
2.44985
1.31312
0.648415
0.297405
0.127863
0.0522692
0.0208407
0.00848676
0.00384669
0.00216811
0.00157881
0.0014053
0.00135541
0.000982373
12.9482
11.1449
8.66491
6.09065
3.88203
2.25361
1.19884
0.588305
0.268984
0.116205
0.0486845
0.0208688
0.0100232
0.00597479
0.00454347
0.00410104
0.00409459
0.00411328
0.0029336
12.5513
10.5769
8.06665
5.57106
3.49373
1.99787
1.04917
0.510393
0.233689
0.103625
0.047095
0.0241928
0.0154063
0.0122046
0.0112394
0.0112225
0.0117358
0.0118476
0.00815758
11.9739
9.79723
7.27646
4.90062
3.00239
1.68182
0.870513
0.423091
0.199705
0.0974942
0.0542028
0.037136
0.0308493
0.0288599
0.0289312
0.0301455
0.0320297
0.0319165
0.0209929
10.6378
8.42022
6.04818
3.944
2.34892
1.29011
0.667963
0.339025
0.181442
0.112069
0.0838725
0.0734073
0.0702503
0.0703873
0.073037
0.0774393
0.0821939
0.0798488
0.0498039
9.40206
7.14122
4.92793
3.10519
1.81036
1.00037
0.551148
0.326722
0.225244
0.18286
0.167004
0.162457
0.163258
0.167619
0.176277
0.187546
0.196478
0.184486
0.108654
7.93716
5.67769
3.74088
2.29849
1.36194
0.825381
0.553915
0.430882
0.381058
0.362329
0.357651
0.359946
0.367579
0.380848
0.401716
0.424642
0.435163
0.392697
0.218182
5.47685
3.6426
2.32507
1.49464
1.04689
0.843931
0.770456
0.751547
0.751009
0.75354
0.759879
0.771603
0.791238
0.820538
0.860774
0.895999
0.891225
0.76953
0.40404
2.95409
1.93528
1.42686
1.26026
1.27903
1.36232
1.44236
1.49553
1.52502
1.53891
1.55286
1.5756
1.61176
1.6619
1.72105
1.75158
1.68265
1.38884
0.694183
0.315058
0.596688
1.14958
1.74727
2.25141
2.6045
2.8147
2.91947
2.96438
2.98023
2.99539
3.02576
3.07441
3.13554
3.18747
3.1571
2.92381
2.31451
1.12139
-1.89528
0.135157
1.93101
3.33854
4.31461
4.90287
5.21082
5.34002
5.37876
5.37916
5.37672
5.39464
5.42761
5.45552
5.42689
5.22549
4.68061
3.59464
1.75614
-3.01834
0.923226
4.01575
6.22659
7.64524
8.43097
8.80567
8.93174
8.93825
8.89724
8.84158
8.80197
8.75634
8.66467
8.43979
7.93658
6.96033
5.32754
2.82655
-2.56395
2.95202
7.20508
10.1434
11.9552
12.9005
13.3177
13.4209
13.3738
13.2668
13.1164
12.9613
12.7608
12.4641
11.9679
11.1514
9.84978
7.91438
5.05586
-0.678733
5.62262
10.6934
14.1882
16.3006
17.3562
17.7949
17.8709
17.7682
17.5943
17.336
17.0411
16.6733
16.2147
15.6132
14.8806
13.9551
12.6952
10.5471
1.59443
7.89147
13.3362
17.1201
19.3658
20.4435
20.8646
20.9193
20.7805
20.5841
20.2705
19.9057
19.547
19.339
19.5161
20.7021
23.7635
30.2658
43.0614
)
;

boundaryField
{
    up
    {
        type            calculated;
        value           nonuniform List<scalar> 
84
(
-43.0614
-10.5472
-5.0559
-2.82649
-1.75606
-1.12135
-0.694199
-0.40408
-0.218214
-0.108666
-0.0498021
-0.0209865
-0.00815212
-0.0029305
-0.000981026
-0.00031056
-9.64748e-05
-3.19772e-05
-1.28304e-05
-6.53858e-06
-3.84351e-06
-2.33055e-06
-1.44891e-06
-6.96884e-07
-1.55014e-06
-2.19893e-06
-3.26708e-06
-4.83724e-06
-7.2238e-06
-9.7433e-06
-2.86699e-06
6.74626e-05
0.000525784
-0.000651854
-0.00168292
0.00108317
0.000775941
0.000903782
0.000853087
0.000812488
0.000474649
4.89229e-05
-4.58579e-05
-0.000474696
-0.00080899
-0.000853882
-0.000904702
-0.000777083
-0.0010788
0.00165825
0.000679867
-0.000544669
-7.2926e-05
2.86425e-06
1.06303e-05
7.83419e-06
5.12979e-06
3.38451e-06
2.23165e-06
1.55792e-06
6.93824e-07
1.44861e-06
2.33069e-06
3.84436e-06
6.54079e-06
1.28377e-05
3.20092e-05
9.66083e-05
0.000311029
0.000982373
0.0029336
0.00815758
0.0209929
0.0498039
0.108654
0.218182
0.40404
0.694183
1.12139
1.75614
2.82655
5.05586
10.5471
43.0614
)
;
    }
    low
    {
        type            calculated;
        value           nonuniform List<scalar> 
84
(
-1.39893
1.00783
3.02755
3.45353
2.13314
-0.353789
-3.24332
-5.93541
-8.47232
-9.88859
-11.1268
-12.4637
-12.9536
-13.3139
-13.6682
-13.7555
-13.5586
-13.3
-13.1513
-12.3678
-11.3505
-10.1245
-8.50066
-6.38868
-4.24393
-1.37424
1.51788
4.32511
6.7055
8.93076
10.3039
11.3049
12.0335
12.2282
12.0775
11.8439
10.7948
9.16671
7.40748
5.46583
3.39809
1.29481
-1.2942
-3.3975
-5.46518
-7.40689
-9.16618
-10.7944
-11.8434
-12.0787
-12.227
-12.0337
-11.3049
-10.304
-8.93093
-6.70575
-4.32555
-1.51837
1.37298
4.24437
6.38772
8.50093
10.1244
11.3504
12.3677
13.1513
13.3
13.5586
13.7555
13.6681
13.3139
12.9536
12.4636
11.1268
9.8887
8.47241
5.93549
3.24339
0.353847
-2.1331
-3.45352
-3.02756
-1.00784
1.39893
)
;
    }
    left
    {
        type            calculated;
        value           nonuniform List<scalar> 
19
(
-1.53051
-7.9184
-13.6658
-17.7174
-20.1457
-21.3228
-21.7956
-21.8843
-21.7588
-21.5862
-21.2881
-20.9257
-20.5956
-20.5005
-20.9352
-22.7326
-27.0499
-35.9996
-37.2559
)
;
    }
    right
    {
        type            calculated;
        value           nonuniform List<scalar> 
19
(
1.53051
7.91841
13.6658
17.7173
20.1457
21.3228
21.7956
21.8843
21.7588
21.5862
21.2881
20.9257
20.5957
20.5006
20.9353
22.7325
27.0496
35.9995
37.256
)
;
    }
    frontAndBackPlanes
    {
        type            empty;
    }
}


// ************************************************************************* //
