/*--------------------------------*- C++ -*----------------------------------*\
  =========                 |
  \\      /  F ield         | OpenFOAM: The Open Source CFD Toolbox
   \\    /   O peration     | Website:  https://openfoam.org
    \\  /    A nd           | Version:  7
     \\/     M anipulation  |
\*---------------------------------------------------------------------------*/
FoamFile
{
    version     2.0;
    format      ascii;
    class       volScalarField;
    location    "0.099";
    object      gradTy;
}
// * * * * * * * * * * * * * * * * * * * * * * * * * * * * * * * * * * * * * //

dimensions      [0 -1 0 1 0 0 0];

internalField   nonuniform List<scalar> 
1596
(
-1.01608
-1.86566
-2.52088
-3.09568
-3.58128
-4.05153
-4.46578
-4.90143
-5.3759
-5.89681
-6.63971
-7.58165
-8.94666
-10.9816
-14.2927
-19.6
-29.2622
-47.2202
-111.528
-3.06189
-3.71003
-4.06376
-4.3086
-4.47219
-4.64951
-4.8158
-5.04669
-5.36219
-5.75591
-6.37972
-7.19903
-8.36858
-10.0015
-12.4176
-15.7608
-20.8286
-28.3322
-49.6426
-5.38494
-5.50836
-5.44726
-5.33028
-5.17309
-5.06604
-4.98915
-5.01122
-5.14792
-5.3837
-5.8449
-6.48471
-7.41323
-8.68302
-10.4957
-12.8609
-16.2197
-20.856
-30.7511
-7.69441
-7.16563
-6.6537
-6.17576
-5.71459
-5.34061
-5.03437
-4.8536
-4.80865
-4.87807
-5.16353
-5.61227
-6.30275
-7.25638
-8.60833
-10.3175
-12.6525
-15.7161
-20.9151
-9.67245
-8.58649
-7.67529
-6.87491
-6.14373
-5.52985
-5.01539
-4.64586
-4.42753
-4.33625
-4.45073
-4.71823
-5.19364
-5.88244
-6.88019
-8.13182
-9.81579
-11.9572
-15.0653
-11.0875
-9.69812
-8.5098
-7.45824
-6.50608
-5.68759
-4.99127
-4.45238
-4.07545
-3.83653
-3.79374
-3.89823
-4.18631
-4.65497
-5.37352
-6.28843
-7.52612
-9.08134
-11.1451
-11.8719
-10.4615
-9.15172
-7.94184
-6.8289
-5.84764
-4.99956
-4.31407
-3.79687
-3.42684
-3.2445
-3.20686
-3.33515
-3.62124
-4.11482
-4.76951
-5.67798
-6.82615
-8.28947
-12.1031
-10.8716
-9.58602
-8.31701
-7.11012
-6.01338
-5.04732
-4.24119
-3.60485
-3.12232
-2.8202
-2.66204
-2.65691
-2.7931
-3.10432
-3.55227
-4.20502
-5.04882
-6.11598
-11.9423
-11.0123
-9.85718
-8.61135
-7.36872
-6.19868
-5.14418
-4.24005
-3.50303
-2.92413
-2.52007
-2.26081
-2.1459
-2.1608
-2.32562
-2.60892
-3.05902
-3.66505
-4.44241
-11.5047
-10.8637
-9.89524
-8.74174
-7.52405
-6.33156
-5.22824
-4.25842
-3.44749
-2.79464
-2.31091
-1.97224
-1.77146
-1.69188
-1.74241
-1.89677
-2.18732
-2.60618
-3.16204
-11.0646
-10.6026
-9.80013
-8.75894
-7.59802
-6.4165
-5.29361
-4.28377
-3.42132
-2.71385
-2.1701
-1.7713
-1.50595
-1.35581
-1.32083
-1.37806
-1.54671
-1.82047
-2.20455
-10.6001
-10.3099
-9.65089
-8.71811
-7.62385
-6.4701
-5.34533
-4.31282
-3.41513
-2.66766
-2.07929
-1.63569
-1.32287
-1.1215
-1.02467
-1.01126
-1.09002
-1.25483
-1.50831
-10.0786
-9.93388
-9.40364
-8.57576
-7.55568
-6.44582
-5.33861
-4.30408
-3.39119
-2.62189
-2.00666
-1.53479
-1.1913
-0.956291
-0.818024
-0.756362
-0.77221
-0.858958
-1.01702
-9.65677
-9.57631
-9.13266
-8.38669
-7.43092
-6.36545
-5.28298
-4.25788
-3.34332
-2.56588
-1.93803
-1.45153
-1.0912
-0.836884
-0.673588
-0.581613
-0.556271
-0.590039
-0.681392
-9.29797
-9.2633
-8.87295
-8.18212
-7.27378
-6.24503
-5.1871
-4.17664
-3.26903
-2.49357
-1.8642
-1.37407
-1.00798
-0.745613
-0.569845
-0.461142
-0.411055
-0.411137
-0.458293
-8.96489
-8.97985
-8.62717
-7.9708
-7.09289
-6.09043
-5.05342
-4.0596
-3.1649
-2.39955
-1.77795
-1.29353
-0.930904
-0.669499
-0.490853
-0.375495
-0.312626
-0.293106
-0.312715
-8.68399
-8.73023
-8.40068
-7.76117
-6.89702
-5.9086
-4.88629
-3.90849
-3.03046
-2.28162
-1.67555
-1.20478
-0.853315
-0.600124
-0.425866
-0.311164
-0.243897
-0.214537
-0.218193
-8.45787
-8.52568
-8.2069
-7.5687
-6.70235
-5.71438
-4.69811
-3.73278
-2.87227
-2.14384
-1.55877
-1.10763
-0.773123
-0.533509
-0.368788
-0.259736
-0.193601
-0.160769
-0.156044
-8.22548
-8.35998
-8.05949
-7.41543
-6.53396
-5.53255
-4.5111
-3.55101
-2.70487
-1.99693
-1.4349
-1.0064
-0.692121
-0.46923
-0.317093
-0.216646
-0.154926
-0.122438
-0.113939
-7.96997
-8.19643
-7.92999
-7.28231
-6.37987
-5.35628
-4.32181
-3.36191
-2.52825
-1.84144
-1.3046
-0.901494
-0.61017
-0.406417
-0.268974
-0.179011
-0.123658
-0.093738
-0.084158
-7.75633
-8.05758
-7.82783
-7.17678
-6.24818
-5.19426
-4.13893
-3.17354
-2.34944
-1.68322
-1.1724
-0.796169
-0.529325
-0.346012
-0.224327
-0.14574
-0.0976805
-0.0714377
-0.0622137
-7.56109
-7.94348
-7.75402
-7.1013
-6.14427
-5.05448
-3.97192
-2.99556
-2.17734
-1.52977
-1.04421
-0.694745
-0.452465
-0.289668
-0.183786
-0.116614
-0.0759895
-0.0537494
-0.0455064
-7.36387
-7.84288
-7.70277
-7.0537
-6.06974
-4.94207
-3.8283
-2.8365
-2.02019
-1.38823
-0.925676
-0.601309
-0.382295
-0.238972
-0.148079
-0.0917215
-0.058147
-0.0396715
-0.0323765
-7.16875
-7.74802
-7.66164
-7.01911
-6.00975
-4.8435
-3.69695
-2.6874
-1.87079
-1.25286
-0.811818
-0.511638
-0.315216
-0.190886
-0.114639
-0.0689854
-0.0424585
-0.0276556
-0.0201468
-6.9949
-7.67481
-7.67291
-7.08471
-6.10054
-4.93454
-3.77443
-2.74521
-1.90975
-1.27755
-0.826306
-0.520239
-0.320418
-0.194362
-0.117227
-0.071311
-0.044592
-0.0293643
-0.02034
-6.85865
-7.61252
-7.68825
-7.17134
-6.23998
-5.10071
-3.94276
-2.89689
-2.0346
-1.37345
-0.895446
-0.567911
-0.352041
-0.214709
-0.129981
-0.0793426
-0.0498464
-0.0332949
-0.0241559
-6.8374
-7.60913
-7.72698
-7.26554
-6.38642
-5.28295
-4.13797
-3.08368
-2.19782
-1.506
-0.996609
-0.641387
-0.403154
-0.248946
-0.152149
-0.0934471
-0.0589186
-0.0395499
-0.0290497
-6.94825
-7.67974
-7.79518
-7.36237
-6.52601
-5.46172
-4.33974
-3.28785
-2.38633
-1.66744
-1.12623
-0.740256
-0.475193
-0.299252
-0.185765
-0.115109
-0.0725868
-0.0484184
-0.0352787
-7.1707
-7.82734
-7.90594
-7.47826
-6.674
-5.64888
-4.55662
-3.51601
-2.60634
-1.86464
-1.29218
-0.873127
-0.576994
-0.374057
-0.238182
-0.150123
-0.0949162
-0.0625044
-0.044454
-7.49168
-8.03521
-8.05172
-7.61312
-6.83321
-5.84688
-4.78956
-3.76825
-2.85837
-2.09969
-1.4987
-1.04645
-0.716825
-0.482795
-0.319025
-0.207166
-0.132682
-0.0864725
-0.0595676
-7.90012
-8.30438
-8.2481
-7.78996
-7.02794
-6.07733
-5.0558
-4.05751
-3.15237
-2.38113
-1.75429
-1.26958
-0.905506
-0.638006
-0.442192
-0.300305
-0.198116
-0.129302
-0.0864349
-8.31102
-8.60451
-8.4833
-8.00582
-7.25964
-6.34335
-5.35847
-4.3865
-3.49093
-2.71217
-2.06347
-1.54898
-1.15205
-0.852131
-0.624325
-0.450162
-0.31299
-0.209145
-0.137063
-8.76452
-8.94982
-8.76304
-8.26311
-7.52878
-6.64408
-5.69574
-4.75299
-3.87213
-3.09195
-2.42703
-1.88732
-1.46138
-1.13359
-0.879902
-0.681002
-0.512603
-0.36666
-0.237239
-9.29049
-9.36216
-9.10807
-8.584
-7.85997
-7.00693
-6.09741
-5.18895
-4.33006
-3.55645
-2.88343
-2.32497
-1.87533
-1.52582
-1.25729
-1.05394
-0.886568
-0.739289
-0.594368
-9.8604
-9.81231
-9.47096
-8.89888
-8.16077
-7.31809
-6.43066
-5.54644
-4.70625
-3.94071
-3.26531
-2.69393
-2.22497
-1.85473
-1.5718
-1.36797
-1.22255
-1.12064
-1.04106
-10.5007
-10.2934
-9.83566
-9.18924
-8.41093
-7.55391
-6.66743
-5.79249
-4.96373
-4.20669
-3.53702
-2.96623
-2.49432
-2.11836
-1.83046
-1.62328
-1.48402
-1.4043
-1.37351
-11.2119
-10.8178
-10.2354
-9.50825
-8.68097
-7.7978
-6.90008
-6.02333
-5.19788
-4.44586
-3.78234
-3.2172
-2.75063
-2.37945
-2.0961
-1.89086
-1.74983
-1.66061
-1.60882
-11.8396
-11.2835
-10.5916
-9.79157
-8.91823
-8.00852
-7.09792
-6.21726
-5.39336
-4.64561
-3.98776
-3.42859
-2.96792
-2.60231
-2.3244
-2.12423
-1.98819
-1.90392
-1.85723
-12.3222
-11.6629
-10.8933
-10.0382
-9.12888
-8.19779
-7.27649
-6.39241
-5.56971
-4.82568
-4.17307
-3.61972
-3.16518
-2.80584
-2.53455
-2.34108
-2.21214
-2.1351
-2.09566
-12.6987
-11.9629
-11.1345
-10.2373
-9.2999
-8.35195
-7.42202
-6.53509
-5.71334
-4.97243
-4.3244
-3.77632
-3.3275
-2.97412
-2.70921
-2.52221
-2.40007
-2.32994
-2.29742
-12.9723
-12.1793
-11.3062
-10.3776
-9.41971
-8.45963
-7.52362
-6.63481
-5.81397
-5.07562
-4.43129
-3.88749
-3.44334
-3.09486
-2.83513
-2.65332
-2.53647
-2.47146
-2.44379
-13.1622
-12.3057
-11.3974
-10.4484
-9.4785
-8.51195
-7.57307
-6.68375
-5.86395
-5.1275
-4.48568
-3.94466
-3.50348
-3.15809
-2.90162
-2.72316
-2.60988
-2.54857
-2.5247
-13.1622
-12.3058
-11.3976
-10.4485
-9.47869
-8.51215
-7.57328
-6.68397
-5.86416
-5.12772
-4.48589
-3.94487
-3.5037
-3.1583
-2.90183
-2.72338
-2.6101
-2.54881
-2.52496
-12.9724
-12.1795
-11.3065
-10.378
-9.42019
-8.46017
-7.5242
-6.63541
-5.81459
-5.07624
-4.43192
-3.88811
-3.44396
-3.09549
-2.83576
-2.65397
-2.53715
-2.47219
-2.44458
-12.6988
-11.9632
-11.135
-10.238
-9.30067
-8.35281
-7.42295
-6.53606
-5.71434
-4.97344
-4.32541
-3.77732
-3.32849
-2.97511
-2.71021
-2.52324
-2.40114
-2.33107
-2.29863
-12.3224
-11.6634
-10.8939
-10.0391
-9.12988
-8.19892
-7.27771
-6.39369
-5.57103
-4.827
-4.17438
-3.62102
-3.16646
-2.8071
-2.53581
-2.34236
-2.21346
-2.13648
-2.09713
-11.8398
-11.284
-10.5924
-9.79256
-8.91943
-8.00987
-7.09939
-6.21882
-5.39496
-4.64722
-3.98935
-3.43015
-2.96944
-2.6038
-2.32587
-2.1257
-1.98969
-1.90548
-1.85888
-11.2121
-10.8184
-10.2362
-9.50936
-8.68231
-7.79934
-6.90176
-6.02512
-5.19971
-4.44769
-3.78414
-3.21894
-2.75231
-2.38107
-2.09767
-1.89241
-1.75137
-1.66217
-1.61043
-10.5009
-10.2941
-9.83673
-9.1907
-8.41273
-7.55601
-6.66976
-5.79497
-4.96629
-4.20924
-3.53953
-2.96866
-2.49666
-2.1206
-1.83265
-1.62539
-1.48606
-1.40621
-1.3752
-9.86055
-9.81246
-9.47132
-8.89956
-8.16181
-7.31951
-6.4324
-5.54842
-4.70836
-3.94284
-3.26736
-2.69582
-2.22664
-1.85613
-1.57295
-1.36893
-1.22353
-1.12202
-1.04338
-9.29057
-9.36272
-9.10919
-8.58578
-7.86244
-7.01004
-6.10103
-5.1929
-4.33417
-3.56055
-2.88736
-2.32865
-1.87872
-1.52893
-1.26022
-1.05684
-0.88966
-0.742817
-0.598517
-8.76452
-8.95
-8.76364
-8.26426
-7.53052
-6.64635
-5.69842
-4.75591
-3.87512
-3.09484
-2.42972
-1.88973
-1.4635
-1.13546
-0.881605
-0.682631
-0.514183
-0.368106
-0.238323
-8.31098
-8.60461
-8.4838
-8.00689
-7.26131
-6.34554
-5.36105
-4.38927
-3.49371
-2.71479
-2.06584
-1.55104
-1.1538
-0.853628
-0.625633
-0.451336
-0.314026
-0.209969
-0.137603
-7.90005
-8.3044
-8.2485
-7.79091
-7.02948
-6.07938
-5.05819
-4.06005
-3.15486
-2.38342
-1.75629
-1.27126
-0.90689
-0.639143
-0.443137
-0.301095
-0.198758
-0.129777
-0.0867179
-7.4916
-8.03518
-8.05204
-7.61397
-6.83463
-5.84878
-4.79177
-3.77055
-2.86057
-2.10166
-1.50037
-1.0478
-0.717901
-0.483645
-0.319695
-0.207691
-0.133079
-0.0867482
-0.059723
-7.17058
-7.82724
-7.90617
-7.479
-6.67529
-5.65061
-4.5586
-3.51804
-2.60825
-1.8663
-1.29354
-0.874203
-0.57782
-0.374684
-0.238654
-0.150471
-0.0951634
-0.0626681
-0.0445443
-6.94814
-7.67963
-7.79536
-7.36302
-6.52716
-5.46326
-4.34149
-3.28961
-2.38794
-1.66881
-1.12733
-0.741096
-0.47582
-0.299712
-0.186097
-0.115343
-0.0727449
-0.0485206
-0.0353377
-6.83729
-7.60902
-7.72714
-7.26612
-6.38744
-5.28429
-4.13946
-3.08515
-2.19914
-1.5071
-0.997474
-0.642038
-0.403629
-0.249286
-0.152387
-0.0936089
-0.0590254
-0.0396202
-0.029096
-6.85854
-7.61241
-7.68835
-7.17177
-6.24076
-5.10173
-3.94388
-2.89798
-2.03558
-1.37425
-0.89607
-0.568375
-0.352376
-0.214944
-0.130141
-0.0794488
-0.0499154
-0.0333421
-0.0241947
-6.99499
-7.67487
-7.67304
-7.08494
-6.10087
-4.93494
-3.77487
-2.74564
-1.91014
-1.27788
-0.826578
-0.520454
-0.320583
-0.194486
-0.117316
-0.0713755
-0.0446387
-0.0293979
-0.0203576
-7.16884
-7.74808
-7.66161
-7.01896
-6.00949
-4.84316
-3.69659
-2.68705
-1.87048
-1.25261
-0.811617
-0.511489
-0.315109
-0.190811
-0.114586
-0.0689488
-0.0424328
-0.0276362
-0.0201236
-7.36393
-7.84292
-7.70279
-7.05369
-6.06972
-4.94205
-3.82829
-2.83651
-2.02021
-1.38826
-0.925702
-0.60133
-0.382311
-0.238982
-0.148084
-0.0917241
-0.0581481
-0.0396719
-0.032374
-7.56114
-7.94351
-7.75401
-7.10127
-6.14423
-5.05444
-3.97189
-2.99556
-2.17734
-1.52978
-1.04422
-0.694755
-0.452472
-0.289673
-0.183789
-0.116615
-0.0759909
-0.053751
-0.0455068
-7.75636
-8.0576
-7.82783
-7.17675
-6.24815
-5.19423
-4.13892
-3.17354
-2.34944
-1.68322
-1.1724
-0.796175
-0.529329
-0.346015
-0.224329
-0.145742
-0.0976834
-0.0714418
-0.0622173
-7.96999
-8.19645
-7.92998
-7.28228
-6.37985
-5.35626
-4.32181
-3.36191
-2.52825
-1.84145
-1.3046
-0.901495
-0.610171
-0.406418
-0.268975
-0.179013
-0.123664
-0.0937461
-0.0841659
-8.2255
-8.35999
-8.05949
-7.41542
-6.53395
-5.53255
-4.5111
-3.55101
-2.70487
-1.99692
-1.4349
-1.0064
-0.692119
-0.469229
-0.317094
-0.21665
-0.154935
-0.122451
-0.113953
-8.45789
-8.52568
-8.20689
-7.56869
-6.70235
-5.71438
-4.69811
-3.73278
-2.87227
-2.14383
-1.55876
-1.10762
-0.773117
-0.533505
-0.368789
-0.259742
-0.193615
-0.16079
-0.156065
-8.684
-8.73022
-8.40068
-7.76116
-6.89703
-5.9086
-4.8863
-3.90849
-3.03045
-2.2816
-1.67553
-1.20477
-0.853306
-0.600118
-0.425867
-0.311174
-0.243918
-0.214568
-0.218223
-8.96488
-8.97984
-8.62717
-7.97081
-7.0929
-6.09044
-5.05343
-4.05959
-3.16489
-2.39953
-1.77793
-1.29351
-0.930891
-0.669492
-0.490854
-0.375509
-0.312656
-0.293148
-0.312752
-9.29795
-9.26328
-8.87295
-8.18213
-7.2738
-6.24505
-5.18711
-4.17664
-3.26901
-2.49355
-1.86418
-1.37405
-1.00797
-0.745604
-0.569849
-0.461163
-0.411094
-0.411188
-0.458332
-9.65675
-9.57629
-9.13266
-8.38671
-7.43094
-6.36547
-5.28298
-4.25788
-3.3433
-2.56586
-1.938
-1.45151
-1.09118
-0.836875
-0.673596
-0.58164
-0.556317
-0.59009
-0.681424
-10.0786
-9.93386
-9.40364
-8.57579
-7.55571
-6.44584
-5.33861
-4.30407
-3.39117
-2.62186
-2.00663
-1.53477
-1.19128
-0.956285
-0.818037
-0.756394
-0.772254
-0.858997
-1.01703
-10.6001
-10.3098
-9.6509
-8.71814
-7.62387
-6.47011
-5.34533
-4.3128
-3.4151
-2.66763
-2.07925
-1.63566
-1.32285
-1.12149
-1.02469
-1.01129
-1.09005
-1.25484
-1.50828
-11.0645
-10.6026
-9.80015
-8.75897
-7.59805
-6.41651
-5.2936
-4.28375
-3.42129
-2.71382
-2.17007
-1.77127
-1.50594
-1.35581
-1.32085
-1.37808
-1.54671
-1.82043
-2.20448
-11.5046
-10.8637
-9.89527
-8.74177
-7.52407
-6.33156
-5.22823
-4.2584
-3.44746
-2.79461
-2.31088
-1.97222
-1.77146
-1.69189
-1.74243
-1.89678
-2.18729
-2.60609
-3.16195
-11.9423
-11.0123
-9.85722
-8.61137
-7.36872
-6.19867
-5.14416
-4.24002
-3.503
-2.92411
-2.52006
-2.26081
-2.14591
-2.16082
-2.32563
-2.6089
-3.05894
-3.66491
-4.44231
-12.1031
-10.8716
-9.58605
-8.31702
-7.11011
-6.01337
-5.0473
-4.24117
-3.60483
-3.12231
-2.8202
-2.66205
-2.65693
-2.79312
-3.10431
-3.55222
-4.20491
-5.04867
-6.11591
-11.8719
-10.4616
-9.15175
-7.94185
-6.82889
-5.84763
-4.99955
-4.31406
-3.79687
-3.42685
-3.24452
-3.20689
-3.33518
-3.62125
-4.1148
-4.76944
-5.67786
-6.82602
-8.28945
-11.0876
-9.69816
-8.50982
-7.45824
-6.50608
-5.68759
-4.99128
-4.45239
-4.07547
-3.83656
-3.79378
-3.89827
-4.18634
-4.65498
-5.37349
-6.28835
-7.52602
-9.08127
-11.1452
-9.67249
-8.58651
-7.6753
-6.87492
-6.14374
-5.52987
-5.01541
-4.64589
-4.42757
-4.3363
-4.45078
-4.71828
-5.19366
-5.88243
-6.88014
-8.13175
-9.81573
-11.9572
-15.0654
-7.69443
-7.16563
-6.6537
-6.17578
-5.71462
-5.34064
-5.0344
-4.85364
-4.80869
-4.87813
-5.16358
-5.61231
-6.30276
-7.25636
-8.60828
-10.3174
-12.6525
-15.7161
-20.9152
-5.38495
-5.50834
-5.44725
-5.33029
-5.17311
-5.06607
-4.98918
-5.01126
-5.14797
-5.38376
-5.84496
-6.48475
-7.41324
-8.68299
-10.4957
-12.8608
-16.2197
-20.8561
-30.7512
-3.0619
-3.71
-4.06373
-4.30859
-4.47219
-4.64952
-4.81583
-5.04673
-5.36223
-5.75595
-6.37976
-7.19906
-8.36858
-10.0014
-12.4176
-15.7608
-20.8286
-28.3323
-49.6426
-1.01608
-1.86566
-2.52086
-3.09566
-3.58127
-4.05152
-4.46578
-4.90144
-5.37592
-5.89684
-6.63974
-7.58167
-8.94665
-10.9816
-14.2927
-19.6
-29.2622
-47.2202
-111.528
)
;

boundaryField
{
    up
    {
        type            calculated;
        value           nonuniform List<scalar> 
84
(
-101.079
-54.7425
-33.49
-22.5744
-16.1817
-11.9504
-8.89029
-6.56691
-4.77554
-3.40227
-2.37141
-1.61935
-1.08773
-0.724078
-0.482512
-0.325413
-0.224083
-0.158135
-0.114046
-0.0833426
-0.061056
-0.0442812
-0.0309291
-0.0174637
-0.0167453
-0.0218202
-0.026353
-0.0318047
-0.0395254
-0.0519959
-0.0737729
-0.112609
-0.19222
-0.562969
-1.04384
-1.37418
-1.59143
-1.84245
-2.08416
-2.28907
-2.43766
-2.52045
-2.52071
-2.43848
-2.29032
-2.08567
-1.84415
-1.59306
-1.37567
-1.04633
-0.567717
-0.193257
-0.113027
-0.0739726
-0.0520986
-0.0395836
-0.0318444
-0.0263884
-0.0218635
-0.0167634
-0.0174355
-0.0309238
-0.0442803
-0.0610586
-0.0833492
-0.114058
-0.158153
-0.224108
-0.325442
-0.482539
-0.724093
-1.08772
-1.61931
-2.37134
-3.40219
-4.77548
-6.56691
-8.89036
-11.9506
-16.1818
-22.5745
-33.49
-54.7424
-101.079
)
;
    }
    low
    {
        type            calculated;
        value           nonuniform List<scalar> 
84
(
-1.09272
-3.20828
-5.6943
-8.19969
-10.3493
-11.8634
-12.6497
-12.8084
-12.499
-11.8871
-11.3658
-10.8278
-10.2019
-9.72861
-9.34377
-8.96668
-8.6453
-8.40923
-8.14663
-7.8177
-7.54276
-7.29458
-7.03215
-6.77453
-6.4985
-6.31166
-6.29442
-6.47277
-6.78558
-7.21755
-7.72365
-8.19739
-8.7176
-9.31608
-9.94261
-10.6561
-11.4667
-12.1516
-12.6634
-13.0639
-13.3573
-13.58
-13.58
-13.3573
-13.0639
-12.6635
-12.1517
-11.4668
-10.6562
-9.94252
-9.31617
-8.71748
-8.19731
-7.72355
-7.21747
-6.78549
-6.47271
-6.29437
-6.31164
-6.49852
-6.77468
-7.03214
-7.29461
-7.54279
-7.81771
-8.14664
-8.40924
-8.64531
-8.96668
-9.34376
-9.72859
-10.2018
-10.8277
-11.3657
-11.8871
-12.499
-12.8084
-12.6497
-11.8634
-10.3494
-8.19974
-5.69434
-3.20831
-1.09273
)
;
    }
    left
    {
        type            calculated;
        value           nonuniform List<scalar> 
19
(
-0.998795
-1.8368
-2.50966
-3.10933
-3.62137
-4.11599
-4.55229
-5.01113
-5.50938
-6.06427
-6.85835
-7.87385
-9.36506
-11.6274
-15.3396
-21.3861
-32.5104
-53.4142
-104.815
)
;
    }
    right
    {
        type            calculated;
        value           nonuniform List<scalar> 
19
(
-0.998802
-1.83679
-2.50965
-3.10932
-3.62137
-4.11599
-4.55229
-5.01114
-5.50941
-6.06429
-6.85837
-7.87385
-9.36503
-11.6273
-15.3395
-21.386
-32.5104
-53.4142
-104.815
)
;
    }
    frontAndBackPlanes
    {
        type            empty;
    }
}


// ************************************************************************* //
