/*--------------------------------*- C++ -*----------------------------------*\
  =========                 |
  \\      /  F ield         | OpenFOAM: The Open Source CFD Toolbox
   \\    /   O peration     | Website:  https://openfoam.org
    \\  /    A nd           | Version:  7
     \\/     M anipulation  |
\*---------------------------------------------------------------------------*/
FoamFile
{
    version     2.0;
    format      ascii;
    class       volScalarField;
    location    "0.06";
    object      gradTy;
}
// * * * * * * * * * * * * * * * * * * * * * * * * * * * * * * * * * * * * * //

dimensions      [0 -1 0 1 0 0 0];

internalField   nonuniform List<scalar> 
1596
(
-0.256588
-0.465145
-0.615965
-0.737033
-0.82852
-0.911284
-0.978331
-1.04796
-1.12222
-1.19922
-1.3105
-1.4452
-1.6424
-1.94448
-2.45837
-3.30767
-4.89328
-7.87319
-18.5886
-0.76299
-0.906625
-0.963063
-0.982774
-0.980165
-0.983462
-0.989312
-1.013
-1.05433
-1.10628
-1.19477
-1.30799
-1.47394
-1.71353
-2.08694
-2.62012
-3.45281
-4.70247
-8.26236
-1.31299
-1.31286
-1.24996
-1.16461
-1.07238
-1.00136
-0.94943
-0.92822
-0.934804
-0.958889
-1.01981
-1.10419
-1.23189
-1.41405
-1.69151
-2.06818
-2.62473
-3.40718
-5.07687
-1.8242
-1.66054
-1.47811
-1.29514
-1.12296
-0.985643
-0.881695
-0.818847
-0.791984
-0.788851
-0.822081
-0.877565
-0.968421
-1.10025
-1.30231
-1.57112
-1.95908
-2.48369
-3.37818
-2.22362
-1.93424
-1.65545
-1.3923
-1.15396
-0.960341
-0.811256
-0.711175
-0.653685
-0.625646
-0.633458
-0.663104
-0.721966
-0.812171
-0.954956
-1.14548
-1.421
-1.78863
-2.33382
-2.47465
-2.12841
-1.79083
-1.47134
-1.18297
-0.943974
-0.756916
-0.624334
-0.539517
-0.489339
-0.474873
-0.48265
-0.515239
-0.572241
-0.668519
-0.799891
-0.993977
-1.25504
-1.61761
-2.58394
-2.24554
-1.88925
-1.53932
-1.21783
-0.944752
-0.726907
-0.566612
-0.457858
-0.388264
-0.354765
-0.344601
-0.35646
-0.387935
-0.448486
-0.534844
-0.667316
-0.849899
-1.09941
-2.58488
-2.29312
-1.95062
-1.59427
-1.25622
-0.960524
-0.719364
-0.536456
-0.407388
-0.321111
-0.271716
-0.24718
-0.243244
-0.255895
-0.290079
-0.343057
-0.429063
-0.552134
-0.722548
-2.51904
-2.29396
-1.98564
-1.64022
-1.29835
-0.989285
-0.730882
-0.529559
-0.383177
-0.282399
-0.219659
-0.183583
-0.16781
-0.167071
-0.182725
-0.212118
-0.264404
-0.34317
-0.455615
-2.41064
-2.24503
-1.97953
-1.65827
-1.32513
-1.01355
-0.746222
-0.532847
-0.373902
-0.262033
-0.189086
-0.144346
-0.120146
-0.110347
-0.113684
-0.127325
-0.156427
-0.203687
-0.274323
-2.31304
-2.18143
-1.95134
-1.65621
-1.33744
-1.03006
-0.759913
-0.539725
-0.372449
-0.252669
-0.172349
-0.121395
-0.0914363
-0.0757967
-0.0714479
-0.0752864
-0.0895358
-0.115786
-0.15757
-2.21802
-2.11832
-1.917
-1.64512
-1.34134
-1.04082
-0.771168
-0.547501
-0.374882
-0.249599
-0.164092
-0.108794
-0.0749996
-0.0557152
-0.046804
-0.0449032
-0.0502533
-0.0634129
-0.0864831
-2.11611
-2.04312
-1.86655
-1.61589
-1.3277
-1.03689
-0.771619
-0.548626
-0.374494
-0.246855
-0.158795
-0.101213
-0.0653691
-0.0441521
-0.0328228
-0.0278538
-0.0282727
-0.0338545
-0.0456097
-2.03766
-1.97432
-1.81272
-1.57732
-1.3019
-1.02066
-0.761456
-0.541823
-0.369123
-0.24181
-0.15351
-0.0954718
-0.0590642
-0.0371998
-0.0248782
-0.0185138
-0.0164739
-0.0180229
-0.0234228
-1.97414
-1.91636
-1.76192
-1.53521
-1.26844
-0.995068
-0.742224
-0.527482
-0.358312
-0.233444
-0.146798
-0.0898215
-0.0540467
-0.0324902
-0.0201068
-0.0133448
-0.0102733
-0.0098818
-0.0119826
-1.9175
-1.86576
-1.7143
-1.49105
-1.2289
-0.961326
-0.714607
-0.5058
-0.341854
-0.22125
-0.137899
-0.0833027
-0.0491606
-0.0286559
-0.0168399
-0.010275
-0.00695732
-0.00577318
-0.00630842
-1.87323
-1.82298
-1.67024
-1.44571
-1.18431
-0.920316
-0.679265
-0.477199
-0.319945
-0.20523
-0.126626
-0.075556
-0.0438842
-0.0250157
-0.0142016
-0.00819048
-0.00504263
-0.00365508
-0.00353294
-1.84193
-1.79037
-1.63224
-1.40186
-1.13739
-0.874554
-0.638366
-0.443418
-0.293887
-0.186276
-0.113506
-0.0668121
-0.0382093
-0.0213733
-0.0118286
-0.00656614
-0.00379071
-0.00247813
-0.00213692
-1.8106
-1.76735
-1.60404
-1.36465
-1.09343
-0.828913
-0.596042
-0.407743
-0.266132
-0.166102
-0.0996523
-0.0577243
-0.0324575
-0.01782
-0.00964648
-0.00520142
-0.00287215
-0.00174664
-0.00137819
-1.77546
-1.74662
-1.58037
-1.33078
-1.05051
-0.78244
-0.552018
-0.370337
-0.237061
-0.145137
-0.0854373
-0.048562
-0.0267884
-0.0144189
-0.00763995
-0.00401765
-0.00214514
-0.00123981
-0.000918733
-1.74982
-1.73242
-1.5628
-1.30133
-1.00972
-0.736305
-0.507482
-0.332322
-0.207651
-0.124161
-0.0714323
-0.0397059
-0.0214299
-0.0112871
-0.00584964
-0.00300398
-0.00155904
-0.000866936
-0.000614361
-1.72756
-1.72459
-1.55211
-1.27775
-0.973061
-0.692702
-0.464522
-0.295477
-0.179287
-0.104162
-0.0582908
-0.0315557
-0.0166063
-0.00853637
-0.00432026
-0.00216605
-0.00109507
-0.000589417
-0.000403324
-1.70285
-1.72001
-1.5475
-1.26085
-0.94236
-0.653885
-0.425299
-0.26157
-0.153253
-0.0859836
-0.0465175
-0.0243868
-0.0124522
-0.00622275
-0.00306703
-0.00149955
-0.000739264
-0.000386094
-0.000255094
-1.67489
-1.7153
-1.54588
-1.2487
-0.916959
-0.619966
-0.390243
-0.230983
-0.129747
-0.0696605
-0.036034
-0.0180812
-0.00885156
-0.00425062
-0.00201816
-0.000954441
-0.000457162
-0.000231516
-0.000139839
-1.64714
-1.71462
-1.56088
-1.26704
-0.931135
-0.627418
-0.392235
-0.22982
-0.127501
-0.067569
-0.0345056
-0.0171446
-0.00834351
-0.00400651
-0.00191507
-0.000922067
-0.000455847
-0.000241126
-0.000142855
-1.62245
-1.7135
-1.58082
-1.30031
-0.968079
-0.660174
-0.417042
-0.246341
-0.137392
-0.073003
-0.0372728
-0.0184881
-0.00897957
-0.00430946
-0.00206413
-0.00100149
-0.000503672
-0.000276081
-0.00017534
-1.61639
-1.7157
-1.59845
-1.3329
-1.00881
-0.700549
-0.450915
-0.271223
-0.153762
-0.0828238
-0.0427055
-0.0213062
-0.0103654
-0.00496454
-0.00236544
-0.00114029
-0.000572356
-0.000318613
-0.000210691
-1.63297
-1.72427
-1.61401
-1.36242
-1.04991
-0.745582
-0.492229
-0.304181
-0.177215
-0.0980012
-0.0517397
-0.0263296
-0.0129953
-0.00627047
-0.00297907
-0.00141269
-0.000687323
-0.000371536
-0.000245093
-1.66812
-1.74216
-1.63239
-1.39297
-1.09383
-0.796513
-0.541888
-0.346342
-0.2092
-0.120114
-0.0658399
-0.0347509
-0.017745
-0.00881838
-0.00427281
-0.00202673
-0.000949801
-0.000474044
-0.000287661
-1.71971
-1.76831
-1.65464
-1.42591
-1.14097
-0.852853
-0.599194
-0.39745
-0.250146
-0.150149
-0.086255
-0.047811
-0.0256808
-0.0134395
-0.00684435
-0.00337682
-0.00158656
-0.000733134
-0.000375044
-1.7865
-1.80562
-1.68659
-1.46717
-1.1958
-0.917332
-0.665708
-0.458642
-0.301281
-0.189587
-0.114633
-0.0671496
-0.0382849
-0.0213844
-0.0116935
-0.00621815
-0.00310591
-0.00143307
-0.000627346
-1.85063
-1.84941
-1.72774
-1.51762
-1.25933
-0.990661
-0.741924
-0.530519
-0.363582
-0.239866
-0.152765
-0.0947068
-0.0574588
-0.0344039
-0.0203783
-0.0119096
-0.0066054
-0.00331398
-0.00142142
-1.92244
-1.90344
-1.77917
-1.577
-1.33054
-1.0715
-0.826603
-0.612331
-0.437059
-0.301825
-0.202186
-0.132472
-0.0853829
-0.0546869
-0.0350306
-0.0225811
-0.0142115
-0.0083005
-0.00380753
-2.0096
-1.97288
-1.84511
-1.64928
-1.41339
-1.1639
-0.923902
-0.708483
-0.526506
-0.380691
-0.26857
-0.18635
-0.127964
-0.0879455
-0.0611492
-0.0437029
-0.0318834
-0.0234643
-0.0166124
-2.10605
-2.05049
-1.91383
-1.71813
-1.48764
-1.24485
-1.0093
-0.794412
-0.608673
-0.455486
-0.333857
-0.241274
-0.172892
-0.124069
-0.0902256
-0.0677966
-0.0531897
-0.0439517
-0.0377244
-2.21807
-2.13451
-1.98043
-1.77653
-1.54394
-1.30218
-1.06795
-0.853172
-0.665583
-0.508484
-0.381659
-0.283094
-0.208705
-0.154336
-0.115879
-0.0899011
-0.0731843
-0.0635097
-0.0588918
-2.34727
-2.2292
-2.05376
-1.83743
-1.59812
-1.35297
-1.11667
-0.899986
-0.710007
-0.549778
-0.419379
-0.316998
-0.23892
-0.181258
-0.140142
-0.112111
-0.0939227
-0.0831204
-0.0774273
-2.46208
-2.31436
-2.11988
-1.89176
-1.64556
-1.39653
-1.15791
-0.939401
-0.747497
-0.584956
-0.451938
-0.346787
-0.266023
-0.20597
-0.162944
-0.133538
-0.114537
-0.103424
-0.097821
-2.55002
-2.38417
-2.1764
-1.93933
-1.68752
-1.43514
-1.19437
-0.97418
-0.780595
-0.616132
-0.48101
-0.373677
-0.290834
-0.228968
-0.184558
-0.154224
-0.134787
-0.123663
-0.118374
-2.61914
-2.43975
-2.22176
-1.97761
-1.72124
-1.46603
-1.22345
-1.00189
-0.807016
-0.641137
-0.504509
-0.395638
-0.311356
-0.248264
-0.202964
-0.172091
-0.152496
-0.141536
-0.136658
-2.6699
-2.48009
-2.25405
-2.00439
-1.74452
-1.48722
-1.24334
-1.02086
-0.825177
-0.658437
-0.52091
-0.411125
-0.326
-0.262208
-0.216433
-0.185314
-0.165719
-0.154962
-0.150429
-2.70607
-2.5038
-2.27099
-2.01755
-1.75559
-1.49717
-1.25272
-1.02993
-0.833994
-0.666978
-0.529142
-0.419023
-0.333581
-0.269528
-0.223597
-0.192433
-0.172922
-0.162359
-0.158105
-2.70609
-2.50383
-2.27103
-2.01759
-1.75563
-1.49722
-1.25277
-1.02997
-0.834039
-0.66702
-0.52918
-0.419058
-0.333612
-0.269555
-0.223623
-0.192457
-0.172945
-0.162382
-0.15813
-2.66992
-2.48014
-2.25412
-2.00449
-1.74464
-1.48735
-1.24347
-1.021
-0.825307
-0.658559
-0.521021
-0.411226
-0.32609
-0.262288
-0.216507
-0.185383
-0.165787
-0.155031
-0.150503
-2.61916
-2.43983
-2.22188
-1.97777
-1.72142
-1.46624
-1.22367
-1.00211
-0.807226
-0.641332
-0.504687
-0.395797
-0.311498
-0.24839
-0.203079
-0.172198
-0.152599
-0.141641
-0.136769
-2.55005
-2.38427
-2.17656
-1.93954
-1.68777
-1.43541
-1.19465
-0.974469
-0.780872
-0.616389
-0.481242
-0.373882
-0.291015
-0.229127
-0.184699
-0.154354
-0.134911
-0.123787
-0.118505
-2.46211
-2.31447
-2.12006
-1.89201
-1.64585
-1.39687
-1.15826
-0.939755
-0.747836
-0.585268
-0.452217
-0.34703
-0.266234
-0.206151
-0.163104
-0.133681
-0.114671
-0.103556
-0.097958
-2.34731
-2.22933
-2.05396
-1.83771
-1.59846
-1.35335
-1.11708
-0.900395
-0.710396
-0.550133
-0.419692
-0.317266
-0.239147
-0.181449
-0.140305
-0.112254
-0.0940531
-0.0832452
-0.077553
-2.21812
-2.13466
-1.98068
-1.77689
-1.54438
-1.30269
-1.06849
-0.853707
-0.666087
-0.508938
-0.382053
-0.283427
-0.208981
-0.154565
-0.116071
-0.0900656
-0.07333
-0.0636432
-0.0590184
-2.10608
-2.05054
-1.91397
-1.71838
-1.48801
-1.24532
-1.00984
-0.794971
-0.609212
-0.455974
-0.334276
-0.241619
-0.173166
-0.12428
-0.0903853
-0.0679176
-0.0532916
-0.0440631
-0.0378824
-2.00962
-1.97304
-1.84543
-1.64978
-1.41406
-1.1647
-0.92475
-0.709322
-0.527283
-0.381372
-0.269141
-0.186812
-0.128329
-0.0882316
-0.0613764
-0.0438926
-0.0320574
-0.0236447
-0.016817
-1.92245
-1.90351
-1.77938
-1.57738
-1.33106
-1.07212
-0.827257
-0.612958
-0.437616
-0.302289
-0.202552
-0.132749
-0.0855866
-0.0548356
-0.0351427
-0.0226732
-0.0142931
-0.00836984
-0.0038523
-1.85062
-1.84946
-1.72794
-1.51798
-1.25984
-0.991254
-0.742533
-0.531082
-0.364062
-0.240248
-0.153052
-0.0949131
-0.0576029
-0.0345042
-0.020451
-0.0119671
-0.00665316
-0.0033477
-0.00143163
-1.78648
-1.80566
-1.68677
-1.46752
-1.19628
-0.917884
-0.666257
-0.459133
-0.301681
-0.189891
-0.114851
-0.0672982
-0.0383834
-0.0214496
-0.0117383
-0.00625091
-0.00313002
-0.00144718
-0.000627136
-1.71969
-1.76834
-1.65481
-1.42624
-1.14142
-0.853359
-0.599682
-0.397869
-0.250474
-0.150387
-0.0864169
-0.0479162
-0.0257471
-0.0134812
-0.00687111
-0.00339439
-0.00159742
-0.000737849
-0.000372658
-1.66809
-1.74218
-1.63254
-1.39328
-1.09424
-0.796966
-0.54231
-0.346691
-0.209462
-0.120296
-0.065958
-0.034824
-0.0177888
-0.00884442
-0.00428826
-0.00203565
-0.000954192
-0.000475069
-0.00028562
-1.63294
-1.72428
-1.61415
-1.36269
-1.05028
-0.745974
-0.492582
-0.304462
-0.177418
-0.0981364
-0.0518241
-0.0263796
-0.0130239
-0.00628649
-0.00298779
-0.00141706
-0.000688949
-0.000371509
-0.000243937
-1.61637
-1.71571
-1.59857
-1.33314
-1.00912
-0.700874
-0.451198
-0.271442
-0.153915
-0.0829229
-0.0427653
-0.0213405
-0.0103843
-0.0049746
-0.00237053
-0.00114256
-0.000573045
-0.00031855
-0.0002103
-1.62243
-1.71351
-1.58091
-1.3005
-0.968322
-0.660419
-0.417252
-0.2465
-0.137501
-0.073072
-0.0373136
-0.0185111
-0.00899186
-0.00431578
-0.00206718
-0.00100279
-0.000504087
-0.000276164
-0.000175391
-1.64716
-1.71464
-1.56092
-1.2671
-0.931209
-0.627492
-0.392299
-0.229869
-0.127536
-0.0675917
-0.0345193
-0.0171524
-0.00834777
-0.00400871
-0.00191612
-0.00092251
-0.000456018
-0.000241217
-0.000142838
-1.67491
-1.7153
-1.54585
-1.24865
-0.916887
-0.619894
-0.390182
-0.230935
-0.129712
-0.0696365
-0.0360181
-0.0180712
-0.00884541
-0.00424695
-0.002016
-0.000953184
-0.000456442
-0.000231105
-0.000139476
-1.70286
-1.72001
-1.5475
-1.26084
-0.942357
-0.653887
-0.425304
-0.261577
-0.153258
-0.0859865
-0.0465188
-0.024387
-0.012452
-0.0062224
-0.00306668
-0.00149927
-0.000739062
-0.000385956
-0.000254937
-1.72757
-1.72459
-1.55211
-1.27774
-0.973055
-0.6927
-0.464523
-0.295479
-0.17929
-0.104164
-0.0582917
-0.0315561
-0.0166063
-0.00853628
-0.00432012
-0.00216591
-0.00109496
-0.000589345
-0.000403228
-1.74982
-1.73243
-1.5628
-1.30132
-1.00972
-0.736304
-0.507482
-0.332322
-0.207652
-0.124162
-0.0714331
-0.0397065
-0.0214302
-0.0112872
-0.00584968
-0.00300397
-0.00155902
-0.000866941
-0.000614328
-1.77547
-1.74662
-1.58037
-1.33077
-1.0505
-0.782438
-0.552017
-0.370337
-0.237061
-0.145138
-0.085438
-0.0485627
-0.0267889
-0.0144193
-0.00764015
-0.00401775
-0.00214522
-0.00123995
-0.000918829
-1.81061
-1.76735
-1.60404
-1.36465
-1.09343
-0.828912
-0.59604
-0.407741
-0.266131
-0.166102
-0.0996526
-0.0577249
-0.0324582
-0.0178205
-0.0096468
-0.00520163
-0.0028724
-0.00174706
-0.00137857
-1.84193
-1.79037
-1.63224
-1.40187
-1.13739
-0.874554
-0.638364
-0.443415
-0.293885
-0.186275
-0.113506
-0.0668125
-0.0382099
-0.0213739
-0.0118289
-0.00656644
-0.00379124
-0.00247913
-0.0021379
-1.87323
-1.82298
-1.67024
-1.44571
-1.18431
-0.920317
-0.679263
-0.477195
-0.319942
-0.205228
-0.126625
-0.0755562
-0.0438847
-0.0250162
-0.014202
-0.00819089
-0.00504369
-0.00365722
-0.00353504
-1.91749
-1.86576
-1.7143
-1.49106
-1.22891
-0.961327
-0.714605
-0.505797
-0.34185
-0.221248
-0.137898
-0.0833026
-0.0491609
-0.0286561
-0.01684
-0.0102755
-0.00695942
-0.00577742
-0.00631239
-1.97414
-1.91636
-1.76193
-1.53522
-1.26844
-0.995069
-0.742222
-0.527478
-0.358308
-0.233441
-0.146796
-0.089821
-0.0540464
-0.0324898
-0.0201065
-0.0133456
-0.0102773
-0.00988942
-0.0119892
-2.03765
-1.97432
-1.81272
-1.57733
-1.3019
-1.02066
-0.761455
-0.541819
-0.369119
-0.241807
-0.153509
-0.0954707
-0.0590631
-0.0371983
-0.0248772
-0.0185153
-0.0164807
-0.0180351
-0.023432
-2.1161
-2.04312
-1.86655
-1.6159
-1.32771
-1.0369
-0.771618
-0.548623
-0.37449
-0.246852
-0.158793
-0.101211
-0.0653665
-0.0441492
-0.0328213
-0.0278566
-0.0282834
-0.0338715
-0.0456198
-2.21801
-2.11831
-1.91701
-1.64513
-1.34134
-1.04082
-0.771167
-0.547498
-0.374879
-0.249596
-0.164089
-0.10879
-0.074995
-0.0557107
-0.0468023
-0.0449082
-0.0502677
-0.0634321
-0.0864895
-2.31304
-2.18143
-1.95135
-1.65621
-1.33745
-1.03006
-0.759913
-0.539723
-0.372447
-0.252667
-0.172345
-0.121389
-0.0914297
-0.0757911
-0.0714471
-0.0752939
-0.0895514
-0.115801
-0.157566
-2.41063
-2.24503
-1.97954
-1.65827
-1.32513
-1.01355
-0.746221
-0.532846
-0.3739
-0.262029
-0.18908
-0.144338
-0.120138
-0.110341
-0.113685
-0.127334
-0.156438
-0.203689
-0.274303
-2.51904
-2.29397
-1.98564
-1.64023
-1.29835
-0.989283
-0.73088
-0.529557
-0.383173
-0.282394
-0.219651
-0.183574
-0.167803
-0.167069
-0.18273
-0.212127
-0.264405
-0.343149
-0.455579
-2.58488
-2.29312
-1.95062
-1.59427
-1.25621
-0.96052
-0.719361
-0.536453
-0.407384
-0.321105
-0.271708
-0.247172
-0.24324
-0.255898
-0.290087
-0.343062
-0.429047
-0.552089
-0.722505
-2.58395
-2.24555
-1.88925
-1.53932
-1.21783
-0.944748
-0.726903
-0.566609
-0.457853
-0.388258
-0.354759
-0.344598
-0.356462
-0.387944
-0.448497
-0.534842
-0.667285
-0.849839
-1.09938
-2.47465
-2.12842
-1.79083
-1.47133
-1.18297
-0.943972
-0.756914
-0.624332
-0.539514
-0.489336
-0.474872
-0.482654
-0.515249
-0.572256
-0.668529
-0.799881
-0.993937
-1.25499
-1.6176
-2.22363
-1.93425
-1.65546
-1.3923
-1.15397
-0.960343
-0.811257
-0.711175
-0.653685
-0.625647
-0.633464
-0.663115
-0.721983
-0.812188
-0.954962
-1.14547
-1.42096
-1.7886
-2.33385
-1.8242
-1.66054
-1.47811
-1.29514
-1.12296
-0.985648
-0.881698
-0.818849
-0.791987
-0.788857
-0.822093
-0.877582
-0.96844
-1.10026
-1.30231
-1.5711
-1.95906
-2.48369
-3.37823
-1.31299
-1.31285
-1.24996
-1.16462
-1.07238
-1.00136
-0.949435
-0.928225
-0.93481
-0.958899
-1.01983
-1.10421
-1.23191
-1.41405
-1.6915
-2.06816
-2.62472
-3.4072
-5.0769
-0.762989
-0.906612
-0.963055
-0.982774
-0.980169
-0.983467
-0.989317
-1.013
-1.05434
-1.10629
-1.19478
-1.30801
-1.47395
-1.71353
-2.08693
-2.6201
-3.4528
-4.70249
-8.26237
-0.25659
-0.465141
-0.615958
-0.737028
-0.828518
-0.911284
-0.978333
-1.04797
-1.12222
-1.19923
-1.31051
-1.44521
-1.6424
-1.94447
-2.45835
-3.30765
-4.89326
-7.87319
-18.5886
)
;

boundaryField
{
    up
    {
        type            calculated;
        value           nonuniform List<scalar> 
84
(
-16.8506
-9.12291
-5.54969
-3.67286
-2.53513
-1.76068
-1.20075
-0.79213
-0.501115
-0.302507
-0.173942
-0.0953708
-0.0501108
-0.0255205
-0.01286
-0.00661379
-0.00359338
-0.00210558
-0.00132133
-0.000862783
-0.000568206
-0.000368459
-0.000228665
-0.000114063
-0.00011186
-0.000152785
-0.000186905
-0.000217007
-0.000244205
-0.000284447
-0.000398837
-0.000763659
-0.00224035
-0.0149082
-0.0368651
-0.0579303
-0.0757282
-0.096236
-0.116982
-0.135487
-0.149436
-0.157258
-0.157283
-0.149514
-0.135602
-0.117116
-0.0963767
-0.0758554
-0.0580511
-0.0370372
-0.0151431
-0.00228102
-0.000761693
-0.000390066
-0.000277458
-0.000240021
-0.000214964
-0.000186191
-0.000152844
-0.000111841
-0.000113649
-0.00022846
-0.000368326
-0.000568126
-0.000862809
-0.00132159
-0.00210634
-0.00359506
-0.00661688
-0.0128647
-0.0255259
-0.050114
-0.0953662
-0.173923
-0.30247
-0.501067
-0.79209
-1.20074
-1.76073
-2.53521
-3.67295
-5.54975
-9.12291
-16.8505
)
;
    }
    low
    {
        type            calculated;
        value           nonuniform List<scalar> 
84
(
-0.276638
-0.802059
-1.39302
-1.95047
-2.38693
-2.65553
-2.75999
-2.74137
-2.64236
-2.49756
-2.38443
-2.27562
-2.15324
-2.06534
-1.99756
-1.93276
-1.88118
-1.84932
-1.8128
-1.76266
-1.72433
-1.69054
-1.65066
-1.60745
-1.55408
-1.51501
-1.50839
-1.5405
-1.59707
-1.67449
-1.7635
-1.84088
-1.92605
-2.02737
-2.13446
-2.26072
-2.40969
-2.5354
-2.6285
-2.70195
-2.75639
-2.79919
-2.7992
-2.7564
-2.70196
-2.62852
-2.53542
-2.40972
-2.26075
-2.13444
-2.02739
-1.92603
-1.84086
-1.76347
-1.67447
-1.59704
-1.54048
-1.50838
-1.515
-1.55408
-1.60748
-1.65065
-1.69055
-1.72434
-1.76266
-1.8128
-1.84932
-1.88118
-1.93275
-1.99755
-2.06533
-2.15323
-2.27561
-2.38442
-2.49755
-2.64235
-2.74137
-2.75999
-2.65553
-2.38694
-1.95047
-1.39303
-0.80207
-0.276643
)
;
    }
    left
    {
        type            calculated;
        value           nonuniform List<scalar> 
19
(
-0.252933
-0.460017
-0.616535
-0.744709
-0.843007
-0.931506
-1.00311
-1.07711
-1.1553
-1.2375
-1.35629
-1.5009
-1.71574
-2.05163
-2.62819
-3.59761
-5.42606
-8.89866
-17.4667
)
;
    }
    right
    {
        type            calculated;
        value           nonuniform List<scalar> 
19
(
-0.252935
-0.460015
-0.61653
-0.744705
-0.843005
-0.931505
-1.00311
-1.07711
-1.1553
-1.23751
-1.35629
-1.5009
-1.71574
-2.05162
-2.62815
-3.59757
-5.42603
-8.89866
-17.4667
)
;
    }
    frontAndBackPlanes
    {
        type            empty;
    }
}


// ************************************************************************* //
