/*--------------------------------*- C++ -*----------------------------------*\
  =========                 |
  \\      /  F ield         | OpenFOAM: The Open Source CFD Toolbox
   \\    /   O peration     | Website:  https://openfoam.org
    \\  /    A nd           | Version:  7
     \\/     M anipulation  |
\*---------------------------------------------------------------------------*/
FoamFile
{
    version     2.0;
    format      ascii;
    class       volScalarField;
    location    "0.312";
    object      gradTz;
}
// * * * * * * * * * * * * * * * * * * * * * * * * * * * * * * * * * * * * * //

dimensions      [0 -1 0 1 0 0 0];

internalField   nonuniform List<scalar> 
1596
(
-8.06861e-16
-3.93245e-16
3.98466e-16
7.66382e-18
-7.61933e-16
0
-3.5749e-16
-3.52481e-16
-2.19342e-17
-1.84899e-16
-1.79163e-18
-1.83684e-16
8.06589e-16
-1.81396e-16
8.4816e-16
7.31459e-16
4.34956e-16
5.49e-16
0
8.0729e-16
0
1.14429e-15
-7.21285e-18
-3.5319e-16
3.50408e-16
7.18527e-16
2.07768e-17
3.41114e-16
-1.64071e-16
3.27155e-16
-5.21278e-18
-4.53394e-16
-2.82838e-16
-6.85861e-16
-6.68678e-16
-6.08056e-16
3.45906e-16
0
-3.97327e-16
0
-7.49629e-16
1.14635e-17
6.92959e-16
-1.91849e-16
1.33708e-17
-4.85665e-18
-5.05268e-18
-5.46064e-18
1.26167e-16
0
2.35232e-16
6.68187e-16
-6.57725e-17
5.27106e-17
1.24088e-16
1.93071e-16
0
6.22297e-16
-1.89198e-16
1.88507e-16
0
-1.81978e-16
-1.87405e-16
3.2357e-16
-2.85778e-16
0
0
-9.86566e-17
6.58257e-17
0
-1.97361e-16
-2.52644e-16
1.74152e-16
-1.7749e-16
-9.14129e-18
0
1.08499e-16
2.92431e-16
-2.66862e-16
0
-7.96745e-17
-2.41741e-16
0
3.63439e-16
-3.63688e-17
-3.29114e-17
-2.83245e-17
1.90292e-16
2.32448e-16
2.37225e-17
6.32418e-18
-1.88322e-16
9.50788e-18
8.70911e-17
-3.72944e-17
-2.81755e-17
-4.01684e-16
3.85446e-16
-3.40581e-16
-6.40981e-19
-3.06039e-16
8.65357e-18
-8.6823e-18
-2.447e-16
0
-2.32268e-17
-2.24735e-16
-2.10098e-16
1.7221e-16
1.75383e-16
-2.40181e-18
-1.05097e-16
-8.83354e-17
6.74055e-17
2.35468e-16
-4.1018e-16
4.65579e-16
2.62516e-16
0
2.34493e-16
1.39561e-16
-6.74181e-17
3.10779e-16
-5.87091e-17
-2.46476e-16
2.335e-18
-1.4734e-16
-1.73055e-16
-1.36473e-16
1.15295e-16
1.06022e-16
-1.41102e-18
-2.82002e-17
2.08034e-17
6.50321e-16
-7.75768e-16
0
0
-2.94562e-16
0
0
0
2.0861e-16
0
0
1.34806e-16
5.28536e-18
3.45913e-17
-1.00612e-16
0
5.35584e-17
2.0685e-17
0
-4.2521e-16
8.20659e-16
0
0
3.03358e-16
0
-1.188e-16
1.1868e-16
-2.12334e-16
8.92102e-17
-8.98627e-17
0
1.29886e-16
1.23368e-16
0
-7.12922e-17
-5.47365e-17
-1.80363e-17
1.00679e-15
-4.73901e-16
0
-3.49264e-16
3.45355e-16
0
2.65044e-16
0
0
0
8.36484e-17
-8.40494e-17
0
-1.00126e-16
-2.89174e-17
0
6.44077e-18
4.10203e-17
0
-2.55536e-16
0
0
3.50331e-16
-6.58245e-16
3.00762e-17
1.18307e-17
-1.11436e-16
1.13844e-17
3.42241e-18
-8.85375e-17
-1.44545e-16
0
1.09388e-16
-2.1517e-17
2.184e-17
5.57087e-17
-3.20787e-17
-1.49179e-17
2.17621e-16
-2.02838e-17
2.08743e-16
7.2591e-16
-3.45122e-17
-3.09858e-16
0
0
0
1.82582e-16
7.44764e-17
2.69737e-16
-6.51874e-17
-1.07432e-16
-6.52602e-17
-3.49365e-17
1.55066e-17
-3.35813e-17
1.42237e-17
-2.37583e-16
2.32626e-16
-4.32864e-16
-7.17142e-16
6.69165e-16
2.72387e-16
-5.07665e-16
4.46399e-16
-3.91866e-16
1.01951e-16
7.99582e-17
-7.25175e-17
4.90872e-17
-4.34491e-17
1.26287e-16
0
-9.45704e-18
6.93144e-17
-1.02735e-17
-1.52294e-15
7.04059e-16
6.05105e-19
-1.62015e-16
1.81205e-17
2.6496e-16
-5.05799e-16
-2.13369e-16
1.85395e-16
-1.60154e-16
-1.38661e-16
0
-1.60199e-16
-4.78643e-17
-8.65949e-17
-5.15274e-17
4.06371e-18
-4.4439e-17
7.64284e-19
2.48911e-16
-2.24112e-16
5.17124e-19
-1.76758e-16
-4.50168e-16
4.26702e-16
1.35347e-18
2.07928e-16
-1.80507e-16
3.08064e-16
7.31318e-17
6.13415e-17
1.92649e-16
0
1.61789e-16
7.43215e-17
0
2.45779e-17
6.51723e-19
0
2.17415e-16
1.75473e-16
-3.62309e-16
4.36494e-16
-6.62552e-16
4.75123e-16
1.85457e-16
-2.42314e-17
-3.04605e-16
5.77098e-17
-5.74251e-17
-1.78167e-16
7.20745e-17
-3.53609e-17
-7.53185e-17
3.3102e-17
-2.04557e-17
7.75492e-18
-2.31893e-16
8.00182e-16
-5.94911e-16
3.31188e-16
0
0
-9.60567e-17
2.02893e-16
-1.50361e-16
2.84452e-16
0
0
1.2134e-16
-1.06847e-16
-7.74379e-17
2.43347e-17
-2.57165e-17
1.34219e-17
0
1.68278e-17
2.16841e-16
-1.78979e-16
-1.5877e-16
-2.62896e-16
-9.04971e-17
1.19521e-16
0
-1.42017e-16
-1.18421e-16
1.07514e-16
-8.95346e-17
7.39334e-17
0
2.93732e-17
5.91136e-17
0
0
0
-1.60623e-17
3.55032e-16
1.40094e-16
-4.77707e-16
1.3482e-16
1.17465e-16
0
0
1.34761e-16
-7e-17
-1.0399e-16
8.65963e-17
-7.14992e-17
0
-1.98713e-17
1.75181e-17
0
-1.45597e-17
-5.0571e-18
-1.8805e-16
5.51857e-16
-6.7588e-16
-2.77345e-16
1.44415e-16
-1.11706e-16
9.57152e-17
0
-6.82888e-17
5.80867e-17
0
0
2.88432e-17
-2.88764e-17
8.93427e-18
-1.14062e-17
2.11623e-17
2.3069e-18
3.74607e-18
9.57079e-17
-8.72065e-17
4.54139e-16
-2.93835e-16
-1.22265e-16
1.41716e-17
1.95472e-16
7.67941e-17
6.53421e-17
0
4.02866e-17
-3.74686e-17
3.04668e-17
-2.62739e-17
3.50622e-17
-6.08116e-17
-1.647e-17
1.44179e-17
3.8921e-18
2.57853e-16
-2.60537e-16
0
2.5019e-16
-1.30959e-16
-1.01141e-16
7.33358e-17
-2.32255e-16
0
-3.94143e-18
-4.57149e-17
-3.40853e-17
5.11258e-17
-3.67021e-18
-3.3887e-17
2.54046e-17
0
9.44946e-18
-3.77919e-18
4.36218e-16
-7.81417e-17
3.3871e-16
-2.65716e-16
1.52004e-16
2.07111e-17
-1.77328e-16
-6.34378e-17
1.15554e-16
-4.42243e-18
-7.18432e-17
6.16414e-17
-2.73473e-17
-3.72598e-17
0
0
0
-9.54127e-18
3.56925e-19
-3.90728e-16
3.81284e-16
2.51451e-19
6.01726e-17
5.27264e-17
-1.30738e-16
1.56348e-16
-1.31533e-16
1.14294e-16
-3.96814e-17
7.59191e-17
2.78868e-17
-1.2022e-17
6.48332e-19
-4.63458e-18
-8.15929e-18
0
0
0
0
0
1.91971e-16
-9.00529e-17
-2.96092e-16
0
0
-3.80881e-17
-6.32605e-17
5.39877e-17
0
-3.51703e-17
2.79734e-17
-9.56648e-17
1.10657e-16
-3.71252e-17
3.96096e-17
4.38898e-18
0
-7.57302e-17
7.66622e-17
0
-6.36483e-17
6.47019e-17
1.09704e-16
0
3.84518e-17
5.33462e-17
-2.35728e-16
0
-3.84529e-17
3.06987e-17
2.27232e-17
-1.72276e-17
2.55061e-17
0
-9.61316e-18
0
-3.89343e-17
-3.91215e-17
2.31844e-18
6.5397e-17
-1.78465e-16
0
-4.76016e-17
0
1.41129e-16
5.85348e-17
0
1.52352e-16
-1.62544e-16
1.57462e-17
-3.84699e-17
9.81988e-18
4.87842e-17
1.89075e-17
-1.49698e-17
0
8.08403e-17
-7.21276e-17
8.97263e-17
1.10104e-16
0
9.7199e-17
-9.25475e-17
-7.54024e-17
1.16754e-16
-1.75631e-16
-8.85947e-17
0
0
2.08338e-17
0
0
6.15614e-18
0
-3.56821e-16
2.73579e-16
0
3.78552e-18
-6.45935e-17
-3.61368e-18
5.87722e-17
4.37511e-17
-5.33782e-17
-1.42393e-16
2.31955e-16
-6.24578e-17
0
-3.16563e-17
0
0
0
-2.37153e-17
1.89238e-17
-1.00515e-16
9.50246e-17
2.57662e-16
-2.53083e-16
7.86679e-17
4.06446e-18
-5.97347e-17
5.25048e-17
9.10888e-17
7.13968e-17
-1.41352e-16
0
7.75099e-17
1.2589e-17
-3.62282e-17
-8.18335e-17
6.77545e-17
-1.14184e-17
2.13756e-17
-3.38562e-16
4.95985e-16
-4.92962e-16
8.80847e-17
7.6191e-17
-7.30646e-17
6.20197e-17
-5.04533e-17
0
-4.42559e-17
7.31089e-17
3.17841e-17
5.20746e-17
6.82381e-17
-1.02778e-16
-1.24048e-18
0
-8.54139e-18
2.84307e-18
-3.66083e-16
-1.10494e-16
-1.96848e-16
1.04038e-16
-1.74288e-16
1.54014e-16
-9.24972e-17
8.00182e-17
-4.99695e-18
-5.01109e-18
-7.58733e-17
4.42687e-17
-2.64649e-17
7.99083e-17
-8.57824e-17
1.14214e-17
9.2935e-18
0
-4.88492e-18
3.95816e-16
-1.19043e-16
0
0
-1.79631e-16
3.51108e-16
-8.2922e-17
-1.63638e-17
1.36288e-16
-3.46761e-18
0
0
-3.33115e-17
0
-7.40111e-17
1.81314e-16
-1.26411e-16
0
1.91069e-18
1.35948e-16
2.55966e-16
0
-1.10984e-16
-9.24658e-17
-8.34127e-17
-8.60495e-17
3.63932e-17
-1.02485e-16
-5.71126e-17
0
0
4.3017e-17
0
0
-9.9084e-17
1.63013e-16
0
0
9.32825e-16
-1.07181e-16
-5.71232e-16
-3.16898e-16
4.29357e-16
1.39058e-16
8.34357e-17
0
-3.13781e-17
3.09689e-17
7.63733e-17
-2.47864e-17
-3.77478e-17
5.87398e-17
-6.24812e-17
-1.96973e-17
0
0
0
7.47015e-17
-5.95516e-16
5.84333e-16
-5.66317e-17
-4.43868e-16
6.98228e-16
-3.5241e-16
0
0
1.94941e-16
-1.60782e-16
0
-4.97209e-17
8.62981e-17
-9.93594e-18
2.54275e-17
7.81435e-18
7.97121e-20
1.71845e-18
0
0
0
4.98354e-16
-3.33915e-16
3.57406e-16
-5.58724e-16
1.60088e-16
0
-5.88973e-17
9.52184e-17
-9.73189e-17
-1.94007e-17
-5.20253e-19
-1.34624e-17
-2.04421e-18
-1.0717e-17
-2.98969e-18
-1.64137e-18
6.26908e-16
-1.12163e-15
5.33398e-16
0
1.46923e-16
-2.0002e-16
2.0358e-16
-1.61547e-16
0
-8.03947e-17
1.12736e-16
0
0
-3.94776e-19
0
-1.36901e-17
9.38473e-18
1.7776e-18
2.61027e-18
6.05166e-16
0
-2.45336e-16
2.74107e-16
-1.7458e-16
3.82547e-16
-1.81529e-16
-1.44067e-16
1.45571e-16
-1.49189e-17
0
0
9.70385e-18
-1.65661e-17
-1.16075e-17
2.20491e-17
-4.7734e-18
2.46111e-18
0
3.43686e-16
2.71484e-16
-7.73613e-18
-2.61072e-16
-2.66481e-17
-1.93859e-16
1.99225e-17
1.64052e-16
-8.55072e-18
1.5199e-17
0
0
-9.94094e-18
0
1.1733e-17
-1.25515e-17
0
1.60924e-18
-4.4708e-19
-1.82442e-16
-1.36123e-16
1.27434e-16
-1.47428e-17
-6.64881e-18
1.80937e-17
0
-4.8341e-18
7.30617e-17
-6.15298e-17
0
2.11311e-17
-4.09408e-18
-1.87125e-17
-1.71579e-18
-1.33984e-18
0
-1.25709e-18
0
7.48502e-17
-1.4271e-16
-2.27256e-18
6.18707e-17
5.73207e-17
-5.69845e-17
-4.08881e-17
4.6302e-17
-1.60711e-17
1.25591e-17
-1.23355e-17
1.27159e-17
0
3.27651e-20
-1.26249e-18
4.54507e-18
-1.55711e-20
0
0
7.48528e-17
-7.45723e-17
-6.15471e-17
5.4498e-17
1.01289e-16
-1.01887e-16
-2.04447e-17
2.04928e-17
-1.62066e-17
1.63769e-17
-1.23359e-17
2.33177e-17
-6.53962e-18
-4.73279e-18
-1.45836e-18
4.82285e-19
1.15476e-18
3.05656e-19
-2.29256e-19
0
-1.78145e-17
1.07286e-16
-1.16227e-16
1.01179e-16
-8.9641e-17
0
7.27571e-17
-6.5045e-17
0
2.46003e-17
-3.11711e-17
-1.78561e-17
1.87143e-17
3.46331e-18
0
0
-1.25725e-18
4.57082e-19
2.98008e-16
-5.50365e-16
5.65002e-16
-4.99336e-16
1.96889e-16
-1.69779e-16
1.61003e-16
1.9386e-17
-7.26812e-17
6.49706e-17
0
-4.78792e-17
4.35727e-17
-8.35168e-18
-3.39231e-18
5.37945e-18
3.96074e-18
1.22054e-18
-4.41645e-19
6.82592e-16
0
-2.77417e-16
2.15521e-16
2.63414e-17
-2.04848e-16
3.648e-16
-3.26169e-16
1.28439e-16
-5.56964e-17
5.70102e-17
1.13536e-17
1.97341e-17
8.13462e-18
-6.82452e-18
-8.70787e-19
-8.5946e-18
0
8.88808e-19
5.50514e-16
-6.19669e-16
0
5.78265e-17
2.52619e-16
-2.47822e-16
4.28687e-17
3.83248e-17
1.67838e-17
2.9989e-17
0
0
-3.43568e-17
6.48344e-17
-2.37687e-17
-8.57342e-18
9.38646e-18
7.55109e-19
-1.69448e-18
4.61755e-17
5.44307e-16
-6.36898e-17
-4.40485e-16
3.86551e-16
4.68264e-17
-4.19549e-17
-3.74319e-17
1.25284e-16
-1.55436e-16
9.52427e-17
-9.73424e-17
1.55754e-17
-1.94417e-17
3.62144e-17
-2.40879e-17
0
0
1.77822e-18
0
1.3706e-16
-4.1735e-16
4.76588e-16
-3.92857e-16
3.91922e-16
0
1.40191e-16
-1.40833e-16
-1.08134e-16
1.60892e-16
0
6.83637e-17
-8.6354e-17
-1.28255e-17
0
-1.47413e-18
-3.01937e-18
-6.44797e-21
-1.29251e-15
6.19339e-16
0
-4.29272e-16
4.29229e-16
2.69005e-16
-1.76971e-16
7.45966e-17
0
-3.44051e-18
2.65586e-17
-2.47507e-17
-3.76949e-17
5.86477e-17
-6.2362e-17
0
1.4044e-17
-3.27727e-18
-1.86686e-18
7.97806e-16
-7.87196e-16
0
1.11095e-16
1.02328e-16
-9.42922e-17
0
-7.81779e-17
-6.89354e-17
0
-2.39432e-18
0
4.30323e-17
0
0
2.04378e-17
7.73518e-17
-9.97528e-17
0
1.24386e-19
1.191e-16
-1.1125e-16
9.3321e-17
-4.73149e-16
1.82502e-16
0
1.63747e-17
4.65677e-17
0
-4.92065e-17
1.47586e-16
-1.55048e-16
2.70094e-17
0
-2.58644e-18
0
0
0
1.15933e-19
0
1.02823e-16
0
-1.65111e-16
1.67736e-16
0
6.30514e-17
-5.17284e-17
1.90182e-16
-9.22824e-17
3.46104e-17
-5.68495e-17
5.5509e-17
-8.58768e-17
-1.38734e-17
0
-9.88498e-18
0
3.11632e-16
-5.26613e-16
0
-8.82417e-17
8.05367e-17
0
0
-1.15704e-16
0
-4.42855e-17
-7.31602e-17
-3.18101e-17
5.21219e-17
0
2.98899e-17
0
0
2.18305e-17
-2.44345e-17
0
4.60171e-16
-3.68888e-16
8.16917e-17
-7.45774e-17
-3.15812e-17
9.18519e-17
1.0574e-16
-1.33306e-16
4.31754e-17
2.13377e-18
-4.34175e-17
1.7923e-16
-5.59438e-17
-1.35642e-16
4.75872e-17
-1.2939e-17
7.69394e-18
-2.46193e-18
-7.35756e-16
2.73544e-16
0
0
3.23092e-17
-3.28548e-17
2.50118e-17
1.7738e-17
1.21357e-16
6.42911e-17
-6.45841e-17
-1.76846e-18
-3.88077e-17
3.16813e-17
0
1.68883e-17
1.18595e-17
6.67011e-18
2.22524e-18
0
2.39475e-16
-2.26355e-16
7.32135e-17
7.82571e-17
-1.52195e-17
-5.08971e-17
-4.46186e-17
-1.5257e-16
6.37376e-17
-4.17335e-17
5.50788e-17
3.629e-17
-4.77056e-17
5.06366e-17
3.4142e-17
-4.37276e-17
-6.16083e-18
0
-4.15126e-17
-1.89583e-16
6.89459e-17
6.54134e-17
-2.31333e-16
1.674e-16
8.75052e-17
-8.94437e-17
7.15564e-17
-6.04902e-17
0
0
-5.64587e-17
1.02564e-16
-4.60075e-17
4.52264e-17
-4.92929e-17
8.42254e-18
-1.49819e-17
7.83645e-17
7.41586e-17
-6.87033e-17
5.62327e-17
-6.40583e-17
-1.02448e-16
0
0
0
0
0
0
2.92303e-17
-7.9952e-17
8.45579e-17
-2.88191e-17
3.54639e-17
1.71201e-17
-1.45625e-17
1.61531e-16
-2.83123e-16
3.54735e-16
-1.73718e-16
2.39303e-16
-1.84771e-16
3.49259e-16
-2.01073e-16
-1.15089e-16
1.17731e-16
0
3.51478e-17
-2.85565e-17
7.3485e-17
-2.33039e-17
-3.18301e-17
-7.02323e-17
5.16608e-18
1.246e-17
2.50929e-16
7.39191e-17
0
-1.19981e-16
-9.85661e-17
2.28837e-16
2.64911e-17
-9.84101e-17
5.96681e-17
-4.46317e-17
0
-2.78234e-17
0
-2.42499e-17
2.0042e-17
-1.85054e-17
-6.18286e-18
4.462e-18
0
3.51114e-16
-7.81406e-17
3.38565e-16
-2.6562e-16
-5.53299e-17
2.26764e-16
-1.35938e-16
6.09658e-18
5.13374e-18
-4.38807e-17
4.26501e-17
0
0
2.91061e-17
-1.11656e-17
7.48202e-18
2.2342e-17
-7.76649e-18
0
6.7579e-20
0
-7.44048e-17
4.48881e-16
-3.05468e-16
-3.39845e-16
1.86948e-16
-2.07144e-16
1.94149e-16
1.00669e-16
-7.91735e-17
3.30425e-17
-2.99605e-17
4.85107e-18
5.25453e-17
2.41998e-18
-2.09611e-17
2.0741e-17
-4.21234e-18
8.59493e-16
-2.75299e-16
1.41316e-16
-4.33253e-16
1.22264e-16
-1.98527e-16
1.05246e-16
0
0
-4.03057e-18
-5.33395e-18
-1.56706e-18
0
-4.50194e-17
-3.50625e-17
2.62508e-17
-1.93816e-18
3.21419e-18
8.2143e-18
0
-2.7626e-16
4.79221e-16
1.14636e-16
-4.01662e-16
1.11706e-16
-1.78514e-16
2.54403e-17
1.49677e-16
0
0
2.84507e-18
3.5591e-17
0
-3.3264e-17
-1.55592e-17
2.2788e-18
-8.39295e-18
-9.34838e-18
0
-1.7685e-16
3.32899e-17
3.23844e-16
2.53689e-16
-4.69959e-16
2.16475e-16
-1.5979e-16
8.4563e-17
-1.23768e-16
0
0
0
-5.82553e-17
1.69777e-17
-1.99687e-17
0
-1.25823e-18
6.33737e-18
-6.48865e-16
6.17897e-16
6.81667e-16
-8.29183e-16
4.02429e-16
-3.81168e-16
0
1.67407e-16
-2.3159e-16
1.37487e-16
-1.1078e-16
9.29803e-17
7.73966e-17
6.02489e-17
4.82863e-17
0
0
0
0
7.12e-16
-4.1814e-16
0
0
-1.45345e-16
3.65331e-16
-2.3481e-16
-1.76281e-16
1.74294e-16
1.35866e-16
2.33393e-16
-9.64761e-17
4.10478e-17
3.204e-17
2.42095e-17
1.95039e-17
3.18576e-17
-1.57534e-18
1.60463e-18
-7.24226e-16
6.71328e-16
3.69105e-16
-1.90469e-16
4.36554e-16
-2.8119e-16
-2.30198e-16
-1.99393e-16
0
-2.82919e-16
1.19095e-17
1.07772e-16
-8.71266e-17
-7.20745e-17
-2.66915e-17
-2.8731e-17
-2.28937e-17
0
0
-2.49129e-16
0
1.99062e-16
-3.89676e-19
0
0
2.37457e-16
2.05745e-16
0
1.52265e-16
0
-1.63823e-16
-4.61352e-17
8.2657e-17
0
5.35751e-17
-7.6097e-18
7.76291e-18
0
5.27207e-16
0
3.86367e-16
-7.23472e-16
6.55063e-16
5.45955e-16
-1.45196e-17
0
1.3386e-17
1.73412e-16
0
-1.80169e-16
2.05561e-16
-1.83494e-16
-4.01828e-17
-4.32001e-17
-1.25355e-17
-2.20534e-18
-7.60246e-18
-4.96326e-16
7.16615e-16
-2.07071e-16
-5.51774e-16
-3.25617e-16
-2.8756e-16
-5.06749e-16
-2.09922e-16
1.42922e-17
8.01086e-17
-7.99581e-17
2.60585e-16
-1.15195e-16
2.34658e-16
-4.39883e-17
0
4.89635e-17
-2.85087e-17
7.73381e-18
1.08423e-15
-2.07936e-17
-8.53086e-16
7.25914e-16
-6.61333e-16
5.88193e-16
-1.59887e-17
-2.32346e-16
2.06401e-16
8.45135e-17
-1.00153e-17
-2.10782e-16
6.21603e-17
6.27645e-17
-1.95783e-17
1.98016e-17
-5.07142e-17
-4.24212e-18
-1.13514e-17
5.32259e-16
2.29863e-16
4.10995e-16
-3.68019e-16
-3.12598e-16
1.39679e-17
-2.49564e-16
6.06737e-16
1.76511e-17
2.89657e-16
1.71198e-16
-1.52458e-16
0
-1.09388e-16
0
0
6.75626e-17
3.01089e-17
1.32857e-17
5.02699e-16
0
4.06286e-16
3.65644e-16
-3.30638e-16
2.95248e-16
0
-2.38336e-16
-3.33148e-16
-2.95296e-16
-1.72713e-16
1.54182e-16
0
0
0
0
-6.33036e-17
-4.55413e-17
0
-9.8508e-16
0
-1.71839e-17
-1.51796e-17
5.01645e-16
-2.90031e-16
-1.34522e-16
-1.34924e-16
3.35937e-16
0
8.92098e-17
-9.56444e-18
7.83534e-17
0
0
1.02362e-16
-7.59118e-18
5.46626e-17
-2.01961e-17
6.94723e-16
2.0442e-16
-2.0231e-16
-1.82213e-16
-6.46148e-16
4.5002e-16
5.5051e-16
-1.23081e-17
-2.27734e-16
2.2292e-16
4.72471e-17
-2.37942e-16
-1.96988e-16
-1.16472e-16
-1.2286e-16
-1.17949e-16
9.55933e-17
-4.53171e-18
2.0685e-17
-2.14623e-16
9.88728e-17
-4.7861e-16
8.39227e-17
-8.36174e-17
0
-2.72537e-16
-1.58525e-17
-2.5231e-16
1.80159e-17
2.46475e-16
1.84518e-16
-4.47626e-17
2.15363e-17
1.1699e-16
0
-1.97446e-16
-7.1563e-17
-1.49202e-18
4.33255e-16
-1.20281e-17
7.52059e-16
-3.61655e-16
6.40981e-19
9.78642e-18
2.95481e-16
-1.97344e-17
2.44699e-16
-2.2925e-16
-2.15301e-16
0
2.10098e-16
1.69581e-16
2.31951e-18
-3.36574e-18
1.06111e-16
7.27447e-17
0
-3.08599e-16
0
-7.79373e-17
3.43896e-16
4.33933e-18
7.97809e-17
-2.85725e-16
2.71041e-16
2.82802e-16
2.70612e-16
2.59517e-16
0
-2.04106e-16
0
1.06303e-17
-1.10405e-17
0
-1.04165e-18
5.10193e-17
2.11866e-16
9.66355e-18
-1.73381e-16
5.3202e-16
-1.71638e-16
0
0
-3.13402e-16
-2.74006e-16
-2.62163e-16
-4.7165e-16
-6.58256e-17
0
0
0
-2.14845e-17
2.2736e-17
1.44625e-16
-5.17934e-17
9.9526e-18
0
-3.68151e-16
-3.40663e-16
3.54453e-16
-3.51498e-16
-5.0509e-16
6.2419e-16
1.71025e-16
0
2.76272e-16
3.09355e-16
-6.67972e-17
3.6153e-16
-5.91149e-17
6.15242e-17
2.38124e-16
-1.3743e-16
0
-4.0539e-16
0
-3.89828e-16
3.82694e-16
0
6.97804e-16
3.2908e-16
-6.87061e-16
5.45518e-16
-3.78109e-18
-1.65751e-16
-2.99519e-16
0
4.08265e-16
-6.8586e-16
7.35563e-16
-9.37257e-16
0
0
4.03324e-16
-2.29526e-18
-5.65841e-18
-7.68945e-16
7.74575e-16
-3.75435e-16
3.73904e-16
3.6845e-16
-3.28808e-16
0
0
6.11513e-16
-6.22047e-16
-6.66797e-16
6.60467e-16
-6.43008e-16
6.95145e-16
-1.08859e-15
0
)
;

boundaryField
{
    up
    {
        type            calculated;
        value           nonuniform List<scalar> 
84
(
0
0
0
0
-3.72944e-17
6.74055e-17
-2.82002e-17
2.0685e-17
-1.80363e-17
0
-1.49179e-17
1.42237e-17
-1.02735e-17
7.64284e-19
6.51723e-19
7.75492e-18
0
0
-5.0571e-18
3.74607e-18
3.8921e-18
-3.77919e-18
3.56925e-19
0
1.56537e-18
6.84302e-19
-1.43311e-17
0
1.89238e-17
2.21981e-17
2.84307e-18
-4.88492e-18
1.91069e-18
0
-9.39261e-19
1.78493e-18
-1.64246e-18
2.60846e-18
0
-4.46792e-19
0
0
-2.29432e-19
4.57082e-19
-4.41645e-19
8.88808e-19
-1.69448e-18
1.77822e-18
-6.44797e-21
-1.86686e-18
0
0
0
-2.44345e-17
-3.28493e-18
2.22524e-18
0
-1.49819e-17
-1.45625e-17
1.09002e-17
0
0
-4.21234e-18
8.2143e-18
-9.34838e-18
6.33737e-18
0
1.60463e-18
0
0
-7.60246e-18
7.73381e-18
-1.13514e-17
1.32857e-17
0
-2.01961e-17
2.0685e-17
-1.49202e-18
0
5.10193e-17
-5.17934e-17
0
0
0
)
;
    }
    low
    {
        type            calculated;
        value           nonuniform List<scalar> 
84
(
-8.07353e-16
8.0729e-16
-3.96434e-16
6.23025e-16
1.08994e-16
-2.83222e-17
2.36702e-16
2.19848e-17
0
1.00815e-15
-2.55536e-16
2.16914e-16
-2.37583e-16
-1.52288e-15
2.48911e-16
0
-2.31893e-16
1.68278e-17
-1.60623e-17
-1.8805e-16
9.57079e-17
2.57853e-16
4.348e-16
-3.90728e-16
0
-7.57302e-17
-3.89343e-17
0
-3.56821e-16
-1.00515e-16
-3.37597e-16
-3.65293e-16
3.9525e-16
1.35948e-16
9.32781e-16
7.47015e-17
0
6.26908e-16
6.06303e-16
3.44322e-16
-1.82786e-16
7.48502e-17
7.48528e-17
0
2.98008e-16
6.83729e-16
5.50514e-16
4.68874e-17
0
-1.29247e-15
7.97806e-16
1.24386e-19
1.15933e-19
3.11632e-16
0
-7.34294e-16
0
-4.15126e-17
7.83645e-17
1.60677e-16
2.49419e-16
3.49696e-16
6.7579e-20
8.58287e-16
0
0
-6.48865e-16
7.11342e-16
-7.2376e-16
-2.49129e-16
5.27141e-16
-4.96326e-16
1.08564e-15
5.33294e-16
5.02699e-16
-9.8508e-16
6.93541e-16
-2.13389e-16
4.33255e-16
-3.08104e-16
2.11866e-16
1.08462e-17
-4.0539e-16
4.0357e-16
)
;
    }
    left
    {
        type            calculated;
        value           nonuniform List<scalar> 
19
(
-8.06861e-16
-3.93517e-16
3.98466e-16
7.65658e-18
-7.62114e-16
0
-3.5749e-16
-3.52481e-16
-2.30557e-17
-1.84899e-16
-1.79163e-18
-1.83684e-16
8.14805e-16
-1.81396e-16
8.4816e-16
7.31459e-16
4.34956e-16
6.37669e-16
0
)
;
    }
    right
    {
        type            calculated;
        value           nonuniform List<scalar> 
19
(
4.03324e-16
-2.02333e-18
-5.65841e-18
-7.68938e-16
7.74756e-16
-3.75435e-16
3.73904e-16
3.6845e-16
-3.27687e-16
0
0
6.17341e-16
-6.30263e-16
-6.66797e-16
6.60467e-16
-6.43008e-16
6.95145e-16
-1.17726e-15
0
)
;
    }
    frontAndBackPlanes
    {
        type            empty;
    }
}


// ************************************************************************* //
