/*--------------------------------*- C++ -*----------------------------------*\
  =========                 |
  \\      /  F ield         | OpenFOAM: The Open Source CFD Toolbox
   \\    /   O peration     | Website:  https://openfoam.org
    \\  /    A nd           | Version:  7
     \\/     M anipulation  |
\*---------------------------------------------------------------------------*/
FoamFile
{
    version     2.0;
    format      ascii;
    class       volScalarField;
    location    "0.12";
    object      gradTx;
}
// * * * * * * * * * * * * * * * * * * * * * * * * * * * * * * * * * * * * * //

dimensions      [0 -1 0 1 0 0 0];

internalField   nonuniform List<scalar> 
1596
(
-0.209696
-1.05083
-1.86801
-2.57832
-3.16769
-3.62902
-3.98615
-4.25573
-4.46185
-4.64655
-4.82489
-5.04635
-5.36521
-5.85386
-6.59271
-7.76572
-9.64493
-12.8096
-18.4556
0.0514882
-0.85973
-1.66069
-2.33293
-2.88546
-3.31797
-3.65257
-3.89882
-4.07605
-4.20856
-4.30392
-4.39145
-4.48623
-4.60833
-4.76018
-4.9387
-5.07493
-5.01837
-4.43991
0.268329
-0.670497
-1.43322
-2.05304
-2.55607
-2.94969
-3.25321
-3.47369
-3.62503
-3.72189
-3.76746
-3.77881
-3.75821
-3.7104
-3.6292
-3.50043
-3.27122
-2.84312
-2.01214
0.311364
-0.545952
-1.22273
-1.76643
-2.20583
-2.55149
-2.81843
-3.01231
-3.14253
-3.21753
-3.23886
-3.21556
-3.1457
-3.02832
-2.85699
-2.61935
-2.28324
-1.79352
-1.03334
0.125708
-0.529549
-1.06681
-1.50802
-1.86935
-2.15826
-2.38368
-2.54955
-2.66143
-2.72332
-2.73629
-2.70394
-2.62307
-2.49028
-2.30022
-2.043
-1.70044
-1.24356
-0.608933
-0.263833
-0.639926
-0.996347
-1.31201
-1.58182
-1.80506
-1.98332
-2.11788
-2.21082
-2.26265
-2.2742
-2.24523
-2.17212
-2.05016
-1.87465
-1.63682
-1.32609
-0.927057
-0.406145
-0.774613
-0.866373
-1.0262
-1.20229
-1.37024
-1.51948
-1.64427
-1.74242
-1.81275
-1.85297
-1.86329
-1.84084
-1.78174
-1.6804
-1.53226
-1.32871
-1.06262
-0.724732
-0.296887
-1.30035
-1.16027
-1.13859
-1.17656
-1.24008
-1.31102
-1.37793
-1.43505
-1.47834
-1.50328
-1.50905
-1.49108
-1.44516
-1.36521
-1.24652
-1.08033
-0.860732
-0.580759
-0.229547
-1.83764
-1.54522
-1.37039
-1.27489
-1.22886
-1.21241
-1.21154
-1.21777
-1.22483
-1.22637
-1.22012
-1.2003
-1.16213
-1.09913
-1.00619
-0.874425
-0.697954
-0.47016
-0.182965
-2.15701
-1.81883
-1.55969
-1.3727
-1.24247
-1.15381
-1.09407
-1.05406
-1.02652
-1.00424
-0.983735
-0.958675
-0.923891
-0.872879
-0.800358
-0.697724
-0.559022
-0.37764
-0.146508
-2.4211
-2.07059
-1.7649
-1.51286
-1.31339
-1.15949
-1.04287
-0.955692
-0.890982
-0.84137
-0.80241
-0.76749
-0.731029
-0.686525
-0.628539
-0.548894
-0.441529
-0.299737
-0.116704
-2.69771
-2.35418
-2.02161
-1.71978
-1.45931
-1.2424
-1.06702
-0.928605
-0.821663
-0.739342
-0.676562
-0.626434
-0.582839
-0.539108
-0.48955
-0.426392
-0.343517
-0.23422
-0.0917229
-2.78954
-2.4938
-2.17319
-1.85792
-1.56751
-1.31228
-1.09648
-0.919787
-0.779276
-0.669531
-0.585665
-0.520986
-0.469193
-0.423657
-0.378629
-0.326896
-0.262565
-0.179278
-0.0705743
-2.83419
-2.58735
-2.29205
-1.97917
-1.67348
-1.39197
-1.14468
-0.935926
-0.765837
-0.630919
-0.526969
-0.447666
-0.386639
-0.337278
-0.293757
-0.249336
-0.198384
-0.135015
-0.0532686
-2.86244
-2.65833
-2.39137
-2.08887
-1.7771
-1.47776
-1.20578
-0.970035
-0.773924
-0.616122
-0.493444
-0.400032
-0.329506
-0.275206
-0.231181
-0.191002
-0.149273
-0.100584
-0.0395516
-2.83111
-2.67291
-2.43953
-2.15646
-1.84973
-1.54378
-1.25725
-1.00295
-0.787507
-0.61185
-0.474092
-0.368992
-0.290305
-0.231365
-0.186115
-0.148344
-0.112862
-0.0747011
-0.0290639
-2.73287
-2.61981
-2.42405
-2.16808
-1.87661
-1.57523
-1.28496
-1.02175
-0.79506
-0.608002
-0.460109
-0.346906
-0.262438
-0.200131
-0.153901
-0.11771
-0.0865563
-0.0558545
-0.0213394
-2.60711
-2.52448
-2.36286
-2.13598
-1.86511
-1.5754
-1.28915
-1.02453
-0.793293
-0.60049
-0.447008
-0.32917
-0.241391
-0.177257
-0.13071
-0.0958627
-0.0678745
-0.0424725
-0.0158319
-2.504
-2.44547
-2.30937
-2.10509
-1.85084
-1.57097
-1.28859
-1.02355
-0.789428
-0.592831
-0.435703
-0.314975
-0.225294
-0.160308
-0.113927
-0.080324
-0.0547486
-0.0331422
-0.0120043
-2.28767
-2.26401
-2.16142
-1.98927
-1.7633
-1.5061
-1.24047
-0.986952
-0.760368
-0.568594
-0.4146
-0.296084
-0.208157
-0.144778
-0.100045
-0.0683346
-0.0450828
-0.0264743
-0.00932161
-2.03274
-2.03733
-1.96642
-1.82691
-1.63221
-1.40275
-1.16029
-0.925166
-0.712714
-0.531609
-0.385578
-0.273037
-0.189636
-0.129775
-0.0878838
-0.0586539
-0.0377682
-0.0216601
-0.00743893
-1.75367
-1.77635
-1.73226
-1.624
-1.46201
-1.26405
-1.05011
-0.839462
-0.647177
-0.482183
-0.348633
-0.245579
-0.169261
-0.11466
-0.0767045
-0.050543
-0.0321879
-0.0183081
-0.00620806
-1.43006
-1.46123
-1.4398
-1.36337
-1.23834
-1.07871
-0.901575
-0.72399
-0.559909
-0.417932
-0.302357
-0.212895
-0.146524
-0.0990529
-0.0661738
-0.0437316
-0.0282369
-0.0166344
-0.00612517
-1.05181
-1.03953
-0.991174
-0.909109
-0.801406
-0.679195
-0.553927
-0.435312
-0.330443
-0.242889
-0.173609
-0.121269
-0.0831828
-0.0563692
-0.0380575
-0.0257866
-0.0174943
-0.0112279
-0.00481865
-0.703442
-0.774045
-0.828598
-0.849658
-0.829873
-0.771134
-0.682696
-0.577217
-0.467937
-0.365262
-0.275927
-0.203043
-0.146261
-0.103855
-0.0733914
-0.0523769
-0.0383601
-0.0291307
-0.0222326
-0.235144
-0.261635
-0.291625
-0.3159
-0.328072
-0.324919
-0.306835
-0.276634
-0.239182
-0.199364
-0.161079
-0.12727
-0.0987171
-0.0755654
-0.0574069
-0.0439047
-0.0343903
-0.0283459
-0.0249033
0.235232
0.20669
0.159319
0.101274
0.0415431
-0.0119086
-0.0536678
-0.0812981
-0.0955854
-0.0992024
-0.0953343
-0.0874275
-0.0773788
-0.0666006
-0.0559409
-0.0464506
-0.0387082
-0.0332911
-0.0300201
0.700224
0.661845
0.592623
0.50113
0.398069
0.294461
0.199671
0.119899
0.0576022
0.0121407
-0.0187365
-0.0384581
-0.0494798
-0.0538714
-0.0531424
-0.0493333
-0.0441795
-0.0395726
-0.0362711
1.11199
1.05405
0.959488
0.837812
0.700162
0.558545
0.423925
0.304256
0.203863
0.123533
0.0619446
0.0160443
-0.0166212
-0.0380837
-0.0496346
-0.0534816
-0.0519707
-0.0483853
-0.0448109
1.52572
1.44011
1.31518
1.16085
0.988869
0.811937
0.641764
0.487033
0.352998
0.241205
0.150914
0.0792768
0.0238181
-0.0173043
-0.0445823
-0.0594434
-0.0637533
-0.061833
-0.0575934
1.8209
1.70499
1.55372
1.37643
1.18438
0.989103
0.801129
0.628199
0.475296
0.344049
0.234091
0.142786
0.0676855
0.00711969
-0.0382991
-0.0682568
-0.082193
-0.0837663
-0.0782826
2.08148
1.94043
1.76384
1.56481
1.35501
1.14485
0.943468
0.757331
0.590751
0.445062
0.319977
0.212781
0.120613
0.0411556
-0.0247971
-0.0756373
-0.106806
-0.118123
-0.113798
2.30615
2.13192
1.92905
1.71089
1.48798
1.26878
1.06044
0.867782
0.69414
0.540339
0.406102
0.28872
0.184846
0.090859
0.00617007
-0.0688568
-0.126832
-0.161243
-0.165689
2.42774
2.20499
1.96517
1.72047
1.47953
1.24866
1.03296
0.83558
0.658669
0.502335
0.365763
0.246109
0.139499
0.0408391
-0.0533632
-0.146991
-0.236328
-0.314606
-0.367997
2.47909
2.23976
2.0015
1.77177
1.55359
1.34843
1.1575
0.981435
0.820912
0.675938
0.546321
0.430991
0.328019
0.234535
0.14721
0.0601629
-0.0310444
-0.130897
-0.239771
2.50055
2.25674
2.02852
1.81458
1.61314
1.42335
1.24514
1.07879
0.924977
0.78403
0.656229
0.541515
0.438949
0.3475
0.266137
0.193031
0.126349
0.0633822
8.43953e-05
2.32214
2.04534
1.79992
1.57866
1.37739
1.1939
1.02688
0.875393
0.738881
0.616419
0.507186
0.410252
0.324073
0.247337
0.179113
0.118486
0.0650885
0.0191978
-0.0193259
2.00494
1.75959
1.5446
1.35287
1.18022
1.02409
0.882802
0.755087
0.640126
0.536894
0.444581
0.362356
0.288934
0.22324
0.164477
0.111777
0.064567
0.0227696
-0.0139681
1.64232
1.44095
1.2631
1.1047
0.96272
0.835023
0.720017
0.616433
0.523407
0.439932
0.365252
0.298609
0.238915
0.185265
0.137009
0.0934256
0.054067
0.0189205
-0.0122548
1.22293
1.06995
0.935911
0.817511
0.712133
0.617866
0.533289
0.457288
0.389099
0.327884
0.273048
0.223998
0.179924
0.140163
0.104263
0.0717195
0.0422485
0.0158992
-0.0074659
0.764233
0.662466
0.576388
0.501922
0.436466
0.378359
0.326472
0.279981
0.238333
0.200957
0.167455
0.137441
0.110404
0.0859285
0.0637425
0.0435394
0.0251609
0.00866685
-0.00599605
0.291721
0.249799
0.215818
0.186928
0.161721
0.139441
0.119632
0.101975
0.086256
0.0722503
0.0597904
0.0487072
0.0387862
0.029846
0.0217549
0.0143726
0.00761495
0.00148218
-0.00405314
-0.291582
-0.249479
-0.215371
-0.186395
-0.161136
-0.138831
-0.119019
-0.101377
-0.0856868
-0.0717206
-0.0593082
-0.0482782
-0.0384149
-0.0295356
-0.0215077
-0.0141904
-0.00749863
-0.0014313
0.00404005
-0.7641
-0.662178
-0.575989
-0.501448
-0.435948
-0.377821
-0.325934
-0.279459
-0.23784
-0.200502
-0.167046
-0.137082
-0.110099
-0.0856809
-0.0635545
-0.0434127
-0.0250964
-0.00866389
0.00593928
-1.22279
-1.06966
-0.935514
-0.817037
-0.711611
-0.617321
-0.532741
-0.456754
-0.388591
-0.327413
-0.27262
-0.223619
-0.179595
-0.139886
-0.104038
-0.0715463
-0.0421254
-0.0158238
0.00749689
-1.64221
-1.44073
-1.2628
-1.10435
-0.962337
-0.834626
-0.719621
-0.616053
-0.523052
-0.439609
-0.364967
-0.298365
-0.238713
-0.185106
-0.136892
-0.0933504
-0.0540316
-0.0189223
0.0122183
-2.00486
-1.75943
-1.54437
-1.3526
-1.17992
-1.02378
-0.882494
-0.754793
-0.639855
-0.536651
-0.444371
-0.362181
-0.288795
-0.223136
-0.164407
-0.111737
-0.0645548
-0.0227795
0.0139426
-2.32212
-2.04527
-1.79979
-1.57849
-1.3772
-1.19371
-1.02669
-0.875224
-0.738738
-0.616306
-0.507106
-0.410204
-0.324056
-0.247351
-0.179153
-0.118548
-0.0651636
-0.0192708
0.0192702
-2.50051
-2.25648
-2.028
-1.8138
-1.61213
-1.42217
-1.24385
-1.07743
-0.923606
-0.782687
-0.65494
-0.540295
-0.437803
-0.346421
-0.265119
-0.192079
-0.125497
-0.0627209
0.000226278
-2.47949
-2.24084
-2.00327
-1.77418
-1.55654
-1.3518
-1.16117
-0.985266
-0.824799
-0.679791
-0.550077
-0.434617
-0.331517
-0.237943
-0.150596
-0.0636285
0.0274168
0.127098
0.235959
-2.42753
-2.20446
-1.96432
-1.71934
-1.4782
-1.24718
-1.0314
-0.833995
-0.657105
-0.500822
-0.364322
-0.244751
-0.138229
-0.0396533
0.0544881
0.148114
0.237583
0.316226
0.370287
-2.30628
-2.13224
-1.92954
-1.71153
-1.48873
-1.2696
-1.0613
-0.868654
-0.694988
-0.541139
-0.406839
-0.289387
-0.185438
-0.0913668
-0.00656828
0.0686202
0.126817
0.161482
0.166121
-2.08155
-1.94062
-1.76415
-1.56523
-1.35551
-1.14542
-0.94407
-0.75794
-0.59134
-0.44561
-0.320468
-0.213207
-0.120966
-0.0414201
0.0246458
0.0756314
0.106958
0.118395
0.114113
-1.82099
-1.7052
-1.55405
-1.37687
-1.18491
-0.989696
-0.801747
-0.628808
-0.475868
-0.344561
-0.234531
-0.143147
-0.0679632
-0.0073053
0.0382167
0.0682853
0.082321
0.0839536
0.0784702
-1.5258
-1.44033
-1.31553
-1.16132
-0.989434
-0.812555
-0.642394
-0.487636
-0.353545
-0.241677
-0.151301
-0.0795788
-0.0240351
0.0171726
0.0445351
0.0594742
0.0638437
0.0619542
0.0577124
-1.11207
-1.05426
-0.959842
-0.838283
-0.700715
-0.559139
-0.424515
-0.304803
-0.204342
-0.12393
-0.0622562
-0.0162742
0.0164672
0.0380003
0.0496142
0.053513
0.052037
0.0484681
0.0448916
-0.700316
-0.662085
-0.593008
-0.50163
-0.398643
-0.295056
-0.20024
-0.120406
-0.0580259
-0.0124736
0.01849
0.0382886
0.0493765
0.0538244
0.053141
0.0493656
0.0442322
0.0396344
0.0363314
-0.235315
-0.206927
-0.159702
-0.101766
-0.0420913
0.0113591
0.0531643
0.0808718
0.0952497
0.0989563
0.0951666
0.0873246
0.0773274
0.0665891
0.0559585
0.0464875
0.0387553
0.0333426
0.0300711
0.234942
0.261033
0.290649
0.314647
0.32668
0.32353
0.305564
0.275553
0.238319
0.198714
0.160612
0.126953
0.098513
0.0754442
0.0573424
0.0438773
0.0343856
0.0283574
0.0249341
0.703571
0.774531
0.829476
0.850878
0.831329
0.77269
0.684223
0.578613
0.46914
0.366249
0.276704
0.203636
0.146704
0.104183
0.0736353
0.0525624
0.0385064
0.0292516
0.0223346
1.05165
1.03899
0.990286
0.907967
0.800136
0.67792
0.552744
0.434283
0.329595
0.242221
0.173102
0.120896
0.082918
0.0561866
0.0379354
0.0257077
0.0174457
0.011201
0.00480916
1.43013
1.46138
1.44002
1.36362
1.23861
1.07896
0.901779
0.724145
0.560015
0.417998
0.302393
0.212911
0.146528
0.0990524
0.0661717
0.0437298
0.0282358
0.0166343
0.00612595
1.75368
1.77636
1.73227
1.62401
1.46201
1.26404
1.0501
0.839444
0.647158
0.482164
0.348616
0.245566
0.169251
0.114654
0.076702
0.0505426
0.0321889
0.0183095
0.006209
2.03274
2.03734
1.96643
1.82692
1.63221
1.40274
1.16028
0.925151
0.712698
0.531595
0.385567
0.27303
0.189632
0.129774
0.0878847
0.0586562
0.0377709
0.0216622
0.0074397
2.28767
2.26401
2.16142
1.98927
1.7633
1.50609
1.24046
0.986938
0.760355
0.568583
0.414592
0.296079
0.208156
0.144779
0.100048
0.0683387
0.0450867
0.026477
0.00932241
2.504
2.44548
2.30938
2.1051
1.85085
1.57097
1.28859
1.02354
0.789419
0.592824
0.435699
0.314973
0.225295
0.160311
0.113932
0.0803294
0.0547534
0.0331453
0.0120051
2.60711
2.52448
2.36287
2.13599
1.86511
1.5754
1.28914
1.02453
0.793286
0.600485
0.447005
0.32917
0.241394
0.177262
0.130717
0.0958691
0.0678797
0.0424756
0.0158326
2.73287
2.61982
2.42406
2.16808
1.87661
1.57523
1.28495
1.02175
0.795055
0.607998
0.460108
0.346908
0.262442
0.200138
0.153908
0.117717
0.0865612
0.0558569
0.0213398
2.83112
2.67292
2.43954
2.15647
1.84974
1.54379
1.25725
1.00295
0.787505
0.611849
0.474093
0.368996
0.290311
0.231372
0.186122
0.148349
0.112865
0.0747019
0.0290635
2.86244
2.65833
2.39137
2.08888
1.77711
1.47776
1.20578
0.970034
0.773923
0.616122
0.493447
0.400036
0.329511
0.275212
0.231185
0.191004
0.149272
0.100582
0.0395503
2.8342
2.58736
2.29205
1.97918
1.67348
1.39197
1.14468
0.935926
0.765838
0.630921
0.526972
0.44767
0.386643
0.33728
0.293756
0.249332
0.198378
0.13501
0.0532666
2.78955
2.49381
2.1732
1.85793
1.56752
1.31229
1.09648
0.91979
0.779279
0.669534
0.585668
0.520988
0.469193
0.423653
0.378621
0.326885
0.262552
0.179269
0.070572
2.69771
2.35418
2.0216
1.71978
1.4593
1.24239
1.06702
0.928603
0.821661
0.739341
0.67656
0.626429
0.58283
0.539095
0.489533
0.426372
0.343499
0.234209
0.0917211
2.42112
2.0706
1.76491
1.51286
1.31339
1.15949
1.04287
0.955694
0.890983
0.841368
0.802404
0.767479
0.731013
0.686503
0.628514
0.54887
0.44151
0.299728
0.116704
2.15703
1.81885
1.55969
1.37271
1.24247
1.15381
1.09407
1.05406
1.02652
1.00423
0.983721
0.958656
0.923866
0.87285
0.800329
0.697699
0.559007
0.377635
0.146511
1.83766
1.54523
1.37039
1.2749
1.22887
1.21241
1.21154
1.21777
1.22482
1.22636
1.2201
1.20028
1.1621
1.0991
1.00616
0.874407
0.697947
0.470162
0.182969
1.30036
1.16028
1.13859
1.17656
1.24008
1.31102
1.37793
1.43504
1.47833
1.50326
1.50902
1.49105
1.44513
1.36518
1.2465
1.08032
0.860737
0.580768
0.229552
0.774625
0.86638
1.02621
1.2023
1.37025
1.51948
1.64427
1.74241
1.81273
1.85295
1.86327
1.84082
1.78171
1.68038
1.53226
1.32872
1.06263
0.724746
0.296891
0.26384
0.639936
0.99636
1.31202
1.58183
1.80506
1.98332
2.11787
2.2108
2.26263
2.27418
2.24521
2.17211
2.05016
1.87467
1.63684
1.32611
0.927072
0.406146
-0.125703
0.529559
1.06682
1.50803
1.86935
2.15826
2.38368
2.54954
2.66142
2.7233
2.73628
2.70394
2.62308
2.4903
2.30025
2.04303
1.70047
1.24357
0.60893
-0.311363
0.545961
1.22274
1.76643
2.20583
2.55149
2.81843
3.0123
3.14252
3.21753
3.23886
3.21557
3.14572
3.02835
2.85702
2.61938
2.28326
1.79352
1.03333
-0.26833
0.670499
1.43322
2.05304
2.55607
2.94968
3.25321
3.47369
3.62503
3.72189
3.76747
3.77883
3.75823
3.71042
3.62922
3.50044
3.27122
2.84311
2.01213
-0.0514875
0.859728
1.66068
2.33292
2.88545
3.31796
3.65256
3.89882
4.07606
4.20857
4.30394
4.39148
4.48626
4.60834
4.76019
4.93869
5.07491
5.01835
4.4399
0.209698
1.05083
1.868
2.57831
3.16768
3.62901
3.98615
4.25574
4.46186
4.64657
4.82491
5.04637
5.36521
5.85385
6.59269
7.7657
9.64491
12.8096
18.4556
)
;

boundaryField
{
    up
    {
        type            calculated;
        value           nonuniform List<scalar> 
84
(
-18.4556
-4.43991
-2.01214
-1.03334
-0.608933
-0.406145
-0.296887
-0.229547
-0.182965
-0.146508
-0.116704
-0.0917229
-0.0705743
-0.0532686
-0.0395516
-0.0290639
-0.0213394
-0.0158319
-0.0120043
-0.00932161
-0.00743893
-0.00620806
-0.00612517
-0.00481865
-0.0185211
-0.0225479
-0.027332
-0.0329021
-0.0402973
-0.0512017
-0.0685456
-0.0966166
-0.136045
-0.351113
-0.242961
-0.000100392
-0.0190345
-0.0137802
-0.0121443
-0.00741786
-0.0059742
-0.00404667
0.00403363
0.00591773
0.00744912
0.0121086
0.0137557
0.0189799
0.00040503
0.239138
0.353777
0.136446
0.0968698
0.0686953
0.0512969
0.0403629
0.0329527
0.0273771
0.0225859
0.0186084
0.00480916
0.00612595
0.006209
0.0074397
0.00932241
0.0120051
0.0158326
0.0213398
0.0290635
0.0395503
0.0532666
0.070572
0.0917211
0.116704
0.146511
0.182969
0.229552
0.296891
0.406146
0.60893
1.03333
2.01213
4.4399
18.4556
)
;
    }
    low
    {
        type            calculated;
        value           nonuniform List<scalar> 
84
(
-0.188459
0.0840883
0.320067
0.366517
0.159677
-0.269982
-0.82414
-1.38193
-1.93084
-2.23366
-2.49005
-2.75664
-2.82135
-2.85073
-2.8704
-2.82394
-2.71181
-2.58253
-2.46946
-2.23273
-1.96566
-1.68108
-1.35537
-0.983821
-0.648328
-0.214873
0.212079
0.643506
1.04141
1.45888
1.77083
2.04497
2.28724
2.42977
2.49666
2.5359
2.37506
2.05826
1.68824
1.25855
0.787425
0.301308
-0.301167
-0.787289
-1.25841
-1.68811
-2.05816
-2.37501
-2.53584
-2.49699
-2.42957
-2.28734
-2.04503
-1.77091
-1.45897
-1.04149
-0.643602
-0.212163
0.214674
0.648453
0.983671
1.35544
1.68108
1.96566
2.23273
2.46946
2.58254
2.71181
2.82395
2.8704
2.85073
2.82136
2.75663
2.49006
2.23368
1.93086
1.38194
0.824151
0.26999
-0.159673
-0.366518
-0.320073
-0.0840929
0.188459
)
;
    }
    left
    {
        type            calculated;
        value           nonuniform List<scalar> 
19
(
-0.187766
-1.01382
-1.85082
-2.58853
-3.20542
-3.68955
-4.06602
-4.35391
-4.57696
-4.78632
-4.99707
-5.26331
-5.65407
-6.26308
-7.18923
-8.68785
-11.1354
-15.3407
-16.0043
)
;
    }
    right
    {
        type            calculated;
        value           nonuniform List<scalar> 
19
(
0.187769
1.01382
1.85082
2.58852
3.20541
3.68954
4.06602
4.35391
4.57697
4.78633
4.99708
5.26332
5.65407
6.26306
7.1892
8.68782
11.1354
15.3407
16.0043
)
;
    }
    frontAndBackPlanes
    {
        type            empty;
    }
}


// ************************************************************************* //
