/*--------------------------------*- C++ -*----------------------------------*\
  =========                 |
  \\      /  F ield         | OpenFOAM: The Open Source CFD Toolbox
   \\    /   O peration     | Website:  https://openfoam.org
    \\  /    A nd           | Version:  7
     \\/     M anipulation  |
\*---------------------------------------------------------------------------*/
FoamFile
{
    version     2.0;
    format      ascii;
    class       volScalarField;
    location    "0.12";
    object      gradTy;
}
// * * * * * * * * * * * * * * * * * * * * * * * * * * * * * * * * * * * * * //

dimensions      [0 -1 0 1 0 0 0];

internalField   nonuniform List<scalar> 
1596
(
-0.437333
-0.805518
-1.09402
-1.35314
-1.57927
-1.80445
-2.01062
-2.23244
-2.47912
-2.75606
-3.14704
-3.64486
-4.35815
-5.40838
-7.09404
-9.77326
-14.6211
-23.6083
-55.7635
-1.32238
-1.61001
-1.77739
-1.90447
-2.00137
-2.10793
-2.21223
-2.34827
-2.5268
-2.74732
-3.08232
-3.51846
-4.13009
-4.9723
-6.20076
-7.88742
-10.4275
-14.1786
-24.8278
-2.33902
-2.406
-2.40219
-2.38176
-2.34777
-2.33714
-2.3392
-2.3851
-2.4838
-2.63087
-2.88728
-3.23352
-3.7223
-4.37873
-5.29932
-6.48953
-8.16636
-10.4743
-15.406
-3.36777
-3.15366
-2.95938
-2.78852
-2.62787
-2.50491
-2.40832
-2.36445
-2.3799
-2.4477
-2.61808
-2.86852
-3.23698
-3.73331
-4.4209
-5.27966
-6.43984
-7.95497
-10.5304
-4.27093
-3.80953
-3.44207
-3.13343
-2.85761
-2.63146
-2.44339
-2.3143
-2.24881
-2.23877
-2.32466
-2.48393
-2.74407
-3.10742
-3.61807
-4.2483
-5.08287
-6.1354
-7.66159
-4.94009
-4.33706
-3.8451
-3.4259
-3.05334
-2.73721
-2.46775
-2.26096
-2.12045
-2.03803
-2.04551
-2.12224
-2.28785
-2.5411
-2.91384
-3.37844
-3.99367
-4.75643
-5.76223
-5.33376
-4.71304
-4.16236
-3.6705
-3.22535
-2.83597
-2.49743
-2.22254
-2.015
-1.86771
-1.80492
-1.80892
-1.89319
-2.05468
-2.31672
-2.65481
-3.11136
-3.67739
-4.38947
-5.47553
-4.9293
-4.38426
-3.86219
-3.3726
-2.92979
-2.53658
-2.20495
-1.93996
-1.73652
-1.61271
-1.55414
-1.56934
-1.65433
-1.8259
-2.06349
-2.3982
-2.82021
-3.34357
-5.431
-5.019
-4.5288
-4.01333
-3.50485
-3.02694
-2.59208
-2.21393
-1.90009
-1.64828
-1.47195
-1.36001
-1.31706
-1.33856
-1.43589
-1.59222
-1.82998
-2.14042
-2.52859
-5.24972
-4.97045
-4.56289
-4.08612
-3.58614
-3.09575
-2.63685
-2.22671
-1.87635
-1.58681
-1.36864
-1.21373
-1.12388
-1.09414
-1.13153
-1.22235
-1.38231
-1.60437
-1.89008
-5.05773
-4.86371
-4.53192
-4.10461
-3.62836
-3.14086
-2.67116
-2.24066
-1.86406
-1.54595
-1.29537
-1.1069
-0.980399
-0.910662
-0.901111
-0.940374
-1.03873
-1.1905
-1.39578
-4.84686
-4.7359
-4.47155
-4.09364
-3.64683
-3.17055
-2.69844
-2.25566
-1.86043
-1.52077
-1.24532
-1.03092
-0.876231
-0.775877
-0.73041
-0.730043
-0.780659
-0.877456
-1.01977
-4.60405
-4.56431
-4.36176
-4.03299
-3.62009
-3.16302
-2.69765
-2.25217
-1.84765
-1.49505
-1.20341
-0.971404
-0.79713
-0.675126
-0.603814
-0.574464
-0.58958
-0.644887
-0.739231
-4.40294
-4.39723
-4.2381
-3.94921
-3.56679
-3.12986
-2.6748
-2.23189
-1.82423
-1.46503
-1.16405
-0.921269
-0.734593
-0.598508
-0.509874
-0.460578
-0.450584
-0.475797
-0.534663
-4.22795
-4.24758
-4.11725
-3.85701
-3.49832
-3.0787
-2.63414
-2.19619
-1.78925
-1.42807
-1.12305
-0.875017
-0.681791
-0.537783
-0.43871
-0.376776
-0.350089
-0.354546
-0.38824
-4.06279
-4.1091
-4.00082
-3.76063
-3.41875
-3.01226
-2.57676
-2.14462
-1.74097
-1.3814
-1.07671
-0.828106
-0.633253
-0.486411
-0.382447
-0.313685
-0.276926
-0.267977
-0.284656
-3.9201
-3.98441
-3.89196
-3.66458
-3.33269
-2.93421
-2.505
-2.07817
-1.67917
-1.32386
-1.02303
-0.777744
-0.585368
-0.439864
-0.335417
-0.264343
-0.222547
-0.205738
-0.211541
-3.80148
-3.87902
-3.79716
-3.57636
-3.248
-2.85184
-2.42499
-2.00149
-1.60705
-1.25737
-0.962723
-0.723612
-0.536808
-0.395798
-0.294144
-0.224072
-0.180868
-0.160161
-0.159458
-3.67974
-3.79
-3.72231
-3.50567
-3.17598
-2.77652
-2.34714
-1.92348
-1.5317
-1.18721
-0.899406
-0.667838
-0.488363
-0.353789
-0.257019
-0.190107
-0.147879
-0.125904
-0.121622
-3.54783
-3.70087
-3.6542
-3.44334
-3.11056
-2.70456
-2.26936
-1.84305
-1.45265
-1.11322
-0.832964
-0.61019
-0.439546
-0.312963
-0.222643
-0.160418
-0.120781
-0.0992735
-0.0933256
-3.43571
-3.62261
-3.59782
-3.3933
-3.05591
-2.64037
-2.19604
-1.76431
-1.37349
-1.03838
-0.765743
-0.552352
-0.391382
-0.273714
-0.190778
-0.134144
-0.0980367
-0.078016
-0.0715553
-3.33354
-3.55578
-3.55373
-3.35641
-3.01397
-2.58705
-2.13108
-1.69145
-1.2983
-0.966313
-0.700713
-0.496588
-0.345434
-0.236946
-0.161726
-0.111033
-0.0788426
-0.06074
-0.0543336
-3.23297
-3.49607
-3.51969
-3.33145
-2.98476
-2.54598
-2.07702
-1.62774
-1.23056
-0.900307
-0.6407
-0.44512
-0.303285
-0.203655
-0.135979
-0.091161
-0.0628757
-0.0466093
-0.0401814
-3.1366
-3.44123
-3.49108
-3.31189
-2.96066
-2.50913
-2.02622
-1.56621
-1.16408
-0.835075
-0.581023
-0.393914
-0.26147
-0.170885
-0.110999
-0.0724423
-0.0484204
-0.0340099
-0.0259774
-3.05309
-3.39809
-3.48466
-3.33272
-2.99852
-2.55372
-2.07036
-1.60502
-1.19558
-0.859562
-0.599087
-0.40715
-0.271012
-0.177851
-0.116171
-0.0765803
-0.0517548
-0.0363954
-0.0262483
-2.98983
-3.36293
-3.47973
-3.35783
-3.04913
-2.62149
-2.14604
-1.67998
-1.26355
-0.917265
-0.645174
-0.442358
-0.296819
-0.196099
-0.128648
-0.085068
-0.0576722
-0.0410477
-0.0309693
-2.98174
-3.36067
-3.49226
-3.39155
-3.10521
-2.69624
-2.2322
-1.76928
-1.34862
-0.993052
-0.708949
-0.493563
-0.336209
-0.225227
-0.149429
-0.0995945
-0.0678704
-0.048575
-0.0370927
-3.03631
-3.39805
-3.52532
-3.43234
-3.16114
-2.76907
-2.31848
-1.86254
-1.44166
-1.07987
-0.785435
-0.55782
-0.387845
-0.264958
-0.178662
-0.120355
-0.0823351
-0.0588554
-0.0448123
-3.14448
-3.47522
-3.5832
-3.48641
-3.22347
-2.84576
-2.40952
-1.96346
-1.54585
-1.18093
-0.878186
-0.639189
-0.45626
-0.320047
-0.220889
-0.151229
-0.104024
-0.0739906
-0.0556432
-3.30051
-3.58351
-3.6606
-3.55194
-3.29238
-2.92717
-2.50606
-2.07248
-1.66162
-1.29704
-0.98878
-0.740333
-0.545346
-0.395531
-0.281806
-0.197793
-0.137601
-0.0974388
-0.0720437
-3.49932
-3.72202
-3.76271
-3.63778
-3.37818
-3.02336
-2.61693
-2.19682
-1.79469
-1.43286
-1.12147
-0.865705
-0.660412
-0.498113
-0.369589
-0.268988
-0.191298
-0.13554
-0.0983821
-3.70286
-3.87604
-3.88265
-3.74103
-3.48029
-3.13503
-2.74326
-2.3376
-1.94604
-1.58938
-1.27746
-1.01715
-0.804608
-0.633293
-0.493117
-0.377315
-0.279368
-0.200686
-0.143102
-3.92831
-4.05137
-4.02273
-3.86287
-3.59934
-3.26241
-2.88492
-2.49435
-2.11499
-1.76582
-1.456
-1.19404
-0.977834
-0.802679
-0.65812
-0.536018
-0.424187
-0.320583
-0.223892
-4.18845
-4.25738
-4.19218
-4.01358
-3.74718
-3.41913
-3.05707
-2.6837
-2.31947
-1.98118
-1.67732
-1.41736
-1.20143
-1.02815
-0.889633
-0.779548
-0.682178
-0.589524
-0.491781
-4.47029
-4.48136
-4.37062
-4.16293
-3.88284
-3.5535
-3.19777
-2.83451
-2.48063
-2.15005
-1.85077
-1.59124
-1.37307
-1.19713
-1.06007
-0.960379
-0.888518
-0.837609
-0.796356
-4.78513
-4.72017
-4.5516
-4.30453
-4.0007
-3.66025
-3.30187
-2.94163
-2.59372
-2.26947
-1.9767
-1.72208
-1.5075
-1.33362
-1.19866
-1.10108
-1.03634
-1.00187
-0.993794
-5.13186
-4.9779
-4.7486
-4.46096
-4.1315
-3.77663
-3.41177
-3.05066
-2.70558
-2.3862
-2.09983
-1.85202
-1.64436
-1.4769
-1.34756
-1.25289
-1.18722
-1.14514
-1.12014
-5.43859
-5.20654
-4.92369
-4.59958
-4.24642
-3.87743
-3.50556
-3.14251
-2.79897
-2.48326
-2.20188
-1.95959
-1.75752
-1.5953
-1.47068
-1.37998
-1.31763
-1.27835
-1.25589
-5.67585
-5.393
-5.07163
-4.71992
-4.34833
-3.9682
-3.59075
-3.2262
-2.88401
-2.57146
-2.29441
-2.05703
-1.86009
-1.70297
-1.58336
-1.49739
-1.4396
-1.40464
-1.38627
-5.86092
-5.54026
-5.1898
-4.81705
-4.43129
-4.04254
-3.66076
-3.29503
-2.95392
-2.64389
-2.37038
-2.13706
-1.94446
-1.79173
-1.67653
-1.5948
-1.54118
-1.51022
-1.4957
-5.99502
-5.64623
-5.27389
-4.88564
-4.48967
-4.09484
-3.71005
-3.34358
-3.00333
-2.69521
-2.42435
-2.19408
-2.00474
-1.85536
-1.74353
-1.66504
-1.61453
-1.58644
-1.57453
-6.08673
-5.70784
-5.31868
-4.92049
-4.51866
-4.1206
-3.73438
-3.36772
-3.02814
-2.72124
-2.45197
-2.2235
-2.03609
-1.88868
-1.77888
-1.70242
-1.654
-1.62803
-1.61827
-6.08675
-5.70789
-5.31874
-4.92057
-4.51874
-4.12068
-3.73447
-3.36781
-3.02824
-2.72134
-2.45208
-2.22361
-2.0362
-1.88878
-1.77899
-1.70253
-1.65412
-1.62816
-1.6184
-5.99506
-5.64633
-5.27404
-4.88582
-4.48988
-4.09507
-3.71031
-3.34385
-3.00361
-2.69549
-2.42464
-2.19437
-2.00505
-1.85567
-1.74386
-1.66538
-1.61489
-1.58684
-1.57496
-5.86098
-5.54041
-5.19003
-4.81734
-4.43163
-4.04292
-3.66117
-3.29546
-2.95437
-2.64435
-2.37086
-2.13754
-1.94495
-1.79223
-1.67705
-1.59535
-1.54176
-1.51084
-1.49636
-5.67592
-5.3932
-5.07193
-4.7203
-4.34877
-3.96869
-3.59129
-3.22676
-2.8846
-2.57206
-2.29503
-2.05765
-1.86072
-1.70361
-1.58402
-1.49807
-1.44031
-1.40539
-1.38707
-5.43868
-5.20676
-4.92403
-4.60001
-4.24694
-3.87801
-3.50619
-3.14319
-2.79968
-2.48399
-2.20262
-1.96034
-1.75827
-1.59606
-1.47146
-1.38077
-1.31845
-1.27921
-1.2568
-5.13196
-4.97815
-4.74898
-4.46144
-4.13207
-3.77729
-3.41249
-3.05143
-2.70639
-2.38702
-2.10066
-1.85285
-1.64519
-1.47773
-1.34839
-1.25373
-1.18807
-1.14601
-1.12103
-4.78524
-4.72047
-4.55208
-4.30517
-4.00148
-3.66117
-3.3029
-2.94273
-2.59488
-2.27067
-1.97791
-1.7233
-1.50872
-1.33485
-1.1999
-1.10232
-1.03755
-1.00299
-0.994737
-4.47036
-4.48142
-4.37075
-4.16317
-3.88321
-3.55402
-3.19841
-2.83524
-2.48143
-2.15088
-1.85159
-1.592
-1.37374
-1.19769
-1.06052
-0.960755
-0.888949
-0.838337
-0.797743
-4.18849
-4.25761
-4.19264
-4.01431
-3.74819
-3.42041
-3.0586
-2.68541
-2.32131
-1.98307
-1.67922
-1.41921
-1.20321
-1.02989
-0.89137
-0.781382
-0.684244
-0.591963
-0.494693
-3.92831
-4.05143
-4.02295
-3.8633
-3.60001
-3.26331
-2.88601
-2.49559
-2.11631
-1.76715
-1.4573
-1.19528
-0.978989
-0.803772
-0.659187
-0.537097
-0.42527
-0.321591
-0.224655
-3.70284
-3.87607
-3.88282
-3.74143
-3.48092
-3.1359
-2.74432
-2.33879
-1.94729
-1.59062
-1.27864
-1.01825
-0.805615
-0.634219
-0.49398
-0.378122
-0.280094
-0.201276
-0.143521
-3.49929
-3.72202
-3.76283
-3.63812
-3.37875
-3.02417
-2.61792
-2.19792
-1.79583
-1.43398
-1.12251
-0.866643
-0.661244
-0.498849
-0.370238
-0.269552
-0.191767
-0.135901
-0.0986294
-3.30048
-3.58348
-3.66069
-3.55223
-3.2929
-2.92791
-2.50697
-2.07349
-1.66265
-1.29802
-0.989673
-0.741117
-0.54602
-0.396103
-0.282285
-0.198186
-0.137909
-0.0976678
-0.0721997
-3.14444
-3.47517
-3.58325
-3.48666
-3.22394
-2.84644
-2.41034
-1.96436
-1.54676
-1.18178
-0.87894
-0.639834
-0.456797
-0.320487
-0.221242
-0.151505
-0.104232
-0.0741419
-0.0557474
-3.03627
-3.39799
-3.52536
-3.43255
-3.16156
-2.76967
-2.31921
-1.86333
-1.44244
-1.08059
-0.78606
-0.558341
-0.388268
-0.265294
-0.178922
-0.120551
-0.0824796
-0.0589606
-0.0448876
-2.9817
-3.36061
-3.49229
-3.39173
-3.10558
-2.69677
-2.23283
-1.76996
-1.34928
-0.993646
-0.709457
-0.49398
-0.33654
-0.225484
-0.149623
-0.0997385
-0.0679755
-0.0486532
-0.0371534
-2.98978
-3.36286
-3.47974
-3.35796
-3.0494
-2.62188
-2.14651
-1.68048
-1.26403
-0.917701
-0.645543
-0.442657
-0.297054
-0.196279
-0.128781
-0.0851648
-0.0577424
-0.0411019
-0.0310191
-3.05313
-3.39812
-3.48471
-3.33281
-2.99866
-2.5539
-2.07057
-1.60524
-1.1958
-0.859764
-0.599265
-0.407304
-0.271141
-0.177956
-0.116256
-0.0766476
-0.0518083
-0.036437
-0.0262738
-3.13665
-3.44126
-3.49107
-3.31184
-2.96056
-2.50899
-2.02606
-1.56604
-1.16391
-0.834929
-0.580901
-0.393818
-0.261396
-0.170831
-0.11096
-0.0724136
-0.0483991
-0.0339922
-0.0259545
-3.233
-3.49609
-3.51971
-3.33145
-2.98475
-2.54597
-2.07701
-1.62774
-1.23056
-0.900316
-0.640711
-0.445131
-0.303296
-0.203664
-0.135985
-0.0911658
-0.0628793
-0.0466122
-0.0401817
-3.33356
-3.55579
-3.55374
-3.3564
-3.01395
-2.58703
-2.13106
-1.69144
-1.2983
-0.966314
-0.700716
-0.496593
-0.345439
-0.23695
-0.161729
-0.111036
-0.0788453
-0.0607425
-0.0543352
-3.43572
-3.62262
-3.59782
-3.39329
-3.05589
-2.64036
-2.19603
-1.7643
-1.37349
-1.03838
-0.765745
-0.552354
-0.391385
-0.273716
-0.19078
-0.134146
-0.0980396
-0.0780196
-0.0715585
-3.54784
-3.70087
-3.6542
-3.44333
-3.11055
-2.70455
-2.26935
-1.84304
-1.45264
-1.11322
-0.832965
-0.61019
-0.439546
-0.312963
-0.222644
-0.160421
-0.120784
-0.099279
-0.0933309
-3.67975
-3.79
-3.72231
-3.50567
-3.17597
-2.77652
-2.34714
-1.92348
-1.5317
-1.18721
-0.899404
-0.667836
-0.488362
-0.353788
-0.25702
-0.19011
-0.147885
-0.125912
-0.121629
-3.80149
-3.87902
-3.79716
-3.57636
-3.248
-2.85183
-2.42499
-2.00149
-1.60705
-1.25737
-0.962719
-0.723608
-0.536804
-0.395796
-0.294144
-0.224076
-0.180876
-0.160172
-0.159468
-3.92011
-3.98441
-3.89195
-3.66457
-3.33269
-2.93421
-2.50501
-2.07817
-1.67916
-1.32385
-1.02302
-0.777737
-0.585363
-0.439861
-0.335417
-0.264348
-0.222558
-0.205752
-0.211553
-4.06279
-4.1091
-4.00082
-3.76063
-3.41875
-3.01226
-2.57676
-2.14462
-1.74096
-1.38139
-1.07671
-0.828098
-0.633246
-0.486407
-0.382449
-0.313693
-0.276939
-0.267994
-0.28467
-4.22794
-4.24757
-4.11724
-3.85701
-3.49833
-3.07871
-2.63415
-2.19619
-1.78925
-1.42806
-1.12304
-0.875008
-0.681784
-0.53778
-0.438712
-0.376785
-0.350103
-0.354562
-0.388251
-4.40293
-4.39722
-4.2381
-3.94921
-3.5668
-3.12987
-2.6748
-2.23189
-1.82422
-1.46502
-1.16404
-0.921259
-0.734585
-0.598506
-0.509878
-0.460588
-0.450597
-0.47581
-0.534669
-4.60404
-4.56431
-4.36176
-4.03299
-3.6201
-3.16303
-2.69766
-2.25217
-1.84765
-1.49504
-1.2034
-0.971393
-0.797123
-0.675126
-0.60382
-0.574473
-0.58959
-0.644891
-0.739228
-4.84684
-4.73589
-4.47156
-4.09365
-3.64684
-3.17055
-2.69844
-2.25565
-1.86042
-1.52076
-1.2453
-1.03091
-0.876226
-0.775878
-0.730415
-0.73005
-0.78066
-0.877447
-1.01975
-5.05771
-4.86371
-4.53193
-4.10462
-3.62837
-3.14086
-2.67116
-2.24065
-1.86404
-1.54594
-1.29536
-1.1069
-0.980398
-0.910665
-0.901116
-0.940375
-1.03872
-1.19048
-1.39576
-5.2497
-4.97045
-4.5629
-4.08614
-3.58614
-3.09575
-2.63685
-2.22671
-1.87634
-1.5868
-1.36863
-1.21373
-1.12388
-1.09415
-1.13153
-1.22234
-1.38229
-1.60433
-1.89005
-5.43099
-5.01902
-4.52882
-4.01334
-3.50485
-3.02694
-2.59208
-2.21392
-1.90008
-1.64827
-1.47195
-1.36001
-1.31707
-1.33856
-1.43589
-1.59221
-1.82994
-2.14037
-2.52857
-5.47554
-4.92932
-4.38427
-3.8622
-3.3726
-2.92979
-2.53658
-2.20494
-1.93996
-1.73652
-1.61272
-1.55415
-1.56934
-1.65433
-1.82589
-2.06347
-2.39816
-2.82016
-3.34356
-5.33378
-4.71306
-4.16237
-3.6705
-3.22535
-2.83597
-2.49743
-2.22254
-2.01501
-1.86771
-1.80493
-1.80893
-1.89319
-2.05468
-2.31671
-2.65479
-3.11132
-3.67735
-4.38948
-4.94011
-4.33707
-3.84511
-3.42591
-3.05334
-2.73721
-2.46775
-2.26097
-2.12046
-2.03805
-2.04553
-2.12225
-2.28786
-2.54109
-2.91382
-3.37841
-3.99365
-4.75641
-5.76225
-4.27095
-3.80954
-3.44208
-3.13343
-2.85762
-2.63147
-2.4434
-2.31431
-2.24883
-2.23879
-2.32468
-2.48394
-2.74407
-3.10741
-3.61805
-4.24828
-5.08286
-6.13541
-7.66162
-3.36779
-3.15366
-2.95938
-2.78852
-2.62788
-2.50493
-2.40833
-2.36447
-2.37992
-2.44772
-2.6181
-2.86853
-3.23698
-3.7333
-4.42088
-5.27965
-6.43984
-7.955
-10.5305
-2.33903
-2.40599
-2.40219
-2.38176
-2.34777
-2.33715
-2.33921
-2.38512
-2.48382
-2.63088
-2.8873
-3.23353
-3.7223
-4.37872
-5.2993
-6.48952
-8.16637
-10.4743
-15.406
-1.32239
-1.61001
-1.77738
-1.90446
-2.00137
-2.10794
-2.21224
-2.34828
-2.52682
-2.74733
-3.08233
-3.51846
-4.13009
-4.97229
-6.20074
-7.88741
-10.4275
-14.1786
-24.8278
-0.437336
-0.805516
-1.09402
-1.35314
-1.57927
-1.80445
-2.01062
-2.23244
-2.47912
-2.75606
-3.14704
-3.64486
-4.35815
-5.40836
-7.09402
-9.77324
-14.6211
-23.6083
-55.7635
)
;

boundaryField
{
    up
    {
        type            calculated;
        value           nonuniform List<scalar> 
84
(
-50.5369
-27.3706
-16.7633
-11.3446
-8.20379
-6.15117
-4.68057
-3.56507
-2.69628
-2.01534
-1.48683
-1.08381
-0.782815
-0.56313
-0.406001
-0.295164
-0.217333
-0.162308
-0.122706
-0.0934151
-0.0711217
-0.0536181
-0.0389357
-0.0228178
-0.0218723
-0.0282833
-0.0340275
-0.0409705
-0.0504963
-0.0647551
-0.0872787
-0.123509
-0.190088
-0.472528
-0.804573
-0.999004
-1.11127
-1.24842
-1.38066
-1.49186
-1.5719
-1.61671
-1.61685
-1.57234
-1.49254
-1.38149
-1.24936
-1.11218
-0.999777
-0.806055
-0.475866
-0.190816
-0.123857
-0.0874828
-0.0648838
-0.0505832
-0.0410347
-0.0340814
-0.0283414
-0.0219004
-0.02279
-0.0389335
-0.0536186
-0.0711242
-0.0934196
-0.122713
-0.162317
-0.217344
-0.295174
-0.406008
-0.56313
-0.782807
-1.0838
-1.48681
-2.01532
-2.69627
-3.56508
-4.6806
-6.15122
-8.20384
-11.3446
-16.7633
-27.3706
-50.5369
)
;
    }
    low
    {
        type            calculated;
        value           nonuniform List<scalar> 
84
(
-0.470056
-1.38461
-2.47165
-3.58649
-4.56695
-5.28304
-5.68116
-5.79329
-5.68293
-5.42229
-5.19199
-4.94587
-4.65364
-4.42745
-4.2392
-4.0529
-3.89089
-3.76691
-3.63115
-3.46634
-3.32718
-3.20224
-3.07396
-2.95132
-2.82453
-2.74066
-2.73499
-2.81885
-2.96588
-3.16997
-3.4113
-3.64265
-3.89828
-4.19172
-4.49997
-4.84896
-5.24198
-5.57594
-5.82756
-6.02442
-6.16812
-6.27525
-6.27527
-6.16814
-6.02445
-5.8276
-5.57599
-5.24204
-4.84903
-4.49993
-4.19176
-3.89823
-3.64262
-3.41126
-3.16994
-2.96585
-2.81883
-2.73498
-2.74066
-2.82454
-2.95139
-3.07396
-3.20225
-3.32719
-3.46635
-3.63116
-3.76692
-3.89089
-4.0529
-4.2392
-4.42744
-4.65363
-4.94585
-5.19196
-5.42227
-5.68291
-5.79329
-5.68117
-5.28306
-4.56697
-3.58652
-2.47167
-1.38462
-0.470061
)
;
    }
    left
    {
        type            calculated;
        value           nonuniform List<scalar> 
19
(
-0.429584
-0.792141
-1.08767
-1.35709
-1.59453
-1.83048
-2.04693
-2.28009
-2.53909
-2.83396
-3.25199
-3.78892
-4.56804
-5.73464
-7.62315
-10.6731
-16.2517
-26.7099
-52.409
)
;
    }
    right
    {
        type            calculated;
        value           nonuniform List<scalar> 
19
(
-0.429587
-0.792141
-1.08767
-1.35709
-1.59452
-1.83048
-2.04693
-2.28009
-2.53909
-2.83396
-3.252
-3.78892
-4.56803
-5.73462
-7.62312
-10.6731
-16.2517
-26.71
-52.409
)
;
    }
    frontAndBackPlanes
    {
        type            empty;
    }
}


// ************************************************************************* //
