/*--------------------------------*- C++ -*----------------------------------*\
  =========                 |
  \\      /  F ield         | OpenFOAM: The Open Source CFD Toolbox
   \\    /   O peration     | Website:  https://openfoam.org
    \\  /    A nd           | Version:  7
     \\/     M anipulation  |
\*---------------------------------------------------------------------------*/
FoamFile
{
    version     2.0;
    format      ascii;
    class       volScalarField;
    location    "0.12";
    object      T;
}
// * * * * * * * * * * * * * * * * * * * * * * * * * * * * * * * * * * * * * //

dimensions      [0 0 0 1 0 0 0];

internalField   nonuniform List<scalar> 
1596
(
2.98674
2.94897
2.9112
2.87707
2.84792
2.82382
2.80434
2.78822
2.77447
2.76087
2.74571
2.7266
2.69887
2.65652
2.59088
2.48371
2.30193
1.97988
1.38589
2.94306
2.82636
2.71897
2.6249
2.54543
2.47995
2.42699
2.38373
2.34752
2.31397
2.27933
2.23891
2.18513
2.10925
2.0011
1.8434
1.61107
1.26242
0.719214
2.89258
2.69842
2.52804
2.38191
2.25956
2.15922
2.07831
2.01296
1.95938
1.91214
1.86643
1.81664
1.75456
1.67121
1.55714
1.3982
1.1767
0.867335
0.424589
2.84469
2.58056
2.35507
2.16425
2.00542
1.87557
1.77117
1.68761
1.62041
1.56363
1.51203
1.4597
1.39865
1.32045
1.21668
1.07582
0.885052
0.628512
0.279321
2.80739
2.48575
2.2139
1.98502
1.79486
1.63947
1.51463
1.41529
1.33655
1.27229
1.21713
1.16512
1.10877
1.04032
0.952269
0.834946
0.678418
0.471854
0.198452
2.78495
2.42128
2.11225
1.8513
1.63384
1.45566
1.3122
1.19827
1.10872
1.03743
0.97901
0.927599
0.876197
0.817722
0.74538
0.650793
0.525731
0.361954
0.147947
2.77671
2.38707
2.05023
1.76285
1.52155
1.32263
1.16168
1.03359
0.933214
0.85448
0.792038
0.740162
0.692303
0.64195
0.582899
0.507734
0.409304
0.280733
0.113273
2.77859
2.37719
2.0216
1.71337
1.4516
1.23388
1.05644
0.914524
0.803127
0.716337
0.648864
0.595101
0.548877
0.504166
0.455262
0.395529
0.318602
0.218413
0.0877404
2.78708
2.38493
2.01854
1.69472
1.4158
1.18125
0.988391
0.833088
0.710643
0.615353
0.54201
0.4851
0.438748
0.397316
0.355525
0.3074
0.247236
0.169555
0.068092
2.79623
2.39955
2.02873
1.69445
1.40212
1.15335
0.946818
0.77924
0.646366
0.542763
0.463323
0.40261
0.354965
0.315053
0.27795
0.238256
0.190855
0.130798
0.0525676
2.8028
2.41314
2.04201
1.70168
1.3998
1.13991
0.922109
0.744044
0.602024
0.490937
0.405799
0.341247
0.291773
0.252274
0.218114
0.184389
0.146521
0.100075
0.0402019
2.80984
2.42749
2.0577
1.71379
1.40495
1.1363
0.909225
0.722292
0.572399
0.454765
0.364539
0.296407
0.244954
0.205229
0.172811
0.143198
0.112281
0.0761129
0.0304665
2.81569
2.43996
2.072
1.7259
1.41201
1.13661
0.902182
0.70812
0.551848
0.428897
0.334525
0.263445
0.210285
0.170179
0.138852
0.112111
0.0862395
0.0577282
0.0229233
2.81824
2.44662
2.08009
1.73266
1.41528
1.13511
0.895414
0.696219
0.535382
0.408674
0.311433
0.238372
0.184123
0.143865
0.113414
0.0888169
0.0666679
0.0438395
0.0171823
2.81964
2.4495
2.08295
1.73395
1.41377
1.13008
0.886686
0.684044
0.520284
0.39131
0.292478
0.218456
0.163849
0.12384
0.0943004
0.0714495
0.0521279
0.0335216
0.0129042
2.82058
2.44997
2.08172
1.73024
1.40719
1.1206
0.874602
0.669868
0.504616
0.37475
0.275548
0.201581
0.147384
0.108115
0.0796731
0.0584059
0.0413439
0.0259254
0.00976667
2.82015
2.44715
2.07561
1.72063
1.39441
1.10532
0.857639
0.652064
0.486704
0.357308
0.258967
0.186086
0.133098
0.0951194
0.0680601
0.0483719
0.0332411
0.0203124
0.00747767
2.81887
2.44177
2.06542
1.70583
1.37589
1.08438
0.83565
0.630234
0.465955
0.338242
0.241877
0.171026
0.119987
0.0838169
0.0584362
0.0403913
0.0270059
0.0161018
0.00579709
2.8193
2.43795
2.05553
1.68991
1.35514
1.0606
0.810724
0.605817
0.443252
0.317982
0.224351
0.156202
0.107647
0.0736661
0.0501837
0.0338351
0.0220708
0.0128701
0.00454242
2.82074
2.43574
2.04664
1.67386
1.33317
1.03484
0.783543
0.579281
0.418858
0.29661
0.206315
0.141405
0.0957643
0.0642734
0.0428611
0.0282531
0.0180257
0.0103075
0.0035782
2.82147
2.43299
2.03709
1.65664
1.30944
1.00693
0.754121
0.550728
0.392889
0.274205
0.187781
0.126571
0.0841942
0.0554272
0.0362078
0.0233632
0.0146029
0.00820607
0.00281165
2.82268
2.43112
2.02853
1.64016
1.28598
0.978846
0.724256
0.52168
0.366551
0.251658
0.169355
0.112063
0.073107
0.0471513
0.0301457
0.019026
0.0116423
0.00642982
0.00218113
2.82499
2.43149
2.02271
1.62645
1.265
0.952806
0.696008
0.493914
0.341275
0.230041
0.15178
0.0983457
0.0627505
0.0395336
0.0246527
0.0151489
0.00901496
0.0048527
0.00162419
2.82817
2.43413
2.02013
1.61652
1.24794
0.930503
0.671116
0.469041
0.318414
0.210397
0.135788
0.0858763
0.0533629
0.0326538
0.0197009
0.011632
0.00656912
0.00328457
0.000971963
2.83464
2.44811
2.03733
1.63352
1.2625
0.941579
0.678619
0.473489
0.32058
0.211047
0.135549
0.0851956
0.0525243
0.0318163
0.0189373
0.0109586
0.00598406
0.00281147
0.000718898
2.84243
2.4694
2.06915
1.67188
1.30317
0.980807
0.713682
0.502871
0.34385
0.228573
0.148147
0.0938667
0.0582533
0.0354619
0.0211837
0.0123039
0.00675855
0.00321456
0.000850948
2.84683
2.48425
2.09414
1.70485
1.34078
1.01939
0.750084
0.534864
0.370276
0.249219
0.163452
0.104653
0.0654771
0.0400581
0.0239673
0.0139086
0.00763005
0.00363313
0.000972099
2.84788
2.49216
2.11125
1.731
1.37382
1.05607
0.78698
0.569128
0.399993
0.27347
0.182146
0.118278
0.0748453
0.0461082
0.0276247
0.0159666
0.00869224
0.00410333
0.00109022
2.847
2.49564
2.12324
1.75284
1.40432
1.09239
0.825617
0.606775
0.434102
0.302469
0.205395
0.13587
0.0873624
0.0544221
0.0327357
0.0188405
0.010142
0.00471508
0.00122952
2.84457
2.4963
2.13232
1.77253
1.43406
1.12966
0.866922
0.648536
0.473314
0.337026
0.234139
0.158462
0.104069
0.0659342
0.0400299
0.0230116
0.0122416
0.00558371
0.00141974
2.84166
2.49675
2.14168
1.79318
1.46568
1.16992
0.912397
0.695559
0.51862
0.378131
0.269466
0.187268
0.126256
0.0818977
0.0505729
0.0292331
0.0154048
0.00687407
0.00169853
2.84071
2.50075
2.15525
1.8184
1.50221
1.21556
0.96388
0.74926
0.571209
0.426931
0.312624
0.223716
0.155541
0.104042
0.0660233
0.038841
0.0204462
0.00888842
0.00209932
2.84057
2.50665
2.17142
1.84672
1.54235
1.26549
1.02047
0.809021
0.630804
0.48356
0.364214
0.268923
0.193584
0.134541
0.0889139
0.0543771
0.0293883
0.0126673
0.00266949
2.84098
2.51409
2.18985
1.87786
1.58589
1.31952
1.08208
0.874856
0.697611
0.548504
0.425103
0.324252
0.242383
0.1762
0.123002
0.0804989
0.0472831
0.0225904
0.00559867
2.841
2.51996
2.20514
1.90434
1.62357
1.36705
1.13719
0.93482
0.759675
0.610164
0.484324
0.379547
0.292754
0.221009
0.161758
0.112578
0.0717112
0.0381442
0.0111551
2.83801
2.51695
2.20603
1.91141
1.6377
1.38801
1.16397
0.965972
0.793544
0.645104
0.518868
0.412479
0.323131
0.248157
0.185247
0.132071
0.0868347
0.0482715
0.0151785
2.83287
2.50806
2.19753
1.90582
1.63628
1.39114
1.17136
0.976901
0.807052
0.660113
0.534325
0.427432
0.336756
0.259806
0.194502
0.138741
0.0910024
0.0503231
0.015704
2.82918
2.50193
2.19211
1.90298
1.63697
1.39557
1.17928
0.987666
0.819862
0.674071
0.548562
0.441165
0.349318
0.270682
0.203364
0.145424
0.0955117
0.0528388
0.0165105
2.82728
2.4989
2.18989
1.90282
1.6395
1.40092
1.18719
0.997664
0.831311
0.686272
0.560838
0.452911
0.360015
0.279928
0.210904
0.151127
0.0993775
0.0550119
0.0172212
2.82603
2.49697
2.18865
1.90315
1.64182
1.40532
1.1935
1.00549
0.840184
0.695669
0.570252
0.461889
0.368168
0.286955
0.216615
0.155427
0.102275
0.0566295
0.0177504
2.82505
2.49535
2.18744
1.90299
1.64303
1.40797
1.19745
1.0105
0.845926
0.701787
0.576401
0.467761
0.373495
0.291532
0.220313
0.158185
0.104106
0.057631
0.0180725
2.82369
2.4932
2.18547
1.90168
1.64259
1.40843
1.19873
1.01245
0.848374
0.70453
0.579246
0.470536
0.376054
0.293757
0.222131
0.159554
0.105024
0.0581401
0.0182405
2.82369
2.49322
2.18549
1.90171
1.64262
1.40845
1.19876
1.01248
0.848402
0.704556
0.57927
0.470558
0.376073
0.293774
0.222145
0.159565
0.105032
0.0581448
0.0182422
2.82507
2.4954
2.1875
1.90306
1.64312
1.40806
1.19754
1.01059
0.846011
0.701867
0.576475
0.467828
0.373555
0.291584
0.220357
0.158219
0.10413
0.057646
0.0180777
2.82605
2.49703
2.18875
1.90327
1.64196
1.40546
1.19364
1.00563
0.84032
0.695798
0.570371
0.461997
0.368264
0.287038
0.216684
0.155481
0.102313
0.0566528
0.0177585
2.82732
2.49899
2.19002
1.90298
1.63967
1.4011
1.18738
0.997854
0.831495
0.686445
0.560997
0.453055
0.360142
0.280037
0.210995
0.151198
0.0994283
0.0550425
0.0172318
2.82922
2.50204
2.19227
1.90318
1.63719
1.39581
1.17951
0.987902
0.820089
0.674285
0.548758
0.441342
0.349474
0.270815
0.203474
0.14551
0.0955729
0.0528756
0.0165232
2.83292
2.50819
2.19772
1.90605
1.63654
1.39141
1.17164
0.977177
0.807317
0.660361
0.534552
0.427635
0.336933
0.259956
0.194625
0.138836
0.0910692
0.0503625
0.0157173
2.83806
2.5171
2.20624
1.91167
1.638
1.38833
1.1643
0.966288
0.793846
0.645384
0.519122
0.412704
0.323325
0.248319
0.185375
0.132167
0.0868995
0.048308
0.0151904
2.84107
2.52017
2.20547
1.90477
1.62408
1.3676
1.13776
0.935394
0.760232
0.61069
0.48481
0.379989
0.293149
0.221358
0.162062
0.112837
0.0719201
0.0382894
0.0112137
2.84107
2.51434
2.19024
1.87837
1.58649
1.32017
1.08275
0.875525
0.698254
0.549105
0.425651
0.324742
0.242815
0.176574
0.123318
0.0807556
0.0474746
0.0227096
0.00564004
2.84064
2.50687
2.17176
1.84717
1.54288
1.26606
1.02106
0.809593
0.631343
0.48405
0.364649
0.2693
0.193903
0.134803
0.0891208
0.0545288
0.0294853
0.0127146
0.00267908
2.84077
2.50096
2.15558
1.81883
1.50271
1.21611
0.964428
0.749788
0.571695
0.427363
0.312997
0.224029
0.155797
0.104243
0.066173
0.0389432
0.0205064
0.0089156
0.00210525
2.84172
2.49695
2.14199
1.79359
1.46615
1.17043
0.912906
0.69604
0.519055
0.378509
0.269784
0.187527
0.12646
0.0820513
0.0506823
0.0293044
0.0154454
0.00689218
0.00170252
2.84462
2.49647
2.13261
1.77291
1.43451
1.13013
0.867387
0.648969
0.473698
0.337353
0.234406
0.158673
0.10423
0.0660517
0.0401106
0.0230626
0.01227
0.00559643
0.00142259
2.84705
2.4958
2.12351
1.75319
1.40473
1.09282
0.826036
0.607159
0.434436
0.302747
0.205617
0.13604
0.0874891
0.0545119
0.0327958
0.0188776
0.0101625
0.00472434
0.00123167
2.84792
2.4923
2.11148
1.73131
1.37418
1.05645
0.787348
0.569461
0.400278
0.273702
0.182328
0.118415
0.0749446
0.046177
0.0276699
0.0159942
0.00870759
0.00411045
0.00109198
2.84686
2.48438
2.09435
1.70513
1.3411
1.01972
0.7504
0.535146
0.370514
0.24941
0.1636
0.104762
0.0655554
0.0401117
0.0240022
0.0139301
0.00764223
0.00363905
0.000973722
2.84245
2.46951
2.06932
1.67212
1.30344
0.981085
0.713946
0.503106
0.344046
0.22873
0.148267
0.0939553
0.0583162
0.0355048
0.0212118
0.0123214
0.00676886
0.0032199
0.000852612
2.83464
2.44814
2.03738
1.63358
1.26257
0.941659
0.678697
0.47356
0.320641
0.211098
0.135589
0.085226
0.0525462
0.0318313
0.0189469
0.0109641
0.0059867
0.00281215
0.000718618
2.82816
2.4341
2.02009
1.61647
1.24788
0.930447
0.671065
0.468998
0.318379
0.21037
0.135768
0.085862
0.0533528
0.0326465
0.0196956
0.0116279
0.00656607
0.00328233
0.000970761
2.82499
2.43148
2.0227
1.62644
1.26499
0.952806
0.69601
0.493919
0.34128
0.230047
0.151786
0.09835
0.0627538
0.0395358
0.0246541
0.0151497
0.00901538
0.00485281
0.0016241
2.82268
2.43112
2.02853
1.64016
1.28597
0.978846
0.724259
0.521684
0.366555
0.251662
0.169358
0.112065
0.073109
0.0471527
0.0301467
0.0190266
0.0116427
0.00643001
0.00218115
2.82147
2.43299
2.03709
1.65664
1.30944
1.00693
0.754123
0.55073
0.392892
0.274208
0.187783
0.126573
0.0841956
0.0554283
0.0362086
0.0233639
0.0146035
0.00820644
0.00281176
2.82074
2.43574
2.04664
1.67386
1.33317
1.03484
0.783544
0.579283
0.41886
0.296612
0.206316
0.141406
0.0957654
0.0642745
0.0428622
0.0282542
0.0180266
0.0103081
0.00357838
2.8193
2.43795
2.05553
1.68991
1.35515
1.0606
0.810725
0.605818
0.443253
0.317983
0.224352
0.156203
0.107649
0.0736675
0.0501852
0.0338366
0.0220721
0.012871
0.00454268
2.81887
2.44177
2.06542
1.70583
1.37589
1.08438
0.83565
0.630234
0.465955
0.338242
0.241877
0.171027
0.119989
0.0838186
0.0584382
0.0403933
0.0270077
0.016103
0.00579742
2.82015
2.44715
2.07561
1.72063
1.39441
1.10532
0.85764
0.652064
0.486704
0.357308
0.258967
0.186087
0.1331
0.0951217
0.0680628
0.0483746
0.0332434
0.0203138
0.00747804
2.82058
2.44997
2.08172
1.73024
1.40719
1.1206
0.874602
0.669868
0.504616
0.37475
0.275549
0.201582
0.147386
0.108118
0.0796765
0.0584091
0.0413465
0.025927
0.00976703
2.81964
2.4495
2.08295
1.73395
1.41377
1.13008
0.886686
0.684043
0.520283
0.39131
0.292479
0.218458
0.163853
0.123844
0.0943044
0.0714531
0.0521306
0.033523
0.0129045
2.81824
2.44663
2.08009
1.73266
1.41529
1.13511
0.895414
0.696218
0.535382
0.408674
0.311435
0.238375
0.184127
0.143869
0.113419
0.0888204
0.0666702
0.0438405
0.0171824
2.81569
2.43996
2.072
1.72591
1.41201
1.13661
0.902182
0.708119
0.551848
0.428898
0.334527
0.263448
0.210289
0.170183
0.138855
0.112114
0.0862409
0.0577283
0.0229231
2.80984
2.42749
2.05771
1.71379
1.40496
1.1363
0.909224
0.722292
0.572399
0.454767
0.364542
0.29641
0.244957
0.205232
0.172814
0.143199
0.112281
0.076112
0.030466
2.8028
2.41315
2.04202
1.70168
1.3998
1.13991
0.922108
0.744044
0.602024
0.490938
0.405802
0.341249
0.291775
0.252275
0.218115
0.184388
0.146519
0.100073
0.0402013
2.79623
2.39955
2.02874
1.69445
1.40211
1.15335
0.946817
0.77924
0.646366
0.542764
0.463324
0.402611
0.354965
0.315052
0.277948
0.238252
0.190851
0.130795
0.0525672
2.78708
2.38493
2.01854
1.69472
1.4158
1.18125
0.988389
0.833087
0.710642
0.615352
0.542009
0.485099
0.438745
0.397312
0.35552
0.307394
0.247231
0.169552
0.068092
2.77859
2.37719
2.0216
1.71337
1.4516
1.23388
1.05644
0.914522
0.803126
0.716335
0.648862
0.595097
0.548872
0.504158
0.455254
0.395521
0.318597
0.218411
0.0877408
2.77671
2.38707
2.05023
1.76284
1.52154
1.32262
1.16168
1.03359
0.933212
0.854476
0.792033
0.740156
0.692295
0.641941
0.58289
0.507727
0.4093
0.280732
0.113274
2.78495
2.42128
2.11225
1.8513
1.63384
1.45566
1.3122
1.19826
1.10872
1.03743
0.979003
0.927591
0.876187
0.817712
0.745371
0.650788
0.525729
0.361955
0.147949
2.80739
2.48575
2.2139
1.98502
1.79486
1.63947
1.51462
1.41529
1.33655
1.27228
1.21712
1.16511
1.10876
1.04031
0.952263
0.834943
0.678418
0.471856
0.198453
2.84469
2.58056
2.35507
2.16425
2.00542
1.87557
1.77117
1.68761
1.62041
1.56362
1.51203
1.45969
1.39864
1.32044
1.21667
1.07582
0.885054
0.628514
0.279321
2.89258
2.69842
2.52804
2.38191
2.25956
2.15922
2.07831
2.01295
1.95938
1.91213
1.86643
1.81663
1.75455
1.67121
1.55714
1.3982
1.1767
0.867337
0.424589
2.94306
2.82636
2.71897
2.6249
2.54543
2.47995
2.42699
2.38373
2.34752
2.31397
2.27932
2.2389
2.18513
2.10925
2.0011
1.8434
1.61107
1.26242
0.719214
2.98673
2.94897
2.9112
2.87707
2.84792
2.82382
2.80434
2.78822
2.77447
2.76087
2.74571
2.7266
2.69887
2.65652
2.59088
2.48371
2.30193
1.97988
1.38589
)
;

boundaryField
{
    up
    {
        type            fixedValue;
        value           uniform 0;
    }
    low
    {
        type            fixedValue;
        value           uniform 3;
    }
    left
    {
        type            fixedValue;
        value           uniform 3;
    }
    right
    {
        type            fixedValue;
        value           uniform 3;
    }
    frontAndBackPlanes
    {
        type            empty;
    }
}


// ************************************************************************* //
