/*--------------------------------*- C++ -*----------------------------------*\
  =========                 |
  \\      /  F ield         | OpenFOAM: The Open Source CFD Toolbox
   \\    /   O peration     | Website:  https://openfoam.org
    \\  /    A nd           | Version:  7
     \\/     M anipulation  |
\*---------------------------------------------------------------------------*/
FoamFile
{
    version     2.0;
    format      ascii;
    class       volScalarField;
    location    "0.18";
    object      T;
}
// * * * * * * * * * * * * * * * * * * * * * * * * * * * * * * * * * * * * * //

dimensions      [0 0 0 1 0 0 0];

internalField   nonuniform List<scalar> 
1596
(
5.97957
5.92122
5.86225
5.80779
5.75954
5.71729
5.68027
5.6464
5.61407
5.57957
5.54001
5.49137
5.42538
5.33101
5.19174
4.97172
4.6049
3.95958
2.77167
5.91197
5.73094
5.56246
5.41152
5.27919
5.16396
5.06332
4.97272
4.88802
4.80209
4.70881
4.60058
4.4645
4.28531
4.04477
3.71013
3.23218
2.52745
1.43833
5.83281
5.52983
5.26099
5.02522
4.82056
4.64355
4.48997
4.35373
4.22908
4.10735
3.98097
3.84105
3.67405
3.46495
3.19775
2.84689
2.3789
1.74389
0.850186
5.75599
5.34054
4.98229
4.67262
4.40587
4.17658
3.97908
3.80627
3.65145
3.50538
3.35999
3.20609
3.03079
2.82043
2.56151
2.23432
1.81595
1.27636
0.562038
5.6939
5.18321
4.74791
4.37425
4.05375
3.77941
3.54453
3.34142
3.16287
2.99951
2.8432
2.68485
2.51244
2.31369
2.07698
1.78657
1.42585
0.975729
0.403849
5.65399
5.07057
4.57151
4.14278
3.77505
3.46073
3.1926
2.96278
2.76385
2.58653
2.42279
2.26374
2.09819
1.91493
1.70363
1.45107
1.14426
0.769956
0.307231
5.63644
5.00473
4.45588
3.98052
3.57096
3.22024
2.9213
2.66645
2.44833
2.25789
2.08728
1.92782
1.76901
1.60046
1.4127
1.19412
0.933824
0.621607
0.242702
5.6358
4.97848
4.39387
3.8804
3.43413
3.05002
2.72196
2.44287
2.2057
2.00176
1.82339
1.66218
1.50815
1.35154
1.18349
0.993454
0.771812
0.509945
0.196432
5.64702
4.98273
4.37526
3.8319
3.35396
2.93935
2.58367
2.28084
2.02442
1.80618
1.61874
1.45389
1.3021
1.15413
1.00151
0.834497
0.644287
0.423138
0.161495
5.66051
5.00076
4.38134
3.81644
3.31261
2.87131
2.49035
2.16508
1.8899
1.65718
1.45986
1.28998
1.13838
0.996198
0.85531
0.706573
0.541769
0.353705
0.133988
5.67075
5.01959
4.39577
3.81679
3.29323
2.82988
2.427
2.08159
1.7891
1.5426
1.33544
1.15991
1.00718
0.868713
0.736667
0.60239
0.458138
0.297115
0.11173
5.68266
5.0421
4.41772
3.82928
3.29037
2.80865
2.38671
2.02325
1.71488
1.45545
1.23873
1.05728
0.902525
0.766202
0.640689
0.517729
0.389965
0.250919
0.0935974
5.6933
5.06369
4.44072
3.84589
3.29504
2.79821
2.36006
1.98091
1.65853
1.38753
1.16211
0.97508
0.818093
0.68307
0.562556
0.448604
0.334176
0.213056
0.0787468
5.69898
5.07739
4.45624
3.85715
3.29736
2.78866
2.33745
1.94549
1.61158
1.33104
1.09848
0.906912
0.748169
0.614314
0.498005
0.391546
0.288154
0.181843
0.066528
5.70316
5.08627
4.46562
3.86267
3.29545
2.77705
2.31522
1.91288
1.56973
1.28167
1.04363
0.848771
0.689036
0.556571
0.444106
0.344126
0.250053
0.156089
0.0564877
5.70689
5.09244
4.47044
3.86291
3.28863
2.7617
2.29094
1.88018
1.52977
1.23607
0.994207
0.797392
0.637602
0.507001
0.398338
0.304226
0.218238
0.134727
0.0482237
5.70859
5.09419
4.46909
3.85601
3.27461
2.73992
2.2616
1.84418
1.48847
1.19105
0.947117
0.749831
0.591114
0.463085
0.358467
0.269954
0.191236
0.116786
0.0413629
5.70902
5.09249
4.46257
3.84276
3.25377
2.71156
2.22658
1.80387
1.44447
1.14505
0.900672
0.704332
0.547806
0.423107
0.322891
0.2399
0.16791
0.101493
0.0355986
5.71223
5.09383
4.45779
3.82971
3.23181
2.68131
2.18946
1.76178
1.39941
1.09892
0.855106
0.660656
0.507099
0.386266
0.290699
0.213154
0.147466
0.0882805
0.0306973
5.71693
5.098
4.45551
3.81802
3.21
2.65025
2.15105
1.71838
1.35342
1.0525
0.810009
0.618182
0.468213
0.351678
0.260966
0.188829
0.129142
0.0766125
0.0264464
5.72026
5.10109
4.45235
3.80517
3.18652
2.61714
2.11045
1.67301
1.30595
1.00526
0.764808
0.57628
0.430445
0.318575
0.232885
0.166125
0.112236
0.0659886
0.0226537
5.72404
5.10501
4.45033
3.79343
3.16385
2.58443
2.06999
1.62768
1.25862
0.958414
0.720298
0.535351
0.393856
0.286734
0.206009
0.144442
0.096096
0.0558834
0.0191178
5.72914
5.11149
4.45153
3.78514
3.14451
2.55474
2.03218
1.58467
1.21334
0.913413
0.677471
0.495945
0.358599
0.255973
0.179871
0.123066
0.0798266
0.0454054
0.0154065
5.73514
5.12021
4.4559
3.78066
3.12932
2.52929
1.99845
1.54546
1.17147
0.871336
0.637042
0.45838
0.324624
0.225918
0.153812
0.101041
0.0620921
0.0327927
0.00986606
5.74572
5.145
4.48923
3.8175
3.16564
2.56221
2.02626
1.56737
1.18741
0.88168
0.642477
0.459773
0.322918
0.222043
0.148616
0.0952389
0.0563529
0.0279509
0.00732298
5.75788
5.17939
4.54294
3.88608
3.24369
2.64408
2.10681
1.64248
1.25414
0.938399
0.688611
0.495729
0.349792
0.241355
0.162017
0.104245
0.062149
0.031316
0.00856978
5.76439
5.20169
4.58176
3.93988
3.30907
2.71654
2.18155
1.71505
1.32096
0.996935
0.737443
0.534505
0.379067
0.262364
0.176373
0.11358
0.0678514
0.0344041
0.00962856
5.7653
5.21125
4.60431
3.97692
3.35952
2.77729
2.24839
1.78345
1.38676
1.05675
0.788918
0.576389
0.411187
0.285495
0.191993
0.123432
0.0735721
0.037275
0.0104835
5.76279
5.21223
4.61564
4.00245
3.39992
2.83065
2.31102
1.85084
1.45431
1.12041
0.845464
0.623696
0.448272
0.312541
0.210226
0.134703
0.0798556
0.0402355
0.0112737
5.75736
5.20728
4.61994
4.02123
3.43498
2.88083
2.37305
1.92026
1.52627
1.19034
0.909491
0.678879
0.492761
0.345732
0.23285
0.148574
0.087346
0.0435844
0.0121024
5.75069
5.20083
4.62303
4.03954
3.47072
2.93324
2.43913
1.99562
1.60602
1.26963
0.984017
0.745078
0.547949
0.388329
0.262713
0.167081
0.0971365
0.0477281
0.0130633
5.74668
5.19917
4.63197
4.06439
3.51365
2.9936
2.51412
2.08106
1.69712
1.36159
1.07239
0.825977
0.61805
0.44502
0.30452
0.194153
0.111645
0.0535037
0.0141963
5.74363
5.20008
4.64476
4.09415
3.56249
3.06096
2.59738
2.17628
1.79973
1.46695
1.17616
0.924237
0.707185
0.521628
0.365603
0.237641
0.137433
0.0643916
0.0156203
5.74125
5.20338
4.66145
4.12912
3.61772
3.13592
2.68962
2.28211
1.91491
1.58716
1.29738
1.04293
0.820068
0.625394
0.456637
0.311951
0.191234
0.0957168
0.0254079
5.73811
5.20405
4.67305
4.1563
3.66262
3.19849
2.76813
2.37373
2.01625
1.69473
1.40792
1.15362
0.928488
0.729281
0.553395
0.397951
0.261193
0.143016
0.0433688
5.72993
5.18997
4.66048
4.15028
3.66599
3.21231
2.79209
2.40656
2.0561
1.73942
1.45528
1.20164
0.97542
0.773708
0.594231
0.434149
0.2914
0.164872
0.0527948
5.71816
5.16631
4.63271
4.12352
3.64336
3.19539
2.78131
2.40149
2.05575
1.74242
1.46016
1.20696
0.979859
0.776268
0.594388
0.431918
0.287513
0.16086
0.0507499
5.70897
5.14805
4.61156
4.1035
3.62689
3.18368
2.77463
2.39944
2.05751
1.74691
1.46621
1.21347
0.985907
0.781148
0.597743
0.4337
0.287992
0.160619
0.0505326
5.7032
5.13622
4.59779
4.09063
3.61666
3.17696
2.77161
2.39982
2.06065
1.75197
1.47234
1.21988
0.991884
0.78617
0.601521
0.43615
0.289247
0.161048
0.0506316
5.69904
5.12769
4.58789
4.08141
3.6094
3.17229
2.76965
2.40032
2.06315
1.75587
1.477
1.22472
0.996393
0.789961
0.60438
0.438007
0.290197
0.161372
0.0507155
5.69597
5.12131
4.58044
4.07442
3.60376
3.16843
2.76766
2.40003
2.06424
1.75794
1.47962
1.2275
0.998985
0.792104
0.605929
0.438921
0.290552
0.161388
0.0506932
5.69288
5.11572
4.57425
4.06865
3.59895
3.1648
2.76524
2.39871
2.06384
1.75821
1.48034
1.22845
0.999971
0.792975
0.606593
0.439336
0.290733
0.161419
0.0507025
5.69289
5.11574
4.57429
4.0687
3.599
3.16485
2.76529
2.39876
2.06389
1.75826
1.48039
1.22849
1.00001
0.793006
0.606619
0.439356
0.290747
0.161428
0.0507055
5.696
5.12139
4.58055
4.07454
3.6039
3.16857
2.76781
2.40018
2.06439
1.75808
1.47975
1.22762
0.999095
0.792201
0.60601
0.438985
0.290599
0.161416
0.0507031
5.69909
5.12781
4.58805
4.08161
3.60963
3.17252
2.76989
2.40056
2.06339
1.75609
1.47721
1.22491
0.996568
0.790114
0.604507
0.438107
0.290269
0.161416
0.0507305
5.70326
5.13637
4.59801
4.09089
3.61696
3.17727
2.77194
2.40014
2.06096
1.75228
1.47263
1.22014
0.992116
0.786371
0.601689
0.436282
0.289341
0.161104
0.0506511
5.70904
5.14823
4.61183
4.10383
3.62725
3.18406
2.77503
2.39984
2.0579
1.74728
1.46655
1.21379
0.986191
0.781392
0.597944
0.433855
0.288102
0.160684
0.0505551
5.71825
5.16652
4.63302
4.1239
3.64378
3.19584
2.78178
2.40196
2.05621
1.74286
1.46057
1.20732
0.980174
0.776531
0.594597
0.432075
0.287621
0.160924
0.050772
5.73002
5.19021
4.66083
4.15071
3.66647
3.21282
2.79262
2.40709
2.05661
1.7399
1.45572
1.20203
0.975739
0.773962
0.594423
0.434284
0.291487
0.164919
0.0528092
5.73822
5.2044
4.67359
4.15701
3.66347
3.19943
2.76914
2.37477
2.0173
1.69576
1.40892
1.15457
0.929381
0.730123
0.554186
0.398678
0.261817
0.143466
0.0435525
5.74139
5.20378
4.6621
4.12997
3.61874
3.13706
2.69085
2.28338
1.91619
1.58842
1.2986
1.0441
0.821168
0.626418
0.457565
0.312745
0.191845
0.0960973
0.0255368
5.74374
5.20043
4.64532
4.0949
3.56339
3.06197
2.59845
2.17738
1.80082
1.46801
1.17716
0.925168
0.708028
0.522365
0.36621
0.238096
0.137725
0.0645334
0.0156496
5.74678
5.19949
4.6325
4.0651
3.5145
2.99456
2.51513
2.08209
1.69813
1.36255
1.07328
0.826775
0.618745
0.445597
0.304965
0.194464
0.111832
0.0535981
0.0142252
5.75079
5.20113
4.62353
4.04021
3.47153
2.93413
2.44007
1.99657
1.60693
1.27049
0.984794
0.745761
0.548528
0.388796
0.263065
0.167325
0.0972874
0.0478066
0.0130865
5.75745
5.20755
4.6204
4.02185
3.43573
2.88166
2.37393
1.92113
1.5271
1.1911
0.910171
0.679465
0.493247
0.346115
0.233137
0.148772
0.0874698
0.0436489
0.0121209
5.76286
5.21248
4.61606
4.00302
3.40061
2.83141
2.31181
1.85163
1.45506
1.12108
0.846057
0.624198
0.448681
0.31286
0.210462
0.134866
0.0799578
0.0402886
0.0112884
5.76536
5.21147
4.60468
3.97743
3.36014
2.77798
2.2491
1.78416
1.38742
1.05734
0.789432
0.576819
0.411533
0.285763
0.192191
0.123569
0.0736588
0.0373206
0.0104958
5.76444
5.20188
4.58208
3.94032
3.30962
2.71715
2.18218
1.71567
1.32154
0.997451
0.737886
0.534873
0.379363
0.262592
0.176543
0.113698
0.0679272
0.0344453
0.0096399
5.75793
5.17954
4.54321
3.88647
3.24417
2.64461
2.10737
1.64301
1.25464
0.938842
0.68899
0.496042
0.350043
0.241549
0.162161
0.104345
0.0622107
0.0313504
0.00858453
5.74572
5.14502
4.4893
3.81761
3.16578
2.56237
2.02642
1.56753
1.18756
0.881812
0.64259
0.459867
0.322993
0.222099
0.148654
0.095258
0.0563551
0.0279451
0.00732374
5.73512
5.12016
4.45584
3.78058
3.12923
2.52918
1.99835
1.54536
1.17137
0.871253
0.636973
0.458326
0.324582
0.225886
0.153786
0.101019
0.0620716
0.0327744
0.00985788
5.72914
5.11148
4.45152
3.78513
3.1445
2.55474
2.03217
1.58467
1.21334
0.913419
0.677481
0.495958
0.358613
0.255987
0.179883
0.123076
0.079834
0.045409
0.0154053
5.72403
5.105
4.45033
3.79343
3.16385
2.58443
2.06999
1.62768
1.25862
0.958421
0.720307
0.535361
0.393865
0.286742
0.206015
0.144446
0.0960996
0.0558857
0.0191173
5.72026
5.10108
4.45235
3.80517
3.18652
2.61714
2.11046
1.67301
1.30595
1.00527
0.764816
0.576287
0.43045
0.318579
0.232888
0.166127
0.112237
0.0659893
0.0226536
5.71693
5.098
4.45551
3.81802
3.21
2.65026
2.15106
1.71839
1.35343
1.05251
0.810014
0.618187
0.468216
0.35168
0.260967
0.188829
0.129142
0.0766121
0.0264462
5.71222
5.09383
4.4578
3.82971
3.23182
2.68132
2.18947
1.76178
1.39941
1.09892
0.855111
0.660659
0.507101
0.386267
0.290698
0.213153
0.147464
0.0882796
0.0306969
5.70902
5.0925
4.46257
3.84277
3.25377
2.71157
2.22659
1.80388
1.44448
1.14505
0.900676
0.704334
0.547807
0.423107
0.322889
0.239898
0.167908
0.101492
0.0355981
5.70859
5.09419
4.46909
3.85602
3.27462
2.73993
2.26161
1.84419
1.48847
1.19106
0.947122
0.749834
0.591115
0.463084
0.358464
0.269951
0.191233
0.116784
0.0413621
5.70689
5.09244
4.47045
3.86292
3.28864
2.76171
2.29095
1.88019
1.52978
1.23608
0.994212
0.797395
0.637602
0.507
0.398335
0.304222
0.218235
0.134725
0.0482226
5.70316
5.08627
4.46562
3.86267
3.29546
2.77706
2.31523
1.9129
1.56974
1.28168
1.04363
0.848774
0.689036
0.556568
0.4441
0.34412
0.250048
0.156086
0.0564862
5.69898
5.07739
4.45625
3.85716
3.29737
2.78867
2.33746
1.9455
1.61159
1.33104
1.09848
0.906914
0.748168
0.614309
0.497998
0.391539
0.288149
0.181841
0.0665262
5.6933
5.06369
4.44072
3.84589
3.29505
2.79822
2.36007
1.98092
1.65854
1.38754
1.16212
0.975082
0.818091
0.683064
0.562547
0.448596
0.33417
0.213054
0.0787449
5.68266
5.04211
4.41772
3.82929
3.29038
2.80866
2.38672
2.02326
1.71489
1.45546
1.23874
1.05728
0.902521
0.766194
0.640679
0.517719
0.38996
0.250917
0.0935956
5.67076
5.01959
4.39578
3.8168
3.29323
2.82989
2.42701
2.0816
1.7891
1.54261
1.33545
1.15991
1.00718
0.868704
0.736657
0.602382
0.458135
0.297115
0.111728
5.66051
5.00076
4.38135
3.81645
3.31262
2.87132
2.49035
2.16508
1.8899
1.65718
1.45986
1.28998
1.13838
0.99619
0.855302
0.706569
0.541769
0.353706
0.133988
5.64702
4.98273
4.37526
3.8319
3.35396
2.93935
2.58367
2.28084
2.02442
1.80618
1.61873
1.45388
1.3021
1.15412
1.0015
0.834496
0.644289
0.423141
0.161495
5.6358
4.97848
4.39387
3.88039
3.43412
3.05002
2.72196
2.44287
2.20569
2.00175
1.82339
1.66218
1.50814
1.35154
1.18349
0.993458
0.771817
0.509949
0.196433
5.63644
5.00473
4.45588
3.98052
3.57096
3.22023
2.92129
2.66644
2.44832
2.25789
2.08727
1.92782
1.76901
1.60046
1.41271
1.19413
0.933831
0.621611
0.242704
5.65399
5.07057
4.57151
4.14277
3.77504
3.46072
3.19259
2.96277
2.76384
2.58653
2.42279
2.26374
2.09819
1.91494
1.70364
1.45108
1.14427
0.769959
0.307235
5.6939
5.18321
4.74791
4.37424
4.05374
3.77941
3.54452
3.34141
3.16286
2.99951
2.84319
2.68485
2.51245
2.3137
2.077
1.78659
1.42585
0.97573
0.403853
5.75599
5.34053
4.98228
4.67262
4.40587
4.17658
3.97907
3.80626
3.65145
3.50538
3.35999
3.2061
3.0308
2.82044
2.56152
2.23433
1.81595
1.27636
0.562042
5.83281
5.52982
5.26098
5.02522
4.82055
4.64354
4.48997
4.35373
4.22907
4.10735
3.98097
3.84105
3.67406
3.46496
3.19776
2.84689
2.37889
1.74389
0.85019
5.91197
5.73094
5.56246
5.41152
5.27919
5.16396
5.06332
4.97272
4.88802
4.80209
4.70881
4.60058
4.4645
4.28531
4.04477
3.71013
3.23218
2.52745
1.43833
5.97957
5.92122
5.86225
5.80779
5.75954
5.71729
5.68027
5.6464
5.61407
5.57957
5.54001
5.49137
5.42538
5.33101
5.19174
4.97173
4.6049
3.95959
2.77167
)
;

boundaryField
{
    up
    {
        type            fixedValue;
        value           uniform 0;
    }
    low
    {
        type            fixedValue;
        value           uniform 6;
    }
    left
    {
        type            fixedValue;
        value           uniform 6;
    }
    right
    {
        type            fixedValue;
        value           uniform 6;
    }
    frontAndBackPlanes
    {
        type            empty;
    }
}


// ************************************************************************* //
