/*--------------------------------*- C++ -*----------------------------------*\
  =========                 |
  \\      /  F ield         | OpenFOAM: The Open Source CFD Toolbox
   \\    /   O peration     | Website:  https://openfoam.org
    \\  /    A nd           | Version:  7
     \\/     M anipulation  |
\*---------------------------------------------------------------------------*/
FoamFile
{
    version     2.0;
    format      ascii;
    class       volScalarField;
    location    "0.18";
    object      gradTx;
}
// * * * * * * * * * * * * * * * * * * * * * * * * * * * * * * * * * * * * * //

dimensions      [0 -1 0 1 0 0 0];

internalField   nonuniform List<scalar> 
1596
(
-0.313067
-1.56974
-2.80341
-3.90126
-4.85046
-5.64445
-6.32023
-6.9021
-7.42502
-7.95475
-8.51278
-9.17862
-10.043
-11.2327
-12.8931
-15.3785
-19.2287
-25.6057
-36.9126
0.0706308
-1.30144
-2.51578
-3.5542
-4.43717
-5.16724
-5.77836
-6.283
-6.70796
-7.08885
-7.43342
-7.78668
-8.16881
-8.60743
-9.0953
-9.61257
-10.0113
-9.98399
-8.87282
0.386339
-1.05144
-2.22296
-3.18787
-3.99199
-4.64892
-5.18826
-5.61846
-5.9578
-6.22629
-6.42482
-6.5785
-6.68702
-6.75268
-6.75518
-6.65539
-6.3369
-5.59153
-4.00429
0.440578
-0.908389
-1.97207
-2.83375
-3.54355
-4.11988
-4.58595
-4.94846
-5.21915
-5.40865
-5.51604
-5.5543
-5.51816
-5.40299
-5.19224
-4.85469
-4.31745
-3.45849
-2.03345
0.145284
-0.93084
-1.80732
-2.52925
-3.12744
-3.6157
-4.00811
-4.30938
-4.52595
-4.66206
-4.71716
-4.69623
-4.59382
-4.4039
-4.11575
-3.70757
-3.13798
-2.33957
-1.17453
-0.470897
-1.14207
-1.7637
-2.31077
-2.77958
-3.17096
-3.48759
-3.73069
-3.90189
-4.00059
-4.02677
-3.97983
-3.85498
-3.64591
-3.34604
-2.9398
-2.4049
-1.70494
-0.763998
-1.28786
-1.52474
-1.8573
-2.20442
-2.5283
-2.81304
-3.04923
-3.23303
-3.36143
-3.42982
-3.43805
-3.38153
-3.25575
-3.05407
-2.77204
-2.39744
-1.91844
-1.3152
-0.546291
-2.14015
-2.00505
-2.05979
-2.20279
-2.37554
-2.54774
-2.69963
-2.82164
-2.90645
-2.94614
-2.9396
-2.87951
-2.76113
-2.57733
-2.32436
-1.99159
-1.57236
-1.05528
-0.417633
-3.01994
-2.62598
-2.43669
-2.37596
-2.38637
-2.43134
-2.48492
-2.53255
-2.56322
-2.56625
-2.53876
-2.47149
-2.35885
-2.19295
-1.96961
-1.67867
-1.31532
-0.87187
-0.334927
-3.54769
-3.06261
-2.73133
-2.52583
-2.40823
-2.34637
-2.31429
-2.29511
-2.27589
-2.24446
-2.19632
-2.12137
-2.01326
-1.86374
-1.66811
-1.41658
-1.10494
-0.727192
-0.274694
-3.98068
-3.46002
-3.04487
-2.73297
-2.5077
-2.34747
-2.23131
-2.14317
-2.06996
-1.99913
-1.92496
-1.83699
-1.72819
-1.58997
-1.41688
-1.19924
-0.93253
-0.611206
-0.228747
-4.42657
-3.90597
-3.43941
-3.04441
-2.72283
-2.466
-2.26124
-2.09629
-1.95982
-1.84004
-1.73052
-1.62078
-1.50309
-1.36843
-1.21046
-1.01939
-0.789876
-0.516089
-0.192046
-4.55898
-4.10868
-3.65472
-3.23418
-2.86415
-2.54808
-2.28226
-2.05995
-1.87328
-1.71261
-1.57201
-1.44179
-1.31422
-1.18039
-1.03354
-0.864066
-0.666119
-0.433623
-0.160711
-4.6055
-4.23066
-3.81363
-3.39458
-3.00001
-2.64363
-2.33021
-2.05938
-1.82763
-1.62834
-1.4569
-1.30486
-1.16481
-1.02816
-0.887894
-0.734655
-0.562131
-0.364001
-0.134336
-4.61792
-4.31084
-3.93827
-3.53575
-3.13282
-2.75028
-2.40013
-2.08835
-1.81626
-1.58073
-1.37913
-1.20453
-1.05012
-0.907725
-0.770244
-0.628527
-0.4759
-0.305811
-0.112186
-4.52834
-4.29422
-3.97553
-3.60535
-3.21307
-2.82325
-2.45312
-2.11414
-1.8123
-1.54821
-1.32165
-1.12752
-0.959949
-0.811411
-0.674913
-0.541625
-0.404682
-0.257417
-0.0936612
-4.32954
-4.16572
-3.90676
-3.58122
-3.21627
-2.83758
-2.46534
-2.11508
-1.79685
-1.51476
-1.27119
-1.06309
-0.885808
-0.732667
-0.597029
-0.470501
-0.346224
-0.217564
-0.0783625
-4.08895
-3.97092
-3.76517
-3.48681
-3.15739
-2.80116
-2.43935
-2.09009
-1.7665
-1.47575
-1.22266
-1.00618
-0.823013
-0.667424
-0.533259
-0.412613
-0.298759
-0.18521
-0.0659313
-3.88782
-3.80629
-3.64089
-3.40024
-3.10073
-2.76446
-2.41295
-2.06607
-1.73938
-1.44255
-1.18245
-0.959792
-0.77236
-0.615211
-0.482547
-0.366791
-0.261285
-0.159668
-0.0560849
-3.51579
-3.48393
-3.36722
-3.17522
-2.92068
-2.62246
-2.30069
-1.97532
-1.66317
-1.37568
-1.1214
-0.902717
-0.718658
-0.565293
-0.437435
-0.328011
-0.230583
-0.13909
-0.0481688
-3.09476
-3.10218
-3.02974
-2.8846
-2.67659
-2.42137
-2.13696
-1.84235
-1.55453
-1.28586
-1.04593
-0.838444
-0.663506
-0.518184
-0.397979
-0.296338
-0.206943
-0.123835
-0.0422651
-2.64806
-2.68035
-2.64439
-2.54207
-2.3798
-2.16988
-1.92783
-1.67091
-1.41545
-1.17387
-0.956096
-0.766639
-0.606413
-0.473434
-0.363991
-0.272159
-0.191602
-0.115767
-0.0394345
-2.14499
-2.18883
-2.18239
-2.1212
-2.00718
-1.84848
-1.65738
-1.44841
-1.23632
-1.03272
-0.847074
-0.684263
-0.545688
-0.430326
-0.335559
-0.256574
-0.18735
-0.120206
-0.0459933
-1.57045
-1.54868
-1.49052
-1.39716
-1.27522
-1.13421
-0.984915
-0.837166
-0.699358
-0.576715
-0.471797
-0.38464
-0.313258
-0.255118
-0.207602
-0.167656
-0.131346
-0.0924945
-0.0410954
-1.04954
-1.16149
-1.27199
-1.35724
-1.40191
-1.39862
-1.34879
-1.25979
-1.14376
-1.01342
-0.879817
-0.751909
-0.634376
-0.530626
-0.442326
-0.369813
-0.310685
-0.2601
-0.208087
-0.353076
-0.400633
-0.460218
-0.518906
-0.567031
-0.59803
-0.609805
-0.60298
-0.581547
-0.550314
-0.512813
-0.472812
-0.430808
-0.388041
-0.345936
-0.307706
-0.274985
-0.249576
-0.23056
0.344956
0.287865
0.203864
0.104707
0.00196223
-0.0945614
-0.178392
-0.246086
-0.297801
-0.335591
-0.360966
-0.376084
-0.380177
-0.37328
-0.356352
-0.333927
-0.310047
-0.289423
-0.27332
1.03905
0.961155
0.84441
0.701677
0.545986
0.389247
0.240717
0.106339
-0.0115803
-0.113324
-0.199185
-0.269993
-0.323546
-0.357667
-0.371121
-0.368053
-0.354193
-0.33751
-0.322024
1.66184
1.54913
1.39258
1.20695
1.00564
0.801002
0.602933
0.417884
0.248853
0.0959799
-0.0408351
-0.161952
-0.264131
-0.342509
-0.391764
-0.413002
-0.411536
-0.398556
-0.382096
2.30041
2.14324
1.94086
1.70855
1.46018
1.20853
0.963709
0.73211
0.516748
0.317467
0.133574
-0.0360638
-0.18857
-0.317403
-0.41234
-0.468514
-0.486749
-0.479649
-0.460776
2.77306
2.56567
2.31989
2.05033
1.77037
1.49138
1.22173
0.966043
0.726087
0.500534
0.287477
0.0839981
-0.109088
-0.28594
-0.432698
-0.536648
-0.587726
-0.593305
-0.570255
3.20672
2.95712
2.66939
2.36383
2.0545
1.7514
1.46111
1.18656
0.928339
0.684084
0.450771
0.223256
-0.00135758
-0.221708
-0.425293
-0.595004
-0.705686
-0.747836
-0.731516
3.59851
3.2935
2.96118
2.62204
2.28846
1.96791
1.6646
1.37953
1.11223
0.859587
0.618133
0.381403
0.142929
-0.102838
-0.351438
-0.592517
-0.79308
-0.919797
-0.939924
3.83841
3.45014
3.05143
2.66031
2.28612
1.93331
1.60377
1.29691
1.01137
0.743708
0.490164
0.244143
-0.00259174
-0.261216
-0.539017
-0.843629
-1.15987
-1.45892
-1.68641
3.97276
3.55194
3.1512
2.78123
2.44301
2.13438
1.85207
1.59245
1.35246
1.12896
0.919644
0.721517
0.530901
0.342065
0.147365
-0.0689113
-0.320991
-0.624812
-0.984797
4.06166
3.6303
3.24512
2.90138
2.5917
2.31002
2.05109
1.81099
1.58704
1.37698
1.17972
0.994583
0.820689
0.657752
0.506166
0.364613
0.231089
0.0993914
-0.0422037
3.81752
3.32658
2.90726
2.54334
2.22303
1.93811
1.68206
1.44998
1.23828
1.04368
0.864222
0.698433
0.544775
0.402656
0.272721
0.155759
0.0537462
-0.0305717
-0.0960091
3.33034
2.88865
2.51658
2.19741
1.91938
1.67417
1.4553
1.2579
1.07851
0.914124
0.762944
0.623711
0.495072
0.37635
0.267584
0.168571
0.0794702
0.000926424
-0.067271
2.75194
2.38486
2.07409
1.80794
1.57712
1.37453
1.19457
1.03292
0.886562
0.752837
0.630148
0.517326
0.413087
0.316665
0.227858
0.146255
0.0718162
0.00506371
-0.0541176
2.06311
1.78194
1.54597
1.34558
1.17302
1.0224
0.889166
0.769862
0.662071
0.563711
0.473522
0.390567
0.313822
0.242657
0.176894
0.116221
0.0606547
0.0106867
-0.0336836
1.29533
1.10807
0.955909
0.829206
0.721402
0.627996
0.54577
0.472364
0.406171
0.34583
0.290512
0.239594
0.192402
0.148511
0.107787
0.070028
0.0352536
0.00382321
-0.0241946
0.49615
0.419966
0.360378
0.311475
0.270053
0.234201
0.202671
0.17458
0.149333
0.126421
0.105517
0.0863584
0.0686605
0.0522204
0.0369356
0.0226805
0.00941216
-0.00277786
-0.0138765
-0.495913
-0.419431
-0.359637
-0.310595
-0.269085
-0.233188
-0.201643
-0.173566
-0.148356
-0.1255
-0.104668
-0.0855966
-0.0679974
-0.0516664
-0.0364988
-0.0223672
-0.00922656
0.00283545
0.0138083
-1.2951
-1.10759
-0.955253
-0.828431
-0.720555
-0.627113
-0.544881
-0.471494
-0.405341
-0.345059
-0.289814
-0.238982
-0.191888
-0.148104
-0.107496
-0.0698569
-0.0352064
-0.00389926
0.0239991
-2.06288
-1.78147
-1.54533
-1.34481
-1.17217
-1.02149
-0.888246
-0.768951
-0.66119
-0.562879
-0.472753
-0.389873
-0.313213
-0.242139
-0.176471
-0.115894
-0.0604231
-0.0105455
0.0337412
-2.75177
-2.38453
-2.07363
-1.8074
-1.57652
-1.3739
-1.19393
-1.0323
-0.885971
-0.752294
-0.629666
-0.516915
-0.412755
-0.316416
-0.227694
-0.146176
-0.071819
-0.00514285
0.0539689
-3.33023
-2.88843
-2.51625
-2.19701
-1.91893
-1.67369
-1.45481
-1.25742
-1.07806
-0.913713
-0.762587
-0.623417
-0.494848
-0.376199
-0.267507
-0.168563
-0.0795217
-0.00102353
0.067147
-3.8175
-3.3265
-2.9071
-2.54313
-2.22276
-1.93782
-1.68178
-1.44972
-1.23804
-1.0435
-0.864104
-0.698388
-0.544811
-0.402781
-0.272933
-0.156048
-0.0540798
0.0302476
0.0957567
-4.06164
-3.62993
-3.24432
-2.90011
-2.58999
-2.30792
-2.04866
-1.8083
-1.58416
-1.37396
-1.17661
-0.991421
-0.817493
-0.654534
-0.502944
-0.361459
-0.228174
-0.0970943
0.0432606
-3.97345
-3.55378
-3.15423
-2.78539
-2.44821
-2.14049
-1.85895
-1.59997
-1.36047
-1.13737
-0.928389
-0.73058
-0.540331
-0.352006
-0.158051
0.0571305
0.307802
0.610131
0.969094
-3.8381
-3.44932
-3.05004
-2.65837
-2.28368
-1.93046
-1.60059
-1.29348
-1.00777
-0.740028
-0.486463
-0.24048
0.0061653
0.264669
0.542388
0.847103
1.16391
1.46432
1.6942
-3.59874
-3.29406
-2.96202
-2.6231
-2.2897
-1.96927
-1.66604
-1.38102
-1.11374
-0.861107
-0.619648
-0.382911
-0.144419
0.10142
0.350218
0.591731
0.793001
0.920584
0.941342
-3.20687
-2.95747
-2.66992
-2.36451
-2.0553
-1.75228
-1.46205
-1.18752
-0.929323
-0.685066
-0.451734
-0.22418
0.000517749
0.221039
0.424925
0.595085
0.706282
0.748851
0.732733
-2.77321
-2.56602
-2.32044
-2.05103
-1.7712
-1.4923
-1.2227
-0.967027
-0.727058
-0.501467
-0.288345
-0.0847675
0.108471
0.285551
0.432617
0.536923
0.588318
0.594089
0.571083
-2.30056
-2.1436
-1.94142
-1.70929
-1.46105
-1.20949
-0.964707
-0.733107
-0.517705
-0.31835
-0.134353
0.0354258
0.188118
0.317185
0.412385
0.468811
0.487234
0.480231
0.461385
-1.66197
-1.54948
-1.39312
-1.20766
-1.00648
-0.801923
-0.603881
-0.41881
-0.249716
-0.0967453
0.0401967
0.161471
0.263834
0.342419
0.391877
0.413285
0.411934
0.39901
0.382572
-1.03919
-0.961522
-0.844988
-0.702431
-0.546866
-0.390192
-0.241668
-0.107243
0.0107679
0.112636
0.198646
0.26962
0.32335
0.357648
0.371258
0.36831
0.354527
0.337886
0.322423
-0.345083
-0.288217
-0.20443
-0.105446
-0.0028159
0.0936594
0.177507
0.245273
0.297101
0.335031
0.36056
0.375837
0.380086
0.37333
0.356517
0.334175
0.310348
0.289759
0.273685
0.352774
0.399725
0.458697
0.516849
0.564581
0.595368
0.607114
0.600418
0.579236
0.548327
0.511182
0.471539
0.429866
0.387385
0.345509
0.307456
0.274875
0.249605
0.230783
1.04975
1.16227
1.27346
1.3594
1.40468
1.40183
1.35225
1.26332
1.14718
1.01661
0.882686
0.754429
0.636548
0.532478
0.443905
0.371175
0.311881
0.261174
0.209057
1.57022
1.54787
1.48914
1.39529
1.273
1.13181
0.9825
0.834865
0.697267
0.57489
0.47026
0.383383
0.31226
0.254347
0.207021
0.167231
0.13105
0.0923091
0.0410212
2.14511
2.18908
2.18276
2.12167
2.00769
1.84899
1.65785
1.44882
1.23664
1.03297
0.847239
0.684364
0.545742
0.430349
0.335562
0.256568
0.187339
0.120197
0.0459911
2.64808
2.68037
2.64441
2.5421
2.37982
2.1699
1.92784
1.67091
1.41544
1.17385
0.956063
0.766603
0.606379
0.473403
0.363966
0.27214
0.191589
0.115761
0.0394343
3.09477
3.1022
3.02977
2.88462
2.67661
2.42139
2.13697
1.84234
1.55451
1.28583
1.0459
0.838417
0.663481
0.518163
0.397963
0.296327
0.206937
0.123833
0.0422648
3.51579
3.48394
3.36723
3.17524
2.92069
2.62246
2.30069
1.97531
1.66316
1.37566
1.12138
0.902696
0.71864
0.565279
0.437425
0.328005
0.23058
0.139089
0.0481685
3.88784
3.80631
3.64091
3.40026
3.10074
2.76446
2.41295
2.06606
1.73936
1.44253
1.18243
0.959777
0.772347
0.615202
0.482542
0.366788
0.261283
0.159667
0.0560844
4.08896
3.97094
3.76519
3.48682
3.1574
2.80117
2.43935
2.09009
1.76649
1.47574
1.22264
1.00617
0.823004
0.667417
0.533255
0.41261
0.298757
0.185208
0.0659306
4.32955
4.16573
3.90677
3.58123
3.21628
2.83758
2.46533
2.11508
1.79684
1.51475
1.27118
1.06308
0.885801
0.732661
0.597024
0.470497
0.34622
0.217561
0.0783614
4.52835
4.29424
3.97555
3.60537
3.21308
2.82326
2.45312
2.11413
1.81229
1.5482
1.32164
1.12751
0.959942
0.811404
0.674906
0.541617
0.404675
0.257412
0.0936599
4.61792
4.31084
3.93828
3.53576
3.13283
2.75028
2.40012
2.08835
1.81625
1.58072
1.37912
1.20452
1.05011
0.907715
0.770233
0.628516
0.47589
0.305804
0.112185
4.60551
4.23068
3.81364
3.39459
3.00001
2.64363
2.3302
2.05938
1.82763
1.62833
1.45689
1.30485
1.1648
1.02814
0.887879
0.73464
0.562119
0.363995
0.134335
4.55899
4.1087
3.65474
3.2342
2.86415
2.54809
2.28226
2.05995
1.87328
1.7126
1.572
1.44178
1.31421
1.18037
1.03352
0.86405
0.666108
0.433618
0.160711
4.42656
3.90597
3.43941
3.0444
2.72281
2.46598
2.26122
2.09627
1.9598
1.84002
1.7305
1.62076
1.50306
1.36841
1.21044
1.01937
0.789865
0.516085
0.192047
3.98071
3.46004
3.04489
2.73297
2.5077
2.34747
2.2313
2.14316
2.06994
1.99912
1.92495
1.83697
1.72817
1.58995
1.41686
1.19923
0.932525
0.611207
0.228749
3.54772
3.06263
2.73134
2.52583
2.40823
2.34637
2.31428
2.2951
2.27588
2.24444
2.19631
2.12135
2.01324
1.86373
1.6681
1.41658
1.10494
0.727197
0.274697
3.01997
2.626
2.43669
2.37596
2.38637
2.43134
2.48492
2.53254
2.5632
2.56623
2.53874
2.47148
2.35884
2.19294
1.96961
1.67867
1.31533
0.871879
0.33493
2.14018
2.00506
2.05979
2.20279
2.37554
2.54774
2.69962
2.82163
2.90644
2.94613
2.93959
2.8795
2.76112
2.57733
2.32436
1.9916
1.57238
1.05529
0.417635
1.28788
1.52475
1.85731
2.20443
2.5283
2.81304
3.04923
3.23303
3.36143
3.42981
3.43804
3.38153
3.25575
3.05408
2.77206
2.39746
1.91846
1.31521
0.546291
0.47091
1.14209
1.76371
2.31078
2.77959
3.17096
3.48759
3.73069
3.90189
4.00058
4.02677
3.97983
3.85499
3.64593
3.34606
2.93982
2.40491
1.70495
0.763996
-0.145276
0.930852
1.80733
2.52926
3.12745
3.61571
4.00811
4.30938
4.52595
4.66206
4.71716
4.69624
4.59384
4.40392
4.11577
3.70758
3.13799
2.33957
1.17452
-0.440577
0.908398
1.97208
2.83375
3.54355
4.11988
4.58595
4.94846
5.21915
5.40865
5.51605
5.55432
5.51817
5.40301
5.19225
4.85469
4.31745
3.45848
2.03344
-0.386341
1.05145
2.22296
3.18787
3.99199
4.64892
5.18826
5.61846
5.9578
6.2263
6.42483
6.57852
6.68703
6.75269
6.75519
6.65538
6.33689
5.59152
4.00429
-0.0706308
1.30144
2.51577
3.5542
4.43717
5.16724
5.77836
6.28301
6.70797
7.08887
7.43344
7.78669
8.16881
8.60743
9.09529
9.61256
10.0113
9.98398
8.87282
0.31307
1.56974
2.8034
3.90125
4.85046
5.64445
6.32023
6.9021
7.42503
7.95476
8.51279
9.17861
10.043
11.2326
12.893
15.3785
19.2287
25.6057
36.9126
)
;

boundaryField
{
    up
    {
        type            calculated;
        value           nonuniform List<scalar> 
84
(
-36.9126
-8.87282
-4.00429
-2.03345
-1.17453
-0.763998
-0.546291
-0.417633
-0.334927
-0.274694
-0.228747
-0.192046
-0.160711
-0.134336
-0.112186
-0.0936612
-0.0783625
-0.0659313
-0.0560849
-0.0481688
-0.0422651
-0.0394345
-0.0459933
-0.0410954
-0.176593
-0.213382
-0.25508
-0.300924
-0.356618
-0.42886
-0.527491
-0.664174
-0.83303
-1.65196
-1.01254
-0.0438311
-0.0955962
-0.0669805
-0.0539532
-0.033621
-0.0241712
-0.0138748
0.0138067
0.0239762
0.0336792
0.0538058
0.0668581
0.0953451
0.0448623
0.996518
1.66111
0.834316
0.665222
0.528241
0.429426
0.357069
0.301308
0.255438
0.213691
0.177461
0.0410212
0.0459911
0.0394343
0.0422648
0.0481685
0.0560844
0.0659306
0.0783614
0.0936599
0.112185
0.134335
0.160711
0.192047
0.228749
0.274697
0.33493
0.417635
0.546291
0.763996
1.17452
2.03344
4.00429
8.87282
36.9126
)
;
    }
    low
    {
        type            calculated;
        value           nonuniform List<scalar> 
84
(
-0.281889
0.118052
0.462653
0.523219
0.197042
-0.480434
-1.36606
-2.27106
-3.17103
-3.67193
-4.09031
-4.51592
-4.59937
-4.61629
-4.61042
-4.49309
-4.27012
-4.02311
-3.80624
-3.40459
-2.96834
-2.51753
-2.0162
-1.45673
-0.960104
-0.320692
0.308068
0.947672
1.54546
2.18549
2.68078
3.13349
3.55208
3.826
3.98697
4.10693
3.89487
3.41189
2.82404
2.12011
1.33292
0.511824
-0.511585
-1.33269
-2.11987
-2.82385
-3.41174
-3.89482
-4.10687
-3.98755
-3.8257
-3.55227
-3.13362
-2.68092
-2.18563
-1.54559
-0.947825
-0.308197
0.320397
0.960303
1.45652
2.0163
2.51755
2.96835
3.40459
3.80625
4.02312
4.27013
4.4931
4.61042
4.61629
4.59938
4.5159
4.09032
3.67196
3.17106
2.27108
1.36608
0.480449
-0.197034
-0.523221
-0.462661
-0.118057
0.281891
)
;
    }
    left
    {
        type            calculated;
        value           nonuniform List<scalar> 
19
(
-0.278474
-1.50882
-2.76876
-3.90564
-4.89648
-5.72795
-6.43958
-7.05965
-7.62281
-8.21063
-8.84425
-9.61216
-10.6315
-12.0699
-14.109
-17.2453
-22.2275
-30.6789
-32.014
)
;
    }
    right
    {
        type            calculated;
        value           nonuniform List<scalar> 
19
(
0.278478
1.50882
2.76876
3.90563
4.89648
5.72795
6.43958
7.05965
7.62282
8.21063
8.84425
9.61215
10.6315
12.0699
14.1089
17.2453
22.2275
30.6789
32.014
)
;
    }
    frontAndBackPlanes
    {
        type            empty;
    }
}


// ************************************************************************* //
