/*--------------------------------*- C++ -*----------------------------------*\
  =========                 |
  \\      /  F ield         | OpenFOAM: The Open Source CFD Toolbox
   \\    /   O peration     | Website:  https://openfoam.org
    \\  /    A nd           | Version:  7
     \\/     M anipulation  |
\*---------------------------------------------------------------------------*/
FoamFile
{
    version     2.0;
    format      ascii;
    class       volScalarField;
    location    "0.25";
    object      gradTx;
}
// * * * * * * * * * * * * * * * * * * * * * * * * * * * * * * * * * * * * * //

dimensions      [0 -1 0 1 0 0 0];

internalField   nonuniform List<scalar> 
1596
(
-0.0423176
-0.212455
-0.380893
-0.533564
-0.669744
-0.789254
-0.8976
-0.998314
-1.09617
-1.20035
-1.31338
-1.4463
-1.61224
-1.83045
-2.1238
-2.55031
-3.19983
-4.26659
-6.15223
0.00927168
-0.176942
-0.342703
-0.486548
-0.612066
-0.720119
-0.81567
-0.900475
-0.978095
-1.05329
-1.12652
-1.2037
-1.28689
-1.37921
-1.47814
-1.57916
-1.65687
-1.65968
-1.47826
0.0515468
-0.144828
-0.305297
-0.438885
-0.552491
-0.648356
-0.730755
-0.800836
-0.860972
-0.913706
-0.958617
-0.998793
-1.03334
-1.06157
-1.07901
-1.07797
-1.03809
-0.923851
-0.665748
0.0582675
-0.127974
-0.274862
-0.394666
-0.494806
-0.578106
-0.647916
-0.705143
-0.751289
-0.787643
-0.813694
-0.83092
-0.837954
-0.833321
-0.813466
-0.772223
-0.696495
-0.564928
-0.336066
0.0171419
-0.134043
-0.256874
-0.358376
-0.443256
-0.513662
-0.571658
-0.617901
-0.653209
-0.678064
-0.692178
-0.696046
-0.688548
-0.668312
-0.633045
-0.578441
-0.496797
-0.375888
-0.191847
-0.0684379
-0.165892
-0.255407
-0.334099
-0.40178
-0.458746
-0.505446
-0.542073
-0.568824
-0.585579
-0.592268
-0.588738
-0.574202
-0.54753
-0.507397
-0.450846
-0.373578
-0.268695
-0.122662
-0.182407
-0.22095
-0.272065
-0.324555
-0.373239
-0.415971
-0.451446
-0.47915
-0.49865
-0.509317
-0.511164
-0.503586
-0.486017
-0.457514
-0.417349
-0.36343
-0.293452
-0.203523
-0.0859962
-0.301956
-0.288973
-0.302586
-0.328089
-0.357033
-0.385069
-0.409324
-0.428441
-0.441368
-0.44703
-0.445366
-0.435456
-0.416828
-0.388641
-0.350486
-0.300807
-0.238415
-0.161101
-0.0645588
-0.425805
-0.376109
-0.356248
-0.354523
-0.362205
-0.373791
-0.385352
-0.394728
-0.400297
-0.400574
-0.395276
-0.383241
-0.363959
-0.336594
-0.300843
-0.255447
-0.199773
-0.132514
-0.0511834
-0.500231
-0.436851
-0.397101
-0.375782
-0.3666
-0.36441
-0.365077
-0.36599
-0.365165
-0.360855
-0.352541
-0.338942
-0.319478
-0.293325
-0.260208
-0.219082
-0.169607
-0.111008
-0.0418325
-0.560833
-0.491535
-0.439752
-0.403891
-0.380478
-0.365621
-0.35569
-0.348029
-0.340526
-0.331305
-0.319637
-0.304169
-0.284231
-0.258976
-0.228086
-0.190629
-0.146376
-0.0948256
-0.0351128
-0.622464
-0.552467
-0.493145
-0.445847
-0.409646
-0.382293
-0.361148
-0.343912
-0.328599
-0.313346
-0.297278
-0.279005
-0.257745
-0.232599
-0.203151
-0.168503
-0.128412
-0.0824808
-0.0301275
-0.638995
-0.578302
-0.52031
-0.469356
-0.426727
-0.3918
-0.363071
-0.338869
-0.317569
-0.297514
-0.277832
-0.257205
-0.234819
-0.209778
-0.181612
-0.149465
-0.113068
-0.0720768
-0.0260516
-0.642686
-0.592204
-0.539036
-0.488174
-0.442348
-0.402346
-0.367784
-0.337756
-0.311139
-0.286603
-0.263393
-0.24032
-0.216589
-0.191325
-0.164015
-0.133833
-0.100463
-0.0635662
-0.0227689
-0.640975
-0.599773
-0.552598
-0.503968
-0.457163
-0.413969
-0.37498
-0.340075
-0.308712
-0.279966
-0.253294
-0.227682
-0.202393
-0.176592
-0.149742
-0.121034
-0.0900969
-0.0565691
-0.0200889
-0.624659
-0.593429
-0.553557
-0.509335
-0.464124
-0.420268
-0.379067
-0.341088
-0.306362
-0.27441
-0.244964
-0.217235
-0.190592
-0.164275
-0.137752
-0.110245
-0.0813462
-0.0506708
-0.0178439
-0.593228
-0.571466
-0.539606
-0.501396
-0.459982
-0.417892
-0.376832
-0.337879
-0.301554
-0.267803
-0.236655
-0.20758
-0.180088
-0.153528
-0.127401
-0.100983
-0.0738582
-0.0456385
-0.0159421
-0.55642
-0.540693
-0.51587
-0.483933
-0.447333
-0.408448
-0.369134
-0.330782
-0.294282
-0.259945
-0.228082
-0.198412
-0.170604
-0.144122
-0.118519
-0.0931233
-0.0675364
-0.0413954
-0.0143411
-0.525525
-0.514676
-0.495259
-0.468409
-0.435918
-0.399899
-0.362257
-0.324594
-0.288101
-0.253395
-0.221034
-0.19096
-0.162976
-0.136638
-0.111519
-0.0869714
-0.0625904
-0.0380503
-0.0130567
-0.472129
-0.467686
-0.454511
-0.433938
-0.407332
-0.376417
-0.342926
-0.308466
-0.274362
-0.24143
-0.210411
-0.181449
-0.154487
-0.129189
-0.105166
-0.0817837
-0.0586194
-0.0354025
-0.0120114
-0.413186
-0.4138
-0.406252
-0.391624
-0.370966
-0.345645
-0.31715
-0.286978
-0.256465
-0.226526
-0.197997
-0.171168
-0.146094
-0.12254
-0.100147
-0.0782516
-0.056315
-0.033999
-0.0113905
-0.351838
-0.355728
-0.352853
-0.343643
-0.328752
-0.309197
-0.286198
-0.261077
-0.235102
-0.209188
-0.184184
-0.160452
-0.13812
-0.117046
-0.0969177
-0.077039
-0.0566286
-0.034929
-0.0117624
-0.283946
-0.289473
-0.290396
-0.286337
-0.277427
-0.264244
-0.247688
-0.228819
-0.208752
-0.18831
-0.168241
-0.148908
-0.130442
-0.112797
-0.0957838
-0.0787957
-0.0608571
-0.0404721
-0.0157143
-0.207444
-0.204477
-0.197993
-0.188107
-0.175544
-0.161294
-0.146498
-0.132132
-0.118987
-0.107434
-0.0974553
-0.0887351
-0.0807627
-0.0730515
-0.0651906
-0.0566989
-0.0468024
-0.0339351
-0.0152034
-0.138698
-0.154385
-0.171776
-0.188161
-0.201625
-0.210876
-0.215472
-0.215503
-0.211596
-0.204527
-0.194933
-0.183469
-0.170509
-0.15664
-0.142454
-0.12846
-0.114526
-0.0996825
-0.0812183
-0.0469879
-0.0544956
-0.064397
-0.0751259
-0.0855253
-0.0947691
-0.102554
-0.108799
-0.113745
-0.117616
-0.12025
-0.121525
-0.120861
-0.118064
-0.113282
-0.107364
-0.100982
-0.0949332
-0.0893363
0.0448977
0.0354135
0.0220068
0.00616901
-0.0107169
-0.0275403
-0.0436432
-0.0586876
-0.0726789
-0.0856951
-0.0974283
-0.107478
-0.114881
-0.118932
-0.119384
-0.117095
-0.113086
-0.108664
-0.104371
0.136693
0.12375
0.105608
0.0839806
0.0604475
0.0363248
0.012498
-0.010565
-0.0327732
-0.0541928
-0.0745494
-0.0933075
-0.109192
-0.120864
-0.127357
-0.129152
-0.127452
-0.124123
-0.120233
0.219851
0.201586
0.177616
0.149987
0.120365
0.0901227
0.0601708
0.0309309
0.00241536
-0.0255969
-0.0530506
-0.0795239
-0.103636
-0.123448
-0.136964
-0.143738
-0.144683
-0.142215
-0.138226
0.30636
0.281639
0.251175
0.217122
0.181222
0.144904
0.109075
0.0740845
0.0398355
0.00590027
-0.0279892
-0.0617843
-0.09436
-0.123501
-0.146102
-0.160172
-0.1654
-0.164289
-0.159881
0.372103
0.339934
0.302972
0.263351
0.222801
0.182612
0.143475
0.105507
0.0683956
0.0314422
-0.00600617
-0.0444849
-0.0835669
-0.121434
-0.154351
-0.178523
-0.191023
-0.192878
-0.187702
0.434162
0.395568
0.352295
0.307301
0.262426
0.218803
0.176906
0.136647
0.0975669
0.0587897
0.0193842
-0.0217813
-0.0652929
-0.1106
-0.154598
-0.192674
-0.218509
-0.22899
-0.22585
0.492229
0.44529
0.395252
0.345139
0.296569
0.250345
0.206654
0.165196
0.125422
0.0864053
0.0471542
0.00622857
-0.0378331
-0.0862175
-0.138001
-0.190492
-0.236013
-0.266031
-0.271981
0.530877
0.47129
0.410963
0.352549
0.297188
0.245246
0.196588
0.150742
0.10711
0.0648215
0.0229638
-0.0198385
-0.0653338
-0.115916
-0.173402
-0.239553
-0.311423
-0.382428
-0.43996
0.556016
0.490717
0.429357
0.37358
0.323398
0.278325
0.2376
0.20045
0.166158
0.134039
0.103582
0.0741693
0.0450997
0.0152355
-0.0171181
-0.0554207
-0.103272
-0.164867
-0.24216
0.575614
0.507932
0.448469
0.396532
0.350843
0.310287
0.273783
0.240495
0.209766
0.181046
0.154052
0.128582
0.104534
0.081944
0.0610146
0.0416552
0.0235657
0.00540122
-0.0154721
0.54742
0.470074
0.404897
0.349288
0.301187
0.259102
0.221766
0.188235
0.157792
0.129823
0.104004
0.0800998
0.0579665
0.0376322
0.0193617
0.00344761
-0.00959887
-0.0192203
-0.0251497
0.482687
0.411805
0.353123
0.303774
0.261633
0.225158
0.193112
0.164574
0.138876
0.115469
0.0940575
0.074433
0.0564399
0.0400283
0.0252572
0.0121244
0.000663246
-0.00908528
-0.0172041
0.402641
0.34277
0.293197
0.251695
0.216482
0.186198
0.159764
0.136364
0.115417
0.0964459
0.0791756
0.0634059
0.0489578
0.035728
0.0236926
0.0127834
0.00297672
-0.00569687
-0.0132892
0.304158
0.257792
0.219828
0.188367
0.161906
0.139307
0.119698
0.102421
0.0870181
0.0731113
0.0604762
0.0489464
0.038365
0.028634
0.0197204
0.011568
0.00416548
-0.00244138
-0.00826995
0.192004
0.161056
0.136485
0.116514
0.0999218
0.0858632
0.07373
0.0630806
0.0536106
0.0450746
0.0373221
0.0302415
0.0237249
0.0177028
0.0121481
0.00702362
0.0023239
-0.00191081
-0.00567667
0.0738451
0.0614207
0.0518984
0.0442606
0.0379346
0.0325686
0.027928
0.0238475
0.0202148
0.0169392
0.0139627
0.0112409
0.00872993
0.00639875
0.00423077
0.00220614
0.000316278
-0.00142862
-0.00302762
-0.0738097
-0.0613428
-0.0517926
-0.0441369
-0.0378004
-0.0324297
-0.0277885
-0.0237111
-0.0200844
-0.0168174
-0.0138516
-0.0111422
-0.00864522
-0.0063294
-0.00417783
-0.00217043
-0.00029833
0.00142876
0.00301024
-0.191971
-0.160987
-0.136393
-0.116407
-0.0998065
-0.0857448
-0.0736126
-0.0629675
-0.0535046
-0.0449779
-0.0372368
-0.0301692
-0.0236671
-0.0176607
-0.0121225
-0.00701519
-0.00233298
0.00188444
0.00563365
-0.304126
-0.257727
-0.219739
-0.188262
-0.16179
-0.139186
-0.119574
-0.1023
-0.0869016
-0.073002
-0.060376
-0.0488568
-0.0382871
-0.0285686
-0.0196677
-0.011528
-0.00413757
0.00245816
0.00827677
-0.402617
-0.342726
-0.293137
-0.251625
-0.216405
-0.186119
-0.159685
-0.136289
-0.115348
-0.0963846
-0.0791241
-0.0633656
-0.0489296
-0.0357123
-0.0236892
-0.0127917
-0.00299573
0.00566846
0.0132528
-0.482673
-0.411778
-0.353085
-0.303727
-0.26158
-0.225102
-0.193055
-0.16452
-0.138827
-0.115427
-0.0940246
-0.0744108
-0.0564293
-0.0400297
-0.0252699
-0.012147
-0.000693183
0.0090514
0.0171705
-0.547422
-0.47007
-0.404885
-0.349269
-0.301162
-0.259074
-0.221739
-0.188212
-0.157775
-0.129816
-0.104009
-0.0801193
-0.0580027
-0.0376868
-0.0194344
-0.00353554
0.00950372
0.0191314
0.0250828
-0.575616
-0.507888
-0.448364
-0.396358
-0.3506
-0.309978
-0.273413
-0.240071
-0.209294
-0.180533
-0.153502
-0.128
-0.103921
-0.0813043
-0.0603526
-0.0409882
-0.0229357
-0.00489764
0.0157019
-0.556119
-0.49099
-0.429807
-0.374205
-0.324189
-0.279272
-0.238693
-0.201676
-0.167509
-0.135509
-0.105171
-0.0758844
-0.0469599
-0.0172797
0.0148296
0.0528
0.100234
0.161372
0.238295
-0.530838
-0.47118
-0.41077
-0.352271
-0.296826
-0.244807
-0.196079
-0.150174
-0.106492
-0.0641652
-0.0222805
0.0205364
0.0660329
0.116605
0.174085
0.240267
0.312271
0.383586
0.441665
-0.492265
-0.445375
-0.395378
-0.345298
-0.296754
-0.25055
-0.206873
-0.165427
-0.125663
-0.0866556
-0.0474164
-0.0065054
0.0375418
0.085922
0.137731
0.190303
0.235974
0.266183
0.272267
-0.434185
-0.395621
-0.352374
-0.307401
-0.262542
-0.218929
-0.177041
-0.13679
-0.0977163
-0.0589457
-0.0195469
0.0216143
0.0651304
0.110462
0.154517
0.192686
0.218635
0.229209
0.226118
-0.372126
-0.339987
-0.303052
-0.263453
-0.22292
-0.182742
-0.143613
-0.10565
-0.0685421
-0.0315895
0.00586128
0.0443492
0.083453
0.121362
0.154342
0.17859
0.19116
0.193057
0.187894
-0.306382
-0.281691
-0.251255
-0.217226
-0.181343
-0.145038
-0.109217
-0.0742291
-0.0399794
-0.00603911
0.0278609
0.061675
0.0942821
0.123469
0.146125
0.160251
0.165519
0.164431
0.160032
-0.21987
-0.201634
-0.177691
-0.150085
-0.120481
-0.0902499
-0.0603039
-0.0310645
-0.00254456
0.0254774
0.0529471
0.0794445
0.10359
0.123444
0.137004
0.143816
0.144787
0.142333
0.138352
-0.136714
-0.1238
-0.105686
-0.0840823
-0.060567
-0.0364552
-0.0126325
0.0104328
0.0326493
0.0540833
0.0744605
0.093246
0.109164
0.120873
0.127401
0.129225
0.127543
0.124227
0.120346
-0.0449149
-0.0354605
-0.0220818
-0.00626756
0.0106014
0.0274152
0.0435161
0.0585657
0.0725687
0.0856026
0.0973587
0.107436
0.11487
0.118953
0.119433
0.117165
0.113172
0.108762
0.104482
0.0469479
0.0543748
0.0641909
0.074839
0.0851704
0.0943642
0.10212
0.108358
0.113317
0.117218
0.119894
0.121221
0.120614
0.117872
0.113139
0.107266
0.100925
0.094926
0.0894036
0.138726
0.154492
0.171983
0.188477
0.202046
0.21139
0.216059
0.216139
0.212258
0.205191
0.195582
0.184089
0.171091
0.15718
0.142953
0.128922
0.114957
0.100087
0.0815937
0.207414
0.204371
0.197807
0.187848
0.175227
0.160936
0.146119
0.131752
0.118621
0.107094
0.0971505
0.0884694
0.0805372
0.072865
0.06504
0.0565808
0.046714
0.0338757
0.0151777
0.283964
0.289508
0.290449
0.286406
0.277506
0.264328
0.247771
0.228896
0.208819
0.188366
0.168285
0.14894
0.130464
0.112811
0.0957913
0.0787983
0.060856
0.0404692
0.0157126
0.351842
0.355733
0.352859
0.34365
0.328761
0.309205
0.286206
0.261083
0.235106
0.20919
0.184183
0.160451
0.138117
0.117042
0.0969134
0.0770346
0.0566246
0.0349263
0.0117617
0.413189
0.413804
0.406257
0.391631
0.370972
0.345651
0.317155
0.286981
0.256467
0.226526
0.197996
0.171165
0.14609
0.122536
0.100143
0.0782484
0.0563124
0.0339975
0.0113901
0.472131
0.46769
0.454515
0.433943
0.407336
0.376421
0.342929
0.308468
0.274362
0.241429
0.210409
0.181446
0.154484
0.129185
0.105163
0.0817812
0.0586176
0.0354014
0.0120111
0.525528
0.51468
0.495263
0.468414
0.435923
0.399903
0.362259
0.324595
0.288101
0.253394
0.221032
0.190957
0.162973
0.136635
0.111517
0.0869694
0.062589
0.0380494
0.0130565
0.556423
0.540697
0.515874
0.483936
0.447336
0.40845
0.369135
0.330782
0.294281
0.259943
0.228079
0.198409
0.170602
0.14412
0.118516
0.0931216
0.0675352
0.0413946
0.0143409
0.59323
0.571468
0.539608
0.501399
0.459984
0.417893
0.376832
0.337878
0.301552
0.267801
0.236653
0.207578
0.180086
0.153525
0.127399
0.100981
0.073857
0.0456378
0.0159419
0.624661
0.593432
0.55356
0.509337
0.464126
0.420269
0.379067
0.341087
0.30636
0.274409
0.244961
0.217233
0.190589
0.164273
0.13775
0.110243
0.0813451
0.0506702
0.0178438
0.640975
0.599774
0.5526
0.50397
0.457163
0.413969
0.374979
0.340074
0.30871
0.279964
0.253292
0.22768
0.20239
0.17659
0.149741
0.121032
0.0900959
0.0565686
0.0200888
0.642687
0.592206
0.539038
0.488175
0.442349
0.402345
0.367783
0.337754
0.311137
0.286601
0.263391
0.240318
0.216587
0.191323
0.164014
0.133832
0.100463
0.0635659
0.0227689
0.638997
0.578304
0.520312
0.469357
0.426728
0.3918
0.36307
0.338868
0.317568
0.297512
0.277831
0.257203
0.234818
0.209777
0.181611
0.149464
0.113068
0.0720768
0.0260518
0.622462
0.552467
0.493144
0.445846
0.409644
0.382291
0.361146
0.34391
0.328596
0.313344
0.297276
0.279003
0.257743
0.232597
0.20315
0.168502
0.128411
0.0824808
0.0301277
0.560837
0.491538
0.439754
0.403892
0.380478
0.365621
0.355689
0.348028
0.340525
0.331304
0.319635
0.304168
0.28423
0.258976
0.228086
0.19063
0.146376
0.0948261
0.0351131
0.500237
0.436855
0.397103
0.375783
0.366601
0.364409
0.365077
0.365989
0.365164
0.360854
0.35254
0.338942
0.319477
0.293325
0.260208
0.219083
0.169608
0.111009
0.0418328
0.425809
0.376112
0.35625
0.354524
0.362205
0.373791
0.385351
0.394727
0.400296
0.400574
0.395275
0.383241
0.363959
0.336595
0.300844
0.255449
0.199774
0.132515
0.0511837
0.30196
0.288975
0.302587
0.328089
0.357032
0.385069
0.409324
0.42844
0.441367
0.44703
0.445366
0.435456
0.416829
0.388642
0.350487
0.300809
0.238416
0.161101
0.0645589
0.18241
0.220952
0.272067
0.324556
0.373239
0.415971
0.451446
0.47915
0.49865
0.509317
0.511164
0.503586
0.486018
0.457516
0.41735
0.363432
0.293454
0.203523
0.0859962
0.0684398
0.165894
0.255408
0.3341
0.40178
0.458747
0.505446
0.542073
0.568825
0.585579
0.592269
0.588739
0.574203
0.547532
0.507398
0.450847
0.373579
0.268695
0.122662
-0.0171408
0.134044
0.256875
0.358377
0.443256
0.513663
0.571658
0.617901
0.653209
0.678064
0.692179
0.696047
0.688549
0.668314
0.633046
0.578442
0.496798
0.375888
0.191847
-0.0582673
0.127975
0.274863
0.394666
0.494806
0.578107
0.647916
0.705143
0.751289
0.787643
0.813695
0.830921
0.837955
0.833322
0.813466
0.772223
0.696495
0.564927
0.336066
-0.0515471
0.144828
0.305298
0.438885
0.552491
0.648356
0.730755
0.800836
0.860972
0.913707
0.958618
0.998794
1.03334
1.06157
1.07901
1.07797
1.03809
0.923849
0.665747
-0.00927176
0.176942
0.342703
0.486548
0.612066
0.720119
0.815671
0.900475
0.978096
1.05329
1.12652
1.2037
1.28689
1.37921
1.47814
1.57916
1.65687
1.65968
1.47826
0.0423179
0.212455
0.380893
0.533564
0.669744
0.789254
0.8976
0.998315
1.09617
1.20035
1.31338
1.4463
1.61224
1.83045
2.1238
2.55031
3.19983
4.26659
6.15223
)
;

boundaryField
{
    up
    {
        type            calculated;
        value           nonuniform List<scalar> 
84
(
-6.15223
-1.47826
-0.665748
-0.336066
-0.191847
-0.122662
-0.0859962
-0.0645588
-0.0511834
-0.0418325
-0.0351128
-0.0301275
-0.0260516
-0.0227689
-0.0200889
-0.0178439
-0.0159421
-0.0143411
-0.0130567
-0.0120114
-0.0113905
-0.0117624
-0.0157143
-0.0152034
-0.0695814
-0.0837441
-0.0988773
-0.114294
-0.131508
-0.151981
-0.177687
-0.210642
-0.248462
-0.43655
-0.250841
-0.015964
-0.0251261
-0.0171768
-0.0132731
-0.00826482
-0.00567538
-0.00302859
0.0030112
0.00563241
0.0082717
0.0132369
0.0171433
0.0250593
0.0161872
0.246862
0.438574
0.248717
0.210875
0.177866
0.152125
0.131631
0.114406
0.0989898
0.0838463
0.0699233
0.0151777
0.0157126
0.0117617
0.0113901
0.0120111
0.0130565
0.0143409
0.0159419
0.0178438
0.0200888
0.0227689
0.0260518
0.0301277
0.0351131
0.0418328
0.0511837
0.0645589
0.0859962
0.122662
0.191847
0.336066
0.665747
1.47826
6.15223
)
;
    }
    low
    {
        type            calculated;
        value           nonuniform List<scalar> 
84
(
-0.0381612
0.0155216
0.0616876
0.0693459
0.0241406
-0.0697388
-0.193164
-0.320093
-0.446816
-0.517445
-0.575801
-0.634228
-0.643474
-0.642602
-0.637963
-0.617531
-0.582656
-0.544976
-0.512021
-0.454897
-0.394287
-0.33281
-0.265585
-0.191492
-0.126344
-0.0425483
0.0398406
0.124064
0.20351
0.289782
0.358211
0.422569
0.484124
0.527463
0.556419
0.580602
0.557362
0.493673
0.412636
0.312231
0.197405
0.076118
-0.0760823
-0.197371
-0.312196
-0.412608
-0.493654
-0.557357
-0.580596
-0.556506
-0.527425
-0.484153
-0.422589
-0.358233
-0.289803
-0.20353
-0.124085
-0.0398582
0.0425094
0.126372
0.191464
0.2656
0.332814
0.39429
0.454899
0.512024
0.544978
0.582657
0.617533
0.637963
0.642603
0.643476
0.634225
0.575803
0.51745
0.44682
0.320097
0.193168
0.069741
-0.0241395
-0.0693461
-0.0616885
-0.0155221
0.0381613
)
;
    }
    left
    {
        type            calculated;
        value           nonuniform List<scalar> 
19
(
-0.0375271
-0.203863
-0.375652
-0.533526
-0.675506
-0.800557
-0.914629
-1.02186
-1.127
-1.24166
-1.36822
-1.5192
-1.71183
-1.97204
-2.32868
-2.86349
-3.70117
-5.11303
-5.33611
)
;
    }
    right
    {
        type            calculated;
        value           nonuniform List<scalar> 
19
(
0.0375274
0.203864
0.375652
0.533526
0.675507
0.800557
0.914629
1.02186
1.127
1.24165
1.36822
1.5192
1.71183
1.97204
2.32868
2.86349
3.70117
5.11303
5.33611
)
;
    }
    frontAndBackPlanes
    {
        type            empty;
    }
}


// ************************************************************************* //
