/*--------------------------------*- C++ -*----------------------------------*\
  =========                 |
  \\      /  F ield         | OpenFOAM: The Open Source CFD Toolbox
   \\    /   O peration     | Website:  https://openfoam.org
    \\  /    A nd           | Version:  7
     \\/     M anipulation  |
\*---------------------------------------------------------------------------*/
FoamFile
{
    version     2.0;
    format      ascii;
    class       volScalarField;
    location    "0.443";
    object      gradTx;
}
// * * * * * * * * * * * * * * * * * * * * * * * * * * * * * * * * * * * * * //

dimensions      [0 -1 0 1 0 0 0];

internalField   nonuniform List<scalar> 
1596
(
-0.161371
-0.813419
-1.46911
-2.08203
-2.65535
-3.19231
-3.71672
-4.24326
-4.79004
-5.39366
-6.06063
-6.8349
-7.77187
-8.95889
-10.5042
-12.6937
-15.977
-21.3285
-30.7618
0.0362522
-0.675732
-1.31709
-1.88847
-2.4083
-2.88264
-3.33243
-3.76445
-4.19163
-4.63131
-5.08096
-5.56167
-6.07665
-6.63384
-7.21438
-7.7901
-8.23121
-8.27902
-7.38896
0.198479
-0.551187
-1.1688
-1.69415
-2.15724
-2.56861
-2.94586
-3.29305
-3.61827
-3.92966
-4.22155
-4.503
-4.76441
-4.99612
-5.17014
-5.24227
-5.10659
-4.58238
-3.32142
0.224601
-0.485765
-1.04926
-1.51691
-1.91973
-2.26992
-2.58102
-2.85616
-3.10013
-3.31626
-3.49941
-3.65242
-3.76473
-3.82424
-3.80831
-3.68093
-3.3721
-2.77083
-1.66734
0.0675227
-0.508839
-0.979807
-1.37475
-1.71333
-2.00469
-2.25713
-2.47291
-2.65442
-2.80221
-2.91301
-2.98638
-3.01411
-2.98593
-2.88649
-2.68993
-2.35343
-1.81133
-0.940858
-0.259233
-0.630643
-0.975198
-1.28245
-1.55234
-1.7864
-1.98651
-2.15323
-2.28682
-2.38592
-2.44898
-2.47375
-2.45464
-2.38382
-2.25172
-2.0403
-1.72423
-1.26476
-0.590472
-0.693131
-0.84016
-1.03996
-1.24845
-1.44541
-1.62243
-1.7744
-1.89913
-1.99465
-2.05805
-2.08871
-2.08335
-2.03835
-1.94788
-1.80633
-1.60109
-1.31747
-0.932355
-0.403917
-1.14579
-1.097
-1.15595
-1.26382
-1.38691
-1.5077
-1.6147
-1.70235
-1.76635
-1.80236
-1.80988
-1.78505
-1.72544
-1.62675
-1.48581
-1.29379
-1.04234
-0.717562
-0.29478
-1.61128
-1.42413
-1.35852
-1.36638
-1.41209
-1.47284
-1.53262
-1.58241
-1.61559
-1.62639
-1.6136
-1.573
-1.50264
-1.39914
-1.26075
-1.08122
-0.85587
-0.576237
-0.227431
-1.88488
-1.64664
-1.50718
-1.44317
-1.4278
-1.43895
-1.45934
-1.47775
-1.48595
-1.47712
-1.44919
-1.3978
-1.32117
-1.21665
-1.08337
-0.917014
-0.715174
-0.472919
-0.181237
-2.10284
-1.84376
-1.66078
-1.54462
-1.47899
-1.446
-1.42977
-1.41836
-1.40268
-1.37522
-1.33299
-1.27151
-1.18896
-1.08312
-0.953581
-0.797379
-0.613489
-0.399236
-0.149339
-2.32081
-2.06163
-1.8531
-1.69755
-1.58835
-1.51337
-1.45993
-1.41686
-1.37502
-1.32662
-1.26787
-1.19417
-1.10348
-0.993747
-0.864764
-0.714446
-0.542577
-0.347878
-0.127323
-2.36657
-2.14366
-1.94169
-1.77476
-1.64478
-1.54557
-1.46834
-1.40373
-1.34347
-1.28007
-1.20943
-1.12705
-1.03081
-0.918904
-0.791313
-0.646692
-0.485413
-0.307179
-0.110391
-2.36347
-2.18005
-1.99772
-1.83346
-1.69486
-1.58095
-1.48687
-1.40564
-1.33033
-1.25413
-1.17301
-1.08263
-0.980885
-0.86615
-0.738586
-0.597434
-0.443514
-0.277237
-0.0980088
-2.33984
-2.19233
-2.03406
-1.8806
-1.74181
-1.62049
-1.51516
-1.42136
-1.33379
-1.24662
-1.1561
-1.05818
-0.950776
-0.832437
-0.703482
-0.563639
-0.41413
-0.255917
-0.0891102
-2.26299
-2.15306
-2.02307
-1.88797
-1.75814
-1.6385
-1.53004
-1.4305
-1.33621
-1.24242
-1.1459
-1.04289
-0.931417
-0.810193
-0.67971
-0.540177
-0.393277
-0.240528
-0.0826073
-2.133
-2.05786
-1.95791
-1.84629
-1.73282
-1.62323
-1.51992
-1.42227
-1.32796
-1.23323
-1.1354
-1.03105
-0.918271
-0.795889
-0.664534
-0.524883
-0.379217
-0.229787
-0.0779456
-1.98652
-1.93344
-1.85955
-1.7719
-1.67801
-1.58328
-1.49066
-1.40052
-1.31151
-1.22067
-1.12577
-1.02362
-0.912339
-0.790658
-0.659168
-0.518861
-0.37269
-0.223939
-0.0750485
-1.86428
-1.82953
-1.77645
-1.70914
-1.63289
-1.5523
-1.47047
-1.38844
-1.30564
-1.21977
-1.129
-1.03026
-0.92152
-0.801201
-0.669442
-0.527086
-0.377495
-0.225213
-0.0744742
-1.66526
-1.65326
-1.62266
-1.57855
-1.52495
-1.46537
-1.4024
-1.33708
-1.26912
-1.19651
-1.11757
-1.02926
-0.929315
-0.815689
-0.68774
-0.54553
-0.39213
-0.233218
-0.0759991
-1.45089
-1.45724
-1.4471
-1.42495
-1.39397
-1.35677
-1.31528
-1.27027
-1.22138
-1.16664
-1.10427
-1.03109
-0.944579
-0.842134
-0.722053
-0.582776
-0.425444
-0.255052
-0.0821051
-1.23183
-1.25096
-1.2585
-1.25684
-1.24803
-1.23381
-1.21544
-1.19331
-1.16684
-1.13389
-1.09231
-1.03869
-0.970153
-0.883748
-0.776896
-0.646064
-0.488474
-0.303713
-0.099674
-0.992987
-1.01976
-1.04229
-1.06032
-1.0743
-1.08489
-1.09261
-1.09733
-1.0981
-1.0924
-1.07736
-1.0491
-1.00424
-0.939811
-0.853232
-0.740194
-0.594051
-0.404409
-0.158365
-0.726468
-0.725811
-0.722318
-0.716142
-0.709065
-0.70329
-0.701157
-0.703996
-0.711842
-0.722705
-0.73266
-0.736351
-0.728587
-0.705035
-0.662584
-0.597824
-0.504948
-0.370069
-0.165836
-0.488427
-0.558056
-0.64659
-0.74708
-0.854291
-0.963659
-1.0719
-1.1758
-1.27214
-1.35688
-1.42436
-1.46894
-1.4857
-1.47285
-1.43107
-1.36211
-1.26456
-1.12946
-0.931766
-0.169648
-0.213011
-0.273531
-0.346494
-0.428345
-0.516321
-0.609047
-0.705227
-0.803601
-0.901601
-0.993486
-1.07261
-1.13066
-1.16238
-1.16652
-1.14807
-1.11289
-1.06828
-1.01712
0.151306
0.0970027
0.0214452
-0.0704955
-0.174316
-0.286466
-0.404939
-0.528571
-0.656626
-0.787452
-0.916028
-1.03498
-1.13389
-1.20382
-1.24019
-1.2469
-1.23144
-1.20366
-1.16884
0.475699
0.405046
0.309411
0.194901
0.0669657
-0.0700951
-0.213811
-0.363261
-0.518484
-0.679181
-0.841986
-0.999909
-1.14117
-1.25271
-1.32473
-1.35741
-1.35866
-1.341
-1.31263
0.775256
0.6812
0.560623
0.421387
0.269654
0.110199
-0.0544771
-0.223969
-0.399418
-0.582358
-0.77195
-0.96325
-1.14485
-1.30035
-1.41314
-1.47629
-1.49497
-1.48435
-1.45777
1.09516
0.973956
0.826482
0.661557
0.485938
0.304852
0.120738
-0.0664705
-0.258916
-0.459973
-0.671732
-0.892864
-1.11487
-1.32057
-1.48656
-1.59495
-1.64173
-1.64135
-1.61431
1.34985
1.19614
1.01979
0.830293
0.634829
0.438496
0.243112
0.047792
-0.15064
-0.357251
-0.577029
-0.813357
-1.06363
-1.31492
-1.54115
-1.71268
-1.80743
-1.82824
-1.79844
1.602
1.41875
1.21401
1.00098
0.787558
0.57846
0.374774
0.174951
-0.0247402
-0.230241
-0.448397
-0.686893
-0.95068
-1.23677
-1.52551
-1.7834
-1.96627
-2.04747
-2.03561
1.85163
1.63052
1.39508
1.15932
0.93043
0.711943
0.503887
0.304068
0.108671
-0.088136
-0.29329
-0.516354
-0.768149
-1.05801
-1.38296
-1.72518
-2.0346
-2.24886
-2.30377
2.03879
1.76002
1.47713
1.20274
0.941844
0.695895
0.463369
0.241355
0.0260045
-0.187856
-0.406053
-0.637216
-0.893223
-1.19075
-1.54529
-1.97132
-2.45534
-2.95533
-3.38722
2.18312
1.87235
1.57962
1.31377
1.07541
0.862878
0.672583
0.501076
0.344862
0.200579
0.0657279
-0.0630463
-0.189694
-0.32123
-0.469561
-0.658302
-0.915572
-1.27524
-1.75914
2.31321
1.98484
1.69684
1.4476
1.23167
1.04418
0.879746
0.734328
0.604468
0.487189
0.381123
0.284971
0.198511
0.122219
0.057476
0.00414193
-0.0396848
-0.0834723
-0.1455
2.24842
1.87099
1.55383
1.28558
1.05634
0.858935
0.686863
0.535509
0.401252
0.281075
0.173725
0.0780543
-0.00615394
-0.0783897
-0.136962
-0.180115
-0.204884
-0.208701
-0.190346
2.02202
1.66616
1.3744
1.13253
0.92957
0.75762
0.610145
0.4825
0.371239
0.273625
0.18835
0.114268
0.0507608
-0.00248769
-0.0454735
-0.0786897
-0.102622
-0.118233
-0.126742
1.71622
1.4082
1.15762
0.951988
0.781361
0.638331
0.517005
0.413107
0.323539
0.245839
0.178616
0.12066
0.0710045
0.0288697
-0.00633278
-0.0354867
-0.0593516
-0.0786738
-0.0942617
1.31454
1.07213
0.877906
0.72067
0.591771
0.484832
0.394991
0.318711
0.253476
0.197279
0.148875
0.107208
0.0713345
0.0404925
0.0141045
-0.00851703
-0.0278873
-0.044364
-0.0583619
0.838005
0.675721
0.549467
0.44923
0.368145
0.301496
0.245904
0.198957
0.158975
0.124626
0.0950429
0.0695071
0.0473498
0.028035
0.0111608
-0.00370195
-0.0168497
-0.0284097
-0.0385336
0.324693
0.260757
0.212599
0.174842
0.144378
0.119263
0.0981927
0.0802595
0.0648384
0.0514396
0.0397333
0.0294496
0.0203331
0.0121762
0.00481651
-0.0019148
-0.00814218
-0.0139149
-0.0192774
-0.324538
-0.260432
-0.212176
-0.17437
-0.143888
-0.118779
-0.0977301
-0.0798294
-0.0644489
-0.0510961
-0.0394393
-0.029207
-0.0201431
-0.0120393
-0.00473282
0.00194536
0.00811976
0.0138402
0.0191511
-0.837865
-0.675445
-0.549113
-0.448839
-0.367747
-0.301112
-0.245549
-0.198642
-0.158707
-0.124412
-0.094885
-0.069407
-0.0473078
-0.0280507
-0.0112328
0.00357493
0.0166696
0.0281791
0.0382556
-1.31441
-1.07188
-0.877576
-0.720295
-0.591375
-0.484435
-0.394608
-0.318354
-0.253152
-0.196995
-0.148634
-0.107011
-0.0711804
-0.0403782
-0.014025
0.00856765
0.027916
0.0443779
0.0583675
-1.71614
-1.40806
-1.15744
-0.951784
-0.781152
-0.638135
-0.516834
-0.412972
-0.323449
-0.245801
-0.178632
-0.120732
-0.0711299
-0.029043
0.00611984
0.0352445
0.0590919
0.0784074
0.0939984
-2.022
-1.66611
-1.37432
-1.13243
-0.929471
-0.757528
-0.610072
-0.482459
-0.37124
-0.273677
-0.18846
-0.114439
-0.0509919
0.00220173
0.0451448
0.0783366
0.102268
0.117907
0.126473
-2.24847
-1.87104
-1.55388
-1.2856
-1.05636
-0.858964
-0.686914
-0.535598
-0.401394
-0.281287
-0.174023
-0.0784516
0.00564526
0.0777635
0.136226
0.179299
0.204053
0.20796
0.189817
-2.31327
-1.98474
-1.6965
-1.44697
-1.23073
-1.04294
-0.878187
-0.732461
-0.602301
-0.48473
-0.378378
-0.281943
-0.1952
-0.118625
-0.0536211
-0.000129862
0.0435781
0.086645
0.146937
-2.18359
-1.87354
-1.58159
-1.31653
-1.07896
-0.867243
-0.677763
-0.507086
-0.351727
-0.208341
-0.0744526
0.0532506
0.178645
0.308617
0.454912
0.640936
0.894773
1.25059
1.73099
-2.03867
-1.75965
-1.47642
-1.20166
-0.940361
-0.69401
-0.461086
-0.238692
-0.0229845
0.191197
0.409665
0.641032
0.897149
1.19469
1.54924
1.97549
2.46038
2.9624
3.39794
-1.85181
-1.63091
-1.39566
-1.16005
-0.931284
-0.7129
-0.504932
-0.305197
-0.10989
0.0868115
0.29183
0.514722
0.766325
1.05605
1.38104
1.72369
2.03402
2.24947
2.30522
-1.60212
-1.419
-1.21438
-1.00144
-0.788087
-0.579045
-0.375409
-0.175638
0.0239934
0.229419
0.447482
0.685885
0.949623
1.23579
1.52483
1.78328
1.96685
2.04867
2.03713
-1.34996
-1.19637
-1.02014
-0.830736
-0.635346
-0.439071
-0.243734
-0.0484587
0.149929
0.356493
0.576233
0.812556
1.06291
1.31441
1.541
1.71301
1.8082
1.82929
1.79958
-1.09526
-0.974177
-0.826815
-0.661987
-0.486446
-0.30542
-0.121353
0.0658185
0.258236
0.459277
0.671047
0.892242
1.1144
1.32036
1.48668
1.59541
1.64246
1.64222
1.61526
-0.775337
-0.681395
-0.560924
-0.42178
-0.27012
-0.110721
0.053916
0.223384
0.398823
0.581776
0.771416
0.962821
1.1446
1.30034
1.4134
1.4768
1.49565
1.48514
1.45863
-0.475781
-0.40524
-0.309711
-0.195293
-0.0674319
0.0695743
0.213255
0.36269
0.51792
0.678654
0.841536
0.999589
1.14104
1.2528
1.32504
1.35792
1.35931
1.34176
1.31349
-0.151372
-0.0971774
-0.0217231
0.0701277
0.173877
0.285976
0.404421
0.528048
0.656125
0.787006
0.915676
1.03477
1.13386
1.20398
1.24055
1.24743
1.23211
1.20446
1.16977
0.169508
0.212581
0.27278
0.345412
0.426945
0.514629
0.607109
0.703098
0.801349
0.899306
0.991229
1.07047
1.12872
1.16067
1.16507
1.14692
1.1121
1.06801
1.01767
0.488535
0.558455
0.647377
0.748326
0.856039
0.965925
1.07467
1.17904
1.27579
1.36088
1.42864
1.47342
1.4903
1.47751
1.43574
1.36676
1.26914
1.13393
0.936026
0.726377
0.725452
0.721666
0.715201
0.707857
0.701856
0.69955
0.702274
0.710065
0.720932
0.730942
0.734731
0.727098
0.703701
0.66142
0.59684
0.504159
0.369503
0.165572
0.993062
1.01991
1.04251
1.0606
1.07464
1.08527
1.09301
1.09774
1.0985
1.09276
1.07769
1.04937
1.00447
0.939987
0.853356
0.740264
0.594068
0.404385
0.158336
1.23186
1.251
1.25855
1.2569
1.2481
1.23389
1.21551
1.19339
1.16692
1.13395
1.09237
1.03874
0.970188
0.883769
0.776901
0.646052
0.48845
0.303686
0.0996619
1.45092
1.45728
1.44715
1.42501
1.39403
1.35684
1.31535
1.27033
1.22144
1.1667
1.10431
1.03113
0.944603
0.842146
0.722054
0.582768
0.42543
0.25504
0.0821009
1.66528
1.65329
1.6227
1.57861
1.52501
1.46543
1.40246
1.33714
1.26917
1.19656
1.11761
1.02928
0.929332
0.815697
0.68774
0.545524
0.392123
0.233212
0.0759972
1.8643
1.82957
1.77649
1.70919
1.63294
1.55236
1.47053
1.38849
1.30568
1.21981
1.12902
1.03028
0.921534
0.801207
0.669443
0.527083
0.377492
0.22521
0.0744734
1.98655
1.93347
1.85959
1.77194
1.67805
1.58333
1.49071
1.40056
1.31154
1.2207
1.12579
1.02364
0.912349
0.790664
0.659169
0.51886
0.372688
0.223938
0.0750483
2.13302
2.05788
1.95794
1.84633
1.73285
1.62326
1.51995
1.4223
1.32799
1.23325
1.13542
1.03106
0.918279
0.795894
0.664536
0.524883
0.379217
0.229787
0.0779458
2.263
2.15308
2.0231
1.888
1.75818
1.63854
1.53007
1.43052
1.33623
1.24244
1.14591
1.0429
0.931425
0.810198
0.679714
0.540179
0.393279
0.240529
0.0826078
2.33985
2.19234
2.03408
1.88061
1.74183
1.62051
1.51518
1.42138
1.3338
1.24663
1.15612
1.05819
0.950783
0.832442
0.703486
0.563643
0.414133
0.255919
0.089111
2.36348
2.18007
1.99773
1.83347
1.69487
1.58097
1.48689
1.40566
1.33034
1.25415
1.17302
1.08264
0.980892
0.866156
0.738591
0.597439
0.443517
0.27724
0.0980098
2.36658
2.14367
1.9417
1.77477
1.6448
1.54558
1.46835
1.40375
1.34349
1.28008
1.20944
1.12706
1.03082
0.918911
0.791319
0.646698
0.485418
0.307183
0.110392
2.32081
2.06163
1.8531
1.69755
1.58835
1.51337
1.45994
1.41686
1.37502
1.32662
1.26788
1.19418
1.10348
0.993749
0.864767
0.714449
0.54258
0.34788
0.127324
2.10285
1.84378
1.66079
1.54463
1.47899
1.44601
1.42977
1.41836
1.40268
1.37523
1.33299
1.27151
1.18896
1.08312
0.953586
0.797383
0.613493
0.399239
0.14934
1.88491
1.64666
1.5072
1.44318
1.42781
1.43896
1.45934
1.47775
1.48595
1.47712
1.44919
1.3978
1.32118
1.21665
1.08338
0.917017
0.715177
0.472921
0.181237
1.6113
1.42414
1.35853
1.36639
1.41209
1.47284
1.53262
1.58241
1.61559
1.62639
1.6136
1.573
1.50264
1.39914
1.26076
1.08123
0.855872
0.576238
0.227432
1.14581
1.09701
1.15596
1.26382
1.38691
1.5077
1.6147
1.70235
1.76634
1.80236
1.80987
1.78504
1.72544
1.62675
1.48581
1.29379
1.04234
0.717562
0.294781
0.693146
0.84017
1.03997
1.24845
1.44541
1.62243
1.7744
1.89913
1.99465
2.05804
2.08871
2.08335
2.03834
1.94788
1.80633
1.60109
1.31747
0.932354
0.403916
0.259244
0.630651
0.975202
1.28246
1.55234
1.7864
1.98651
2.15323
2.28681
2.38591
2.44898
2.47375
2.45464
2.38382
2.25172
2.0403
1.72423
1.26476
0.590471
-0.0675157
0.508844
0.97981
1.37475
1.71333
2.00469
2.25713
2.47291
2.65442
2.8022
2.91301
2.98637
3.0141
2.98592
2.88648
2.68993
2.35343
1.81133
0.940857
-0.224597
0.485768
1.04926
1.51691
1.91973
2.26991
2.58102
2.85616
3.10013
3.31625
3.49941
3.65242
3.76473
3.82423
3.8083
3.68092
3.3721
2.77083
1.66734
-0.198478
0.551187
1.16879
1.69415
2.15723
2.5686
2.94585
3.29304
3.61827
3.92966
4.22155
4.50299
4.7644
4.99612
5.17014
5.24227
5.10658
4.58238
3.32142
-0.0362519
0.67573
1.31708
1.88847
2.4083
2.88264
3.33243
3.76445
4.19163
4.6313
5.08096
5.56167
6.07665
6.63384
7.21438
7.79009
8.23121
8.27901
7.38896
0.161369
0.813414
1.4691
2.08203
2.65535
3.19231
3.71672
4.24326
4.79005
5.39366
6.06064
6.8349
7.77188
8.95889
10.5042
12.6937
15.977
21.3285
30.7618
)
;

boundaryField
{
    up
    {
        type            calculated;
        value           nonuniform List<scalar> 
84
(
-30.7618
-7.38896
-3.32142
-1.66734
-0.940858
-0.590472
-0.403917
-0.29478
-0.227431
-0.181237
-0.149339
-0.127323
-0.110391
-0.0980088
-0.0891102
-0.0826073
-0.0779456
-0.0750485
-0.0744742
-0.0759991
-0.0821051
-0.099674
-0.158365
-0.165836
-0.805058
-0.964894
-1.12315
-1.26788
-1.41118
-1.56299
-1.73592
-1.9408
-2.15719
-3.40049
-1.8348
-0.149608
-0.190614
-0.126778
-0.094266
-0.0583707
-0.0385418
-0.0192884
0.019162
0.0382639
0.0583765
0.0940026
0.126508
0.190083
0.150996
1.80558
3.41342
2.15841
1.94212
1.73699
1.56392
1.41204
1.26876
1.12412
0.965842
0.80899
0.165572
0.158336
0.0996619
0.0821009
0.0759972
0.0744734
0.0750483
0.0779458
0.0826078
0.089111
0.0980098
0.110392
0.127324
0.14934
0.181237
0.227432
0.294781
0.403916
0.590471
0.940857
1.66734
3.32142
7.38896
30.7618
)
;
    }
    low
    {
        type            calculated;
        value           nonuniform List<scalar> 
84
(
-0.145965
0.0587453
0.235315
0.265143
0.093243
-0.26402
-0.73263
-1.21197
-1.68674
-1.94453
-2.15244
-2.35662
-2.37391
-2.35293
-2.31787
-2.22584
-2.0838
-1.93493
-1.8062
-1.59541
-1.37681
-1.15892
-0.923947
-0.667216
-0.443046
-0.153386
0.132669
0.428369
0.712318
1.02855
1.29048
1.54893
1.81009
2.01475
2.17433
2.32386
2.28177
2.06278
1.7555
1.3476
0.860732
0.334411
-0.334254
-0.860587
-1.34746
-1.7554
-2.06272
-2.28178
-2.32387
-2.17472
-2.01464
-1.81024
-1.54903
-1.29059
-1.02865
-0.712401
-0.428453
-0.132736
0.15325
0.443151
0.667132
0.924014
1.15895
1.37684
1.59543
1.80623
1.93496
2.08382
2.22586
2.31788
2.35294
2.37392
2.35662
2.15246
1.94455
1.68677
1.21198
0.732646
0.264031
-0.0932354
-0.265139
-0.235314
-0.0587441
0.145964
)
;
    }
    left
    {
        type            calculated;
        value           nonuniform List<scalar> 
19
(
-0.142826
-0.779823
-1.44793
-2.08101
-2.67812
-3.23956
-3.7915
-4.3513
-4.93719
-5.59667
-6.33539
-7.20438
-8.27833
-9.67735
-11.5394
-14.2692
-18.4908
-25.5648
-26.6826
)
;
    }
    right
    {
        type            calculated;
        value           nonuniform List<scalar> 
19
(
0.142824
0.779817
1.44792
2.08101
2.67812
3.23955
3.7915
4.3513
4.9372
5.59667
6.33539
7.20439
8.27833
9.67735
11.5394
14.2692
18.4908
25.5648
26.6826
)
;
    }
    frontAndBackPlanes
    {
        type            empty;
    }
}


// ************************************************************************* //
