/*--------------------------------*- C++ -*----------------------------------*\
  =========                 |
  \\      /  F ield         | OpenFOAM: The Open Source CFD Toolbox
   \\    /   O peration     | Website:  https://openfoam.org
    \\  /    A nd           | Version:  7
     \\/     M anipulation  |
\*---------------------------------------------------------------------------*/
FoamFile
{
    version     2.0;
    format      ascii;
    class       volScalarField;
    location    "0.332";
    object      gradTz;
}
// * * * * * * * * * * * * * * * * * * * * * * * * * * * * * * * * * * * * * //

dimensions      [0 -1 0 1 0 0 0];

internalField   nonuniform List<scalar> 
1596
(
-1.12961e-15
-5.50843e-16
5.57822e-16
1.04302e-17
-1.06752e-15
0
-5.01381e-16
-4.94343e-16
-3.03305e-17
-2.59076e-16
-2.5414e-18
-2.57288e-16
1.12922e-15
-2.53994e-16
1.18778e-15
1.02421e-15
6.09001e-16
7.68586e-16
0
1.13057e-15
0
1.6046e-15
-9.88721e-18
-4.96079e-16
4.92268e-16
1.0082e-15
2.86913e-17
4.7885e-16
-2.30212e-16
4.58962e-16
-7.39558e-18
-6.35918e-16
-3.96572e-16
-9.60528e-16
-9.3632e-16
-8.51343e-16
4.84239e-16
0
-5.56928e-16
0
-1.05222e-15
1.5716e-17
9.74537e-16
-2.68878e-16
1.8273e-17
-6.8453e-18
-7.16076e-18
-7.76476e-18
1.77754e-16
0
3.29942e-16
9.37518e-16
-9.22551e-17
7.38566e-17
1.73907e-16
2.70339e-16
0
8.71638e-16
-2.65716e-16
2.64745e-16
0
-2.55778e-16
-2.63083e-16
4.55781e-16
-4.03656e-16
0
0
-1.37968e-16
9.27251e-17
0
-2.77099e-16
-3.55101e-16
2.44556e-16
-2.4873e-16
-1.28134e-17
0
1.51899e-16
4.10718e-16
-3.75843e-16
0
-1.12505e-16
-3.41087e-16
0
5.13492e-16
-5.14495e-17
-4.65485e-17
-3.89414e-17
2.69226e-16
3.28369e-16
3.34062e-17
8.23513e-18
-2.64462e-16
1.3358e-17
1.22257e-16
-5.22906e-17
-3.94458e-17
-5.64277e-16
5.42604e-16
-4.8087e-16
-8.82502e-19
-4.33713e-16
1.22705e-17
-1.23113e-17
-3.47741e-16
0
-3.1817e-17
-3.17859e-16
-2.96832e-16
2.43801e-16
2.47137e-16
-3.38721e-18
-1.48072e-16
-1.24004e-16
9.45728e-17
3.29655e-16
-5.76625e-16
6.56412e-16
3.70767e-16
0
3.32161e-16
1.98264e-16
-9.58425e-17
4.41785e-16
-8.3571e-17
-3.50179e-16
3.35263e-18
-2.09755e-16
-2.45007e-16
-1.93631e-16
1.63277e-16
1.49375e-16
-1.98627e-18
-3.95944e-17
2.82574e-17
9.1378e-16
-1.09372e-15
0
0
-4.18838e-16
0
0
0
2.98473e-16
0
0
1.91789e-16
7.60934e-18
4.84603e-17
-1.42417e-16
0
7.58154e-17
2.92002e-17
0
-5.98705e-16
1.15634e-15
0
0
4.31345e-16
0
-1.6994e-16
1.69768e-16
-3.03803e-16
1.27897e-16
-1.28832e-16
0
1.86237e-16
1.75783e-16
0
-1.01608e-16
-7.74868e-17
-2.54489e-17
1.41136e-15
-6.65278e-16
0
-4.94993e-16
4.89453e-16
0
3.7883e-16
0
0
0
1.20379e-16
-1.20956e-16
0
-1.43497e-16
-4.15332e-17
0
8.72731e-18
5.85971e-17
0
-3.58221e-16
0
0
4.96657e-16
-9.34749e-16
4.14104e-17
1.64443e-17
-1.60074e-16
1.6004e-17
4.53038e-18
-1.27729e-16
-2.09251e-16
0
1.58346e-16
-3.10087e-17
3.14741e-17
7.97821e-17
-4.57821e-17
-2.13461e-17
3.07024e-16
-2.74953e-17
2.94417e-16
1.02838e-15
-4.7258e-17
-4.41022e-16
0
0
0
2.63544e-16
1.07942e-16
3.91288e-16
-9.45772e-17
-1.55514e-16
-9.49428e-17
-5.05746e-17
2.24243e-17
-4.85003e-17
2.03643e-17
-3.33997e-16
3.26969e-16
-6.09474e-16
-1.01603e-15
9.49961e-16
3.89396e-16
-7.27128e-16
6.41916e-16
-5.65596e-16
1.47071e-16
1.15979e-16
-1.05153e-16
7.19091e-17
-6.33347e-17
1.83737e-16
0
-1.37245e-17
1.0044e-16
-1.48751e-17
-2.13483e-15
9.88773e-16
8.63367e-19
-2.30265e-16
2.47967e-17
3.78986e-16
-7.24399e-16
-3.07395e-16
2.68278e-16
-2.32713e-16
-2.02219e-16
0
-2.34334e-16
-7.00691e-17
-1.27093e-16
-7.56164e-17
5.96667e-18
-6.47538e-17
1.02244e-18
3.48919e-16
-3.15067e-16
7.45877e-19
-2.50242e-16
-6.40899e-16
6.084e-16
1.71572e-18
2.99556e-16
-2.61204e-16
4.48053e-16
1.06397e-16
8.97133e-17
2.82936e-16
0
2.38158e-16
1.09355e-16
0
3.59404e-17
8.72524e-19
0
3.05651e-16
2.48482e-16
-5.1201e-16
6.21567e-16
-9.46318e-16
6.81055e-16
2.68209e-16
-3.39016e-17
-4.43065e-16
8.46282e-17
-8.42106e-17
-2.62629e-16
1.06716e-16
-5.20801e-17
-1.1126e-16
4.90932e-17
-3.02914e-17
1.13742e-17
-3.25066e-16
1.12683e-15
-8.37278e-16
4.69103e-16
0
0
-1.38669e-16
2.9219e-16
-2.18865e-16
4.14781e-16
0
0
1.79367e-16
-1.58232e-16
-1.15318e-16
3.61922e-17
-3.81166e-17
1.98378e-17
0
2.27295e-17
3.03961e-16
-2.52509e-16
-2.24841e-16
-3.74955e-16
-1.31226e-16
1.70964e-16
0
-2.0703e-16
-1.73777e-16
1.58247e-16
-1.32489e-16
1.0992e-16
0
4.36676e-17
8.85281e-17
0
0
0
-2.16775e-17
5.00959e-16
1.99547e-16
-6.75829e-16
1.91931e-16
1.68012e-16
0
0
1.96733e-16
-1.02105e-16
-1.53059e-16
1.28141e-16
-1.06301e-16
0
-2.98381e-17
2.65525e-17
0
-2.1956e-17
-7.61238e-18
-2.64402e-16
7.7594e-16
-9.52838e-16
-3.939e-16
2.04675e-16
-1.59921e-16
1.37825e-16
0
-9.95853e-17
8.51424e-17
0
0
4.3172e-17
-4.32218e-17
1.34739e-17
-1.69983e-17
3.2078e-17
3.37699e-18
5.6314e-18
1.34158e-16
-1.22616e-16
6.4174e-16
-4.15512e-16
-1.74149e-16
1.95055e-17
2.80747e-16
1.11355e-16
9.52882e-17
0
5.97577e-17
-5.56477e-17
4.55109e-17
-3.94394e-17
5.30912e-17
-9.22134e-17
-2.49609e-17
2.18684e-17
5.92528e-18
3.6216e-16
-3.65558e-16
0
3.55462e-16
-1.85645e-16
-1.44854e-16
1.0642e-16
-3.36065e-16
0
-5.61607e-18
-6.74552e-17
-5.07846e-17
7.67783e-17
-5.39703e-18
-5.13118e-17
3.85976e-17
0
1.44558e-17
-5.7534e-18
6.10849e-16
-1.09863e-16
4.788e-16
-3.75781e-16
2.17348e-16
3.13109e-17
-2.54817e-16
-9.23724e-17
1.68802e-16
-6.24332e-18
-1.06725e-16
9.19846e-17
-4.09657e-17
-5.63441e-17
0
0
0
-1.45972e-17
5.47069e-19
-5.48304e-16
5.35376e-16
3.40826e-19
8.52794e-17
7.51226e-17
-1.87705e-16
2.25385e-16
-1.90883e-16
1.66756e-16
-5.8651e-17
1.1241e-16
4.16532e-17
-1.80287e-17
9.9045e-19
-7.07578e-18
-1.24685e-17
0
0
0
0
0
2.71593e-16
-1.25972e-16
-4.20745e-16
0
0
-5.52066e-17
-9.24586e-17
7.93407e-17
0
-5.25323e-17
4.2068e-17
-1.44878e-16
1.67868e-16
-5.67454e-17
6.05799e-17
6.73569e-18
0
-1.06279e-16
1.07587e-16
0
-9.01139e-17
9.16517e-17
1.56502e-16
0
5.57338e-17
7.84287e-17
-3.45326e-16
0
-5.71314e-17
4.59084e-17
3.43081e-17
-2.61546e-17
3.88417e-17
0
-1.47368e-17
0
-5.4635e-17
-5.50493e-17
3.26307e-18
9.25897e-17
-2.53793e-16
0
-6.83618e-17
0
2.05296e-16
8.581e-17
0
2.26278e-16
-2.4257e-16
2.31884e-17
-5.8469e-17
1.44553e-17
7.41804e-17
2.89434e-17
-2.29121e-17
0
1.13591e-16
-1.01849e-16
1.26793e-16
1.56502e-16
0
1.3972e-16
-1.33297e-16
-1.09568e-16
1.70964e-16
-2.57309e-16
-1.30935e-16
0
0
3.14003e-17
0
0
9.36116e-18
0
-5.00666e-16
3.83712e-16
0
5.13813e-18
-9.19369e-17
-5.166e-18
8.41642e-17
6.33118e-17
-7.66943e-17
-2.0726e-16
3.39901e-16
-9.13425e-17
0
-4.70102e-17
0
0
0
-3.6032e-17
2.87426e-17
-1.40863e-16
1.33501e-16
3.63406e-16
-3.57383e-16
1.11433e-16
5.62291e-18
-8.55525e-17
7.55662e-17
1.31765e-16
1.0391e-16
-2.05806e-16
0
1.14503e-16
1.93023e-17
-5.37933e-17
-1.2251e-16
1.01556e-16
-1.73022e-17
3.22988e-17
-4.73832e-16
6.97466e-16
-6.93622e-16
1.24438e-16
1.08145e-16
-1.03911e-16
8.84005e-17
-7.23458e-17
0
-6.39694e-17
1.06494e-16
4.63202e-17
7.61994e-17
1.00747e-16
-1.51978e-16
-1.63013e-18
0
-1.28517e-17
4.27113e-18
-5.12356e-16
-1.55206e-16
-2.77596e-16
1.46477e-16
-2.46935e-16
2.19075e-16
-1.31817e-16
1.14646e-16
-6.94365e-18
-6.97115e-18
-1.1012e-16
6.40441e-17
-3.89401e-17
1.17295e-16
-1.25918e-16
1.70653e-17
1.37283e-17
0
-7.32172e-18
5.5397e-16
-1.67163e-16
0
0
-2.54536e-16
4.98083e-16
-1.17925e-16
-2.34248e-17
1.95641e-16
-4.96177e-18
0
0
-4.85081e-17
0
-1.08352e-16
2.66109e-16
-1.85764e-16
0
2.85072e-18
1.90496e-16
3.594e-16
0
-1.56509e-16
-1.31064e-16
-1.18779e-16
-1.22282e-16
5.19775e-17
-1.46639e-16
-8.20851e-17
0
0
6.20953e-17
0
0
-1.4458e-16
2.37746e-16
0
0
1.30706e-15
-1.49043e-16
-8.02764e-16
-4.47361e-16
6.05949e-16
1.97013e-16
1.18568e-16
0
-4.48292e-17
4.44611e-17
1.09455e-16
-3.55805e-17
-5.44891e-17
8.48515e-17
-9.0256e-17
-2.86208e-17
0
0
0
1.0467e-16
-8.36528e-16
8.20997e-16
-7.97768e-17
-6.27262e-16
9.8784e-16
-4.9917e-16
0
0
2.78429e-16
-2.29866e-16
0
-7.1472e-17
1.23932e-16
-1.43555e-17
3.65928e-17
1.12672e-17
1.12865e-19
2.48346e-18
0
0
0
7.02449e-16
-4.70555e-16
5.05759e-16
-7.91107e-16
2.26976e-16
0
-8.39022e-17
1.3596e-16
-1.38959e-16
-2.78043e-17
-8.15847e-19
-1.93454e-17
-2.96183e-18
-1.53925e-17
-4.28722e-18
-2.357e-18
8.78903e-16
-1.57372e-15
7.48997e-16
0
2.07393e-16
-2.82292e-16
2.88293e-16
-2.28783e-16
0
-1.14386e-16
1.60414e-16
0
0
-6.22827e-19
0
-1.95826e-17
1.34318e-17
2.56431e-18
3.74537e-18
8.47194e-16
0
-3.44937e-16
3.85414e-16
-2.46262e-16
5.39941e-16
-2.5643e-16
-2.04126e-16
2.06258e-16
-2.11708e-17
0
0
1.3812e-17
-2.36428e-17
-1.65613e-17
3.14741e-17
-6.81362e-18
3.52005e-18
0
4.81177e-16
3.81051e-16
-1.03607e-17
-3.66975e-16
-3.75468e-17
-2.7365e-16
2.77999e-17
2.31914e-16
-1.21083e-17
2.15684e-17
0
0
-1.41495e-17
0
1.67093e-17
-1.7875e-17
0
2.29216e-18
-6.37164e-19
-2.55435e-16
-1.91032e-16
1.78829e-16
-2.07345e-17
-9.36192e-18
2.5517e-17
0
-6.83368e-18
1.03476e-16
-8.7143e-17
0
3.00107e-17
-5.79818e-18
-2.65928e-17
-2.43943e-18
-1.9055e-18
0
-1.79025e-18
0
1.04908e-16
-2.00135e-16
-3.30894e-18
8.69341e-17
8.07504e-17
-8.02889e-17
-5.77545e-17
6.54074e-17
-2.27532e-17
1.77769e-17
-1.74973e-17
1.8037e-17
0
4.65515e-20
-1.79421e-18
6.46176e-18
-2.21419e-20
0
0
1.04912e-16
-1.04519e-16
-8.64796e-17
7.6567e-17
1.427e-16
-1.43543e-16
-2.88782e-17
2.89459e-17
-2.29451e-17
2.31862e-17
-1.74978e-17
3.30862e-17
-9.27918e-18
-6.72226e-18
-2.07307e-18
6.85201e-19
1.64186e-18
4.34674e-19
-3.26035e-19
0
-2.49865e-17
1.50775e-16
-1.6332e-16
1.42572e-16
-1.26297e-16
0
1.02927e-16
-9.20046e-17
0
3.49102e-17
-4.42426e-17
-2.53756e-17
2.65952e-17
4.92837e-18
0
0
-1.79045e-18
6.51006e-19
4.17726e-16
-7.7195e-16
7.93564e-16
-7.02331e-16
2.77097e-16
-2.39669e-16
2.27248e-16
2.74371e-17
-1.03002e-16
9.20851e-17
0
-6.80787e-17
6.19438e-17
-1.18958e-17
-4.82734e-18
7.67001e-18
5.64909e-18
1.73818e-18
-6.2902e-19
9.55666e-16
0
-3.90003e-16
3.02959e-16
3.71147e-17
-2.89333e-16
5.15684e-16
-4.6177e-16
1.81947e-16
-7.91263e-17
8.09927e-17
1.61462e-17
2.81393e-17
1.15866e-17
-9.74676e-18
-1.23464e-18
-1.22636e-17
0
1.27168e-18
7.71876e-16
-8.68837e-16
0
8.13858e-17
3.56487e-16
-3.49844e-16
6.06933e-17
5.43584e-17
2.3814e-17
4.26807e-17
0
0
-4.89987e-17
9.2621e-17
-3.39794e-17
-1.22703e-17
1.3434e-17
1.08169e-18
-2.42588e-18
6.33677e-17
7.63166e-16
-8.95484e-17
-6.20927e-16
5.4485e-16
6.61746e-17
-5.93994e-17
-5.3092e-17
1.78291e-16
-2.21204e-16
1.35992e-16
-1.38991e-16
2.235e-17
-2.77823e-17
5.19912e-17
-3.45631e-17
0
0
2.56559e-18
0
1.92376e-16
-5.87536e-16
6.7082e-16
-5.55258e-16
5.53936e-16
0
1.99436e-16
-2.0035e-16
-1.54475e-16
2.3002e-16
0
9.81882e-17
-1.2401e-16
-1.84297e-17
0
-2.12819e-18
-4.38557e-18
5.746e-21
-1.81106e-15
8.68719e-16
0
-6.05826e-16
6.05766e-16
3.81392e-16
-2.50955e-16
1.06293e-16
0
-4.92722e-18
3.83365e-17
-3.55286e-17
-5.44115e-17
8.47159e-17
-9.00811e-17
0
2.04481e-17
-4.83227e-18
-2.71055e-18
1.11867e-15
-1.10452e-15
0
1.56761e-16
1.44786e-16
-1.33639e-16
0
-1.11396e-16
-9.87264e-17
0
-3.19113e-18
0
6.21159e-17
0
0
2.98646e-17
1.13184e-16
-1.45857e-16
0
1.81171e-19
1.67243e-16
-1.5664e-16
1.32153e-16
-6.69671e-16
2.58727e-16
0
2.34401e-17
6.67036e-17
0
-7.09056e-17
2.14053e-16
-2.24875e-16
3.94641e-17
0
-3.6214e-18
0
0
0
1.66816e-19
0
1.44774e-16
0
-2.34318e-16
2.38043e-16
0
9.03926e-17
-7.45036e-17
2.74656e-16
-1.33425e-16
5.04378e-17
-8.31842e-17
8.16414e-17
-1.26052e-16
-2.04138e-17
0
-1.47759e-17
0
4.37406e-16
-7.39037e-16
0
-1.24719e-16
1.14242e-16
0
0
-1.66041e-16
0
-6.4011e-17
-1.06566e-16
-4.6357e-17
7.62666e-17
0
4.43648e-17
0
0
3.27014e-17
-3.66977e-17
0
6.47192e-16
-5.18964e-16
1.15461e-16
-1.05788e-16
-4.50936e-17
1.31411e-16
1.52037e-16
-1.929e-16
6.25252e-17
2.7732e-18
-6.3843e-17
2.64017e-16
-8.24676e-17
-2.01686e-16
7.09914e-17
-1.94983e-17
1.15761e-17
-3.74136e-18
-1.03118e-15
3.83655e-16
0
0
4.59752e-17
-4.67516e-17
3.60433e-17
2.59397e-17
1.75931e-16
9.38591e-17
-9.45734e-17
-2.32083e-18
-5.75808e-17
4.70458e-17
0
2.54655e-17
1.78716e-17
1.01424e-17
3.38167e-18
0
3.36644e-16
-3.19067e-16
1.03382e-16
1.11275e-16
-2.16745e-17
-7.2995e-17
-6.43322e-17
-2.2145e-16
9.31929e-17
-6.18373e-17
8.10473e-17
5.38452e-17
-7.15256e-17
7.592e-17
5.1805e-17
-6.61482e-17
-9.36797e-18
0
-5.81091e-17
-2.66322e-16
9.71979e-17
9.26127e-17
-3.29315e-16
2.38838e-16
1.26101e-16
-1.28895e-16
1.03978e-16
-8.84447e-17
0
0
-8.45088e-17
1.53902e-16
-6.92696e-17
6.87685e-17
-7.49025e-17
1.28863e-17
-2.293e-17
1.09826e-16
1.04215e-16
-9.69111e-17
8.00444e-17
-9.07486e-17
-1.46566e-16
0
0
0
0
0
0
4.38577e-17
-1.20818e-16
1.27778e-16
-4.39702e-17
5.40934e-17
2.62516e-17
-2.23462e-17
2.26143e-16
-3.98683e-16
4.9969e-16
-2.46941e-16
3.39902e-16
-2.65458e-16
5.03134e-16
-2.90872e-16
-1.68679e-16
1.72551e-16
0
5.24982e-17
-4.28467e-17
1.11388e-16
-3.4915e-17
-4.82863e-17
-1.07541e-16
7.87365e-18
1.91451e-17
3.51165e-16
1.03926e-16
0
-1.70058e-16
-1.40816e-16
3.27838e-16
3.89322e-17
-1.42812e-16
8.69174e-17
-6.57289e-17
0
-4.15582e-17
0
-3.67343e-17
3.04679e-17
-2.82704e-17
-9.46416e-18
6.85617e-18
0
4.91556e-16
-1.09862e-16
4.78598e-16
-3.75644e-16
-7.88241e-17
3.25647e-16
-1.95173e-16
8.52279e-18
7.18614e-18
-6.47558e-17
6.29987e-17
0
0
4.3983e-17
-1.70417e-17
1.14805e-17
3.4185e-17
-1.18788e-17
0
9.22306e-20
0
-1.05005e-16
6.37087e-16
-4.34193e-16
-4.87559e-16
2.68495e-16
-3.01127e-16
2.82878e-16
1.48056e-16
-1.17395e-16
4.92486e-17
-4.48105e-17
7.14267e-18
7.95354e-17
3.80959e-18
-3.20064e-17
3.16614e-17
-6.41484e-18
1.20486e-15
-3.86275e-16
2.00291e-16
-6.13117e-16
1.74148e-16
-2.84998e-16
1.50674e-16
0
0
-5.74608e-18
-7.57622e-18
-2.22256e-18
0
-6.78616e-17
-5.30916e-17
3.98831e-17
-2.94583e-18
4.79789e-18
1.24701e-17
0
-3.88432e-16
6.7714e-16
1.64276e-16
-5.70893e-16
1.5992e-16
-2.577e-16
3.53715e-17
2.17412e-16
0
0
4.15312e-18
5.2997e-17
0
-4.99574e-17
-2.34854e-17
3.43832e-18
-1.27428e-17
-1.4112e-17
0
-2.49543e-16
4.51137e-17
4.57812e-16
3.62025e-16
-6.722e-16
3.10501e-16
-2.31863e-16
1.22427e-16
-1.81128e-16
0
0
0
-8.69476e-17
2.5786e-17
-2.99843e-17
0
-1.89125e-18
9.53676e-18
-9.10436e-16
8.6784e-16
9.63606e-16
-1.17263e-15
5.73534e-16
-5.4405e-16
0
2.42652e-16
-3.36456e-16
2.00731e-16
-1.62704e-16
1.37218e-16
1.14692e-16
8.9923e-17
7.22748e-17
0
0
0
0
9.97216e-16
-5.87873e-16
0
0
-2.06717e-16
5.2301e-16
-3.36405e-16
-2.55226e-16
2.52349e-16
1.98499e-16
3.42394e-16
-1.42377e-16
6.03837e-17
4.74094e-17
3.6006e-17
2.88567e-17
4.72476e-17
-2.33873e-18
2.3822e-18
-1.01522e-15
9.42834e-16
5.21613e-16
-2.68697e-16
6.21712e-16
-4.00733e-16
-3.30355e-16
-2.87543e-16
0
-4.12476e-16
1.67563e-17
1.58131e-16
-1.28666e-16
-1.06716e-16
-3.94969e-17
-4.26979e-17
-3.39898e-17
0
0
-3.49224e-16
0
2.80774e-16
-5.84273e-19
0
0
3.40772e-16
2.96704e-16
0
2.21669e-16
0
-2.40351e-16
-6.75863e-17
1.21332e-16
0
7.86289e-17
-1.11782e-17
1.14032e-17
0
7.3809e-16
0
5.45898e-16
-1.0241e-15
9.3001e-16
7.79993e-16
-2.00777e-17
0
1.86793e-17
2.51217e-16
0
-2.62894e-16
3.01011e-16
-2.68683e-16
-5.88585e-17
-6.34629e-17
-1.83356e-17
-3.21208e-18
-1.09882e-17
-6.96699e-16
1.00642e-15
-2.9206e-16
-7.81045e-16
-4.62763e-16
-4.10376e-16
-7.25979e-16
-3.02485e-16
1.98281e-17
1.16197e-16
-1.15979e-16
3.79254e-16
-1.67526e-16
3.42068e-16
-6.41207e-17
0
7.09165e-17
-4.11731e-17
1.11988e-17
1.51792e-15
-2.82619e-17
-1.20218e-15
1.02839e-15
-9.39414e-16
8.38678e-16
-2.19665e-17
-3.33564e-16
2.97195e-16
1.2227e-16
-1.42968e-17
-3.05985e-16
9.05694e-17
9.03672e-17
-2.83642e-17
2.86877e-17
-7.34522e-17
-5.82912e-18
-1.62313e-17
7.45163e-16
3.23166e-16
5.79686e-16
-5.20804e-16
-4.44734e-16
1.92564e-17
-3.57447e-16
8.69599e-16
2.4381e-17
4.17018e-16
2.46751e-16
-2.19857e-16
0
-1.58346e-16
0
0
9.67894e-17
4.32511e-17
1.90105e-17
7.04738e-16
0
5.72994e-16
5.17443e-16
-4.69262e-16
4.20664e-16
0
-3.41631e-16
-4.7798e-16
-4.24764e-16
-2.48935e-16
2.22343e-16
0
0
0
0
-9.0675e-17
-6.47401e-17
0
-1.38101e-15
0
-2.34657e-17
-2.07417e-17
7.11389e-16
-4.12953e-16
-1.91794e-16
-1.92311e-16
4.81017e-16
0
1.27896e-16
-1.37641e-17
1.11686e-16
0
0
1.45558e-16
-1.0784e-17
7.76991e-17
-2.85099e-17
9.74443e-16
2.87789e-16
-2.84819e-16
-2.57451e-16
-9.16107e-16
6.39469e-16
7.8376e-16
-1.66676e-17
-3.25579e-16
3.17881e-16
6.74747e-17
-3.39185e-16
-2.81398e-16
-1.65375e-16
-1.74293e-16
-1.677e-16
1.35117e-16
-6.41148e-18
2.92002e-17
-3.01348e-16
1.39154e-16
-6.74134e-16
1.1869e-16
-1.18258e-16
0
-3.87639e-16
-2.1551e-17
-3.58556e-16
2.45423e-17
3.50178e-16
2.62881e-16
-6.35843e-17
3.1446e-17
1.66017e-16
0
-2.78593e-16
-1.00663e-16
-2.10029e-18
6.07287e-16
-1.69196e-17
1.05906e-15
-5.10059e-16
8.82501e-19
1.38459e-17
4.18301e-16
-2.69131e-17
3.4774e-16
-3.25792e-16
-3.05841e-16
0
2.96831e-16
2.40089e-16
3.27114e-18
-4.74461e-18
1.495e-16
1.02326e-16
0
-4.32742e-16
0
-1.10288e-16
4.848e-16
5.97954e-18
1.12655e-16
-4.0449e-16
3.83914e-16
3.99439e-16
3.82097e-16
3.66215e-16
0
-2.88366e-16
0
1.49518e-17
-1.55288e-17
0
-1.4607e-18
7.14718e-17
2.96574e-16
1.31496e-17
-2.44154e-16
7.48378e-16
-2.41651e-16
0
0
-4.41505e-16
-3.87015e-16
-3.70166e-16
-6.64639e-16
-9.2725e-17
0
0
0
-3.01349e-17
3.18903e-17
2.02584e-16
-7.25549e-17
1.35196e-17
0
-5.17026e-16
-4.79403e-16
4.98171e-16
-4.93899e-16
-7.10104e-16
8.78756e-16
2.40043e-16
0
3.88805e-16
4.34192e-16
-9.37511e-17
5.07002e-16
-8.28698e-17
8.62473e-17
3.33493e-16
-1.92505e-16
0
-5.67653e-16
0
-5.46301e-16
5.36478e-16
0
9.80042e-16
4.62515e-16
-9.64522e-16
7.6478e-16
-5.37096e-18
-2.32569e-16
-4.20387e-16
0
5.71493e-16
-9.60527e-16
1.02998e-15
-1.31237e-15
0
0
5.64663e-16
-3.11806e-18
-7.6883e-18
-1.0773e-15
1.08478e-15
-5.26055e-16
5.23911e-16
5.1625e-16
-4.61561e-16
0
0
8.56022e-16
-8.70769e-16
-9.34018e-16
9.24966e-16
-9.00375e-16
9.7327e-16
-1.52403e-15
0
)
;

boundaryField
{
    up
    {
        type            calculated;
        value           nonuniform List<scalar> 
84
(
0
0
0
0
-5.22906e-17
9.45728e-17
-3.95944e-17
2.92002e-17
-2.54489e-17
0
-2.13461e-17
2.03643e-17
-1.48751e-17
1.02244e-18
8.72524e-19
1.13742e-17
0
0
-7.61238e-18
5.6314e-18
5.92528e-18
-5.7534e-18
5.47069e-19
0
2.39186e-18
1.02762e-18
-2.19656e-17
0
2.87426e-17
3.3484e-17
4.27113e-18
-7.32172e-18
2.85072e-18
0
-1.39941e-18
2.58205e-18
-2.35992e-18
3.74364e-18
0
-6.36925e-19
0
0
-3.26303e-19
6.51006e-19
-6.2902e-19
1.27168e-18
-2.42588e-18
2.56559e-18
5.746e-21
-2.71055e-18
0
0
0
-3.66977e-17
-4.92723e-18
3.38167e-18
0
-2.293e-17
-2.23462e-17
1.67617e-17
0
0
-6.41484e-18
1.24701e-17
-1.4112e-17
9.53676e-18
0
2.3822e-18
0
0
-1.09882e-17
1.11988e-17
-1.62313e-17
1.90105e-17
0
-2.85099e-17
2.92002e-17
-2.10029e-18
0
7.14718e-17
-7.25549e-17
0
0
0
)
;
    }
    low
    {
        type            calculated;
        value           nonuniform List<scalar> 
84
(
-1.13028e-15
1.13057e-15
-5.55721e-16
8.72623e-16
1.52569e-16
-3.96441e-17
3.31324e-16
2.98541e-17
0
1.41318e-15
-3.58221e-16
3.06087e-16
-3.33997e-16
-2.13472e-15
3.48919e-16
0
-3.25066e-16
2.27295e-17
-2.16775e-17
-2.64402e-16
1.34158e-16
3.6216e-16
6.08926e-16
-5.48304e-16
0
-1.06279e-16
-5.4635e-17
0
-5.00666e-16
-1.40863e-16
-4.72506e-16
-5.11261e-16
5.53174e-16
1.90496e-16
1.30697e-15
1.0467e-16
0
8.78903e-16
8.48744e-16
4.82047e-16
-2.55908e-16
1.04908e-16
1.04912e-16
0
4.17726e-16
9.57215e-16
7.71876e-16
6.43203e-17
0
-1.81098e-15
1.11867e-15
1.81171e-19
1.66816e-19
4.37406e-16
0
-1.02919e-15
0
-5.81091e-17
1.09826e-16
2.24989e-16
3.49121e-16
4.89633e-16
9.22306e-20
1.20322e-15
0
0
-9.10436e-16
9.96303e-16
-1.01457e-15
-3.49224e-16
7.37977e-16
-6.96699e-16
1.51979e-15
7.46548e-16
7.04738e-16
-1.38101e-15
9.72846e-16
-2.99679e-16
6.07287e-16
-4.32072e-16
2.96574e-16
1.47265e-17
-5.67653e-16
5.64997e-16
)
;
    }
    left
    {
        type            calculated;
        value           nonuniform List<scalar> 
19
(
-1.12961e-15
-5.51213e-16
5.57822e-16
1.04193e-17
-1.06776e-15
0
-5.01381e-16
-4.94343e-16
-3.18924e-17
-2.59076e-16
-2.5414e-18
-2.57288e-16
1.14075e-15
-2.53994e-16
1.18778e-15
1.02421e-15
6.09001e-16
8.92737e-16
0
)
;
    }
    right
    {
        type            calculated;
        value           nonuniform List<scalar> 
19
(
5.64663e-16
-2.74782e-18
-7.6883e-18
-1.07728e-15
1.08503e-15
-5.26055e-16
5.23911e-16
5.1625e-16
-4.59999e-16
0
0
8.64194e-16
-8.82293e-16
-9.34018e-16
9.24966e-16
-9.00375e-16
9.7327e-16
-1.64818e-15
0
)
;
    }
    frontAndBackPlanes
    {
        type            empty;
    }
}


// ************************************************************************* //
