/*--------------------------------*- C++ -*----------------------------------*\
  =========                 |
  \\      /  F ield         | OpenFOAM: The Open Source CFD Toolbox
   \\    /   O peration     | Website:  https://openfoam.org
    \\  /    A nd           | Version:  7
     \\/     M anipulation  |
\*---------------------------------------------------------------------------*/
FoamFile
{
    version     2.0;
    format      ascii;
    class       volScalarField;
    location    "0.264";
    object      T;
}
// * * * * * * * * * * * * * * * * * * * * * * * * * * * * * * * * * * * * * //

dimensions      [0 0 0 1 0 0 0];

internalField   nonuniform List<scalar> 
1596
(
6.98197
6.93026
6.87731
6.82709
6.78059
6.73724
6.69608
6.65503
6.61251
6.56494
6.50951
6.44244
6.35519
6.23588
6.06599
5.80419
5.37336
4.61939
3.2334
6.92205
6.76103
6.60902
6.46901
6.34079
6.22216
6.11033
6.00084
5.88983
5.77062
5.63758
5.48387
5.29692
5.06124
4.75757
4.34931
3.77969
2.95094
1.67798
6.85113
6.58029
6.33653
6.11685
5.91791
5.7355
5.56524
5.40127
5.23837
5.06866
4.8855
4.68124
4.44332
4.15742
3.80779
3.36718
2.79808
2.04261
0.992807
6.78104
6.40729
6.08074
5.79106
5.5313
5.29533
5.0774
4.87084
4.66971
4.46582
4.25233
4.02169
3.76245
3.46236
3.10923
2.68333
2.16031
1.50638
0.658752
6.72276
6.25991
5.86086
5.51007
5.19778
4.91634
4.65907
4.41879
4.18924
3.96222
3.73107
3.48852
3.22429
2.92791
2.58974
2.19515
1.72784
1.16767
0.477434
6.68347
6.1504
5.69011
5.28623
4.92794
4.6069
4.3159
4.04762
3.79564
3.55196
3.3101
3.06308
2.80153
2.51625
2.19922
1.839
1.42399
0.941603
0.368891
6.6642
6.08219
5.57272
5.12327
4.72421
4.3676
4.04631
3.75315
3.48178
3.22445
2.97486
2.72627
2.46993
2.19748
1.90186
1.57352
1.20358
0.78356
0.298448
6.6608
6.05037
5.50414
5.01661
4.58144
4.19229
3.8428
3.52627
3.23668
2.96658
2.70991
2.46007
2.20878
1.94819
1.67174
1.37103
1.03867
0.668397
0.249641
6.6692
6.04797
5.47676
4.95851
4.49164
4.07249
3.69616
3.35689
3.0492
2.76607
2.50169
2.24965
2.00196
1.75111
1.49076
1.21318
0.911797
0.581443
0.214061
6.68066
6.0603
5.47449
4.93307
4.43951
3.99344
3.59204
3.23086
2.90525
2.60879
2.336
2.08065
1.83502
1.59178
1.34473
1.08645
0.810794
0.513119
0.186795
6.68996
6.07541
5.48256
4.9249
4.40999
3.94076
3.51675
3.13513
2.79233
2.48267
2.20112
1.94171
1.69693
1.45962
1.22359
0.981629
0.727741
0.457478
0.164994
6.70159
6.0961
5.50062
4.93138
4.39913
3.90975
3.46517
3.06433
2.70491
2.38211
2.09143
1.82717
1.5821
1.34917
1.12215
0.8939
0.658472
0.411382
0.147173
6.71269
6.11791
5.52271
4.94533
4.39904
3.89227
3.4292
3.01059
2.63545
2.29992
2.0001
1.73066
1.48459
1.25494
1.03543
0.818933
0.599427
0.372289
0.132224
6.71961
6.13399
5.54047
4.95759
4.40026
3.87894
3.39983
2.9654
2.57599
2.22875
1.92042
1.64605
1.39886
1.17201
0.959152
0.753113
0.547762
0.338265
0.119344
6.7255
6.14696
5.55491
4.96769
4.40113
3.86728
3.37404
2.92545
2.52314
2.16523
1.84911
1.57022
1.32202
1.09773
0.890959
0.694436
0.501885
0.308217
0.108078
6.73124
6.15857
5.56728
4.9759
4.401
3.85585
3.34984
2.88839
2.47433
2.10672
1.78356
1.50066
1.2517
1.02996
0.82895
0.641293
0.460529
0.281289
0.098077
6.73524
6.16695
5.57567
4.98005
4.39731
3.84181
3.32416
2.85109
2.42647
2.05022
1.72093
1.43474
1.18551
0.966556
0.771276
0.592156
0.422525
0.256712
0.0890426
6.73813
6.17272
5.58062
4.98043
4.39001
3.82467
3.29619
2.81241
2.37821
1.99429
1.65973
1.37095
1.12198
0.906139
0.716691
0.545962
0.387046
0.233943
0.0807596
6.74345
6.18151
5.58812
4.98277
4.38417
3.80872
3.26933
2.77498
2.33143
1.94012
1.60059
1.30951
1.06099
0.848341
0.664681
0.502161
0.353607
0.212646
0.0730969
6.74995
6.19282
5.59837
4.98755
4.38035
3.79441
3.24387
2.73881
2.28592
1.88732
1.54295
1.24966
1.00165
0.792181
0.614227
0.459782
0.321402
0.192293
0.0658745
6.75492
6.2027
5.60758
4.99149
4.37575
3.77934
3.21772
2.70211
2.24008
1.83441
1.48539
1.19006
0.942625
0.736308
0.563963
0.417497
0.28928
0.172112
0.0588386
6.75991
6.21253
5.61696
4.99579
4.37157
3.7647
3.19198
2.6658
2.19459
1.78179
1.42805
1.1305
0.883413
0.679909
0.512772
0.373925
0.255775
0.150932
0.0515786
6.76565
6.22354
5.62771
5.00157
4.36892
3.75156
3.16764
2.63072
2.1501
1.72984
1.37094
1.07068
0.823325
0.621925
0.459174
0.327103
0.218464
0.126331
0.0429296
6.77173
6.23512
5.63905
5.00798
4.36697
3.73921
3.14413
2.5964
2.10613
1.67797
1.31329
1.00953
0.76102
0.560699
0.401121
0.274357
0.17366
0.0933571
0.0281982
6.78131
6.25909
5.67351
5.04907
4.41094
3.78265
3.1841
2.6305
2.13263
1.69582
1.32225
1.01017
0.75455
0.548795
0.385672
0.25724
0.156856
0.0794038
0.0211199
6.79184
6.28976
5.72329
5.11581
4.49142
3.87272
3.27914
2.72576
2.22365
1.77889
1.3946
1.07037
0.802502
0.585529
0.412923
0.276919
0.170525
0.0879776
0.0245502
6.79708
6.30796
5.75596
5.16318
4.55234
3.94475
3.35883
2.80904
2.30619
1.8566
1.46404
1.1292
0.849735
0.621537
0.439124
0.295175
0.182573
0.0950591
0.0271599
6.7971
6.31319
5.77051
5.1897
4.59184
3.99658
3.42086
2.87799
2.37804
1.92707
1.5291
1.18562
0.895557
0.656322
0.46386
0.311679
0.192809
0.100624
0.0290184
6.79369
6.30917
5.77188
5.20102
4.61582
4.03395
3.47053
2.93736
2.44339
1.99405
1.59323
1.24287
0.942936
0.692431
0.489102
0.327818
0.202172
0.105301
0.0304265
6.78721
6.29829
5.76425
5.20249
4.63015
4.06278
3.51349
2.99232
2.50692
2.06183
1.66048
1.3049
0.99572
0.733361
0.517638
0.345447
0.21168
0.109589
0.0315717
6.77904
6.28459
5.75337
5.2008
4.64193
4.09012
3.55638
3.049
2.57424
2.1356
1.73588
1.37683
1.05922
0.784398
0.554122
0.3679
0.223102
0.114119
0.0326049
6.77267
6.27393
5.74619
5.2034
4.65862
4.12311
3.60588
3.11352
2.65096
2.22071
1.82483
1.46451
1.14014
0.8531
0.606313
0.401784
0.24052
0.120252
0.0335501
6.76666
6.2646
5.74143
5.20954
4.67999
4.16195
3.66255
3.18678
2.7384
2.31902
1.93005
1.57208
1.24473
0.948533
0.686077
0.460281
0.275279
0.134092
0.0345389
6.76085
6.25678
5.73976
5.22033
4.70748
4.20834
3.72827
3.27086
2.83883
2.43313
2.05474
1.7039
1.37956
1.08118
0.809778
0.566703
0.355683
0.182446
0.0500687
6.75398
6.24591
5.73257
5.22284
4.72376
4.24063
3.77726
3.33607
2.91897
2.52639
2.15909
1.81722
1.49961
1.20526
0.933925
0.684554
0.457304
0.254673
0.0787972
6.74203
6.22037
5.70129
5.19173
4.69687
4.22048
3.76508
3.33212
2.9228
2.53705
2.17539
1.83791
1.52349
1.23131
0.961352
0.712457
0.484122
0.276911
0.0897111
6.72635
6.1853
5.65516
5.14038
4.6443
4.16926
3.71668
3.28714
2.88127
2.49852
2.13922
1.80341
1.49007
1.19867
0.929764
0.6829
0.458572
0.258435
0.082134
6.71315
6.15593
5.61664
5.09761
4.60058
4.12673
3.67657
3.25
2.84718
2.46725
2.11043
1.77678
1.46537
1.17591
0.909255
0.665226
0.444582
0.249191
0.0787595
6.70368
6.13415
5.58763
5.06507
4.56711
4.09402
3.64561
3.22127
2.82082
2.44317
2.08846
1.75676
1.4472
1.15958
0.894944
0.653231
0.435325
0.243226
0.0766848
6.69644
6.11752
5.56548
5.04023
4.54153
4.06898
3.62189
3.19925
2.80064
2.42479
2.07178
1.74168
1.43364
1.14754
0.884505
0.644561
0.42868
0.238971
0.0752294
6.69116
6.1054
5.54944
5.02233
4.52317
4.05106
3.60493
3.18352
2.78623
2.41168
2.05992
1.73099
1.42407
1.13906
0.877162
0.638452
0.423975
0.235936
0.074182
6.68687
6.09677
5.53872
5.01084
4.51171
4.0401
3.59472
3.17418
2.7778
2.40413
2.0532
1.72506
1.41887
1.13456
0.873364
0.635372
0.421659
0.234477
0.0736977
6.68689
6.09679
5.53875
5.01088
4.51175
4.04014
3.59477
3.17423
2.77785
2.40418
2.05324
1.72509
1.41891
1.13459
0.873388
0.635391
0.421672
0.234485
0.0737003
6.69119
6.10547
5.54954
5.02244
4.5233
4.05119
3.60507
3.18366
2.78637
2.41182
2.06004
1.73111
1.42418
1.13915
0.877238
0.638512
0.424018
0.235963
0.0741913
6.69648
6.11763
5.56564
5.04041
4.54174
4.0692
3.62211
3.19947
2.80085
2.42499
2.07197
1.74186
1.4338
1.14768
0.88462
0.644652
0.428745
0.23901
0.0752427
6.70374
6.13429
5.58783
5.06532
4.56738
4.0943
3.6459
3.22156
2.82111
2.44345
2.08872
1.75699
1.4474
1.15976
0.895091
0.653346
0.435407
0.243275
0.0767013
6.71322
6.15611
5.61689
5.09791
4.60092
4.12709
3.67693
3.25036
2.84753
2.46758
2.11074
1.77706
1.46562
1.17612
0.909428
0.665359
0.444676
0.249246
0.0787777
6.72643
6.1855
5.65544
5.14072
4.64468
4.16966
3.7171
3.28756
2.88167
2.4989
2.13957
1.80372
1.49034
1.1989
0.929942
0.683032
0.458659
0.258481
0.0821471
6.74211
6.22059
5.70161
5.19212
4.69731
4.22094
3.76555
3.33258
2.92324
2.53746
2.17577
1.83823
1.52375
1.23151
0.961487
0.712528
0.48414
0.2769
0.089698
6.75408
6.24623
5.73308
5.22351
4.72456
4.24154
3.77825
3.33713
2.92008
2.52752
2.16023
1.81835
1.50073
1.20636
0.934994
0.685566
0.458205
0.255354
0.0790929
6.76098
6.25716
5.74036
5.22114
4.70847
4.20949
3.72954
3.27222
2.84027
2.43461
2.05625
1.70541
1.38105
1.08263
0.811136
0.567908
0.356648
0.183078
0.0502978
6.76677
6.26492
5.74196
5.21024
4.68085
4.16295
3.66365
3.18797
2.73963
2.32027
1.9313
1.57331
1.2459
0.949607
0.687006
0.46101
0.275768
0.134335
0.0345862
6.77276
6.27422
5.74667
5.20406
4.65944
4.12406
3.60693
3.11464
2.65211
2.22187
1.82596
1.46559
1.14113
0.853965
0.607012
0.402291
0.240834
0.120404
0.0335893
6.77912
6.28486
5.75382
5.20142
4.6427
4.09101
3.55735
3.05004
2.5753
2.13665
1.7369
1.37777
1.06007
0.785105
0.554671
0.368286
0.223339
0.11424
0.0326392
6.78729
6.29853
5.76466
5.20306
4.63086
4.06361
3.5144
2.99328
2.5079
2.06279
1.66139
1.30573
0.996443
0.733953
0.518089
0.345761
0.211878
0.109693
0.0316027
6.79376
6.30938
5.77225
5.20154
4.61647
4.03471
3.47137
2.93824
2.44428
1.99492
1.59404
1.2436
0.943562
0.692936
0.489485
0.328087
0.202344
0.105395
0.0304556
6.79715
6.31337
5.77084
5.19016
4.59243
3.99728
3.42163
2.87879
2.37885
1.92785
1.52983
1.18627
0.896103
0.656761
0.464193
0.311916
0.192964
0.100712
0.029047
6.79712
6.30812
5.75625
5.16359
4.55286
3.94537
3.35952
2.80976
2.30692
1.8573
1.46469
1.12977
0.850214
0.621923
0.439421
0.295391
0.182719
0.095145
0.02719
6.79187
6.2899
5.72354
5.11617
4.49189
3.87327
3.27975
2.7264
2.22429
1.7795
1.39517
1.07087
0.802926
0.585874
0.413193
0.277122
0.170668
0.0880666
0.0245844
6.78131
6.25911
5.67357
5.04916
4.41107
3.7828
3.18427
2.63068
2.13281
1.69599
1.32241
1.01029
0.754646
0.548862
0.385711
0.257256
0.156855
0.0793941
0.0211122
6.77171
6.23508
5.63899
5.00789
4.36686
3.73908
3.144
2.59627
2.106
1.67785
1.31318
1.00943
0.760922
0.56061
0.401041
0.274286
0.173601
0.0933144
0.0281786
6.76565
6.22353
5.62769
5.00155
4.3689
3.75154
3.16762
2.6307
2.15009
1.72984
1.37094
1.07069
0.823337
0.621939
0.459189
0.327117
0.218475
0.126338
0.0429317
6.7599
6.21252
5.61695
4.99577
4.37155
3.76469
3.19197
2.66579
2.19459
1.78179
1.42805
1.13051
0.883424
0.679921
0.512783
0.373935
0.255782
0.150937
0.0515798
6.75491
6.20269
5.60757
4.99148
4.37574
3.77933
3.21771
2.70211
2.24008
1.83441
1.4854
1.19007
0.942635
0.736318
0.563973
0.417504
0.289285
0.172115
0.0588395
6.74995
6.19282
5.59836
4.98754
4.38035
3.7944
3.24386
2.73881
2.28593
1.88732
1.54295
1.24967
1.00166
0.792189
0.614234
0.459787
0.321406
0.192295
0.0658751
6.74345
6.1815
5.58812
4.98277
4.38417
3.80872
3.26933
2.77498
2.33143
1.94013
1.6006
1.30952
1.06099
0.848347
0.664686
0.502165
0.35361
0.212647
0.0730973
6.73813
6.17271
5.58061
4.98043
4.39001
3.82467
3.29619
2.81242
2.37822
1.99429
1.65973
1.37096
1.12198
0.906143
0.716694
0.545965
0.387048
0.233944
0.0807598
6.73524
6.16694
5.57567
4.98005
4.39731
3.84181
3.32417
2.85109
2.42647
2.05023
1.72094
1.43474
1.18551
0.966559
0.771278
0.592157
0.422525
0.256713
0.0890427
6.73124
6.15857
5.56728
4.9759
4.401
3.85586
3.34984
2.8884
2.47434
2.10672
1.78356
1.50066
1.2517
1.02996
0.828951
0.641293
0.460529
0.281289
0.098077
6.7255
6.14696
5.55492
4.96769
4.40114
3.86729
3.37405
2.92546
2.52314
2.16523
1.84911
1.57022
1.32202
1.09773
0.890959
0.694435
0.501884
0.308216
0.108077
6.71961
6.13399
5.54047
4.9576
4.40026
3.87894
3.39983
2.9654
2.57599
2.22875
1.92042
1.64605
1.39886
1.172
0.959151
0.753111
0.547761
0.338264
0.119344
6.71269
6.11791
5.52272
4.94534
4.39904
3.89227
3.4292
3.01059
2.63545
2.29992
2.0001
1.73066
1.48459
1.25493
1.03543
0.818931
0.599425
0.372288
0.132224
6.70159
6.0961
5.50062
4.93139
4.39914
3.90975
3.46517
3.06433
2.70491
2.38211
2.09142
1.82717
1.5821
1.34917
1.12215
0.893898
0.65847
0.411382
0.147173
6.68996
6.07542
5.48256
4.9249
4.40999
3.94076
3.51675
3.13513
2.79232
2.48267
2.20112
1.9417
1.69692
1.45962
1.22359
0.981627
0.72774
0.457478
0.164994
6.68067
6.0603
5.4745
4.93307
4.43951
3.99344
3.59204
3.23086
2.90525
2.60879
2.33599
2.08064
1.83501
1.59178
1.34473
1.08645
0.810793
0.513119
0.186796
6.6692
6.04797
5.47676
4.95851
4.49164
4.07248
3.69616
3.35689
3.04919
2.76606
2.50169
2.24965
2.00196
1.7511
1.49076
1.21318
0.911796
0.581444
0.214062
6.6608
6.05037
5.50413
5.01661
4.58144
4.19229
3.84279
3.52627
3.23668
2.96658
2.7099
2.46006
2.20877
1.94818
1.67173
1.37103
1.03867
0.668397
0.249642
6.6642
6.08219
5.57271
5.12326
4.7242
4.36759
4.0463
3.75314
3.48177
3.22444
2.97485
2.72626
2.46993
2.19748
1.90186
1.57352
1.20358
0.783561
0.298448
6.68347
6.1504
5.6901
5.28622
4.92793
4.60689
4.3159
4.04761
3.79563
3.55195
3.31009
3.06308
2.80152
2.51624
2.19922
1.839
1.42399
0.941604
0.368892
6.72276
6.25991
5.86086
5.51006
5.19777
4.91634
4.65906
4.41879
4.18923
3.96222
3.73107
3.48852
3.22428
2.9279
2.58974
2.19515
1.72784
1.16767
0.477434
6.78103
6.40729
6.08074
5.79106
5.5313
5.29532
5.07739
4.87083
4.66971
4.46581
4.25233
4.02169
3.76245
3.46236
3.10922
2.68333
2.16031
1.50638
0.658751
6.85113
6.58028
6.33653
6.11685
5.9179
5.7355
5.56524
5.40127
5.23836
5.06866
4.8855
4.68124
4.44332
4.15741
3.80779
3.36718
2.79808
2.04261
0.992807
6.92205
6.76103
6.60902
6.469
6.34078
6.22215
6.11033
6.00084
5.88983
5.77062
5.63757
5.48387
5.29692
5.06124
4.75757
4.34931
3.77969
2.95094
1.67797
6.98197
6.93026
6.87731
6.82709
6.78059
6.73723
6.69608
6.65502
6.61251
6.56494
6.50951
6.44244
6.35519
6.23588
6.06599
5.80419
5.37336
4.61938
3.23339
)
;

boundaryField
{
    up
    {
        type            fixedValue;
        value           uniform 0;
    }
    low
    {
        type            fixedValue;
        value           uniform 7;
    }
    left
    {
        type            fixedValue;
        value           uniform 7;
    }
    right
    {
        type            fixedValue;
        value           uniform 7;
    }
    frontAndBackPlanes
    {
        type            empty;
    }
}


// ************************************************************************* //
