/*--------------------------------*- C++ -*----------------------------------*\
  =========                 |
  \\      /  F ield         | OpenFOAM: The Open Source CFD Toolbox
   \\    /   O peration     | Website:  https://openfoam.org
    \\  /    A nd           | Version:  7
     \\/     M anipulation  |
\*---------------------------------------------------------------------------*/
FoamFile
{
    version     2.0;
    format      ascii;
    class       volScalarField;
    location    "0.293";
    object      T;
}
// * * * * * * * * * * * * * * * * * * * * * * * * * * * * * * * * * * * * * //

dimensions      [0 0 0 1 0 0 0];

internalField   nonuniform List<scalar> 
1596
(
3.99027
3.96234
3.93365
3.90627
3.88066
3.85647
3.83315
3.80952
3.78472
3.75678
3.72417
3.6848
3.63394
3.56488
3.46709
3.31702
3.07057
2.63963
1.84764
3.95792
3.87091
3.78847
3.71205
3.64138
3.57516
3.51179
3.4488
3.38408
3.31398
3.23547
3.14485
3.0352
2.89792
2.72219
2.48721
2.16061
1.68645
0.958833
3.9196
3.77318
3.64092
3.52096
3.41127
3.30946
3.21303
3.11875
3.02379
2.92389
2.81548
2.69452
2.55418
2.38661
2.18312
1.92834
1.60097
1.16793
0.567393
3.88169
3.67953
3.5023
3.34408
3.20091
3.06927
2.94598
2.82735
2.71017
2.59004
2.46334
2.32613
2.17228
1.99519
1.78827
1.54056
1.23834
0.862365
0.376695
3.8501
3.59965
3.38301
3.19145
3.01944
2.86264
2.71734
2.57959
2.44602
2.31224
2.17477
2.02985
1.87206
1.69587
1.4962
1.26508
0.993453
0.669977
0.273387
3.82876
3.54017
3.29026
3.0698
2.87264
2.69408
2.53011
2.37669
2.23038
2.08691
1.9429
1.79479
1.63769
1.46683
1.27809
1.06537
0.822395
0.542208
0.211769
3.81824
3.50303
3.22639
2.98116
2.76181
2.56386
2.38329
2.21617
2.05907
1.90785
1.75927
1.60987
1.45514
1.29079
1.1133
0.917679
0.699257
0.453507
0.17201
3.81633
3.48561
3.18899
2.92309
2.68416
2.46856
2.27268
2.09285
1.92579
1.76754
1.61494
1.46466
1.31241
1.15423
0.986864
0.806034
0.607962
0.389445
0.144685
3.82086
3.48421
3.174
2.89143
2.63535
2.40353
2.19316
2.00105
1.82422
1.65891
1.50213
1.35059
1.20019
1.04713
0.888314
0.71984
0.538431
0.341577
0.124965
3.8271
3.49089
3.17274
2.87761
2.60708
2.36071
2.13682
1.93291
1.74645
1.57399
1.4127
1.2594
1.11011
0.961113
0.80939
0.651228
0.483605
0.30435
0.110016
3.83221
3.4992
3.17723
2.87328
2.59117
2.33226
2.09614
1.8812
1.68548
1.50595
1.33999
1.18456
1.03578
0.890009
0.744225
0.59481
0.438848
0.274292
0.0981803
3.83863
3.51066
3.18731
2.87708
2.58555
2.31569
2.0684
1.84303
1.63832
1.45171
1.28086
1.12288
0.974015
0.830673
0.689788
0.54777
0.401712
0.24956
0.088588
3.8448
3.52285
3.19976
2.88516
2.58599
2.30664
2.04925
1.81417
1.60087
1.40732
1.23153
1.07078
0.921443
0.779957
0.643204
0.507572
0.3701
0.228646
0.080582
3.84875
3.53204
3.21004
2.89253
2.58735
2.30002
2.03378
1.78996
1.56877
1.36874
1.18826
1.02482
0.87492
0.735031
0.601979
0.472096
0.342331
0.210403
0.0736846
3.85215
3.53964
3.21869
2.89894
2.58876
2.29451
2.02042
1.76866
1.54021
1.33417
1.14929
0.983313
0.832849
0.694421
0.564783
0.440191
0.317477
0.194185
0.0676236
3.85548
3.54657
3.22636
2.90454
2.58987
2.28938
2.00811
1.74905
1.51388
1.30223
1.11325
0.944906
0.793955
0.656944
0.530554
0.410948
0.294813
0.179496
0.0621954
3.85788
3.55181
3.23199
2.90812
2.58926
2.28304
1.99519
1.72943
1.48807
1.27128
1.07858
0.908157
0.756907
0.621403
0.498248
0.383493
0.273664
0.16589
0.0572247
3.85967
3.55565
3.23582
2.90979
2.58688
2.27522
1.9812
1.70918
1.46207
1.24054
1.04446
0.872238
0.720893
0.587022
0.467154
0.357218
0.253556
0.153053
0.0525882
3.86275
3.5611
3.24106
2.91259
2.58542
2.26822
1.96798
1.68973
1.43692
1.21072
1.0113
0.837306
0.685869
0.553611
0.436988
0.331808
0.234209
0.140794
0.0482129
3.86643
3.56786
3.24775
2.91673
2.58512
2.2622
1.95563
1.67105
1.41248
1.18154
0.978737
0.802904
0.651296
0.520565
0.407115
0.306652
0.215114
0.128784
0.0439893
3.86925
3.57378
3.25379
2.92033
2.58433
2.25573
1.94286
1.652
1.38771
1.15206
0.945866
0.768156
0.616301
0.486995
0.376625
0.280858
0.195496
0.116501
0.0397498
3.87204
3.57956
3.25977
2.92396
2.58361
2.24933
1.93012
1.63293
1.36283
1.12235
0.912614
0.732822
0.580469
0.4523
0.344724
0.253458
0.174328
0.103131
0.0352097
3.8752
3.58585
3.26629
2.92813
2.58341
2.24339
1.91777
1.61411
1.33802
1.09244
0.878816
0.696543
0.543241
0.415702
0.310368
0.223081
0.149922
0.0869811
0.0295569
3.87849
3.59228
3.27286
2.93227
2.58312
2.23734
1.90526
1.59503
1.31274
1.06174
0.843781
0.65849
0.503631
0.37604
0.272152
0.187902
0.119746
0.0646289
0.019536
3.8836
3.60516
3.29151
2.95468
2.60729
2.26138
1.92747
1.61396
1.32726
1.07112
0.847777
0.657363
0.498087
0.367099
0.261012
0.175787
0.10798
0.0549319
0.0146504
3.88918
3.62146
3.31808
2.99054
2.65088
2.31063
1.97998
1.66718
1.37871
1.11863
0.889662
0.692663
0.526602
0.389307
0.277825
0.18823
0.116863
0.060659
0.0170023
3.8919
3.63091
3.3351
3.01537
2.68306
2.34904
2.02292
1.71256
1.4242
1.16195
0.928795
0.726172
0.553802
0.410302
0.293341
0.199267
0.124344
0.0651978
0.01874
3.8918
3.63325
3.34203
3.02838
2.70285
2.37546
2.05504
1.74878
1.46246
1.19995
0.964262
0.757217
0.579207
0.429718
0.307255
0.208659
0.130282
0.0685241
0.0199067
3.88983
3.63044
3.34154
3.03267
2.71353
2.39315
2.07942
1.77868
1.49605
1.23494
0.998214
0.787824
0.604692
0.449178
0.320835
0.217315
0.135307
0.0710677
0.0207087
3.88614
3.62376
3.33587
3.03119
2.71842
2.40554
2.09938
1.80537
1.52783
1.26962
1.03321
0.820506
0.632697
0.470902
0.335863
0.226435
0.140093
0.0731684
0.0212756
3.88146
3.61534
3.32813
3.02762
2.72149
2.41662
2.1188
1.83248
1.5612
1.30716
1.07238
0.858451
0.66654
0.498196
0.355257
0.238124
0.145773
0.0752451
0.0217121
3.87767
3.60836
3.32211
3.02605
2.7269
2.43049
2.14156
1.86365
1.59955
1.35085
1.11903
0.905275
0.710352
0.535726
0.38382
0.256486
0.154901
0.0781629
0.0220417
3.87399
3.60191
3.31718
3.02618
2.73465
2.44738
2.16812
1.89955
1.64379
1.40189
1.1749
0.963523
0.767955
0.589025
0.428813
0.289625
0.174484
0.0857149
0.022357
3.87034
3.59613
3.31375
3.0287
2.74567
2.46839
2.19969
1.9415
1.69537
1.46194
1.24194
1.03582
0.843281
0.664377
0.500117
0.351728
0.221864
0.11442
0.0316379
3.86605
3.58854
3.30713
3.02649
2.7503
2.48134
2.22164
1.97248
1.73498
1.50947
1.29654
1.09652
0.909015
0.733723
0.570814
0.419972
0.281564
0.157369
0.048912
3.8589
3.57277
3.2871
3.00553
2.73078
2.4648
2.20894
1.96396
1.73059
1.50889
1.29932
1.10214
0.916964
0.743599
0.58232
0.432719
0.294745
0.168965
0.0548761
3.84966
3.55167
3.2588
2.97334
2.69701
2.43099
2.17603
1.93244
1.70062
1.48037
1.27206
1.07593
0.891638
0.719157
0.559091
0.411443
0.276741
0.156185
0.0497134
3.84174
3.53371
3.23478
2.94609
2.66847
2.40247
2.14833
1.906
1.67565
1.45689
1.25003
1.05532
0.872486
0.701606
0.543452
0.398167
0.266409
0.149465
0.0472844
3.83592
3.52008
3.2163
2.92493
2.64617
2.38009
2.12655
1.8852
1.65604
1.43854
1.23298
1.03961
0.858169
0.688793
0.53233
0.388975
0.259434
0.145043
0.0457551
3.83142
3.50957
3.20206
2.90863
2.62901
2.36287
2.1098
1.86923
1.64102
1.42456
1.22007
1.02782
0.84753
0.679375
0.524243
0.382354
0.254447
0.141902
0.0446858
3.82814
3.50193
3.19178
2.89694
2.61676
2.35062
2.09791
1.85793
1.63043
1.41473
1.21104
1.0196
0.840154
0.672868
0.518664
0.377782
0.25099
0.139713
0.0439352
3.82557
3.49665
3.1851
2.88965
2.60932
2.34335
2.09098
1.85143
1.62442
1.40924
1.20607
1.01516
0.836231
0.669472
0.51581
0.375491
0.249293
0.138658
0.0435854
3.82558
3.49666
3.18512
2.88967
2.60934
2.34337
2.091
1.85146
1.62444
1.40926
1.20609
1.01517
0.836248
0.669487
0.515823
0.3755
0.249299
0.138663
0.0435867
3.82815
3.50197
3.19183
2.897
2.61682
2.3507
2.09799
1.85801
1.6305
1.4148
1.2111
1.01966
0.840207
0.672914
0.518703
0.377813
0.251013
0.139727
0.0439401
3.83144
3.50963
3.20214
2.90873
2.62912
2.36299
2.10991
1.86935
1.64113
1.42466
1.22017
1.02791
0.847612
0.679446
0.524302
0.3824
0.25448
0.141922
0.0446926
3.83595
3.52016
3.21641
2.92506
2.64632
2.38025
2.1267
1.88536
1.65618
1.43869
1.23311
1.03973
0.858274
0.688883
0.532404
0.389033
0.259475
0.145067
0.0457632
3.84178
3.5338
3.23492
2.94625
2.66865
2.40265
2.14852
1.90619
1.67583
1.45706
1.25018
1.05546
0.872611
0.701712
0.543538
0.398232
0.266455
0.149491
0.047293
3.84971
3.55178
3.25895
2.97353
2.69721
2.43121
2.17625
1.93265
1.70082
1.48057
1.27224
1.07609
0.891773
0.719267
0.559176
0.411503
0.27678
0.156205
0.0497182
3.85895
3.57289
3.28727
3.00574
2.73101
2.46505
2.20918
1.9642
1.73082
1.5091
1.2995
1.10229
0.91709
0.743689
0.582373
0.432737
0.294738
0.168946
0.0548635
3.8661
3.58871
3.3074
3.02685
2.75073
2.48184
2.22218
1.97306
1.73559
1.51009
1.29717
1.09716
0.90965
0.734352
0.571432
0.420563
0.282096
0.157776
0.0490898
3.87041
3.59633
3.31408
3.02914
2.74621
2.46902
2.20039
1.94226
1.69618
1.46277
1.2428
1.03669
0.844148
0.665226
0.500921
0.352447
0.222444
0.114802
0.0317771
3.87405
3.60209
3.31746
3.02656
2.73512
2.44793
2.16872
1.9002
1.64448
1.4026
1.17562
0.964231
0.768637
0.589656
0.429364
0.29006
0.174776
0.0858606
0.022385
3.87772
3.60851
3.32237
3.02641
2.72734
2.431
2.14213
1.86427
1.60019
1.3515
1.11968
0.905898
0.71093
0.536234
0.384234
0.256788
0.155089
0.0782538
0.0220652
3.8815
3.61548
3.32837
3.02795
2.7219
2.41711
2.11934
1.83306
1.56179
1.30776
1.07296
0.858998
0.667032
0.498612
0.355583
0.238353
0.145916
0.0753178
0.0217329
3.88618
3.62388
3.33608
3.0315
2.71881
2.40599
2.09988
1.8059
1.52838
1.27016
1.03374
0.820987
0.633119
0.471251
0.336131
0.226623
0.140212
0.0732318
0.0212947
3.88986
3.63055
3.34173
3.03295
2.71389
2.39357
2.07988
1.77917
1.49655
1.23544
0.998682
0.788249
0.605059
0.449477
0.321064
0.217477
0.135412
0.0711256
0.0207269
3.89183
3.63334
3.34221
3.02863
2.70317
2.37583
2.05546
1.74923
1.46292
1.20039
0.964679
0.757592
0.579529
0.42998
0.307456
0.208804
0.130378
0.068579
0.0199249
3.89193
3.63099
3.33526
3.01559
2.68335
2.34938
2.0233
1.71296
1.42461
1.16235
0.929167
0.726504
0.554086
0.410533
0.293522
0.199401
0.124436
0.0652525
0.0187595
3.8892
3.62153
3.31821
2.99073
2.65113
2.31093
1.98031
1.66753
1.37907
1.11898
0.889992
0.692958
0.526855
0.389516
0.27799
0.188356
0.116955
0.0607169
0.017025
3.8836
3.60517
3.29154
2.95473
2.60736
2.26146
1.92756
1.61405
1.32735
1.07121
0.847857
0.657429
0.498136
0.367131
0.261029
0.175791
0.107975
0.0549231
0.0146448
3.87848
3.59226
3.27282
2.93222
2.58306
2.23727
1.90519
1.59496
1.31266
1.06166
0.843707
0.658419
0.503565
0.375978
0.272096
0.187852
0.119705
0.0645994
0.0195227
3.8752
3.58584
3.26628
2.92812
2.58339
2.24338
1.91776
1.6141
1.33801
1.09244
0.878815
0.696545
0.543245
0.415708
0.310375
0.223088
0.149929
0.0869858
0.0295583
3.87204
3.57956
3.25976
2.92395
2.5836
2.24931
1.93011
1.63292
1.36283
1.12235
0.912615
0.732825
0.580473
0.452306
0.34473
0.253464
0.174333
0.103133
0.0352105
3.86925
3.57377
3.25378
2.92032
2.58433
2.25573
1.94285
1.652
1.3877
1.15206
0.945868
0.76816
0.616305
0.487
0.37663
0.280862
0.195499
0.116503
0.0397503
3.86643
3.56786
3.24774
2.91672
2.58511
2.2622
1.95562
1.67105
1.41248
1.18154
0.97874
0.802908
0.6513
0.520569
0.407119
0.306655
0.215116
0.128785
0.0439897
3.86275
3.5611
3.24106
2.91259
2.58542
2.26822
1.96798
1.68973
1.43693
1.21072
1.0113
0.83731
0.685872
0.553614
0.436991
0.33181
0.23421
0.140795
0.0482132
3.85967
3.55565
3.23582
2.90979
2.58688
2.27522
1.9812
1.70918
1.46207
1.24054
1.04446
0.872241
0.720895
0.587024
0.467156
0.357219
0.253557
0.153053
0.0525883
3.85788
3.5518
3.23199
2.90812
2.58926
2.28304
1.99519
1.72944
1.48807
1.27128
1.07858
0.908159
0.756909
0.621404
0.498249
0.383494
0.273665
0.16589
0.0572248
3.85548
3.54657
3.22636
2.90454
2.58987
2.28938
2.00811
1.74906
1.51388
1.30223
1.11325
0.944907
0.793956
0.656944
0.530555
0.410948
0.294813
0.179496
0.0621954
3.85215
3.53964
3.21869
2.89895
2.58876
2.29451
2.02042
1.76866
1.54021
1.33417
1.1493
0.983314
0.83285
0.694421
0.564783
0.440191
0.317477
0.194185
0.0676236
3.84875
3.53204
3.21004
2.89253
2.58736
2.30002
2.03379
1.78996
1.56877
1.36874
1.18826
1.02482
0.87492
0.73503
0.601978
0.472095
0.34233
0.210403
0.0736846
3.84481
3.52285
3.19976
2.88516
2.58599
2.30664
2.04925
1.81417
1.60087
1.40732
1.23153
1.07078
0.921442
0.779955
0.643203
0.507571
0.370099
0.228646
0.080582
3.83863
3.51066
3.18731
2.87709
2.58556
2.31569
2.0684
1.84303
1.63832
1.45171
1.28086
1.12288
0.974013
0.830672
0.689787
0.547769
0.401711
0.24956
0.0885881
3.83221
3.49921
3.17723
2.87328
2.59117
2.33226
2.09614
1.88119
1.68548
1.50595
1.33999
1.18456
1.03577
0.890008
0.744224
0.594809
0.438847
0.274292
0.0981806
3.8271
3.49089
3.17274
2.87761
2.60708
2.36071
2.13682
1.93291
1.74644
1.57399
1.4127
1.2594
1.1101
0.961112
0.809389
0.651227
0.483605
0.30435
0.110017
3.82086
3.48421
3.174
2.89143
2.63535
2.40352
2.19316
2.00105
1.82421
1.65891
1.50212
1.35059
1.20019
1.04713
0.888313
0.71984
0.538431
0.341577
0.124966
3.81633
3.48561
3.18899
2.92309
2.68416
2.46855
2.27268
2.09284
1.92579
1.76753
1.61494
1.46466
1.31241
1.15422
0.986863
0.806033
0.607962
0.389446
0.144685
3.81824
3.50303
3.22639
2.98115
2.76181
2.56385
2.38329
2.21616
2.05907
1.90785
1.75926
1.60987
1.45514
1.29079
1.1133
0.917679
0.699257
0.453507
0.17201
3.82876
3.54017
3.29026
3.06979
2.87263
2.69408
2.5301
2.37669
2.23038
2.0869
1.9429
1.79479
1.63769
1.46682
1.27809
1.06537
0.822396
0.542208
0.211769
3.8501
3.59965
3.38301
3.19145
3.01943
2.86264
2.71733
2.57959
2.44601
2.31224
2.17477
2.02985
1.87206
1.69587
1.4962
1.26508
0.993453
0.669977
0.273388
3.88168
3.67953
3.5023
3.34408
3.2009
3.06927
2.94598
2.82735
2.71017
2.59003
2.46334
2.32613
2.17228
1.99519
1.78827
1.54056
1.23834
0.862365
0.376695
3.9196
3.77318
3.64092
3.52096
3.41127
3.30946
3.21303
3.11875
3.02379
2.92389
2.81548
2.69452
2.55418
2.38661
2.18312
1.92834
1.60097
1.16793
0.567393
3.95792
3.87091
3.78847
3.71205
3.64138
3.57515
3.51179
3.4488
3.38408
3.31398
3.23546
3.14484
3.0352
2.89792
2.72219
2.48721
2.16061
1.68645
0.958832
3.99027
3.96234
3.93365
3.90627
3.88066
3.85647
3.83315
3.80952
3.78472
3.75678
3.72417
3.6848
3.63394
3.56488
3.4671
3.31702
3.07057
2.63963
1.84764
)
;

boundaryField
{
    up
    {
        type            fixedValue;
        value           uniform 0;
    }
    low
    {
        type            fixedValue;
        value           uniform 4;
    }
    left
    {
        type            fixedValue;
        value           uniform 4;
    }
    right
    {
        type            fixedValue;
        value           uniform 4;
    }
    frontAndBackPlanes
    {
        type            empty;
    }
}


// ************************************************************************* //
