/*--------------------------------*- C++ -*----------------------------------*\
  =========                 |
  \\      /  F ield         | OpenFOAM: The Open Source CFD Toolbox
   \\    /   O peration     | Website:  https://openfoam.org
    \\  /    A nd           | Version:  7
     \\/     M anipulation  |
\*---------------------------------------------------------------------------*/
FoamFile
{
    version     2.0;
    format      ascii;
    class       volScalarField;
    location    "0.455";
    object      gradTy;
}
// * * * * * * * * * * * * * * * * * * * * * * * * * * * * * * * * * * * * * //

dimensions      [0 -1 0 1 0 0 0];

internalField   nonuniform List<scalar> 
1596
(
-0.46728
-0.874757
-1.223
-1.57675
-1.94059
-2.36007
-2.82212
-3.3805
-4.06101
-4.88292
-5.9978
-7.41191
-9.34189
-12.052
-16.2071
-22.6349
-34.0551
-55.0759
-130.111
-1.42642
-1.77822
-2.04726
-2.32497
-2.6231
-2.98847
-3.40815
-3.92866
-4.57178
-5.34314
-6.36535
-7.62977
-9.2796
-11.4356
-14.4374
-18.4642
-24.421
-33.1613
-57.9681
-2.5556
-2.69987
-2.83083
-3.00568
-3.22124
-3.51522
-3.87019
-4.32434
-4.89183
-5.56875
-6.45228
-7.51929
-8.86647
-10.5502
-12.7751
-15.5759
-19.443
-24.7409
-36.1345
-3.73966
-3.59693
-3.55576
-3.60962
-3.73025
-3.93998
-4.21575
-4.58635
-5.05886
-5.6232
-6.35535
-7.22449
-8.29643
-9.5946
-11.2468
-13.2331
-15.8394
-19.2224
-25.0449
-4.83054
-4.41621
-4.20364
-4.13288
-4.1542
-4.27369
-4.46388
-4.74419
-5.11623
-5.56663
-6.15402
-6.84594
-7.68761
-8.68617
-9.92439
-11.365
-13.185
-15.4477
-18.7663
-5.69389
-5.10691
-4.75864
-4.57621
-4.50329
-4.53392
-4.63918
-4.83021
-5.10496
-5.44899
-5.90675
-6.44787
-7.10353
-7.87308
-8.8114
-9.87938
-11.191
-12.7668
-14.8443
-6.25626
-5.63
-5.20678
-4.94108
-4.78844
-4.73852
-4.76499
-4.87284
-5.05811
-5.30691
-5.65213
-6.06749
-6.57422
-7.16824
-7.88621
-8.69294
-9.66327
-10.7984
-12.1952
-6.51619
-5.96238
-5.53244
-5.22271
-5.01321
-4.89733
-4.85563
-4.88975
-4.99565
-5.16112
-5.41001
-5.72081
-6.10769
-6.5653
-7.11799
-7.73611
-8.469
-9.30978
-10.2987
-6.52922
-6.1307
-5.75377
-5.43996
-5.19897
-5.03427
-4.93652
-4.90721
-4.94379
-5.03666
-5.20298
-5.42596
-5.7148
-6.06393
-6.48919
-6.96611
-7.52684
-8.16138
-8.88575
-6.34347
-6.11165
-5.8274
-5.54847
-5.30607
-5.11548
-4.97862
-4.89971
-4.87919
-4.91075
-5.00738
-5.15663
-5.36465
-5.62633
-5.95198
-6.32161
-6.75611
-7.24464
-7.79193
-6.11159
-6
-5.81005
-5.58528
-5.36287
-5.16561
-5.00505
-4.88944
-4.82305
-4.80334
-4.8411
-4.92789
-5.06818
-5.25764
-5.503
-5.78786
-6.12557
-6.50539
-6.92648
-5.82672
-5.83805
-5.74051
-5.57746
-5.38758
-5.19732
-5.02517
-4.88345
-4.78042
-4.71748
-4.70478
-4.73751
-4.81952
-4.94755
-5.12614
-5.34177
-5.60274
-5.89886
-6.22671
-5.47887
-5.59879
-5.59151
-5.49579
-5.3489
-5.17868
-5.00771
-4.85181
-4.72282
-4.62587
-4.5717
-4.55883
-4.59148
-4.66776
-4.79125
-4.95086
-5.15183
-5.38464
-5.64442
-5.16521
-5.34755
-5.41216
-5.37901
-5.27759
-5.1341
-4.97243
-4.8108
-4.6639
-4.54004
-4.45136
-4.3993
-4.38911
-4.42047
-4.4969
-4.60929
-4.76118
-4.94371
-5.15136
-4.87271
-5.10331
-5.22367
-5.24444
-5.18655
-5.07234
-4.92486
-4.76343
-4.60471
-4.45961
-4.34186
-4.2556
-4.2075
-4.19898
-4.23414
-4.30572
-4.41647
-4.55819
-4.7252
-4.58716
-4.8619
-5.02901
-5.09629
-5.07858
-4.99414
-4.86388
-4.70714
-4.54161
-4.38014
-4.23805
-4.12182
-4.03983
-3.99537
-3.99368
-4.02934
-4.10504
-4.2133
-4.34839
-4.32791
-4.63103
-4.83562
-4.9425
-4.96086
-4.90507
-4.79333
-4.64418
-4.47562
-4.30169
-4.13913
-3.99636
-3.88353
-3.80592
-3.77034
-3.77332
-3.81821
-3.89833
-4.00797
-4.10013
-4.42081
-4.65434
-4.79433
-4.84445
-4.81514
-4.7218
-4.58164
-4.41238
-4.22874
-4.04843
-3.88153
-3.73981
-3.63047
-3.56222
-3.53381
-3.55003
-3.60529
-3.69401
-3.87656
-4.22937
-4.49203
-4.66213
-4.74115
-4.73642
-4.66087
-4.53014
-4.36138
-4.16959
-3.97313
-3.78335
-3.61337
-3.47215
-3.3704
-3.30941
-3.29636
-3.32754
-3.39799
-3.65249
-4.04095
-4.33502
-4.53485
-4.64155
-4.66067
-4.60305
-4.48287
-4.31643
-4.11867
-3.9083
-3.69751
-3.50047
-3.32741
-3.19088
-3.0947
-3.04964
-3.05552
-3.10936
-3.46267
-3.87258
-4.195
-4.42329
-4.55644
-4.59846
-4.55842
-4.44919
-4.2861
-4.08379
-3.86108
-3.63066
-3.40733
-3.20201
-3.02829
-2.89179
-2.80755
-2.78145
-2.81653
-3.29809
-3.72754
-4.07562
-4.33095
-4.48966
-4.55399
-4.53143
-4.43362
-4.27489
-4.06936
-3.83576
-3.58704
-3.33843
-3.10093
-2.88799
-2.70487
-2.56934
-2.49524
-2.50065
-3.15127
-3.60421
-3.97798
-4.25962
-4.44319
-4.52943
-4.52443
-4.43871
-4.28552
-4.07822
-3.83526
-3.56973
-3.29729
-3.02896
-2.77709
-2.54337
-2.34225
-2.1888
-2.1278
-3.02589
-3.50424
-3.90282
-4.2075
-4.41149
-4.51414
-4.52127
-4.44205
-4.28899
-4.07506
-3.81677
-3.52915
-3.2283
-2.92637
-2.63443
-2.35114
-2.07799
-1.80808
-1.54314
-2.9297
-3.43268
-3.85946
-4.19439
-4.43133
-4.56841
-4.61141
-4.56732
-4.44664
-4.26133
-4.02304
-3.74788
-3.45038
-3.14593
-2.84577
-2.55242
-2.25846
-1.94443
-1.5706
-2.8695
-3.38795
-3.82835
-4.1782
-4.43218
-4.5885
-4.65277
-4.63094
-4.53176
-4.36546
-4.1392
-3.86793
-3.56519
-3.24874
-2.93394
-2.63346
-2.3471
-2.07048
-1.7861
-2.88353
-3.40983
-3.85819
-4.21784
-4.48403
-4.65649
-4.74067
-4.74284
-4.67045
-4.53125
-4.32954
-4.07539
-3.77967
-3.45996
-3.13572
-2.8257
-2.53754
-2.2724
-2.01842
-2.98132
-3.50694
-3.95418
-4.31401
-4.58277
-4.76228
-4.85853
-4.8788
-4.83003
-4.71812
-4.54451
-4.31364
-4.03132
-3.712
-3.37715
-3.05149
-2.75149
-2.48427
-2.24136
-3.15789
-3.67905
-4.11675
-4.46747
-4.72977
-4.90787
-5.00895
-5.04162
-5.01308
-4.92831
-4.78642
-4.58636
-4.32677
-4.01519
-3.671
-3.32375
-3.00048
-2.71772
-2.47137
-3.41292
-3.91726
-4.33532
-4.66787
-4.91543
-5.08463
-5.18424
-5.22434
-5.21292
-5.1552
-5.04911
-4.88957
-4.66719
-4.37869
-4.03443
-3.66393
-3.30491
-2.98986
-2.72439
-3.7477
-4.2209
-4.61132
-4.91827
-5.14421
-5.29824
-5.39092
-5.43373
-5.43579
-5.40364
-5.33573
-5.22595
-5.05873
-4.81824
-4.49723
-4.11379
-3.70805
-3.33502
-3.02455
-4.12686
-4.57379
-4.9322
-5.20705
-5.40511
-5.53836
-5.61915
-5.66
-5.67107
-5.66096
-5.63028
-5.57618
-5.48246
-5.32505
-5.07475
-4.72269
-4.28433
-3.82327
-3.41692
-4.57354
-4.98417
-5.30047
-5.5344
-5.69734
-5.80377
-5.86723
-5.90048
-5.91411
-5.91851
-5.91698
-5.91345
-5.89883
-5.85373
-5.73786
-5.51562
-5.14339
-4.63082
-4.00823
-5.10757
-5.46481
-5.72745
-5.91303
-6.03682
-6.11502
-6.16118
-6.18755
-6.20425
-6.22215
-6.24733
-6.28969
-6.3525
-6.43574
-6.51815
-6.57688
-6.54592
-6.37855
-6.02701
-5.7208
-6.00774
-6.19716
-6.31621
-6.38338
-6.41546
-6.42386
-6.41922
-6.40938
-6.40161
-6.40205
-6.41738
-6.45462
-6.52289
-6.6279
-6.78311
-6.9807
-7.20717
-7.43508
-6.43065
-6.61237
-6.70873
-6.75068
-6.75595
-6.73986
-6.71073
-6.67747
-6.64579
-6.61972
-6.60568
-6.60551
-6.6243
-6.66564
-6.73576
-6.83979
-6.99016
-7.19736
-7.47909
-7.22818
-7.26879
-7.26069
-7.22462
-7.17213
-7.11385
-7.0547
-7.00088
-6.9559
-6.92169
-6.90297
-6.89881
-6.9112
-6.939
-6.98213
-7.03369
-7.0928
-7.15072
-7.20338
-7.9925
-7.88542
-7.77021
-7.65418
-7.54166
-7.43762
-7.34365
-7.26257
-7.19556
-7.14261
-7.10568
-7.08264
-7.07317
-7.07479
-7.08599
-7.10145
-7.12056
-7.13897
-7.15547
-8.6473
-8.42023
-8.21319
-8.02701
-7.86121
-7.71619
-7.59069
-7.48457
-7.39703
-7.32662
-7.27335
-7.23476
-7.20949
-7.19505
-7.1898
-7.18995
-7.19472
-7.20119
-7.20816
-9.18513
-8.8565
-8.57241
-8.3277
-8.11763
-7.9386
-7.78688
-7.6599
-7.55531
-7.47066
-7.40462
-7.35467
-7.31889
-7.29492
-7.28095
-7.27407
-7.27304
-7.27553
-7.28016
-9.57973
-9.17246
-8.829
-8.54026
-8.29758
-8.0939
-7.9234
-7.78164
-7.66516
-7.57083
-7.49645
-7.43955
-7.39783
-7.36897
-7.35093
-7.34119
-7.33784
-7.33868
-7.3419
-9.82362
-9.34932
-8.96571
-8.65079
-8.39004
-8.17324
-7.99297
-7.84363
-7.72115
-7.62203
-7.54364
-7.48358
-7.4394
-7.40888
-7.38993
-7.38037
-7.37812
-7.38111
-7.38736
-9.82368
-9.34942
-8.96583
-8.65092
-8.39018
-8.17337
-7.9931
-7.84376
-7.72128
-7.62215
-7.54376
-7.4837
-7.43951
-7.40898
-7.39003
-7.38047
-7.37822
-7.3812
-7.38744
-9.57983
-9.17268
-8.82929
-8.54059
-8.29792
-8.09424
-7.92374
-7.78198
-7.6655
-7.57115
-7.49676
-7.43985
-7.39813
-7.36927
-7.35123
-7.3415
-7.33818
-7.33904
-7.3423
-9.18529
-8.85685
-8.57286
-8.32822
-8.11817
-7.93915
-7.78743
-7.66045
-7.55585
-7.47119
-7.40513
-7.35517
-7.31938
-7.2954
-7.28142
-7.27455
-7.27353
-7.27604
-7.28069
-8.64752
-8.42067
-8.21376
-8.02766
-7.8619
-7.7169
-7.59141
-7.48528
-7.39772
-7.3273
-7.274
-7.23538
-7.21007
-7.1956
-7.1903
-7.19041
-7.19514
-7.20157
-7.20851
-7.99274
-7.88591
-7.77085
-7.65492
-7.54246
-7.43845
-7.34449
-7.26342
-7.19639
-7.14343
-7.10646
-7.08338
-7.07385
-7.0754
-7.08651
-7.10188
-7.12088
-7.13918
-7.15559
-7.22844
-7.26931
-7.26137
-7.22542
-7.17301
-7.11477
-7.05565
-7.00184
-6.95685
-6.92263
-6.90388
-6.89966
-6.91196
-6.93962
-6.98256
-7.03387
-7.09267
-7.15025
-7.20258
-6.43092
-6.61293
-6.70954
-6.75168
-6.75713
-6.74119
-6.71221
-6.67908
-6.64755
-6.62163
-6.60777
-6.60778
-6.62675
-6.66825
-6.73844
-6.8423
-6.99207
-7.19792
-7.47722
-5.72098
-6.00788
-6.19729
-6.31633
-6.38346
-6.41547
-6.42376
-6.41897
-6.40892
-6.40088
-6.40096
-6.4158
-6.45239
-6.5198
-6.62384
-6.77814
-6.97553
-7.20332
-7.43509
-5.10768
-5.46507
-5.72786
-5.91359
-6.03756
-6.11595
-6.16229
-6.18885
-6.20574
-6.22385
-6.24926
-6.29193
-6.35519
-6.43918
-6.52291
-6.5838
-6.55608
-6.39287
-6.04605
-4.57361
-4.98423
-5.30058
-5.53458
-5.69761
-5.80413
-5.86769
-5.90103
-5.91477
-5.91928
-5.9179
-5.91463
-5.90045
-5.85605
-5.74121
-5.5202
-5.14896
-4.6365
-4.01233
-4.12692
-4.57383
-4.93226
-5.20718
-5.40534
-5.5387
-5.61961
-5.66058
-5.6718
-5.66188
-5.63143
-5.57769
-5.48446
-5.32771
-5.07808
-4.7265
-4.28816
-3.82658
-3.41954
-3.74774
-4.2209
-4.61134
-4.91834
-5.14437
-5.29851
-5.39132
-5.43428
-5.4365
-5.40457
-5.33693
-5.22751
-5.06072
-4.82068
-4.5
-4.11665
-3.71068
-3.33728
-3.02647
-3.41295
-3.91724
-4.33531
-4.6679
-4.91554
-5.08486
-5.18459
-5.22484
-5.2136
-5.1561
-5.05029
-4.89106
-4.66901
-4.38079
-4.03665
-3.6661
-3.30688
-2.9916
-2.72598
-3.1579
-3.67901
-4.1167
-4.46746
-4.72983
-4.90804
-5.00925
-5.04208
-5.01372
-4.92916
-4.78752
-4.58773
-4.32837
-4.01695
-3.67279
-3.32546
-3.00205
-2.71917
-2.47279
-2.98134
-3.5069
-3.95413
-4.31398
-4.5828
-4.76241
-4.85879
-4.8792
-4.83062
-4.7189
-4.5455
-4.31485
-4.03269
-3.71345
-3.3786
-3.05288
-2.75281
-2.48556
-2.24272
-2.88355
-3.40979
-3.85812
-4.21779
-4.48404
-4.65659
-4.74089
-4.7432
-4.67097
-4.53195
-4.33042
-4.07643
-3.78082
-3.46116
-3.13692
-2.82686
-2.5387
-2.27362
-2.01984
-2.86952
-3.3879
-3.82826
-4.17811
-4.43211
-4.58847
-4.65282
-4.63109
-4.53201
-4.36582
-4.13966
-3.86847
-3.56576
-3.2493
-2.93447
-2.63397
-2.34768
-2.07129
-1.7875
-2.92982
-3.43278
-3.85956
-4.19452
-4.43152
-4.56867
-4.61177
-4.56779
-4.44724
-4.26207
-4.0239
-3.74885
-3.45144
-3.14705
-2.84693
-2.55361
-2.25965
-1.94557
-1.57163
-3.02601
-3.50436
-3.90294
-4.2076
-4.41155
-4.51416
-4.52124
-4.44197
-4.28885
-4.07486
-3.8165
-3.52882
-3.22791
-2.92593
-2.63392
-2.35055
-2.07731
-1.80731
-1.54228
-3.15136
-3.6043
-3.97807
-4.25971
-4.44328
-4.52951
-4.52449
-4.43875
-4.28555
-4.07823
-3.83525
-3.56971
-3.29726
-3.02891
-2.77703
-2.54331
-2.34221
-2.18881
-2.12785
-3.29817
-3.72762
-4.07569
-4.33102
-4.48971
-4.55403
-4.53145
-4.43363
-4.27488
-4.06933
-3.83572
-3.58699
-3.33837
-3.10087
-2.88793
-2.70482
-2.56931
-2.49524
-2.50067
-3.46274
-3.87264
-4.19506
-4.42334
-4.55649
-4.59849
-4.55843
-4.44919
-4.28609
-4.08377
-3.86104
-3.63062
-3.40728
-3.20197
-3.02825
-2.89176
-2.80753
-2.78144
-2.81653
-3.65255
-4.041
-4.33507
-4.53489
-4.64159
-4.6607
-4.60306
-4.48287
-4.31642
-4.11865
-3.90827
-3.69748
-3.50044
-3.32738
-3.19085
-3.09468
-3.04963
-3.05551
-3.10935
-3.87661
-4.22942
-4.49207
-4.66217
-4.74118
-4.73644
-4.66088
-4.53015
-4.36137
-4.16957
-3.97311
-3.78332
-3.61335
-3.47212
-3.37038
-3.3094
-3.29635
-3.32753
-3.39798
-4.10017
-4.42084
-4.65438
-4.79435
-4.84447
-4.81516
-4.72181
-4.58165
-4.41238
-4.22873
-4.04842
-3.88152
-3.7398
-3.63045
-3.5622
-3.53379
-3.55002
-3.60528
-3.69399
-4.32794
-4.63106
-4.83565
-4.94252
-4.96088
-4.90508
-4.79334
-4.64419
-4.47562
-4.30169
-4.13912
-3.99635
-3.88352
-3.80591
-3.77033
-3.77331
-3.81821
-3.89832
-4.00795
-4.58718
-4.86192
-5.02902
-5.0963
-5.07859
-4.99415
-4.86389
-4.70714
-4.54161
-4.38014
-4.23805
-4.12182
-4.03982
-3.99536
-3.99368
-4.02933
-4.10503
-4.21329
-4.34838
-4.87272
-5.10333
-5.22368
-5.24445
-5.18655
-5.07234
-4.92487
-4.76343
-4.60471
-4.45961
-4.34186
-4.25559
-4.2075
-4.19898
-4.23414
-4.30572
-4.41646
-4.55819
-4.72519
-5.16522
-5.34756
-5.41217
-5.37902
-5.27759
-5.13411
-4.97244
-4.8108
-4.6639
-4.54004
-4.45136
-4.3993
-4.38911
-4.42047
-4.49689
-4.60928
-4.76118
-4.9437
-5.15136
-5.47888
-5.5988
-5.59152
-5.4958
-5.3489
-5.17868
-5.00771
-4.85181
-4.72282
-4.62587
-4.5717
-4.55883
-4.59148
-4.66776
-4.79125
-4.95086
-5.15183
-5.38464
-5.64442
-5.82672
-5.83805
-5.74051
-5.57746
-5.38758
-5.19732
-5.02516
-4.88344
-4.78041
-4.71748
-4.70478
-4.73751
-4.81952
-4.94755
-5.12614
-5.34177
-5.60274
-5.89886
-6.22671
-6.11158
-6
-5.81005
-5.58528
-5.36287
-5.16561
-5.00505
-4.88944
-4.82305
-4.80334
-4.8411
-4.92789
-5.06818
-5.25763
-5.503
-5.78786
-6.12557
-6.50539
-6.92649
-6.34348
-6.11165
-5.82741
-5.54847
-5.30607
-5.11548
-4.97862
-4.89971
-4.87919
-4.91075
-5.00737
-5.15662
-5.36465
-5.62633
-5.95198
-6.3216
-6.75611
-7.24465
-7.79194
-6.52923
-6.13071
-5.75378
-5.43996
-5.19897
-5.03427
-4.93652
-4.90721
-4.94378
-5.03666
-5.20298
-5.42596
-5.7148
-6.06393
-6.48919
-6.96611
-7.52684
-8.16138
-8.88576
-6.5162
-5.96239
-5.53244
-5.22271
-5.01321
-4.89733
-4.85563
-4.88975
-4.99565
-5.16112
-5.41
-5.7208
-6.10768
-6.56529
-7.11798
-7.73611
-8.469
-9.30978
-10.2988
-6.25628
-5.63001
-5.20679
-4.94109
-4.78844
-4.73852
-4.76499
-4.87284
-5.05811
-5.3069
-5.65213
-6.06749
-6.57422
-7.16823
-7.8862
-8.69294
-9.66327
-10.7984
-12.1952
-5.69391
-5.10692
-4.75865
-4.57622
-4.5033
-4.53392
-4.63918
-4.83021
-5.10495
-5.44899
-5.90674
-6.44787
-7.10352
-7.87307
-8.81139
-9.87937
-11.191
-12.7668
-14.8443
-4.83056
-4.41622
-4.20365
-4.13289
-4.15421
-4.27369
-4.46388
-4.74419
-5.11623
-5.56662
-6.15402
-6.84594
-7.68761
-8.68616
-9.92438
-11.365
-13.185
-15.4477
-18.7663
-3.73968
-3.59695
-3.55577
-3.60963
-3.73025
-3.93998
-4.21575
-4.58635
-5.05887
-5.6232
-6.35534
-7.22449
-8.29642
-9.59459
-11.2468
-13.2331
-15.8394
-19.2224
-25.0449
-2.5556
-2.69988
-2.83083
-3.00569
-3.22125
-3.51522
-3.8702
-4.32434
-4.89184
-5.56876
-6.45228
-7.51929
-8.86647
-10.5502
-12.7751
-15.5759
-19.443
-24.7409
-36.1345
-1.42642
-1.77822
-2.04726
-2.32497
-2.62311
-2.98848
-3.40816
-3.92867
-4.57178
-5.34314
-6.36535
-7.62977
-9.2796
-11.4356
-14.4374
-18.4642
-24.421
-33.1613
-57.9681
-0.467277
-0.874754
-1.223
-1.57675
-1.94059
-2.36007
-2.82212
-3.3805
-4.06101
-4.88292
-5.99781
-7.41191
-9.34189
-12.052
-16.2071
-22.6349
-34.0551
-55.0759
-130.111
)
;

boundaryField
{
    up
    {
        type            calculated;
        value           nonuniform List<scalar> 
84
(
-117.903
-63.855
-39.2165
-26.8258
-19.8906
-15.6044
-12.7356
-10.6976
-9.18726
-8.02588
-7.11048
-6.37305
-5.76301
-5.2484
-4.80536
-4.41536
-4.06451
-3.74223
-3.43948
-3.14571
-2.84845
-2.52496
-2.11563
-1.39268
-1.35683
-1.70125
-1.9445
-2.16922
-2.39649
-2.64208
-2.92436
-3.26489
-3.77302
-6.05023
-7.71209
-7.64347
-7.21543
-7.15777
-7.20867
-7.28128
-7.34336
-7.39111
-7.39119
-7.34378
-7.28182
-7.20901
-7.15787
-7.21455
-7.63967
-7.71227
-6.07284
-3.77676
-3.26717
-2.92619
-2.64363
-2.39791
-2.1706
-1.94598
-1.7033
-1.35828
-1.39182
-2.11571
-2.52499
-2.84845
-3.1457
-3.43946
-3.74221
-4.06449
-4.41534
-4.80535
-5.24839
-5.76301
-6.37305
-7.11049
-8.02588
-9.18727
-10.6976
-12.7356
-15.6044
-19.8907
-26.8258
-39.2165
-63.855
-117.903
)
;
    }
    low
    {
        type            calculated;
        value           nonuniform List<scalar> 
84
(
-0.500177
-1.48582
-2.68627
-3.96218
-5.14072
-6.06327
-6.63939
-6.87233
-6.81071
-6.5283
-6.24418
-5.90888
-5.49366
-5.14264
-4.82886
-4.51553
-4.23288
-3.9992
-3.76312
-3.5089
-3.29672
-3.11559
-2.94793
-2.80255
-2.66942
-2.59304
-2.60867
-2.72999
-2.93705
-3.23219
-3.60236
-4.00467
-4.48107
-5.05288
-5.69919
-6.45644
-7.32391
-8.13799
-8.82757
-9.39628
-9.81599
-10.09
-10.09
-9.81605
-9.39637
-8.8277
-8.13812
-7.32405
-6.45661
-5.6992
-5.05299
-4.48107
-4.00469
-3.60238
-3.23222
-2.93707
-2.73004
-2.60872
-2.59311
-2.66951
-2.80269
-2.948
-3.11567
-3.29679
-3.50896
-3.76317
-3.99924
-4.23291
-4.51555
-4.82887
-5.14264
-5.49367
-5.90888
-6.24417
-6.52831
-6.81072
-6.87235
-6.63941
-6.06329
-5.14073
-3.96219
-2.68627
-1.48582
-0.500173
)
;
    }
    left
    {
        type            calculated;
        value           nonuniform List<scalar> 
19
(
-0.458191
-0.857912
-1.21214
-1.57622
-1.95341
-2.3884
-2.86957
-3.45376
-4.16824
-5.0413
-6.23233
-7.75556
-9.85735
-12.8543
-17.4931
-24.7878
-37.9056
-62.3436
-122.296
)
;
    }
    right
    {
        type            calculated;
        value           nonuniform List<scalar> 
19
(
-0.458187
-0.857908
-1.21214
-1.57622
-1.95341
-2.3884
-2.86957
-3.45376
-4.16824
-5.0413
-6.23233
-7.75556
-9.85736
-12.8543
-17.4931
-24.7878
-37.9056
-62.3436
-122.296
)
;
    }
    frontAndBackPlanes
    {
        type            empty;
    }
}


// ************************************************************************* //
