/*--------------------------------*- C++ -*----------------------------------*\
  =========                 |
  \\      /  F ield         | OpenFOAM: The Open Source CFD Toolbox
   \\    /   O peration     | Website:  https://openfoam.org
    \\  /    A nd           | Version:  7
     \\/     M anipulation  |
\*---------------------------------------------------------------------------*/
FoamFile
{
    version     2.0;
    format      ascii;
    class       volScalarField;
    location    "0.17";
    object      gradTy;
}
// * * * * * * * * * * * * * * * * * * * * * * * * * * * * * * * * * * * * * //

dimensions      [0 -1 0 1 0 0 0];

internalField   nonuniform List<scalar> 
1596
(
-0.564694
-1.04484
-1.4302
-1.78918
-2.11923
-2.46441
-2.80239
-3.18249
-3.62138
-4.1307
-4.83809
-5.73956
-7.00604
-8.8345
-11.7124
-16.2335
-24.3483
-39.3437
-92.9381
-1.71525
-2.10284
-2.34896
-2.55893
-2.74491
-2.95851
-3.18319
-3.4661
-3.82496
-4.26229
-4.88687
-5.68401
-6.76917
-8.23145
-10.3221
-13.1634
-17.4078
-23.6566
-41.3922
-3.05675
-3.16934
-3.2093
-3.24668
-3.28138
-3.35923
-3.46316
-3.63561
-3.8908
-4.22506
-4.72938
-5.3786
-6.25361
-7.39487
-8.95566
-10.95
-13.7335
-17.5544
-25.7385
-4.44581
-4.1956
-3.99758
-3.8522
-3.73455
-3.67641
-3.65774
-3.71401
-3.85528
-4.07391
-4.44529
-4.93901
-5.61305
-6.48321
-7.64777
-9.0788
-10.9865
-13.468
-17.7039
-5.7054
-5.1228
-4.69989
-4.38032
-4.11828
-3.92981
-3.79251
-3.73393
-3.76078
-3.86339
-4.10376
-4.45095
-4.94756
-5.59746
-6.46716
-7.51533
-8.87548
-10.5771
-13.0503
-6.68265
-5.89615
-5.30329
-4.83746
-4.44876
-4.14197
-3.89512
-3.72852
-3.64672
-3.63976
-3.7581
-3.97338
-4.31746
-4.78882
-5.43456
-6.2122
-7.21147
-8.43159
-10.0345
-7.30267
-6.47506
-5.79381
-5.22583
-4.73728
-4.33014
-3.98709
-3.72316
-3.54232
-3.43564
-3.44377
-3.54264
-3.75619
-4.08083
-4.551
-5.12801
-5.8746
-6.77751
-7.89858
-7.57637
-6.83761
-6.15331
-5.53667
-4.98249
-4.49849
-4.07649
-3.72918
-3.46155
-3.26696
-3.17791
-3.17537
-3.27728
-3.47958
-3.80789
-4.22905
-4.78804
-5.46769
-6.29042
-7.57797
-7.01943
-6.40205
-5.78638
-5.19986
-4.66241
-4.17812
-3.76073
-3.41787
-3.1462
-2.97193
-2.88109
-2.88708
-2.98608
-3.19719
-3.4928
-3.90535
-4.41761
-5.03555
-7.36789
-6.997
-6.49019
-5.92151
-5.34028
-4.77951
-4.25619
-3.78795
-3.38638
-3.0522
-2.80733
-2.64257
-2.56808
-2.58064
-2.69453
-2.88737
-3.18274
-3.56515
-4.03377
-7.12191
-6.8792
-6.47939
-5.97649
-5.42366
-4.86151
-4.31754
-3.81438
-3.36822
-2.98426
-2.68193
-2.45628
-2.3153
-2.25646
-2.2903
-2.39883
-2.59892
-2.87727
-3.23026
-6.83073
-6.71684
-6.41724
-5.98428
-5.47076
-4.92066
-4.36872
-3.84242
-3.36256
-2.93888
-2.58976
-2.31398
-2.11821
-2.00056
-1.96869
-2.00809
-2.1305
-2.32468
-2.58598
-6.47911
-6.47843
-6.27431
-5.9145
-5.44946
-4.92451
-4.37848
-3.84298
-3.3428
-2.8918
-2.50843
-2.19463
-1.95645
-1.79268
-1.70883
-1.69318
-1.75367
-1.88092
-2.0701
-6.17525
-6.23525
-6.10307
-5.80674
-5.38849
-4.89238
-4.3587
-3.82212
-3.31055
-2.84131
-2.43359
-2.0918
-1.82184
-1.62305
-1.49931
-1.44095
-1.45303
-1.52763
-1.66007
-5.90038
-6.00762
-5.92797
-5.68192
-5.30385
-4.83501
-4.31558
-3.78216
-3.26502
-2.78422
-2.35989
-1.99837
-1.70558
-1.48127
-1.32803
-1.23764
-1.21294
-1.24709
-1.33572
-5.63417
-5.78849
-5.75212
-5.54606
-5.20084
-4.75567
-4.25005
-3.7219
-3.20318
-2.71603
-2.28152
-1.90737
-1.59956
-1.35804
-1.18435
-1.07118
-1.01968
-1.0238
-1.07944
-5.39653
-5.58365
-5.58162
-5.40676
-5.08686
-4.6602
-4.16591
-3.64302
-3.1248
-2.63495
-2.19528
-1.81438
-1.49818
-1.24658
-1.06017
-0.932109
-0.862226
-0.844956
-0.876445
-5.1914
-5.40247
-5.42697
-5.27559
-4.9738
-4.55953
-4.07238
-3.55264
-3.03483
-2.54392
-2.10222
-1.71877
-1.39924
-1.14319
-0.950223
-0.813637
-0.732106
-0.700337
-0.714639
-4.98283
-5.2415
-5.29627
-5.16569
-4.87702
-4.4694
-3.98426
-3.46366
-2.94384
-2.45108
-2.00803
-1.62399
-1.30406
-1.04724
-0.852004
-0.711464
-0.623234
-0.582097
-0.584432
-4.76284
-5.07909
-5.17148
-5.06368
-4.78681
-4.38304
-3.8968
-3.37284
-2.84951
-2.35462
-1.91111
-1.52833
-1.21065
-0.956204
-0.762241
-0.621398
-0.530294
-0.483697
-0.478037
-4.57391
-4.93267
-5.06186
-4.97713
-4.71069
-4.30797
-3.8173
-3.28687
-2.75774
-2.25945
-1.81531
-1.43458
-1.12068
-0.870683
-0.680409
-0.541731
-0.450242
-0.400668
-0.389664
-4.4039
-4.8044
-4.9693
-4.90769
-4.65116
-4.2478
-3.75031
-3.21084
-2.67367
-2.17046
-1.72488
-1.34616
-1.03663
-0.792175
-0.60702
-0.471936
-0.381256
-0.329563
-0.314312
-4.24272
-4.69014
-4.89218
-4.85437
-4.60793
-4.20338
-3.69783
-3.14773
-2.60096
-2.09151
-1.64357
-1.26633
-0.961097
-0.72253
-0.543236
-0.412548
-0.322941
-0.26793
-0.246495
-4.09484
-4.58915
-4.82677
-4.80986
-4.57037
-4.16104
-3.6444
-3.08099
-2.52269
-2.0062
-1.5553
-1.17997
-0.880011
-0.648905
-0.477454
-0.35372
-0.26716
-0.207776
-0.168029
-3.97165
-4.50994
-4.79187
-4.81377
-4.60617
-4.21946
-3.71735
-3.16049
-2.60258
-2.08278
-1.62478
-1.24125
-0.932128
-0.692368
-0.513028
-0.383189
-0.29071
-0.224041
-0.170323
-3.88284
-4.44909
-4.76126
-4.81627
-4.64171
-4.28407
-3.80465
-3.26226
-2.71045
-2.18982
-1.72448
-1.32969
-1.00682
-0.75262
-0.559524
-0.418628
-0.318327
-0.248573
-0.198569
-3.87572
-4.44643
-4.77084
-4.8459
-4.69611
-4.36462
-3.90858
-3.38418
-2.84318
-2.32595
-1.85708
-1.45286
-1.11605
-0.845259
-0.635034
-0.478732
-0.3662
-0.28818
-0.234004
-3.96016
-4.51085
-4.82516
-4.90158
-4.76287
-4.44921
-4.01329
-3.50759
-2.98087
-2.47195
-2.00468
-1.59549
-1.24758
-0.960799
-0.731779
-0.55685
-0.428228
-0.338139
-0.275868
-4.12468
-4.64083
-4.92694
-4.98876
-4.84908
-4.54546
-4.12613
-3.63913
-3.12936
-2.63315
-2.17264
-1.76363
-1.40867
-1.10774
-0.858726
-0.661325
-0.511328
-0.404039
-0.329234
-4.36249
-4.82302
-5.06548
-5.10082
-4.95147
-4.65232
-4.24722
-3.77939
-3.28934
-2.81041
-2.36243
-1.9602
-1.60469
-1.29455
-1.02693
-0.804072
-0.626158
-0.494339
-0.400854
-4.66757
-5.05435
-5.24447
-5.24633
-5.08161
-4.78271
-4.38949
-3.94023
-3.47104
-3.01222
-2.58117
-2.19199
-1.84392
-1.53308
-1.25293
-1.00501
-0.79214
-0.624445
-0.501724
-4.98926
-5.31327
-5.45149
-5.41765
-5.23519
-4.93466
-4.55232
-4.12163
-3.67436
-3.23792
-2.82757
-2.45763
-2.12668
-1.82883
-1.55153
-1.29038
-1.0426
-0.824477
-0.652264
-5.35025
-5.60688
-5.68903
-5.61608
-5.41323
-5.10914
-4.73641
-4.32373
-3.89852
-3.48537
-3.09752
-2.75049
-2.44434
-2.17459
-1.92469
-1.6829
-1.42839
-1.16441
-0.896283
-5.76753
-5.94734
-5.96941
-5.8561
-5.63321
-5.32711
-4.96614
-4.57425
-4.17442
-3.78804
-3.42691
-3.10721
-2.83254
-2.60469
-2.41226
-2.24668
-2.07708
-1.88811
-1.65999
-6.22376
-6.31851
-6.2669
-6.09888
-5.84106
-5.51796
-5.15327
-4.76707
-4.37812
-4.00348
-3.65385
-3.34261
-3.07517
-2.85714
-2.68744
-2.56963
-2.49065
-2.44063
-2.39967
-6.73378
-6.71615
-6.57452
-6.34025
-6.03739
-5.68759
-5.30996
-4.9216
-4.53804
-4.17254
-3.83553
-3.53665
-3.28084
-3.07182
-2.91057
-2.79881
-2.73455
-2.71839
-2.74955
-7.29287
-7.14182
-6.90645
-6.60696
-6.26058
-5.88424
-5.49307
-5.10134
-4.72207
-4.36612
-4.0429
-3.75974
-3.52026
-3.32605
-3.17611
-3.06688
-2.9923
-2.94533
-2.91782
-7.79469
-7.52264
-7.20267
-6.84376
-6.45711
-6.05513
-5.6498
-5.25261
-4.87437
-4.52395
-4.20911
-3.93568
-3.70593
-3.52028
-3.37695
-3.27195
-3.19933
-3.15287
-3.12538
-8.19159
-7.83673
-7.45371
-7.04879
-6.63039
-6.20812
-5.79161
-5.39019
-5.01291
-4.66708
-4.35919
-4.09398
-3.87288
-3.69567
-3.56024
-3.46241
-3.39633
-3.35585
-3.33392
-8.50388
-8.08591
-7.65456
-7.21429
-6.77147
-6.3336
-5.90851
-5.50382
-5.12729
-4.78499
-4.48254
-4.22388
-4.00985
-3.83978
-3.71137
-3.6202
-3.56046
-3.526
-3.50985
-8.72995
-8.26502
-7.79751
-7.3314
-6.87116
-6.4224
-5.99143
-5.58462
-5.20875
-4.86906
-4.57057
-4.31671
-4.10792
-3.94322
-3.82015
-3.73406
-3.67906
-3.64888
-3.63649
-8.87987
-8.36796
-7.87379
-7.3916
-6.92156
-6.46706
-6.03321
-5.62553
-5.25025
-4.91215
-4.61597
-4.36485
-4.15906
-3.99751
-3.87769
-3.79495
-3.74343
-3.71686
-3.70821
-8.87991
-8.36804
-7.87389
-7.39171
-6.92167
-6.46719
-6.03333
-5.62566
-5.25038
-4.91229
-4.61612
-4.365
-4.15921
-3.99767
-3.87786
-3.79513
-3.74362
-3.71707
-3.70842
-8.73001
-8.26518
-7.79773
-7.33165
-6.87145
-6.42272
-5.99177
-5.58498
-5.20913
-4.86945
-4.57099
-4.31714
-4.10837
-3.9437
-3.82066
-3.7346
-3.67965
-3.64953
-3.63719
-8.50397
-8.08615
-7.6549
-7.2147
-6.77193
-6.33411
-5.90905
-5.5044
-5.1279
-4.78562
-4.4832
-4.22458
-4.01058
-3.84055
-3.71218
-3.62107
-3.56139
-3.527
-3.51093
-8.19171
-7.83704
-7.45414
-7.04932
-6.63099
-6.20877
-5.79232
-5.39093
-5.0137
-4.6679
-4.36005
-4.09488
-3.87381
-3.69664
-3.56127
-3.46349
-3.39747
-3.35706
-3.33521
-7.79483
-7.52299
-7.20316
-6.84437
-6.4578
-6.0559
-5.65064
-5.2535
-4.87531
-4.52494
-4.21014
-3.93675
-3.70704
-3.52144
-3.37816
-3.27321
-3.20065
-3.15426
-3.12684
-7.29303
-7.1422
-6.90699
-6.60762
-6.26135
-5.8851
-5.49401
-5.10234
-4.72312
-4.36722
-4.04405
-3.76093
-3.52149
-3.32731
-3.1774
-3.0682
-2.99363
-2.94668
-2.91918
-6.73396
-6.71659
-6.57519
-6.34113
-6.03845
-5.68882
-5.31133
-4.92311
-4.53967
-4.17428
-3.83738
-3.53861
-3.28292
-3.07402
-2.91289
-2.80117
-2.73685
-2.72039
-2.75093
-6.22387
-6.31858
-6.26703
-6.0991
-5.84138
-5.51839
-5.1538
-4.76767
-4.37878
-4.00414
-3.65448
-3.34315
-3.07557
-2.85733
-2.68742
-2.56946
-2.49067
-2.44143
-2.40218
-5.76758
-5.94762
-5.96995
-5.85694
-5.63439
-5.32863
-4.96798
-4.57637
-4.17678
-3.79059
-3.42961
-3.11002
-2.83547
-2.6078
-2.41571
-2.25074
-2.08209
-1.89438
-1.66771
-5.35025
-5.60693
-5.68924
-5.61651
-5.41391
-5.11008
-4.73761
-4.32514
-3.90012
-3.48709
-3.09932
-2.75236
-2.44628
-2.17667
-1.92697
-1.68545
-1.43111
-1.16703
-0.898269
-4.98924
-5.31328
-5.45164
-5.41802
-5.23582
-4.93557
-4.55349
-4.12302
-3.67592
-3.2396
-2.82933
-2.45944
-2.12854
-1.83076
-1.55353
-1.29238
-1.04447
-0.82605
-0.653468
-4.66754
-5.05432
-5.24455
-5.24661
-5.08216
-4.78353
-4.39056
-3.94152
-3.4725
-3.01378
-2.58278
-2.19363
-1.84557
-1.53472
-1.25452
-1.00649
-0.793416
-0.625479
-0.502527
-4.36246
-4.82296
-5.06551
-5.10105
-4.95194
-4.65306
-4.24821
-3.78058
-3.29067
-2.81183
-2.36389
-1.96164
-1.6061
-1.29589
-1.02817
-0.805156
-0.627061
-0.495065
-0.401433
-4.12464
-4.64074
-4.92693
-4.98892
-4.84947
-4.54611
-4.12702
-3.64021
-3.13057
-2.63442
-2.17392
-1.76488
-1.40985
-1.10883
-0.859686
-0.66214
-0.511995
-0.404577
-0.329675
-3.96011
-4.51076
-4.82513
-4.9017
-4.76321
-4.44979
-4.01408
-3.50855
-2.98194
-2.47306
-2.00578
-1.59655
-1.24855
-0.96167
-0.732528
-0.557474
-0.428737
-0.338557
-0.276224
-3.87567
-4.44633
-4.7708
-4.84599
-4.6964
-4.36512
-3.90928
-3.38502
-2.84411
-2.32691
-1.85802
-1.45374
-1.11685
-0.845959
-0.635627
-0.479222
-0.366603
-0.288521
-0.234314
-3.88278
-4.44898
-4.76118
-4.81629
-4.64189
-4.28441
-3.80514
-3.26287
-2.71112
-2.19051
-1.72515
-1.33032
-1.00738
-0.753101
-0.559924
-0.418954
-0.318597
-0.248815
-0.198834
-3.97171
-4.50997
-4.79192
-4.81387
-4.60634
-4.21969
-3.71765
-3.16085
-2.60297
-2.0832
-1.6252
-1.24166
-0.932514
-0.692725
-0.513349
-0.383477
-0.290963
-0.224256
-0.17048
-4.09492
-4.58921
-4.82679
-4.80983
-4.57028
-4.16087
-3.64418
-3.08074
-2.52242
-2.00593
-1.55506
-1.17975
-0.879826
-0.648754
-0.477331
-0.353619
-0.267073
-0.207691
-0.167919
-4.24276
-4.69018
-4.89221
-4.85438
-4.60794
-4.20337
-3.69781
-3.14772
-2.60096
-2.09151
-1.64357
-1.26634
-0.961112
-0.722548
-0.543256
-0.412568
-0.322961
-0.26795
-0.246509
-4.40393
-4.80442
-4.96931
-4.90768
-4.65114
-4.24777
-3.75027
-3.21081
-2.67365
-2.17044
-1.72488
-1.34615
-1.03663
-0.792183
-0.607031
-0.471949
-0.38127
-0.329577
-0.314323
-4.57394
-4.93268
-5.06187
-4.97713
-4.71068
-4.30794
-3.81727
-3.28685
-2.75772
-2.25944
-1.8153
-1.43458
-1.12068
-0.870689
-0.680417
-0.541741
-0.450253
-0.40068
-0.389674
-4.76286
-5.07911
-5.17149
-5.06367
-4.7868
-4.38302
-3.89679
-3.37283
-2.8495
-2.35461
-1.9111
-1.52833
-1.21065
-0.956208
-0.762247
-0.621406
-0.530304
-0.483708
-0.478047
-4.98284
-5.24151
-5.29627
-5.16568
-4.877
-4.46939
-3.98424
-3.46365
-2.94383
-2.45108
-2.00803
-1.62399
-1.30406
-1.04724
-0.852008
-0.711471
-0.623243
-0.582108
-0.584442
-5.19141
-5.40247
-5.42696
-5.27558
-4.97379
-4.55952
-4.07238
-3.55263
-3.03483
-2.54392
-2.10222
-1.71877
-1.39923
-1.14319
-0.950226
-0.813643
-0.732115
-0.700347
-0.714648
-5.39654
-5.58365
-5.58161
-5.40675
-5.08685
-4.66019
-4.1659
-3.64302
-3.1248
-2.63494
-2.19528
-1.81437
-1.49817
-1.24658
-1.06017
-0.932114
-0.862235
-0.844965
-0.876452
-5.63417
-5.78849
-5.75211
-5.54605
-5.20084
-4.75567
-4.25005
-3.7219
-3.20317
-2.71602
-2.28152
-1.90736
-1.59955
-1.35804
-1.18435
-1.07118
-1.01969
-1.02381
-1.07945
-5.90038
-6.00761
-5.92796
-5.68191
-5.30385
-4.83501
-4.31558
-3.78216
-3.26502
-2.78422
-2.35989
-1.99836
-1.70558
-1.48127
-1.32804
-1.23764
-1.21294
-1.24709
-1.33572
-6.17524
-6.23524
-6.10306
-5.80674
-5.3885
-4.89238
-4.3587
-3.82212
-3.31055
-2.84131
-2.43359
-2.0918
-1.82184
-1.62305
-1.49931
-1.44095
-1.45303
-1.52762
-1.66007
-6.47909
-6.47842
-6.27431
-5.91451
-5.44947
-4.92452
-4.37848
-3.84298
-3.3428
-2.89179
-2.50843
-2.19463
-1.95645
-1.79268
-1.70883
-1.69317
-1.75366
-1.8809
-2.07009
-6.83071
-6.71683
-6.41724
-5.98428
-5.47077
-4.92067
-4.36872
-3.84241
-3.36255
-2.93887
-2.58975
-2.31398
-2.1182
-2.00056
-1.96868
-2.00808
-2.13049
-2.32466
-2.58596
-7.12189
-6.87919
-6.4794
-5.9765
-5.42367
-4.86152
-4.31755
-3.81438
-3.36822
-2.98426
-2.68193
-2.45627
-2.3153
-2.25646
-2.29029
-2.39881
-2.5989
-2.87724
-3.23024
-7.36788
-6.99701
-6.4902
-5.92153
-5.3403
-4.77952
-4.25619
-3.78795
-3.38638
-3.0522
-2.80733
-2.64257
-2.56808
-2.58064
-2.69452
-2.88736
-3.18271
-3.56511
-4.03376
-7.57796
-7.01944
-6.40207
-5.78639
-5.19987
-4.66242
-4.17812
-3.76073
-3.41787
-3.1462
-2.97193
-2.88109
-2.88708
-2.98608
-3.19717
-3.49277
-3.90532
-4.41757
-5.03554
-7.57638
-6.83763
-6.15333
-5.53669
-4.98249
-4.4985
-4.07649
-3.72918
-3.46155
-3.26697
-3.17792
-3.17537
-3.27728
-3.47957
-3.80788
-4.22903
-4.78801
-5.46766
-6.29042
-7.3027
-6.47509
-5.79383
-5.22584
-4.73729
-4.33014
-3.9871
-3.72317
-3.54233
-3.43565
-3.44377
-3.54264
-3.75619
-4.08082
-4.55098
-5.12799
-5.87458
-6.77751
-7.8986
-6.68268
-5.89617
-5.30331
-4.83747
-4.44877
-4.14198
-3.89513
-3.72853
-3.64673
-3.63977
-3.7581
-3.97338
-4.31745
-4.7888
-5.43455
-6.21219
-7.21147
-8.4316
-10.0345
-5.70543
-5.12282
-4.6999
-4.38033
-4.11829
-3.92982
-3.79252
-3.73395
-3.76079
-3.8634
-4.10377
-4.45094
-4.94755
-5.59744
-6.46715
-7.51532
-8.87548
-10.5771
-13.0504
-4.44583
-4.19561
-3.99759
-3.85221
-3.73457
-3.67642
-3.65776
-3.71402
-3.85529
-4.07392
-4.4453
-4.93901
-5.61304
-6.48319
-7.64775
-9.07879
-10.9865
-13.468
-17.7039
-3.05676
-3.16934
-3.2093
-3.24669
-3.28139
-3.35924
-3.46317
-3.63563
-3.89081
-4.22506
-4.72938
-5.37859
-6.2536
-7.39485
-8.95565
-10.95
-13.7335
-17.5544
-25.7385
-1.71526
-2.10284
-2.34896
-2.55893
-2.74491
-2.95851
-3.18319
-3.46611
-3.82497
-4.26229
-4.88687
-5.684
-6.76916
-8.23143
-10.3221
-13.1634
-17.4078
-23.6566
-41.3922
-0.564697
-1.04484
-1.4302
-1.78917
-2.11922
-2.46441
-2.80239
-3.18249
-3.62139
-4.1307
-4.83809
-5.73955
-7.00603
-8.83448
-11.7124
-16.2335
-24.3483
-39.3437
-92.9381
)
;

boundaryField
{
    up
    {
        type            calculated;
        value           nonuniform List<scalar> 
84
(
-84.2228
-45.6152
-27.9738
-19.0247
-13.9134
-10.6431
-8.35037
-6.63598
-5.30262
-4.24101
-3.38941
-2.70632
-2.15981
-1.72553
-1.3824
-1.11195
-0.89846
-0.729034
-0.593362
-0.483177
-0.392187
-0.314738
-0.242524
-0.149767
-0.144234
-0.184489
-0.218865
-0.258146
-0.307555
-0.373319
-0.464327
-0.592737
-0.801046
-1.62614
-2.45114
-2.78278
-2.90638
-3.11515
-3.32652
-3.50533
-3.63384
-3.70756
-3.70778
-3.63457
-3.50644
-3.32784
-3.11665
-2.90776
-2.78361
-2.45383
-1.63507
-0.802916
-0.593786
-0.465057
-0.373856
-0.307971
-0.258486
-0.219167
-0.184822
-0.144424
-0.149641
-0.242532
-0.314746
-0.392195
-0.483185
-0.59337
-0.729041
-0.898465
-1.11195
-1.3824
-1.72552
-2.15979
-2.7063
-3.3894
-4.24101
-5.30264
-6.63602
-8.35041
-10.6432
-13.9134
-19.0247
-27.9738
-45.6151
-84.2228
)
;
    }
    low
    {
        type            calculated;
        value           nonuniform List<scalar> 
84
(
-0.606425
-1.794
-3.22666
-4.72992
-6.09564
-7.1419
-7.77531
-8.01484
-7.92876
-7.60813
-7.30571
-6.9608
-6.53513
-6.19164
-5.89451
-5.59603
-5.3296
-5.1158
-4.88805
-4.62453
-4.40103
-4.20325
-4.00853
-3.82923
-3.65265
-3.53991
-3.53695
-3.6587
-3.87203
-4.17089
-4.53022
-4.88803
-5.28971
-5.75329
-6.24722
-6.80657
-7.43318
-7.97649
-8.39689
-8.72867
-8.97046
-9.14373
-9.14376
-8.97049
-8.72872
-8.39695
-7.97656
-7.43327
-6.80668
-6.24718
-5.75335
-5.28965
-4.88799
-4.53019
-4.17086
-3.87199
-3.65869
-3.53695
-3.53992
-3.65268
-3.82933
-4.00854
-4.20328
-4.40106
-4.62454
-4.88806
-5.11581
-5.32961
-5.59604
-5.8945
-6.19163
-6.53511
-6.96077
-7.30567
-7.6081
-7.92874
-8.01484
-7.77533
-7.14193
-6.09568
-4.72996
-3.22669
-1.79401
-0.606431
)
;
    }
    left
    {
        type            calculated;
        value           nonuniform List<scalar> 
19
(
-0.554161
-1.02595
-1.41942
-1.79104
-2.13572
-2.49571
-2.84918
-3.24782
-3.70866
-4.25055
-5.00695
-5.97919
-7.36137
-9.38913
-12.6091
-17.7495
-27.0803
-44.523
-87.3513
)
;
    }
    right
    {
        type            calculated;
        value           nonuniform List<scalar> 
19
(
-0.554165
-1.02596
-1.41942
-1.79103
-2.13572
-2.49571
-2.84918
-3.24783
-3.70866
-4.25055
-5.00694
-5.97918
-7.36135
-9.38911
-12.6091
-17.7495
-27.0803
-44.523
-87.3513
)
;
    }
    frontAndBackPlanes
    {
        type            empty;
    }
}


// ************************************************************************* //
