/*--------------------------------*- C++ -*----------------------------------*\
  =========                 |
  \\      /  F ield         | OpenFOAM: The Open Source CFD Toolbox
   \\    /   O peration     | Website:  https://openfoam.org
    \\  /    A nd           | Version:  7
     \\/     M anipulation  |
\*---------------------------------------------------------------------------*/
FoamFile
{
    version     2.0;
    format      ascii;
    class       volScalarField;
    location    "0.393";
    object      gradTy;
}
// * * * * * * * * * * * * * * * * * * * * * * * * * * * * * * * * * * * * * //

dimensions      [0 -1 0 1 0 0 0];

internalField   nonuniform List<scalar> 
1596
(
-0.140762
-0.263067
-0.366734
-0.470967
-0.576913
-0.697967
-0.83001
-0.98876
-1.18156
-1.41389
-1.72966
-2.13041
-2.67854
-3.44976
-4.6344
-6.46895
-9.73068
-15.7361
-37.1747
-0.429559
-0.53432
-0.612716
-0.692206
-0.776314
-0.879009
-0.996383
-1.14218
-1.32271
-1.53956
-1.82841
-2.18653
-2.65521
-3.26902
-4.1252
-5.27476
-6.97643
-9.47384
-16.5619
-0.76979
-0.811268
-0.846746
-0.893666
-0.951225
-1.03083
-1.12736
-1.25221
-1.40957
-1.59832
-1.8469
-2.14841
-2.53082
-3.0102
-3.64517
-4.44531
-5.55083
-7.06557
-10.3222
-1.12716
-1.08136
-1.06379
-1.07293
-1.10055
-1.15358
-1.22528
-1.32438
-1.45306
-1.60845
-1.81295
-2.05745
-2.36107
-2.73044
-3.20223
-3.77023
-4.51631
-5.48478
-7.15051
-1.45739
-1.32885
-1.25859
-1.22909
-1.22573
-1.25066
-1.29586
-1.36736
-1.4658
-1.58736
-1.74951
-1.94265
-2.18005
-2.46363
-2.81722
-3.22961
-3.75158
-4.40064
-5.35181
-1.72013
-1.53857
-1.42651
-1.36249
-1.32991
-1.32735
-1.34638
-1.39065
-1.45975
-1.54957
-1.67354
-1.82267
-2.00622
-2.2239
-2.49159
-2.79751
-3.17446
-3.62772
-4.22492
-1.89304
-1.69869
-1.5633
-1.47352
-1.41627
-1.38887
-1.38367
-1.40253
-1.44454
-1.50574
-1.59629
-1.70839
-1.84847
-2.01528
-2.2195
-2.45048
-2.72986
-3.05741
-3.46049
-1.97525
-1.80203
-1.66407
-1.56054
-1.48568
-1.43796
-1.41178
-1.40807
-1.42593
-1.46192
-1.52361
-1.60461
-1.70936
-1.83625
-1.9925
-2.16904
-2.38025
-2.62358
-2.91025
-1.98309
-1.85631
-1.73401
-1.62892
-1.54421
-1.48139
-1.43791
-1.41469
-1.41133
-1.42517
-1.46188
-1.51648
-1.59199
-1.6868
-1.80571
-1.94116
-2.10264
-2.28671
-2.49766
-1.93063
-1.85411
-1.7597
-1.66503
-1.57972
-1.50886
-1.4533
-1.41483
-1.39393
-1.38898
-1.40447
-1.4367
-1.48787
-1.55651
-1.64588
-1.74975
-1.8744
-2.0162
-2.17621
-1.86386
-1.82376
-1.75787
-1.67953
-1.60017
-1.52714
-1.46421
-1.41438
-1.37935
-1.35861
-1.35606
-1.36921
-1.39979
-1.44661
-1.51192
-1.59058
-1.68671
-1.79676
-1.92021
-1.7806
-1.77797
-1.74017
-1.68053
-1.61095
-1.5399
-1.47326
-1.41529
-1.3689
-1.3348
-1.3167
-1.31325
-1.326
-1.35411
-1.39923
-1.45709
-1.5304
-1.61577
-1.71199
-1.67764
-1.70838
-1.6982
-1.65909
-1.60257
-1.53754
-1.47115
-1.40872
-1.35427
-1.30966
-1.27877
-1.2613
-1.25889
-1.27114
-1.29944
-1.34029
-1.39549
-1.46195
-1.53804
-1.58459
-1.63471
-1.64664
-1.62667
-1.58399
-1.52702
-1.46334
-1.39904
-1.339
-1.2861
-1.24459
-1.21509
-1.19955
-1.19805
-1.21194
-1.23837
-1.27865
-1.32992
-1.39041
-1.4975
-1.56278
-1.59195
-1.5885
-1.55906
-1.51091
-1.45144
-1.38706
-1.32331
-1.26387
-1.21346
-1.17355
-1.14648
-1.13284
-1.13414
-1.14811
-1.17581
-1.21466
-1.26285
-1.41206
-1.4913
-1.53502
-1.54587
-1.52866
-1.48946
-1.43509
-1.37199
-1.30607
-1.24162
-1.18385
-1.13492
-1.09767
-1.07324
-1.0634
-1.06648
-1.08347
-1.11205
-1.15046
-1.33424
-1.42263
-1.4781
-1.50113
-1.49488
-1.46427
-1.41536
-1.35441
-1.28746
-1.21924
-1.15535
-1.09859
-1.05227
-1.01808
-0.998198
-0.991529
-0.999191
-1.01914
-1.04967
-1.26565
-1.35989
-1.42448
-1.4577
-1.46106
-1.43832
-1.39478
-1.33635
-1.26906
-1.19791
-1.1288
-1.06507
-1.01046
-0.967198
-0.937921
-0.922157
-0.921332
-0.933749
-0.957758
-1.19797
-1.30254
-1.37632
-1.4188
-1.43085
-1.41533
-1.37687
-1.32101
-1.25368
-1.18005
-1.10624
-1.03601
-0.973486
-0.921379
-0.882797
-0.857943
-0.848773
-0.854105
-0.87247
-1.12974
-1.24576
-1.32945
-1.38107
-1.40141
-1.39285
-1.35946
-1.30643
-1.23955
-1.16406
-1.08623
-1.01016
-0.940257
-0.87959
-0.831688
-0.797413
-0.779528
-0.777737
-0.791075
-1.07172
-1.19475
-1.28737
-1.3477
-1.3759
-1.37392
-1.3454
-1.29523
-1.22903
-1.15206
-1.07069
-0.989232
-0.912321
-0.843222
-0.78569
-0.741028
-0.712959
-0.702667
-0.710655
-1.02113
-1.15052
-1.25117
-1.31972
-1.35543
-1.35977
-1.336
-1.28873
-1.22342
-1.1453
-1.06078
-0.974372
-0.890838
-0.813515
-0.746089
-0.689765
-0.64882
-0.626343
-0.626495
-0.975704
-1.11255
-1.22116
-1.29761
-1.34054
-1.351
-1.3319
-1.28765
-1.22349
-1.14459
-1.05736
-0.96643
-0.876742
-0.791672
-0.714618
-0.645886
-0.588807
-0.546666
-0.530113
-0.936571
-1.08131
-1.19747
-1.28071
-1.32944
-1.3443
-1.32825
-1.28539
-1.22091
-1.14
-1.04859
-0.951973
-0.85521
-0.762003
-0.675388
-0.594904
-0.520517
-0.44993
-0.382877
-0.906161
-1.05843
-1.18319
-1.27557
-1.33413
-1.35909
-1.35335
-1.32036
-1.26475
-1.19146
-1.10509
-1.01129
-0.914756
-0.820107
-0.730524
-0.646668
-0.566309
-0.484101
-0.389465
-0.886574
-1.04341
-1.17233
-1.26945
-1.3335
-1.36466
-1.36573
-1.33974
-1.29077
-1.22324
-1.14049
-1.04788
-0.949815
-0.851597
-0.757501
-0.670866
-0.591307
-0.517312
-0.443858
-0.889433
-1.04811
-1.17911
-1.27909
-1.34694
-1.38322
-1.39056
-1.37198
-1.33108
-1.27153
-1.19577
-1.10784
-1.01143
-0.911805
-0.814374
-0.724164
-0.64288
-0.570498
-0.503443
-0.917506
-1.07503
-1.205
-1.30465
-1.3732
-1.41176
-1.42301
-1.41016
-1.3765
-1.32508
-1.25746
-1.17608
-1.08323
-0.983359
-0.882431
-0.78716
-0.701624
-0.627442
-0.561924
-0.969022
-1.12396
-1.25011
-1.34645
-1.41287
-1.45111
-1.46414
-1.45539
-1.42809
-1.38486
-1.32652
-1.2539
-1.1673
-1.0693
-0.965336
-0.863508
-0.770765
-0.69132
-0.623644
-1.0436
-1.19202
-1.3112
-1.40145
-1.46325
-1.499
-1.51201
-1.50601
-1.48428
-1.44935
-1.40154
-1.34048
-1.26422
-1.17237
-1.06797
-0.959197
-0.855949
-0.766824
-0.6929
-1.1413
-1.27883
-1.38866
-1.47066
-1.52587
-1.55735
-1.56884
-1.56432
-1.54721
-1.52028
-1.48377
-1.43692
-1.37599
-1.29716
-1.19868
-1.08576
-0.969044
-0.863329
-0.776257
-1.25107
-1.37934
-1.4787
-1.5507
-1.59765
-1.62338
-1.63205
-1.62779
-1.61419
-1.59439
-1.56908
-1.53825
-1.49782
-1.44167
-1.36207
-1.25699
-1.13054
-1.00002
-0.886048
-1.37966
-1.49591
-1.58203
-1.64167
-1.67844
-1.69684
-1.70126
-1.69581
-1.68403
-1.66943
-1.65328
-1.63728
-1.61917
-1.59395
-1.55075
-1.4803
-1.37072
-1.22502
-1.05138
-1.53278
-1.63222
-1.70202
-1.74738
-1.77302
-1.78384
-1.78416
-1.77783
-1.76812
-1.75857
-1.75109
-1.7489
-1.753
-1.76353
-1.77462
-1.78023
-1.7622
-1.70816
-1.60519
-1.70763
-1.78561
-1.83356
-1.85949
-1.86899
-1.86709
-1.85745
-1.84338
-1.82745
-1.81212
-1.79928
-1.7912
-1.78991
-1.79807
-1.81712
-1.8508
-1.89654
-1.95053
-2.00482
-1.90919
-1.95573
-1.97622
-1.97968
-1.97143
-1.95605
-1.93624
-1.9148
-1.89365
-1.87426
-1.85862
-1.84758
-1.84265
-1.84496
-1.85622
-1.87793
-1.91327
-1.96506
-2.03786
-2.13494
-2.1401
-2.13016
-2.11107
-2.08634
-2.05916
-2.03123
-2.00455
-1.9804
-1.95963
-1.94374
-1.93276
-1.92736
-1.92735
-1.93271
-1.94162
-1.95364
-1.96634
-1.9784
-2.34982
-2.31246
-2.27182
-2.22998
-2.18835
-2.14853
-2.11125
-2.07754
-2.04801
-2.02292
-2.003
-1.98792
-1.97767
-1.97166
-1.96947
-1.96963
-1.97179
-1.97464
-1.97766
-2.53251
-2.46125
-2.3947
-2.33318
-2.27675
-2.22576
-2.18009
-2.13997
-2.1054
-2.07624
-2.05266
-2.03417
-2.02048
-2.01096
-2.00511
-2.00184
-2.00078
-2.00097
-2.0019
-2.68197
-2.58233
-2.49424
-2.41644
-2.34782
-2.28761
-2.23502
-2.18955
-2.15081
-2.1183
-2.09183
-2.07088
-2.05495
-2.04343
-2.03578
-2.03111
-2.02893
-2.02844
-2.02907
-2.7915
-2.66996
-2.56534
-2.47533
-2.39776
-2.33089
-2.27335
-2.22411
-2.18245
-2.14767
-2.11934
-2.0969
-2.07977
-2.06731
-2.05891
-2.05379
-2.05126
-2.05056
-2.05102
-2.85961
-2.71913
-2.60323
-2.50594
-2.42341
-2.353
-2.29289
-2.24173
-2.1986
-2.16271
-2.13349
-2.11041
-2.09281
-2.08009
-2.07164
-2.06673
-2.06465
-2.06468
-2.0661
-2.85962
-2.71916
-2.60327
-2.50598
-2.42345
-2.35304
-2.29293
-2.24176
-2.19864
-2.16274
-2.13353
-2.11044
-2.09285
-2.08013
-2.07167
-2.06676
-2.06469
-2.06472
-2.06613
-2.79152
-2.67002
-2.56542
-2.47543
-2.39786
-2.33099
-2.27345
-2.22421
-2.18255
-2.14777
-2.11944
-2.097
-2.07987
-2.06741
-2.05902
-2.05389
-2.05137
-2.05069
-2.05116
-2.68202
-2.58242
-2.49437
-2.41659
-2.34798
-2.28777
-2.23518
-2.18971
-2.15097
-2.11846
-2.09199
-2.07104
-2.05511
-2.04359
-2.03594
-2.03128
-2.0291
-2.02862
-2.02926
-2.53257
-2.46137
-2.39486
-2.33336
-2.27695
-2.22596
-2.1803
-2.14017
-2.10561
-2.07644
-2.05286
-2.03437
-2.02068
-2.01114
-2.00529
-2.00202
-2.00095
-2.00114
-2.00206
-2.34988
-2.3126
-2.272
-2.23019
-2.18858
-2.14877
-2.1115
-2.07779
-2.04826
-2.02316
-2.00324
-1.98815
-1.97789
-1.97187
-1.96966
-1.9698
-1.97194
-1.97478
-1.97777
-2.13501
-2.14025
-2.13035
-2.1113
-2.08659
-2.05942
-2.03151
-2.00483
-1.98069
-1.95991
-1.94402
-1.93303
-1.92762
-1.92757
-1.93289
-1.94174
-1.95369
-1.96631
-1.97828
-1.90926
-1.95589
-1.97645
-1.97996
-1.97176
-1.95643
-1.93667
-1.91526
-1.89416
-1.87482
-1.85923
-1.84824
-1.84337
-1.84574
-1.85702
-1.8787
-1.91389
-1.96533
-2.03749
-1.70768
-1.78564
-1.8336
-1.85953
-1.86901
-1.8671
-1.85744
-1.84332
-1.82735
-1.81194
-1.79901
-1.79081
-1.78935
-1.79728
-1.81609
-1.84955
-1.89527
-1.94964
-2.00502
-1.53281
-1.63229
-1.70214
-1.74755
-1.77325
-1.78413
-1.78451
-1.77823
-1.76859
-1.75911
-1.7517
-1.74959
-1.75381
-1.76456
-1.77601
-1.78221
-1.76506
-1.71216
-1.61048
-1.37968
-1.49592
-1.58206
-1.64173
-1.67853
-1.69696
-1.70142
-1.69599
-1.68425
-1.66969
-1.65358
-1.63766
-1.61967
-1.59464
-1.55173
-1.48161
-1.3723
-1.22664
-1.05257
-1.25108
-1.37935
-1.47871
-1.55074
-1.59773
-1.62349
-1.6322
-1.62799
-1.61443
-1.59469
-1.56945
-1.53871
-1.49842
-1.44245
-1.36303
-1.25809
-1.13163
-1.00098
-0.886805
-1.14131
-1.27883
-1.38866
-1.47068
-1.52592
-1.55744
-1.56898
-1.5645
-1.54745
-1.52057
-1.48414
-1.4374
-1.37659
-1.29787
-1.19948
-1.08659
-0.969806
-0.863982
-0.77681
-1.04361
-1.19201
-1.31119
-1.40146
-1.46328
-1.49907
-1.51213
-1.50618
-1.4845
-1.44964
-1.40191
-1.34094
-1.26476
-1.17298
-1.06861
-0.959825
-0.856517
-0.767323
-0.693349
-0.969023
-1.12394
-1.25009
-1.34645
-1.41289
-1.45117
-1.46424
-1.45554
-1.42829
-1.38513
-1.32686
-1.25431
-1.16777
-1.06981
-0.965857
-0.864003
-0.771217
-0.691733
-0.624038
-0.917507
-1.07501
-1.20498
-1.30464
-1.37322
-1.4118
-1.4231
-1.41029
-1.37669
-1.32533
-1.25777
-1.17645
-1.08364
-0.983787
-0.882855
-0.787562
-0.702
-0.627802
-0.562295
-0.889434
-1.04809
-1.17908
-1.27907
-1.34695
-1.38326
-1.39063
-1.3721
-1.33125
-1.27175
-1.19604
-1.10816
-1.01177
-0.91216
-0.814723
-0.724499
-0.643205
-0.570833
-0.503822
-0.886574
-1.04339
-1.1723
-1.26942
-1.33348
-1.36466
-1.36575
-1.3398
-1.29085
-1.22337
-1.14064
-1.04805
-0.950001
-0.85178
-0.757672
-0.671029
-0.59148
-0.517538
-0.444227
-0.906191
-1.05846
-1.18321
-1.27561
-1.33418
-1.35916
-1.35345
-1.3205
-1.26492
-1.19167
-1.10533
-1.01156
-0.915047
-0.820413
-0.730838
-0.646987
-0.566622
-0.484399
-0.389727
-0.936602
-1.08135
-1.19749
-1.28073
-1.32945
-1.3443
-1.32823
-1.28536
-1.22086
-1.13993
-1.04851
-0.951878
-0.855104
-0.761884
-0.675256
-0.594757
-0.520351
-0.449743
-0.382662
-0.975728
-1.11258
-1.22118
-1.29763
-1.34056
-1.35101
-1.33192
-1.28766
-1.22349
-1.14459
-1.05736
-0.966425
-0.876735
-0.791665
-0.71461
-0.645879
-0.588805
-0.546674
-0.53013
-1.02115
-1.15054
-1.25119
-1.31973
-1.35544
-1.35977
-1.336
-1.28873
-1.22341
-1.14529
-1.06077
-0.97436
-0.890826
-0.813503
-0.746079
-0.689758
-0.648819
-0.626347
-0.626502
-1.07174
-1.19477
-1.28738
-1.34771
-1.3759
-1.37392
-1.3454
-1.29523
-1.22902
-1.15205
-1.07068
-0.989222
-0.912312
-0.843214
-0.785684
-0.741026
-0.712959
-0.70267
-0.710659
-1.12976
-1.24577
-1.32946
-1.38108
-1.40142
-1.39285
-1.35946
-1.30643
-1.23954
-1.16406
-1.08623
-1.01015
-0.94025
-0.879585
-0.831684
-0.797411
-0.779528
-0.777739
-0.791077
-1.19798
-1.30255
-1.37633
-1.41881
-1.43085
-1.41533
-1.37687
-1.32101
-1.25368
-1.18005
-1.10623
-1.036
-0.973482
-0.921376
-0.882795
-0.857942
-0.848773
-0.854105
-0.872471
-1.26567
-1.35989
-1.42448
-1.4577
-1.46106
-1.43832
-1.39477
-1.33634
-1.26906
-1.19791
-1.1288
-1.06507
-1.01046
-0.967196
-0.93792
-0.922156
-0.921332
-0.933749
-0.957759
-1.33424
-1.42264
-1.4781
-1.50113
-1.49488
-1.46427
-1.41536
-1.35441
-1.28746
-1.21924
-1.15534
-1.09858
-1.05226
-1.01808
-0.998197
-0.991528
-0.99919
-1.01914
-1.04967
-1.41207
-1.4913
-1.53503
-1.54587
-1.52866
-1.48946
-1.43509
-1.37199
-1.30607
-1.24162
-1.18384
-1.13492
-1.09767
-1.07324
-1.0634
-1.06648
-1.08347
-1.11205
-1.15046
-1.4975
-1.56278
-1.59195
-1.5885
-1.55906
-1.51091
-1.45144
-1.38705
-1.32331
-1.26386
-1.21346
-1.17355
-1.14648
-1.13284
-1.13414
-1.14811
-1.17581
-1.21466
-1.26285
-1.58459
-1.63471
-1.64665
-1.62667
-1.58399
-1.52702
-1.46334
-1.39904
-1.339
-1.28609
-1.24458
-1.21509
-1.19955
-1.19805
-1.21194
-1.23837
-1.27865
-1.32992
-1.39041
-1.67764
-1.70838
-1.6982
-1.6591
-1.60257
-1.53754
-1.47115
-1.40872
-1.35427
-1.30966
-1.27877
-1.2613
-1.25889
-1.27114
-1.29944
-1.34029
-1.39549
-1.46195
-1.53804
-1.7806
-1.77797
-1.74017
-1.68053
-1.61095
-1.5399
-1.47326
-1.41529
-1.3689
-1.3348
-1.31669
-1.31325
-1.326
-1.35411
-1.39923
-1.45709
-1.53039
-1.61577
-1.71199
-1.86386
-1.82376
-1.75787
-1.67954
-1.60017
-1.52714
-1.46421
-1.41438
-1.37935
-1.35861
-1.35605
-1.36921
-1.39979
-1.44661
-1.51192
-1.59058
-1.68671
-1.79676
-1.92021
-1.93063
-1.85412
-1.7597
-1.66503
-1.57972
-1.50886
-1.45331
-1.41483
-1.39393
-1.38898
-1.40447
-1.4367
-1.48787
-1.55651
-1.64588
-1.74975
-1.8744
-2.0162
-2.17621
-1.98309
-1.85631
-1.73401
-1.62893
-1.54421
-1.48139
-1.43791
-1.4147
-1.41133
-1.42517
-1.46188
-1.51648
-1.59199
-1.6868
-1.80571
-1.94115
-2.10263
-2.28671
-2.49766
-1.97526
-1.80203
-1.66407
-1.56054
-1.48568
-1.43796
-1.41178
-1.40807
-1.42593
-1.46192
-1.52361
-1.60461
-1.70936
-1.83625
-1.9925
-2.16904
-2.38025
-2.62358
-2.91025
-1.89304
-1.6987
-1.5633
-1.47353
-1.41627
-1.38888
-1.38367
-1.40253
-1.44454
-1.50574
-1.59629
-1.70839
-1.84847
-2.01527
-2.2195
-2.45048
-2.72986
-3.05741
-3.46049
-1.72014
-1.53857
-1.42651
-1.36249
-1.32991
-1.32735
-1.34638
-1.39065
-1.45975
-1.54957
-1.67353
-1.82267
-2.00622
-2.2239
-2.49159
-2.79751
-3.17446
-3.62772
-4.22492
-1.4574
-1.32885
-1.25859
-1.22909
-1.22573
-1.25066
-1.29586
-1.36736
-1.4658
-1.58736
-1.74951
-1.94265
-2.18005
-2.46363
-2.81722
-3.22961
-3.75158
-4.40064
-5.35181
-1.12716
-1.08136
-1.06379
-1.07293
-1.10055
-1.15358
-1.22528
-1.32438
-1.45307
-1.60845
-1.81295
-2.05745
-2.36107
-2.73044
-3.20223
-3.77023
-4.51631
-5.48478
-7.15051
-0.769794
-0.81127
-0.846748
-0.893668
-0.951227
-1.03083
-1.12736
-1.25221
-1.40957
-1.59832
-1.8469
-2.14841
-2.53082
-3.0102
-3.64517
-4.44531
-5.55083
-7.06557
-10.3222
-0.429561
-0.534321
-0.612716
-0.692207
-0.776315
-0.87901
-0.996383
-1.14218
-1.32271
-1.53956
-1.82841
-2.18652
-2.65521
-3.26902
-4.1252
-5.27476
-6.97643
-9.47384
-16.5619
-0.140763
-0.263067
-0.366734
-0.470967
-0.576913
-0.697967
-0.83001
-0.98876
-1.18156
-1.41389
-1.72966
-2.13041
-2.67854
-3.44976
-4.6344
-6.46895
-9.73068
-15.7361
-37.1747
)
;

boundaryField
{
    up
    {
        type            calculated;
        value           nonuniform List<scalar> 
84
(
-33.6868
-18.2444
-11.2036
-7.6607
-5.6748
-4.44411
-3.61705
-3.0264
-2.58592
-2.24499
-1.9745
-1.75524
-1.57306
-1.41897
-1.28628
-1.16983
-1.06577
-0.971214
-0.883756
-0.800669
-0.718808
-0.632505
-0.526912
-0.345308
-0.335941
-0.422006
-0.483958
-0.542526
-0.603179
-0.670133
-0.748392
-0.843894
-0.986301
-1.60853
-2.07714
-2.08113
-1.98088
-1.97777
-2.00171
-2.02919
-2.05132
-2.06708
-2.06711
-2.05147
-2.02938
-2.00187
-1.97788
-1.98075
-2.08025
-2.0774
-1.61479
-0.987391
-0.844557
-0.748916
-0.670573
-0.603572
-0.542902
-0.484353
-0.422539
-0.336305
-0.345087
-0.526932
-0.632513
-0.718812
-0.800671
-0.883757
-0.971214
-1.06577
-1.16982
-1.28628
-1.41897
-1.57306
-1.75524
-1.9745
-2.24499
-2.58592
-3.0264
-3.61705
-4.44411
-5.6748
-7.6607
-11.2036
-18.2444
-33.6868
)
;
    }
    low
    {
        type            calculated;
        value           nonuniform List<scalar> 
84
(
-0.150762
-0.447746
-0.809708
-1.19506
-1.55205
-1.83299
-2.01039
-2.08477
-2.07024
-1.98862
-1.90609
-1.80748
-1.6839
-1.57933
-1.4856
-1.39148
-1.30631
-1.23577
-1.16407
-1.08639
-1.02133
-0.965524
-0.913583
-0.868255
-0.82646
-0.801957
-0.805496
-0.841104
-0.902347
-0.989574
-1.09844
-1.21555
-1.35336
-1.51798
-1.7028
-1.91843
-2.16472
-2.39395
-2.58645
-2.74456
-2.8611
-2.93781
-2.93782
-2.86112
-2.74458
-2.58648
-2.39399
-2.16476
-1.91848
-1.70279
-1.51801
-1.35335
-1.21555
-1.09844
-0.989577
-0.90235
-0.841113
-0.805507
-0.801972
-0.826481
-0.868293
-0.913599
-0.965544
-1.02134
-1.08641
-1.16408
-1.23578
-1.30632
-1.39149
-1.4856
-1.57933
-1.6839
-1.80747
-1.90608
-1.98862
-2.07024
-2.08477
-2.01039
-1.833
-1.55206
-1.19506
-0.809713
-0.447749
-0.150763
)
;
    }
    left
    {
        type            calculated;
        value           nonuniform List<scalar> 
19
(
-0.13803
-0.258002
-0.363473
-0.470794
-0.580693
-0.706273
-0.843821
-1.00994
-1.21238
-1.45922
-1.7966
-2.22834
-2.82538
-3.67843
-5.0012
-7.08345
-10.8303
-17.8122
-34.9417
)
;
    }
    right
    {
        type            calculated;
        value           nonuniform List<scalar> 
19
(
-0.138031
-0.258003
-0.363473
-0.470794
-0.580693
-0.706273
-0.843821
-1.00994
-1.21238
-1.45922
-1.79659
-2.22834
-2.82538
-3.67843
-5.00119
-7.08345
-10.8303
-17.8122
-34.9417
)
;
    }
    frontAndBackPlanes
    {
        type            empty;
    }
}


// ************************************************************************* //
