/*--------------------------------*- C++ -*----------------------------------*\
  =========                 |
  \\      /  F ield         | OpenFOAM: The Open Source CFD Toolbox
   \\    /   O peration     | Website:  https://openfoam.org
    \\  /    A nd           | Version:  7
     \\/     M anipulation  |
\*---------------------------------------------------------------------------*/
FoamFile
{
    version     2.0;
    format      ascii;
    class       volScalarField;
    location    "0.17";
    object      gradTx;
}
// * * * * * * * * * * * * * * * * * * * * * * * * * * * * * * * * * * * * * //

dimensions      [0 -1 0 1 0 0 0];

internalField   nonuniform List<scalar> 
1596
(
-0.0542694
-0.272074
-0.48559
-0.675
-0.837857
-0.972884
-1.0864
-1.1826
-1.26752
-1.3525
-1.44134
-1.54772
-1.68717
-1.8812
-2.15436
-2.56592
-3.2059
-4.26786
-6.15208
0.0123533
-0.225268
-0.435377
-0.6146
-0.766303
-0.890824
-0.993979
-1.07794
-1.14736
-1.20844
-1.26263
-1.31775
-1.3774
-1.44649
-1.52408
-1.60712
-1.67114
-1.66497
-1.47893
0.0672288
-0.181333
-0.383782
-0.550234
-0.688467
-0.800752
-0.892172
-0.964206
-1.02005
-1.06322
-1.09397
-1.11669
-1.13149
-1.13893
-1.13586
-1.11597
-1.06009
-0.933703
-0.667748
0.0768319
-0.155706
-0.339089
-0.487489
-0.609436
-0.708044
-0.787295
-0.848366
-0.893319
-0.92403
-0.940419
-0.944771
-0.936279
-0.914286
-0.876163
-0.816889
-0.724507
-0.578904
-0.339534
0.0260183
-0.158639
-0.309154
-0.433086
-0.53563
-0.619113
-0.685944
-0.736946
-0.773255
-0.795632
-0.804023
-0.799312
-0.780603
-0.746929
-0.696566
-0.625986
-0.52844
-0.392899
-0.196599
-0.0800832
-0.194256
-0.300256
-0.393609
-0.473583
-0.540279
-0.594146
-0.635398
-0.664333
-0.680858
-0.684989
-0.676623
-0.65493
-0.618837
-0.56725
-0.4976
-0.406261
-0.287321
-0.128315
-0.220586
-0.259598
-0.315337
-0.373807
-0.42848
-0.476599
-0.516549
-0.547671
-0.569459
-0.581123
-0.582631
-0.573182
-0.551963
-0.517798
-0.469898
-0.406187
-0.324715
-0.222265
-0.0920725
-0.366942
-0.341925
-0.349567
-0.372538
-0.400851
-0.429323
-0.454588
-0.47501
-0.489343
-0.496228
-0.495454
-0.485742
-0.466221
-0.435606
-0.393186
-0.337097
-0.266191
-0.178587
-0.070577
-0.517849
-0.448558
-0.414138
-0.4018
-0.401858
-0.408125
-0.416218
-0.423662
-0.428592
-0.429175
-0.424893
-0.41413
-0.39586
-0.368653
-0.331701
-0.283179
-0.222198
-0.147429
-0.0566489
-0.608277
-0.523644
-0.464893
-0.427553
-0.405384
-0.393023
-0.386133
-0.381878
-0.37807
-0.372634
-0.364775
-0.352733
-0.335354
-0.311143
-0.279188
-0.237711
-0.185884
-0.122613
-0.0464078
-0.682554
-0.592113
-0.519093
-0.463442
-0.422616
-0.393126
-0.371542
-0.355202
-0.341916
-0.329561
-0.317127
-0.302805
-0.285323
-0.263131
-0.235188
-0.199731
-0.155854
-0.102506
-0.0385039
-0.759223
-0.669027
-0.58732
-0.517407
-0.459925
-0.41365
-0.376618
-0.346853
-0.322495
-0.301562
-0.282929
-0.264783
-0.245736
-0.22417
-0.198896
-0.168128
-0.130825
-0.0858633
-0.0321176
-0.782367
-0.704409
-0.625008
-0.550771
-0.484928
-0.428359
-0.380665
-0.340857
-0.307687
-0.279558
-0.25544
-0.23366
-0.212827
-0.191348
-0.167968
-0.140946
-0.109154
-0.0714258
-0.0266428
-0.79098
-0.72608
-0.653125
-0.579198
-0.509121
-0.445538
-0.38953
-0.341227
-0.300154
-0.265242
-0.235697
-0.210054
-0.186981
-0.16494
-0.142639
-0.118387
-0.090989
-0.0592448
-0.0220245
-0.793905
-0.740695
-0.675438
-0.604382
-0.532844
-0.464689
-0.402255
-0.346786
-0.29865
-0.257395
-0.222565
-0.192955
-0.167332
-0.144228
-0.122337
-0.100013
-0.0760123
-0.0491072
-0.0181539
-0.779421
-0.738798
-0.682845
-0.617366
-0.547631
-0.47816
-0.412192
-0.351934
-0.298578
-0.252317
-0.213116
-0.180076
-0.152122
-0.127889
-0.10609
-0.0851396
-0.0637713
-0.0407531
-0.0149398
-0.746175
-0.717709
-0.672084
-0.614311
-0.549263
-0.481651
-0.415234
-0.35294
-0.296668
-0.247227
-0.205033
-0.169529
-0.139844
-0.11475
-0.0930195
-0.0731419
-0.0538604
-0.0339606
-0.0123151
-0.705662
-0.685152
-0.648753
-0.59914
-0.540209
-0.476425
-0.411736
-0.34953
-0.292254
-0.24125
-0.197357
-0.160361
-0.129609
-0.104032
-0.082478
-0.0635201
-0.0459291
-0.0285244
-0.0102112
-0.671846
-0.657666
-0.62825
-0.585143
-0.531345
-0.470954
-0.407979
-0.346117
-0.288249
-0.236153
-0.191023
-0.152936
-0.121421
-0.0955333
-0.0741778
-0.0559831
-0.0397361
-0.0242832
-0.008566
-0.608363
-0.602858
-0.581946
-0.547314
-0.50132
-0.447497
-0.389618
-0.331412
-0.275988
-0.225435
-0.181247
-0.143785
-0.11279
-0.0874809
-0.0668692
-0.0496705
-0.0347155
-0.0209052
-0.00726195
-0.536151
-0.537519
-0.524365
-0.497934
-0.460066
-0.413724
-0.362313
-0.309399
-0.258134
-0.210772
-0.168993
-0.133388
-0.103881
-0.079863
-0.0604636
-0.0444948
-0.0308234
-0.018381
-0.00628739
-0.459233
-0.464945
-0.458189
-0.43928
-0.40944
-0.371033
-0.327017
-0.280652
-0.234972
-0.192248
-0.154224
-0.12164
-0.0945619
-0.0725461
-0.0548615
-0.0404378
-0.0281664
-0.01692
-0.0057688
-0.372293
-0.380008
-0.378442
-0.366791
-0.345472
-0.316099
-0.281038
-0.243057
-0.204902
-0.168708
-0.136146
-0.108034
-0.0845358
-0.065382
-0.0500321
-0.0376127
-0.0270949
-0.0172294
-0.00656705
-0.272719
-0.269025
-0.25868
-0.241911
-0.219941
-0.194524
-0.167636
-0.141077
-0.116372
-0.0944748
-0.075862
-0.0605507
-0.0481956
-0.0383417
-0.0305136
-0.0241723
-0.0186653
-0.0130316
-0.00577325
-0.182267
-0.201556
-0.220124
-0.233753
-0.23981
-0.237159
-0.226267
-0.208669
-0.186691
-0.162701
-0.138705
-0.116261
-0.0961295
-0.0787879
-0.0643936
-0.0528804
-0.0437794
-0.0362911
-0.0288986
-0.0612567
-0.0693037
-0.0792809
-0.0889176
-0.0965204
-0.100961
-0.101906
-0.0995215
-0.0945743
-0.0879786
-0.0804518
-0.0727251
-0.0649634
-0.0574017
-0.0502587
-0.0439889
-0.0387899
-0.0348784
-0.0320652
0.0600502
0.0505115
0.0363177
0.0195177
0.00215592
-0.014019
-0.0278381
-0.038682
-0.0465862
-0.051948
-0.0551261
-0.0566073
-0.0563995
-0.0546109
-0.0514497
-0.0476316
-0.0437634
-0.0405372
-0.0381132
0.180577
0.167584
0.14776
0.123329
0.0965994
0.0697174
0.0443867
0.0217218
0.00217343
-0.014302
-0.0278228
-0.0386539
-0.0465965
-0.0514548
-0.0531474
-0.0523844
-0.0500728
-0.0474399
-0.0450892
0.288538
0.269652
0.243007
0.211145
0.176434
0.141107
0.107005
0.0753679
0.0468133
0.0214177
-0.000857076
-0.0201722
-0.0361564
-0.0482094
-0.0556435
-0.0587426
-0.0583857
-0.0563314
-0.0538231
0.398944
0.372441
0.337896
0.297934
0.255009
0.211435
0.169105
0.129269
0.0925772
0.0590915
0.0287178
0.00120567
-0.0231094
-0.0433595
-0.058106
-0.0667409
-0.0694816
-0.0683455
-0.0654543
0.480273
0.445201
0.403255
0.356932
0.308594
0.260305
0.213651
0.169579
0.128537
0.0904125
0.0549467
0.0216451
-0.00944084
-0.0375197
-0.0605641
-0.0767558
-0.0846437
-0.0854762
-0.081919
0.554514
0.512263
0.463165
0.410701
0.357348
0.304924
0.254704
0.207332
0.163056
0.121591
0.0825123
0.0450003
0.00855822
-0.0266816
-0.0588585
-0.0854509
-0.102658
-0.109148
-0.106577
0.621167
0.569479
0.512797
0.454634
0.397181
0.34181
0.289376
0.24018
0.194268
0.15122
0.110539
0.0712066
0.0321867
-0.00743408
-0.0469932
-0.0849698
-0.116286
-0.135907
-0.138905
0.661347
0.595511
0.527601
0.46072
0.396538
0.335917
0.279294
0.22668
0.177946
0.132594
0.0900559
0.0492763
0.00893162
-0.0327736
-0.0769909
-0.124949
-0.174251
-0.220445
-0.25512
0.683158
0.611916
0.543787
0.480607
0.4226
0.369466
0.320735
0.27587
0.234424
0.19593
0.16004
0.126282
0.0940554
0.0624289
0.0301846
-0.00516734
-0.0458192
-0.0942025
-0.1509
0.697035
0.624115
0.558695
0.499991
0.446816
0.398207
0.353363
0.31169
0.272807
0.236386
0.202278
0.170388
0.140559
0.112719
0.0868954
0.0628331
0.0401768
0.0179324
-0.00574728
0.653922
0.570973
0.499856
0.437873
0.383096
0.334208
0.290179
0.250231
0.213807
0.180386
0.149642
0.121329
0.0951648
0.0710182
0.0489541
0.0290603
0.0116182
-0.00294891
-0.0144667
0.569531
0.495107
0.432142
0.377884
0.330419
0.288406
0.250813
0.216863
0.186006
0.157758
0.131822
0.107985
0.0860022
0.0657403
0.0471831
0.0302771
0.0150341
0.00155904
-0.010184
0.469942
0.408238
0.355737
0.310556
0.2712
0.236531
0.205653
0.177877
0.152717
0.129743
0.108691
0.089364
0.0715349
0.055063
0.0399023
0.0259735
0.0132621
0.00185483
-0.00826837
0.351911
0.304724
0.264912
0.230932
0.201539
0.175785
0.152941
0.132451
0.113927
0.0970288
0.0815494
0.0673316
0.0541972
0.0420332
0.0308028
0.0204471
0.0109639
0.00243449
-0.00514244
0.220771
0.189353
0.163697
0.142228
0.123879
0.107919
0.0938307
0.0812313
0.069862
0.0595001
0.0500091
0.0412848
0.0332108
0.0257117
0.0187619
0.0123231
0.00639617
0.00104044
-0.00373383
0.0845112
0.0717019
0.061639
0.0533424
0.0462855
0.0401573
0.0347553
0.0299369
0.0256059
0.0216787
0.018101
0.0148286
0.0118121
0.00901568
0.0064206
0.00400413
0.00175792
-0.000303239
-0.00217778
-0.0844707
-0.0716103
-0.061512
-0.0531915
-0.0461195
-0.0399832
-0.0345788
-0.0297628
-0.025438
-0.0215206
-0.0179554
-0.0146978
-0.0116981
-0.00892034
-0.00634519
-0.00394972
-0.00172518
0.000314264
0.00216748
-0.220733
-0.189271
-0.163585
-0.142095
-0.123733
-0.107767
-0.0936776
-0.0810813
-0.0697188
-0.0593669
-0.0498884
-0.0411788
-0.0331214
-0.0256405
-0.0187101
-0.0122916
-0.00638573
-0.00105085
0.0037032
-0.351872
-0.304644
-0.264802
-0.2308
-0.201392
-0.175629
-0.152783
-0.132295
-0.113775
-0.0968859
-0.0814176
-0.0672127
-0.0540928
-0.0419444
-0.0307303
-0.0203911
-0.0109241
-0.00241019
0.00515237
-0.469912
-0.40818
-0.355658
-0.310462
-0.271096
-0.236421
-0.205542
-0.177769
-0.152614
-0.129649
-0.108607
-0.089292
-0.0714761
-0.0550183
-0.039872
-0.0259575
-0.01326
-0.0018657
0.00824557
-0.56951
-0.495067
-0.432086
-0.377814
-0.330341
-0.288322
-0.250728
-0.216779
-0.185927
-0.157686
-0.131759
-0.107933
-0.0859617
-0.065712
-0.0471671
-0.0302726
-0.0150398
-0.00157268
0.0101654
-0.653919
-0.570958
-0.499828
-0.437834
-0.383049
-0.334158
-0.290128
-0.250184
-0.213766
-0.180353
-0.149619
-0.121318
-0.0951673
-0.0710347
-0.0489845
-0.029103
-0.011668
0.00290015
0.0144286
-0.697031
-0.624051
-0.558556
-0.499773
-0.446524
-0.39785
-0.352953
-0.311239
-0.272327
-0.235887
-0.201769
-0.169875
-0.140044
-0.112205
-0.0863844
-0.0623355
-0.0397191
-0.0175726
0.00591321
-0.683276
-0.61223
-0.544303
-0.481315
-0.423482
-0.370499
-0.321893
-0.277126
-0.235756
-0.197318
-0.161472
-0.127753
-0.0955723
-0.0640134
-0.0318728
0.00332207
0.0437692
0.0919367
0.148494
-0.661293
-0.595368
-0.527362
-0.460389
-0.396126
-0.335437
-0.278761
-0.22611
-0.177353
-0.131992
-0.0894547
-0.048685
-0.00835793
0.0333255
0.0775281
0.125501
0.17489
0.221295
0.256341
-0.621206
-0.569574
-0.51294
-0.454816
-0.397392
-0.342042
-0.289622
-0.240434
-0.194524
-0.151475
-0.110791
-0.071454
-0.0324278
0.00720751
0.0468008
0.0848474
0.116275
0.136032
0.13913
-0.554538
-0.512322
-0.463255
-0.410817
-0.357484
-0.305075
-0.254865
-0.207498
-0.163224
-0.121756
-0.0826733
-0.0451526
-0.00869487
0.0265737
0.0587994
0.085463
0.102751
0.109306
0.106766
-0.480299
-0.445262
-0.403349
-0.357053
-0.308737
-0.260463
-0.213817
-0.169748
-0.128703
-0.0905702
-0.055092
-0.0217725
0.00933934
0.0374554
0.0605488
0.0767965
0.0847343
0.0855971
0.082046
-0.398969
-0.372503
-0.337993
-0.298062
-0.255159
-0.2116
-0.169277
-0.12944
-0.09274
-0.0592406
-0.0288481
-0.00131169
0.023034
0.0433217
0.05811
0.0667845
0.0695547
0.068434
0.0655463
-0.28856
-0.269711
-0.243101
-0.211269
-0.17658
-0.141266
-0.107168
-0.0755263
-0.0469598
-0.0215467
0.000750265
0.0200917
0.0361062
0.048192
0.0556582
0.0587841
0.0584449
0.0563995
0.0538941
-0.180602
-0.167648
-0.14786
-0.12346
-0.0967516
-0.0698805
-0.0445499
-0.0218756
-0.00231063
0.0141869
0.027733
0.0385918
0.046563
0.0514493
0.0531664
0.052422
0.0501222
0.0474956
0.0451478
-0.0600721
-0.0505727
-0.036416
-0.0196459
-0.00230353
0.0138639
0.0276871
0.0385445
0.0464689
0.0518552
0.0550592
0.0565666
0.0563836
0.0546171
0.0514735
0.047668
0.0438076
0.0405864
0.0381662
0.0612041
0.0691463
0.079018
0.0885642
0.0961031
0.100512
0.101457
0.0991003
0.0941998
0.0876619
0.0801962
0.072529
0.064821
0.0573046
0.0501971
0.0439543
0.0387758
0.0348838
0.0320976
0.182302
0.20169
0.220375
0.23412
0.240276
0.237695
0.22684
0.209244
0.187241
0.163205
0.139151
0.116647
0.0964559
0.0790615
0.064623
0.0530752
0.0439484
0.0364414
0.0290334
0.272678
0.268885
0.258441
0.241589
0.219563
0.194119
0.167232
0.140696
0.11603
0.0941798
0.0756165
0.0603527
0.0480404
0.0382234
0.0304257
0.024109
0.0186218
0.0130048
0.00576269
0.372314
0.380051
0.378505
0.36687
0.345558
0.316184
0.281116
0.243123
0.204954
0.168745
0.136171
0.108048
0.0845432
0.0653846
0.0500321
0.0376114
0.0270932
0.0172281
0.00656684
0.459236
0.464948
0.458193
0.439285
0.409444
0.371035
0.327018
0.280651
0.234968
0.192243
0.154218
0.121634
0.0945562
0.0725413
0.0548577
0.0404351
0.0281647
0.0169193
0.00576885
0.536153
0.537522
0.524368
0.497937
0.460068
0.413725
0.362313
0.309397
0.25813
0.210767
0.168988
0.133383
0.103877
0.0798598
0.0604614
0.0444934
0.0308227
0.0183808
0.00628739
0.608364
0.60286
0.581948
0.547316
0.501321
0.447497
0.389617
0.33141
0.275985
0.225432
0.181243
0.143782
0.112787
0.087479
0.0668681
0.0496699
0.0347154
0.0209052
0.00726195
0.671848
0.657669
0.628253
0.585146
0.531347
0.470955
0.407978
0.346116
0.288247
0.23615
0.19102
0.152934
0.12142
0.0955323
0.0741773
0.055983
0.0397361
0.0242832
0.00856597
0.705663
0.685155
0.648756
0.599142
0.540211
0.476426
0.411735
0.349528
0.292252
0.241248
0.197355
0.160359
0.129608
0.104032
0.0824778
0.0635199
0.045929
0.0285242
0.0102111
0.746176
0.71771
0.672086
0.614312
0.549264
0.481651
0.415233
0.352939
0.296666
0.247225
0.205031
0.169528
0.139843
0.11475
0.0930191
0.0731415
0.0538599
0.0339602
0.0123149
0.779423
0.738801
0.682847
0.617369
0.547633
0.478161
0.412191
0.351933
0.298577
0.252315
0.213114
0.180075
0.152121
0.127888
0.106089
0.0851386
0.0637704
0.0407524
0.0149396
0.793905
0.740696
0.675439
0.604383
0.532844
0.464689
0.402254
0.346784
0.298648
0.257394
0.222564
0.192953
0.167331
0.144227
0.122335
0.100011
0.0760107
0.0491061
0.0181536
0.790981
0.726082
0.653127
0.5792
0.509122
0.445538
0.389529
0.341226
0.300153
0.265241
0.235695
0.210052
0.18698
0.164937
0.142636
0.118384
0.0909869
0.0592435
0.0220242
0.78237
0.704412
0.625011
0.550773
0.484929
0.428359
0.380665
0.340856
0.307686
0.279557
0.255439
0.233658
0.212825
0.191345
0.167965
0.140943
0.109152
0.0714246
0.0266427
0.759221
0.669027
0.587319
0.517406
0.459923
0.413647
0.376615
0.346851
0.322493
0.301559
0.282926
0.26478
0.245733
0.224166
0.198892
0.168125
0.130823
0.0858623
0.0321177
0.682558
0.592117
0.519096
0.463443
0.422616
0.393126
0.371541
0.3552
0.341914
0.329559
0.317124
0.302802
0.285319
0.263127
0.235185
0.199728
0.155853
0.102506
0.0385043
0.608283
0.523648
0.464895
0.427554
0.405384
0.393022
0.386132
0.381876
0.378068
0.372631
0.364772
0.35273
0.33535
0.31114
0.279185
0.23771
0.185884
0.122614
0.0464085
0.517854
0.448561
0.414139
0.4018
0.401858
0.408124
0.416217
0.423661
0.42859
0.429172
0.424889
0.414127
0.395857
0.368651
0.3317
0.283179
0.2222
0.14743
0.0566496
0.366945
0.341927
0.349567
0.372538
0.400851
0.429323
0.454587
0.475008
0.489341
0.496225
0.495451
0.48574
0.466219
0.435606
0.393187
0.337099
0.266193
0.178589
0.0705775
0.220589
0.259599
0.315339
0.373808
0.428481
0.476599
0.516549
0.54767
0.569457
0.581121
0.582629
0.573181
0.551963
0.517799
0.469901
0.406191
0.324719
0.222267
0.0920727
0.0800853
0.194258
0.300258
0.39361
0.473584
0.54028
0.594146
0.635397
0.664332
0.680857
0.684988
0.676623
0.654932
0.61884
0.567253
0.497604
0.406264
0.287322
0.128315
-0.026017
0.158641
0.309156
0.433088
0.535631
0.619113
0.685944
0.736945
0.773255
0.795632
0.804023
0.799314
0.780606
0.746933
0.69657
0.62599
0.528442
0.3929
0.196598
-0.0768318
0.155707
0.339091
0.48749
0.609436
0.708044
0.787295
0.848366
0.893319
0.92403
0.94042
0.944774
0.936283
0.91429
0.876166
0.81689
0.724507
0.578903
0.339533
-0.0672293
0.181334
0.383782
0.550234
0.688466
0.800752
0.892172
0.964206
1.02005
1.06322
1.09397
1.11669
1.13149
1.13894
1.13586
1.11597
1.06009
0.9337
0.667747
-0.0123533
0.225267
0.435376
0.614599
0.766302
0.890823
0.993979
1.07794
1.14736
1.20845
1.26264
1.31775
1.3774
1.44649
1.52408
1.60712
1.67114
1.66496
1.47893
0.0542699
0.272074
0.48559
0.674999
0.837856
0.972884
1.0864
1.1826
1.26752
1.35251
1.44134
1.54772
1.68717
1.8812
2.15435
2.56592
3.2059
4.26786
6.15208
)
;

boundaryField
{
    up
    {
        type            calculated;
        value           nonuniform List<scalar> 
84
(
-6.15208
-1.47893
-0.667748
-0.339534
-0.196599
-0.128315
-0.0920725
-0.070577
-0.0566489
-0.0464078
-0.0385039
-0.0321176
-0.0266428
-0.0220245
-0.0181539
-0.0149398
-0.0123151
-0.0102112
-0.008566
-0.00726195
-0.00628739
-0.0057688
-0.00656705
-0.00577325
-0.0244732
-0.0295959
-0.0354578
-0.0419809
-0.0500209
-0.0606249
-0.0753601
-0.0961363
-0.122202
-0.249183
-0.154896
-0.00598301
-0.0143915
-0.0101325
-0.0082392
-0.00513111
-0.00372944
-0.00217724
0.00216695
0.00369888
0.00514113
0.00821661
0.0101142
0.0143537
0.00614501
0.152446
0.250616
0.122406
0.0962984
0.0754743
0.0607096
0.0500873
0.0420367
0.0355094
0.02964
0.0245934
0.00576269
0.00656684
0.00576885
0.00628739
0.00726195
0.00856597
0.0102111
0.0123149
0.0149396
0.0181536
0.0220242
0.0266427
0.0321177
0.0385043
0.0464085
0.0566496
0.0705775
0.0920727
0.128315
0.196598
0.339533
0.667747
1.47893
6.15208
)
;
    }
    low
    {
        type            calculated;
        value           nonuniform List<scalar> 
84
(
-0.0488525
0.0206049
0.0804855
0.0911606
0.0349747
-0.0817301
-0.234062
-0.389456
-0.543803
-0.629619
-0.70143
-0.774705
-0.789553
-0.793191
-0.793074
-0.773893
-0.736524
-0.694915
-0.658372
-0.589713
-0.514779
-0.437045
-0.350294
-0.253226
-0.166883
-0.0556767
0.0536928
0.164852
0.268568
0.379325
0.464649
0.542237
0.613546
0.659577
0.685935
0.705099
0.667407
0.583646
0.482369
0.361705
0.227216
0.0871946
-0.0871539
-0.227176
-0.361664
-0.482335
-0.58362
-0.667397
-0.705087
-0.686034
-0.659525
-0.613577
-0.542258
-0.464673
-0.37935
-0.268591
-0.164878
-0.0537151
0.0556255
0.166917
0.253188
0.350312
0.437048
0.514781
0.589714
0.658374
0.694917
0.736525
0.773895
0.793074
0.793192
0.789555
0.774702
0.701432
0.629624
0.543808
0.389459
0.234066
0.0817325
-0.0349734
-0.091161
-0.0804869
-0.0206058
0.0488528
)
;
    }
    left
    {
        type            calculated;
        value           nonuniform List<scalar> 
19
(
-0.0483082
-0.261622
-0.479757
-0.675961
-0.846012
-0.987441
-1.10699
-1.20952
-1.30102
-1.39551
-1.49674
-1.6199
-1.78498
-2.02033
-2.35654
-2.87661
-3.70536
-5.11319
-5.33556
)
;
    }
    right
    {
        type            calculated;
        value           nonuniform List<scalar> 
19
(
0.0483088
0.261623
0.479757
0.67596
0.846011
0.987441
1.10699
1.20952
1.30102
1.39551
1.49674
1.61989
1.78497
2.02032
2.35653
2.87661
3.70535
5.11319
5.33556
)
;
    }
    frontAndBackPlanes
    {
        type            empty;
    }
}


// ************************************************************************* //
