/*--------------------------------*- C++ -*----------------------------------*\
  =========                 |
  \\      /  F ield         | OpenFOAM: The Open Source CFD Toolbox
   \\    /   O peration     | Website:  https://openfoam.org
    \\  /    A nd           | Version:  7
     \\/     M anipulation  |
\*---------------------------------------------------------------------------*/
FoamFile
{
    version     2.0;
    format      ascii;
    class       volScalarField;
    location    "0.14";
    object      gradTz;
}
// * * * * * * * * * * * * * * * * * * * * * * * * * * * * * * * * * * * * * //

dimensions      [0 -1 0 1 0 0 0];

internalField   nonuniform List<scalar> 
1596
(
-1.61344e-16
-7.76885e-17
7.97779e-17
2.49246e-18
-1.49794e-16
0
-6.86173e-17
-6.76771e-17
-5.63269e-18
-3.62672e-17
-2.53631e-19
-3.62959e-17
1.61318e-16
-3.61384e-17
1.68378e-16
1.45682e-16
8.67598e-17
1.09854e-16
0
1.60332e-16
0
2.20617e-16
-2.12266e-18
-6.54874e-17
6.47206e-17
1.36428e-16
5.44341e-18
6.40371e-17
-3.11191e-17
6.22909e-17
-7.32164e-19
-8.67362e-17
-5.45114e-17
-1.36021e-16
-1.33116e-16
-1.2137e-16
6.92874e-17
0
-7.74058e-17
0
-1.41322e-16
3.35182e-18
1.24905e-16
-3.73007e-17
3.96261e-18
-8.45272e-19
-7.57436e-19
-7.34849e-19
2.16583e-17
0
4.4961e-17
1.26659e-16
-1.25574e-17
1.03216e-17
2.41617e-17
3.8462e-17
0
1.23173e-16
-3.52934e-17
3.51645e-17
0
-3.32308e-17
-3.50159e-17
5.60358e-17
-4.62853e-17
0
0
-1.99726e-17
1.13435e-17
0
-3.68022e-17
-4.58621e-17
3.23035e-17
-3.463e-17
-1.77299e-18
0
2.16999e-17
5.47721e-17
-4.69579e-17
0
-1.30771e-17
-4.02964e-17
0
5.84703e-17
-5.67637e-18
-5.14741e-18
-7.50645e-18
2.94731e-17
3.7346e-17
4.11129e-18
3.13913e-18
-3.49122e-17
1.74264e-18
1.62856e-17
-7.18092e-18
-5.63511e-18
-7.48477e-17
6.85073e-17
-5.68167e-17
-1.72337e-19
-4.64253e-17
1.28137e-18
-1.28563e-18
-3.42406e-17
0
-6.23188e-18
-3.5072e-17
-3.36543e-17
2.62194e-17
2.99184e-17
-4.01398e-19
-1.79845e-17
-1.65182e-17
1.27685e-17
4.70936e-17
-7.5813e-17
8.08385e-17
4.34042e-17
0
3.59556e-17
1.99466e-17
-9.44388e-18
4.31515e-17
-7.87822e-18
-3.44983e-17
2.47919e-19
-1.95819e-17
-2.63239e-17
-1.968e-17
1.74066e-17
1.81428e-17
-2.46481e-19
-5.24704e-18
6.37531e-18
1.21388e-16
-1.35287e-16
0
0
-4.22417e-17
0
0
0
2.48969e-17
0
0
1.82021e-17
5.10974e-19
6.4516e-18
-1.53573e-17
0
8.16918e-18
3.37424e-18
0
-7.65689e-17
1.45463e-16
0
0
4.35031e-17
0
-1.45461e-17
1.45314e-17
-2.53414e-17
1.00508e-17
-1.01243e-17
0
1.4466e-17
1.60234e-17
0
-9.19848e-18
-8.33923e-18
-2.97512e-18
1.96978e-16
-9.0471e-17
0
-5.52481e-17
5.46298e-17
0
3.45094e-17
0
0
0
8.66741e-18
-8.70896e-18
0
-1.12858e-17
-3.08356e-18
0
1.78172e-18
5.00386e-18
0
-5.00353e-17
0
0
5.55572e-17
-1.00717e-16
7.61234e-18
2.98523e-18
-1.28319e-17
2.1162e-18
8.41876e-19
-8.91294e-18
-1.31805e-17
0
9.72845e-18
-2.10938e-18
2.14104e-18
6.37921e-18
-3.9991e-18
-1.74528e-18
3.81613e-17
-6.0892e-18
3.68147e-17
1.17715e-16
-9.25124e-18
-4.55933e-17
0
0
0
1.85132e-17
6.7329e-18
2.35424e-17
-5.63561e-18
-9.55442e-18
-5.13846e-18
-3.07133e-18
1.39499e-18
-3.12214e-18
1.64241e-18
-4.43998e-17
4.36481e-17
-7.87179e-17
-1.16451e-16
1.0476e-16
3.68383e-17
-6.57981e-17
5.26707e-17
-4.20254e-17
1.10882e-17
7.43848e-18
-6.46696e-18
3.42535e-18
-3.29467e-18
9.96009e-18
0
-7.79576e-19
5.95581e-18
-8.98032e-19
-2.9843e-16
1.33827e-16
9.81337e-20
-2.48683e-17
4.92259e-18
3.57987e-17
-6.66607e-17
-2.47479e-17
1.93527e-17
-1.50211e-17
-1.17224e-17
0
-1.1859e-17
-3.41705e-18
-5.6518e-18
-3.3102e-18
2.57529e-19
-3.34264e-18
1.80823e-19
4.87656e-17
-4.18285e-17
3.49164e-20
-2.92175e-17
-6.71515e-17
6.18719e-17
3.44919e-19
2.41168e-17
-1.88424e-17
2.86198e-17
6.49406e-18
4.87566e-18
1.32984e-17
0
9.9742e-18
4.52864e-18
0
1.69329e-18
1.35233e-19
0
4.05785e-17
2.88589e-17
-6.18326e-17
6.49167e-17
-9.31056e-17
6.21458e-17
2.01767e-17
-4.49633e-18
-2.88242e-17
4.44007e-18
-4.41816e-18
-1.1642e-17
4.17249e-18
-2.17502e-18
-4.26067e-18
1.6869e-18
-1.06341e-18
4.97649e-19
-4.53686e-17
1.44889e-16
-1.0884e-16
5.40689e-17
0
0
-1.09466e-17
2.42887e-17
-1.43237e-17
2.61051e-17
0
0
7.55308e-18
-6.23453e-18
-3.86691e-18
1.22641e-18
-1.32839e-18
7.22343e-19
0
5.31546e-18
4.24561e-17
-3.13345e-17
-2.61095e-17
-3.78236e-17
-9.07729e-18
1.62707e-17
0
-1.32128e-17
-9.38507e-18
8.04653e-18
-5.86156e-18
4.25002e-18
0
1.53577e-18
2.60198e-18
0
0
0
-5.1578e-18
6.16342e-17
2.01738e-17
-7.93333e-17
1.98873e-17
1.59723e-17
0
0
1.21905e-17
-6.47847e-18
-7.78274e-18
5.6692e-18
-4.11009e-18
0
-8.48202e-19
6.27367e-19
0
-5.24994e-19
-1.86899e-19
-3.47802e-17
1.02131e-16
-1.19128e-16
-4.26516e-17
2.30161e-17
-1.47044e-17
1.12638e-17
0
-6.24149e-18
4.80251e-18
0
0
1.44065e-18
-1.44231e-18
3.52078e-19
-5.44777e-19
7.06632e-19
1.29086e-19
1.41676e-19
1.86996e-17
-1.60868e-17
7.64082e-17
-4.87523e-17
-1.75906e-17
3.15903e-18
2.39603e-17
7.76253e-18
5.97217e-18
0
2.53833e-18
-2.3116e-18
1.62764e-18
-1.23317e-18
1.2885e-18
-2.0867e-18
-5.47172e-19
4.63889e-19
1.14004e-19
4.85276e-17
-4.99792e-17
0
3.7708e-17
-2.05341e-17
-1.30757e-17
7.16497e-18
-2.44192e-17
0
-4.34493e-19
-3.18694e-18
-1.9206e-18
2.37071e-18
-2.59288e-19
-1.24531e-18
8.3641e-19
0
2.50787e-19
-1.10697e-19
8.68532e-17
-1.43884e-17
5.60834e-17
-4.36262e-17
2.00264e-17
-3.74818e-19
-2.10912e-17
-5.73675e-18
9.78751e-18
-5.76364e-19
-4.16803e-18
3.26088e-18
-1.31839e-18
-1.41331e-18
0
0
0
-2.52761e-19
9.00043e-21
-7.46703e-17
7.20066e-17
4.75291e-20
9.39139e-18
7.42032e-18
-1.56626e-17
1.72012e-17
-1.25525e-17
9.63311e-18
-2.52433e-18
4.67343e-18
1.36478e-18
-5.25006e-19
2.58039e-20
-1.25211e-19
-2.2385e-19
0
0
0
0
0
3.10352e-17
-1.78737e-17
-4.36584e-17
0
0
-3.62949e-18
-5.09088e-18
3.7599e-18
0
-1.72124e-18
1.16163e-18
-3.28425e-18
3.64806e-18
-9.97597e-19
1.05428e-18
1.05652e-19
0
-1.4437e-17
1.46147e-17
0
-1.00909e-17
1.00694e-17
1.48081e-17
0
3.66415e-18
3.65393e-18
-1.7537e-17
0
-2.02331e-18
1.37983e-18
8.30567e-19
-5.47791e-19
7.3988e-19
0
-2.36178e-19
0
-7.4345e-18
-7.05269e-18
4.16538e-19
1.03682e-17
-2.57007e-17
0
-5.49047e-18
0
1.21588e-17
4.23526e-18
0
8.00777e-18
-7.63953e-18
9.37876e-19
-1.11809e-18
5.26784e-19
1.43545e-18
4.75835e-19
-3.77551e-19
0
1.50212e-17
-1.20911e-17
1.48127e-17
1.5983e-17
0
1.0972e-17
-9.95529e-18
-6.61986e-18
8.49939e-18
-1.26014e-17
-5.14944e-18
0
0
7.53205e-19
0
0
1.7605e-19
0
-6.82662e-17
5.27657e-17
0
1.13328e-18
-9.06788e-18
-4.61129e-19
7.19361e-18
4.20207e-18
-5.94149e-18
-1.1891e-17
1.64414e-17
-4.57784e-18
0
-1.59958e-18
0
0
0
-6.8832e-19
5.52408e-19
-1.97065e-17
1.77161e-17
4.43008e-17
-4.23935e-17
1.22953e-17
9.4719e-19
-7.29067e-18
5.71397e-18
8.77949e-18
5.91958e-18
-1.15747e-17
0
4.43841e-18
9.26028e-20
-1.83091e-18
-3.36186e-18
2.69776e-18
-3.46034e-19
6.9717e-19
-6.8141e-17
9.07584e-17
-8.91109e-17
1.46218e-17
1.14076e-17
-1.04827e-17
8.43921e-18
-5.95348e-18
0
-4.29782e-18
5.90486e-18
2.51816e-18
3.73093e-18
3.93397e-18
-5.71742e-18
-2.3036e-19
0
-3.07889e-19
1.05613e-19
-7.36592e-17
-2.06813e-17
-3.3952e-17
1.85613e-17
-2.71392e-17
2.19358e-17
-1.26292e-17
9.63413e-18
-9.81087e-19
-9.45184e-19
-6.63386e-18
4.15435e-18
-1.63736e-18
5.28292e-18
-5.67127e-18
4.68814e-19
5.27178e-19
0
-1.92412e-19
7.96417e-17
-2.24247e-17
0
0
-2.78571e-17
5.3057e-17
-1.18474e-17
-1.99926e-18
1.55743e-17
-4.53378e-19
0
0
-2.6708e-18
0
-5.19483e-18
1.19961e-17
-8.11514e-18
0
8.3767e-20
2.67205e-17
4.83049e-17
0
-1.91056e-17
-1.41972e-17
-1.14686e-17
-1.24304e-17
4.67286e-18
-1.25836e-17
-6.25712e-18
0
0
4.207e-18
0
0
-7.49171e-18
1.2486e-17
0
0
1.835e-16
-2.42398e-17
-1.05818e-16
-5.32269e-17
7.25862e-17
2.15354e-17
1.20528e-17
0
-3.96204e-18
3.52956e-18
8.86614e-18
-2.77254e-18
-3.69167e-18
5.60111e-18
-5.95786e-18
-1.64265e-18
0
0
0
1.46941e-17
-1.11218e-16
1.08636e-16
-9.93095e-18
-7.25198e-17
1.11099e-16
-5.45259e-17
0
0
2.44965e-17
-1.97263e-17
0
-5.28652e-18
9.36441e-18
-9.3264e-19
2.60856e-18
7.67299e-19
1.07837e-20
1.60185e-19
0
0
0
8.60726e-17
-5.797e-17
5.61922e-17
-8.6549e-17
2.39819e-17
0
-7.79882e-18
1.18301e-17
-1.20911e-17
-2.20411e-18
5.04149e-20
-1.42622e-18
-1.81354e-19
-1.13836e-18
-3.26743e-19
-1.74437e-19
1.21751e-16
-2.14169e-16
1.00064e-16
0
2.43527e-17
-3.3338e-17
3.1166e-17
-2.46672e-17
0
-1.0786e-17
1.51402e-17
0
0
4.78332e-20
0
-1.57937e-18
1.06978e-18
1.70911e-19
2.81926e-19
1.21146e-16
0
-4.45955e-17
4.97387e-17
-2.92955e-17
6.32072e-17
-2.93559e-17
-2.14763e-17
2.17006e-17
-2.1165e-18
0
0
1.25751e-18
-2.02253e-18
-1.41245e-18
2.65504e-18
-5.73605e-19
2.83434e-19
0
6.86858e-17
5.12412e-17
-3.02906e-18
-4.75958e-17
-4.589e-18
-3.17202e-17
4.25743e-18
2.57972e-17
-1.27674e-18
2.15624e-18
0
0
-1.28824e-18
0
1.48024e-18
-1.5835e-18
0
2.01004e-19
-5.52231e-20
-3.64366e-17
-2.57422e-17
2.41286e-17
-2.64773e-18
-1.15615e-18
3.02507e-18
0
-7.53944e-19
1.08159e-17
-9.1062e-18
0
2.8684e-18
-6.05466e-19
-2.48797e-18
-2.23941e-19
-1.73154e-19
0
-1.57574e-19
0
1.45847e-17
-2.74273e-17
-3.96446e-20
1.13458e-17
9.83038e-18
-9.73384e-18
-6.51469e-18
7.36047e-18
-2.39104e-18
1.88026e-18
-1.73079e-18
1.78417e-18
0
4.35884e-21
-1.65394e-19
5.92112e-19
-2.01238e-21
0
0
1.45852e-17
-1.45306e-17
-1.12858e-17
1.00182e-17
1.73391e-17
-1.74415e-17
-3.25749e-18
3.2656e-18
-2.41155e-18
2.43673e-18
-1.73088e-18
3.23663e-18
-9.07947e-19
-6.35633e-19
-1.90627e-19
6.41911e-20
1.49816e-19
3.93903e-20
-2.95195e-20
0
-3.41637e-18
1.96027e-17
-2.1306e-17
1.72734e-17
-1.53494e-17
0
1.11347e-17
-9.98662e-18
0
3.42368e-18
-4.31961e-18
-2.3743e-18
2.48842e-18
4.44367e-19
0
0
-1.57621e-19
5.7143e-20
5.79896e-17
-1.05559e-16
1.04961e-16
-8.96297e-17
3.47989e-17
-2.77333e-17
2.64022e-17
2.96592e-18
-1.06426e-17
9.48848e-18
0
-6.36323e-18
5.80748e-18
-1.05915e-18
-4.35257e-19
6.61844e-19
4.82761e-19
1.5302e-19
-5.52132e-20
1.36406e-16
0
-5.05396e-17
3.93258e-17
4.53637e-18
-3.32218e-17
5.78937e-17
-4.97058e-17
1.92301e-17
-7.69522e-18
7.87673e-18
1.51062e-18
2.47172e-18
1.03162e-18
-8.16407e-19
-1.19421e-19
-1.03952e-18
0
1.01588e-19
1.06695e-16
-1.20109e-16
0
1.02793e-17
4.22429e-17
-4.1078e-17
6.62711e-18
5.65473e-18
2.42243e-18
4.03907e-18
0
0
-4.27082e-18
7.77736e-18
-2.80229e-18
-9.77662e-19
1.07038e-18
8.42716e-20
-1.91366e-19
1.28996e-17
1.05591e-16
-1.16508e-17
-7.59286e-17
6.67941e-17
7.5798e-18
-6.48583e-18
-5.52299e-18
1.70392e-17
-2.11016e-17
1.18361e-17
-1.2097e-17
1.70644e-18
-2.33309e-18
3.9029e-18
-2.62145e-18
0
0
1.71699e-19
0
2.60267e-17
-7.43767e-17
8.52256e-17
-6.39773e-17
6.38249e-17
0
1.94887e-17
-1.9578e-17
-1.35037e-17
1.97457e-17
0
7.40732e-18
-9.37428e-18
-1.35934e-18
0
-1.40557e-19
-2.52741e-19
-2.02923e-20
-2.5421e-16
1.19315e-16
0
-7.25793e-17
7.25721e-17
4.09707e-17
-2.68167e-17
1.00996e-17
0
-4.08672e-19
2.6195e-18
-2.76976e-18
-3.6884e-18
5.59575e-18
-5.95014e-18
0
1.11773e-18
-1.87069e-19
-1.5795e-19
1.54773e-16
-1.50685e-16
0
1.88944e-17
1.63869e-17
-1.44998e-17
0
-1.05844e-17
-8.29816e-18
0
-6.72868e-19
0
4.21066e-18
0
0
1.50071e-18
5.48679e-18
-7.20066e-18
0
5.15606e-21
2.24362e-17
-1.98299e-17
1.4682e-17
-7.53531e-17
2.8018e-17
0
2.00122e-18
5.57478e-18
0
-5.08203e-18
1.30153e-17
-1.36734e-17
1.99378e-18
0
-3.6172e-19
0
0
0
9.42734e-21
0
1.83278e-17
0
-2.47941e-17
2.51882e-17
0
7.4783e-18
-5.47314e-18
1.88499e-17
-8.87679e-18
2.74363e-18
-4.07572e-18
3.48541e-18
-5.68211e-18
-8.64937e-19
0
-4.17458e-19
0
5.92359e-17
-1.0042e-16
0
-1.44961e-17
1.22214e-17
0
0
-1.3429e-17
0
-4.30251e-18
-5.91194e-18
-2.52165e-18
3.73678e-18
0
1.51659e-18
0
0
8.72396e-19
-9.16472e-19
0
8.39467e-17
-6.68797e-17
1.34201e-17
-1.13171e-17
-4.13529e-18
1.14976e-17
1.17569e-17
-1.27364e-17
4.04336e-18
5.72562e-19
-2.77452e-18
1.10365e-17
-3.37293e-18
-6.61357e-18
2.13382e-18
-4.53645e-19
2.77656e-19
-7.0726e-20
-1.44053e-16
5.27858e-17
0
0
4.57693e-18
-4.65423e-18
2.65018e-18
1.24124e-18
1.11231e-17
4.9804e-18
-4.70123e-18
-3.73311e-19
-2.02865e-18
1.60207e-18
0
5.91548e-19
4.15799e-19
1.9091e-19
6.39263e-20
0
4.40929e-17
-3.93934e-17
1.22739e-17
1.12823e-17
-2.12011e-18
-6.03327e-18
-4.67241e-18
-1.37051e-17
4.83143e-18
-2.26227e-18
3.5824e-18
1.89704e-18
-1.94443e-18
2.06389e-18
1.03589e-18
-1.42274e-18
-1.76334e-19
0
-8.32429e-18
-3.54108e-17
1.19589e-17
1.03714e-17
-3.25802e-17
2.24588e-17
9.37475e-18
-9.58243e-18
6.28411e-18
-4.58527e-18
0
0
-2.45367e-18
4.20326e-18
-1.73009e-18
1.3317e-18
-1.46778e-18
2.13598e-19
-3.78111e-19
1.53509e-17
1.37472e-17
-1.17979e-17
7.95259e-18
-1.00546e-17
-1.29831e-17
0
0
0
0
0
0
1.2464e-18
-2.82412e-18
2.98681e-18
-7.95189e-19
9.92711e-19
4.18199e-19
-3.50592e-19
3.23062e-17
-5.04239e-17
6.274e-17
-2.54124e-17
3.56252e-17
-2.15977e-17
3.85127e-17
-2.02208e-17
-8.6386e-18
8.83689e-18
0
1.72033e-18
-1.21767e-18
2.47455e-18
-1.00535e-18
-1.0357e-18
-1.81288e-18
1.48317e-19
2.92513e-19
5.05542e-17
1.36108e-17
0
-1.8734e-17
-1.3075e-17
2.86435e-17
1.73206e-18
-9.43822e-18
5.23614e-18
-3.11653e-18
0
-1.36184e-18
0
-8.65507e-19
6.49346e-19
-5.23425e-19
-1.65725e-19
1.04558e-19
0
7.02256e-17
-1.43881e-17
5.60896e-17
-4.36681e-17
-7.8661e-18
2.73602e-17
-1.63484e-17
1.07895e-18
7.87017e-19
-3.06953e-18
2.8355e-18
0
0
1.12326e-18
-3.2111e-19
1.82647e-19
5.98605e-19
-2.06713e-19
0
1.28201e-20
0
-1.27468e-17
6.90755e-17
-4.57405e-17
-4.23199e-17
2.2908e-17
-1.96967e-17
1.76307e-17
7.51146e-18
-4.9777e-18
1.83439e-18
-1.53345e-18
3.28608e-19
1.9571e-18
9.33723e-21
-5.97508e-19
5.7928e-19
-1.22654e-19
1.67849e-16
-5.28389e-17
2.23879e-17
-7.08152e-17
1.75905e-17
-2.48394e-17
1.38475e-17
0
0
-4.65011e-19
-7.1303e-19
-2.05492e-19
0
-1.88647e-18
-1.28854e-18
8.64288e-19
-6.05595e-20
1.37313e-19
2.55729e-19
0
-5.1112e-17
8.09545e-17
1.4588e-17
-6.09627e-17
1.47043e-17
-2.01426e-17
4.83974e-18
1.49383e-17
0
0
2.45802e-19
2.0419e-18
0
-1.45087e-18
-5.92598e-19
9.03064e-20
-2.61343e-19
-3.26891e-19
0
-3.07835e-17
9.90326e-18
5.45896e-17
3.58173e-17
-6.38373e-17
2.78638e-17
-1.63966e-17
9.07767e-18
-1.0579e-17
0
0
0
-2.97046e-18
5.69272e-19
-8.52377e-19
0
-4.81543e-20
2.35902e-19
-1.249e-16
1.16942e-16
1.15189e-16
-1.39017e-16
5.86423e-17
-5.41008e-17
0
1.75916e-17
-2.32271e-17
1.24885e-17
-8.58012e-18
6.34528e-18
4.68142e-18
3.07211e-18
2.22377e-18
0
0
0
0
1.4139e-16
-7.78332e-17
0
0
-2.20903e-17
4.90969e-17
-3.11294e-17
-1.88922e-17
1.86792e-17
1.19504e-17
1.83607e-17
-6.58384e-18
2.69658e-18
1.80586e-18
1.22013e-18
1.03539e-18
1.62354e-18
-7.7359e-20
7.87971e-20
-1.41834e-16
1.27376e-16
6.29925e-17
-3.34905e-17
6.47983e-17
-4.12081e-17
-2.93587e-17
-2.29334e-17
0
-2.5265e-17
1.83016e-18
7.94903e-18
-5.5416e-18
-4.17256e-18
-1.47284e-18
-1.41017e-18
-1.13584e-18
0
0
-4.87928e-17
0
3.5147e-17
5.25721e-23
0
0
3.02844e-17
2.3664e-17
0
1.40072e-17
0
-1.20011e-17
-3.20965e-18
5.52808e-18
0
3.44449e-18
-4.72623e-19
4.82139e-19
0
1.05441e-16
0
6.61907e-17
-1.19951e-16
1.02597e-16
7.54189e-17
-3.54823e-18
0
2.38234e-18
1.73689e-17
0
-1.42637e-17
1.48892e-17
-1.29519e-17
-2.76036e-18
-2.72201e-18
-8.6249e-19
-1.66518e-19
-6.91395e-19
-9.50998e-17
1.3618e-16
-3.65699e-17
-9.11178e-17
-4.99333e-17
-4.0546e-17
-6.52698e-17
-2.35165e-17
2.83007e-18
7.45249e-18
-7.43849e-18
2.16293e-17
-9.41314e-18
1.79374e-17
-3.33559e-18
0
4.24811e-18
-2.65171e-18
6.75115e-19
2.16845e-16
-6.08779e-18
-1.52562e-16
1.17716e-16
-1.01483e-16
8.32322e-17
-3.79216e-18
-2.75743e-17
2.25543e-17
8.13764e-18
-1.40262e-18
-1.83577e-17
4.92416e-18
6.22186e-18
-1.6905e-18
1.70978e-18
-4.40001e-18
-9.023e-19
-1.35042e-18
1.06452e-16
4.28527e-17
7.22892e-17
-6.03268e-17
-4.5903e-17
3.80423e-18
-3.11251e-17
7.43438e-17
3.45924e-18
3.07778e-17
1.73309e-17
-1.50374e-17
0
-9.72847e-18
0
0
7.67447e-18
3.19972e-18
1.55469e-18
9.82582e-17
0
7.09829e-17
5.99375e-17
-5.03629e-17
4.16059e-17
0
-2.87343e-17
-3.85111e-17
-3.18289e-17
-1.74842e-17
1.52074e-17
0
0
0
0
-7.21696e-18
-6.26208e-18
0
-1.9242e-16
0
-5.15117e-18
-4.61654e-18
7.74021e-17
-4.01462e-17
-1.77405e-17
-1.79262e-17
3.99415e-17
0
1.00508e-17
-1.0288e-18
1.00433e-17
0
0
1.39702e-17
-1.06028e-18
7.53343e-18
-3.29449e-18
1.34339e-16
3.67405e-17
-3.63613e-17
-3.05779e-17
-9.9285e-17
6.54498e-17
7.55933e-17
-3.18463e-18
-2.79523e-17
2.86782e-17
5.82544e-18
-3.06738e-17
-2.40717e-17
-1.64878e-17
-1.77807e-17
-1.61483e-17
1.51223e-17
-6.99869e-19
3.37425e-18
-4.06751e-17
1.7798e-17
-8.44773e-17
1.35007e-17
-1.34516e-17
0
-3.8043e-17
-4.26726e-18
-3.53054e-17
4.85484e-18
3.44981e-17
2.41032e-17
-6.27443e-18
8.61079e-19
1.67996e-17
0
-3.26218e-17
-1.27352e-17
-2.6063e-19
8.45909e-17
-2.17901e-18
1.32988e-16
-6.14933e-17
1.72337e-19
1.54192e-18
4.55293e-17
-5.45137e-18
3.42405e-17
-3.19577e-17
-3.0251e-17
0
3.3654e-17
2.57952e-17
3.87642e-19
-5.68334e-19
1.81601e-17
1.29409e-17
0
-5.97366e-17
0
-1.23953e-17
5.91038e-17
1.1614e-18
1.30946e-17
-4.40261e-17
4.10831e-17
4.57772e-17
4.41039e-17
4.28673e-17
0
-3.26943e-17
0
1.89571e-18
-1.96887e-18
0
-1.99892e-19
1.00408e-17
4.24795e-17
3.09121e-18
-3.04742e-17
9.54809e-17
-3.01741e-17
0
0
-5.40893e-17
-4.43535e-17
-4.27269e-17
-8.06586e-17
-1.13434e-17
0
0
0
-4.09966e-18
4.33847e-18
2.85294e-17
-1.01976e-17
3.25209e-18
0
-6.85767e-17
-6.04604e-17
6.4812e-17
-6.45852e-17
-9.15524e-17
1.09411e-16
3.22132e-17
0
4.87485e-17
5.82281e-17
-1.25647e-17
6.93602e-17
-1.14414e-17
1.19077e-17
4.71895e-17
-2.71121e-17
0
-8.07396e-17
0
-7.62388e-17
7.42812e-17
0
1.29627e-16
6.00592e-17
-1.28886e-16
1.05617e-16
-5.20111e-19
-3.14378e-17
-5.63767e-17
0
8.18896e-17
-1.36021e-16
1.46402e-16
-1.86677e-16
0
0
8.0637e-17
-7.63709e-19
-1.86767e-18
-1.51319e-16
1.53715e-16
-7.36414e-17
7.33412e-17
7.2316e-17
-6.17468e-17
0
0
1.22632e-16
-1.24745e-16
-1.31604e-16
1.30985e-16
-1.28006e-16
1.38778e-16
-2.17715e-16
0
)
;

boundaryField
{
    up
    {
        type            calculated;
        value           nonuniform List<scalar> 
84
(
0
0
0
0
-7.18092e-18
1.27685e-17
-5.24704e-18
3.37424e-18
-2.97512e-18
0
-1.74528e-18
1.64241e-18
-8.98032e-19
1.80823e-19
1.35233e-19
4.97649e-19
0
0
-1.86899e-19
1.41676e-19
1.14004e-19
-1.10697e-19
9.00043e-21
0
4.20829e-20
2.47404e-20
-3.49925e-19
0
5.52408e-19
7.55124e-19
1.05613e-19
-1.92412e-19
8.3767e-20
0
-3.52751e-20
1.62865e-19
-1.72379e-19
2.80175e-19
0
-5.48032e-20
0
0
-2.94876e-20
5.7143e-20
-5.52132e-20
1.01588e-19
-1.91366e-19
1.71699e-19
-2.02923e-20
-1.5795e-19
0
0
0
-9.16472e-19
-1.28819e-19
6.39263e-20
0
-3.78111e-19
-3.50592e-19
2.5054e-19
0
0
-1.22654e-19
2.55729e-19
-3.26891e-19
2.35902e-19
0
7.87971e-20
0
0
-6.91395e-19
6.75115e-19
-1.35042e-18
1.55469e-18
0
-3.29449e-18
3.37425e-18
-2.6063e-19
0
1.00408e-17
-1.01976e-17
0
0
0
)
;
    }
    low
    {
        type            calculated;
        value           nonuniform List<scalar> 
84
(
-1.61514e-16
1.60332e-16
-7.70959e-17
1.2342e-16
2.18643e-17
-5.68279e-18
4.74868e-17
6.74534e-18
0
1.97406e-16
-5.00353e-17
3.79074e-17
-4.43998e-17
-2.98481e-16
4.87656e-17
0
-4.53686e-17
5.31546e-18
-5.1578e-18
-3.47802e-17
1.86996e-17
4.85276e-17
8.64429e-17
-7.46703e-17
0
-1.4437e-17
-7.4345e-18
0
-6.82662e-17
-1.97065e-17
-6.7898e-17
-7.34839e-17
7.95445e-17
2.67205e-17
1.83563e-16
1.46941e-17
0
1.21751e-16
1.215e-16
6.88739e-17
-3.65352e-17
1.45847e-17
1.45852e-17
0
5.79896e-17
1.3676e-16
1.06695e-16
1.31657e-17
0
-2.54273e-16
1.54773e-16
5.15606e-21
9.42734e-21
5.92359e-17
0
-1.43614e-16
0
-8.32429e-18
1.53509e-17
3.20388e-17
5.00994e-17
6.98153e-17
1.28201e-20
1.67539e-16
0
0
-1.249e-16
1.41284e-16
-1.41783e-16
-4.87928e-17
1.05492e-16
-9.50998e-17
2.17353e-16
1.06791e-16
9.82582e-17
-1.9242e-16
1.33969e-16
-4.0282e-17
8.45909e-17
-5.95721e-17
4.24795e-17
3.56204e-18
-8.07396e-17
8.07217e-17
)
;
    }
    left
    {
        type            calculated;
        value           nonuniform List<scalar> 
19
(
-1.61344e-16
-7.77694e-17
7.97779e-17
2.50712e-18
-1.49867e-16
0
-6.86173e-17
-6.76771e-17
-5.90013e-18
-3.62672e-17
-2.53631e-19
-3.62959e-17
1.62903e-16
-3.61384e-17
1.68378e-16
1.45682e-16
8.67598e-17
1.27539e-16
0
)
;
    }
    right
    {
        type            calculated;
        value           nonuniform List<scalar> 
19
(
8.0637e-17
-6.82769e-19
-1.86767e-18
-1.51334e-16
1.53788e-16
-7.36414e-17
7.33412e-17
7.2316e-17
-6.14794e-17
0
0
1.23778e-16
-1.26331e-16
-1.31604e-16
1.30985e-16
-1.28006e-16
1.38778e-16
-2.35401e-16
0
)
;
    }
    frontAndBackPlanes
    {
        type            empty;
    }
}


// ************************************************************************* //
