/*--------------------------------*- C++ -*----------------------------------*\
  =========                 |
  \\      /  F ield         | OpenFOAM: The Open Source CFD Toolbox
   \\    /   O peration     | Website:  https://openfoam.org
    \\  /    A nd           | Version:  7
     \\/     M anipulation  |
\*---------------------------------------------------------------------------*/
FoamFile
{
    version     2.0;
    format      ascii;
    class       volScalarField;
    location    "0.14";
    object      gradTy;
}
// * * * * * * * * * * * * * * * * * * * * * * * * * * * * * * * * * * * * * //

dimensions      [0 -1 0 1 0 0 0];

internalField   nonuniform List<scalar> 
1596
(
-0.129841
-0.23966
-0.326671
-0.406141
-0.477168
-0.549477
-0.61774
-0.692662
-0.777437
-0.874146
-1.00962
-1.18229
-1.42744
-1.78505
-2.35363
-3.25221
-4.87165
-7.86908
-18.5877
-0.393485
-0.480634
-0.533503
-0.575999
-0.610944
-0.650111
-0.68978
-0.740376
-0.805508
-0.885405
-1.00317
-1.15514
-1.36531
-1.65177
-2.06555
-2.63083
-3.47867
-4.72877
-8.27722
-0.698605
-0.721311
-0.72493
-0.725483
-0.723343
-0.729201
-0.739496
-0.763737
-0.804917
-0.862026
-0.954509
-1.07662
-1.2453
-1.46875
-1.77834
-2.17629
-2.73427
-3.50114
-5.14157
-1.01095
-0.950163
-0.898042
-0.8551
-0.816453
-0.789791
-0.77114
-0.768529
-0.784163
-0.81623
-0.880862
-0.971292
-1.09974
-1.26938
-1.50058
-1.78706
-2.1715
-2.67243
-3.52544
-1.28964
-1.15393
-1.05019
-0.966678
-0.894217
-0.837128
-0.791143
-0.762587
-0.753016
-0.760222
-0.797409
-0.857763
-0.950245
-1.07561
-1.24785
-1.45802
-1.73358
-2.07959
-2.58164
-1.50095
-1.32085
-1.1791
-1.06232
-0.960894
-0.876795
-0.806092
-0.753556
-0.720358
-0.704262
-0.715888
-0.74902
-0.81026
-0.899251
-1.02603
-1.18156
-1.38459
-1.63433
-1.96282
-1.6301
-1.44278
-1.28221
-1.14294
-1.01927
-0.912779
-0.82078
-0.746973
-0.692475
-0.655333
-0.643934
-0.653003
-0.687343
-0.746126
-0.836733
-0.951043
-1.10239
-1.28776
-1.51932
-1.68194
-1.51602
-1.35603
-1.20675
-1.06901
-0.945813
-0.836695
-0.744953
-0.672025
-0.616516
-0.584959
-0.573158
-0.584508
-0.618007
-0.6791
-0.760906
-0.87312
-1.01221
-1.18262
-1.67489
-1.54966
-1.40558
-1.25747
-1.1133
-0.978839
-0.85648
-0.749881
-0.661159
-0.589708
-0.540644
-0.510843
-0.5026
-0.514864
-0.551556
-0.607009
-0.688253
-0.791939
-0.919389
-1.6234
-1.53936
-1.42028
-1.28338
-1.14116
-1.00228
-0.871991
-0.754938
-0.654189
-0.570096
-0.506833
-0.462266
-0.437891
-0.432667
-0.449321
-0.483271
-0.539566
-0.615355
-0.710716
-1.5664
-1.5096
-1.414
-1.292
-1.15663
-1.01811
-0.883962
-0.760017
-0.650407
-0.556526
-0.482014
-0.425622
-0.388291
-0.369011
-0.369539
-0.386158
-0.422351
-0.475759
-0.545964
-1.50166
-1.47176
-1.39755
-1.29088
-1.16439
-1.02897
-0.893651
-0.765357
-0.649275
-0.547818
-0.464437
-0.398635
-0.351004
-0.320568
-0.308303
-0.311137
-0.331302
-0.366837
-0.417122
-1.42549
-1.41891
-1.36466
-1.27357
-1.15764
-1.02797
-0.894396
-0.764762
-0.645127
-0.538811
-0.449323
-0.376782
-0.321609
-0.282871
-0.260953
-0.253254
-0.261052
-0.282691
-0.317482
-1.36118
-1.36638
-1.32663
-1.24858
-1.14244
-1.01903
-0.888413
-0.759117
-0.637851
-0.528661
-0.435234
-0.358156
-0.297777
-0.2532
-0.224359
-0.208965
-0.20756
-0.218688
-0.241627
-1.3042
-1.3184
-1.28873
-1.22051
-1.12234
-1.00453
-0.877067
-0.748907
-0.627223
-0.516596
-0.420913
-0.341086
-0.277437
-0.229079
-0.195597
-0.174891
-0.166946
-0.170421
-0.184574
-1.24975
-1.27318
-1.25157
-1.1907
-1.09859
-0.985282
-0.860655
-0.73395
-0.612649
-0.501697
-0.405144
-0.324087
-0.25882
-0.208426
-0.172215
-0.14818
-0.135894
-0.13407
-0.141955
-1.20194
-1.23175
-1.21628
-1.16069
-1.07273
-0.962528
-0.839979
-0.714598
-0.59408
-0.483588
-0.387251
-0.306222
-0.24072
-0.189751
-0.152384
-0.126637
-0.111771
-0.10652
-0.110121
-1.1614
-1.19594
-1.18499
-1.13289
-1.04729
-0.938602
-0.817013
-0.692363
-0.572558
-0.462887
-0.367455
-0.287358
-0.222666
-0.172247
-0.134936
-0.108722
-0.092619
-0.0853594
-0.0861668
-1.11994
-1.16489
-1.15949
-1.11025
-1.02572
-0.91702
-0.795019
-0.670061
-0.550356
-0.441314
-0.346942
-0.268193
-0.204908
-0.155753
-0.119307
-0.0934818
-0.0770812
-0.0688139
-0.0678888
-1.07557
-1.13363
-1.13571
-1.08985
-1.006
-0.896479
-0.773185
-0.647208
-0.527188
-0.41868
-0.325548
-0.248531
-0.187171
-0.139866
-0.104921
-0.0801293
-0.0641135
-0.0555518
-0.0536423
-1.03759
-1.10575
-1.11541
-1.07309
-0.989577
-0.878463
-0.752974
-0.625166
-0.504254
-0.395989
-0.304059
-0.228936
-0.169791
-0.1247
-0.0916629
-0.0683203
-0.0531205
-0.0447117
-0.0422985
-1.00316
-1.08156
-1.09883
-1.06025
-0.976982
-0.863828
-0.735487
-0.605155
-0.48277
-0.374356
-0.283422
-0.210149
-0.153289
-0.11056
-0.0796267
-0.0579427
-0.0437678
-0.0357102
-0.0330315
-0.969873
-1.05993
-1.08543
-1.05098
-0.968145
-0.852849
-0.721322
-0.588013
-0.463696
-0.354746
-0.264514
-0.192896
-0.138211
-0.0978063
-0.0690046
-0.0490411
-0.0359374
-0.0281719
-0.0251186
-0.938644
-1.04042
-1.07405
-1.04342
-0.960653
-0.842725
-0.707583
-0.570877
-0.444315
-0.334696
-0.245062
-0.17515
-0.122761
-0.0848651
-0.0584191
-0.0404682
-0.0286844
-0.0211909
-0.016667
-0.91209
-1.02505
-1.06937
-1.04738
-0.970846
-0.85643
-0.722661
-0.585574
-0.45758
-0.346166
-0.25448
-0.182746
-0.128719
-0.0895054
-0.0620155
-0.043361
-0.0309736
-0.0227791
-0.0168643
-0.892442
-1.01286
-1.0653
-1.05175
-0.982998
-0.874613
-0.744645
-0.608978
-0.480368
-0.366969
-0.27235
-0.197414
-0.140239
-0.0981971
-0.0683246
-0.0478959
-0.0342991
-0.025527
-0.0197949
-0.89035
-1.01214
-1.06822
-1.06022
-0.99779
-0.895331
-0.76982
-0.636622
-0.508401
-0.393656
-0.296424
-0.218149
-0.157332
-0.111716
-0.0786227
-0.0555679
-0.0400226
-0.0299788
-0.0235638
-0.908053
-1.0249
-1.07912
-1.07245
-1.01363
-0.915882
-0.794816
-0.664844
-0.538119
-0.423135
-0.324164
-0.243085
-0.178767
-0.129323
-0.0924354
-0.066024
-0.0477953
-0.0358498
-0.0282015
-0.942864
-1.05098
-1.09897
-1.09001
-1.03237
-0.938048
-0.821192
-0.694953
-0.570644
-0.456466
-0.35669
-0.273509
-0.206037
-0.15268
-0.111438
-0.0807646
-0.0588154
-0.0440478
-0.0344356
-0.993106
-1.08754
-1.12577
-1.11193
-1.05372
-0.961912
-0.849142
-0.72713
-0.606144
-0.493883
-0.394421
-0.310168
-0.24035
-0.183492
-0.137697
-0.101917
-0.0749309
-0.055998
-0.0433415
-1.05729
-1.13407
-1.16071
-1.14054
-1.0806
-0.990523
-0.881513
-0.763839
-0.646649
-0.537043
-0.438792
-0.354497
-0.283428
-0.224068
-0.174217
-0.132929
-0.0994185
-0.0742761
-0.0567401
-1.12388
-1.18588
-1.20136
-1.17457
-1.1125
-1.02383
-0.918486
-0.805321
-0.692366
-0.586091
-0.489925
-0.406726
-0.335909
-0.275953
-0.224001
-0.178481
-0.1379
-0.103878
-0.0780527
-1.198
-1.24464
-1.24835
-1.21437
-1.14965
-1.06201
-0.960141
-0.851542
-0.743126
-0.640702
-0.547313
-0.466149
-0.397022
-0.338851
-0.288361
-0.243121
-0.199064
-0.156119
-0.114462
-1.28347
-1.31312
-1.30448
-1.26312
-1.19582
-1.10948
-1.0115
-0.908099
-0.805048
-0.707416
-0.617925
-0.539931
-0.473922
-0.419939
-0.375603
-0.339081
-0.304771
-0.26991
-0.230958
-1.37631
-1.38755
-1.36371
-1.31185
-1.23867
-1.15041
-1.05323
-0.952295
-0.852349
-0.757515
-0.670286
-0.593539
-0.528159
-0.474919
-0.433162
-0.402992
-0.38147
-0.366462
-0.354081
-1.47989
-1.46696
-1.42426
-1.35905
-1.2773
-1.18449
-1.08562
-0.985092
-0.88686
-0.794218
-0.709585
-0.635152
-0.571795
-0.520064
-0.47978
-0.450883
-0.432355
-0.423793
-0.424378
-1.59353
-1.55221
-1.48985
-1.41124
-1.3208
-1.22291
-1.12164
-1.0207
-0.923488
-0.832766
-0.750764
-0.679239
-0.618887
-0.569942
-0.531989
-0.504141
-0.484819
-0.472421
-0.465004
-1.69453
-1.62799
-1.54817
-1.45748
-1.35904
-1.25625
-1.15244
-1.05073
-0.95401
-0.864623
-0.78449
-0.715081
-0.656872
-0.609905
-0.573656
-0.547139
-0.528807
-0.517142
-0.510339
-1.77328
-1.69
-1.59744
-1.49756
-1.39288
-1.28624
-1.18045
-1.07816
-0.981889
-0.893637
-0.815096
-0.747513
-0.691217
-0.646132
-0.611692
-0.586845
-0.570072
-0.559847
-0.554381
-1.83486
-1.73901
-1.63681
-1.5299
-1.42045
-1.31086
-1.20355
-1.10082
-1.00491
-0.91755
-0.840279
-0.77417
-0.719445
-0.675944
-0.643069
-0.619707
-0.604361
-0.595484
-0.591302
-1.87942
-1.77425
-1.66481
-1.55277
-1.43991
-1.32824
-1.21989
-1.11689
-1.02126
-0.934564
-0.858224
-0.793197
-0.739637
-0.69732
-0.665623
-0.643377
-0.629085
-0.621165
-0.617834
-1.9095
-1.79464
-1.67975
-1.56445
-1.44965
-1.33689
-1.22804
-1.12495
-1.02953
-0.943243
-0.867446
-0.803042
-0.75015
-0.708521
-0.677527
-0.655988
-0.642419
-0.635236
-0.632652
-1.90951
-1.79465
-1.67977
-1.56448
-1.44967
-1.33692
-1.22807
-1.12498
-1.02956
-0.943274
-0.867478
-0.803075
-0.750184
-0.708555
-0.677563
-0.656027
-0.64246
-0.635278
-0.632697
-1.87944
-1.77428
-1.66486
-1.55282
-1.43997
-1.32831
-1.21997
-1.11697
-1.02134
-0.934652
-0.858315
-0.793291
-0.739734
-0.697422
-0.66573
-0.643492
-0.629208
-0.621298
-0.617979
-1.83488
-1.73906
-1.63688
-1.52999
-1.42056
-1.31097
-1.20367
-1.10095
-1.00504
-0.917692
-0.840426
-0.774321
-0.719603
-0.676108
-0.643242
-0.619889
-0.604555
-0.595692
-0.591525
-1.77331
-1.69006
-1.59754
-1.49767
-1.39302
-1.28638
-1.18061
-1.07833
-0.982067
-0.893821
-0.815287
-0.747709
-0.691419
-0.646341
-0.61191
-0.587072
-0.570312
-0.560102
-0.554652
-1.69456
-1.62806
-1.54827
-1.45762
-1.3592
-1.25642
-1.15263
-1.05093
-0.954223
-0.864845
-0.784719
-0.715316
-0.657113
-0.610153
-0.573912
-0.547405
-0.529085
-0.517435
-0.510649
-1.59356
-1.55229
-1.48997
-1.41139
-1.32097
-1.22311
-1.12185
-1.02093
-0.923729
-0.833016
-0.751021
-0.679501
-0.619154
-0.570213
-0.532265
-0.504422
-0.485106
-0.472714
-0.465304
-1.47993
-1.46706
-1.4244
-1.35924
-1.27754
-1.18477
-1.08593
-0.985427
-0.887218
-0.794593
-0.709976
-0.635555
-0.572212
-0.520493
-0.480223
-0.451332
-0.432795
-0.424192
-0.424692
-1.37634
-1.38757
-1.36374
-1.31191
-1.23876
-1.15054
-1.05339
-0.952481
-0.852554
-0.757726
-0.670494
-0.593731
-0.528325
-0.475048
-0.433256
-0.403061
-0.381569
-0.366686
-0.354579
-1.28348
-1.31319
-1.30461
-1.26333
-1.19611
-1.10984
-1.01195
-0.908603
-0.805598
-0.707996
-0.618521
-0.540532
-0.474523
-0.420548
-0.376241
-0.339789
-0.305603
-0.270918
-0.232177
-1.198
-1.24465
-1.24841
-1.21448
-1.14983
-1.06225
-0.960447
-0.851895
-0.743512
-0.641105
-0.54772
-0.466551
-0.397417
-0.339246
-0.288767
-0.24355
-0.199507
-0.156538
-0.11478
-1.12387
-1.18588
-1.20141
-1.17467
-1.11267
-1.02407
-0.918783
-0.805664
-0.692738
-0.586475
-0.490308
-0.407097
-0.336268
-0.276302
-0.224342
-0.178811
-0.138202
-0.104127
-0.0782367
-1.05728
-1.13406
-1.16074
-1.14062
-1.08075
-0.99074
-0.881789
-0.764158
-0.646992
-0.537393
-0.439134
-0.354823
-0.283735
-0.224354
-0.174481
-0.133165
-0.0996185
-0.0744339
-0.0568559
-0.993098
-1.08753
-1.12579
-1.112
-1.05385
-0.962111
-0.849396
-0.727423
-0.606456
-0.494196
-0.394722
-0.310448
-0.240604
-0.18372
-0.137897
-0.102086
-0.0750674
-0.0561035
-0.04342
-0.942851
-1.05096
-1.09898
-1.09007
-1.03249
-0.938227
-0.821422
-0.695217
-0.570922
-0.456742
-0.35695
-0.273745
-0.206246
-0.15286
-0.111589
-0.0808875
-0.0589118
-0.0441218
-0.0344917
-0.908041
-1.02488
-1.07912
-1.07249
-1.01374
-0.916041
-0.795021
-0.665078
-0.538363
-0.423372
-0.324383
-0.24328
-0.178935
-0.129464
-0.0925501
-0.0661149
-0.0478657
-0.0359044
-0.0282445
-0.890337
-1.01212
-1.06821
-1.06026
-0.99788
-0.89547
-0.769999
-0.636824
-0.508609
-0.393856
-0.296606
-0.218308
-0.157467
-0.111827
-0.078711
-0.0556369
-0.0400761
-0.0300214
-0.0235996
-0.892429
-1.01284
-1.06529
-1.05177
-0.983061
-0.874714
-0.744777
-0.609127
-0.480521
-0.367116
-0.272482
-0.197528
-0.140334
-0.0982741
-0.068385
-0.0479425
-0.0343351
-0.025557
-0.0198247
-0.912104
-1.02505
-1.06939
-1.0474
-0.970886
-0.856484
-0.722727
-0.585647
-0.457656
-0.346242
-0.254551
-0.182811
-0.128776
-0.0895552
-0.0620578
-0.0433968
-0.0310037
-0.0228037
-0.0168807
-0.938658
-1.04043
-1.07405
-1.04341
-0.960626
-0.842685
-0.707532
-0.570821
-0.444259
-0.334645
-0.245016
-0.175112
-0.12273
-0.0848418
-0.0584013
-0.0404548
-0.0286738
-0.0211815
-0.0166546
-0.969882
-1.05993
-1.08543
-1.05099
-0.968144
-0.852847
-0.72132
-0.588011
-0.463696
-0.354747
-0.264516
-0.1929
-0.138215
-0.0978098
-0.0690077
-0.0490439
-0.0359399
-0.0281741
-0.0251196
-1.00317
-1.08157
-1.09883
-1.06025
-0.976977
-0.863822
-0.735481
-0.60515
-0.482767
-0.374355
-0.283422
-0.21015
-0.15329
-0.110562
-0.0796284
-0.0579444
-0.0437695
-0.0357119
-0.0330326
-1.0376
-1.10576
-1.11541
-1.07309
-0.989573
-0.878458
-0.75297
-0.625163
-0.504253
-0.395988
-0.304059
-0.228937
-0.169791
-0.124701
-0.091664
-0.0683215
-0.0531219
-0.0447134
-0.0423
-1.07557
-1.13363
-1.13571
-1.08985
-1.006
-0.896475
-0.773182
-0.647206
-0.527187
-0.418679
-0.325547
-0.248531
-0.187171
-0.139867
-0.104922
-0.0801304
-0.0641151
-0.0555539
-0.0536442
-1.11995
-1.16489
-1.15949
-1.11025
-1.02572
-0.917017
-0.795017
-0.67006
-0.550355
-0.441314
-0.346941
-0.268192
-0.204908
-0.155753
-0.119308
-0.0934829
-0.0770831
-0.0688165
-0.0678913
-1.1614
-1.19594
-1.18499
-1.13289
-1.04729
-0.938601
-0.817012
-0.692362
-0.572557
-0.462887
-0.367454
-0.287357
-0.222665
-0.172247
-0.134937
-0.108723
-0.0926214
-0.0853625
-0.0861697
-1.20194
-1.23175
-1.21627
-1.16069
-1.07273
-0.962528
-0.83998
-0.714598
-0.594079
-0.483587
-0.38725
-0.30622
-0.240719
-0.18975
-0.152384
-0.126639
-0.111773
-0.106524
-0.110124
-1.24975
-1.27318
-1.25157
-1.1907
-1.09859
-0.985283
-0.860656
-0.73395
-0.612648
-0.501696
-0.405142
-0.324085
-0.258818
-0.208426
-0.172216
-0.148182
-0.135897
-0.134073
-0.141958
-1.3042
-1.31839
-1.28873
-1.22051
-1.12234
-1.00453
-0.877068
-0.748907
-0.627222
-0.516594
-0.420911
-0.341083
-0.277436
-0.229079
-0.195598
-0.174893
-0.166949
-0.170424
-0.184576
-1.36118
-1.36638
-1.32663
-1.24858
-1.14244
-1.01903
-0.888414
-0.759116
-0.63785
-0.528659
-0.435232
-0.358153
-0.297776
-0.2532
-0.22436
-0.208967
-0.207562
-0.218689
-0.241626
-1.42549
-1.41891
-1.36466
-1.27357
-1.15764
-1.02798
-0.894397
-0.764761
-0.645125
-0.538808
-0.44932
-0.37678
-0.321607
-0.282871
-0.260954
-0.253256
-0.261052
-0.28269
-0.31748
-1.50166
-1.47176
-1.39755
-1.29088
-1.16439
-1.02898
-0.893651
-0.765356
-0.649273
-0.547815
-0.464434
-0.398633
-0.351003
-0.320568
-0.308303
-0.311137
-0.3313
-0.366832
-0.417117
-1.56639
-1.50959
-1.414
-1.29201
-1.15663
-1.01811
-0.883962
-0.760015
-0.650405
-0.556523
-0.482012
-0.425621
-0.388291
-0.369012
-0.369539
-0.386157
-0.422346
-0.475751
-0.545957
-1.6234
-1.53937
-1.42028
-1.28338
-1.14116
-1.00228
-0.87199
-0.754937
-0.654187
-0.570095
-0.506832
-0.462266
-0.437891
-0.432667
-0.44932
-0.483267
-0.539558
-0.615344
-0.71071
-1.67489
-1.54966
-1.40558
-1.25747
-1.1133
-0.978839
-0.85648
-0.74988
-0.661158
-0.589708
-0.540644
-0.510844
-0.502601
-0.514864
-0.551554
-0.607004
-0.688243
-0.791928
-0.919385
-1.68194
-1.51603
-1.35604
-1.20675
-1.06901
-0.945813
-0.836694
-0.744952
-0.672025
-0.616517
-0.584961
-0.573159
-0.584509
-0.618006
-0.679097
-0.760899
-0.873111
-1.0122
-1.18262
-1.6301
-1.44279
-1.28222
-1.14294
-1.01927
-0.912779
-0.820781
-0.746974
-0.692477
-0.655336
-0.643937
-0.653005
-0.687344
-0.746125
-0.836728
-0.951037
-1.10238
-1.28776
-1.51933
-1.50095
-1.32085
-1.1791
-1.06233
-0.960896
-0.876797
-0.806094
-0.753559
-0.720362
-0.704265
-0.715891
-0.749022
-0.81026
-0.899249
-1.02602
-1.18156
-1.38458
-1.63433
-1.96283
-1.28965
-1.15394
-1.0502
-0.96668
-0.89422
-0.837131
-0.791146
-0.762591
-0.75302
-0.760226
-0.797412
-0.857765
-0.950244
-1.07561
-1.24784
-1.45802
-1.73358
-2.07959
-2.58165
-1.01095
-0.950164
-0.898044
-0.855102
-0.816456
-0.789795
-0.771144
-0.768534
-0.784168
-0.816234
-0.880865
-0.971293
-1.09973
-1.26938
-1.50058
-1.78706
-2.1715
-2.67243
-3.52544
-0.698609
-0.72131
-0.72493
-0.725485
-0.723346
-0.729205
-0.7395
-0.763741
-0.804921
-0.86203
-0.954512
-1.07662
-1.2453
-1.46874
-1.77834
-2.17629
-2.73427
-3.50114
-5.14158
-0.393487
-0.480633
-0.533501
-0.575998
-0.610945
-0.650113
-0.689783
-0.740379
-0.805511
-0.885408
-1.00318
-1.15514
-1.36531
-1.65176
-2.06555
-2.63082
-3.47867
-4.72877
-8.27722
-0.129841
-0.23966
-0.32667
-0.40614
-0.477167
-0.549477
-0.61774
-0.692664
-0.777439
-0.874148
-1.00962
-1.18229
-1.42744
-1.78505
-2.35363
-3.25221
-4.87165
-7.86908
-18.5877
)
;

boundaryField
{
    up
    {
        type            calculated;
        value           nonuniform List<scalar> 
84
(
-16.8451
-9.12332
-5.59135
-3.79333
-2.75852
-2.08885
-1.61346
-1.2546
-0.974565
-0.752789
-0.577426
-0.44007
-0.333816
-0.252889
-0.192076
-0.146766
-0.113067
-0.0878585
-0.0687576
-0.0539946
-0.0423356
-0.0328559
-0.0245393
-0.0147529
-0.0141646
-0.0182246
-0.0218103
-0.0260662
-0.0316947
-0.0396632
-0.0514542
-0.0692173
-0.09981
-0.224039
-0.359628
-0.427998
-0.462226
-0.507975
-0.552643
-0.590168
-0.617103
-0.632307
-0.632353
-0.617254
-0.590399
-0.552922
-0.508293
-0.46253
-0.428234
-0.36016
-0.225441
-0.100112
-0.0693747
-0.0515555
-0.0397327
-0.0317452
-0.0261055
-0.0218439
-0.0182605
-0.0141835
-0.014738
-0.0245392
-0.0328566
-0.0423368
-0.0539962
-0.0687597
-0.0878609
-0.113069
-0.146768
-0.192077
-0.252888
-0.333814
-0.440066
-0.577421
-0.752787
-0.974567
-1.25461
-1.61347
-2.08886
-2.75853
-3.79333
-5.59135
-9.12331
-16.8451
)
;
    }
    low
    {
        type            calculated;
        value           nonuniform List<scalar> 
84
(
-0.139502
-0.411797
-0.737865
-1.07612
-1.37848
-1.60465
-1.73595
-1.77941
-1.75249
-1.67652
-1.6074
-1.53133
-1.43942
-1.36691
-1.30547
-1.24422
-1.19024
-1.14791
-1.10213
-1.04781
-1.00178
-0.960707
-0.919379
-0.880577
-0.8414
-0.815913
-0.814663
-0.84105
-0.887302
-0.951771
-1.02857
-1.1035
-1.18682
-1.28257
-1.38367
-1.49796
-1.62616
-1.73588
-1.81937
-1.88485
-1.93257
-1.96756
-1.96756
-1.93257
-1.88486
-1.81939
-1.73589
-1.62617
-1.49799
-1.38366
-1.28259
-1.18681
-1.10349
-1.02856
-0.951763
-0.887293
-0.841045
-0.81466
-0.815913
-0.841405
-0.8806
-0.919379
-0.960712
-1.00179
-1.04782
-1.10213
-1.14791
-1.19025
-1.24422
-1.30547
-1.36691
-1.43942
-1.53132
-1.60739
-1.67652
-1.75248
-1.77941
-1.73595
-1.60466
-1.37849
-1.07613
-0.737871
-0.411802
-0.139503
)
;
    }
    left
    {
        type            calculated;
        value           nonuniform List<scalar> 
19
(
-0.127479
-0.235504
-0.324491
-0.40694
-0.481319
-0.556908
-0.628433
-0.707095
-0.796103
-0.89904
-1.0439
-1.23015
-1.49784
-1.89478
-2.5314
-3.55373
-5.4166
-8.90394
-17.47
)
;
    }
    right
    {
        type            calculated;
        value           nonuniform List<scalar> 
19
(
-0.12748
-0.235504
-0.32449
-0.406939
-0.481318
-0.556908
-0.628433
-0.707096
-0.796104
-0.899041
-1.0439
-1.23015
-1.49783
-1.89478
-2.53139
-3.55373
-5.4166
-8.90395
-17.47
)
;
    }
    frontAndBackPlanes
    {
        type            empty;
    }
}


// ************************************************************************* //
