/*--------------------------------*- C++ -*----------------------------------*\
  =========                 |
  \\      /  F ield         | OpenFOAM: The Open Source CFD Toolbox
   \\    /   O peration     | Website:  https://openfoam.org
    \\  /    A nd           | Version:  7
     \\/     M anipulation  |
\*---------------------------------------------------------------------------*/
FoamFile
{
    version     2.0;
    format      ascii;
    class       volScalarField;
    location    "0.14";
    object      T;
}
// * * * * * * * * * * * * * * * * * * * * * * * * * * * * * * * * * * * * * //

dimensions      [0 0 0 1 0 0 0];

internalField   nonuniform List<scalar> 
1596
(
0.996066
0.98485
0.973577
0.963287
0.954349
0.946764
0.940407
0.934897
0.929942
0.924853
0.919097
0.911928
0.901864
0.886981
0.864458
0.82827
0.767404
0.659948
0.46195
0.983079
0.948344
0.916211
0.887767
0.863325
0.842677
0.825387
0.810621
0.797601
0.78499
0.771627
0.756071
0.73595
0.708509
0.670529
0.616405
0.537869
0.421032
0.239732
0.967959
0.909977
0.858834
0.814512
0.776782
0.745085
0.718671
0.696406
0.677192
0.659387
0.641532
0.621903
0.597956
0.566907
0.525821
0.470209
0.394348
0.289888
0.141621
0.953432
0.874205
0.806254
0.748178
0.699072
0.658003
0.623946
0.595571
0.571587
0.55022
0.529896
0.50881
0.484493
0.454348
0.415807
0.365294
0.298767
0.211106
0.0933971
0.941884
0.844903
0.762614
0.692703
0.633758
0.58457
0.543909
0.510332
0.482439
0.458421
0.436671
0.415388
0.392247
0.364865
0.330965
0.287589
0.231691
0.159895
0.0667295
0.934678
0.824401
0.73041
0.650397
0.582822
0.526379
0.479746
0.441439
0.41001
0.383663
0.360802
0.339657
0.318053
0.293794
0.264816
0.228565
0.182563
0.124334
0.0502407
0.931745
0.812923
0.709965
0.621497
0.546315
0.483248
0.431016
0.38817
0.35327
0.324558
0.300468
0.279275
0.258935
0.237411
0.212795
0.18281
0.145311
0.0982821
0.0390467
0.931959
0.808903
0.69969
0.604422
0.522627
0.453509
0.395975
0.348692
0.310275
0.279031
0.253431
0.231798
0.212201
0.192736
0.171621
0.146783
0.116292
0.0783773
0.0308772
0.934308
0.810467
0.697437
0.596958
0.509537
0.434946
0.372414
0.3208
0.278828
0.244886
0.217491
0.195011
0.175609
0.157493
0.138983
0.118175
0.0932986
0.0627338
0.0246117
0.936976
0.814395
0.699564
0.595453
0.503537
0.424241
0.357209
0.301562
0.256176
0.21954
0.190226
0.166642
0.147032
0.129693
0.113035
0.0952986
0.0748505
0.0501855
0.0196355
0.938944
0.818248
0.702961
0.59661
0.501383
0.418311
0.347481
0.288308
0.239854
0.200726
0.169556
0.144794
0.124749
0.107793
0.0924161
0.076983
0.0599884
0.0400339
0.0156128
0.941134
0.822555
0.70743
0.599658
0.501943
0.415818
0.341783
0.279552
0.228382
0.187001
0.154107
0.128186
0.107591
0.0907551
0.0762298
0.0624886
0.0481397
0.0318883
0.0123706
0.943018
0.826471
0.711767
0.603078
0.503491
0.414941
0.338285
0.273507
0.220049
0.176759
0.142387
0.11545
0.094334
0.0775078
0.0635726
0.0510894
0.0387655
0.0254042
0.00977519
0.943924
0.828744
0.714425
0.605145
0.504211
0.413852
0.335204
0.268478
0.213272
0.16853
0.133051
0.105368
0.0838836
0.0670936
0.0536323
0.0421316
0.0313833
0.020281
0.00771619
0.94451
0.829968
0.715678
0.605795
0.503755
0.411984
0.331824
0.263656
0.207193
0.161448
0.125242
0.097113
0.0754659
0.0588064
0.0457902
0.0351035
0.0256075
0.0162751
0.00610488
0.944982
0.830556
0.715849
0.605142
0.502006
0.409022
0.32768
0.258472
0.201179
0.154845
0.118286
0.0900202
0.0684402
0.0520481
0.0395087
0.0295487
0.0210848
0.0131573
0.00485633
0.945054
0.830221
0.714673
0.602878
0.498577
0.4045
0.322243
0.252359
0.194647
0.148137
0.111606
0.0835298
0.0622709
0.0463158
0.0343302
0.0250713
0.0175014
0.0107184
0.00389022
0.944881
0.829172
0.712377
0.599193
0.49358
0.39843
0.315427
0.24515
0.187365
0.141044
0.10489
0.0773073
0.0566119
0.0412641
0.0299236
0.0213717
0.01461
0.00878716
0.003138
0.945235
0.828651
0.710294
0.595343
0.488102
0.391688
0.30789
0.237297
0.179609
0.133696
0.0981496
0.0712755
0.0513217
0.0367092
0.0260843
0.0182465
0.0122316
0.00723346
0.00254532
0.945891
0.82866
0.70861
0.591602
0.482431
0.384528
0.299827
0.228927
0.171435
0.126089
0.0913309
0.0653375
0.0462701
0.0324978
0.0226475
0.0155335
0.0102231
0.00595268
0.00206822
0.946313
0.828499
0.706764
0.587592
0.476341
0.37683
0.291184
0.220017
0.162832
0.118205
0.0843977
0.0594358
0.0413776
0.0285317
0.0195023
0.0131186
0.00848036
0.00486696
0.00167365
0.946856
0.82857
0.705208
0.583832
0.470395
0.36916
0.282484
0.211023
0.154169
0.11032
0.0775383
0.0536808
0.0366896
0.0248055
0.016607
0.0109377
0.00693253
0.00391775
0.00133654
0.947697
0.82924
0.704402
0.580861
0.465189
0.36213
0.274317
0.202471
0.145883
0.102772
0.0709936
0.0482241
0.0322835
0.0213389
0.0139386
0.00893827
0.00551021
0.00303706
0.00102365
0.948755
0.83048
0.70442
0.578875
0.461035
0.356144
0.267129
0.1948
0.138365
0.0958784
0.0649931
0.0432108
0.028231
0.0181453
0.0114674
0.00705768
0.00412194
0.00210782
0.000628422
0.950747
0.834976
0.710216
0.584953
0.466648
0.360841
0.270732
0.197335
0.139978
0.0967645
0.0653497
0.043211
0.028013
0.0178111
0.0110857
0.0066693
0.00375521
0.0018016
0.000465766
0.953089
0.841496
0.720185
0.597334
0.480253
0.374521
0.283546
0.208637
0.149428
0.10429
0.0710708
0.0473713
0.0309106
0.0197484
0.0123341
0.00744617
0.00421665
0.00204814
0.000548905
0.954378
0.845887
0.727711
0.607522
0.492262
0.387334
0.296184
0.220301
0.15958
0.112666
0.0776339
0.0522588
0.0343667
0.0220676
0.0138125
0.00834016
0.00472255
0.00229932
0.000623908
0.954627
0.848012
0.732499
0.61511
0.502221
0.398858
0.308311
0.23212
0.170365
0.121941
0.0851724
0.0580498
0.0385597
0.0249177
0.015626
0.00941427
0.00530506
0.00256918
0.000695021
0.95426
0.848655
0.73546
0.620979
0.510899
0.409719
0.320437
0.244526
0.182177
0.1325
0.0940693
0.0651176
0.0438314
0.0285833
0.0179848
0.0108046
0.00604163
0.00289609
0.00077433
0.953381
0.848318
0.737331
0.625921
0.519011
0.420501
0.333013
0.257875
0.195325
0.144647
0.104652
0.0738149
0.0505409
0.0333945
0.0211519
0.0126869
0.00702883
0.00332355
0.00087408
0.952317
0.847829
0.739168
0.631009
0.527526
0.43201
0.346679
0.27267
0.210228
0.15877
0.117317
0.0845722
0.0591484
0.0398075
0.0255233
0.015344
0.00842072
0.00391111
0.00100799
0.95181
0.848356
0.742236
0.637457
0.537517
0.445139
0.362146
0.289479
0.227357
0.175303
0.132515
0.0978958
0.0702367
0.0484637
0.0317325
0.0192967
0.0105359
0.00477221
0.00118528
0.951529
0.849443
0.746102
0.644884
0.548655
0.459609
0.379195
0.308148
0.24665
0.194297
0.150441
0.11416
0.0843881
0.0601658
0.0407589
0.0255638
0.0142055
0.0063387
0.00142005
0.951406
0.851017
0.750718
0.653267
0.560941
0.475436
0.397852
0.328731
0.268206
0.215929
0.171385
0.133818
0.102295
0.0759392
0.0540482
0.0360189
0.0215329
0.010483
0.00267044
0.951163
0.852134
0.754412
0.660248
0.571403
0.489151
0.414283
0.347157
0.287841
0.236012
0.19125
0.15293
0.120242
0.0923985
0.0687162
0.0485095
0.0312953
0.0168458
0.00499768
0.950001
0.850545
0.753689
0.661212
0.574449
0.494333
0.421404
0.355852
0.297656
0.24646
0.20187
0.163313
0.130048
0.101364
0.0766506
0.0552498
0.0366562
0.0205309
0.00650399
0.948189
0.847187
0.750144
0.658336
0.572723
0.493953
0.422353
0.357965
0.300672
0.250064
0.205736
0.167134
0.133549
0.104321
0.0789233
0.0567791
0.0374908
0.0208382
0.00653277
0.946844
0.844763
0.747687
0.656499
0.571864
0.494208
0.423692
0.360238
0.30366
0.253506
0.209366
0.170706
0.136847
0.107178
0.0812311
0.0584883
0.0386105
0.0214382
0.00671843
0.946092
0.843399
0.746379
0.655689
0.571798
0.494976
0.425261
0.362488
0.30642
0.256571
0.212532
0.173785
0.139675
0.109626
0.0832181
0.0599736
0.0395977
0.0219791
0.00689342
0.945577
0.84248
0.745527
0.655217
0.571881
0.495673
0.426544
0.364265
0.308561
0.258924
0.214946
0.176121
0.141812
0.111469
0.084707
0.0610804
0.0403275
0.0223755
0.00702201
0.945188
0.841763
0.744834
0.65478
0.571823
0.496037
0.42731
0.365369
0.309915
0.260426
0.216493
0.17762
0.14318
0.112642
0.0856461
0.0617678
0.0407698
0.0226073
0.00709502
0.944718
0.840979
0.744056
0.654169
0.571456
0.495935
0.42746
0.365734
0.310444
0.261062
0.21718
0.178306
0.143819
0.1132
0.0860995
0.0621047
0.0409902
0.0227255
0.00713398
0.94472
0.840984
0.744062
0.654177
0.571464
0.495944
0.427469
0.365743
0.310453
0.261071
0.217188
0.178313
0.143826
0.113205
0.0861042
0.0621084
0.0409929
0.0227271
0.00713453
0.945193
0.841776
0.744853
0.654803
0.571849
0.496064
0.427338
0.365397
0.309943
0.260452
0.216518
0.177642
0.1432
0.112659
0.0856607
0.0617794
0.0407782
0.0226124
0.0070968
0.945585
0.8425
0.745557
0.655254
0.571922
0.495717
0.426589
0.36431
0.308604
0.258966
0.214985
0.176157
0.141844
0.111496
0.08473
0.0610986
0.0403406
0.0223834
0.00702474
0.946103
0.843427
0.74642
0.655738
0.571853
0.495035
0.425322
0.362549
0.306479
0.256627
0.212584
0.173833
0.139717
0.109663
0.0832486
0.0599976
0.0396149
0.0219895
0.006897
0.946857
0.844797
0.747737
0.65656
0.571932
0.494281
0.423767
0.360313
0.303733
0.253575
0.209431
0.170765
0.136899
0.107223
0.0812682
0.0585174
0.0386313
0.0214507
0.00672273
0.948204
0.847226
0.750202
0.658407
0.572803
0.494039
0.422441
0.358052
0.300757
0.250145
0.205811
0.167202
0.133608
0.104372
0.078965
0.0568113
0.0375135
0.0208516
0.00653723
0.950018
0.850589
0.753755
0.661293
0.57454
0.494431
0.421504
0.355952
0.297753
0.246551
0.201953
0.163387
0.130113
0.101418
0.0766938
0.0552817
0.0366775
0.0205425
0.00650765
0.951185
0.852199
0.754514
0.660381
0.57156
0.489324
0.414465
0.347343
0.288026
0.23619
0.191418
0.153087
0.120386
0.092529
0.0688329
0.0486114
0.0313791
0.0169051
0.00502195
0.951433
0.851094
0.750838
0.653426
0.561128
0.475643
0.398071
0.328953
0.268423
0.216137
0.17158
0.133998
0.102458
0.0760844
0.0541742
0.0361233
0.0216121
0.0105328
0.00268787
0.951551
0.849509
0.746209
0.645024
0.548821
0.459792
0.379385
0.308339
0.246834
0.19447
0.150599
0.1143
0.0845108
0.0602695
0.0408426
0.0256262
0.0142457
0.00635845
0.00142406
0.95183
0.848418
0.742337
0.637591
0.537676
0.445312
0.362326
0.289656
0.227525
0.175458
0.132653
0.0980151
0.0703369
0.0485445
0.031794
0.0193392
0.0105613
0.00478395
0.00118801
0.952335
0.847886
0.739263
0.631135
0.527676
0.432173
0.346846
0.272833
0.21038
0.158907
0.117437
0.0846726
0.0592299
0.0398708
0.0255694
0.0153746
0.00843849
0.0039194
0.00101001
0.953397
0.84837
0.737419
0.626039
0.519151
0.420652
0.333167
0.258023
0.195461
0.144767
0.104754
0.0738989
0.0506071
0.0334443
0.021187
0.0127097
0.00704199
0.00332978
0.000875648
0.954274
0.848703
0.73554
0.621087
0.511028
0.409858
0.320577
0.244659
0.182297
0.132604
0.0941562
0.0651874
0.0438851
0.0286228
0.018012
0.0108221
0.00605173
0.00290096
0.000775598
0.954639
0.848053
0.732571
0.615207
0.502337
0.398982
0.308435
0.232237
0.17047
0.12203
0.0852455
0.0581073
0.0386032
0.024949
0.0156474
0.00942801
0.00531309
0.00257315
0.000696108
0.954388
0.845923
0.727774
0.607608
0.492363
0.387443
0.296292
0.220402
0.159669
0.112741
0.0776948
0.0523062
0.0344021
0.0220929
0.0138298
0.00835135
0.00472924
0.00230277
0.000624922
0.953097
0.841527
0.720239
0.597408
0.48034
0.374614
0.283638
0.208722
0.149503
0.104353
0.0711215
0.0474105
0.0309398
0.0197694
0.0123485
0.00745565
0.0042225
0.00205131
0.000549938
0.950748
0.834982
0.710229
0.584973
0.466672
0.360868
0.270759
0.197361
0.140002
0.0967849
0.0653666
0.0432244
0.0280231
0.0178183
0.0110905
0.00667215
0.00375659
0.00180195
0.000465623
0.948751
0.830471
0.704407
0.578859
0.461018
0.356126
0.267111
0.194784
0.138352
0.0958682
0.0649852
0.0432049
0.0282266
0.0181421
0.0114649
0.0070557
0.00412037
0.00210661
0.000627776
0.947696
0.829238
0.7044
0.580859
0.465187
0.36213
0.274317
0.202472
0.145885
0.102774
0.0709958
0.0482261
0.0322852
0.0213402
0.0139395
0.00893894
0.00551062
0.00303723
0.00102365
0.946855
0.828569
0.705206
0.58383
0.470394
0.36916
0.282484
0.211024
0.15417
0.110321
0.0775399
0.0536821
0.0366907
0.0248064
0.0166077
0.0109382
0.00693283
0.00391791
0.00133657
0.946312
0.828498
0.706763
0.587591
0.476341
0.376831
0.291184
0.220018
0.162833
0.118206
0.0843988
0.0594368
0.0413784
0.0285324
0.0195029
0.013119
0.00848067
0.00486714
0.0016737
0.94589
0.828659
0.708609
0.591601
0.482431
0.384528
0.299828
0.228928
0.171436
0.12609
0.0913317
0.0653382
0.0462708
0.0324984
0.022648
0.015534
0.0102235
0.00595291
0.00206829
0.945234
0.828651
0.710293
0.595343
0.488102
0.391688
0.307891
0.237298
0.179609
0.133696
0.0981501
0.071276
0.0513223
0.0367098
0.0260849
0.0182471
0.0122321
0.00723375
0.0025454
0.944881
0.829171
0.712377
0.599193
0.493581
0.39843
0.315427
0.24515
0.187366
0.141044
0.10489
0.0773077
0.0566125
0.0412647
0.0299243
0.0213724
0.0146106
0.0087875
0.00313809
0.945054
0.830221
0.714673
0.602878
0.498578
0.404501
0.322243
0.252359
0.194648
0.148137
0.111606
0.0835303
0.0622715
0.0463165
0.0343311
0.0250721
0.017502
0.0107188
0.00389031
0.944982
0.830556
0.715849
0.605143
0.502007
0.409022
0.32768
0.258472
0.201179
0.154845
0.118286
0.0900207
0.068441
0.052049
0.0395096
0.0295495
0.0210854
0.0131577
0.0048564
0.94451
0.829968
0.715678
0.605796
0.503756
0.411984
0.331824
0.263656
0.207193
0.161448
0.125243
0.0971137
0.0754668
0.0588074
0.0457911
0.0351043
0.025608
0.0162753
0.00610492
0.943925
0.828745
0.714426
0.605145
0.504212
0.413852
0.335204
0.268478
0.213272
0.16853
0.133051
0.105368
0.0838845
0.0670946
0.0536332
0.0421323
0.0313837
0.0202811
0.00771618
0.943018
0.826472
0.711767
0.603079
0.503492
0.414941
0.338285
0.273507
0.220049
0.176759
0.142388
0.115451
0.0943348
0.0775086
0.0635731
0.0510897
0.0387655
0.0254041
0.00977513
0.941134
0.822555
0.707431
0.599659
0.501943
0.415818
0.341783
0.279552
0.228382
0.187002
0.154107
0.128186
0.107592
0.0907554
0.0762299
0.0624884
0.0481394
0.0318879
0.0123705
0.938944
0.818249
0.702962
0.59661
0.501383
0.418311
0.347481
0.288308
0.239854
0.200726
0.169556
0.144795
0.124749
0.107793
0.0924156
0.0769822
0.0599877
0.0400334
0.0156127
0.936977
0.814396
0.699564
0.595453
0.503537
0.42424
0.357209
0.301562
0.256176
0.21954
0.190226
0.166642
0.147031
0.129692
0.113034
0.0952973
0.0748494
0.0501849
0.0196355
0.934309
0.810468
0.697437
0.596957
0.509537
0.434946
0.372414
0.320799
0.278827
0.244885
0.217491
0.19501
0.175608
0.157492
0.138982
0.118173
0.0932974
0.0627333
0.0246118
0.93196
0.808902
0.69969
0.604421
0.522626
0.453508
0.395975
0.348691
0.310274
0.27903
0.25343
0.231796
0.212199
0.192734
0.171619
0.146781
0.11629
0.078377
0.0308774
0.931745
0.812922
0.709964
0.621496
0.546314
0.483247
0.431015
0.388169
0.353269
0.324557
0.300466
0.279273
0.258932
0.237409
0.212793
0.182809
0.14531
0.098282
0.039047
0.934678
0.8244
0.730409
0.650396
0.582821
0.526378
0.479745
0.441438
0.410009
0.383661
0.360799
0.339655
0.31805
0.293792
0.264814
0.228564
0.182563
0.124335
0.050241
0.941884
0.844902
0.762613
0.692703
0.633758
0.584569
0.543908
0.510331
0.482438
0.458419
0.436669
0.415386
0.392245
0.364863
0.330964
0.287589
0.231692
0.159895
0.0667297
0.953431
0.874204
0.806254
0.748178
0.699071
0.658003
0.623945
0.59557
0.571585
0.550218
0.529894
0.508808
0.484491
0.454347
0.415807
0.365294
0.298767
0.211106
0.0933972
0.967959
0.909977
0.858833
0.814511
0.776781
0.745084
0.71867
0.696405
0.677191
0.659385
0.64153
0.621901
0.597955
0.566906
0.525821
0.470209
0.394349
0.289888
0.14162
0.983078
0.948344
0.916211
0.887767
0.863325
0.842677
0.825387
0.810621
0.7976
0.784989
0.771626
0.75607
0.735949
0.708509
0.67053
0.616405
0.537869
0.421032
0.239732
0.996066
0.98485
0.973577
0.963287
0.954349
0.946764
0.940407
0.934897
0.929942
0.924853
0.919097
0.911928
0.901864
0.886982
0.864459
0.82827
0.767404
0.659948
0.46195
)
;

boundaryField
{
    up
    {
        type            fixedValue;
        value           uniform 0;
    }
    low
    {
        type            fixedValue;
        value           uniform 1;
    }
    left
    {
        type            fixedValue;
        value           uniform 1;
    }
    right
    {
        type            fixedValue;
        value           uniform 1;
    }
    frontAndBackPlanes
    {
        type            empty;
    }
}


// ************************************************************************* //
