/*--------------------------------*- C++ -*----------------------------------*\
  =========                 |
  \\      /  F ield         | OpenFOAM: The Open Source CFD Toolbox
   \\    /   O peration     | Website:  https://openfoam.org
    \\  /    A nd           | Version:  7
     \\/     M anipulation  |
\*---------------------------------------------------------------------------*/
FoamFile
{
    version     2.0;
    format      ascii;
    class       volScalarField;
    location    "0.369";
    object      gradTx;
}
// * * * * * * * * * * * * * * * * * * * * * * * * * * * * * * * * * * * * * //

dimensions      [0 -1 0 1 0 0 0];

internalField   nonuniform List<scalar> 
1596
(
-0.0346512
-0.17442
-0.314292
-0.443854
-0.563429
-0.673494
-0.779013
-0.883089
-0.989637
-1.10643
-1.23507
-1.38487
-1.56737
-1.80043
-2.10596
-2.54133
-3.19639
-4.2659
-6.15233
0.00767505
-0.145145
-0.282286
-0.403492
-0.512432
-0.610258
-0.70136
-0.787215
-0.870659
-0.955485
-1.04143
-1.13311
-1.23151
-1.33857
-1.45078
-1.56274
-1.64861
-1.65667
-1.4779
0.0423615
-0.11882
-0.251236
-0.3631
-0.460637
-0.546007
-0.62293
-0.692322
-0.756002
-0.815837
-0.870882
-0.923264
-0.971321
-1.01341
-1.0442
-1.05509
-1.02507
-0.918122
-0.664612
0.0478277
-0.105246
-0.226386
-0.326319
-0.411565
-0.484677
-0.548541
-0.60387
-0.651776
-0.693099
-0.726962
-0.754169
-0.77281
-0.7807
-0.773547
-0.744383
-0.679405
-0.556581
-0.334048
0.013923
-0.110694
-0.212222
-0.296877
-0.368815
-0.429967
-0.482112
-0.525772
-0.561533
-0.589622
-0.609502
-0.621253
-0.623391
-0.614051
-0.590361
-0.547358
-0.476671
-0.365358
-0.188998
-0.0565757
-0.13738
-0.211894
-0.277909
-0.335405
-0.384716
-0.42625
-0.460162
-0.48656
-0.505239
-0.51598
-0.518438
-0.511614
-0.494083
-0.464098
-0.418222
-0.351575
-0.256589
-0.119135
-0.150387
-0.183005
-0.22642
-0.271268
-0.313245
-0.350575
-0.382174
-0.407606
-0.426484
-0.438243
-0.442825
-0.439624
-0.428
-0.406886
-0.375289
-0.330823
-0.270714
-0.190509
-0.0819938
-0.248599
-0.238963
-0.251987
-0.275148
-0.301267
-0.326631
-0.348797
-0.366602
-0.379151
-0.385548
-0.385736
-0.378941
-0.364734
-0.342304
-0.311124
-0.269518
-0.21596
-0.147815
-0.0602925
-0.350002
-0.310264
-0.296226
-0.29766
-0.306974
-0.319353
-0.331388
-0.341185
-0.34735
-0.348658
-0.344893
-0.335157
-0.319085
-0.296014
-0.265662
-0.226823
-0.178679
-0.119655
-0.0468948
-0.410231
-0.359213
-0.329059
-0.31484
-0.310863
-0.312477
-0.316005
-0.3191
-0.320021
-0.31731
-0.310556
-0.298805
-0.2817
-0.258687
-0.22963
-0.193676
-0.150434
-0.0990057
-0.0376933
-0.458613
-0.402777
-0.362967
-0.337262
-0.32223
-0.314145
-0.309643
-0.306243
-0.302028
-0.295392
-0.285725
-0.27203
-0.253913
-0.230878
-0.202848
-0.169205
-0.129802
-0.084161
-0.0313082
-0.507231
-0.451005
-0.405323
-0.370765
-0.345983
-0.328512
-0.315703
-0.305259
-0.295277
-0.284096
-0.270945
-0.254784
-0.235152
-0.211558
-0.183927
-0.15178
-0.115092
-0.0736318
-0.0268467
-0.518417
-0.469849
-0.42537
-0.38811
-0.358575
-0.335592
-0.317376
-0.302047
-0.287908
-0.273384
-0.257649
-0.239688
-0.219008
-0.195148
-0.168041
-0.137324
-0.103057
-0.0651723
-0.0233755
-0.51887
-0.478709
-0.438284
-0.401361
-0.369679
-0.343211
-0.321036
-0.301815
-0.28417
-0.266705
-0.248619
-0.228949
-0.207197
-0.182926
-0.156076
-0.126371
-0.0939193
-0.0587623
-0.0207777
-0.514759
-0.482254
-0.446854
-0.412017
-0.37999
-0.351566
-0.326586
-0.304282
-0.283662
-0.263571
-0.243301
-0.221966
-0.19908
-0.174232
-0.147368
-0.118276
-0.0871042
-0.0539625
-0.0188366
-0.498841
-0.47444
-0.445043
-0.413979
-0.383613
-0.355213
-0.329173
-0.305231
-0.282782
-0.260944
-0.239147
-0.216611
-0.192883
-0.167588
-0.140688
-0.112038
-0.0818321
-0.0502455
-0.0173391
-0.471038
-0.454197
-0.431249
-0.40513
-0.378083
-0.351556
-0.326268
-0.302332
-0.279473
-0.257062
-0.23469
-0.211688
-0.187652
-0.162244
-0.135449
-0.107191
-0.0777331
-0.0473448
-0.0161722
-0.439378
-0.427314
-0.409971
-0.388928
-0.365928
-0.342337
-0.319009
-0.296286
-0.274136
-0.252148
-0.23005
-0.207279
-0.183472
-0.158309
-0.131775
-0.103848
-0.0748737
-0.0452624
-0.0153075
-0.412874
-0.404747
-0.391814
-0.375007
-0.355572
-0.334703
-0.313297
-0.291858
-0.270555
-0.24916
-0.227523
-0.20517
-0.181753
-0.156933
-0.130634
-0.10281
-0.0738528
-0.0443416
-0.0148257
-0.369176
-0.366023
-0.357954
-0.346105
-0.331431
-0.314871
-0.297213
-0.278971
-0.260391
-0.241349
-0.221769
-0.201238
-0.179419
-0.15594
-0.130624
-0.103316
-0.0743519
-0.0444711
-0.0146719
-0.321849
-0.322669
-0.319006
-0.311841
-0.301929
-0.289994
-0.27667
-0.262413
-0.247468
-0.231749
-0.215194
-0.197416
-0.178073
-0.156749
-0.133128
-0.106819
-0.0778459
-0.0468228
-0.0152527
-0.273297
-0.276817
-0.27691
-0.274078
-0.268812
-0.261625
-0.252993
-0.243279
-0.232688
-0.221113
-0.208451
-0.194302
-0.178297
-0.160002
-0.138991
-0.114592
-0.0862066
-0.0535622
-0.0177053
-0.220219
-0.225265
-0.228497
-0.229813
-0.229341
-0.227325
-0.224061
-0.219778
-0.214599
-0.208343
-0.200779
-0.19144
-0.179891
-0.165718
-0.148533
-0.127586
-0.10168
-0.0689296
-0.0269537
-0.160918
-0.159699
-0.157093
-0.153172
-0.148413
-0.14342
-0.13886
-0.135203
-0.132675
-0.131093
-0.129875
-0.128153
-0.125026
-0.119725
-0.111683
-0.100279
-0.0844706
-0.0618512
-0.0277346
-0.107921
-0.121963
-0.139207
-0.157962
-0.176981
-0.195257
-0.21217
-0.227233
-0.240095
-0.250338
-0.25728
-0.260292
-0.258786
-0.252725
-0.24244
-0.228403
-0.210431
-0.187027
-0.153894
-0.0371118
-0.04517
-0.0562837
-0.0693725
-0.0836432
-0.098504
-0.113705
-0.129053
-0.144436
-0.159541
-0.173467
-0.185204
-0.193367
-0.197135
-0.196368
-0.192047
-0.185206
-0.177138
-0.168287
0.0340102
0.0237939
0.00954866
-0.00763771
-0.0267746
-0.0470898
-0.0681594
-0.0897595
-0.111809
-0.134099
-0.155802
-0.175721
-0.192046
-0.203266
-0.208631
-0.208954
-0.205598
-0.200364
-0.194167
0.105581
0.0920267
0.0735813
0.0515736
0.0271847
0.00134579
-0.0253986
-0.0528362
-0.080985
-0.109841
-0.138834
-0.166786
-0.191599
-0.210974
-0.223187
-0.228402
-0.228085
-0.224587
-0.219391
0.171235
0.152826
0.129175
0.101957
0.0724804
0.0417607
0.0103519
-0.0216262
-0.0543799
-0.088222
-0.123019
-0.157925
-0.190867
-0.218887
-0.238975
-0.249993
-0.252923
-0.250657
-0.245655
0.240749
0.216653
0.187346
0.15467
0.120038
0.0845472
0.0487412
0.0126503
-0.0241102
-0.0621811
-0.101951
-0.143205
-0.184368
-0.222287
-0.252646
-0.272273
-0.280469
-0.280045
-0.274827
0.295275
0.264446
0.229182
0.191415
0.152621
0.113844
0.0754826
0.0373896
-0.00102729
-0.0407302
-0.0826401
-0.127396
-0.174479
-0.221466
-0.263474
-0.29511
-0.31231
-0.31578
-0.309918
0.348478
0.311624
0.270525
0.227872
0.185275
0.143683
0.103335
0.0639372
0.0247793
-0.0152742
-0.0574931
-0.103312
-0.153599
-0.207736
-0.261952
-0.310052
-0.343804
-0.35846
-0.355752
0.400285
0.355685
0.308293
0.260933
0.215058
0.171356
0.129844
0.0900797
0.051325
0.0124491
-0.0278468
-0.0713587
-0.120059
-0.175614
-0.237295
-0.30172
-0.359411
-0.398887
-0.408413
0.437863
0.381483
0.324406
0.269157
0.216734
0.167415
0.120905
0.0766226
0.0338158
-0.0085262
-0.0515141
-0.0967873
-0.146552
-0.203885
-0.271518
-0.352012
-0.442521
-0.535044
-0.613771
0.465641
0.40306
0.344248
0.290915
0.243125
0.200485
0.16224
0.127655
0.0960085
0.0666053
0.0389292
0.0123141
-0.0140114
-0.0413827
-0.0719976
-0.110249
-0.161211
-0.230953
-0.323142
0.48989
0.424097
0.366466
0.316558
0.273214
0.235406
0.202033
0.172264
0.145397
0.120834
0.0982899
0.0775143
0.0584475
0.0411747
0.0259618
0.0127731
0.00125836
-0.0103274
-0.0253739
0.47304
0.397507
0.334072
0.28036
0.23436
0.194605
0.159792
0.128977
0.101428
0.0765337
0.054019
0.0336551
0.0153773
-0.000722878
-0.0143142
-0.0250473
-0.0323359
-0.0356399
-0.0347002
0.422914
0.352216
0.294173
0.245927
0.205293
0.17069
0.140819
0.114744
0.0917764
0.0713639
0.0532348
0.0371684
0.0230383
0.0107931
0.000459075
-0.00802608
-0.0147143
-0.0197264
-0.0232566
0.357125
0.296308
0.24666
0.205746
0.171625
0.14284
0.118231
0.0969494
0.0783805
0.0620346
0.047635
0.0349538
0.0238066
0.0140583
0.00562402
-0.00163628
-0.00783292
-0.0130605
-0.0174472
0.272439
0.224765
0.186394
0.155173
0.129424
0.107906
0.0896671
0.0740112
0.0604437
0.0485697
0.0381474
0.02898
0.0208914
0.0137484
0.00746303
0.0019248
-0.00293997
-0.00716719
-0.0108196
0.173186
0.14129
0.116371
0.0964847
0.0802973
0.0668889
0.0555996
0.0459565
0.0376307
0.0303616
0.0239827
0.0183603
0.0133701
0.00891785
0.00494061
0.00136855
-0.00184044
-0.00469186
-0.00720538
0.0669609
0.0543336
0.0447891
0.0372683
0.031162
0.0260909
0.0218002
0.0181123
0.0149051
0.0120828
0.00958181
0.00735135
0.00534323
0.00351984
0.00185408
0.000317009
-0.00111095
-0.00243345
-0.00365621
-0.0669287
-0.0542653
-0.0446991
-0.0371662
-0.0310546
-0.0259828
-0.0216949
-0.0180123
-0.0148125
-0.0119991
-0.00950804
-0.00728838
-0.00529171
-0.00348028
-0.00182683
-0.000302333
0.00111289
0.00242271
0.00363299
-0.173157
-0.141231
-0.116294
-0.0963989
-0.0802082
-0.0668008
-0.0555158
-0.0458794
-0.0375624
-0.0303035
-0.0239357
-0.0183252
-0.0133474
-0.00890791
-0.00494352
-0.00138432
0.00181194
0.00465106
0.00715292
-0.272412
-0.224711
-0.186322
-0.155089
-0.129335
-0.107815
-0.0895775
-0.0739256
-0.0603641
-0.0484977
-0.038084
-0.0289258
-0.0208465
-0.0137128
-0.00743607
-0.00190566
0.0029524
0.00717418
0.0108224
-0.357107
-0.296276
-0.246617
-0.205697
-0.171573
-0.142789
-0.118184
-0.0969084
-0.0783474
-0.0620111
-0.0476219
-0.0349519
-0.0238157
-0.0140779
-0.00565292
0.00159969
0.00779054
0.0130143
0.0173988
-0.422906
-0.352201
-0.294151
-0.2459
-0.205264
-0.17066
-0.140791
-0.114722
-0.0917616
-0.0713583
-0.0532399
-0.0371852
-0.023067
-0.0108331
-0.000508576
0.00796999
0.0146558
0.0196702
0.0232083
-0.473047
-0.397514
-0.334074
-0.280358
-0.234355
-0.194601
-0.159791
-0.128982
-0.101443
-0.0765606
-0.0540614
-0.0337157
-0.0154586
0.00061958
0.0141899
0.0249066
0.0321906
0.0355088
0.0346052
-0.489898
-0.424071
-0.366388
-0.31642
-0.273012
-0.23514
-0.201705
-0.171875
-0.14495
-0.120333
-0.0977356
-0.0769087
-0.0577913
-0.0404688
-0.0252111
-0.011998
-0.000511187
0.0109333
0.0256489
-0.465736
-0.403306
-0.344654
-0.291483
-0.243854
-0.201374
-0.163288
-0.128862
-0.0973751
-0.0681364
-0.0406345
-0.0142115
0.01189
0.0389815
0.0692316
0.106995
0.157343
0.226398
0.317979
-0.437835
-0.381398
-0.32425
-0.268923
-0.216419
-0.16702
-0.120433
-0.0760773
-0.0332042
0.0091961
0.0522319
0.0975394
0.147321
0.204655
0.272287
0.352823
0.443498
0.536408
0.615827
-0.400319
-0.355764
-0.30841
-0.261081
-0.21523
-0.171549
-0.130053
-0.0903041
-0.051565
-0.0127074
0.0275654
0.0710482
0.119716
0.17525
0.236945
0.301456
0.359321
0.399028
0.408716
-0.348501
-0.311675
-0.270599
-0.227965
-0.185382
-0.143801
-0.103463
-0.0640737
-0.0249264
0.0151142
0.0573177
0.103122
0.153402
0.207558
0.261834
0.310043
0.343931
0.358704
0.356057
-0.295297
-0.264495
-0.229254
-0.191507
-0.152727
-0.113961
-0.0756091
-0.0375239
0.00088556
0.0405813
0.0824858
0.127243
0.174343
0.221373
0.263453
0.29518
0.312464
0.315988
0.310143
-0.240769
-0.216699
-0.187416
-0.154759
-0.120143
-0.0846648
-0.0488675
-0.0127829
0.0239735
0.0620431
0.101817
0.143085
0.184278
0.222247
0.25267
0.272364
0.280612
0.280216
0.275012
-0.171252
-0.152867
-0.129239
-0.10204
-0.0725783
-0.0418695
-0.010468
0.0215062
0.0542594
0.0881056
0.122914
0.157841
0.190818
0.218885
0.239025
0.25009
0.253054
0.250808
0.24582
-0.105598
-0.0920678
-0.0736452
-0.051657
-0.0272835
-0.0014554
0.0252827
0.0527185
0.0808702
0.109735
0.138745
0.166723
0.191571
0.210989
0.223246
0.228497
0.228207
0.224728
0.219549
-0.0340241
-0.0238314
-0.0096085
0.00755863
0.0266807
0.0469858
0.0680505
0.089651
0.111706
0.134009
0.155732
0.175678
0.192038
0.203296
0.208697
0.209051
0.205721
0.200509
0.194335
0.0370809
0.0450754
0.0561195
0.0691382
0.0833433
0.0981471
0.113303
0.12862
0.143988
0.159095
0.173038
0.184809
0.193017
0.196836
0.196122
0.191858
0.185081
0.1771
0.168387
0.107943
0.12205
0.139377
0.158229
0.177351
0.195729
0.212737
0.227883
0.240813
0.251107
0.258084
0.261114
0.259613
0.253546
0.243248
0.229194
0.211201
0.187771
0.154598
0.160897
0.159618
0.156948
0.152965
0.148151
0.143113
0.138522
0.134847
0.132316
0.130741
0.12954
0.127845
0.124748
0.119481
0.111473
0.100105
0.0843328
0.0617535
0.0276898
0.220234
0.225295
0.228542
0.229874
0.229412
0.227404
0.224145
0.219861
0.214677
0.208414
0.20084
0.191491
0.179931
0.165747
0.148553
0.127596
0.101682
0.0689255
0.0269497
0.273302
0.276823
0.276918
0.274088
0.268824
0.261638
0.253007
0.243292
0.2327
0.221124
0.20846
0.194308
0.178301
0.160003
0.13899
0.114589
0.0862021
0.053558
0.0177038
0.321854
0.322675
0.319014
0.31185
0.301939
0.290004
0.276681
0.262423
0.247477
0.231757
0.215199
0.19742
0.178075
0.156749
0.133126
0.106817
0.0778433
0.0468209
0.0152521
0.369181
0.366028
0.357961
0.346113
0.331439
0.314879
0.297221
0.278978
0.260397
0.241354
0.221772
0.20124
0.17942
0.155939
0.130622
0.103315
0.0743502
0.04447
0.0146717
0.412879
0.404753
0.391821
0.375014
0.35558
0.33471
0.313304
0.291864
0.270559
0.249163
0.227526
0.205171
0.181753
0.156933
0.130633
0.102809
0.0738517
0.0443409
0.0148255
0.439382
0.427319
0.409977
0.388934
0.365933
0.342343
0.319014
0.296289
0.274139
0.25215
0.230051
0.207279
0.183471
0.158308
0.131774
0.103847
0.0748729
0.0452619
0.0153074
0.471041
0.454201
0.431253
0.405135
0.378087
0.351559
0.326271
0.302335
0.279474
0.257063
0.23469
0.211687
0.187652
0.162244
0.135448
0.10719
0.0777325
0.0473444
0.0161721
0.498844
0.474444
0.445047
0.413983
0.383617
0.355216
0.329175
0.305232
0.282783
0.260944
0.239147
0.216611
0.192883
0.167587
0.140687
0.112038
0.0818316
0.0502453
0.0173391
0.51476
0.482256
0.446857
0.41202
0.379992
0.351568
0.326587
0.304282
0.283662
0.263571
0.243301
0.221965
0.19908
0.174231
0.147367
0.118276
0.0871039
0.0539624
0.0188366
0.518872
0.478712
0.438287
0.401363
0.369681
0.343213
0.321037
0.301816
0.28417
0.266705
0.248618
0.228948
0.207196
0.182925
0.156076
0.12637
0.0939192
0.0587623
0.0207778
0.51842
0.469852
0.425373
0.388113
0.358577
0.335594
0.317377
0.302047
0.287908
0.273384
0.257649
0.239688
0.219008
0.195148
0.168041
0.137324
0.103058
0.0651725
0.0233756
0.507231
0.451005
0.405323
0.370765
0.345982
0.328511
0.315702
0.305258
0.295276
0.284095
0.270944
0.254784
0.235151
0.211558
0.183927
0.151779
0.115092
0.0736319
0.0268467
0.458616
0.40278
0.36297
0.337264
0.322232
0.314146
0.309643
0.306243
0.302028
0.295392
0.285725
0.27203
0.253913
0.230878
0.202849
0.169205
0.129802
0.0841613
0.0313083
0.410236
0.359217
0.329061
0.314842
0.310864
0.312477
0.316005
0.3191
0.320021
0.31731
0.310556
0.298805
0.2817
0.258687
0.229631
0.193677
0.150435
0.0990061
0.0376934
0.350007
0.310267
0.296228
0.297661
0.306975
0.319354
0.331388
0.341185
0.34735
0.348658
0.344893
0.335158
0.319086
0.296014
0.265662
0.226824
0.17868
0.119655
0.0468949
0.248603
0.238965
0.251988
0.275149
0.301268
0.326631
0.348797
0.366602
0.37915
0.385548
0.385736
0.378941
0.364734
0.342304
0.311125
0.269518
0.21596
0.147816
0.0602925
0.15039
0.183007
0.226421
0.271268
0.313245
0.350575
0.382174
0.407606
0.426484
0.438243
0.442825
0.439624
0.428
0.406886
0.37529
0.330824
0.270715
0.190509
0.0819937
0.0565775
0.137381
0.211895
0.277909
0.335405
0.384716
0.42625
0.460162
0.48656
0.505239
0.51598
0.518437
0.511614
0.494083
0.464098
0.418222
0.351575
0.256589
0.119134
-0.013922
0.110695
0.212223
0.296877
0.368815
0.429967
0.482112
0.525772
0.561533
0.589622
0.609502
0.621253
0.623391
0.614051
0.590361
0.547358
0.476671
0.365358
0.188998
-0.0478275
0.105247
0.226386
0.32632
0.411565
0.484677
0.54854
0.60387
0.651776
0.693099
0.726961
0.754169
0.772809
0.780699
0.773546
0.744382
0.679404
0.556581
0.334048
-0.0423618
0.11882
0.251236
0.3631
0.460637
0.546007
0.62293
0.692322
0.756002
0.815837
0.870881
0.923264
0.97132
1.01341
1.0442
1.05509
1.02507
0.918121
0.664611
-0.00767516
0.145145
0.282286
0.403492
0.512432
0.610257
0.70136
0.787215
0.870659
0.955485
1.04143
1.13311
1.23151
1.33857
1.45078
1.56274
1.64861
1.65667
1.4779
0.0346513
0.17442
0.314292
0.443854
0.563429
0.673494
0.779013
0.883089
0.989637
1.10643
1.23507
1.38487
1.56737
1.80043
2.10596
2.54132
3.19639
4.2659
6.15233
)
;

boundaryField
{
    up
    {
        type            calculated;
        value           nonuniform List<scalar> 
84
(
-6.15233
-1.4779
-0.664612
-0.334048
-0.188998
-0.119135
-0.0819938
-0.0602925
-0.0468948
-0.0376933
-0.0313082
-0.0268467
-0.0233755
-0.0207777
-0.0188366
-0.0173391
-0.0161722
-0.0153075
-0.0148257
-0.0146719
-0.0152527
-0.0177053
-0.0269537
-0.0277346
-0.132696
-0.159213
-0.185983
-0.211161
-0.2369
-0.265026
-0.297885
-0.337571
-0.380373
-0.614558
-0.336525
-0.0261085
-0.034733
-0.0232545
-0.0174437
-0.0108197
-0.00720634
-0.00365814
0.00363491
0.00715391
0.0108225
0.0173954
0.0232062
0.0346377
0.0263746
0.331177
0.617029
0.380635
0.337835
0.298097
0.265206
0.237063
0.211321
0.186157
0.15938
0.133343
0.0276898
0.0269497
0.0177038
0.0152521
0.0146717
0.0148255
0.0153074
0.0161721
0.0173391
0.0188366
0.0207778
0.0233756
0.0268467
0.0313083
0.0376934
0.0468949
0.0602925
0.0819937
0.119134
0.188998
0.334048
0.664611
1.4779
6.15233
)
;
    }
    low
    {
        type            calculated;
        value           nonuniform List<scalar> 
84
(
-0.0313097
0.0125991
0.050403
0.0566644
0.0195285
-0.0576203
-0.15903
-0.263144
-0.366723
-0.42366
-0.469981
-0.515706
-0.52073
-0.517288
-0.510662
-0.491373
-0.460851
-0.428593
-0.400589
-0.354195
-0.305838
-0.257463
-0.205171
-0.147979
-0.0979932
-0.0335559
0.0299458
0.095318
0.157705
0.226611
0.282894
0.337616
0.392023
0.433397
0.464413
0.492715
0.480496
0.431737
0.365479
0.279385
0.177924
0.0689774
-0.0689451
-0.177893
-0.279355
-0.365457
-0.431723
-0.480495
-0.492715
-0.464492
-0.433369
-0.392052
-0.337636
-0.282914
-0.22663
-0.157722
-0.0953357
-0.02996
0.0335258
0.0980157
0.147959
0.205184
0.257468
0.305843
0.3542
0.400593
0.428598
0.460854
0.491376
0.510664
0.51729
0.520732
0.515706
0.469983
0.423665
0.366727
0.263148
0.159033
0.0576223
-0.0195274
-0.0566643
-0.0504035
-0.0125994
0.0313097
)
;
    }
    left
    {
        type            calculated;
        value           nonuniform List<scalar> 
19
(
-0.030685
-0.167236
-0.309774
-0.443625
-0.568188
-0.68329
-0.794364
-0.90506
-1.01932
-1.14713
-1.28995
-1.45851
-1.66826
-1.94365
-2.31253
-2.85601
-3.69884
-5.11298
-5.33642
)
;
    }
    right
    {
        type            calculated;
        value           nonuniform List<scalar> 
19
(
0.0306851
0.167236
0.309774
0.443625
0.568188
0.68329
0.794363
0.905059
1.01932
1.14713
1.28995
1.45851
1.66826
1.94365
2.31253
2.85601
3.69884
5.11298
5.33643
)
;
    }
    frontAndBackPlanes
    {
        type            empty;
    }
}


// ************************************************************************* //
