/*--------------------------------*- C++ -*----------------------------------*\
  =========                 |
  \\      /  F ield         | OpenFOAM: The Open Source CFD Toolbox
   \\    /   O peration     | Website:  https://openfoam.org
    \\  /    A nd           | Version:  7
     \\/     M anipulation  |
\*---------------------------------------------------------------------------*/
FoamFile
{
    version     2.0;
    format      ascii;
    class       volScalarField;
    location    "0.128";
    object      gradTz;
}
// * * * * * * * * * * * * * * * * * * * * * * * * * * * * * * * * * * * * * //

dimensions      [0 -1 0 1 0 0 0];

internalField   nonuniform List<scalar> 
1596
(
-8.067e-16
-3.8761e-16
3.98955e-16
1.32901e-17
-7.46766e-16
0
-3.40661e-16
-3.36016e-16
-2.92258e-17
-1.80734e-16
-1.18394e-18
-1.81093e-16
8.06589e-16
-1.8056e-16
8.40716e-16
7.27825e-16
4.3357e-16
5.49328e-16
0
8.00699e-16
0
1.09605e-15
-1.1179e-17
-3.23074e-16
3.19111e-16
6.76014e-16
2.82958e-17
3.16671e-16
-1.54153e-16
3.08765e-16
-3.41043e-18
-4.30227e-16
-2.70719e-16
-6.79029e-16
-6.64986e-16
-6.06613e-16
3.46539e-16
0
-3.85302e-16
0
-6.99348e-16
1.76244e-17
6.13174e-16
-1.85498e-16
2.07741e-17
-4.12111e-18
-3.58789e-18
-3.39783e-18
1.05372e-16
0
2.22981e-16
6.27152e-16
-6.22527e-17
5.14011e-17
1.20196e-16
1.92159e-16
0
6.14794e-16
-1.74372e-16
1.73735e-16
0
-1.63497e-16
-1.72856e-16
2.73115e-16
-2.22858e-16
0
0
-9.98353e-17
5.52242e-17
0
-1.81687e-16
-2.25291e-16
1.5929e-16
-1.72338e-16
-8.81344e-18
0
1.08499e-16
2.70982e-16
-2.29795e-16
0
-6.31357e-17
-1.95049e-16
0
2.8118e-16
-2.7143e-17
-2.46222e-17
-3.86568e-17
1.40736e-16
1.79508e-16
2.00279e-17
1.71128e-17
-1.72135e-16
8.57377e-18
8.04141e-17
-3.56465e-17
-2.81755e-17
-3.69948e-16
3.35827e-16
-2.75583e-16
-8.93358e-19
-2.21154e-16
6.07021e-18
-6.09036e-18
-1.6051e-16
0
-3.19273e-17
-1.67704e-16
-1.61676e-16
1.24794e-16
1.45336e-16
-1.94244e-18
-8.7401e-17
-8.15629e-17
6.3197e-17
2.35468e-16
-3.74555e-16
3.95233e-16
2.10142e-16
0
1.71594e-16
9.39845e-17
-4.4316e-17
2.01993e-16
-3.66414e-17
-1.61698e-16
1.09521e-18
-9.09128e-17
-1.2527e-16
-9.2747e-17
8.27158e-17
8.81703e-17
-1.20214e-18
-2.58835e-17
3.34463e-17
6.00688e-16
-6.62241e-16
0
0
-1.99765e-16
0
0
0
1.13407e-16
0
0
8.4754e-17
2.20889e-18
3.15824e-17
-7.31173e-17
0
3.88925e-17
1.6258e-17
0
-3.77001e-16
7.14313e-16
0
0
2.0573e-16
0
-6.6728e-17
6.66605e-17
-1.15431e-16
4.52616e-17
-4.55926e-17
0
6.49991e-17
7.40842e-17
0
-4.24864e-17
-3.96938e-17
-1.43619e-17
9.81958e-16
-4.4947e-16
0
-2.66549e-16
2.63566e-16
0
1.60914e-16
0
0
0
3.84677e-17
-3.86521e-17
0
-5.08228e-17
-1.37395e-17
0
8.97895e-18
2.28799e-17
0
-2.49473e-16
0
0
2.68406e-16
-4.83755e-16
3.88601e-17
1.53951e-17
-5.85062e-17
1.03724e-17
4.04234e-18
-3.95008e-17
-5.72528e-17
0
4.19431e-17
-9.25323e-18
9.39211e-18
2.88258e-17
-1.83554e-17
-7.9203e-18
1.87301e-16
-3.17644e-17
1.80889e-16
5.71137e-16
-4.75448e-17
-2.17784e-16
0
0
0
8.23652e-17
2.92767e-17
1.01523e-16
-2.42435e-17
-4.11927e-17
-2.16599e-17
-1.32034e-17
6.02257e-18
-1.35745e-17
7.43677e-18
-2.19974e-16
2.16409e-16
-3.88502e-16
-5.65244e-16
5.0576e-16
1.73706e-16
-3.08079e-16
2.42597e-16
-1.90182e-16
5.02799e-17
3.27195e-17
-2.80349e-17
1.41981e-17
-1.38059e-17
4.20145e-17
0
-3.31152e-18
2.55254e-17
-3.86065e-18
-1.4881e-15
6.64569e-16
4.72774e-19
-1.1972e-16
2.53578e-17
1.68941e-16
-3.13375e-16
-1.13912e-16
8.74546e-17
-6.65559e-17
-5.08954e-17
0
-4.98742e-17
-1.42446e-17
-2.30865e-17
-1.34498e-17
1.04242e-18
-1.39775e-17
8.6125e-19
2.43151e-16
-2.07163e-16
1.13605e-19
-1.42231e-16
-3.21966e-16
2.95388e-16
1.64847e-18
1.11007e-16
-8.51486e-17
1.26767e-16
2.84065e-17
2.09585e-17
5.54348e-17
0
4.04021e-17
1.82489e-17
0
6.96028e-18
6.2581e-19
0
2.00972e-16
1.40349e-16
-3.02374e-16
3.11121e-16
-4.42456e-16
2.92032e-16
9.2073e-17
-2.18591e-17
-1.28371e-16
1.90476e-17
-1.89536e-17
-4.82731e-17
1.68992e-17
-8.8187e-18
-1.69852e-17
6.58858e-18
-4.15866e-18
2.01941e-18
-2.26138e-16
7.14399e-16
-5.3746e-16
2.62576e-16
0
0
-5.03625e-17
1.12606e-16
-6.40043e-17
1.15949e-16
0
0
3.1132e-17
-2.53325e-17
-1.52304e-17
4.82302e-18
-5.20026e-18
2.83849e-18
0
2.78944e-17
2.11655e-16
-1.53725e-16
-1.26986e-16
-1.80269e-16
-4.05418e-17
7.68923e-17
0
-5.88562e-17
-4.06135e-17
3.45635e-17
-2.45905e-17
1.74001e-17
0
6.10236e-18
1.00349e-17
0
0
0
-2.71262e-17
3.01754e-16
9.57617e-17
-3.86048e-16
9.50247e-17
7.54463e-17
0
0
5.40626e-17
-2.8849e-17
-3.34304e-17
2.37835e-17
-1.68272e-17
0
-3.27035e-18
2.36853e-18
0
-1.94242e-18
-6.9227e-19
-1.71884e-16
5.04869e-16
-5.84552e-16
-2.05037e-16
1.11197e-16
-6.8985e-17
5.19426e-17
0
-2.76772e-17
2.09811e-17
0
0
5.77306e-18
-5.77971e-18
1.3438e-18
-2.12098e-18
2.60126e-18
5.00052e-19
5.26171e-19
9.31665e-17
-7.9445e-17
3.7216e-16
-2.36932e-16
-8.35695e-17
1.56739e-17
1.11074e-16
3.49028e-17
2.6483e-17
0
1.06006e-17
-9.63294e-18
6.6149e-18
-4.89354e-18
4.87986e-18
-7.76765e-18
-2.00903e-18
1.68963e-18
4.08093e-19
2.40386e-16
-2.48304e-16
0
1.80405e-16
-9.88e-17
-6.10922e-17
3.19517e-17
-1.10431e-16
0
-1.92087e-18
-1.35021e-17
-7.86339e-18
9.38631e-18
-1.08523e-18
-4.7163e-18
3.09441e-18
0
8.86129e-19
-3.96255e-19
4.33965e-16
-7.10076e-17
2.72154e-16
-2.11427e-16
9.3694e-17
-4.01632e-18
-9.70457e-17
-2.52608e-17
4.26689e-17
-2.6143e-18
-1.70572e-17
1.31677e-17
-5.23848e-18
-5.38174e-18
0
0
0
-8.92807e-19
3.14985e-20
-3.70699e-16
3.56804e-16
2.16877e-19
4.50935e-17
3.50518e-17
-7.20482e-17
7.80389e-17
-5.56325e-17
4.17745e-17
-1.04568e-17
1.9272e-17
5.39254e-18
-2.02827e-18
1.02889e-19
-4.40509e-19
-7.96992e-19
0
0
0
0
0
1.49881e-16
-8.88898e-17
-2.07633e-16
0
0
-1.60191e-17
-2.18802e-17
1.57255e-17
0
-6.80098e-18
4.46111e-18
-1.21643e-17
1.342e-17
-3.52886e-18
3.72738e-18
3.65898e-19
0
-7.1636e-17
7.25177e-17
0
-4.85527e-17
4.82271e-17
6.93527e-17
0
1.6172e-17
1.52153e-17
-7.41342e-17
0
-8.03205e-18
5.32547e-18
3.1035e-18
-1.99603e-18
2.64438e-18
0
-8.19604e-19
0
-3.68995e-17
-3.46703e-17
2.04688e-18
4.98867e-17
-1.21653e-16
0
-2.50085e-17
0
5.26336e-17
1.77888e-17
0
3.17463e-17
-2.97035e-17
3.75462e-18
-3.95647e-18
2.04033e-18
5.12127e-18
1.6544e-18
-1.31272e-18
0
7.42216e-17
-5.8739e-17
7.17826e-17
7.57593e-17
0
4.97972e-17
-4.48031e-17
-2.87365e-17
3.56731e-17
-5.27399e-17
-2.07405e-17
0
0
2.78277e-18
0
0
6.21172e-19
0
-3.38955e-16
2.62325e-16
0
5.89024e-18
-4.27209e-17
-2.13885e-18
3.3123e-17
1.85168e-17
-2.68298e-17
-5.11619e-17
6.86395e-17
-1.91889e-17
0
-6.26272e-18
0
0
0
-2.43222e-18
1.95306e-18
-9.82296e-17
8.76001e-17
2.16221e-16
-2.06006e-16
5.90341e-17
4.77401e-18
-3.35527e-17
2.57692e-17
3.87415e-17
2.54185e-17
-4.95798e-17
0
1.77847e-17
-6.79969e-20
-7.1662e-18
-1.26437e-17
1.00819e-17
-1.22605e-18
2.50718e-18
-3.41032e-16
4.47544e-16
-4.38547e-16
7.0973e-17
5.44492e-17
-4.96808e-17
3.96066e-17
-2.72514e-17
0
-1.89903e-17
2.52236e-17
1.07132e-17
1.55773e-17
1.57729e-17
-2.278e-17
-1.02013e-18
0
-1.12764e-18
3.88181e-19
-3.68626e-16
-1.0235e-16
-1.65866e-16
9.1174e-17
-1.30355e-16
1.03798e-16
-5.93306e-17
4.4264e-17
-4.78098e-18
-4.56733e-18
-2.87408e-17
1.82123e-17
-6.62855e-18
2.17211e-17
-2.33178e-17
1.74e-18
2.10718e-18
0
-7.15548e-19
3.98566e-16
-1.1111e-16
0
0
-1.33758e-16
2.5363e-16
-5.60928e-17
-9.20806e-18
7.08733e-17
-2.12308e-18
0
0
-1.13792e-17
0
-2.15851e-17
4.93163e-17
-3.31787e-17
0
3.17619e-19
1.33258e-16
2.39412e-16
0
-9.33215e-17
-6.80452e-17
-5.38624e-17
-5.89401e-17
2.1704e-17
-5.79792e-17
-2.82107e-17
0
0
1.85561e-17
0
0
-3.15301e-17
5.26847e-17
0
0
9.15265e-16
-1.23217e-16
-5.22971e-16
-2.58934e-16
3.53495e-16
1.03338e-16
5.71497e-17
0
-1.83282e-17
1.60613e-17
4.03433e-17
-1.25343e-17
-1.62831e-17
2.4556e-17
-2.612e-17
-7.03468e-18
0
0
0
7.329e-17
-5.50327e-16
5.37171e-16
-4.8637e-17
-3.51031e-16
5.35351e-16
-2.61455e-16
0
0
1.13038e-16
-9.06287e-17
0
-2.36098e-17
4.19602e-17
-4.0686e-18
1.15549e-17
3.37273e-18
4.94776e-20
6.9772e-19
0
0
0
4.2041e-16
-2.83388e-16
2.69989e-16
-4.14725e-16
1.14215e-16
0
-3.62755e-17
5.43255e-17
-5.55239e-17
-9.95469e-18
2.99412e-19
-6.35188e-18
-7.84966e-19
-5.06346e-18
-1.45853e-18
-7.75351e-19
6.06016e-16
-1.06318e-15
4.95329e-16
0
1.18012e-16
-1.61733e-16
1.48869e-16
-1.17755e-16
0
-5.01675e-17
7.0464e-17
0
0
2.79707e-19
0
-7.11477e-18
4.80981e-18
7.47062e-19
1.25625e-18
6.05814e-16
0
-2.19536e-16
2.44778e-16
-1.42199e-16
3.05927e-16
-1.41514e-16
-1.01909e-16
1.02973e-16
-9.93434e-18
0
0
5.78747e-18
-9.21252e-18
-6.41818e-18
1.20424e-17
-2.5994e-18
1.27538e-18
0
3.43388e-16
2.538e-16
-1.63076e-17
-2.34356e-16
-2.23722e-17
-1.53126e-16
2.14664e-17
1.23577e-16
-6.04935e-18
1.01209e-17
0
0
-5.92888e-18
0
6.76215e-18
-7.23388e-18
0
9.15535e-19
-2.51098e-19
-1.82142e-16
-1.27524e-16
1.19553e-16
-1.30005e-17
-5.64198e-18
1.46572e-17
0
-3.60204e-18
5.11312e-17
-4.30445e-17
0
1.33022e-17
-2.86042e-18
-1.14829e-17
-1.02856e-18
-7.93426e-19
0
-7.18106e-19
0
7.26116e-17
-1.36235e-16
1.34908e-19
5.58994e-17
4.78434e-17
-4.73379e-17
-3.12536e-17
3.52957e-17
-1.13084e-17
8.90376e-18
-8.08077e-18
8.33e-18
0
2.01009e-20
-7.5937e-19
2.71735e-18
-9.21587e-21
0
0
7.26142e-17
-7.23421e-17
-5.5603e-17
4.93791e-17
8.43571e-17
-8.48551e-17
-1.56275e-17
1.56669e-17
-1.14058e-17
1.15247e-17
-8.08122e-18
1.50744e-17
-4.22883e-18
-2.93785e-18
-8.75391e-19
2.96047e-19
6.86735e-19
1.80267e-19
-1.35066e-19
0
-1.69654e-17
9.65297e-17
-1.0498e-16
8.40154e-17
-7.46964e-17
0
5.30031e-17
-4.75665e-17
0
1.59673e-17
-2.01293e-17
-1.09584e-17
1.14851e-17
2.0359e-18
0
0
-7.18339e-19
2.6028e-19
2.88678e-16
-5.2424e-16
5.1848e-16
-4.4012e-16
1.70399e-16
-1.33829e-16
1.27501e-16
1.41381e-17
-5.02441e-17
4.47733e-17
0
-2.94268e-17
2.68642e-17
-4.8509e-18
-1.99416e-18
3.01072e-18
2.19162e-18
6.9737e-19
-2.5149e-19
6.81944e-16
0
-2.48889e-16
1.93704e-16
2.21158e-17
-1.60229e-16
2.78089e-16
-2.36889e-16
9.13181e-17
-3.59491e-17
3.6797e-17
6.99304e-18
1.13211e-17
4.72483e-18
-3.70227e-18
-5.52169e-19
-4.71463e-18
0
4.56535e-19
5.30906e-16
-5.97658e-16
0
5.04199e-17
2.05066e-16
-1.99102e-16
3.17272e-17
2.68363e-17
1.14296e-17
1.88302e-17
0
0
-1.9523e-17
3.53449e-17
-1.26934e-17
-4.39586e-18
4.81273e-18
3.77362e-19
-8.5846e-19
6.7216e-17
5.25522e-16
-5.74557e-17
-3.70732e-16
3.26278e-16
3.65935e-17
-3.10509e-17
-2.62111e-17
7.96708e-17
-9.86114e-17
5.43552e-17
-5.55535e-17
7.64716e-18
-1.06178e-17
1.74208e-17
-1.17155e-17
0
0
7.52071e-19
0
1.29116e-16
-3.65289e-16
4.188e-16
-3.09516e-16
3.08779e-16
0
9.16561e-17
-9.20761e-17
-6.2227e-17
9.07217e-17
0
3.319e-17
-4.2007e-17
-6.0544e-18
0
-6.14573e-19
-1.08196e-18
-1.01398e-19
-1.26791e-15
5.9325e-16
0
-3.53468e-16
3.53432e-16
1.96043e-16
-1.28198e-16
4.73403e-17
0
-1.86887e-18
1.1582e-17
-1.25227e-17
-1.62701e-17
2.45349e-17
-2.60887e-17
0
4.74785e-18
-7.41803e-19
-6.77656e-19
7.70355e-16
-7.48483e-16
0
9.21078e-17
7.9095e-17
-6.95008e-17
0
-4.96131e-17
-3.81026e-17
0
-3.33986e-18
0
1.85738e-17
0
0
6.28785e-18
2.28357e-17
-3.00672e-17
0
7.7529e-21
1.11167e-16
-9.73919e-17
7.06468e-17
-3.63412e-16
1.34291e-16
0
9.21758e-18
2.55684e-17
0
-2.26819e-17
5.64211e-17
-5.92736e-17
8.36542e-18
0
-1.63336e-18
0
0
0
3.29517e-20
0
9.00145e-17
0
-1.1838e-16
1.20262e-16
0
3.42633e-17
-2.45669e-17
8.36142e-17
-3.915e-17
1.16737e-17
-1.7019e-17
1.41817e-17
-2.33661e-17
-3.51859e-18
0
-1.57528e-18
0
2.93859e-16
-4.98412e-16
0
-7.02217e-17
5.84206e-17
0
0
-6.12881e-17
0
-1.90124e-17
-2.52561e-17
-1.07292e-17
1.56037e-17
0
5.93804e-18
0
0
3.25516e-18
-3.37825e-18
0
4.13687e-16
-3.29248e-16
6.50093e-17
-5.40978e-17
-1.9274e-17
5.31616e-17
5.32353e-17
-5.61187e-17
1.77544e-17
2.74167e-18
-1.13466e-17
4.48499e-17
-1.36386e-17
-2.57119e-17
8.16109e-18
-1.6562e-18
1.01717e-18
-2.49118e-19
-7.1789e-16
2.62454e-16
0
0
2.16152e-17
-2.19802e-17
1.18721e-17
5.05536e-18
4.86264e-17
2.1127e-17
-1.97378e-17
-1.7109e-18
-8.00382e-18
6.27346e-18
0
2.16506e-18
1.51802e-18
6.73699e-19
2.25168e-19
0
2.17557e-16
-1.92578e-16
5.96277e-17
5.34172e-17
-9.98097e-18
-2.76151e-17
-2.09237e-17
-5.97287e-17
2.04297e-17
-8.97192e-18
1.47379e-17
7.48456e-18
-7.33395e-18
7.78454e-18
3.69953e-18
-5.14191e-18
-6.22261e-19
0
-4.16356e-17
-1.75119e-16
5.84197e-17
4.99031e-17
-1.53652e-16
1.0505e-16
4.21745e-17
-4.31088e-17
2.72805e-17
-1.93888e-17
0
0
-9.3979e-18
1.59361e-17
-6.45378e-18
4.75167e-18
-5.24258e-18
7.42773e-19
-1.31477e-18
7.65024e-17
6.7899e-17
-5.75407e-17
3.75272e-17
-4.83056e-17
-6.014e-17
0
0
0
0
0
0
4.78661e-18
-1.04668e-17
1.10698e-17
-2.81583e-18
3.52941e-18
1.45008e-18
-1.21351e-18
1.61531e-16
-2.47462e-16
3.07546e-16
-1.20691e-16
1.69711e-16
-9.88159e-17
1.74527e-16
-9.01964e-17
-3.6668e-17
3.75097e-17
0
6.79744e-18
-4.67627e-18
9.13917e-18
-3.85166e-18
-3.79149e-18
-6.37314e-18
5.30327e-19
1.00949e-18
2.53055e-16
6.71705e-17
0
-8.9985e-17
-6.11501e-17
1.32699e-16
6.98549e-18
-4.18937e-17
2.28758e-17
-1.31311e-17
0
-5.38094e-18
0
-3.25218e-18
2.39569e-18
-1.88148e-18
-5.89454e-19
3.60623e-19
0
3.51127e-16
-7.10065e-17
2.72233e-16
-2.11706e-16
-3.72589e-17
1.26203e-16
-7.52996e-17
5.16659e-18
3.66295e-18
-1.30261e-17
1.18819e-17
0
0
4.28966e-18
-1.15508e-18
6.34814e-19
2.12501e-18
-7.3044e-19
0
5.89407e-20
0
-6.22033e-17
3.31565e-16
-2.18668e-16
-1.96491e-16
1.0616e-16
-8.76088e-17
7.78682e-17
3.21549e-17
-2.07517e-17
7.49074e-18
-6.17432e-18
1.36356e-18
7.43489e-18
-9.3276e-21
-2.14846e-18
2.0642e-18
-4.38749e-19
8.36284e-16
-2.6256e-16
1.0798e-16
-3.4332e-16
8.35692e-17
-1.1568e-16
6.49486e-17
0
0
-2.0834e-18
-3.27747e-18
-9.32707e-19
0
-7.32977e-18
-4.88001e-18
3.19754e-18
-2.2032e-19
5.18042e-19
9.23979e-19
0
-2.52628e-16
3.94684e-16
6.78195e-17
-2.92511e-16
6.89849e-17
-9.23804e-17
2.34926e-17
6.7228e-17
0
0
1.06888e-18
8.39257e-18
0
-5.6361e-18
-2.2439e-18
3.457e-19
-9.44754e-19
-1.20145e-18
0
-1.50839e-16
5.14904e-17
2.66273e-16
1.70041e-16
-3.01506e-16
1.30513e-16
-7.41772e-17
4.13481e-17
-4.64675e-17
0
0
0
-1.187e-17
2.11443e-18
-3.28647e-18
0
-1.79516e-19
8.74956e-19
-6.2113e-16
5.8016e-16
5.62169e-16
-6.77647e-16
2.79985e-16
-2.57337e-16
0
7.99066e-17
-1.04771e-16
5.54646e-17
-3.70131e-17
2.67456e-17
1.92717e-17
1.22762e-17
8.68778e-18
0
0
0
0
7.06245e-16
-3.85256e-16
0
0
-1.06189e-16
2.31682e-16
-1.46607e-16
-8.60644e-17
8.50943e-17
5.27e-17
7.93249e-17
-2.77512e-17
1.11397e-17
7.23231e-18
4.79837e-18
4.06422e-18
6.3412e-18
-2.99506e-19
3.05073e-19
-7.07161e-16
6.32269e-16
3.08046e-16
-1.64458e-16
3.10445e-16
-1.97061e-16
-1.37385e-16
-1.05538e-16
0
-1.11361e-16
8.59258e-18
3.37251e-17
-2.29209e-17
-1.68996e-17
-5.85999e-18
-5.47755e-18
-4.41351e-18
0
0
-2.43267e-16
0
1.72734e-16
5.51345e-20
0
0
1.41717e-16
1.08901e-16
0
6.2021e-17
0
-5.07999e-17
-1.32962e-17
2.27715e-17
0
1.40027e-17
-1.90593e-18
1.94431e-18
0
5.27207e-16
0
3.23924e-16
-5.84264e-16
4.9542e-16
3.57106e-16
-1.80447e-17
0
1.14255e-17
7.78156e-17
0
-6.07921e-17
6.24192e-17
-5.38353e-17
-1.13872e-17
-1.10282e-17
-3.54438e-18
-6.95961e-19
-2.99267e-18
-4.72782e-16
6.76245e-16
-1.79737e-16
-4.43386e-16
-2.40305e-16
-1.92561e-16
-3.05177e-16
-1.07282e-16
1.38133e-17
3.27812e-17
-3.27196e-17
9.27835e-17
-4.00825e-17
7.53677e-17
-1.39775e-17
0
1.82262e-17
-1.15299e-17
2.90221e-18
1.08423e-15
-3.16656e-17
-7.51052e-16
5.71141e-16
-4.88105e-16
3.95026e-16
-1.90564e-17
-1.26645e-16
1.01917e-16
3.5888e-17
-6.60191e-18
-7.92988e-17
2.08888e-17
2.72779e-17
-7.24264e-18
7.32525e-18
-1.88779e-17
-4.36899e-18
-6.14624e-18
5.32259e-16
2.12217e-16
3.54981e-16
-2.9288e-16
-2.18939e-16
1.97413e-17
-1.44143e-16
3.4309e-16
1.66734e-17
1.37825e-16
7.67165e-17
-6.61486e-17
0
-4.19433e-17
0
0
3.46266e-17
1.42646e-17
7.056e-18
4.89757e-16
0
3.4792e-16
2.9099e-16
-2.41236e-16
1.9685e-16
0
-1.32002e-16
-1.75125e-16
-1.42776e-16
-7.73956e-17
6.68965e-17
0
0
0
0
-3.25845e-17
-2.92628e-17
0
-9.58965e-16
0
-2.70188e-17
-2.43137e-17
3.71322e-16
-1.88554e-16
-8.24116e-17
-8.33979e-17
1.82105e-16
0
4.52613e-17
-4.60668e-18
4.62889e-17
0
0
6.51837e-17
-4.96742e-18
3.52171e-17
-1.58737e-17
6.68458e-16
1.80749e-16
-1.78883e-16
-1.48854e-16
-4.75465e-16
3.10262e-16
3.54092e-16
-1.58932e-17
-1.281e-16
1.32371e-16
2.66667e-17
-1.41605e-16
-1.10035e-16
-7.74318e-17
-8.38516e-17
-7.53877e-17
7.24654e-17
-3.33886e-18
1.6258e-17
-2.01768e-16
8.75278e-17
-4.13932e-16
6.50856e-17
-6.48488e-17
0
-1.78587e-16
-2.16236e-17
-1.65501e-16
2.46471e-17
1.61696e-16
1.11546e-16
-2.94114e-17
2.10634e-18
7.91133e-17
0
-1.57567e-16
-6.2324e-17
-1.27115e-18
4.21358e-16
-1.07208e-17
6.51561e-16
-2.99021e-16
8.93356e-19
7.39405e-18
2.17273e-16
-2.79471e-17
1.60509e-16
-1.49683e-16
-1.41892e-16
0
1.61674e-16
1.22754e-16
1.87586e-18
-2.7554e-18
8.82562e-17
6.33265e-17
0
-2.97146e-16
0
-5.9633e-17
2.87971e-16
6.0257e-18
6.32201e-17
-2.101e-16
1.95432e-16
2.2039e-16
2.12597e-16
2.0713e-16
0
-1.57064e-16
0
9.28157e-18
-9.63974e-18
0
-9.91666e-19
5.00473e-17
2.12474e-16
1.64093e-17
-1.4901e-16
4.68408e-16
-1.47478e-16
0
0
-2.63472e-16
-2.13535e-16
-2.05959e-16
-3.92248e-16
-5.52239e-17
0
0
0
-2.03188e-17
2.15024e-17
1.42267e-16
-5.0833e-17
1.7309e-17
0
-3.38634e-16
-2.95962e-16
3.18974e-16
-3.18155e-16
-4.49917e-16
5.34442e-16
1.59388e-16
0
2.38379e-16
2.88013e-16
-6.21277e-17
3.44182e-16
-5.68575e-17
5.91748e-17
2.35529e-16
-1.35201e-16
0
-4.03406e-16
0
-3.79711e-16
3.69475e-16
0
6.3981e-16
2.95521e-16
-6.3727e-16
5.25094e-16
-2.41466e-18
-1.55731e-16
-2.78856e-16
0
4.09626e-16
-6.79028e-16
7.31325e-16
-9.32632e-16
0
0
4.03163e-16
-4.08289e-18
-9.96739e-18
-7.54486e-16
7.67544e-16
-3.6698e-16
3.65484e-16
3.60415e-16
-3.05344e-16
0
0
6.13457e-16
-6.24025e-16
-6.56416e-16
6.53889e-16
-6.39458e-16
6.93642e-16
-1.08857e-15
0
)
;

boundaryField
{
    up
    {
        type            calculated;
        value           nonuniform List<scalar> 
84
(
0
0
0
0
-3.56465e-17
6.3197e-17
-2.58835e-17
1.6258e-17
-1.43619e-17
0
-7.9203e-18
7.43677e-18
-3.86065e-18
8.6125e-19
6.2581e-19
2.01941e-18
0
0
-6.9227e-19
5.26171e-19
4.08093e-19
-3.96255e-19
3.14985e-20
0
1.48638e-19
9.02313e-20
-1.21057e-18
0
1.95306e-18
2.7374e-18
3.88181e-19
-7.15548e-19
3.17619e-19
0
-1.21009e-19
7.06841e-19
-7.64588e-19
1.24717e-18
0
-2.48833e-19
0
0
-1.3486e-19
2.6028e-19
-2.5149e-19
4.56535e-19
-8.5846e-19
7.52071e-19
-1.01398e-19
-6.77656e-19
0
0
0
-3.37825e-18
-4.80044e-19
2.25168e-19
0
-1.31477e-18
-1.21351e-18
8.61213e-19
0
0
-4.38749e-19
9.23979e-19
-1.20145e-18
8.74956e-19
0
3.05073e-19
0
0
-2.99267e-18
2.90221e-18
-6.14624e-18
7.056e-18
0
-1.58737e-17
1.6258e-17
-1.27115e-18
0
5.00473e-17
-5.0833e-17
0
0
0
)
;
    }
    low
    {
        type            calculated;
        value           nonuniform List<scalar> 
84
(
-8.07608e-16
8.00699e-16
-3.83642e-16
6.16113e-16
1.09373e-16
-2.84278e-17
2.37539e-16
3.53881e-17
0
9.84196e-16
-2.49473e-16
1.85951e-16
-2.19974e-16
-1.48842e-15
2.43151e-16
0
-2.26138e-16
2.78944e-17
-2.71262e-17
-1.71884e-16
9.31665e-17
2.40386e-16
4.31852e-16
-3.70699e-16
0
-7.1636e-17
-3.68995e-17
0
-3.38955e-16
-9.82296e-17
-3.398e-16
-3.67755e-16
3.98107e-16
1.33258e-16
9.1564e-16
7.329e-17
0
6.06016e-16
6.07682e-16
3.44377e-16
-1.82659e-16
7.26116e-17
7.26142e-17
0
2.88678e-16
6.83812e-16
5.30906e-16
6.86412e-17
0
-1.26829e-15
7.70355e-16
7.7529e-21
3.29517e-20
2.93859e-16
0
-7.15602e-16
0
-4.16356e-17
7.65024e-17
1.60133e-16
2.50695e-16
3.49013e-16
5.89407e-20
8.34723e-16
0
0
-6.2113e-16
7.05763e-16
-7.06966e-16
-2.43267e-16
5.27522e-16
-4.72782e-16
1.08693e-15
5.34042e-16
4.89757e-16
-9.58965e-16
6.66517e-16
-1.99697e-16
4.21358e-16
-2.96272e-16
2.12474e-16
1.89687e-17
-4.03406e-16
4.03617e-16
)
;
    }
    left
    {
        type            calculated;
        value           nonuniform List<scalar> 
19
(
-8.067e-16
-3.88032e-16
3.98955e-16
1.33888e-17
-7.47178e-16
0
-3.40661e-16
-3.36016e-16
-3.06148e-17
-1.80734e-16
-1.18394e-18
-1.81093e-16
8.14487e-16
-1.8056e-16
8.40716e-16
7.27825e-16
4.3357e-16
6.37707e-16
0
)
;
    }
    right
    {
        type            calculated;
        value           nonuniform List<scalar> 
19
(
4.03163e-16
-3.66098e-18
-9.96739e-18
-7.54585e-16
7.67955e-16
-3.6698e-16
3.65484e-16
3.60415e-16
-3.03955e-16
0
0
6.19192e-16
-6.31922e-16
-6.56416e-16
6.53889e-16
-6.39458e-16
6.93642e-16
-1.17695e-15
0
)
;
    }
    frontAndBackPlanes
    {
        type            empty;
    }
}


// ************************************************************************* //
