/*--------------------------------*- C++ -*----------------------------------*\
  =========                 |
  \\      /  F ield         | OpenFOAM: The Open Source CFD Toolbox
   \\    /   O peration     | Website:  https://openfoam.org
    \\  /    A nd           | Version:  7
     \\/     M anipulation  |
\*---------------------------------------------------------------------------*/
FoamFile
{
    version     2.0;
    format      ascii;
    class       volScalarField;
    location    "0.2";
    object      gradTx;
}
// * * * * * * * * * * * * * * * * * * * * * * * * * * * * * * * * * * * * * //

dimensions      [0 -1 0 1 0 0 0];

internalField   nonuniform List<scalar> 
1596
(
-0.145888
-0.731717
-1.30834
-1.82448
-2.27528
-2.65842
-2.99167
-3.28658
-3.55948
-3.84135
-4.14182
-4.49834
-4.95414
-5.57058
-6.41891
-7.6751
-9.60883
-12.8017
-18.4565
0.0324712
-0.607893
-1.17564
-1.66338
-2.08158
-2.43196
-2.73073
-2.98376
-3.20343
-3.40631
-3.59537
-3.79148
-4.00339
-4.24333
-4.50631
-4.78105
-4.99275
-4.98719
-4.4358
0.178976
-0.493894
-1.04259
-1.496
-1.87629
-2.19023
-2.4519
-2.66521
-2.83856
-2.9811
-3.09268
-3.18474
-3.25628
-3.30736
-3.32674
-3.29358
-3.14863
-2.78686
-2.00033
0.203383
-0.43078
-0.930763
-1.3366
-1.67241
-1.94716
-2.17188
-2.34968
-2.48592
-2.58539
-2.64727
-2.67736
-2.6726
-2.63
-2.54051
-2.38755
-2.13365
-1.71668
-1.01359
0.0641215
-0.445444
-0.859977
-1.20167
-1.48555
-1.71839
-1.90691
-2.05332
-2.16054
-2.23045
-2.26258
-2.25911
-2.21718
-2.13348
-2.00222
-1.81187
-1.54092
-1.15461
-0.582995
-0.226154
-0.548343
-0.845629
-1.10701
-1.33116
-1.51867
-1.67089
-1.78841
-1.87193
-1.92113
-1.93594
-1.91604
-1.85913
-1.76209
-1.6215
-1.42931
-1.17384
-0.836032
-0.376965
-0.611754
-0.731146
-0.894514
-1.06376
-1.22118
-1.35937
-1.47388
-1.56291
-1.62501
-1.65801
-1.66187
-1.63451
-1.57395
-1.47712
-1.34195
-1.16242
-0.932361
-0.641316
-0.2678
-1.015
-0.95918
-0.992956
-1.06773
-1.15555
-1.24196
-1.3175
-1.37761
-1.41879
-1.43731
-1.43277
-1.40181
-1.34248
-1.25166
-1.12781
-0.96601
-0.762972
-0.512788
-0.203614
-1.43196
-1.253
-1.17215
-1.15215
-1.16499
-1.19293
-1.22334
-1.24921
-1.26521
-1.2663
-1.25126
-1.21584
-1.15774
-1.07357
-0.961783
-0.817867
-0.639752
-0.423703
-0.162861
-1.68246
-1.45907
-1.31094
-1.2232
-1.17674
-1.15557
-1.1468
-1.14219
-1.13539
-1.12061
-1.09584
-1.05642
-0.999722
-0.922235
-0.822219
-0.695507
-0.540512
-0.354629
-0.13365
-1.88752
-1.64598
-1.45766
-1.3199
-1.22342
-1.15695
-1.10975
-1.07377
-1.04249
-1.00984
-0.973207
-0.927749
-0.87049
-0.797763
-0.707515
-0.595698
-0.460718
-0.300392
-0.111834
-2.0978
-1.85526
-1.64204
-1.46505
-1.32369
-1.21261
-1.12478
-1.05374
-0.993679
-0.938802
-0.886121
-0.830746
-0.769359
-0.698078
-0.614433
-0.514324
-0.395856
-0.256825
-0.0948092
-2.15834
-1.9483
-1.74041
-1.55112
-1.38713
-1.24874
-1.13302
-1.03594
-0.953228
-0.879983
-0.813413
-0.748975
-0.683312
-0.612574
-0.53408
-0.443803
-0.339611
-0.219242
-0.0804327
-2.17722
-2.0024
-1.81148
-1.62267
-1.44724
-1.29032
-1.1529
-1.03383
-0.930771
-0.840175
-0.759815
-0.685712
-0.614646
-0.542893
-0.467633
-0.384918
-0.292378
-0.187635
-0.0684381
-2.17917
-2.03612
-1.86593
-1.68478
-1.50555
-1.33669
-1.18258
-1.04496
-0.923651
-0.816712
-0.722788
-0.638612
-0.561245
-0.487156
-0.413454
-0.336265
-0.253006
-0.161155
-0.0583841
-2.1324
-2.02358
-1.87858
-1.71257
-1.53846
-1.36652
-1.20352
-1.05372
-0.919065
-0.799308
-0.694195
-0.601327
-0.518211
-0.441622
-0.368721
-0.295755
-0.220012
-0.138869
-0.0499073
-2.03408
-1.95806
-1.84092
-1.69577
-1.53457
-1.3681
-1.20454
-1.04998
-0.908191
-0.780532
-0.667933
-0.568962
-0.481707
-0.403366
-0.331262
-0.261841
-0.192359
-0.120164
-0.042795
-1.91647
-1.86166
-1.76921
-1.64602
-1.50146
-1.3457
-1.18737
-1.03371
-0.8899
-0.758663
-0.64204
-0.539562
-0.449946
-0.37086
-0.299856
-0.233607
-0.169408
-0.104653
-0.0368985
-1.81794
-1.7801
-1.70645
-1.60089
-1.47041
-1.32417
-1.17095
-1.01875
-0.873829
-0.740075
-0.620468
-0.515372
-0.424045
-0.344539
-0.274579
-0.210981
-0.15105
-0.0922264
-0.0321473
-1.64017
-1.62515
-1.57383
-1.49066
-1.38099
-1.2525
-1.11333
-0.971465
-0.833726
-0.704761
-0.588308
-0.485515
-0.396222
-0.318964
-0.251739
-0.191571
-0.135827
-0.0820811
-0.0282535
-1.44076
-1.44375
-1.41265
-1.35087
-1.26253
-1.15387
-1.03206
-0.904658
-0.778535
-0.658732
-0.549432
-0.452378
-0.367903
-0.295006
-0.231975
-0.176018
-0.124454
-0.0748242
-0.0254108
-1.23064
-1.24507
-1.23064
-1.18835
-1.12081
-1.03283
-0.930469
-0.820534
-0.709596
-0.60272
-0.504199
-0.416134
-0.339201
-0.272826
-0.215635
-0.165047
-0.118188
-0.0720385
-0.0244734
-0.995473
-1.01533
-1.01435
-0.990675
-0.944901
-0.880062
-0.800842
-0.712901
-0.622128
-0.533227
-0.450226
-0.375341
-0.309411
-0.252277
-0.203053
-0.159649
-0.119151
-0.0775423
-0.0298467
-0.728202
-0.717759
-0.691968
-0.651288
-0.598545
-0.537745
-0.473484
-0.409908
-0.350567
-0.297598
-0.251921
-0.213359
-0.180872
-0.153253
-0.12932
-0.107649
-0.0862147
-0.0614901
-0.0274299
-0.486663
-0.53938
-0.593624
-0.63881
-0.667831
-0.67671
-0.665197
-0.635584
-0.592382
-0.540604
-0.484695
-0.428548
-0.374368
-0.32414
-0.279215
-0.240352
-0.206695
-0.175745
-0.14163
-0.164034
-0.187223
-0.2168
-0.246911
-0.273179
-0.292558
-0.303989
-0.307527
-0.304685
-0.297272
-0.286325
-0.273071
-0.257206
-0.239075
-0.219406
-0.200192
-0.182655
-0.168177
-0.15653
0.15923
0.130809
0.0896991
0.0412989
-0.00919446
-0.0574509
-0.100697
-0.137461
-0.167797
-0.192455
-0.211624
-0.225655
-0.233379
-0.23418
-0.228202
-0.21788
-0.20559
-0.194203
-0.184655
0.481134
0.44228
0.385623
0.317163
0.242755
0.16758
0.0954982
0.0288742
-0.031479
-0.0857315
-0.133688
-0.175084
-0.207907
-0.230124
-0.240397
-0.240646
-0.233986
-0.224949
-0.215921
0.770864
0.715089
0.63943
0.550856
0.455419
0.358475
0.264086
0.174692
0.0912184
0.0134548
-0.0585634
-0.124507
-0.181876
-0.227101
-0.256417
-0.269796
-0.269921
-0.262952
-0.253443
1.06934
0.992368
0.895083
0.784717
0.667535
0.549077
0.433449
0.322975
0.218454
0.119353
0.0251815
-0.0643486
-0.147084
-0.218583
-0.272303
-0.304672
-0.315649
-0.31197
-0.301181
1.29217
1.19109
1.07294
0.944674
0.8124
0.681043
0.55391
0.432499
0.316967
0.206103
0.098615
-0.00696599
-0.109858
-0.206218
-0.287623
-0.34606
-0.375248
-0.378723
-0.365719
1.49852
1.37703
1.23867
1.09312
0.946772
0.803956
0.667176
0.537162
0.413537
0.294559
0.178275
0.0618708
-0.0561179
-0.174585
-0.286152
-0.380479
-0.442852
-0.467067
-0.458245
1.68707
1.53889
1.37899
1.21715
1.05901
0.907722
0.764724
0.629912
0.50247
0.380359
0.261406
0.142036
0.0187036
-0.111524
-0.246093
-0.37878
-0.490834
-0.562683
-0.574963
1.80578
1.61733
1.42507
1.23758
1.05901
0.89108
0.734159
0.587472
0.449875
0.319299
0.19355
0.0690664
-0.0585926
-0.195461
-0.345647
-0.513319
-0.690293
-0.860304
-0.992599
1.87588
1.67096
1.47702
1.29918
1.1377
0.99126
0.857919
0.735595
0.622465
0.516734
0.417078
0.321859
0.229156
0.135943
0.0380356
-0.0731933
-0.205952
-0.369576
-0.567284
1.92524
1.71453
1.52771
1.36243
1.21489
1.08184
0.960371
0.848262
0.74389
0.645897
0.553602
0.466565
0.384394
0.307056
0.234914
0.167475
0.103812
0.0405615
-0.0287659
1.816
1.57591
1.37203
1.19629
1.04263
0.90675
0.785148
0.675182
0.574894
0.482555
0.397157
0.317984
0.244391
0.176234
0.114032
0.0583808
0.0104927
-0.0281125
-0.0567415
1.58935
1.37215
1.19044
1.03574
0.90196
0.784718
0.680581
0.586962
0.502005
0.424141
0.352464
0.286355
0.225222
0.168817
0.11725
0.0704887
0.0286603
-0.00793711
-0.0394283
1.31702
1.13564
0.983351
0.854004
0.742686
0.645634
0.559873
0.483126
0.413774
0.350449
0.29234
0.238867
0.189439
0.143721
0.101654
0.0630639
0.0279448
-0.00346748
-0.0312433
0.989591
0.850203
0.734269
0.636668
0.5533
0.481043
0.417488
0.36081
0.30973
0.263175
0.220498
0.181231
0.144889
0.111182
0.0800412
0.0513288
0.0250603
0.00146644
-0.0194577
0.622314
0.529422
0.454576
0.392783
0.340633
0.29577
0.256503
0.221598
0.190208
0.161632
0.135444
0.111333
0.0889732
0.0681658
0.0488532
0.0309431
0.0144498
-0.000454711
-0.0137366
0.238653
0.201018
0.171799
0.148012
0.128015
0.110817
0.0957648
0.082396
0.0703981
0.0595108
0.0495673
0.0404385
0.0319887
0.0241236
0.016797
0.00995169
0.00356912
-0.00230603
-0.00766603
-0.238538
-0.200762
-0.171446
-0.147595
-0.127558
-0.11034
-0.0952813
-0.0819194
-0.0699391
-0.0590785
-0.0491696
-0.040082
-0.0316792
-0.0238661
-0.0165954
-0.00980918
-0.00348765
0.00232625
0.00762604
-0.622207
-0.529195
-0.454265
-0.392418
-0.340235
-0.295356
-0.256088
-0.221192
-0.189822
-0.161274
-0.135123
-0.111053
-0.0887403
-0.0679847
-0.0487274
-0.0308754
-0.0144417
0.000403694
0.0136283
-0.989483
-0.849983
-0.733965
-0.636305
-0.552899
-0.480619
-0.417057
-0.360382
-0.309317
-0.262784
-0.220137
-0.180905
-0.144603
-0.11094
-0.0798439
-0.051177
-0.024953
-0.00140118
0.0194843
-1.31694
-1.13549
-0.983139
-0.853752
-0.742407
-0.645342
-0.559579
-0.48284
-0.413504
-0.350203
-0.292124
-0.238685
-0.189295
-0.143618
-0.101592
-0.0630427
-0.0279624
0.00341411
0.0311578
-1.58929
-1.37205
-1.1903
-1.03556
-0.901755
-0.7845
-0.680359
-0.586745
-0.501801
-0.423958
-0.352308
-0.286229
-0.225131
-0.168763
-0.117232
-0.0705044
-0.0287042
0.00787298
0.0393542
-1.81599
-1.57588
-1.37197
-1.1962
-1.04252
-0.906626
-0.785023
-0.675067
-0.574797
-0.482483
-0.397118
-0.317983
-0.244433
-0.176324
-0.114169
-0.0585596
-0.0106944
0.027919
0.0565923
-1.92523
-1.71436
-1.52734
-1.36184
-1.21407
-1.08082
-0.959188
-0.846935
-0.74245
-0.644368
-0.552005
-0.464918
-0.382706
-0.305333
-0.233169
-0.165749
-0.102205
-0.0392892
0.0293493
-1.87621
-1.67184
-1.47847
-1.30119
-1.14022
-0.994241
-0.861304
-0.739326
-0.626489
-0.521013
-0.421587
-0.326601
-0.234165
-0.141305
-0.0438864
0.0666522
0.198533
0.361219
0.558236
-1.80564
-1.61694
-1.42441
-1.23666
-1.05783
-0.889685
-0.732582
-0.585751
-0.448049
-0.317405
-0.191623
-0.0671374
0.060492
0.19731
0.347462
0.5152
0.692498
0.863272
0.996906
-1.68718
-1.53916
-1.37939
-1.21766
-1.05961
-0.908377
-0.765421
-0.630637
-0.503212
-0.381113
-0.262171
-0.142813
-0.019489
0.110759
0.245421
0.378335
0.490776
0.563105
0.57573
-1.49859
-1.3772
-1.23893
-1.09344
-0.947149
-0.804372
-0.667619
-0.537624
-0.414011
-0.295039
-0.178756
-0.0623431
0.0556784
0.174228
0.285953
0.380525
0.443181
0.46763
0.458924
-1.29225
-1.19126
-1.0732
-0.94501
-0.812792
-0.681475
-0.554367
-0.432967
-0.317434
-0.20656
-0.0990475
0.0065758
0.109541
0.206019
0.287591
0.346223
0.375587
0.379168
0.366191
-1.06941
-0.992541
-0.89535
-0.785065
-0.667944
-0.549528
-0.43392
-0.32345
-0.218915
-0.119785
-0.0255684
0.0640279
0.146857
0.21848
0.272344
0.304852
0.315932
0.312307
0.301537
-0.770925
-0.715251
-0.639686
-0.551191
-0.455814
-0.358907
-0.264533
-0.175133
-0.0916345
-0.0138292
0.0582473
0.124268
0.181732
0.227068
0.256496
0.26997
0.270158
0.263222
0.253728
-0.481203
-0.442451
-0.385892
-0.317514
-0.243166
-0.168024
-0.0959491
-0.0293076
0.0310837
0.0853918
0.133419
0.174898
0.207814
0.230127
0.240488
0.240804
0.234189
0.225177
0.216166
-0.15929
-0.130973
-0.0899613
-0.0416422
0.00879567
0.0570258
0.100275
0.137067
0.167452
0.192175
0.211417
0.225531
0.233338
0.234217
0.228305
0.218032
0.205775
0.194411
0.184883
0.163893
0.186801
0.216089
0.245939
0.272006
0.29126
0.30265
0.306223
0.303478
0.296205
0.285423
0.272345
0.25665
0.238673
0.219132
0.200022
0.182572
0.168185
0.15667
0.486759
0.539747
0.59432
0.639846
0.669178
0.678302
0.666951
0.637409
0.594195
0.542338
0.486302
0.430002
0.375659
0.325275
0.280211
0.241233
0.207486
0.176467
0.142288
0.728095
0.717384
0.691322
0.650405
0.597487
0.536584
0.472293
0.408752
0.349494
0.296643
0.251098
0.212671
0.180313
0.152811
0.128978
0.107393
0.0860316
0.0613725
0.0273814
0.995531
1.01544
1.01453
0.990897
0.945151
0.880318
0.801085
0.713115
0.622304
0.533363
0.450323
0.375406
0.30945
0.252297
0.20306
0.159648
0.119145
0.0775363
0.0298445
1.23065
1.24509
1.23065
1.18837
1.12083
1.03285
0.93048
0.820539
0.709594
0.602712
0.504187
0.416118
0.339185
0.272811
0.215621
0.165036
0.118179
0.0720337
0.0244727
1.44077
1.44376
1.41266
1.35088
1.26254
1.15388
1.03207
0.904658
0.77853
0.658723
0.54942
0.452365
0.36789
0.294994
0.231965
0.176011
0.124449
0.0748217
0.0254102
1.64018
1.62516
1.57384
1.49067
1.38099
1.25251
1.11333
0.971462
0.833719
0.704752
0.588297
0.485504
0.396212
0.318955
0.251732
0.191566
0.135824
0.0820795
0.028253
1.81795
1.78011
1.70646
1.6009
1.47042
1.32418
1.17096
1.01874
0.873823
0.740067
0.620459
0.515364
0.424037
0.344533
0.274574
0.210977
0.151047
0.092225
0.0321468
1.91647
1.86167
1.76922
1.64603
1.50147
1.3457
1.18737
1.03371
0.889895
0.758656
0.642033
0.539555
0.44994
0.370854
0.299852
0.233603
0.169406
0.104651
0.036898
2.03408
1.95807
1.84093
1.69578
1.53457
1.3681
1.20454
1.04997
0.908185
0.780526
0.667926
0.568956
0.481702
0.403361
0.331258
0.261837
0.192356
0.120162
0.0427945
2.13241
2.02359
1.87859
1.71258
1.53847
1.36652
1.20352
1.05371
0.91906
0.799303
0.69419
0.601322
0.518205
0.441617
0.368716
0.295751
0.220009
0.138866
0.0499068
2.17917
2.03613
1.86593
1.68478
1.50555
1.33669
1.18258
1.04495
0.923645
0.816706
0.722782
0.638606
0.561239
0.487149
0.413448
0.336259
0.253001
0.161152
0.0583836
2.17722
2.0024
1.81149
1.62267
1.44725
1.29032
1.1529
1.03383
0.930766
0.840169
0.759809
0.685705
0.614639
0.542886
0.467626
0.384912
0.292374
0.187633
0.0684378
2.15834
1.94831
1.74042
1.55112
1.38713
1.24874
1.13301
1.03594
0.953224
0.879978
0.813407
0.748969
0.683305
0.612567
0.534073
0.443797
0.339608
0.21924
0.080433
2.0978
1.85526
1.64204
1.46505
1.32368
1.2126
1.12477
1.05373
0.99367
0.938793
0.886112
0.830737
0.76935
0.698069
0.614425
0.514318
0.395852
0.256824
0.0948098
1.88753
1.64599
1.45767
1.3199
1.22341
1.15695
1.10975
1.07376
1.04248
1.00983
0.9732
0.927742
0.870482
0.797757
0.70751
0.595695
0.460717
0.300393
0.111835
1.68247
1.45909
1.31094
1.22321
1.17674
1.15556
1.1468
1.14218
1.13539
1.1206
1.09583
1.05641
0.999716
0.922231
0.822217
0.695508
0.540514
0.354632
0.133651
1.43198
1.25301
1.17216
1.15215
1.16499
1.19293
1.22334
1.2492
1.26521
1.2663
1.25125
1.21584
1.15773
1.07357
0.961785
0.817871
0.639757
0.423707
0.162863
1.01501
0.959185
0.992958
1.06773
1.15555
1.24196
1.31749
1.3776
1.41878
1.43731
1.43276
1.40181
1.34248
1.25166
1.12782
0.966017
0.762978
0.512792
0.203615
0.611763
0.731151
0.894517
1.06376
1.22118
1.35937
1.47388
1.56291
1.62501
1.658
1.66187
1.63451
1.57395
1.47712
1.34196
1.16243
0.932368
0.641319
0.2678
0.22616
0.548349
0.845634
1.10702
1.33116
1.51868
1.67089
1.78841
1.87193
1.92113
1.93594
1.91604
1.85914
1.7621
1.62151
1.42932
1.17385
0.836034
0.376964
-0.064118
0.445449
0.859982
1.20168
1.48556
1.71839
1.90691
2.05332
2.16054
2.23045
2.26258
2.25911
2.21718
2.13349
2.00223
1.81188
1.54093
1.15461
0.582994
-0.203382
0.430784
0.930766
1.3366
1.67241
1.94716
2.17188
2.34968
2.48592
2.58539
2.64727
2.67737
2.6726
2.63
2.54051
2.38755
2.13365
1.71667
1.01359
-0.178977
0.493895
1.04259
1.496
1.87629
2.19023
2.4519
2.66521
2.83856
2.9811
3.09269
3.18474
3.25628
3.30737
3.32674
3.29357
3.14862
2.78685
2.00033
-0.0324713
0.607893
1.17563
1.66338
2.08157
2.43196
2.73073
2.98376
3.20344
3.40631
3.59538
3.79148
4.00339
4.24333
4.5063
4.78104
4.99274
4.98719
4.4358
0.145889
0.731718
1.30834
1.82448
2.27528
2.65842
2.99167
3.28658
3.55948
3.84135
4.14182
4.49833
4.95413
5.57057
6.4189
7.67509
9.60883
12.8017
18.4565
)
;

boundaryField
{
    up
    {
        type            calculated;
        value           nonuniform List<scalar> 
84
(
-18.4565
-4.4358
-2.00033
-1.01359
-0.582995
-0.376965
-0.2678
-0.203614
-0.162861
-0.13365
-0.111834
-0.0948092
-0.0804327
-0.0684381
-0.0583841
-0.0499073
-0.042795
-0.0368985
-0.0321473
-0.0282535
-0.0254108
-0.0244734
-0.0298467
-0.0274299
-0.120616
-0.14554
-0.173265
-0.203031
-0.238226
-0.282554
-0.341293
-0.420395
-0.515581
-0.976989
-0.58487
-0.0297857
-0.0565746
-0.0393018
-0.0311716
-0.0194316
-0.0137275
-0.0076665
0.00762653
0.0136195
0.0194584
0.0310867
0.0392285
0.0564259
0.0303542
0.575606
0.982065
0.516273
0.420983
0.341726
0.282889
0.238499
0.203269
0.173492
0.14574
0.12121
0.0273814
0.0298445
0.0244727
0.0254102
0.028253
0.0321468
0.036898
0.0427945
0.0499068
0.0583836
0.0684378
0.080433
0.0948098
0.111835
0.133651
0.162863
0.203615
0.2678
0.376964
0.582994
1.01359
2.00033
4.4358
18.4565
)
;
    }
    low
    {
        type            calculated;
        value           nonuniform List<scalar> 
84
(
-0.131421
0.0544066
0.214379
0.241844
0.0882887
-0.230622
-0.64852
-1.07673
-1.50336
-1.74114
-1.93908
-2.13934
-2.17619
-2.18055
-2.17339
-2.11318
-2.00331
-1.88266
-1.77682
-1.58551
-1.37944
-1.1679
-0.93407
-0.674307
-0.444517
-0.148818
0.141902
0.4381
0.715767
1.01444
1.24745
1.46241
1.66336
1.7981
1.88089
1.94518
1.85158
1.62739
1.35094
1.01658
0.640184
0.246124
-0.246009
-0.640073
-1.01646
-1.35085
-1.62732
-1.85156
-1.94516
-1.88117
-1.79796
-1.66345
-1.46247
-1.24751
-1.01451
-0.715831
-0.438172
-0.141962
0.148681
0.444611
0.674208
0.934119
1.16791
1.37945
1.58552
1.77683
1.88267
2.00332
2.11319
2.17339
2.18055
2.17619
2.13933
1.93908
1.74116
1.50337
1.07674
0.64853
0.230629
-0.0882853
-0.241845
-0.214383
-0.0544088
0.131422
)
;
    }
    left
    {
        type            calculated;
        value           nonuniform List<scalar> 
19
(
-0.129614
-0.702855
-1.29145
-1.82566
-2.29601
-2.69712
-3.04801
-3.36218
-3.65585
-3.96763
-4.30694
-4.71566
-5.24992
-5.99138
-7.02928
-8.61073
-11.1099
-15.3393
-16.0075
)
;
    }
    right
    {
        type            calculated;
        value           nonuniform List<scalar> 
19
(
0.129615
0.702857
1.29145
1.82566
2.29601
2.69712
3.04801
3.36219
3.65585
3.96763
4.30694
4.71565
5.24992
5.99137
7.02927
8.61072
11.1099
15.3393
16.0075
)
;
    }
    frontAndBackPlanes
    {
        type            empty;
    }
}


// ************************************************************************* //
