/*--------------------------------*- C++ -*----------------------------------*\
  =========                 |
  \\      /  F ield         | OpenFOAM: The Open Source CFD Toolbox
   \\    /   O peration     | Website:  https://openfoam.org
    \\  /    A nd           | Version:  7
     \\/     M anipulation  |
\*---------------------------------------------------------------------------*/
FoamFile
{
    version     2.0;
    format      ascii;
    class       volScalarField;
    location    "0.2";
    object      T;
}
// * * * * * * * * * * * * * * * * * * * * * * * * * * * * * * * * * * * * * //

dimensions      [0 0 0 1 0 0 0];

internalField   nonuniform List<scalar> 
1596
(
2.99083
2.96458
2.93793
2.91307
2.89067
2.87058
2.85242
2.83521
2.81822
2.79971
2.77832
2.7522
2.71739
2.66855
2.59756
2.48661
2.30266
1.97978
1.38578
2.9604
2.87883
2.80251
2.73343
2.67185
2.61698
2.5676
2.52163
2.47718
2.43097
2.38017
2.32131
2.24833
2.154
2.02957
1.85898
1.61777
1.26417
0.719157
2.92456
2.78765
2.66556
2.55739
2.46198
2.3776
2.30229
2.23328
2.16796
2.1024
2.03315
1.95619
1.86526
1.75337
1.61303
1.43194
1.1937
0.873483
0.425286
2.88941
2.70101
2.5378
2.39536
2.27081
2.16148
2.06477
1.97746
1.89657
1.81793
1.73792
1.65242
1.55551
1.44096
1.3026
1.13117
0.915684
0.64142
0.281612
2.86053
2.62796
2.42895
2.25662
2.10676
1.97599
1.86123
1.75901
1.66617
1.57849
1.49235
1.40371
1.3071
1.19695
1.06806
0.913191
0.724623
0.493268
0.203112
2.84146
2.57452
2.34549
2.14724
1.97506
1.8253
1.69464
1.57953
1.47674
1.38211
1.29211
1.20278
1.10903
1.0058
0.888521
0.751205
0.587987
0.392809
0.155548
2.83252
2.54211
2.28923
2.06878
1.87674
1.70969
1.56438
1.43736
1.32543
1.22458
1.13135
1.04191
0.951448
0.85527
0.749175
0.627943
0.486747
0.321109
0.124111
2.83144
2.52789
2.25748
2.01862
1.80898
1.62601
1.46685
1.32834
1.20745
1.10033
1.00366
0.913692
0.825876
0.735758
0.639366
0.531946
0.409248
0.267597
0.101813
2.83605
2.52807
2.24603
1.99248
1.76749
1.56984
1.39746
1.24765
1.11767
1.00392
0.903202
0.811907
0.725662
0.640207
0.551711
0.455718
0.348303
0.226183
0.0851201
2.84196
2.53513
2.24657
1.98215
1.7444
1.53373
1.34909
1.18847
1.04951
0.928935
0.823731
0.730404
0.644758
0.562684
0.480451
0.393804
0.299014
0.192986
0.0720137
2.84658
2.54307
2.25164
1.97983
1.7321
1.51045
1.31498
1.14445
0.997041
0.869826
0.760015
0.664259
0.578521
0.498832
0.42154
0.342546
0.258252
0.165652
0.0613539
2.85216
2.55324
2.26093
1.98397
1.7283
1.49731
1.29222
1.11262
0.957279
0.823654
0.709206
0.610743
0.524374
0.446244
0.372771
0.299978
0.224361
0.142957
0.0525611
2.8573
2.56344
2.27142
1.99088
1.7289
1.49005
1.27658
1.08889
0.926327
0.786768
0.667927
0.566765
0.479521
0.402439
0.331989
0.264291
0.195912
0.12391
0.0452116
2.86024
2.57035
2.27905
1.99607
1.72924
1.48402
1.26356
1.069
0.900246
0.755564
0.632916
0.529407
0.441388
0.365181
0.2973
0.233941
0.17173
0.107742
0.0389972
2.86257
2.57534
2.28436
1.9993
1.72841
1.47785
1.25149
1.05112
0.877121
0.728138
0.60234
0.496949
0.408401
0.333073
0.267503
0.207945
0.151072
0.0939678
0.0337274
2.86475
2.57933
2.28804
2.00074
1.72608
1.47075
1.23925
1.03388
0.855483
0.702978
0.574702
0.467959
0.37923
0.304918
0.24156
0.185449
0.133288
0.0821684
0.0292422
2.86604
2.58149
2.28925
1.99944
1.72107
1.46137
1.22533
1.01574
0.83376
0.678541
0.548532
0.441061
0.352618
0.279592
0.2185
0.165653
0.117773
0.0719526
0.0253939
2.86676
2.5822
2.2884
1.99567
1.71349
1.44957
1.2094
0.996159
0.811273
0.654063
0.523013
0.415427
0.327752
0.256329
0.197631
0.147966
0.104062
0.0630132
0.0220628
2.86876
2.58441
2.28861
1.99242
1.70596
1.43753
1.19313
0.97634
0.788815
0.629979
0.498298
0.390988
0.304406
0.234804
0.178578
0.132015
0.0918371
0.0551279
0.0191599
2.87142
2.58796
2.29013
1.99013
1.69895
1.42565
1.17682
0.956443
0.766396
0.606165
0.474145
0.367412
0.282182
0.214577
0.160893
0.11738
0.0807457
0.0480558
0.0165937
2.8734
2.59095
2.29128
1.98746
1.69144
1.41315
1.15985
0.935972
0.743587
0.582225
0.450166
0.344301
0.260664
0.195216
0.144137
0.103638
0.0704213
0.0415432
0.0142713
2.87551
2.59419
2.29285
1.98526
1.68437
1.401
1.14315
0.915741
0.721058
0.558658
0.426678
0.321797
0.239837
0.176571
0.128045
0.0904427
0.0604941
0.0352931
0.0120823
2.87814
2.59839
2.29563
1.98442
1.67866
1.39017
1.12768
0.896641
0.699571
0.536053
0.404077
0.300098
0.219711
0.158484
0.112314
0.0773523
0.0504128
0.0287571
0.00976217
2.88107
2.60332
2.29943
1.98482
1.67439
1.38087
1.11379
0.879099
0.679548
0.514752
0.38257
0.279242
0.200155
0.140666
0.0965008
0.0637524
0.0393321
0.0208229
0.00626825
2.88595
2.61515
2.31588
2.00371
1.69379
1.39925
1.13003
0.892486
0.68975
0.521729
0.386536
0.280605
0.199444
0.138451
0.0933356
0.0601198
0.0356936
0.0177478
0.00467515
2.89145
2.63094
2.34101
2.03656
1.7322
1.44074
1.17213
0.932968
0.7268
0.554093
0.413516
0.302087
0.215791
0.150371
0.101699
0.0657827
0.0393527
0.0198762
0.00546345
2.89431
2.64083
2.35851
2.06136
1.76318
1.47613
1.20982
0.970779
0.762734
0.58653
0.441327
0.324718
0.233248
0.163135
0.110563
0.0716251
0.0429583
0.0218335
0.00611529
2.89457
2.64457
2.36782
2.07729
1.78572
1.50432
1.24202
1.00495
0.79677
0.618499
0.46967
0.348403
0.251846
0.176814
0.119978
0.0776697
0.0465222
0.0236399
0.00665343
2.8932
2.64406
2.37137
2.08699
1.8024
1.52767
1.27077
1.03724
0.830413
0.651333
0.499773
0.374301
0.27265
0.192314
0.130632
0.0843799
0.0503345
0.0254705
0.00715377
2.8904
2.64056
2.3712
2.0929
1.81576
1.54856
1.29819
1.06944
0.865207
0.686409
0.532942
0.403707
0.296937
0.210805
0.143458
0.0923704
0.0547244
0.0274765
0.00766824
2.88693
2.63612
2.37013
2.09816
1.82893
1.5699
1.32687
1.10379
0.90309
0.725464
0.570839
0.43832
0.326484
0.234059
0.160008
0.102747
0.0602709
0.0298598
0.00824168
2.88458
2.63368
2.37152
2.10622
1.84521
1.59471
1.35945
1.14259
0.946064
0.770333
0.615289
0.480128
0.363575
0.264645
0.1829
0.117714
0.0683227
0.0330645
0.00888213
2.88259
2.63231
2.3746
2.1165
1.86421
1.62273
1.39581
1.18585
0.994328
0.821472
0.667129
0.530531
0.410399
0.305732
0.216223
0.141734
0.0826552
0.0390909
0.00962642
2.88087
2.63198
2.37951
2.12929
1.88631
1.65443
1.43647
1.23415
1.04855
0.879703
0.727456
0.59112
0.469408
0.361174
0.26582
0.182896
0.112851
0.0568334
0.0151989
2.87876
2.63044
2.38205
2.13844
1.90348
1.68005
1.47014
1.27491
1.0951
0.930567
0.781157
0.646286
0.524769
0.415453
0.317468
0.229705
0.151585
0.0833998
0.0254166
2.8743
2.62202
2.3733
2.13195
1.90084
1.68204
1.47691
1.28611
1.11004
0.948377
0.80089
0.66701
0.545633
0.435738
0.336601
0.247122
0.166541
0.0945503
0.0303809
2.86816
2.60917
2.35755
2.11587
1.88607
1.66952
1.46701
1.27879
1.10498
0.945035
0.798638
0.665215
0.543711
0.433239
0.33332
0.243144
0.162343
0.0910472
0.0287914
2.86325
2.599
2.34518
2.10335
1.8747
1.66003
1.45968
1.27357
1.10159
0.94306
0.797606
0.664674
0.543265
0.432605
0.332377
0.241921
0.161023
0.0899617
0.0283455
2.86002
2.59208
2.33666
2.09471
1.8669
1.6536
1.45483
1.27026
1.09962
0.942116
0.797349
0.66478
0.54345
0.432662
0.332206
0.241514
0.16047
0.0894614
0.0281527
2.85765
2.58699
2.3304
2.08836
1.86116
1.64887
1.45125
1.26781
1.09814
0.941385
0.797121
0.664825
0.543564
0.432692
0.332077
0.241215
0.160063
0.0890942
0.0280171
2.85592
2.58325
2.32579
2.08368
1.85691
1.64532
1.44849
1.26582
1.09683
0.940592
0.796685
0.664594
0.5434
0.432492
0.33179
0.240837
0.159641
0.0887419
0.0278852
2.85431
2.58022
2.3223
2.08024
1.85381
1.6427
1.4464
1.26423
1.09568
0.939795
0.796152
0.664239
0.543146
0.43228
0.331584
0.240623
0.159432
0.0885788
0.0278306
2.85431
2.58023
2.32231
2.08026
1.85383
1.64272
1.44642
1.26425
1.0957
0.939817
0.796173
0.664258
0.543164
0.432294
0.331597
0.240633
0.159439
0.088583
0.0278321
2.85593
2.58328
2.32584
2.08374
1.85698
1.64538
1.44856
1.26589
1.0969
0.940659
0.796749
0.664653
0.543453
0.432539
0.33183
0.240868
0.159664
0.0887558
0.02789
2.85767
2.58705
2.33048
2.08845
1.86127
1.64898
1.45137
1.26792
1.09826
0.941492
0.797222
0.664918
0.543648
0.432765
0.332138
0.241263
0.160098
0.0891153
0.0280244
2.86005
2.59215
2.33676
2.09483
1.86703
1.65374
1.45498
1.27041
1.09977
0.94226
0.797483
0.664903
0.543561
0.432758
0.332286
0.241577
0.160515
0.0894888
0.0281621
2.86328
2.59909
2.34531
2.1035
1.87487
1.66021
1.45986
1.27376
1.10178
0.943237
0.797772
0.664826
0.543401
0.432723
0.332475
0.241997
0.161077
0.0899942
0.0283565
2.8682
2.60927
2.3577
2.11604
1.88626
1.66973
1.46722
1.27901
1.1052
0.945239
0.798828
0.665388
0.543864
0.43337
0.333427
0.243226
0.162399
0.0910798
0.0288017
2.87434
2.62213
2.37346
2.13215
1.90106
1.68228
1.47715
1.28635
1.11028
0.948605
0.8011
0.667198
0.545796
0.435871
0.336702
0.247192
0.166581
0.0945682
0.0303846
2.87882
2.6306
2.3823
2.13878
1.90387
1.68049
1.47062
1.27542
1.09562
0.931084
0.781668
0.646783
0.525247
0.415908
0.317896
0.230098
0.151923
0.0836488
0.0255219
2.88093
2.63217
2.3798
2.12969
1.88679
1.65498
1.43706
1.23477
1.04919
0.880349
0.728094
0.591739
0.470001
0.361731
0.266327
0.183335
0.113194
0.0570548
0.0152779
2.88265
2.63247
2.37486
2.11685
1.86463
1.62322
1.39633
1.1864
0.99488
0.822017
0.667656
0.531029
0.410858
0.306141
0.216568
0.141999
0.0828304
0.0391777
0.00964373
2.88463
2.63383
2.37177
2.10655
1.84561
1.59517
1.35994
1.1431
0.946576
0.770831
0.615761
0.480563
0.363961
0.264972
0.183159
0.117899
0.0684356
0.0331184
0.00889568
2.88698
2.63626
2.37035
2.09847
1.82931
1.57033
1.32733
1.10427
0.903561
0.725915
0.571258
0.438696
0.326809
0.234323
0.160208
0.102885
0.0603545
0.0299011
0.00825298
2.89044
2.64068
2.37141
2.09319
1.81611
1.54896
1.29862
1.06988
0.865638
0.686816
0.533314
0.404034
0.297211
0.211023
0.143619
0.0924803
0.0547915
0.0275107
0.007678
2.89323
2.64417
2.37156
2.08725
1.80273
1.52804
1.27117
1.03764
0.830803
0.651697
0.500101
0.374584
0.272883
0.192496
0.130766
0.0844708
0.0503908
0.0254999
0.00716247
2.8946
2.64466
2.36799
2.07753
1.78601
1.50466
1.24237
1.00531
0.797119
0.618821
0.469957
0.348647
0.252045
0.176968
0.120091
0.0777471
0.046571
0.0236662
0.00666154
2.89433
2.64092
2.35866
2.06157
1.76344
1.47643
1.21014
0.971099
0.763041
0.586812
0.441576
0.324928
0.233419
0.163267
0.11066
0.071693
0.0430022
0.0218581
0.00612336
2.89146
2.63101
2.34114
2.03674
1.73243
1.441
1.17241
0.933248
0.727068
0.554339
0.413732
0.302269
0.215939
0.150486
0.101785
0.0658439
0.0393937
0.0199003
0.00547214
2.88595
2.61516
2.31591
2.00376
1.69386
1.39932
1.13011
0.892571
0.689832
0.521805
0.386603
0.280661
0.199488
0.138483
0.0933571
0.060132
0.0356986
0.017748
0.00467371
2.88106
2.6033
2.2994
1.98478
1.67434
1.38082
1.11374
0.879048
0.679501
0.514711
0.382535
0.279212
0.20013
0.140645
0.0964825
0.0637368
0.0393191
0.0208131
0.00626339
2.87814
2.59839
2.29562
1.98441
1.67866
1.39016
1.12768
0.89664
0.699573
0.536057
0.404084
0.300105
0.219719
0.158491
0.11232
0.0773574
0.0504164
0.0287592
0.00976262
2.87551
2.59419
2.29285
1.98526
1.68436
1.401
1.14315
0.915742
0.72106
0.558662
0.426684
0.321803
0.239843
0.176576
0.12805
0.0904463
0.0604966
0.0352944
0.0120827
2.8734
2.59095
2.29128
1.98745
1.69144
1.41315
1.15985
0.935973
0.74359
0.58223
0.450171
0.344306
0.260669
0.195221
0.14414
0.103641
0.0704232
0.0415442
0.0142716
2.87142
2.58795
2.29013
1.99013
1.69895
1.42565
1.17682
0.956445
0.766399
0.606169
0.474149
0.367416
0.282186
0.21458
0.160895
0.117383
0.0807472
0.0480566
0.0165939
2.86876
2.58441
2.28861
1.99242
1.70596
1.43753
1.19313
0.976342
0.788818
0.629982
0.498301
0.390991
0.304409
0.234807
0.17858
0.132017
0.0918383
0.0551285
0.01916
2.86676
2.5822
2.2884
1.99567
1.71349
1.44958
1.2094
0.996161
0.811275
0.654065
0.523016
0.415429
0.327754
0.256331
0.197633
0.147967
0.104063
0.0630137
0.0220629
2.86604
2.58148
2.28925
1.99944
1.72107
1.46137
1.22534
1.01575
0.833762
0.678543
0.548534
0.441063
0.352619
0.279593
0.218502
0.165654
0.117774
0.0719529
0.0253939
2.86475
2.57933
2.28804
2.00074
1.72608
1.47075
1.23925
1.03388
0.855485
0.702979
0.574704
0.46796
0.379232
0.304919
0.24156
0.185449
0.133289
0.0821685
0.0292422
2.86257
2.57534
2.28436
1.9993
1.72841
1.47785
1.2515
1.05112
0.877122
0.728139
0.602341
0.49695
0.408402
0.333074
0.267503
0.207945
0.151072
0.0939677
0.0337273
2.86024
2.57035
2.27905
1.99607
1.72924
1.48402
1.26357
1.06901
0.900246
0.755565
0.632917
0.529408
0.441388
0.365181
0.2973
0.233941
0.17173
0.107741
0.0389971
2.8573
2.56344
2.27142
1.99088
1.72891
1.49005
1.27658
1.08889
0.926327
0.786768
0.667927
0.566765
0.479521
0.402438
0.331988
0.26429
0.195911
0.123909
0.0452115
2.85216
2.55324
2.26093
1.98397
1.7283
1.49731
1.29222
1.11262
0.957278
0.823653
0.709206
0.610742
0.524372
0.446242
0.372769
0.299977
0.22436
0.142956
0.0525611
2.84658
2.54307
2.25164
1.97983
1.7321
1.51045
1.31498
1.14445
0.99704
0.869824
0.760013
0.664257
0.578519
0.49883
0.421538
0.342544
0.25825
0.165651
0.061354
2.84197
2.53513
2.24657
1.98215
1.7444
1.53373
1.34909
1.18846
1.04951
0.928932
0.823728
0.730401
0.644755
0.562681
0.480448
0.393802
0.299013
0.192985
0.0720139
2.83605
2.52807
2.24603
1.99247
1.76749
1.56984
1.39746
1.24765
1.11767
1.00391
0.903199
0.811903
0.725658
0.640203
0.551708
0.455716
0.348302
0.226183
0.0851204
2.83144
2.52789
2.25748
2.01861
1.80898
1.626
1.46684
1.32834
1.20744
1.10033
1.00365
0.913688
0.825873
0.735755
0.639363
0.531944
0.409247
0.267597
0.101814
2.83252
2.5421
2.28923
2.06878
1.87674
1.70968
1.56437
1.43736
1.32543
1.22458
1.13135
1.0419
0.951444
0.855267
0.749173
0.627942
0.486747
0.32111
0.124112
2.84146
2.57451
2.34549
2.14723
1.97506
1.8253
1.69463
1.57953
1.47673
1.38211
1.2921
1.20277
1.10903
1.0058
0.88852
0.751205
0.587988
0.392809
0.155549
2.86053
2.62795
2.42894
2.25662
2.10676
1.97599
1.86122
1.75901
1.66616
1.57848
1.49235
1.40371
1.3071
1.19695
1.06806
0.913191
0.724624
0.493269
0.203113
2.88941
2.70101
2.5378
2.39536
2.27081
2.16148
2.06477
1.97746
1.89657
1.81793
1.73792
1.65241
1.55551
1.44096
1.3026
1.13117
0.915686
0.64142
0.281612
2.92456
2.78765
2.66556
2.55739
2.46197
2.3776
2.30229
2.23327
2.16796
2.10239
2.03315
1.95619
1.86526
1.75337
1.61303
1.43194
1.1937
0.873483
0.425285
2.9604
2.87883
2.80251
2.73343
2.67185
2.61698
2.5676
2.52162
2.47717
2.43096
2.38017
2.32131
2.24833
2.154
2.02957
1.85898
1.61777
1.26417
0.719157
2.99083
2.96458
2.93793
2.91307
2.89067
2.87058
2.85242
2.83521
2.81822
2.79971
2.77832
2.7522
2.71739
2.66855
2.59756
2.48661
2.30266
1.97978
1.38578
)
;

boundaryField
{
    up
    {
        type            fixedValue;
        value           uniform 0;
    }
    low
    {
        type            fixedValue;
        value           uniform 3;
    }
    left
    {
        type            fixedValue;
        value           uniform 3;
    }
    right
    {
        type            fixedValue;
        value           uniform 3;
    }
    frontAndBackPlanes
    {
        type            empty;
    }
}


// ************************************************************************* //
