/*--------------------------------*- C++ -*----------------------------------*\
  =========                 |
  \\      /  F ield         | OpenFOAM: The Open Source CFD Toolbox
   \\    /   O peration     | Website:  https://openfoam.org
    \\  /    A nd           | Version:  7
     \\/     M anipulation  |
\*---------------------------------------------------------------------------*/
FoamFile
{
    version     2.0;
    format      ascii;
    class       volScalarField;
    location    "0.29";
    object      gradTy;
}
// * * * * * * * * * * * * * * * * * * * * * * * * * * * * * * * * * * * * * //

dimensions      [0 -1 0 1 0 0 0];

internalField   nonuniform List<scalar> 
1596
(
-0.486257
-0.90549
-1.25396
-1.59552
-1.93208
-2.30703
-2.70448
-3.17463
-3.73913
-4.41399
-5.33634
-6.50873
-8.12276
-10.4078
-13.9381
-19.4235
-29.1979
-47.2092
-111.525
-1.48263
-1.83481
-2.08445
-2.32548
-2.56961
-2.86382
-3.19435
-3.60634
-4.11941
-4.73807
-5.57534
-6.62076
-8.00181
-9.82279
-12.3776
-15.8175
-20.9201
-28.4139
-49.6824
-2.6562
-2.78326
-2.87404
-2.9897
-3.12845
-3.32981
-3.57694
-3.90841
-4.338
-4.86225
-5.57269
-6.44626
-7.57009
-8.99229
-10.8903
-13.2898
-16.6125
-21.1666
-30.9484
-3.88965
-3.70937
-3.60794
-3.5828
-3.60767
-3.70774
-3.86144
-4.09931
-4.4294
-4.84307
-5.41388
-6.11203
-6.99809
-8.09139
-9.50357
-11.2119
-13.4633
-16.3865
-21.4042
-5.03151
-4.5605
-4.27017
-4.10395
-4.01421
-4.0106
-4.06764
-4.20755
-4.43385
-4.7352
-5.17034
-5.70811
-6.39145
-7.22557
-8.28367
-9.52754
-11.1111
-13.0823
-15.9638
-5.9435
-5.2854
-4.84597
-4.55538
-4.35956
-4.25656
-4.21978
-4.26396
-4.38965
-4.5847
-4.89568
-5.29349
-5.80905
-6.441
-7.23896
-8.16282
-9.31294
-10.7002
-12.5252
-6.54882
-5.84351
-5.32064
-4.93806
-4.65391
-4.46232
-4.33956
-4.2948
-4.32724
-4.42537
-4.62585
-4.90342
-5.28061
-5.7533
-6.35587
-7.05156
-7.90766
-8.91855
-10.1639
-6.84413
-6.20943
-5.67629
-5.24492
-4.89844
-4.6352
-4.43866
-4.31513
-4.26416
-4.27604
-4.37953
-4.55407
-4.81616
-5.16093
-5.61255
-6.13926
-6.7869
-7.5431
-8.43918
-6.88492
-6.40904
-5.92942
-5.49232
-5.11124
-4.79512
-4.53792
-4.34625
-4.22154
-4.15685
-4.17507
-4.26037
-4.42507
-4.66447
-4.99571
-5.39198
-5.88459
-6.45889
-7.12541
-6.71877
-6.41561
-6.03249
-5.6319
-5.24923
-4.90565
-4.60682
-4.36241
-4.17716
-4.04765
-3.99301
-4.00192
-4.0841
-4.23565
-4.46916
-4.76236
-5.13698
-5.5783
-6.08737
-6.50401
-6.32559
-6.04097
-5.69726
-5.33568
-4.98508
-4.6611
-4.37773
-4.14385
-3.96002
-3.84336
-3.78679
-3.79856
-3.87585
-4.02824
-4.23736
-4.51838
-4.85737
-5.25092
-6.23245
-6.18299
-5.99524
-5.71623
-5.38868
-5.04516
-4.70861
-4.39734
-4.12449
-3.89484
-3.72484
-3.61134
-3.56198
-3.57522
-3.65874
-3.79747
-4.00206
-4.25976
-4.56519
-5.89214
-5.95831
-5.86612
-5.65821
-5.37598
-5.05356
-4.7183
-4.3922
-4.09229
-3.8273
-3.6141
-3.45312
-3.35221
-3.31127
-3.33703
-3.41734
-3.55995
-3.75349
-3.99173
-5.58564
-5.71916
-5.70325
-5.56109
-5.32627
-5.03144
-4.70562
-4.37348
-4.05515
-3.76285
-3.51456
-3.31382
-3.1692
-3.08209
-3.05889
-3.0899
-3.18107
-3.32235
-3.50735
-5.29883
-5.4856
-5.52909
-5.4432
-5.25309
-4.98774
-4.67582
-4.34345
-4.01306
-3.69979
-3.42295
-3.18887
-3.00708
-2.88049
-2.81558
-2.80476
-2.8529
-2.95121
-3.09352
-5.01615
-5.25297
-5.34683
-5.30929
-5.15982
-4.9237
-4.62811
-4.29966
-3.96229
-3.63345
-3.33381
-3.07212
-2.85903
-2.69892
-2.5986
-2.55241
-2.56461
-2.62762
-2.73564
-4.75825
-5.029
-5.1638
-5.1672
-5.05348
-4.8446
-4.5658
-4.24357
-3.90276
-3.56256
-3.24488
-2.96049
-2.72119
-2.53272
-2.40241
-2.3263
-2.30845
-2.34238
-2.42271
-4.53073
-4.8243
-4.99122
-5.02853
-4.94541
-4.76053
-4.4973
-4.18175
-3.83924
-3.49033
-3.15791
-2.85453
-2.59298
-2.38019
-2.2241
-2.1223
-2.07894
-2.08864
-2.14641
-4.30362
-4.63698
-4.83687
-4.90495
-4.84885
-4.68492
-4.43528
-4.12546
-3.7813
-3.42455
-3.07897
-2.75865
-2.47721
-2.24262
-2.06333
-1.93837
-1.87233
-1.86101
-1.89996
-4.07164
-4.44956
-4.68572
-4.78461
-4.75418
-4.60984
-4.37296
-4.06889
-3.72389
-3.36078
-3.00409
-2.66924
-2.37054
-2.1167
-1.91651
-1.77021
-1.68322
-1.65304
-1.67621
-3.87306
-4.2799
-4.54916
-4.67751
-4.67108
-4.54456
-4.31899
-4.01979
-3.67379
-3.30481
-2.93813
-2.5903
-2.27621
-2.00492
-1.78522
-1.61793
-1.50946
-1.45985
-1.4683
-3.69802
-4.13135
-4.4306
-4.5867
-4.60292
-4.4929
-4.27751
-3.98246
-3.63522
-3.26066
-2.88473
-2.52509
-2.19706
-1.90988
-1.67171
-1.48287
-1.34983
-1.27569
-1.26618
-3.53834
-4.00172
-4.33051
-4.51317
-4.55089
-4.45632
-4.25032
-3.95906
-3.61069
-3.231
-2.84664
-2.47622
-2.13563
-1.83425
-1.57928
-1.36895
-1.20689
-1.09568
-1.05263
-3.39814
-3.89213
-4.24837
-4.45336
-4.5075
-4.42269
-4.22091
-3.92866
-3.57525
-3.1878
-2.7923
-2.40971
-2.05617
-1.7417
-1.47229
-1.24435
-1.05374
-0.891167
-0.750941
-3.28643
-3.80892
-4.19689
-4.43417
-4.52112
-4.46765
-4.29561
-4.02944
-3.6973
-3.32625
-2.93909
-2.55866
-2.20045
-1.87731
-1.59603
-1.35619
-1.14934
-0.960478
-0.763379
-3.21096
-3.7501
-4.1546
-4.41127
-4.52052
-4.49124
-4.34417
-4.10192
-3.7907
-3.43628
-3.0582
-2.67915
-2.31435
-1.97861
-1.68157
-1.42907
-1.21654
-1.03695
-0.875206
-3.21264
-3.75539
-4.16609
-4.43331
-4.55747
-4.54782
-4.42359
-4.20638
-3.92024
-3.58845
-3.22806
-2.85863
-2.49393
-2.1493
-1.83749
-1.56896
-1.34411
-1.15951
-1.00308
-3.30043
-3.83285
-4.23586
-4.50024
-4.62724
-4.6271
-4.51826
-4.32157
-4.05919
-3.75187
-3.41371
-3.06017
-2.70164
-2.35187
-2.02546
-1.73768
-1.49484
-1.29777
-1.13629
-3.46635
-3.98092
-4.36437
-4.61402
-4.73326
-4.73373
-4.6336
-4.45314
-4.2129
-3.93146
-3.61992
-3.28929
-2.94484
-2.59602
-2.25656
-1.94599
-1.67805
-1.46036
-1.28545
-3.70704
-4.18832
-4.54027
-4.76514
-4.86817
-4.86232
-4.76581
-4.59832
-4.37912
-4.12517
-3.84504
-3.54598
-3.22718
-2.89084
-2.54513
-2.21075
-1.90932
-1.66001
-1.4618
-4.02025
-4.45261
-4.76496
-4.95808
-5.0388
-5.0214
-4.92439
-4.76681
-4.56683
-4.34056
-4.09504
-3.83565
-3.55636
-3.25059
-2.91484
-2.56333
-2.22039
-1.92171
-1.68283
-4.36484
-4.75516
-5.02551
-5.18244
-5.23665
-5.20412
-5.10365
-4.95343
-4.77061
-4.57096
-4.36123
-4.14774
-3.9228
-3.6735
-3.38106
-3.04236
-2.66624
-2.29638
-1.98153
-4.76256
-5.10304
-5.32407
-5.4388
-5.46182
-5.41045
-5.30332
-5.15723
-4.98799
-4.81105
-4.63339
-4.46482
-4.30129
-4.132
-3.92944
-3.67214
-3.32908
-2.90988
-2.43432
-5.23089
-5.508
-5.67185
-5.74022
-5.73062
-5.66092
-5.54851
-5.40837
-5.25441
-5.10099
-4.95579
-4.83167
-4.73228
-4.65922
-4.59645
-4.52954
-4.40978
-4.20758
-3.8897
-5.75756
-5.95863
-6.04925
-6.05583
-5.99825
-5.89435
-5.7588
-5.60444
-5.44239
-5.28329
-5.13448
-5.00568
-4.9033
-4.8354
-4.80494
-4.82181
-4.87572
-4.95554
-5.03715
-6.35781
-6.45263
-6.45305
-6.38816
-6.27651
-6.13414
-5.97235
-5.80203
-5.63194
-5.46936
-5.32178
-5.19453
-5.09269
-5.02043
-4.982
-4.98202
-5.02667
-5.12272
-5.2796
-7.02434
-6.98515
-6.88851
-6.75317
-6.59152
-6.41518
-6.23207
-6.05051
-5.87711
-5.71703
-5.57639
-5.45791
-5.36436
-5.29622
-5.25342
-5.23141
-5.22741
-5.23423
-5.24639
-7.64659
-7.4759
-7.28534
-7.08163
-6.87071
-6.65935
-6.4524
-6.25526
-6.07238
-5.90701
-5.76308
-5.64188
-5.54426
-5.46933
-5.41577
-5.37949
-5.35789
-5.34634
-5.34139
-8.16387
-7.8936
-7.62711
-7.3665
-7.11401
-6.87279
-6.64523
-6.43427
-6.24254
-6.07183
-5.92445
-5.80093
-5.70111
-5.62372
-5.56712
-5.52787
-5.50329
-5.48953
-5.48322
-8.58199
-8.23085
-7.90296
-7.59648
-7.31053
-7.04526
-6.801
-6.57868
-6.37955
-6.20428
-6.05409
-5.92904
-5.82837
-5.7506
-5.69388
-5.65507
-5.63128
-5.61896
-5.61473
-8.88714
-8.47439
-8.09981
-7.75928
-7.44903
-7.16659
-6.91053
-6.68025
-6.476
-6.29772
-6.14586
-6.02024
-5.91972
-5.84263
-5.78695
-5.74956
-5.72724
-5.71643
-5.7135
-9.08035
-8.61197
-8.20484
-7.84377
-7.52001
-7.22847
-6.96635
-6.73209
-6.52536
-6.3457
-6.19321
-6.0676
-5.96755
-5.8914
-5.83706
-5.80161
-5.78173
-5.77395
-5.77457
-9.0804
-8.61205
-8.20495
-7.84388
-7.52013
-7.22859
-6.96647
-6.73221
-6.52548
-6.34582
-6.19333
-6.06773
-5.96768
-5.89153
-5.83721
-5.80176
-5.78188
-5.7741
-5.77472
-8.88721
-8.47457
-8.10005
-7.75956
-7.44933
-7.16691
-6.91085
-6.68058
-6.47634
-6.29806
-6.14621
-6.02061
-5.92009
-5.84303
-5.78736
-5.75001
-5.72773
-5.71696
-5.71409
-8.58211
-8.23113
-7.90333
-7.59692
-7.311
-7.04576
-6.80152
-6.57921
-6.38009
-6.20484
-6.05467
-5.92963
-5.82899
-5.75124
-5.69455
-5.65578
-5.63203
-5.61977
-5.61559
-8.16403
-7.89395
-7.62758
-7.36705
-7.11461
-6.87343
-6.6459
-6.43495
-6.24324
-6.07255
-5.92519
-5.80168
-5.70188
-5.6245
-5.56792
-5.52869
-5.50413
-5.4904
-5.48412
-7.64676
-7.47629
-7.28588
-7.08227
-6.87142
-6.6601
-6.45318
-6.25608
-6.07322
-5.90788
-5.76397
-5.64278
-5.54517
-5.47024
-5.41668
-5.38041
-5.3588
-5.34726
-5.3423
-7.02453
-6.98558
-6.88909
-6.75386
-6.59229
-6.41601
-6.23294
-6.05143
-5.87806
-5.718
-5.57739
-5.45892
-5.36536
-5.2972
-5.25435
-5.23226
-5.22814
-5.23482
-5.24684
-6.35802
-6.45311
-6.45376
-6.38905
-6.27756
-6.13534
-5.9737
-5.80351
-5.63356
-5.47114
-5.32372
-5.19664
-5.095
-5.02291
-4.98463
-4.98464
-5.029
-5.12426
-5.27961
-5.75769
-5.95872
-6.04936
-6.05595
-5.99837
-5.89446
-5.75889
-5.60447
-5.44234
-5.2831
-5.1341
-5.00504
-4.90228
-4.83388
-4.80288
-4.8193
-4.8733
-4.95431
-5.03888
-5.23096
-5.50824
-5.67227
-5.74085
-5.73147
-5.662
-5.54983
-5.40993
-5.25619
-5.10299
-4.95803
-4.83418
-4.73514
-4.66262
-4.60078
-4.53536
-4.41782
-4.21845
-3.90375
-4.76259
-5.10308
-5.32419
-5.43903
-5.4622
-5.41098
-5.30401
-5.15807
-4.98899
-4.81219
-4.6347
-4.46634
-4.30313
-4.13433
-3.93246
-3.67597
-3.33354
-2.91435
-2.43765
-4.36485
-4.75516
-5.02557
-5.18263
-5.23698
-5.20462
-5.10433
-4.95428
-4.77164
-4.57218
-4.36266
-4.14943
-3.92483
-3.67595
-3.38394
-3.04552
-2.66936
-2.29907
-1.98367
-4.02025
-4.45258
-4.76497
-4.9582
-5.03906
-5.02183
-4.925
-4.7676
-4.56781
-4.34174
-4.09644
-3.8373
-3.5583
-3.2528
-2.91723
-2.56572
-2.22256
-1.92356
-1.68437
-3.70704
-4.18827
-4.54025
-4.76521
-4.86837
-4.86268
-4.76635
-4.59906
-4.38005
-4.1263
-3.84637
-3.54752
-3.22892
-2.89273
-2.54705
-2.21257
-1.91093
-1.6614
-1.46302
-3.46634
-3.98085
-4.36431
-4.61403
-4.7334
-4.73403
-4.63408
-4.4538
-4.21375
-3.93251
-3.62114
-3.29068
-2.94636
-2.5976
-2.2581
-1.94742
-1.67932
-1.46148
-1.28648
-3.30042
-3.83278
-4.23579
-4.50023
-4.62734
-4.62735
-4.51868
-4.32216
-4.05996
-3.75281
-3.41481
-3.06139
-2.70294
-2.35318
-2.02672
-1.73884
-1.49588
-1.29872
-1.13721
-3.21262
-3.75531
-4.166
-4.43328
-4.55754
-4.54802
-4.42395
-4.2069
-3.92093
-3.58928
-3.22902
-2.85969
-2.49503
-2.15039
-1.83852
-1.56991
-1.34499
-1.16036
-1.00397
-3.21093
-3.75001
-4.15449
-4.41118
-4.5205
-4.49132
-4.34436
-4.10223
-3.79113
-3.43682
-3.05882
-2.67983
-2.31503
-1.97927
-1.68218
-1.42962
-1.21706
-1.03754
-0.876038
-3.28651
-3.80898
-4.19695
-4.43426
-4.52126
-4.46786
-4.29591
-4.02983
-3.69779
-3.32683
-2.93976
-2.55939
-2.20122
-1.87809
-1.59681
-1.35696
-1.15007
-0.96115
-0.763941
-3.39823
-3.89222
-4.24844
-4.45339
-4.50748
-4.42261
-4.22078
-3.92848
-3.57502
-3.18754
-2.79202
-2.40942
-2.05587
-1.74141
-1.47199
-1.24404
-1.05341
-0.890806
-0.750514
-3.5384
-4.00177
-4.33056
-4.51321
-4.55092
-4.45635
-4.25034
-3.95906
-3.61068
-3.23099
-2.84663
-2.47621
-2.13562
-1.83425
-1.57928
-1.36896
-1.20691
-1.09572
-1.05267
-3.69807
-4.13139
-4.43063
-4.58672
-4.60293
-4.4929
-4.27749
-3.98243
-3.63519
-3.26063
-2.8847
-2.52506
-2.19704
-1.90987
-1.67171
-1.48287
-1.34985
-1.27571
-1.26621
-3.8731
-4.27994
-4.54918
-4.67752
-4.67108
-4.54455
-4.31897
-4.01977
-3.67376
-3.30479
-2.9381
-2.59028
-2.2762
-2.00492
-1.78522
-1.61794
-1.50948
-1.45987
-1.46832
-4.07167
-4.44958
-4.68573
-4.78462
-4.75418
-4.60983
-4.37295
-4.06887
-3.72386
-3.36076
-3.00407
-2.66922
-2.37054
-2.1167
-1.91651
-1.77021
-1.68323
-1.65305
-1.67622
-4.30365
-4.637
-4.83688
-4.90495
-4.84885
-4.68491
-4.43526
-4.12544
-3.78128
-3.42454
-3.07896
-2.75864
-2.47721
-2.24262
-2.06333
-1.93837
-1.87233
-1.86101
-1.89996
-4.53075
-4.82431
-4.99123
-5.02853
-4.94541
-4.76052
-4.49729
-4.18174
-3.83923
-3.49032
-3.1579
-2.85453
-2.59298
-2.38019
-2.2241
-2.1223
-2.07895
-2.08864
-2.14641
-4.75826
-5.029
-5.1638
-5.1672
-5.05348
-4.84459
-4.56579
-4.24357
-3.90276
-3.56256
-3.24487
-2.96049
-2.72119
-2.53272
-2.40241
-2.3263
-2.30845
-2.34238
-2.42271
-5.01616
-5.25297
-5.34683
-5.30929
-5.15982
-4.9237
-4.62811
-4.29966
-3.96229
-3.63345
-3.33381
-3.07212
-2.85903
-2.69891
-2.5986
-2.55241
-2.56461
-2.62761
-2.73563
-5.29883
-5.48559
-5.52909
-5.4432
-5.25309
-4.98773
-4.67581
-4.34344
-4.01306
-3.69979
-3.42295
-3.18887
-3.00708
-2.88049
-2.81558
-2.80476
-2.85289
-2.9512
-3.09352
-5.58563
-5.71915
-5.70325
-5.56108
-5.32627
-5.03144
-4.70562
-4.37348
-4.05515
-3.76285
-3.51456
-3.31382
-3.16919
-3.08209
-3.05889
-3.0899
-3.18106
-3.32234
-3.50734
-5.89213
-5.95831
-5.86612
-5.65821
-5.37598
-5.05356
-4.7183
-4.39221
-4.0923
-3.8273
-3.6141
-3.45312
-3.3522
-3.31127
-3.33703
-3.41733
-3.55994
-3.75348
-3.99172
-6.23243
-6.18298
-5.99524
-5.71624
-5.38868
-5.04516
-4.70861
-4.39734
-4.12449
-3.89484
-3.72484
-3.61134
-3.56197
-3.57522
-3.65873
-3.79746
-4.00204
-4.25974
-4.56518
-6.50399
-6.32559
-6.04098
-5.69726
-5.33568
-4.98508
-4.6611
-4.37773
-4.14385
-3.96002
-3.84336
-3.78679
-3.79856
-3.87584
-4.02823
-4.23735
-4.51837
-4.85736
-5.25091
-6.71876
-6.41562
-6.03251
-5.63191
-5.24924
-4.90566
-4.60683
-4.36241
-4.17717
-4.04765
-3.993
-4.00192
-4.0841
-4.23565
-4.46915
-4.76234
-5.13696
-5.57828
-6.08737
-6.88493
-6.40906
-5.92944
-5.49233
-5.11125
-4.79512
-4.53793
-4.34625
-4.22154
-4.15685
-4.17507
-4.26037
-4.42506
-4.66446
-4.9957
-5.39197
-5.88458
-6.45888
-7.12541
-6.84415
-6.20945
-5.6763
-5.24493
-4.89845
-4.63521
-4.43866
-4.31514
-4.26416
-4.27604
-4.37953
-4.55406
-4.81615
-5.16092
-5.61254
-6.13925
-6.78689
-7.5431
-8.43919
-6.54885
-5.84353
-5.32065
-4.93807
-4.65392
-4.46233
-4.33957
-4.2948
-4.32724
-4.42537
-4.62585
-4.90342
-5.28061
-5.75329
-6.35587
-7.05155
-7.90766
-8.91855
-10.1639
-5.94353
-5.28542
-4.84598
-4.55539
-4.35956
-4.25656
-4.21979
-4.26397
-4.38966
-4.5847
-4.89568
-5.29348
-5.80904
-6.44099
-7.23895
-8.16281
-9.31294
-10.7002
-12.5252
-5.03154
-4.56052
-4.27018
-4.10396
-4.01422
-4.01061
-4.06765
-4.20755
-4.43385
-4.7352
-5.17034
-5.70811
-6.39144
-7.22556
-8.28367
-9.52754
-11.1111
-13.0823
-15.9638
-3.88967
-3.70938
-3.60795
-3.58281
-3.60768
-3.70775
-3.86144
-4.09932
-4.4294
-4.84308
-5.41388
-6.11203
-6.99808
-8.09139
-9.50357
-11.2119
-13.4633
-16.3866
-21.4042
-2.65621
-2.78327
-2.87405
-2.98971
-3.12846
-3.32982
-3.57695
-3.90841
-4.338
-4.86225
-5.57269
-6.44625
-7.57009
-8.99228
-10.8903
-13.2898
-16.6125
-21.1666
-30.9484
-1.48264
-1.83481
-2.08445
-2.32548
-2.56961
-2.86383
-3.19435
-3.60634
-4.11941
-4.73807
-5.57534
-6.62075
-8.0018
-9.82279
-12.3776
-15.8175
-20.9201
-28.4139
-49.6824
-0.48626
-0.905491
-1.25396
-1.59552
-1.93208
-2.30703
-2.70448
-3.17463
-3.73913
-4.41399
-5.33633
-6.50872
-8.12276
-10.4078
-13.9381
-19.4235
-29.1979
-47.2092
-111.525
)
;

boundaryField
{
    up
    {
        type            calculated;
        value           nonuniform List<scalar> 
84
(
-101.062
-54.7344
-33.6017
-22.9477
-16.9491
-13.2014
-10.6531
-8.80679
-7.40792
-6.30917
-5.42643
-4.7046
-4.10336
-3.59669
-3.16488
-2.79252
-2.46789
-2.18206
-1.92783
-1.69795
-1.48501
-1.27712
-1.04464
-0.675787
-0.655792
-0.827635
-0.957949
-1.0889
-1.23319
-1.40163
-1.60772
-1.86809
-2.2595
-3.87684
-5.2005
-5.37952
-5.24619
-5.3373
-5.47991
-5.61332
-5.71328
-5.77658
-5.77674
-5.71389
-5.61421
-5.48082
-5.33822
-5.2466
-5.37827
-5.20243
-3.89335
-2.26259
-1.86997
-1.60918
-1.40281
-1.2342
-1.08983
-0.958862
-0.828787
-0.656546
-0.675338
-1.04469
-1.27714
-1.48503
-1.69796
-1.92784
-2.18207
-2.46789
-2.79252
-3.16488
-3.59668
-4.10336
-4.70459
-5.42643
-6.30918
-7.40793
-8.8068
-10.6531
-13.2014
-16.9491
-22.9477
-33.6017
-54.7344
-101.062
)
;
    }
    low
    {
        type            calculated;
        value           nonuniform List<scalar> 
84
(
-0.521371
-1.54759
-2.79814
-4.13022
-5.36626
-6.3425
-6.96439
-7.23347
-7.19755
-6.93097
-6.66226
-6.33786
-5.92583
-5.57919
-5.26895
-4.95521
-4.67063
-4.43536
-4.19282
-3.92559
-3.70037
-3.50523
-3.32091
-3.15757
-3.00423
-2.91099
-2.91613
-3.03298
-3.23636
-3.52484
-3.8804
-4.25313
-4.6846
-5.1935
-5.75452
-6.40173
-7.13501
-7.80181
-8.34771
-8.79055
-9.1157
-9.33492
-9.33496
-9.11574
-8.79061
-8.3478
-7.8019
-7.13512
-6.40186
-5.75449
-5.19358
-4.68457
-4.25312
-3.88039
-3.52484
-3.23635
-3.033
-2.91615
-2.91102
-3.00428
-3.15768
-3.32094
-3.50528
-3.70041
-3.92562
-4.19284
-4.43538
-4.67065
-4.95521
-5.26895
-5.57917
-5.92582
-6.33783
-6.66223
-6.93096
-7.19755
-7.23348
-6.96441
-6.34253
-5.3663
-4.13026
-2.79816
-1.5476
-0.521375
)
;
    }
    left
    {
        type            calculated;
        value           nonuniform List<scalar> 
19
(
-0.476854
-0.888155
-1.24297
-1.59513
-1.94485
-2.33432
-2.74872
-3.24098
-3.83373
-4.55105
-5.53682
-6.80036
-8.5594
-11.0886
-15.0325
-21.2612
-32.492
-53.4346
-104.824
)
;
    }
    right
    {
        type            calculated;
        value           nonuniform List<scalar> 
19
(
-0.476857
-0.888157
-1.24297
-1.59513
-1.94485
-2.33432
-2.74872
-3.24098
-3.83373
-4.55104
-5.53682
-6.80035
-8.5594
-11.0886
-15.0325
-21.2612
-32.492
-53.4346
-104.824
)
;
    }
    frontAndBackPlanes
    {
        type            empty;
    }
}


// ************************************************************************* //
