/*--------------------------------*- C++ -*----------------------------------*\
  =========                 |
  \\      /  F ield         | OpenFOAM: The Open Source CFD Toolbox
   \\    /   O peration     | Website:  https://openfoam.org
    \\  /    A nd           | Version:  7
     \\/     M anipulation  |
\*---------------------------------------------------------------------------*/
FoamFile
{
    version     2.0;
    format      ascii;
    class       volScalarField;
    location    "0.21";
    object      gradTx;
}
// * * * * * * * * * * * * * * * * * * * * * * * * * * * * * * * * * * * * * //

dimensions      [0 -1 0 1 0 0 0];

internalField   nonuniform List<scalar> 
1596
(
-0.0485041
-0.24332
-0.43509
-0.606758
-0.756712
-0.884213
-0.995205
-1.09357
-1.18475
-1.27904
-1.37959
-1.49882
-1.65107
-1.85677
-2.13966
-2.55844
-3.20302
-4.26728
-6.15212
0.010882
-0.201914
-0.390602
-0.552724
-0.69175
-0.808277
-0.907724
-0.992072
-1.06546
-1.13339
-1.19683
-1.26266
-1.33372
-1.41404
-1.50192
-1.59361
-1.66423
-1.66241
-1.47866
0.0596998
-0.163598
-0.345722
-0.496252
-0.622536
-0.726834
-0.813848
-0.884909
-0.942829
-0.990654
-1.02831
-1.05955
-1.08397
-1.10153
-1.10839
-1.09761
-1.04945
-0.928943
-0.666804
0.0679364
-0.142109
-0.307758
-0.442252
-0.553578
-0.644714
-0.71934
-0.778514
-0.824039
-0.857512
-0.878648
-0.889331
-0.888468
-0.874984
-0.845783
-0.795278
-0.710966
-0.572152
-0.337862
0.0218376
-0.146464
-0.283452
-0.396413
-0.490304
-0.567369
-0.629852
-0.678503
-0.714317
-0.737923
-0.749159
-0.748716
-0.735578
-0.708561
-0.665643
-0.602898
-0.513107
-0.384667
-0.194298
-0.0742891
-0.180178
-0.278035
-0.364143
-0.438036
-0.499913
-0.550224
-0.58918
-0.617036
-0.633692
-0.639129
-0.633219
-0.615146
-0.583791
-0.537927
-0.474773
-0.390356
-0.278277
-0.125568
-0.201879
-0.240474
-0.293801
-0.349217
-0.400851
-0.446243
-0.483932
-0.513331
-0.533977
-0.545164
-0.546887
-0.538444
-0.519138
-0.487896
-0.443939
-0.385159
-0.309406
-0.213117
-0.0891062
-0.335168
-0.315817
-0.326187
-0.350234
-0.37872
-0.406866
-0.431548
-0.451267
-0.464877
-0.47116
-0.469985
-0.460253
-0.441287
-0.412013
-0.371854
-0.319074
-0.252474
-0.16999
-0.0676216
-0.472866
-0.41295
-0.385445
-0.378116
-0.381749
-0.39049
-0.40018
-0.408498
-0.413696
-0.414116
-0.409355
-0.398027
-0.379359
-0.352212
-0.316015
-0.269205
-0.210989
-0.140022
-0.0539444
-0.555467
-0.481065
-0.431412
-0.401718
-0.385737
-0.378216
-0.37492
-0.373119
-0.370724
-0.365819
-0.357745
-0.344979
-0.326653
-0.301603
-0.269225
-0.228092
-0.177593
-0.116766
-0.0441209
-0.62306
-0.542839
-0.480031
-0.433871
-0.401392
-0.378921
-0.362935
-0.350771
-0.340273
-0.329435
-0.317379
-0.302523
-0.283891
-0.260284
-0.231016
-0.194727
-0.150834
-0.0985346
-0.0367816
-0.692389
-0.611974
-0.541062
-0.482032
-0.434788
-0.397628
-0.368267
-0.344571
-0.324608
-0.306449
-0.289082
-0.270899
-0.25081
-0.227553
-0.200323
-0.167772
-0.129248
-0.0839735
-0.031071
-0.712321
-0.642726
-0.573662
-0.510643
-0.455987
-0.409865
-0.371351
-0.339124
-0.311745
-0.287576
-0.265652
-0.244467
-0.222912
-0.199736
-0.174075
-0.14463
-0.110698
-0.0715135
-0.0262783
-0.718557
-0.660643
-0.597238
-0.534429
-0.476047
-0.423859
-0.378248
-0.338841
-0.304837
-0.275028
-0.248623
-0.224283
-0.20093
-0.177352
-0.152644
-0.125549
-0.0953098
-0.0611544
-0.0223186
-0.719256
-0.671856
-0.615314
-0.555063
-0.495455
-0.43937
-0.388312
-0.342865
-0.302946
-0.267856
-0.237079
-0.209487
-0.184081
-0.1597
-0.135417
-0.110007
-0.0826641
-0.0525954
-0.0190417
-0.703923
-0.667832
-0.619609
-0.564359
-0.506448
-0.449362
-0.395415
-0.346023
-0.301803
-0.262605
-0.228257
-0.197897
-0.170653
-0.14545
-0.121372
-0.097237
-0.0722121
-0.0454923
-0.0163169
-0.67161
-0.646368
-0.607334
-0.558954
-0.505285
-0.450005
-0.395894
-0.344987
-0.298503
-0.256814
-0.220123
-0.187864
-0.159335
-0.133583
-0.109736
-0.0866735
-0.0635638
-0.0396106
-0.0140622
-0.632958
-0.61473
-0.583848
-0.5427
-0.494504
-0.442737
-0.390355
-0.339785
-0.292709
-0.249945
-0.212051
-0.178755
-0.149542
-0.123591
-0.100093
-0.0779962
-0.0564885
-0.0348034
-0.0122198
-0.600623
-0.588003
-0.563334
-0.527995
-0.484422
-0.435779
-0.385083
-0.335022
-0.28765
-0.244158
-0.205401
-0.171365
-0.141688
-0.115659
-0.0925037
-0.0712087
-0.050966
-0.0310411
-0.0107649
-0.542104
-0.537058
-0.519801
-0.491865
-0.45515
-0.41235
-0.366278
-0.319645
-0.274688
-0.232856
-0.195245
-0.162082
-0.13318
-0.107963
-0.0857278
-0.0655097
-0.0465129
-0.0280567
-0.00959943
-0.47639
-0.477351
-0.466831
-0.446001
-0.416346
-0.380099
-0.339768
-0.297931
-0.256853
-0.218115
-0.182957
-0.151791
-0.12458
-0.100881
-0.0800657
-0.0612019
-0.0434533
-0.0261193
-0.00880983
-0.407074
-0.411882
-0.406941
-0.392618
-0.369895
-0.340526
-0.306664
-0.270643
-0.234636
-0.200235
-0.168719
-0.140612
-0.115986
-0.0945255
-0.0756965
-0.0586088
-0.0423168
-0.0258793
-0.00874562
-0.32941
-0.336064
-0.335655
-0.327585
-0.312165
-0.290551
-0.26443
-0.235759
-0.206488
-0.178096
-0.151776
-0.128098
-0.107187
-0.0888652
-0.0727548
-0.058109
-0.0439252
-0.0288326
-0.0111402
-0.241054
-0.237726
-0.229228
-0.215743
-0.198279
-0.178242
-0.15722
-0.136617
-0.117597
-0.100817
-0.0864991
-0.0744847
-0.0643387
-0.0555825
-0.0477651
-0.0403723
-0.0326948
-0.0234815
-0.0105336
-0.161139
-0.178689
-0.196639
-0.21152
-0.221081
-0.224151
-0.220788
-0.21184
-0.1988
-0.183237
-0.16646
-0.149557
-0.133082
-0.117553
-0.103334
-0.0906431
-0.0791907
-0.0680952
-0.0550968
-0.0543374
-0.0621422
-0.0720781
-0.0822281
-0.0911726
-0.0979453
-0.102241
-0.104117
-0.104081
-0.102703
-0.100253
-0.0970334
-0.0928368
-0.087686
-0.0817636
-0.0757182
-0.0699795
-0.0650229
-0.0606739
0.0527043
0.0431868
0.0293525
0.012986
-0.00418585
-0.020723
-0.0357079
-0.0486646
-0.0596179
-0.0688078
-0.0762598
-0.0820177
-0.0856124
-0.0867573
-0.0854378
-0.0824303
-0.0785219
-0.0746686
-0.0712568
0.159297
0.146337
0.127292
0.10415
0.0788786
0.0532375
0.0285427
0.00559506
-0.0153346
-0.034305
-0.0512421
-0.0660151
-0.0778994
-0.0861471
-0.0902501
-0.0907966
-0.0888122
-0.0858219
-0.0827313
0.255224
0.236643
0.211255
0.181356
0.14899
0.115994
0.0837781
0.0531928
0.0245595
-0.00219642
-0.0270715
-0.0499396
-0.0699363
-0.0858167
-0.0962686
-0.10122
-0.101543
-0.0992958
-0.0960774
0.354026
0.328373
0.295755
0.258558
0.218899
0.17869
0.139366
0.101756
0.0661466
0.0323548
0.000193542
-0.0304414
-0.0588255
-0.0834373
-0.102045
-0.113382
-0.117394
-0.116298
-0.112653
0.427767
0.39408
0.354489
0.31131
0.266606
0.222085
0.178923
0.137681
0.0984413
0.0607983
0.0242891
-0.0116049
-0.0466429
-0.0795252
-0.107402
-0.127517
-0.137711
-0.139081
-0.134694
0.496059
0.455558
0.409212
0.36026
0.310875
0.262563
0.216231
0.172186
0.130336
0.0901005
0.0507932
0.0114266
-0.0285392
-0.0687512
-0.106731
-0.138949
-0.160408
-0.168886
-0.165944
0.558505
0.509097
0.455559
0.401187
0.347904
0.296822
0.248491
0.202935
0.15992
0.118775
0.0787452
0.0385822
-0.00297337
-0.0469612
-0.0925649
-0.137669
-0.175946
-0.200676
-0.205108
0.597911
0.535082
0.470773
0.407892
0.347865
0.291324
0.238441
0.189005
0.142669
0.0987572
0.0565242
0.0147404
-0.0281498
-0.0742458
-0.12501
-0.181889
-0.242214
-0.300579
-0.346782
0.621324
0.552929
0.488002
0.428307
0.373977
0.324632
0.279669
0.238444
0.200391
0.164948
0.131697
0.100097
0.0694874
0.0388127
0.00659222
-0.0301534
-0.0742985
-0.129133
-0.195978
0.637979
0.567549
0.504933
0.449406
0.399751
0.354942
0.314048
0.276363
0.241378
0.208661
0.178006
0.149271
0.122329
0.0971596
0.0738561
0.052214
0.0318748
0.0116678
-0.0105952
0.602129
0.521841
0.453522
0.394536
0.3429
0.297224
0.256367
0.219477
0.185918
0.155126
0.126776
0.100628
0.0764679
0.0542408
0.0341067
0.0162469
0.00104483
-0.0110216
-0.0197353
0.527312
0.454544
0.393579
0.341617
0.296651
0.257249
0.222286
0.190919
0.162542
0.136639
0.112914
0.0911524
0.0711517
0.0528165
0.0361652
0.0211674
0.00784306
-0.00373886
-0.0136441
0.437242
0.376364
0.325214
0.281748
0.244334
0.211733
0.182963
0.157279
0.134147
0.113117
0.0939163
0.0763454
0.0601982
0.0453492
0.0317607
0.0193569
0.00811692
-0.00190258
-0.0107407
0.328724
0.281879
0.242909
0.210099
0.182079
0.157813
0.136505
0.117552
0.100532
0.0850876
0.0710018
0.0581117
0.0462474
0.0353012
0.0252361
0.0159927
0.00756263
7.94874e-06
-0.00668222
0.206811
0.175582
0.150417
0.129642
0.112115
0.097053
0.0838935
0.0722273
0.061774
0.0522998
0.0436609
0.0357487
0.0284496
0.02169
0.015442
0.00966684
0.00436116
-0.00042617
-0.00468882
0.0793378
0.066701
0.0568878
0.0488993
0.0421869
0.0364199
0.0313806
0.0269159
0.0229219
0.0193116
0.0160287
0.0130285
0.0102638
0.00770092
0.00532146
0.00310376
0.00103899
-0.000860655
-0.00259417
-0.0792997
-0.0666156
-0.0567705
-0.0487612
-0.0420362
-0.0362631
-0.0312228
-0.0267612
-0.0227736
-0.0191725
-0.015901
-0.0129143
-0.0101648
-0.00761871
-0.00525732
-0.0030587
-0.00101363
0.000866293
0.00258042
-0.206775
-0.175506
-0.150314
-0.129521
-0.111984
-0.0969177
-0.0837586
-0.0720965
-0.0616503
-0.0521856
-0.0435585
-0.0356597
-0.0283759
-0.021633
-0.015403
-0.00964675
-0.00436042
0.000407849
0.00465213
-0.328688
-0.281806
-0.242809
-0.209979
-0.181947
-0.157675
-0.136366
-0.117415
-0.100399
-0.0849623
-0.0708861
-0.0580072
-0.0461557
-0.0352235
-0.025173
-0.0159445
-0.00752883
1.25e-05
0.0066906
-0.437215
-0.376313
-0.325146
-0.281667
-0.244246
-0.21164
-0.18287
-0.157188
-0.134062
-0.113038
-0.0938476
-0.0762882
-0.0601541
-0.0453193
-0.0317452
-0.0193552
-0.00812755
0.00188158
0.0107109
-0.527294
-0.454512
-0.393534
-0.341562
-0.296588
-0.257181
-0.222216
-0.190849
-0.162476
-0.13658
-0.112865
-0.0911168
-0.0711317
-0.0528124
-0.0361755
-0.0211882
-0.00786954
0.00371118
0.0136177
-0.602128
-0.521832
-0.453502
-0.394506
-0.342864
-0.297184
-0.256326
-0.219439
-0.185887
-0.155108
-0.126775
-0.100648
-0.0765086
-0.0543008
-0.0341804
-0.016327
-0.00112288
0.0109536
0.0196846
-0.637978
-0.567496
-0.50481
-0.449208
-0.399481
-0.354607
-0.313658
-0.275928
-0.24091
-0.208168
-0.177495
-0.148745
-0.121785
-0.0965923
-0.0732652
-0.0516162
-0.0313146
-0.0112298
0.0107907
-0.621436
-0.553226
-0.488489
-0.428976
-0.374816
-0.325626
-0.280799
-0.239693
-0.201741
-0.166385
-0.13321
-0.101683
-0.0711578
-0.0405995
-0.00855002
0.0279461
0.0717715
0.126262
0.192842
-0.597867
-0.534961
-0.470561
-0.407591
-0.347482
-0.290867
-0.237923
-0.188438
-0.142064
-0.098124
-0.0558737
-0.0140851
0.0287934
0.0748623
0.125602
0.1825
0.242948
0.301582
0.348198
-0.558545
-0.50919
-0.455696
-0.40136
-0.348105
-0.297042
-0.248724
-0.203176
-0.160166
-0.119023
-0.0789973
-0.0388413
0.0027045
0.0466888
0.0923137
0.137489
0.175898
0.200799
0.205357
-0.496085
-0.455614
-0.409296
-0.360369
-0.311003
-0.262705
-0.216382
-0.172344
-0.130498
-0.0902656
-0.0509588
-0.0115891
0.0283889
0.0686329
0.106673
0.138977
0.160527
0.169077
0.166189
-0.427793
-0.394133
-0.354573
-0.311422
-0.266738
-0.222232
-0.179079
-0.137841
-0.0986019
-0.0609546
-0.0244366
0.0114732
0.0465391
0.0794671
0.107407
0.127592
0.137842
0.139243
0.134867
-0.354048
-0.328423
-0.295841
-0.258673
-0.219037
-0.178841
-0.139525
-0.101915
-0.0663006
-0.0324981
-0.000320747
0.0303371
0.0587534
0.0834079
0.102064
0.113448
0.117495
0.116419
0.112783
-0.255243
-0.236693
-0.21134
-0.181469
-0.149122
-0.116139
-0.0839263
-0.0533374
-0.0246944
0.0020766
0.0269716
0.049865
0.069893
0.0858095
0.096298
0.101281
0.101626
0.0993936
0.0961798
-0.159318
-0.146396
-0.127386
-0.104269
-0.079015
-0.0533832
-0.0286889
-0.00573388
0.0152095
0.0341989
0.0511589
0.0659584
0.0778724
0.0861511
0.0902831
0.090853
0.0888853
0.0859073
0.0828186
-0.0527239
-0.0432485
-0.0294443
-0.0130994
0.00405776
0.0205884
0.0355753
0.0485414
0.0595103
0.0687202
0.076195
0.0819779
0.0855983
0.0867679
0.0854695
0.0824776
0.0785796
0.0747406
0.0713427
0.0542895
0.0619958
0.0718428
0.0819136
0.090795
0.0975271
0.101807
0.103691
0.103682
0.102345
0.0999455
0.0967795
0.0926365
0.0875358
0.0816568
0.0756466
0.0699328
0.0650056
0.0607274
0.16117
0.178809
0.196872
0.211869
0.221531
0.224679
0.221367
0.212442
0.1994
0.183815
0.167
0.150053
0.13353
0.117956
0.103701
0.090981
0.079499
0.0683636
0.0553493
0.241021
0.237605
0.229018
0.215455
0.197931
0.177859
0.156826
0.136235
0.117243
0.100502
0.0862267
0.0742553
0.0641496
0.0554303
0.0476468
0.0402864
0.0326385
0.0234459
0.010511
0.329431
0.336106
0.335713
0.327658
0.312247
0.290635
0.264511
0.235833
0.206552
0.178147
0.151814
0.128123
0.1072
0.08887
0.0727539
0.0581061
0.0439238
0.0288334
0.0111382
0.407078
0.411888
0.406945
0.392624
0.369903
0.340535
0.306673
0.270651
0.234641
0.200238
0.168717
0.140607
0.115978
0.0945164
0.075687
0.0586
0.0423098
0.0258758
0.00874589
0.476393
0.477357
0.466836
0.446006
0.416353
0.380106
0.339776
0.297937
0.256856
0.218116
0.182955
0.151786
0.124574
0.100875
0.0800595
0.0611963
0.0434485
0.0261162
0.00880969
0.542105
0.537063
0.519805
0.491868
0.455155
0.412355
0.366283
0.31965
0.274691
0.232857
0.195243
0.162078
0.133176
0.107959
0.085724
0.0655063
0.04651
0.0280547
0.00959907
0.600624
0.588007
0.563338
0.527998
0.484425
0.435784
0.385088
0.335026
0.287652
0.244159
0.205401
0.171363
0.141686
0.115656
0.092501
0.0712063
0.0509641
0.0310399
0.0107646
0.632958
0.61473
0.583849
0.542702
0.494506
0.44274
0.390359
0.339789
0.292711
0.249947
0.212051
0.178754
0.14954
0.123589
0.10009
0.0779939
0.0564867
0.0348024
0.0122194
0.67161
0.646366
0.607334
0.558954
0.505287
0.450007
0.395896
0.344989
0.298505
0.256815
0.220123
0.187863
0.159334
0.133581
0.109733
0.086671
0.063562
0.0396097
0.0140617
0.703923
0.667832
0.619611
0.564361
0.506449
0.449363
0.395416
0.346024
0.301804
0.262606
0.228257
0.197896
0.170651
0.145448
0.121369
0.0972344
0.0722105
0.0454916
0.0163165
0.719256
0.671855
0.615314
0.555063
0.495455
0.439369
0.388311
0.342865
0.302945
0.267856
0.237078
0.209486
0.184079
0.159698
0.135415
0.110005
0.0826629
0.052595
0.0190414
0.718557
0.660643
0.597238
0.534428
0.476046
0.423857
0.378246
0.338839
0.304835
0.275027
0.248623
0.224282
0.200929
0.17735
0.152642
0.125547
0.0953094
0.0611547
0.0223185
0.712322
0.642728
0.573663
0.510643
0.455986
0.409862
0.371348
0.339121
0.311743
0.287574
0.265651
0.244467
0.222911
0.199735
0.174075
0.14463
0.110699
0.0715146
0.0262787
0.692385
0.611971
0.54106
0.482028
0.434783
0.397622
0.368261
0.344565
0.324603
0.306446
0.28908
0.270898
0.25081
0.227553
0.200324
0.167774
0.12925
0.0839754
0.0310718
0.623061
0.54284
0.48003
0.433869
0.401389
0.378917
0.36293
0.350766
0.340269
0.329432
0.317378
0.302523
0.283892
0.260287
0.231019
0.194732
0.150838
0.0985371
0.0367828
0.555472
0.481069
0.431414
0.401717
0.385733
0.378211
0.374915
0.373114
0.37072
0.365816
0.357743
0.344979
0.326655
0.301607
0.269231
0.228098
0.177597
0.116769
0.0441225
0.47287
0.412956
0.385448
0.378114
0.381744
0.390485
0.400175
0.408493
0.413692
0.414113
0.409354
0.398028
0.379363
0.352218
0.316023
0.269212
0.210994
0.140025
0.0539461
0.335172
0.31582
0.326187
0.350231
0.378716
0.406861
0.431544
0.451263
0.464873
0.471158
0.469985
0.460255
0.441291
0.41202
0.371863
0.319081
0.252478
0.169991
0.067623
0.201883
0.240474
0.293799
0.349214
0.400848
0.446241
0.48393
0.513329
0.533975
0.545163
0.546888
0.538447
0.519143
0.487903
0.443947
0.385165
0.309408
0.213117
0.089107
0.0742916
0.180175
0.278031
0.364142
0.438037
0.499914
0.550224
0.589179
0.617035
0.633692
0.639131
0.633223
0.61515
0.583796
0.537931
0.474775
0.390355
0.278275
0.125568
-0.0218365
0.146459
0.283449
0.396413
0.490306
0.567371
0.629853
0.678504
0.714317
0.737924
0.749161
0.748719
0.735581
0.708562
0.665642
0.602895
0.513103
0.384664
0.194297
-0.0679369
0.142106
0.307757
0.442254
0.553581
0.644716
0.719342
0.778516
0.824041
0.857515
0.87865
0.889332
0.888467
0.87498
0.845775
0.795269
0.71096
0.572149
0.337862
-0.0597007
0.163599
0.345724
0.496254
0.622537
0.726835
0.813849
0.884911
0.942831
0.990655
1.02831
1.05955
1.08397
1.10152
1.10838
1.0976
1.04945
0.928943
0.666803
-0.0108822
0.201916
0.390605
0.552726
0.691751
0.808278
0.907724
0.992072
1.06546
1.13339
1.19683
1.26265
1.33371
1.41403
1.50191
1.59361
1.66423
1.66242
1.47866
0.0485037
0.243321
0.435091
0.60676
0.756713
0.884213
0.995205
1.09357
1.18475
1.27904
1.37959
1.49882
1.65107
1.85677
2.13966
2.55844
3.20302
4.26727
6.15212
)
;

boundaryField
{
    up
    {
        type            calculated;
        value           nonuniform List<scalar> 
84
(
-6.15212
-1.47866
-0.666804
-0.337862
-0.194298
-0.125568
-0.0891062
-0.0676216
-0.0539444
-0.0441209
-0.0367816
-0.031071
-0.0262783
-0.0223186
-0.0190417
-0.0163169
-0.0140622
-0.0122198
-0.0107649
-0.00959943
-0.00880983
-0.00874562
-0.0111402
-0.0105336
-0.0469248
-0.0565683
-0.0672359
-0.0782626
-0.0908481
-0.106284
-0.126353
-0.153031
-0.185104
-0.342463
-0.202375
-0.0109563
-0.0196847
-0.0136044
-0.010718
-0.00667395
-0.00468595
-0.00259437
0.00258062
0.00464933
0.00668241
0.0106884
0.0135782
0.0196344
0.0111472
0.199151
0.344092
0.185326
0.153268
0.126522
0.10641
0.0909451
0.0783434
0.0673133
0.056649
0.0471697
0.010511
0.0111382
0.00874589
0.00880969
0.00959907
0.0107646
0.0122194
0.0140617
0.0163165
0.0190414
0.0223185
0.0262787
0.0310718
0.0367828
0.0441225
0.0539461
0.067623
0.089107
0.125568
0.194297
0.337862
0.666803
1.47866
6.15212
)
;
    }
    low
    {
        type            calculated;
        value           nonuniform List<scalar> 
84
(
-0.0436961
0.0181683
0.071454
0.080696
0.0298464
-0.0757678
-0.214027
-0.355534
-0.496389
-0.574783
-0.640026
-0.70607
-0.718219
-0.719691
-0.717406
-0.697659
-0.66155
-0.621905
-0.587169
-0.524184
-0.456265
-0.386463
-0.309212
-0.223304
-0.14724
-0.0493148
0.0469814
0.145085
0.237036
0.335908
0.413007
0.484132
0.550663
0.595355
0.622958
0.644554
0.613892
0.539907
0.448489
0.337685
0.21275
0.0818227
-0.0817844
-0.212714
-0.337646
-0.448458
-0.539883
-0.613883
-0.644545
-0.623054
-0.595312
-0.550694
-0.484154
-0.41303
-0.335932
-0.237057
-0.145108
-0.0470013
0.0492679
0.14727
0.223273
0.30923
0.386467
0.456267
0.524186
0.587171
0.621907
0.661551
0.69766
0.717405
0.719689
0.718218
0.706065
0.640026
0.574787
0.496395
0.35554
0.214032
0.0757706
-0.0298451
-0.0806959
-0.0714538
-0.0181675
0.043696
)
;
    }
    left
    {
        type            calculated;
        value           nonuniform List<scalar> 
19
(
-0.0431088
-0.233777
-0.429562
-0.607265
-0.763744
-0.897232
-1.01411
-1.11889
-1.21699
-1.32125
-1.43474
-1.57136
-1.74975
-1.9971
-2.34319
-2.8704
-3.70349
-5.11323
-5.33567
)
;
    }
    right
    {
        type            calculated;
        value           nonuniform List<scalar> 
19
(
0.0431082
0.233776
0.429562
0.607266
0.763745
0.897234
1.01411
1.11889
1.21699
1.32125
1.43474
1.57135
1.74974
1.9971
2.34318
2.87039
3.70348
5.11321
5.33567
)
;
    }
    frontAndBackPlanes
    {
        type            empty;
    }
}


// ************************************************************************* //
