/*--------------------------------*- C++ -*----------------------------------*\
  =========                 |
  \\      /  F ield         | OpenFOAM: The Open Source CFD Toolbox
   \\    /   O peration     | Website:  https://openfoam.org
    \\  /    A nd           | Version:  7
     \\/     M anipulation  |
\*---------------------------------------------------------------------------*/
FoamFile
{
    version     2.0;
    format      ascii;
    class       volScalarField;
    location    "0.233";
    object      gradTz;
}
// * * * * * * * * * * * * * * * * * * * * * * * * * * * * * * * * * * * * * //

dimensions      [0 -1 0 1 0 0 0];

internalField   nonuniform List<scalar> 
1596
(
-6.45458e-16
-3.13576e-16
3.1887e-16
7.15017e-18
-6.06782e-16
0
-2.82922e-16
-2.78986e-16
-1.88585e-17
-1.47165e-16
-1.31987e-18
-1.4649e-16
6.45271e-16
-1.44976e-16
6.77273e-16
5.84567e-16
3.4774e-16
4.39251e-16
0
6.44622e-16
0
9.06605e-16
-6.49632e-18
-2.77048e-16
2.7456e-16
5.67059e-16
1.79913e-17
2.68439e-16
-1.29471e-16
2.58428e-16
-3.83455e-18
-3.58627e-16
-2.24162e-16
-5.47537e-16
-5.34332e-16
-4.86211e-16
2.76829e-16
0
-3.15619e-16
0
-5.90427e-16
1.03131e-17
5.39513e-16
-1.52435e-16
1.21744e-17
-3.74132e-18
-3.75695e-18
-3.96852e-18
9.70759e-17
0
1.86022e-16
5.27326e-16
-5.20058e-17
4.19482e-17
9.86133e-17
1.54309e-16
0
4.96428e-16
-1.48559e-16
1.48017e-16
0
-1.42168e-16
-1.47415e-16
2.49404e-16
-2.16577e-16
0
0
-7.93624e-17
5.0699e-17
0
-1.55109e-16
-1.97225e-16
1.36707e-16
-1.41123e-16
-7.25764e-18
0
8.67995e-17
2.29675e-16
-2.06171e-16
0
-6.05388e-17
-1.84487e-16
0
2.74971e-16
-2.73056e-17
-2.47312e-17
-2.496e-17
1.42667e-16
1.75902e-16
1.83028e-17
7.16285e-18
-1.4781e-16
7.44141e-18
6.85112e-17
-2.95564e-17
-2.25404e-17
-3.15079e-16
2.9859e-16
-2.5931e-16
-5.63215e-19
-2.27647e-16
6.40771e-18
-6.42898e-18
-1.78697e-16
0
-2.07538e-17
-1.68808e-16
-1.58868e-16
1.28572e-16
1.34769e-16
-1.83624e-18
-8.08311e-17
-6.94899e-17
5.31985e-17
1.88375e-16
-3.20646e-16
3.57804e-16
1.99464e-16
0
1.74925e-16
1.0227e-16
-4.91783e-17
2.26512e-16
-4.2431e-17
-1.80126e-16
1.59955e-18
-1.06311e-16
-1.29173e-16
-1.00511e-16
8.5902e-17
8.15426e-17
-1.09103e-18
-2.21572e-17
1.93552e-17
5.0976e-16
-5.96507e-16
0
0
-2.15217e-16
0
0
0
1.46232e-16
0
0
9.76514e-17
3.55162e-18
2.74288e-17
-7.51738e-17
0
4.00072e-17
1.57174e-17
0
-3.29606e-16
6.33438e-16
0
0
2.21644e-16
0
-8.356e-17
8.34756e-17
-1.48843e-16
6.1711e-17
-6.21623e-17
0
8.96719e-17
8.85096e-17
0
-5.10592e-17
-4.08754e-17
-1.3745e-17
7.99828e-16
-3.73606e-16
0
-2.60874e-16
2.57955e-16
0
1.88135e-16
0
0
0
5.65874e-17
-5.68586e-17
0
-6.9331e-17
-1.9755e-17
0
5.99092e-18
2.89668e-17
0
-2.03027e-16
0
0
2.61473e-16
-4.8647e-16
2.62342e-17
1.00396e-17
-7.66972e-17
8.94245e-18
3.31154e-18
-5.91782e-17
-9.44552e-17
0
7.13147e-17
-1.4396e-17
1.46121e-17
3.87277e-17
-2.27797e-17
-1.04247e-17
1.67076e-16
-1.89041e-17
1.60505e-16
5.44512e-16
-3.08135e-17
-2.26212e-16
0
0
0
1.21878e-16
4.84121e-17
1.74164e-16
-4.2027e-17
-7.00389e-17
-4.12646e-17
-2.27437e-17
1.01558e-17
-2.21649e-17
9.90567e-18
-1.85964e-16
1.82276e-16
-3.35971e-16
-5.37914e-16
4.96424e-16
1.9401e-16
-3.57477e-16
3.06801e-16
-2.63073e-16
6.86896e-17
5.19588e-17
-4.69958e-17
2.98925e-17
-2.7175e-17
7.98485e-17
0
-6.06044e-18
4.48431e-17
-6.67709e-18
-1.21029e-15
5.54075e-16
4.48044e-19
-1.19451e-16
1.62388e-17
1.88349e-16
-3.56963e-16
-1.4542e-16
1.22966e-16
-1.03473e-16
-8.74594e-17
0
-9.86374e-17
-2.92826e-17
-5.20233e-17
-3.09239e-17
2.4315e-18
-2.77994e-17
7.21069e-19
1.97809e-16
-1.75387e-16
3.42371e-19
-1.33203e-16
-3.28919e-16
3.09172e-16
1.42215e-18
1.41712e-16
-1.19724e-16
1.98158e-16
4.67772e-17
3.80436e-17
1.1602e-16
0
9.55807e-17
4.39362e-17
0
1.50471e-17
6.01692e-19
0
1.70146e-16
1.32061e-16
-2.75735e-16
3.18596e-16
-4.75518e-16
3.34063e-16
1.23826e-16
-1.93271e-17
-1.96235e-16
3.53159e-17
-3.51417e-17
-1.05229e-16
4.13689e-17
-2.08428e-17
-4.35495e-17
1.86672e-17
-1.1626e-17
4.66238e-18
-1.84247e-16
6.20486e-16
-4.62771e-16
2.48835e-16
0
0
-6.48789e-17
1.38979e-16
-9.66895e-17
1.81029e-16
0
0
7.0559e-17
-6.13221e-17
-4.28723e-17
1.35536e-17
-1.45549e-17
7.70957e-18
0
1.59603e-17
1.72312e-16
-1.37387e-16
-1.19471e-16
-1.90149e-16
-5.94304e-17
8.50515e-17
0
-9.06085e-17
-7.25299e-17
6.47153e-17
-5.21069e-17
4.17202e-17
0
1.64403e-17
3.16372e-17
0
0
0
-1.53096e-17
2.72148e-16
1.01847e-16
-3.61082e-16
9.84211e-17
8.35983e-17
0
0
8.52842e-17
-4.45478e-17
-6.25937e-17
5.03969e-17
-4.03466e-17
0
-1.04911e-17
8.75863e-18
0
-7.44832e-18
-2.61213e-18
-1.4695e-16
4.31229e-16
-5.20533e-16
-2.05073e-16
1.07991e-16
-7.89671e-17
6.54836e-17
0
-4.34426e-17
3.58794e-17
0
0
1.56401e-17
-1.56581e-17
4.60087e-18
-6.27203e-18
1.05237e-17
1.37882e-18
1.94944e-18
7.60397e-17
-6.81234e-17
3.45143e-16
-2.22422e-16
-8.88488e-17
1.21499e-17
1.35553e-16
5.041e-17
4.1568e-17
0
2.31444e-17
-2.13735e-17
1.67564e-17
-1.40036e-17
1.76476e-17
-3.02536e-17
-8.19381e-18
7.13061e-18
1.88053e-18
2.02629e-16
-2.05892e-16
0
1.84351e-16
-9.76775e-17
-7.12595e-17
4.78461e-17
-1.54281e-16
0
-2.77802e-18
-2.70693e-17
-1.90395e-17
2.71712e-17
-2.21015e-18
-1.70561e-17
1.24922e-17
0
4.43517e-18
-1.82598e-18
3.48518e-16
-6.10436e-17
2.56648e-16
-2.00842e-16
1.07926e-16
9.90644e-18
-1.2236e-16
-4.05395e-17
7.24746e-17
-3.27587e-18
-4.07199e-17
3.40183e-17
-1.47367e-17
-1.89098e-17
0
0
0
-4.47625e-18
1.65473e-19
-3.08498e-16
3.00018e-16
2.20462e-19
4.48958e-17
3.8187e-17
-9.05641e-17
1.05777e-16
-8.55759e-17
7.19886e-17
-2.3142e-17
4.38352e-17
1.52284e-17
-6.39502e-18
3.16246e-19
-2.1985e-18
-3.85738e-18
0
0
0
0
0
1.4466e-16
-7.22218e-17
-2.17528e-16
0
0
-2.48892e-17
-3.94052e-17
3.24712e-17
0
-1.92058e-17
1.46438e-17
-4.78642e-17
5.47835e-17
-1.75074e-17
1.86145e-17
2.01634e-18
0
-5.97599e-17
6.04955e-17
0
-4.77347e-17
4.83518e-17
7.87299e-17
0
2.51269e-17
3.19917e-17
-1.44418e-16
0
-2.15897e-17
1.65589e-17
1.15766e-17
-8.47707e-18
1.2298e-17
0
-4.44528e-18
0
-3.07387e-17
-3.03992e-17
1.79946e-18
4.90462e-17
-1.30411e-16
0
-3.28003e-17
0
9.00627e-17
3.56691e-17
0
8.56427e-17
-8.87564e-17
9.26448e-18
-1.8718e-17
5.73007e-18
2.37021e-17
8.81525e-18
-6.9854e-18
0
6.33394e-17
-5.49223e-17
6.80316e-17
8.06496e-17
0
6.65953e-17
-6.26314e-17
-4.83967e-17
7.14696e-17
-1.07151e-16
-5.12411e-17
0
0
1.06842e-17
0
0
2.98472e-18
0
-2.81853e-16
2.16599e-16
0
3.52352e-18
-4.69165e-17
-2.5574e-18
4.11506e-17
2.87739e-17
-3.6572e-17
-9.03297e-17
1.41201e-16
-3.84336e-17
0
-1.77369e-17
0
0
0
-1.15531e-17
9.23604e-18
-7.99501e-17
7.45149e-17
1.97521e-16
-1.92635e-16
5.87851e-17
3.45835e-18
-4.17946e-17
3.56622e-17
5.99797e-17
4.52699e-17
-8.93731e-17
0
4.48269e-17
5.62255e-18
-2.0308e-17
-4.36035e-17
3.5832e-17
-5.6469e-18
1.0759e-17
-2.71348e-16
3.86823e-16
-3.8316e-16
6.68689e-17
5.62341e-17
-5.33064e-17
4.46423e-17
-3.50067e-17
0
-2.92314e-17
4.60825e-17
1.99573e-17
3.18898e-17
3.95729e-17
-5.90502e-17
-1.17512e-18
0
-4.41064e-18
1.48145e-18
-2.93386e-16
-8.67269e-17
-1.50999e-16
8.05616e-17
-1.30032e-16
1.12201e-16
-6.66348e-17
5.58004e-17
-4.09798e-18
-4.07491e-18
-4.88426e-17
2.90451e-17
-1.56599e-17
4.79852e-17
-5.15126e-17
6.14022e-18
5.36952e-18
0
-2.58175e-18
3.17215e-16
-9.35987e-17
0
0
-1.33869e-16
2.59875e-16
-6.04702e-17
-1.14621e-17
9.38511e-17
-2.45195e-18
0
0
-2.10001e-17
0
-4.51459e-17
1.08939e-16
-7.5371e-17
0
1.03807e-18
1.08205e-16
2.01361e-16
0
-8.51029e-17
-6.87523e-17
-6.03033e-17
-6.29844e-17
2.58366e-17
-7.19375e-17
-3.89868e-17
0
0
2.85717e-17
0
0
-6.1638e-17
1.01722e-16
0
0
7.42646e-16
-8.90616e-17
-4.47035e-16
-2.41415e-16
3.27648e-16
1.03669e-16
6.10712e-17
0
-2.22116e-17
2.13071e-17
5.29946e-17
-1.70323e-17
-2.50719e-17
3.88189e-17
-4.12915e-17
-1.2568e-17
0
0
0
5.94719e-17
-4.67168e-16
4.57813e-16
-4.36747e-17
-3.35848e-16
5.24647e-16
-2.62894e-16
0
0
1.38082e-16
-1.132e-16
0
-3.38293e-17
5.90461e-17
-6.55267e-18
1.71697e-17
5.2163e-18
5.87989e-20
1.1315e-18
0
0
0
3.82871e-16
-2.56894e-16
2.68013e-16
-4.17428e-16
1.18606e-16
0
-4.23503e-17
6.74543e-17
-6.89423e-17
-1.3437e-17
-1.65276e-19
-9.16962e-18
-1.32624e-18
-7.31658e-18
-2.05928e-18
-1.12154e-18
4.97384e-16
-8.8572e-16
4.19177e-16
0
1.11796e-16
-1.52388e-16
1.51841e-16
-1.20433e-16
0
-5.81596e-17
8.15369e-17
0
0
-1.12733e-19
0
-9.56938e-18
6.53813e-18
1.18216e-18
1.7918e-18
4.8426e-16
0
-1.91265e-16
2.13604e-16
-1.33353e-16
2.91104e-16
-1.37413e-16
-1.06961e-16
1.08079e-16
-1.09607e-17
0
0
6.98877e-18
-1.17422e-17
-8.23502e-18
1.55992e-17
-3.37692e-18
1.72085e-18
0
2.74893e-16
2.13829e-16
-7.81484e-18
-2.03774e-16
-2.04961e-17
-1.47318e-16
1.62533e-17
1.23497e-16
-6.36415e-18
1.11665e-17
0
0
-7.15952e-18
0
8.41303e-18
-8.99993e-18
0
1.15217e-18
-3.19068e-19
-1.45897e-16
-1.07293e-16
1.00479e-16
-1.14659e-17
-5.1316e-18
1.38283e-17
0
-3.63656e-18
5.43034e-17
-4.57317e-17
0
1.54162e-17
-3.04314e-18
-1.35926e-17
-1.2422e-18
-9.68066e-19
0
-9.00967e-19
0
5.94664e-17
-1.12971e-16
-1.37166e-18
4.83919e-17
4.40982e-17
-4.37975e-17
-3.09171e-17
3.49915e-17
-1.19666e-17
9.36543e-18
-9.06995e-18
9.34969e-18
0
2.38265e-20
-9.15897e-19
3.29055e-18
-1.1257e-20
0
0
5.94684e-17
-5.92456e-17
-4.8138e-17
4.26522e-17
7.78913e-17
-7.83511e-17
-1.54591e-17
1.5496e-17
-1.20679e-17
1.21945e-17
-9.07029e-18
1.7106e-17
-4.79779e-18
-3.44835e-18
-1.05673e-18
3.50754e-19
8.35473e-19
2.20844e-19
-1.65615e-19
0
-1.40917e-17
8.3822e-17
-9.08805e-17
7.77304e-17
-6.89195e-17
0
5.44841e-17
-4.87484e-17
0
1.80422e-17
-2.28368e-17
-1.29708e-17
1.35943e-17
2.49469e-18
0
0
-9.01123e-19
3.2738e-19
2.36633e-16
-4.35328e-16
4.43164e-16
-3.8821e-16
1.52485e-16
-1.28976e-16
1.22422e-16
1.44908e-17
-5.38307e-17
4.80883e-17
0
-3.47013e-17
3.16115e-17
-5.98696e-18
-2.44355e-18
3.83085e-18
2.81458e-18
8.74818e-19
-3.16323e-19
5.45946e-16
0
-2.16407e-16
1.68209e-16
2.02605e-17
-1.55181e-16
2.74896e-16
-2.43424e-16
9.54688e-17
-4.06394e-17
4.1598e-17
8.22401e-18
1.4068e-17
5.83136e-18
-4.81524e-18
-6.40177e-19
-6.09262e-18
0
6.2019e-19
4.36521e-16
-4.91367e-16
0
4.4808e-17
1.92605e-16
-1.88523e-16
3.20321e-17
2.83115e-17
1.23561e-17
2.16772e-17
0
0
-2.44594e-17
4.57046e-17
-1.66832e-17
-5.97356e-18
6.54004e-18
5.23274e-19
-1.17826e-18
4.11869e-17
4.31662e-16
-4.96845e-17
-3.38247e-16
2.97006e-16
3.53945e-17
-3.13493e-17
-2.76519e-17
9.06673e-17
-1.12463e-16
6.74764e-17
-6.8964e-17
1.06999e-17
-1.36886e-17
2.47968e-17
-1.65435e-17
0
0
1.18233e-18
0
1.08027e-16
-3.23187e-16
3.69414e-16
-2.96987e-16
2.96279e-16
0
1.01798e-16
-1.02264e-16
-7.64933e-17
1.13287e-16
0
4.67465e-17
-5.90912e-17
-8.73688e-18
0
-9.76572e-19
-1.93015e-18
-4.38976e-20
-1.02895e-15
4.901e-16
0
-3.27593e-16
3.2756e-16
1.99665e-16
-1.31192e-16
5.37029e-17
0
-2.39911e-18
1.76571e-17
-1.70098e-17
-2.50402e-17
3.87647e-17
-4.12197e-17
0
8.85177e-18
-1.90985e-18
-1.19634e-18
6.32591e-16
-6.21778e-16
0
8.48942e-17
7.69292e-17
-7.01508e-17
0
-5.62811e-17
-4.81306e-17
0
-2.33135e-18
0
2.85858e-17
0
0
1.26095e-17
4.73232e-17
-6.12953e-17
0
7.78914e-20
9.36443e-17
-8.61231e-17
6.98208e-17
-3.55121e-16
1.3564e-16
0
1.14707e-17
3.24746e-17
0
-3.30717e-17
9.53297e-17
-1.00149e-16
1.66784e-17
0
-1.98835e-18
0
0
0
7.88329e-20
0
7.95992e-17
0
-1.21981e-16
1.2392e-16
0
4.38029e-17
-3.49172e-17
1.26269e-16
-6.08288e-17
2.17351e-17
-3.48197e-17
3.29268e-17
-5.15798e-17
-8.20812e-18
0
-5.31221e-18
0
2.4568e-16
-4.15542e-16
0
-6.68075e-17
5.96799e-17
0
0
-7.99222e-17
0
-2.92541e-17
-4.61207e-17
-1.99766e-17
3.19241e-17
0
1.67839e-17
0
0
1.15779e-17
-1.27553e-17
0
3.58619e-16
-2.86986e-16
6.18485e-17
-5.52639e-17
-2.25022e-17
6.46808e-17
7.22225e-17
-8.75847e-17
2.82255e-17
2.18595e-18
-2.58194e-17
1.05503e-16
-3.27825e-17
-7.53749e-17
2.59095e-17
-6.62392e-18
3.97405e-18
-1.19737e-18
-5.85001e-16
2.16599e-16
0
0
2.35066e-17
-2.39036e-17
1.6878e-17
1.09062e-17
7.88858e-17
4.00357e-17
-3.95275e-17
-1.70639e-18
-2.18874e-17
1.77542e-17
0
8.6223e-18
6.07131e-18
3.23461e-18
1.08225e-18
0
1.87144e-16
-1.74139e-16
5.57501e-17
5.72103e-17
-1.10235e-17
-3.53365e-17
-2.99961e-17
-9.85531e-17
3.93972e-17
-2.37554e-17
3.27423e-17
2.04674e-17
-2.52497e-17
2.6801e-17
1.67838e-17
-2.18958e-17
-2.98764e-18
0
-3.32374e-17
-1.48754e-16
5.29999e-17
4.90594e-17
-1.68018e-16
1.19994e-16
5.90974e-17
-6.04066e-17
4.5932e-17
-3.73899e-17
0
0
-3.02511e-17
5.41256e-17
-2.37723e-17
2.19776e-17
-2.40432e-17
3.9386e-18
-6.99238e-18
6.23201e-17
5.80652e-17
-5.26556e-17
4.08793e-17
-4.78932e-17
-7.22978e-17
0
0
0
0
0
0
1.54835e-17
-4.04713e-17
4.28028e-17
-1.37277e-17
1.69313e-17
7.90401e-18
-6.69393e-18
1.29225e-16
-2.19157e-16
2.74065e-16
-1.27353e-16
1.76257e-16
-1.27353e-16
2.36921e-16
-1.33073e-16
-7.04453e-17
7.20623e-17
0
1.91943e-17
-1.51266e-17
3.65688e-17
-1.24356e-17
-1.57444e-17
-3.27588e-17
2.47983e-18
5.683e-18
2.01174e-16
5.77449e-17
0
-8.94962e-17
-7.02517e-17
1.6049e-16
1.58994e-17
-6.40601e-17
3.79603e-17
-2.66349e-17
0
-1.51945e-17
0
-1.21558e-17
9.81779e-18
-8.77944e-18
-2.89603e-18
2.03455e-18
0
2.80898e-16
-6.10427e-17
2.56547e-16
-2.00804e-16
-4.01303e-17
1.5707e-16
-9.41969e-17
4.85082e-18
3.9842e-18
-2.59785e-17
2.50384e-17
0
0
1.48375e-17
-5.32687e-18
3.44397e-18
1.04841e-17
-3.64932e-18
0
5.83395e-20
0
-5.69162e-17
3.3273e-16
-2.24574e-16
-2.3702e-16
1.2966e-16
-1.33871e-16
1.23832e-16
6.07738e-17
-4.55443e-17
1.84022e-17
-1.6334e-17
2.89457e-18
2.65169e-17
9.19748e-19
-9.97204e-18
9.86591e-18
-2.03151e-18
6.82686e-16
-2.1756e-16
1.05592e-16
-3.26573e-16
8.88484e-17
-1.3821e-16
7.43979e-17
0
0
-2.85104e-18
-3.8947e-18
-1.14943e-18
0
-2.33507e-17
-1.7648e-17
1.29084e-17
-9.47704e-19
1.73937e-18
4.03684e-18
0
-2.15879e-16
3.64453e-16
8.05152e-17
-2.95786e-16
7.89668e-17
-1.20482e-16
2.07238e-17
9.7499e-17
0
0
1.79748e-18
1.99576e-17
0
-1.75804e-17
-7.96094e-18
1.1718e-18
-4.12263e-18
-4.74996e-18
0
-1.35595e-16
3.10203e-17
2.45824e-16
1.82757e-16
-3.34395e-16
1.51623e-16
-1.04779e-16
5.61811e-17
-7.71619e-17
0
0
0
-3.20151e-17
8.37444e-18
-1.05426e-17
0
-6.55696e-19
3.27932e-18
-5.12942e-16
4.85892e-16
5.17679e-16
-6.2824e-16
2.92247e-16
-2.74556e-16
0
1.10479e-16
-1.50797e-16
8.70131e-17
-6.74531e-17
5.48949e-17
4.44528e-17
3.31107e-17
2.59978e-17
0
0
0
0
5.68332e-16
-3.2707e-16
0
0
-1.06804e-16
2.58823e-16
-1.65669e-16
-1.17046e-16
1.15726e-16
8.54807e-17
1.42944e-16
-5.69587e-17
2.44432e-17
1.83953e-17
1.34839e-17
1.11443e-17
1.79654e-17
-8.81991e-19
8.98388e-19
-5.75478e-16
5.28156e-16
2.80907e-16
-1.46322e-16
3.1847e-16
-2.04338e-16
-1.60745e-16
-1.35306e-16
0
-1.79631e-16
9.10395e-18
6.55438e-17
-5.09613e-17
-4.13689e-17
-1.52932e-17
-1.60186e-17
-1.28255e-17
0
0
-1.97975e-16
0
1.53075e-16
-2.06697e-19
0
0
1.65814e-16
1.39617e-16
0
9.7499e-17
0
-9.9603e-17
-2.80817e-17
4.97382e-17
0
3.21439e-17
-4.53554e-18
4.62685e-18
0
4.21766e-16
0
2.94347e-16
-5.45637e-16
4.85878e-16
3.90654e-16
-1.246e-17
0
1.06988e-17
1.14052e-16
0
-1.12701e-16
1.25782e-16
-1.12037e-16
-2.44413e-17
-2.57759e-17
-7.6671e-18
-1.3825e-18
-4.99304e-18
-3.91588e-16
5.63913e-16
-1.5925e-16
-4.15943e-16
-2.40089e-16
-2.07031e-16
-3.56333e-16
-1.42434e-16
1.17836e-17
5.20565e-17
-5.19587e-17
1.65364e-16
-7.32085e-17
1.46852e-16
-2.75122e-17
0
3.17684e-17
-1.88192e-17
5.02397e-18
8.67382e-16
-1.91762e-17
-6.589e-16
5.44516e-16
-4.88424e-16
4.24872e-16
-1.38922e-17
-1.60747e-16
1.40074e-16
5.56456e-17
-7.21917e-18
-1.35697e-16
3.91055e-17
4.22027e-17
-1.26866e-17
1.28313e-17
-3.29043e-17
-3.65091e-18
-7.9668e-18
4.25807e-16
1.79826e-16
3.15895e-16
-2.77404e-16
-2.28493e-16
1.22754e-17
-1.75025e-16
4.23729e-16
1.47443e-17
1.9614e-16
1.14892e-16
-1.01848e-16
0
-7.13145e-17
0
0
4.68751e-17
2.05427e-17
9.28431e-18
3.99244e-16
0
3.1211e-16
2.75613e-16
-2.44727e-16
2.13749e-16
0
-1.66108e-16
-2.30427e-16
-2.00898e-16
-1.15909e-16
1.03e-16
0
0
0
0
-4.39596e-17
-3.31394e-17
0
-7.82254e-16
0
-1.57194e-17
-1.38885e-17
3.72896e-16
-2.1011e-16
-9.65051e-17
-9.69684e-17
2.34749e-16
0
6.17105e-17
-6.50027e-18
5.60672e-17
0
0
7.43536e-17
-5.54692e-18
3.98007e-17
-1.53459e-17
5.50091e-16
1.58496e-16
-1.5686e-16
-1.38469e-16
-4.80477e-16
3.30054e-16
3.98614e-16
-1.13159e-17
-1.60562e-16
1.5939e-16
3.34501e-17
-1.70348e-16
-1.39174e-16
-8.53929e-17
-9.05666e-17
-8.57448e-17
7.20703e-17
-3.39626e-18
1.57175e-17
-1.68956e-16
7.67575e-17
-3.69732e-16
6.32704e-17
-6.30403e-17
0
-1.98363e-16
-1.44931e-17
-1.84254e-16
1.63887e-17
1.80125e-16
1.32545e-16
-3.27365e-17
1.30032e-17
8.607e-17
0
-1.50489e-16
-5.55923e-17
-1.15366e-18
3.44233e-16
-9.36122e-18
5.81561e-16
-2.77013e-16
5.63214e-19
7.35265e-18
2.20996e-16
-1.79336e-17
1.78696e-16
-1.67324e-16
-1.57493e-16
0
1.58868e-16
1.2658e-16
1.77332e-18
-2.57991e-18
8.16138e-17
5.65052e-17
0
-2.44597e-16
0
-5.85737e-17
2.64122e-16
3.79923e-18
6.06196e-17
-2.137e-16
2.01958e-16
2.14322e-16
2.05461e-16
1.97725e-16
0
-1.54337e-16
0
8.26187e-18
-8.58068e-18
0
-8.24817e-19
4.0655e-17
1.69618e-16
9.00136e-18
-1.34002e-16
4.13679e-16
-1.32752e-16
0
0
-2.41377e-16
-2.07656e-16
-1.99045e-16
-3.6247e-16
-5.06989e-17
0
0
0
-1.69872e-17
1.79767e-17
1.1531e-16
-4.12764e-17
9.34422e-18
0
-2.89063e-16
-2.6418e-16
2.76999e-16
-2.75055e-16
-3.93887e-16
4.82647e-16
1.34711e-16
0
2.14036e-16
2.43665e-16
-5.26133e-17
2.86193e-16
-4.69056e-17
4.88173e-17
1.9007e-16
-1.09575e-16
0
-3.23951e-16
0
-3.10021e-16
3.03748e-16
0
5.47596e-16
2.57084e-16
-5.40568e-16
4.32755e-16
-2.76414e-18
-1.30797e-16
-2.35918e-16
0
3.26876e-16
-5.47536e-16
5.87749e-16
-7.49047e-16
0
0
3.22628e-16
-2.15986e-18
-5.31611e-18
-6.12523e-16
6.18386e-16
-2.98813e-16
2.97595e-16
2.93307e-16
-2.58794e-16
0
0
4.89548e-16
-4.97982e-16
-5.31657e-16
5.27265e-16
-5.13819e-16
5.55873e-16
-8.70869e-16
0
)
;

boundaryField
{
    up
    {
        type            calculated;
        value           nonuniform List<scalar> 
84
(
0
0
0
0
-2.95564e-17
5.31985e-17
-2.21572e-17
1.57174e-17
-1.3745e-17
0
-1.04247e-17
9.90567e-18
-6.67709e-18
7.21069e-19
6.01692e-19
4.66238e-18
0
0
-2.61213e-18
1.94944e-18
1.88053e-18
-1.82598e-18
1.65473e-19
0
7.39376e-19
3.56375e-19
-6.62933e-18
0
9.23604e-18
1.12913e-17
1.48145e-18
-2.58175e-18
1.03807e-18
0
-5.09601e-19
1.16855e-18
-1.11847e-18
1.78802e-18
0
-3.1833e-19
0
0
-1.6568e-19
3.2738e-19
-3.16323e-19
6.2019e-19
-1.17826e-18
1.18233e-18
-4.38976e-20
-1.19634e-18
0
0
0
-1.27553e-17
-1.73007e-18
1.08225e-18
0
-6.99238e-18
-6.69393e-18
4.94608e-18
0
0
-2.03151e-18
4.03684e-18
-4.74996e-18
3.27932e-18
0
8.98388e-19
0
0
-4.99304e-18
5.02397e-18
-7.9668e-18
9.28431e-18
0
-1.53459e-17
1.57175e-17
-1.15366e-18
0
4.0655e-17
-4.12764e-17
0
0
0
)
;
    }
    low
    {
        type            calculated;
        value           nonuniform List<scalar> 
84
(
-6.45928e-16
6.44622e-16
-3.14759e-16
4.97125e-16
8.72711e-17
-2.26796e-17
1.89543e-16
2.04719e-17
0
8.01129e-16
-2.03027e-16
1.66362e-16
-1.85964e-16
-1.21031e-15
1.97809e-16
0
-1.84247e-16
1.59603e-17
-1.53096e-17
-1.4695e-16
7.60397e-17
2.02629e-16
3.47202e-16
-3.08498e-16
0
-5.97599e-17
-3.07387e-17
0
-2.81853e-16
-7.99501e-17
-2.70503e-16
-2.9272e-16
3.1677e-16
1.08205e-16
7.42691e-16
5.94719e-17
0
4.97384e-16
4.85314e-16
2.75469e-16
-1.46205e-16
5.94664e-17
5.94684e-17
0
2.36633e-16
5.47e-16
4.36521e-16
4.19002e-17
0
-1.02899e-15
6.32591e-16
7.78914e-20
7.88329e-20
2.4568e-16
0
-5.83644e-16
0
-3.32374e-17
6.23201e-17
1.28417e-16
1.99759e-16
2.79582e-16
5.83395e-20
6.816e-16
0
0
-5.12942e-16
5.67802e-16
-5.75129e-16
-1.97975e-16
4.21779e-16
-3.91588e-16
8.68808e-16
4.26815e-16
3.99244e-16
-7.82254e-16
5.48974e-16
-1.67787e-16
3.44233e-16
-2.44125e-16
1.69618e-16
1.02043e-17
-3.23951e-16
3.22863e-16
)
;
    }
    left
    {
        type            calculated;
        value           nonuniform List<scalar> 
19
(
-6.45458e-16
-3.13826e-16
3.1887e-16
7.15195e-18
-6.06955e-16
0
-2.82922e-16
-2.78986e-16
-1.97894e-17
-1.47165e-16
-1.31987e-18
-1.4649e-16
6.51771e-16
-1.44976e-16
6.77273e-16
5.84567e-16
3.4774e-16
5.10138e-16
0
)
;
    }
    right
    {
        type            calculated;
        value           nonuniform List<scalar> 
19
(
3.22628e-16
-1.90927e-18
-5.31611e-18
-6.12525e-16
6.18559e-16
-2.98813e-16
2.97595e-16
2.93307e-16
-2.57863e-16
0
0
4.94173e-16
-5.04482e-16
-5.31657e-16
5.27265e-16
-5.13819e-16
5.55873e-16
-9.41757e-16
0
)
;
    }
    frontAndBackPlanes
    {
        type            empty;
    }
}


// ************************************************************************* //
