/*--------------------------------*- C++ -*----------------------------------*\
  =========                 |
  \\      /  F ield         | OpenFOAM: The Open Source CFD Toolbox
   \\    /   O peration     | Website:  https://openfoam.org
    \\  /    A nd           | Version:  7
     \\/     M anipulation  |
\*---------------------------------------------------------------------------*/
FoamFile
{
    version     2.0;
    format      ascii;
    class       volScalarField;
    location    "0.025";
    object      gradTx;
}
// * * * * * * * * * * * * * * * * * * * * * * * * * * * * * * * * * * * * * //

dimensions      [0 -1 0 1 0 0 0];

internalField   nonuniform List<scalar> 
1596
(
-0.543532
-2.6709
-4.43684
-5.58323
-6.20453
-6.46557
-6.54642
-6.53557
-6.47857
-6.4103
-6.30718
-6.1855
-6.05531
-5.94912
-5.92461
-6.16317
-6.92856
-8.69704
-12.3056
0.253397
-1.83282
-3.45846
-4.5112
-5.09411
-5.35031
-5.43596
-5.43072
-5.38554
-5.32715
-5.2484
-5.16272
-5.05778
-4.92469
-4.73969
-4.49528
-4.16741
-3.72596
-3.03692
0.901413
-0.854805
-2.18312
-3.05389
-3.54876
-3.77796
-3.86145
-3.86743
-3.84178
-3.80673
-3.76541
-3.72886
-3.68661
-3.62537
-3.51308
-3.30429
-2.93544
-2.3526
-1.47815
1.04409
-0.146733
-1.08037
-1.72298
-2.10706
-2.29876
-2.37705
-2.39433
-2.38702
-2.3728
-2.35979
-2.35627
-2.35791
-2.35691
-2.33161
-2.23684
-2.00417
-1.56111
-0.83289
0.66151
0.0974197
-0.419473
-0.818682
-1.08058
-1.22514
-1.29195
-1.3146
-1.31829
-1.31592
-1.31622
-1.32491
-1.34172
-1.36431
-1.38326
-1.36823
-1.26668
-1.00695
-0.508047
-0.0588578
-0.0821991
-0.21354
-0.371143
-0.502356
-0.588436
-0.63473
-0.654678
-0.661675
-0.663535
-0.667039
-0.67575
-0.690869
-0.712712
-0.739324
-0.755158
-0.728685
-0.604885
-0.309294
-0.898391
-0.531787
-0.338095
-0.267097
-0.261491
-0.277766
-0.294023
-0.30388
-0.308661
-0.310563
-0.313217
-0.318454
-0.327401
-0.340953
-0.359954
-0.378233
-0.380592
-0.332743
-0.178465
-1.69078
-1.08105
-0.638106
-0.365644
-0.225422
-0.165142
-0.144129
-0.138412
-0.137526
-0.137557
-0.13857
-0.140855
-0.144929
-0.151404
-0.161444
-0.173254
-0.181
-0.166871
-0.0953097
-2.45937
-1.71923
-1.0793
-0.615119
-0.32886
-0.175761
-0.104312
-0.0746399
-0.0636358
-0.0598172
-0.0588974
-0.0592989
-0.0606744
-0.0631392
-0.0673959
-0.0731464
-0.0787233
-0.0763207
-0.0466901
-2.9188
-2.17669
-1.44484
-0.85786
-0.461605
-0.230232
-0.112031
-0.0581453
-0.0360548
-0.0277248
-0.0248948
-0.0241532
-0.0242916
-0.0249848
-0.0264554
-0.0287146
-0.0314941
-0.0319007
-0.0209194
-3.3067
-2.57263
-1.78279
-1.10165
-0.611447
-0.307898
-0.143669
-0.0644828
-0.0301336
-0.0165189
-0.0115431
-0.0098794
-0.00942205
-0.00944035
-0.00981916
-0.0105384
-0.0116353
-0.0122125
-0.00856968
-3.72707
-2.99827
-2.15047
-1.37527
-0.788155
-0.407506
-0.192303
-0.0840955
-0.0351787
-0.0150202
-0.00735387
-0.00464506
-0.00374755
-0.00348527
-0.00349096
-0.00365413
-0.00400127
-0.00430029
-0.00321142
-3.9129
-3.24186
-2.38782
-1.56648
-0.919839
-0.486557
-0.233944
-0.10322
-0.0424413
-0.0167002
-0.00665085
-0.00300248
-0.00174872
-0.0013368
-0.00122011
-0.00121576
-0.00129618
-0.00140373
-0.00110537
-4.04204
-3.41834
-2.56433
-1.71073
-1.02043
-0.54801
-0.267208
-0.119272
-0.0492683
-0.0190908
-0.00710645
-0.00267855
-0.00113156
-0.000613904
-0.000447827
-0.000398661
-0.000401115
-0.000428482
-0.000351177
-4.1596
-3.56666
-2.7052
-1.82123
-1.09497
-0.592481
-0.290961
-0.130753
-0.0542906
-0.0210322
-0.00770749
-0.00273623
-0.000983516
-0.0003932
-0.000201163
-0.000139451
-0.000122766
-0.00012428
-0.000103691
-4.20507
-3.64916
-2.7847
-1.88008
-1.13158
-0.612594
-0.300933
-0.135299
-0.0562054
-0.0217604
-0.0079405
-0.00277096
-0.000943052
-0.000326073
-0.000125215
-6.07933e-05
-4.06365e-05
-3.56178e-05
-2.88871e-05
-4.16159
-3.64625
-2.78699
-1.87583
-1.12286
-0.604104
-0.294913
-0.131831
-0.0544844
-0.0209924
-0.00762217
-0.00263875
-0.000881477
-0.000289636
-9.7476e-05
-3.62741e-05
-1.69796e-05
-1.10901e-05
-7.87733e-06
-4.08262
-3.58886
-2.73179
-1.82144
-1.07714
-0.572035
-0.275707
-0.121776
-0.0497797
-0.018988
-0.00683202
-0.00234381
-0.000774111
-0.000249176
-7.98461e-05
-2.63269e-05
-9.60316e-06
-4.37615e-06
-2.30247e-06
-4.04799
-3.56537
-2.69003
-1.76586
-1.02462
-0.533307
-0.251974
-0.109202
-0.043855
-0.0164544
-0.00583121
-0.00197212
-0.000642242
-0.000203432
-6.36247e-05
-1.996e-05
-6.49256e-06
-2.31929e-06
-8.3923e-07
-3.8405
-3.41423
-2.55704
-1.64968
-0.935903
-0.475336
-0.219113
-0.0927292
-0.0364155
-0.0133807
-0.00465155
-0.00154533
-0.000494908
-0.000154225
-4.73819e-05
-1.44942e-05
-4.49573e-06
-1.44055e-06
-4.05877e-07
-3.55199
-3.18771
-2.36703
-1.49644
-0.826691
-0.407772
-0.18248
-0.075041
-0.0286812
-0.0102756
-0.00348985
-0.00113471
-0.000356244
-0.000108964
-3.28793e-05
-9.86383e-06
-2.98152e-06
-9.12311e-07
-2.30601e-07
-3.19231
-2.88934
-2.12525
-1.31445
-0.705329
-0.336795
-0.145776
-0.0580217
-0.0214981
-0.00748131
-0.00247349
-0.000784573
-0.000240766
-7.21086e-05
-2.1336e-05
-6.28006e-06
-1.86069e-06
-5.55333e-07
-1.34683e-07
-2.70837
-2.47336
-1.8056
-1.09505
-0.571892
-0.264698
-0.110874
-0.0427073
-0.0153309
-0.00517784
-0.00166506
-0.000514848
-0.000154366
-4.52696e-05
-1.31434e-05
-3.80298e-06
-1.10975e-06
-3.27468e-07
-7.9776e-08
-2.05749
-1.82979
-1.29143
-0.75398
-0.378514
-0.168413
-0.0678584
-0.0251553
-0.00869104
-0.00282347
-0.000872443
-0.000258785
-7.42826e-05
-2.08103e-05
-5.76045e-06
-1.58807e-06
-4.44611e-07
-1.30925e-07
-3.67323e-08
-1.38812
-1.32903
-1.00459
-0.621947
-0.328065
-0.15231
-0.0638372
-0.0246164
-0.00887524
-0.00302724
-0.000988142
-0.000312204
-9.61887e-05
-2.91364e-05
-8.75599e-06
-2.63698e-06
-8.08846e-07
-2.70281e-07
-1.17669e-07
-0.452368
-0.428455
-0.346759
-0.237688
-0.13997
-0.0723857
-0.0335874
-0.0142281
-0.00559349
-0.00206643
-0.00072604
-0.000245797
-8.0829e-05
-2.6049e-05
-8.29631e-06
-2.63236e-06
-8.47533e-07
-3.04806e-07
-1.54981e-07
0.514862
0.469574
0.307535
0.14952
0.0531106
0.0111173
-0.00158623
-0.00319736
-0.00213755
-0.00107925
-0.00046933
-0.000186416
-6.952e-05
-2.48572e-05
-8.64027e-06
-2.93596e-06
-9.89423e-07
-3.75227e-07
-2.16922e-07
1.43987
1.32505
0.953657
0.555012
0.269706
0.111747
0.039808
0.0120763
0.00296793
0.000472542
-3.99754e-05
-8.00883e-05
-4.72409e-05
-2.17994e-05
-8.99494e-06
-3.43158e-06
-1.20435e-06
-4.4335e-07
-2.88375e-07
2.19318
2.00761
1.49088
0.919402
0.483385
0.221218
0.089449
0.0322285
0.0103653
0.00293987
0.000710449
0.000125583
1.44889e-06
-1.35439e-05
-9.3149e-06
-4.65368e-06
-1.84138e-06
-5.84287e-07
-3.45792e-07
2.86248
2.58643
1.95572
1.25612
0.698956
0.342834
0.150362
0.0595854
0.0215014
0.00707879
0.00212621
0.000570385
0.000127585
1.62577e-05
-5.58535e-06
-6.54965e-06
-3.60008e-06
-1.11088e-06
-2.76815e-07
3.24839
2.91208
2.24226
1.49578
0.877036
0.458377
0.216315
0.0931598
0.0369756
0.0136148
0.00469239
0.0015147
0.000454459
0.000120893
2.31656e-05
-2.54703e-06
-5.57124e-06
-2.37163e-06
4.11218e-07
3.52972
3.15403
2.46819
1.70238
1.04625
0.579523
0.292687
0.136204
0.0590468
0.0240692
0.00935144
0.0034984
0.00127375
0.000451915
0.000153805
4.40064e-05
7.4784e-06
3.34643e-07
3.16251e-06
3.72455
3.3088
2.62356
1.86408
1.1964
0.700057
0.377362
0.189313
0.0894284
0.0402246
0.0175124
0.00749459
0.00320967
0.00139576
0.000624292
0.000278352
0.000121642
5.40592e-05
3.80161e-05
3.75411
3.29618
2.62485
1.89892
1.2543
0.761233
0.427716
0.224133
0.110491
0.0516389
0.0231491
0.0100634
0.00429762
0.00182161
0.00077239
0.000304346
8.46671e-05
-2.72234e-05
-6.6298e-05
3.6862
3.23073
2.61072
1.94726
1.34524
0.864904
0.520766
0.2955
0.159231
0.0820613
0.040831
0.0198058
0.00945065
0.00447442
0.00211944
0.000983124
0.000406968
6.94471e-05
-0.00016744
3.58871
3.13807
2.56013
1.94799
1.38577
0.925557
0.583676
0.349589
0.200304
0.110541
0.0592572
0.0311506
0.0161849
0.00838213
0.00436528
0.00228308
0.00117489
0.000540863
0.000119766
3.24209
2.76834
2.22065
1.67073
1.18111
0.787639
0.498128
0.30047
0.174095
0.0975403
0.0532881
0.0286596
0.0152885
0.00815248
0.00437562
0.00235133
0.00122683
0.000553691
9.56358e-05
2.74274
2.33478
1.87375
1.41596
1.0094
0.681369
0.43772
0.269057
0.159322
0.0914639
0.0513212
0.0284089
0.0156265
0.00860379
0.00477054
0.00264599
0.00142092
0.000657435
0.000117599
2.21345
1.88428
1.51372
1.14752
0.822752
0.560059
0.363754
0.226608
0.136309
0.0796608
0.0455963
0.0257954
0.0145253
0.00819713
0.00466047
0.00264743
0.00145084
0.00067996
0.000117816
1.63141
1.38552
1.1128
0.845379
0.608814
0.417195
0.273346
0.17212
0.104843
0.0621534
0.0361466
0.020809
0.0119392
0.0068718
0.00398617
0.00230895
0.00128857
0.00061551
0.000115003
1.013
0.852996
0.682433
0.518007
0.373587
0.256842
0.169101
0.107149
0.0657642
0.0393301
0.0231012
0.0134455
0.00780641
0.00454931
0.00267189
0.00156496
0.000879935
0.00041937
7.07571e-05
0.384967
0.319723
0.253733
0.191505
0.137483
0.0941457
0.061762
0.0390044
0.0238637
0.0142283
0.00833217
0.00483526
0.00279903
0.00162613
0.000951509
0.000554005
0.000307231
0.000139698
1.07486e-05
-0.384779
-0.319303
-0.253197
-0.190953
-0.136986
-0.0937378
-0.0614516
-0.0387819
-0.0237114
-0.0141278
-0.00826765
-0.00479444
-0.0027734
-0.00161006
-0.000941381
-0.000547663
-0.000303418
-0.000137731
-1.03105e-05
-1.01282
-0.852621
-0.681965
-0.517535
-0.373169
-0.256507
-0.168851
-0.106973
-0.0656461
-0.0392536
-0.0230529
-0.0134155
-0.00778785
-0.00453786
-0.00266479
-0.00156062
-0.000877425
-0.00041821
-7.07269e-05
-1.63122
-1.38515
-1.11236
-0.844945
-0.608442
-0.416905
-0.273136
-0.171977
-0.10475
-0.0620948
-0.0361107
-0.0207873
-0.0119262
-0.00686402
-0.00398147
-0.0023061
-0.00128686
-0.000614551
-0.000114585
-2.21329
-1.884
-1.51341
-1.14725
-0.822553
-0.559925
-0.363673
-0.226563
-0.136287
-0.0796507
-0.0455924
-0.0257944
-0.0145255
-0.00819764
-0.00466101
-0.00264789
-0.0014512
-0.000680217
-0.000117951
-2.74261
-2.33457
-1.87356
-1.41583
-1.00935
-0.681369
-0.437749
-0.269095
-0.159358
-0.0914927
-0.0513422
-0.0284233
-0.0156359
-0.00860982
-0.00477433
-0.00264834
-0.00142233
-0.000658161
-0.000117759
-3.24202
-2.76823
-2.2206
-1.67077
-1.18122
-0.787792
-0.498281
-0.300601
-0.174195
-0.0976113
-0.0533349
-0.0286891
-0.0153063
-0.00816305
-0.00438179
-0.00235489
-0.0012288
-0.000554614
-9.57898e-05
-3.58859
-3.1377
-2.55964
-1.9475
-1.38537
-0.925269
-0.583495
-0.349487
-0.200253
-0.110518
-0.0592487
-0.0311481
-0.0161847
-0.00838245
-0.00436559
-0.0022832
-0.00117475
-0.000540533
-0.000119376
-3.68668
-3.23217
-2.61301
-1.95001
-1.34799
-0.867304
-0.522636
-0.296827
-0.160103
-0.0825976
-0.0411442
-0.0199818
-0.00954689
-0.00452637
-0.00214755
-0.000998728
-0.000416027
-7.49232e-05
0.00016481
-3.7538
-3.29567
-2.62443
-1.89872
-1.25429
-0.761309
-0.427798
-0.224184
-0.110509
-0.0516358
-0.0231369
-0.0100501
-0.00428666
-0.00181371
-0.000767104
-0.000300855
-8.20561e-05
2.96677e-05
6.83983e-05
-3.7247
-3.30937
-2.62459
-1.86537
-1.19767
-0.701112
-0.378119
-0.189796
-0.0897113
-0.0403793
-0.0175935
-0.00753639
-0.00323131
-0.00140725
-0.000630687
-0.000282053
-0.000123768
-5.52153e-05
-3.96492e-05
-3.5298
-3.15446
-2.46904
-1.70347
-1.0473
-0.580348
-0.293242
-0.136534
-0.0592239
-0.0241576
-0.00939346
-0.00351784
-0.00128265
-0.000455976
-0.000155645
-4.47933e-05
-7.83104e-06
-5.75617e-07
-3.41792e-06
-3.24849
-2.91254
-2.24311
-1.49682
-0.877986
-0.459077
-0.216752
-0.0933989
-0.0370934
-0.0136683
-0.00471519
-0.00152394
-0.000457994
-0.000122098
-2.3428e-05
2.66949e-06
5.75362e-06
2.36588e-06
-4.18512e-07
-2.8626
-2.58691
-1.95657
-1.2571
-0.699787
-0.343402
-0.150689
-0.0597497
-0.0215752
-0.007109
-0.00213761
-0.000574299
-0.000128722
-1.6432e-05
5.72053e-06
6.77102e-06
3.78779e-06
1.15222e-06
2.88747e-07
-2.1933
-2.00808
-1.49166
-0.920232
-0.484038
-0.221631
-0.0896675
-0.0323291
-0.0104065
-0.00295504
-0.000715454
-0.000126978
-1.68986e-06
1.36176e-05
9.44708e-06
4.77627e-06
1.92571e-06
6.01349e-07
3.53037e-07
-1.44003
-1.32555
-0.954374
-0.555692
-0.27019
-0.112023
-0.0399413
-0.012132
-0.00298846
-0.000479199
3.81476e-05
7.97459e-05
4.72735e-05
2.18865e-05
9.06469e-06
3.4771e-06
1.2278e-06
4.44492e-07
2.92019e-07
-0.515035
-0.470045
-0.308116
-0.149999
-0.053411
-0.01127
0.00152081
0.0031732
0.00212988
0.00107727
0.000469014
0.000186478
6.96125e-05
2.49156e-05
8.66893e-06
2.94719e-06
9.91582e-07
3.7268e-07
2.18722e-07
0.451961
0.427525
0.345814
0.237033
0.139617
0.0722286
0.0335274
0.0142081
0.00558768
0.00206503
0.000725812
0.00024581
8.08592e-05
2.60631e-05
8.29844e-06
2.62951e-06
8.43801e-07
3.02046e-07
1.55191e-07
1.38824
1.32951
1.00521
0.622474
0.328401
0.152487
0.0639193
0.0246509
0.00888889
0.00303241
0.000990033
0.000312876
9.64181e-05
2.92097e-05
8.77658e-06
2.64118e-06
8.08845e-07
2.69874e-07
1.17867e-07
2.05714
1.82891
1.29048
0.753265
0.37809
0.168202
0.067766
0.025119
0.00867787
0.00281899
0.000870979
0.000258313
7.41275e-05
2.07569e-05
5.74069e-06
1.58029e-06
4.41503e-07
1.29825e-07
3.65354e-08
2.70848
2.47356
1.80582
1.09521
0.57198
0.26474
0.110892
0.0427146
0.0153336
0.00517881
0.00166537
0.000514937
0.000154387
4.52732e-05
1.31432e-05
3.80239e-06
1.1094e-06
3.2734e-07
7.97415e-08
3.1923
2.88932
2.12524
1.31444
0.705324
0.336791
0.145774
0.0580211
0.0214981
0.0074814
0.00247356
0.000784611
0.000240783
7.21152e-05
2.13383e-05
6.28082e-06
1.8609e-06
5.55392e-07
1.34684e-07
3.55197
3.1877
2.36703
1.49644
0.826689
0.40777
0.182479
0.0750402
0.0286811
0.0102757
0.00348996
0.00113479
0.000356283
0.000108982
3.28867e-05
9.86663e-06
2.98241e-06
9.1259e-07
2.3066e-07
3.84048
3.41422
2.55704
1.64968
0.935903
0.475335
0.219111
0.0927282
0.0364153
0.0133808
0.0046517
0.00154544
0.000494973
0.000154256
4.73957e-05
1.44993e-05
4.49697e-06
1.44093e-06
4.06018e-07
4.04798
3.56537
2.69004
1.76587
1.02463
0.533308
0.251973
0.109201
0.0438548
0.0164546
0.00583141
0.00197228
0.000642335
0.000203479
6.36446e-05
1.99655e-05
6.49174e-06
2.31917e-06
8.39723e-07
4.08262
3.58886
2.73179
1.82144
1.07714
0.572035
0.275707
0.121776
0.0497796
0.0189882
0.00683228
0.002344
0.000774225
0.000249232
7.98657e-05
2.63234e-05
9.59123e-06
4.37461e-06
2.30539e-06
4.16159
3.64625
2.78699
1.87583
1.12287
0.604105
0.294913
0.131831
0.0544844
0.0209926
0.00762242
0.00263893
0.000881583
0.000289682
9.74723e-05
3.623e-05
1.69305e-05
1.10911e-05
7.89328e-06
4.20507
3.64916
2.78471
1.88009
1.13158
0.612597
0.300935
0.1353
0.0562057
0.0217607
0.00794067
0.00277107
0.00094311
0.000326068
0.000125125
6.06222e-05
4.0493e-05
3.56562e-05
2.89565e-05
4.1596
3.56666
2.7052
1.82123
1.09498
0.592485
0.290964
0.130754
0.0542912
0.0210324
0.00770758
0.00273625
0.000983486
0.000393059
0.000200827
0.000138959
0.000122449
0.000124511
0.000103931
4.04205
3.41835
2.56433
1.71073
1.02043
0.548016
0.267212
0.119275
0.0492694
0.0190911
0.00710644
0.00267844
0.00113135
0.00061342
0.000446909
0.000397532
0.000400653
0.000429382
0.000351847
3.91292
3.24188
2.38783
1.56649
0.919848
0.486565
0.23395
0.103223
0.0424424
0.0167003
0.00665064
0.00300214
0.00174811
0.00133556
0.00121811
0.00121379
0.00129611
0.00140635
0.00110683
3.72707
2.99827
2.15048
1.37527
0.78816
0.407511
0.192307
0.0840977
0.0351793
0.0150201
0.00735343
0.00464434
0.00374617
0.00348278
0.00348767
0.00365201
0.00400326
0.00430606
0.00321376
3.30673
2.57265
1.78281
1.10166
0.611458
0.307905
0.143674
0.0644849
0.0301341
0.0165187
0.0115423
0.00987799
0.00941949
0.00943658
0.00981581
0.010539
0.0116422
0.0122216
0.00857175
2.91884
2.17672
1.44486
0.857878
0.461615
0.230237
0.112033
0.0581456
0.0360541
0.0277238
0.0248932
0.0241507
0.0242881
0.0249816
0.0264561
0.028723
0.0315076
0.0319087
0.0209181
2.4594
1.71926
1.07932
0.615133
0.328866
0.175763
0.104311
0.0746379
0.0636338
0.0598151
0.0588949
0.0592958
0.060672
0.063141
0.0674067
0.0731656
0.0787379
0.0763159
0.0466815
1.69081
1.08107
0.63812
0.36565
0.225421
0.165138
0.144124
0.138408
0.137523
0.137554
0.138567
0.140853
0.144932
0.151416
0.161467
0.173277
0.181
0.16684
0.0952943
0.898413
0.531803
0.338104
0.267098
0.261485
0.277759
0.294017
0.303875
0.308657
0.31056
0.313216
0.318456
0.327412
0.340975
0.359977
0.378237
0.380557
0.332688
0.178452
0.0588749
0.0822063
0.21354
0.371137
0.502347
0.588427
0.634723
0.654671
0.661669
0.663532
0.667039
0.675757
0.690884
0.71273
0.739324
0.75512
0.728618
0.604841
0.309301
-0.661498
-0.0974207
0.419465
0.81867
1.08057
1.22513
1.29194
1.31459
1.31828
1.31591
1.31622
1.32491
1.34173
1.36431
1.38322
1.36815
1.26662
1.00697
0.508078
-1.04409
0.146726
1.08036
1.72296
2.10705
2.29875
2.37703
2.39432
2.38701
2.3728
2.35978
2.35627
2.3579
2.35687
2.33155
2.23679
2.00419
1.5612
0.83292
-0.901419
0.854793
2.1831
3.05388
3.54874
3.77795
3.86144
3.86742
3.84178
3.80673
3.7654
3.72884
3.68657
3.62532
3.51304
3.30432
2.93554
2.35269
1.47814
-0.253403
1.83281
3.45846
4.51119
5.09411
5.3503
5.43595
5.43072
5.38554
5.32714
5.24839
5.1627
5.05776
4.92468
4.73972
4.49535
4.16746
3.72594
3.03688
0.543531
2.67091
4.43684
5.58323
6.20453
6.46557
6.54642
6.53557
6.47857
6.4103
6.30718
6.1855
6.05532
5.94915
5.92464
6.16318
6.9285
8.69696
12.3056
)
;

boundaryField
{
    up
    {
        type            calculated;
        value           nonuniform List<scalar> 
84
(
-12.3056
-3.03692
-1.47815
-0.83289
-0.508047
-0.309294
-0.178465
-0.0953097
-0.0466901
-0.0209194
-0.00856968
-0.00321142
-0.00110537
-0.000351177
-0.000103691
-2.88871e-05
-7.87733e-06
-2.30247e-06
-8.3923e-07
-4.05877e-07
-2.30601e-07
-1.34683e-07
-7.9776e-08
-3.67323e-08
-7.44825e-08
-1.06755e-07
-1.64022e-07
-2.61724e-07
-4.7088e-07
-9.16266e-07
-1.17442e-06
4.05448e-06
5.58376e-05
-1.62243e-05
-0.000134693
0.000124447
0.000102042
0.000123526
0.000123044
0.000118521
7.31332e-05
1.19317e-05
-1.14853e-05
-7.30855e-05
-0.000118102
-0.000123165
-0.00012368
-0.000102189
-0.000124057
0.000132756
1.7758e-05
-5.87432e-05
-4.59775e-06
1.35879e-06
1.0997e-06
5.60414e-07
2.95665e-07
1.7515e-07
1.09251e-07
7.46835e-08
3.65354e-08
7.97415e-08
1.34684e-07
2.3066e-07
4.06018e-07
8.39723e-07
2.30539e-06
7.89328e-06
2.89565e-05
0.000103931
0.000351847
0.00110683
0.00321376
0.00857175
0.0209181
0.0466815
0.0952943
0.178452
0.309301
0.508078
0.83292
1.47814
3.03688
12.3056
)
;
    }
    low
    {
        type            calculated;
        value           nonuniform List<scalar> 
84
(
-0.472243
0.376428
1.06925
1.19677
0.742896
-0.0719105
-0.99506
-1.84417
-2.64024
-3.08663
-3.47724
-3.90008
-4.05985
-4.17889
-4.2967
-4.33188
-4.27858
-4.20695
-4.17285
-3.94126
-3.63618
-3.26387
-2.76014
-2.08936
-1.39038
-0.44798
0.507333
1.42564
2.18966
2.8885
3.3054
3.60143
3.81151
3.85574
3.79429
3.709
3.37259
2.85938
2.30814
1.70197
1.05771
0.402926
-0.402737
-1.05753
-1.70176
-2.30796
-2.85921
-3.37246
-3.70883
-3.79465
-3.85536
-3.81154
-3.60141
-3.3054
-2.88853
-2.18972
-1.42577
-0.507492
0.447565
1.39049
2.08904
2.76023
3.26385
3.63616
3.94124
4.17285
4.20695
4.27858
4.33189
4.29669
4.1789
4.05986
3.90007
3.47726
3.08667
2.64027
1.8442
0.995084
0.0719296
-0.742883
-1.19677
-1.06925
-0.376432
0.472242
)
;
    }
    left
    {
        type            calculated;
        value           nonuniform List<scalar> 
19
(
-0.532805
-2.71123
-4.59074
-5.82832
-6.50665
-6.7964
-6.89139
-6.88985
-6.83581
-6.77349
-6.67245
-6.54656
-6.41636
-6.32959
-6.36025
-6.75269
-7.86013
-10.3211
-10.6374
)
;
    }
    right
    {
        type            calculated;
        value           nonuniform List<scalar> 
19
(
0.532805
2.71123
4.59074
5.82832
6.50665
6.7964
6.89139
6.88985
6.83581
6.77349
6.67245
6.54657
6.41638
6.32963
6.36028
6.75266
7.86004
10.321
10.6374
)
;
    }
    frontAndBackPlanes
    {
        type            empty;
    }
}


// ************************************************************************* //
