/*--------------------------------*- C++ -*----------------------------------*\
  =========                 |
  \\      /  F ield         | OpenFOAM: The Open Source CFD Toolbox
   \\    /   O peration     | Website:  https://openfoam.org
    \\  /    A nd           | Version:  7
     \\/     M anipulation  |
\*---------------------------------------------------------------------------*/
FoamFile
{
    version     2.0;
    format      ascii;
    class       volScalarField;
    location    "0.253";
    object      gradTy;
}
// * * * * * * * * * * * * * * * * * * * * * * * * * * * * * * * * * * * * * //

dimensions      [0 -1 0 1 0 0 0];

internalField   nonuniform List<scalar> 
1596
(
-0.0874304
-0.162541
-0.22441
-0.284295
-0.342351
-0.406123
-0.472593
-0.550428
-0.643184
-0.753474
-0.9047
-1.09706
-1.36295
-1.74082
-2.32671
-3.23904
-4.86693
-7.8683
-18.5875
-0.266405
-0.328902
-0.372034
-0.412568
-0.452546
-0.500295
-0.553303
-0.619483
-0.702166
-0.802074
-0.938646
-1.10991
-1.33749
-1.63884
-2.06317
-2.63554
-3.4857
-4.73483
-8.28004
-0.476943
-0.498427
-0.512125
-0.529041
-0.548916
-0.578845
-0.615877
-0.666865
-0.734227
-0.817377
-0.932194
-1.0746
-1.25946
-1.49479
-1.81037
-2.21013
-2.76453
-3.52457
-5.15612
-0.697863
-0.663726
-0.642201
-0.632991
-0.631546
-0.642488
-0.662097
-0.695887
-0.745344
-0.80904
-0.899851
-1.01259
-1.15767
-1.3383
-1.57325
-1.85835
-2.2349
-2.72392
-3.56233
-0.901953
-0.815441
-0.759561
-0.724464
-0.701873
-0.693691
-0.695566
-0.711589
-0.742513
-0.786464
-0.85384
-0.939241
-1.05014
-1.18737
-1.36333
-1.57122
-1.83687
-2.16781
-2.65094
-1.06452
-0.944479
-0.861668
-0.803969
-0.762027
-0.735733
-0.72058
-0.719371
-0.732379
-0.757607
-0.8034
-0.864732
-0.947065
-1.05015
-1.18247
-1.33691
-1.53042
-1.76435
-2.07188
-1.17202
-1.04366
-0.945921
-0.871669
-0.813784
-0.771507
-0.740876
-0.723741
-0.720167
-0.728283
-0.754747
-0.795218
-0.853743
-0.92963
-1.02886
-1.14488
-1.28916
-1.46033
-1.67145
-1.22412
-1.10854
-1.0091
-0.926207
-0.857212
-0.80214
-0.758337
-0.727173
-0.708799
-0.701672
-0.711093
-0.733551
-0.772077
-0.825874
-0.899228
-0.986475
-1.09553
-1.22393
-1.3767
-1.23099
-1.14385
-1.05414
-0.970377
-0.895322
-0.830899
-0.776342
-0.733093
-0.701659
-0.680994
-0.67538
-0.68215
-0.703616
-0.739034
-0.791521
-0.856292
-0.938844
-1.0364
-1.15052
-1.20126
-1.1449
-1.07254
-0.995482
-0.920335
-0.851193
-0.789374
-0.73688
-0.694816
-0.662764
-0.644341
-0.637686
-0.644653
-0.664648
-0.700017
-0.746806
-0.808898
-0.883573
-0.970849
-1.16326
-1.12894
-1.07414
-1.00735
-0.93612
-0.865902
-0.799784
-0.740539
-0.690008
-0.648488
-0.619225
-0.60111
-0.595725
-0.602672
-0.623775
-0.655788
-0.701482
-0.758332
-0.825648
-1.11549
-1.1039
-1.06626
-1.011
-0.945912
-0.877079
-0.808878
-0.74485
-0.687596
-0.638157
-0.599644
-0.571638
-0.555595
-0.551337
-0.560336
-0.579957
-0.612179
-0.654737
-0.706642
-1.05577
-1.06452
-1.04373
-1.00106
-0.944053
-0.879055
-0.811219
-0.744749
-0.682925
-0.62749
-0.581608
-0.545477
-0.52056
-0.506914
-0.505819
-0.515167
-0.536418
-0.567591
-0.607585
-1.00233
-1.0228
-1.01536
-0.984216
-0.935535
-0.875424
-0.809329
-0.741937
-0.677079
-0.617109
-0.56536
-0.522561
-0.490266
-0.468763
-0.459236
-0.460011
-0.472207
-0.494105
-0.524606
-0.952547
-0.982299
-0.985158
-0.963765
-0.922817
-0.867811
-0.804152
-0.736805
-0.67001
-0.606639
-0.550233
-0.501985
-0.463578
-0.435526
-0.418972
-0.412611
-0.417331
-0.431657
-0.454548
-0.903544
-0.942117
-0.953697
-0.940595
-0.906566
-0.856513
-0.795617
-0.728967
-0.661087
-0.59526
-0.535247
-0.482634
-0.439254
-0.405827
-0.383495
-0.371262
-0.36987
-0.378059
-0.394867
-0.858945
-0.903564
-0.922229
-0.916078
-0.888027
-0.842471
-0.784312
-0.718675
-0.650274
-0.582708
-0.519943
-0.46389
-0.416528
-0.378757
-0.35174
-0.334734
-0.328392
-0.331638
-0.343596
-0.819689
-0.868468
-0.892704
-0.892254
-0.869213
-0.827485
-0.771742
-0.707093
-0.638395
-0.56951
-0.504571
-0.445767
-0.3952
-0.353914
-0.323091
-0.302203
-0.291848
-0.291114
-0.2992
-0.780317
-0.836456
-0.866509
-0.871229
-0.852527
-0.814004
-0.760208
-0.69626
-0.627168
-0.55704
-0.490163
-0.428973
-0.375671
-0.331411
-0.297379
-0.273217
-0.259503
-0.255485
-0.260438
-0.739818
-0.804315
-0.840898
-0.850866
-0.836275
-0.800673
-0.748602
-0.685257
-0.615813
-0.54462
-0.476112
-0.412946
-0.357397
-0.310687
-0.273977
-0.24703
-0.230443
-0.223665
-0.226092
-0.705083
-0.775181
-0.8178
-0.832828
-0.822066
-0.789038
-0.738363
-0.675378
-0.605457
-0.5332
-0.463195
-0.398294
-0.34083
-0.292047
-0.253021
-0.223548
-0.204249
-0.194854
-0.195071
-0.674312
-0.749609
-0.797763
-0.817596
-0.810446
-0.779743
-0.730215
-0.667384
-0.596857
-0.5235
-0.452057
-0.385571
-0.326428
-0.275857
-0.234784
-0.202878
-0.180665
-0.168193
-0.165946
-0.64601
-0.727157
-0.780799
-0.805267
-0.801554
-0.772996
-0.724451
-0.661654
-0.590466
-0.516014
-0.443199
-0.375251
-0.314616
-0.262518
-0.219692
-0.185483
-0.159943
-0.142963
-0.136407
-0.620927
-0.70797
-0.766713
-0.795077
-0.793942
-0.766578
-0.718171
-0.654649
-0.582205
-0.506298
-0.431777
-0.362266
-0.300209
-0.246885
-0.20279
-0.166985
-0.138408
-0.115329
-0.0965144
-0.600725
-0.693236
-0.757944
-0.792201
-0.796814
-0.77467
-0.730944
-0.671253
-0.601684
-0.527776
-0.45396
-0.38424
-0.321007
-0.265993
-0.219843
-0.18209
-0.15109
-0.124391
-0.0980682
-0.586837
-0.68257
-0.750579
-0.788682
-0.797613
-0.779978
-0.740693
-0.68502
-0.618731
-0.547214
-0.47445
-0.404527
-0.339864
-0.282537
-0.233626
-0.193555
-0.161189
-0.135116
-0.112843
-0.586657
-0.682943
-0.752135
-0.792327
-0.804175
-0.79023
-0.755051
-0.703636
-0.641351
-0.573192
-0.502783
-0.43382
-0.368583
-0.309304
-0.257571
-0.21453
-0.179748
-0.152321
-0.130135
-0.601761
-0.695776
-0.763389
-0.803083
-0.815608
-0.803579
-0.771296
-0.723505
-0.665165
-0.600823
-0.533629
-0.4667
-0.401873
-0.341224
-0.28668
-0.24016
-0.202111
-0.172254
-0.14872
-0.630594
-0.720754
-0.784462
-0.821399
-0.832652
-0.820978
-0.790498
-0.745714
-0.691194
-0.631046
-0.56789
-0.504187
-0.441036
-0.37995
-0.322801
-0.272228
-0.229805
-0.196285
-0.170175
-0.672405
-0.755784
-0.813354
-0.845693
-0.854171
-0.841672
-0.812193
-0.76998
-0.719236
-0.663691
-0.605475
-0.546452
-0.486818
-0.427061
-0.368299
-0.313453
-0.265327
-0.226443
-0.196252
-0.726614
-0.800368
-0.850351
-0.876872
-0.881531
-0.867341
-0.838217
-0.79814
-0.750978
-0.700185
-0.647535
-0.594551
-0.540622
-0.484953
-0.426979
-0.368777
-0.313637
-0.266637
-0.229699
-0.785633
-0.851096
-0.893181
-0.913209
-0.913411
-0.896996
-0.867813
-0.829547
-0.785749
-0.739678
-0.692929
-0.647097
-0.601265
-0.553685
-0.501527
-0.444379
-0.383322
-0.324774
-0.275685
-0.853244
-0.909172
-0.942215
-0.954831
-0.949877
-0.930699
-0.901004
-0.864115
-0.823224
-0.781408
-0.740168
-0.701554
-0.665128
-0.629415
-0.590237
-0.544471
-0.48728
-0.420184
-0.345998
-0.932422
-0.976622
-0.999436
-1.00407
-0.99383
-0.97206
-0.942157
-0.907021
-0.869408
-0.832106
-0.79662
-0.765386
-0.739073
-0.718033
-0.699734
-0.68203
-0.657309
-0.621202
-0.568612
-1.02077
-1.05124
-1.06117
-1.05523
-1.03708
-1.01001
-0.976899
-0.940205
-0.902151
-0.864852
-0.829718
-0.798641
-0.772715
-0.753282
-0.740697
-0.736452
-0.738613
-0.745333
-0.752579
-1.12089
-1.13253
-1.12669
-1.10846
-1.08123
-1.04794
-1.01083
-0.972008
-0.933249
-0.896069
-0.861884
-0.831838
-0.806834
-0.787615
-0.774805
-0.769137
-0.771324
-0.782305
-0.803256
-1.23158
-1.21991
-1.19732
-1.16704
-1.13138
-1.09252
-1.05209
-1.01174
-0.972862
-0.936595
-0.904135
-0.876176
-0.853256
-0.835539
-0.822999
-0.814932
-0.810722
-0.809157
-0.809174
-1.33386
-1.29981
-1.26132
-1.21957
-1.17577
-1.13128
-1.0872
-1.04468
-1.00476
-0.968215
-0.935895
-0.908234
-0.885456
-0.867486
-0.854092
-0.844601
-0.838418
-0.834693
-0.832662
-1.41783
-1.36728
-1.31621
-1.2651
-1.21457
-1.16537
-1.11821
-1.07382
-1.03291
-0.996025
-0.96373
-0.936307
-0.913807
-0.896068
-0.882802
-0.873394
-0.86725
-0.863615
-0.86175
-1.48523
-1.42151
-1.36041
-1.30187
-1.24598
-1.19305
-1.14342
-1.0975
-1.05577
-1.01856
-0.986265
-0.959061
-0.936889
-0.919538
-0.906676
-0.897717
-0.89204
-0.888929
-0.887647
-1.53431
-1.46061
-1.39194
-1.32789
-1.26814
-1.21256
-1.1612
-1.11423
-1.07193
-1.03453
-1.00227
-0.975287
-0.953444
-0.936493
-0.924068
-0.915576
-0.910348
-0.90766
-0.906747
-1.56571
-1.48279
-1.40876
-1.34138
-1.27948
-1.2225
-1.17025
-1.12276
-1.08021
-1.04273
-1.01054
-0.983713
-0.962102
-0.945447
-0.933373
-0.925306
-0.920572
-0.918458
-0.918186
-1.56572
-1.4828
-1.40878
-1.3414
-1.2795
-1.22252
-1.17028
-1.12278
-1.08023
-1.04275
-1.01056
-0.983737
-0.962127
-0.945472
-0.933399
-0.925334
-0.920601
-0.918488
-0.918217
-1.53432
-1.46064
-1.39198
-1.32794
-1.26819
-1.21262
-1.16126
-1.11428
-1.07199
-1.03459
-1.00234
-0.975354
-0.953514
-0.936568
-0.924147
-0.915661
-0.91044
-0.907761
-0.906857
-1.48525
-1.42155
-1.36048
-1.30194
-1.24606
-1.19313
-1.14351
-1.09759
-1.05587
-1.01866
-0.98637
-0.95917
-0.937003
-0.919657
-0.906803
-0.897852
-0.892184
-0.889083
-0.887812
-1.41785
-1.36734
-1.31629
-1.2652
-1.21467
-1.16548
-1.11833
-1.07394
-1.03304
-0.996155
-0.963864
-0.936446
-0.913951
-0.896217
-0.882956
-0.873554
-0.867417
-0.86379
-0.861933
-1.33389
-1.29988
-1.26141
-1.21968
-1.17589
-1.13141
-1.08734
-1.04483
-1.00491
-0.96837
-0.936056
-0.9084
-0.885627
-0.86766
-0.854271
-0.844783
-0.838605
-0.834884
-0.832857
-1.23161
-1.21999
-1.19741
-1.16716
-1.13151
-1.09266
-1.05224
-1.0119
-0.97303
-0.93677
-0.904316
-0.876362
-0.853445
-0.835728
-0.823184
-0.81511
-0.810888
-0.809308
-0.809309
-1.12092
-1.13261
-1.12681
-1.10861
-1.08141
-1.04814
-1.01106
-0.972264
-0.93353
-0.896375
-0.862217
-0.832201
-0.807229
-0.788042
-0.775258
-0.769593
-0.771743
-0.782612
-0.803343
-1.0208
-1.05126
-1.06119
-1.05525
-1.0371
-1.01004
-0.97693
-0.940232
-0.90217
-0.864855
-0.829697
-0.798582
-0.772604
-0.753101
-0.740441
-0.736136
-0.738323
-0.745236
-0.752945
-0.932432
-0.976665
-0.999513
-1.00419
-0.993989
-0.972264
-0.942406
-0.907314
-0.869742
-0.832479
-0.797032
-0.76584
-0.739581
-0.718624
-0.700461
-0.682978
-0.658584
-0.622897
-0.570778
-0.853248
-0.909178
-0.942238
-0.954879
-0.949953
-0.930806
-0.901143
-0.864285
-0.823422
-0.781633
-0.740421
-0.70184
-0.66546
-0.629819
-0.59074
-0.54509
-0.487986
-0.420887
-0.346525
-0.785634
-0.851097
-0.893195
-0.913247
-0.913479
-0.897098
-0.867949
-0.829717
-0.78595
-0.739911
-0.693195
-0.647402
-0.601619
-0.554097
-0.501998
-0.444886
-0.383815
-0.325198
-0.276021
-0.726613
-0.800363
-0.850355
-0.876897
-0.881585
-0.867429
-0.83834
-0.798298
-0.75117
-0.700409
-0.647792
-0.594844
-0.540953
-0.485319
-0.427366
-0.369158
-0.313981
-0.266926
-0.229938
-0.672403
-0.755775
-0.813351
-0.845709
-0.854214
-0.841748
-0.812304
-0.770126
-0.719415
-0.663901
-0.605716
-0.546722
-0.487113
-0.427372
-0.368609
-0.313743
-0.265581
-0.226659
-0.196438
-0.63059
-0.72074
-0.784452
-0.821405
-0.832684
-0.821042
-0.790596
-0.745847
-0.691359
-0.63124
-0.56811
-0.504428
-0.441293
-0.38021
-0.32305
-0.272455
-0.230002
-0.196456
-0.170329
-0.601757
-0.695761
-0.763376
-0.803084
-0.815633
-0.803634
-0.771383
-0.723623
-0.665314
-0.600998
-0.533825
-0.466911
-0.402091
-0.341439
-0.286882
-0.240342
-0.202271
-0.172396
-0.148854
-0.586653
-0.682928
-0.752121
-0.792325
-0.804193
-0.790276
-0.755127
-0.703741
-0.641482
-0.573346
-0.502954
-0.434002
-0.368767
-0.309482
-0.257736
-0.214678
-0.179882
-0.152446
-0.130262
-0.586831
-0.682553
-0.75056
-0.788669
-0.797615
-0.78
-0.740737
-0.685086
-0.618818
-0.547318
-0.474564
-0.404647
-0.339983
-0.28265
-0.233727
-0.193645
-0.161272
-0.135203
-0.112959
-0.600738
-0.693244
-0.757954
-0.792216
-0.796839
-0.774707
-0.730995
-0.67132
-0.601765
-0.527872
-0.454066
-0.384353
-0.321124
-0.26611
-0.219957
-0.1822
-0.151194
-0.124484
-0.0981443
-0.620941
-0.707983
-0.766722
-0.79508
-0.793935
-0.76656
-0.718143
-0.654614
-0.582163
-0.506251
-0.431729
-0.362217
-0.300162
-0.24684
-0.202748
-0.166943
-0.138365
-0.115283
-0.0964587
-0.64602
-0.727166
-0.780807
-0.805274
-0.801558
-0.772999
-0.724451
-0.661653
-0.590464
-0.516011
-0.443197
-0.37525
-0.314616
-0.262519
-0.219695
-0.185486
-0.159947
-0.142969
-0.136414
-0.674319
-0.749615
-0.797767
-0.817598
-0.810446
-0.77974
-0.730211
-0.667378
-0.596851
-0.523494
-0.452052
-0.385568
-0.326426
-0.275856
-0.234785
-0.20288
-0.180668
-0.168197
-0.16595
-0.705089
-0.775186
-0.817803
-0.832829
-0.822064
-0.789035
-0.738359
-0.675373
-0.605452
-0.533196
-0.463192
-0.398291
-0.340829
-0.292047
-0.253022
-0.22355
-0.204252
-0.194857
-0.195074
-0.739823
-0.804319
-0.8409
-0.850866
-0.836274
-0.80067
-0.748598
-0.685254
-0.615809
-0.544617
-0.47611
-0.412944
-0.357396
-0.310688
-0.273978
-0.247031
-0.230446
-0.223667
-0.226094
-0.780321
-0.836459
-0.86651
-0.871229
-0.852525
-0.814001
-0.760205
-0.696257
-0.627165
-0.557038
-0.490161
-0.428972
-0.37567
-0.331411
-0.29738
-0.273218
-0.259504
-0.255486
-0.260439
-0.819692
-0.86847
-0.892704
-0.892253
-0.869211
-0.827483
-0.771739
-0.707091
-0.638394
-0.569509
-0.50457
-0.445767
-0.3952
-0.353914
-0.323092
-0.302204
-0.291849
-0.291115
-0.2992
-0.858946
-0.903564
-0.922228
-0.916077
-0.888026
-0.842469
-0.78431
-0.718674
-0.650273
-0.582707
-0.519942
-0.46389
-0.416528
-0.378758
-0.35174
-0.334734
-0.328392
-0.331638
-0.343596
-0.903544
-0.942117
-0.953696
-0.940594
-0.906565
-0.856513
-0.795617
-0.728966
-0.661087
-0.59526
-0.535247
-0.482634
-0.439254
-0.405827
-0.383495
-0.371262
-0.36987
-0.378058
-0.394866
-0.952546
-0.982298
-0.985156
-0.963764
-0.922816
-0.867811
-0.804152
-0.736804
-0.67001
-0.606638
-0.550233
-0.501984
-0.463578
-0.435526
-0.418971
-0.41261
-0.41733
-0.431655
-0.454546
-1.00233
-1.0228
-1.01536
-0.984216
-0.935535
-0.875424
-0.809329
-0.741937
-0.677079
-0.617109
-0.56536
-0.522561
-0.490266
-0.468763
-0.459235
-0.460009
-0.472205
-0.494103
-0.524604
-1.05577
-1.06452
-1.04373
-1.00107
-0.944054
-0.879056
-0.81122
-0.74475
-0.682926
-0.62749
-0.581609
-0.545476
-0.520559
-0.506913
-0.505818
-0.515165
-0.536416
-0.567588
-0.607583
-1.11549
-1.1039
-1.06626
-1.011
-0.945913
-0.87708
-0.808879
-0.744851
-0.687596
-0.638157
-0.599644
-0.571637
-0.555595
-0.551336
-0.560334
-0.579955
-0.612176
-0.654734
-0.70664
-1.16325
-1.12894
-1.07415
-1.00735
-0.936122
-0.865903
-0.799785
-0.74054
-0.690009
-0.648488
-0.619225
-0.601109
-0.595725
-0.602671
-0.623773
-0.655786
-0.701479
-0.758328
-0.825647
-1.20126
-1.1449
-1.07254
-0.995484
-0.920337
-0.851195
-0.789375
-0.736881
-0.694816
-0.662764
-0.644341
-0.637685
-0.644652
-0.664647
-0.700016
-0.746803
-0.808895
-0.88357
-0.970849
-1.23099
-1.14385
-1.05414
-0.970379
-0.895324
-0.8309
-0.776343
-0.733094
-0.701659
-0.680994
-0.67538
-0.68215
-0.703616
-0.739033
-0.791519
-0.85629
-0.938841
-1.0364
-1.15052
-1.22413
-1.10855
-1.00911
-0.926209
-0.857214
-0.802141
-0.758338
-0.727174
-0.708799
-0.701672
-0.711093
-0.73355
-0.772076
-0.825873
-0.899226
-0.986473
-1.09553
-1.22393
-1.3767
-1.17202
-1.04367
-0.945923
-0.871671
-0.813786
-0.771508
-0.740878
-0.723742
-0.720167
-0.728284
-0.754746
-0.795217
-0.853741
-0.929629
-1.02885
-1.14487
-1.28916
-1.46033
-1.67145
-1.06452
-0.944482
-0.86167
-0.803971
-0.762028
-0.735735
-0.720581
-0.719372
-0.73238
-0.757607
-0.8034
-0.864732
-0.947064
-1.05014
-1.18247
-1.33691
-1.53042
-1.76435
-2.07189
-0.901958
-0.815444
-0.759564
-0.724466
-0.701875
-0.693693
-0.695568
-0.71159
-0.742514
-0.786464
-0.853839
-0.93924
-1.05014
-1.18737
-1.36333
-1.57122
-1.83688
-2.16782
-2.65094
-0.697867
-0.663728
-0.642203
-0.632993
-0.631548
-0.642489
-0.662099
-0.695888
-0.745345
-0.80904
-0.899851
-1.01259
-1.15767
-1.3383
-1.57325
-1.85835
-2.2349
-2.72393
-3.56233
-0.476946
-0.498429
-0.512126
-0.529043
-0.548917
-0.578847
-0.615878
-0.666866
-0.734227
-0.817377
-0.932194
-1.0746
-1.25946
-1.49479
-1.81037
-2.21013
-2.76453
-3.52457
-5.15612
-0.266406
-0.328902
-0.372035
-0.412568
-0.452547
-0.500296
-0.553303
-0.619483
-0.702166
-0.802074
-0.938646
-1.10991
-1.33749
-1.63884
-2.06317
-2.63554
-3.4857
-4.73483
-8.28004
-0.0874309
-0.162541
-0.22441
-0.284295
-0.342351
-0.406123
-0.472593
-0.550428
-0.643184
-0.753474
-0.904699
-1.09706
-1.36294
-1.74081
-2.32671
-3.23903
-4.86693
-7.8683
-18.5875
)
;

boundaryField
{
    up
    {
        type            calculated;
        value           nonuniform List<scalar> 
84
(
-16.8438
-9.12254
-5.59927
-3.82094
-2.81684
-2.18645
-1.75488
-1.43976
-1.19918
-1.00909
-0.85583
-0.730463
-0.626449
-0.539471
-0.46619
-0.403927
-0.350587
-0.304533
-0.26444
-0.22906
-0.197216
-0.167229
-0.135205
-0.0867203
-0.084022
-0.106342
-0.123767
-0.141852
-0.162423
-0.187152
-0.21818
-0.258204
-0.318977
-0.564855
-0.775336
-0.817351
-0.808513
-0.83161
-0.860959
-0.887252
-0.906601
-0.918427
-0.918458
-0.906716
-0.887422
-0.861145
-0.831809
-0.808646
-0.817253
-0.775737
-0.56739
-0.319467
-0.2585
-0.218404
-0.187331
-0.162574
-0.141986
-0.123896
-0.106499
-0.0841219
-0.0866607
-0.135211
-0.167233
-0.197218
-0.229062
-0.264441
-0.304533
-0.350587
-0.403926
-0.466188
-0.53947
-0.626448
-0.730462
-0.85583
-1.00909
-1.19918
-1.43977
-1.75489
-2.18645
-2.81684
-3.82094
-5.59927
-9.12253
-16.8438
)
;
    }
    low
    {
        type            calculated;
        value           nonuniform List<scalar> 
84
(
-0.0937867
-0.278239
-0.502736
-0.741467
-0.962497
-1.13655
-1.24695
-1.29429
-1.2874
-1.23974
-1.19218
-1.13508
-1.06265
-1.00212
-0.948222
-0.893676
-0.844277
-0.803595
-0.761354
-0.714352
-0.67465
-0.64008
-0.607151
-0.577734
-0.549842
-0.532654
-0.53314
-0.553666
-0.589501
-0.640193
-0.702285
-0.766555
-0.840357
-0.926861
-1.02135
-1.12975
-1.25208
-1.36195
-1.45064
-1.52209
-1.57443
-1.61021
-1.61022
-1.57443
-1.5221
-1.45066
-1.36196
-1.2521
-1.12977
-1.02135
-0.926873
-0.84035
-0.766552
-0.702282
-0.640191
-0.589498
-0.553667
-0.533143
-0.532659
-0.54985
-0.577753
-0.607156
-0.640088
-0.674656
-0.714356
-0.761357
-0.803598
-0.844278
-0.893676
-0.948221
-1.00212
-1.06264
-1.13507
-1.19217
-1.23974
-1.2874
-1.29429
-1.24696
-1.13656
-0.962504
-0.741473
-0.50274
-0.278241
-0.0937874
)
;
    }
    left
    {
        type            calculated;
        value           nonuniform List<scalar> 
19
(
-0.0857483
-0.159454
-0.222482
-0.284275
-0.344662
-0.410955
-0.4803
-0.56182
-0.659221
-0.776477
-0.938125
-1.14548
-1.43534
-1.85376
-2.50851
-3.54472
-5.41546
-8.90554
-17.4706
)
;
    }
    right
    {
        type            calculated;
        value           nonuniform List<scalar> 
19
(
-0.0857488
-0.159454
-0.222482
-0.284275
-0.344663
-0.410955
-0.480301
-0.56182
-0.65922
-0.776476
-0.938124
-1.14548
-1.43534
-1.85376
-2.50851
-3.54472
-5.41546
-8.90554
-17.4706
)
;
    }
    frontAndBackPlanes
    {
        type            empty;
    }
}


// ************************************************************************* //
