/*--------------------------------*- C++ -*----------------------------------*\
  =========                 |
  \\      /  F ield         | OpenFOAM: The Open Source CFD Toolbox
   \\    /   O peration     | Website:  https://openfoam.org
    \\  /    A nd           | Version:  7
     \\/     M anipulation  |
\*---------------------------------------------------------------------------*/
FoamFile
{
    version     2.0;
    format      ascii;
    class       volScalarField;
    location    "0.224";
    object      gradTz;
}
// * * * * * * * * * * * * * * * * * * * * * * * * * * * * * * * * * * * * * //

dimensions      [0 -1 0 1 0 0 0];

internalField   nonuniform List<scalar> 
1596
(
-1.12954e-15
-5.48464e-16
5.5805e-16
1.28058e-17
-1.06107e-15
0
-4.94229e-16
-4.87358e-16
-3.33837e-17
-2.57321e-16
-2.27717e-18
-2.56224e-16
1.12922e-15
-2.53667e-16
1.18486e-15
1.02281e-15
6.08478e-16
7.68704e-16
0
1.12774e-15
0
1.58403e-15
-1.15783e-17
-4.83253e-16
4.78828e-16
9.90115e-16
3.18815e-17
4.6848e-16
-2.26056e-16
4.51289e-16
-6.61382e-18
-6.264e-16
-3.91662e-16
-9.57847e-16
-9.34898e-16
-8.508e-16
4.84482e-16
0
-5.51698e-16
0
-1.0306e-15
1.83765e-17
9.39913e-16
-2.66446e-16
2.17176e-17
-6.50833e-18
-6.49519e-18
-6.83223e-18
1.68771e-16
0
3.24904e-16
9.20703e-16
-9.083e-17
7.33438e-17
1.72378e-16
2.69997e-16
0
8.68351e-16
-2.59188e-16
2.58241e-16
0
-2.47819e-16
-2.57238e-16
4.33758e-16
-3.75593e-16
0
0
-1.38988e-16
8.81576e-17
0
-2.70627e-16
-3.43718e-16
2.38471e-16
-2.46708e-16
-1.26844e-17
0
1.51899e-16
4.00754e-16
-3.58769e-16
0
-1.05043e-16
-3.2033e-16
0
4.76723e-16
-4.72799e-17
-4.28263e-17
-4.43022e-17
2.46949e-16
3.04953e-16
3.18343e-17
1.31323e-17
-2.57832e-16
1.29742e-17
1.19553e-16
-5.1641e-17
-3.94458e-17
-5.49653e-16
5.19821e-16
-4.50177e-16
-9.99885e-19
-3.93636e-16
1.10698e-17
-1.11065e-17
-3.07977e-16
0
-3.6883e-17
-2.92291e-16
-2.75387e-16
2.22389e-16
2.34246e-16
-3.18885e-18
-1.40515e-16
-1.21261e-16
9.28832e-17
3.29655e-16
-5.59115e-16
6.2219e-16
3.46155e-16
0
3.02614e-16
1.76395e-16
-8.47531e-17
3.90255e-16
-7.29994e-17
-3.10451e-16
2.72656e-18
-1.82827e-16
-2.2342e-16
-1.73451e-16
1.4853e-16
1.41752e-16
-1.89832e-18
-3.86566e-17
3.4594e-17
8.89264e-16
-1.03742e-15
0
0
-3.71148e-16
0
0
0
2.50314e-16
0
0
1.68047e-16
6.0322e-18
4.78953e-17
-1.30042e-16
0
6.9205e-17
2.72667e-17
0
-5.74024e-16
1.10239e-15
0
0
3.82231e-16
0
-1.43157e-16
1.43012e-16
-2.54784e-16
1.05386e-16
-1.06156e-16
0
1.53064e-16
1.52063e-16
0
-8.76953e-17
-7.07033e-17
-2.38567e-17
1.39825e-15
-6.52381e-16
0
-4.51675e-16
4.4662e-16
0
3.23001e-16
0
0
0
9.62852e-17
-9.67467e-17
0
-1.18403e-16
-3.36596e-17
0
1.06839e-17
4.96322e-17
0
-3.5494e-16
0
0
4.52719e-16
-8.4094e-16
4.64758e-17
1.77646e-17
-1.30992e-16
1.56099e-17
5.88814e-18
-1.00532e-16
-1.59819e-16
0
1.20572e-16
-2.44418e-17
2.48087e-17
6.61805e-17
-3.90677e-17
-1.783e-17
2.9059e-16
-3.37626e-17
2.79229e-16
9.4365e-16
-5.47417e-17
-3.90328e-16
0
0
0
2.07058e-16
8.18629e-17
2.94117e-16
-7.09488e-17
-1.18415e-16
-6.94083e-17
-3.84376e-17
1.71804e-17
-3.75455e-17
1.69327e-17
-3.24394e-16
3.18016e-16
-5.85318e-16
-9.3225e-16
8.58896e-16
3.33481e-16
-6.13308e-16
5.2423e-16
-4.47701e-16
1.16971e-16
8.79129e-17
-7.94255e-17
4.99956e-17
-4.56315e-17
1.34312e-16
0
-1.02147e-17
7.57064e-17
-1.12809e-17
-2.11596e-15
9.67298e-16
7.77018e-19
-2.0648e-16
2.8866e-17
3.23701e-16
-6.12794e-16
-2.48231e-16
2.08947e-16
-1.75029e-16
-1.47311e-16
0
-1.65329e-16
-4.90168e-17
-8.67851e-17
-5.1565e-17
4.05248e-18
-4.6669e-17
1.28053e-18
3.45827e-16
-3.05931e-16
5.7882e-19
-2.31034e-16
-5.67802e-16
5.3302e-16
2.53124e-18
2.41901e-16
-2.03437e-16
3.35007e-16
7.8965e-17
6.39025e-17
1.93813e-16
0
1.5903e-16
7.30882e-17
0
2.5169e-17
1.06297e-18
0
2.96789e-16
2.29007e-16
-4.78963e-16
5.49904e-16
-8.18618e-16
5.73235e-16
2.10726e-16
-3.37642e-17
-3.3194e-16
5.92142e-17
-5.8922e-17
-1.75293e-16
6.85698e-17
-3.46708e-17
-7.21964e-17
3.08135e-17
-1.92116e-17
7.77514e-18
-3.22101e-16
1.08081e-15
-8.06478e-16
4.31372e-16
0
0
-1.10631e-16
2.37517e-16
-1.63563e-16
3.05721e-16
0
0
1.17263e-16
-1.01658e-16
-7.0623e-17
2.23427e-17
-2.40397e-17
1.27605e-17
0
2.85755e-17
3.01246e-16
-2.38942e-16
-2.07171e-16
-3.27723e-16
-1.00842e-16
1.46218e-16
0
-1.53101e-16
-1.21713e-16
1.08303e-16
-8.67017e-17
6.90426e-17
0
2.71336e-17
5.18263e-17
0
0
0
-2.74319e-17
4.73172e-16
1.75612e-16
-6.26488e-16
1.69846e-16
1.43716e-16
0
0
1.43922e-16
-7.52506e-17
-1.04753e-16
8.38563e-17
-6.67694e-17
0
-1.71541e-17
1.41996e-17
0
-1.21041e-17
-4.25078e-18
-2.56241e-16
7.51956e-16
-9.05661e-16
-3.54579e-16
1.87034e-16
-1.3558e-16
1.11858e-16
0
-7.33598e-17
6.03079e-17
0
0
2.57171e-17
-2.57467e-17
7.49394e-18
-1.03162e-17
1.70309e-17
2.29113e-18
3.17598e-18
1.32928e-16
-1.18778e-16
5.99254e-16
-3.85937e-16
-1.53182e-16
2.14185e-17
2.32005e-16
8.55322e-17
7.01943e-17
0
3.84375e-17
-3.54585e-17
2.76259e-17
-2.29615e-17
2.86442e-17
-4.8987e-17
-1.32597e-17
1.15259e-17
3.02759e-18
3.53621e-16
-3.59629e-16
0
3.18513e-16
-1.69073e-16
-1.22264e-16
8.10806e-17
-2.62251e-16
0
-4.7472e-18
-4.51697e-17
-3.14687e-17
4.45299e-17
-3.69534e-18
-2.76842e-17
2.01891e-17
0
7.10719e-18
-2.93976e-18
6.09782e-16
-1.06429e-16
4.45333e-16
-3.48366e-16
1.85363e-16
1.57149e-17
-2.09197e-16
-6.84638e-17
1.22032e-16
-5.64044e-18
-6.74286e-17
5.60908e-17
-2.42007e-17
-3.07358e-17
0
0
0
-7.17246e-18
2.64595e-19
-5.38763e-16
5.23675e-16
3.87384e-19
7.77047e-17
6.57862e-17
-1.54907e-16
1.80243e-16
-1.44903e-16
1.21242e-16
-3.849e-17
7.27943e-17
2.50459e-17
-1.04689e-17
5.12686e-19
-3.52808e-18
-6.18932e-18
0
0
0
0
0
2.50768e-16
-1.26395e-16
-3.75551e-16
0
0
-4.21572e-17
-6.62378e-17
5.42522e-17
0
-3.15874e-17
2.39135e-17
-7.75458e-17
8.85984e-17
-2.8074e-17
2.98338e-17
3.21856e-18
0
-1.04355e-16
1.05639e-16
0
-8.26796e-17
8.36914e-17
1.35402e-16
0
4.25597e-17
5.34201e-17
-2.42002e-16
0
-3.56479e-17
2.71573e-17
1.88103e-17
-1.36924e-17
1.97915e-17
0
-7.10302e-18
0
-5.36809e-17
-5.2953e-17
3.134e-18
8.49512e-17
-2.2493e-16
0
-5.60291e-17
0
1.51909e-16
5.97082e-17
0
1.4142e-16
-1.45853e-16
1.53996e-17
-3.01534e-17
9.49618e-18
3.81834e-17
1.41035e-17
-1.11774e-17
0
1.10479e-16
-9.53609e-17
1.18042e-16
1.39151e-16
0
1.13649e-16
-1.06662e-16
-8.1702e-17
1.19691e-16
-1.79339e-16
-8.49971e-17
0
0
1.73676e-17
0
0
4.80499e-18
0
-4.92256e-16
3.78429e-16
0
6.29453e-18
-8.08325e-17
-4.38753e-18
7.04716e-17
4.87677e-17
-6.23905e-17
-1.52168e-16
2.36216e-16
-6.44002e-17
0
-2.92549e-17
0
0
0
-1.86127e-17
1.4884e-17
-1.39786e-16
1.2999e-16
3.43322e-16
-3.34445e-16
1.01753e-16
6.10402e-18
-7.15657e-17
6.07638e-17
1.01667e-16
7.62433e-17
-1.50445e-16
0
7.43293e-17
8.86775e-18
-3.34971e-17
-7.13035e-17
5.85201e-17
-9.11825e-18
1.74254e-17
-4.74997e-16
6.74221e-16
-6.67473e-16
1.16044e-16
9.71414e-17
-9.19107e-17
7.67992e-17
-5.98528e-17
0
-4.9565e-17
7.75288e-17
3.35504e-17
5.33835e-17
6.56405e-17
-9.77973e-17
-2.06948e-18
0
-7.17403e-18
2.41307e-18
-5.13569e-16
-1.51316e-16
-2.62485e-16
1.40254e-16
-2.25017e-16
1.934e-16
-1.14646e-16
9.54864e-17
-7.18154e-18
-7.12966e-18
-8.24533e-17
4.91851e-17
-2.60603e-17
8.00582e-17
-8.59433e-17
1.00507e-17
8.90053e-18
0
-4.21547e-18
5.5528e-16
-1.6335e-16
0
0
-2.31608e-16
4.49103e-16
-1.04246e-16
-1.96269e-17
1.60245e-16
-4.20877e-18
0
0
-3.53238e-17
0
-7.55154e-17
1.81763e-16
-1.25594e-16
0
1.70272e-18
1.89208e-16
3.51447e-16
0
-1.47922e-16
-1.18899e-16
-1.03798e-16
-1.08637e-16
4.43371e-17
-1.23213e-16
-6.64582e-17
0
0
4.8475e-17
0
0
-1.03435e-16
1.70791e-16
0
0
1.29864e-15
-1.5677e-16
-7.79578e-16
-4.19159e-16
5.69046e-16
1.79355e-16
1.05337e-16
0
-3.80929e-17
3.63749e-17
9.05714e-17
-2.90625e-17
-4.25371e-17
6.5798e-17
-6.99889e-17
-2.11794e-17
0
0
0
1.03996e-16
-8.14991e-16
7.98507e-16
-7.59788e-17
-5.82431e-16
9.08797e-16
-4.54836e-16
0
0
2.36799e-16
-1.93932e-16
0
-5.76145e-17
1.00653e-16
-1.11013e-17
2.92014e-17
8.85484e-18
1.0134e-19
1.91644e-18
0
0
0
6.65626e-16
-4.46716e-16
4.64051e-16
-7.22299e-16
2.04938e-16
0
-7.28008e-17
1.15654e-16
-1.18205e-16
-2.29512e-17
-2.29645e-19
-1.56174e-17
-2.24101e-18
-1.24647e-17
-3.51305e-18
-1.91086e-18
8.69259e-16
-1.54676e-15
7.31441e-16
0
1.94026e-16
-2.64537e-16
2.62634e-16
-2.08288e-16
0
-1.00057e-16
1.40275e-16
0
0
-1.48621e-19
0
-1.6364e-17
1.11744e-17
2.00527e-18
3.05508e-18
8.47491e-16
0
-3.33292e-16
3.72192e-16
-2.31575e-16
5.05189e-16
-2.38254e-16
-1.84831e-16
1.86761e-16
-1.89038e-17
0
0
1.20105e-17
-2.01269e-17
-1.41158e-17
2.67266e-17
-5.78554e-18
2.94272e-18
0
4.81046e-16
3.73238e-16
-1.41434e-17
-3.55146e-16
-3.56333e-17
-2.55576e-16
2.8533e-17
2.13896e-16
-1.10001e-17
1.92587e-17
0
0
-1.23039e-17
0
1.4445e-17
-1.54527e-17
0
1.97762e-18
-5.47377e-19
-2.55303e-16
-1.87298e-16
1.75413e-16
-1.99708e-17
-8.92593e-18
2.40127e-17
0
-6.29708e-18
9.38326e-17
-7.90207e-17
0
2.65482e-17
-5.25829e-18
-2.33893e-17
-2.13611e-18
-1.66408e-18
0
-1.54669e-18
0
1.03946e-16
-1.97351e-16
-2.2707e-18
8.43647e-17
7.66608e-17
-7.61252e-17
-5.35836e-17
6.06393e-17
-2.06828e-17
1.61912e-17
-1.56405e-17
1.61229e-17
0
4.10038e-20
-1.5754e-18
5.65827e-18
-1.93515e-20
0
0
1.03949e-16
-1.0356e-16
-8.39219e-17
7.43663e-17
1.35397e-16
-1.36196e-16
-2.67928e-17
2.68568e-17
-2.08581e-17
2.10769e-17
-1.56411e-17
2.94859e-17
-8.2701e-18
-5.93651e-18
-1.81736e-18
6.03636e-19
1.43644e-18
3.79605e-19
-2.84663e-19
0
-2.46144e-17
1.46107e-16
-1.58433e-16
1.35098e-16
-1.198e-16
0
9.42706e-17
-8.43579e-17
0
3.11004e-17
-3.93581e-17
-2.23195e-17
2.33923e-17
4.28649e-18
0
0
-1.54697e-18
5.61951e-19
4.136e-16
-7.604e-16
7.73001e-16
-6.76136e-16
2.65405e-16
-2.23741e-16
2.12405e-16
2.50684e-17
-9.29663e-17
8.30398e-17
0
-5.96989e-17
5.43914e-17
-1.02802e-17
-4.19862e-18
6.57019e-18
4.82542e-18
1.50181e-18
-5.42972e-19
9.55369e-16
0
-3.7714e-16
2.93168e-16
3.52237e-17
-2.69095e-16
4.76256e-16
-4.21022e-16
1.65003e-16
-7.00102e-17
7.16616e-17
1.41479e-17
2.4138e-17
1.0013e-17
-8.24702e-18
-1.10344e-18
-1.04415e-17
0
1.06019e-18
7.62821e-16
-8.58667e-16
0
7.80032e-17
3.34395e-16
-3.27184e-16
5.54251e-17
4.88913e-17
2.13217e-17
3.72936e-17
0
0
-4.19565e-17
7.8275e-17
-2.85513e-17
-1.02097e-17
1.11779e-17
8.9354e-19
-2.01308e-18
7.32581e-17
7.54356e-16
-8.65965e-17
-5.87997e-16
5.16359e-16
6.13631e-17
-5.42436e-17
-4.77522e-17
1.56031e-16
-1.9353e-16
1.15693e-16
-1.18244e-16
1.82497e-17
-2.34409e-17
4.22675e-17
-2.82125e-17
0
0
2.00567e-18
0
1.886e-16
-5.62627e-16
6.432e-16
-5.14963e-16
5.13737e-16
0
1.75318e-16
-1.76121e-16
-1.31148e-16
1.94084e-16
0
7.96793e-17
-1.00731e-16
-1.48806e-17
0
-1.65567e-18
-3.25349e-18
-8.50579e-20
-1.79927e-15
8.562e-16
0
-5.68952e-16
5.68896e-16
3.45183e-16
-2.26758e-16
9.23702e-17
0
-4.10393e-18
2.99652e-17
-2.90246e-17
-4.24844e-17
6.57078e-17
-6.98692e-17
0
1.48868e-17
-3.16895e-18
-2.01743e-18
1.10549e-15
-1.08593e-15
0
1.4748e-16
1.33287e-16
-1.21327e-16
0
-9.68048e-17
-8.2366e-17
0
-4.16676e-18
0
4.85e-17
0
0
2.11322e-17
7.91946e-17
-1.02652e-16
0
1.30455e-19
1.6343e-16
-1.49931e-16
1.20877e-16
-6.15121e-16
2.3457e-16
0
1.96419e-17
5.55616e-17
0
-5.62304e-17
1.61004e-16
-1.69144e-16
2.79564e-17
0
-3.43923e-18
0
0
0
1.341e-19
0
1.38573e-16
0
-2.10746e-16
2.14096e-16
0
7.49085e-17
-5.94219e-17
2.14286e-16
-1.03101e-16
3.654e-17
-5.82899e-17
5.48193e-17
-8.60582e-17
-1.36602e-17
0
-8.69834e-18
0
4.28949e-16
-7.25626e-16
0
-1.15887e-16
1.03162e-16
0
0
-1.3655e-16
0
-4.96044e-17
-7.75948e-17
-3.35836e-17
5.34425e-17
0
2.76901e-17
0
0
1.89153e-17
-2.07834e-17
0
6.24985e-16
-5.00009e-16
1.07285e-16
-9.55286e-17
-3.86472e-17
1.10873e-16
1.2317e-16
-1.48402e-16
4.77835e-17
3.90619e-18
-4.30114e-17
1.75468e-16
-5.44787e-17
-1.2414e-16
4.25243e-17
-1.07596e-17
6.4642e-18
-1.92839e-18
-1.02277e-15
3.78435e-16
0
0
4.05125e-17
-4.11967e-17
2.87293e-17
1.82651e-17
1.33429e-16
6.72312e-17
-6.61952e-17
-3.01832e-18
-3.61474e-17
2.92844e-17
0
1.40017e-17
9.86193e-18
5.20746e-18
1.74299e-18
0
3.2629e-16
-3.02856e-16
9.67985e-17
9.86792e-17
-1.8985e-17
-6.04326e-17
-5.10257e-17
-1.66542e-16
6.60915e-17
-3.92965e-17
5.45685e-17
3.38023e-17
-4.12594e-17
4.37943e-17
2.70848e-17
-3.54424e-17
-4.80986e-18
0
-5.81726e-17
-2.59524e-16
9.21632e-17
8.49744e-17
-2.89507e-16
2.06319e-16
1.00622e-16
-1.02851e-16
7.75422e-17
-6.27241e-17
0
0
-4.95495e-17
8.84294e-17
-3.86989e-17
3.54064e-17
-3.87563e-17
6.30415e-18
-1.11889e-17
1.08958e-16
1.0127e-16
-9.15236e-17
7.04515e-17
-8.29162e-17
-1.23999e-16
0
0
0
0
0
0
2.53253e-17
-6.5677e-17
6.94606e-17
-2.20459e-17
2.72038e-17
1.26263e-17
-1.06858e-17
2.26143e-16
-3.81539e-16
4.76983e-16
-2.19793e-16
3.04426e-16
-2.17624e-16
4.0381e-16
-2.259e-16
-1.18062e-16
1.20772e-16
0
3.15688e-17
-2.47415e-17
5.91936e-17
-2.03594e-17
-2.54546e-17
-5.24351e-17
3.98833e-18
9.06077e-18
3.52171e-16
1.00678e-16
0
-1.54897e-16
-1.20711e-16
2.75051e-16
2.65403e-17
-1.08487e-16
6.40413e-17
-4.44752e-17
0
-2.49902e-17
0
-1.97117e-17
1.58562e-17
-1.40995e-17
-4.64055e-18
3.24362e-18
0
4.91573e-16
-1.06428e-16
4.45166e-16
-3.48315e-16
-6.91581e-17
2.68707e-16
-1.61139e-16
8.46276e-18
6.90991e-18
-4.33516e-17
4.17072e-17
0
0
2.4135e-17
-8.56241e-18
5.49994e-18
1.68025e-17
-5.84886e-18
0
1.02483e-19
0
-9.89102e-17
5.75412e-16
-3.87883e-16
-4.05997e-16
2.2192e-16
-2.26546e-16
2.09118e-16
1.01727e-16
-7.56433e-17
3.0397e-17
-2.6885e-17
4.83145e-18
4.30621e-17
1.41222e-18
-1.60216e-17
1.58453e-17
-3.26971e-18
1.19339e-15
-3.80014e-16
1.82843e-16
-5.66277e-16
1.53181e-16
-2.36739e-16
1.27735e-16
0
0
-4.87897e-18
-6.70717e-18
-1.97957e-18
0
-3.81058e-17
-2.86449e-17
2.08618e-17
-1.52933e-18
2.85052e-18
6.51723e-18
0
-3.76438e-16
6.32874e-16
1.38073e-16
-5.11113e-16
1.3558e-16
-2.05389e-16
3.62642e-17
1.65283e-16
0
0
3.03082e-18
3.30093e-17
0
-2.87614e-17
-1.29505e-17
1.90864e-18
-6.65545e-18
-7.7097e-18
0
-2.35772e-16
5.5389e-17
4.26797e-16
3.14747e-16
-5.7484e-16
2.60009e-16
-1.77831e-16
9.55475e-17
-1.29891e-16
0
0
0
-5.27265e-17
1.35434e-17
-1.72383e-17
0
-1.06862e-18
5.33813e-18
-8.96047e-16
8.48125e-16
8.98875e-16
-1.09046e-15
5.03993e-16
-4.72902e-16
0
1.877e-16
-2.5565e-16
1.46854e-16
-1.13075e-16
9.15312e-17
7.37547e-17
5.45309e-17
4.26497e-17
0
0
0
0
9.9425e-16
-5.70455e-16
0
0
-1.84535e-16
4.44674e-16
-2.84449e-16
-1.99037e-16
1.96794e-16
1.4409e-16
2.39818e-16
-9.49725e-17
4.07486e-17
3.04749e-17
2.22278e-17
1.8432e-17
2.96552e-17
-1.45387e-18
1.4809e-18
-1.00609e-15
9.21987e-16
4.87948e-16
-2.54524e-16
5.4964e-16
-3.52453e-16
-2.75522e-16
-2.3085e-16
0
-3.03102e-16
1.57781e-17
1.09739e-16
-8.47743e-17
-6.85699e-17
-2.53199e-17
-2.63953e-17
-2.11471e-17
0
0
-3.46114e-16
0
2.66315e-16
-3.36518e-19
0
0
2.84209e-16
2.38205e-16
0
1.64738e-16
0
-1.66734e-16
-4.69616e-17
8.30273e-17
0
5.35992e-17
-7.55311e-18
7.70518e-18
0
7.3809e-16
0
5.11375e-16
-9.46503e-16
8.40653e-16
6.72071e-16
-2.20362e-17
0
1.86682e-17
1.93483e-16
0
-1.89422e-16
2.10617e-16
-1.87466e-16
-4.08598e-17
-4.29425e-17
-1.28236e-17
-2.32155e-18
-8.45025e-18
-6.83886e-16
9.84459e-16
-2.77062e-16
-7.21421e-16
-4.15002e-16
-3.56509e-16
-6.11195e-16
-2.42842e-16
2.06584e-17
8.80782e-17
-8.79128e-17
2.78555e-16
-1.23292e-16
2.46645e-16
-4.61978e-17
0
5.3658e-17
-3.18788e-17
8.48737e-18
1.51792e-15
-3.42075e-17
-1.14704e-15
9.43656e-16
-8.44348e-16
7.31847e-16
-2.45516e-17
-2.74844e-16
2.38686e-16
9.43231e-17
-1.2436e-17
-2.29089e-16
6.57593e-17
7.17033e-17
-2.14246e-17
2.16689e-17
-5.55766e-17
-6.43317e-18
-1.3636e-17
7.45163e-16
3.13654e-16
5.49504e-16
-4.81033e-16
-3.94275e-16
2.18091e-17
-2.99913e-16
7.25549e-16
2.58638e-17
3.33953e-16
1.95268e-16
-1.72933e-16
0
-1.20572e-16
0
0
8.00762e-17
3.49936e-17
1.58797e-17
6.97921e-16
0
5.42801e-16
4.77928e-16
-4.23049e-16
3.68209e-16
0
-2.84276e-16
-3.9374e-16
-3.42293e-16
-1.96997e-16
1.74888e-16
0
0
0
0
-7.51073e-17
-5.70715e-17
0
-1.36743e-15
0
-2.80604e-17
-2.48038e-17
6.45016e-16
-3.61808e-16
-1.65873e-16
-1.6672e-16
4.01704e-16
0
1.05385e-16
-1.10753e-17
9.62788e-17
0
0
1.2801e-16
-9.55929e-18
6.85502e-17
-2.66223e-17
9.61152e-16
2.7602e-16
-2.7317e-16
-2.40391e-16
-8.3104e-16
5.69537e-16
6.86257e-16
-2.01157e-17
-2.75146e-16
2.73725e-16
5.73441e-17
-2.92577e-16
-2.38493e-16
-1.47248e-16
-1.56314e-16
-1.47642e-16
1.24864e-16
-5.87812e-18
2.72668e-17
-2.9494e-16
1.3369e-16
-6.43431e-16
1.09666e-16
-1.09267e-16
0
-3.41771e-16
-2.57887e-17
-3.17554e-16
2.9159e-17
3.1045e-16
2.27776e-16
-5.64262e-17
2.16021e-17
1.48503e-16
0
-2.61209e-16
-9.68033e-17
-2.00728e-18
6.01755e-16
-1.63101e-17
1.01219e-15
-4.81347e-16
9.99884e-19
1.27348e-17
3.82432e-16
-3.19251e-17
3.07976e-16
-2.88335e-16
-2.71487e-16
0
2.75386e-16
2.18935e-16
3.07958e-18
-4.48229e-18
1.41876e-16
9.83914e-17
0
-4.27416e-16
0
-1.01475e-16
4.59154e-16
6.74234e-18
1.05183e-16
-3.69806e-16
3.49251e-16
3.71673e-16
3.56409e-16
3.43189e-16
0
-2.67533e-16
0
1.43877e-17
-1.49429e-17
0
-1.44091e-18
7.10983e-17
2.96866e-16
1.6112e-17
-2.33186e-16
7.20549e-16
-2.31025e-16
0
0
-4.19736e-16
-3.60113e-16
-3.45281e-16
-6.30058e-16
-8.81575e-17
0
0
0
-2.96683e-17
3.13965e-17
2.01676e-16
-7.21864e-17
1.6743e-17
0
-5.04304e-16
-4.59938e-16
4.82874e-16
-4.79583e-16
-6.86377e-16
8.39842e-16
2.35133e-16
0
3.72547e-16
4.253e-16
-9.18318e-17
4.99947e-16
-8.19706e-17
8.53114e-17
3.32495e-16
-1.91647e-16
0
-5.6681e-16
0
-5.42008e-16
5.30868e-16
0
9.55234e-16
4.48118e-16
-9.4337e-16
7.56256e-16
-4.76324e-18
-2.2837e-16
-4.11777e-16
0
5.72108e-16
-9.57846e-16
1.02835e-15
-1.31061e-15
0
0
5.6459e-16
-3.87262e-18
-9.52872e-18
-1.07116e-15
1.08181e-15
-5.2248e-16
5.2035e-16
5.12866e-16
-4.51656e-16
0
0
8.56809e-16
-8.71569e-16
-9.29874e-16
9.22384e-16
-8.99008e-16
9.72705e-16
-1.52402e-15
0
)
;

boundaryField
{
    up
    {
        type            calculated;
        value           nonuniform List<scalar> 
84
(
0
0
0
0
-5.1641e-17
9.28832e-17
-3.86566e-17
2.72667e-17
-2.38567e-17
0
-1.783e-17
1.69327e-17
-1.12809e-17
1.28053e-18
1.06297e-18
7.77514e-18
0
0
-4.25078e-18
3.17598e-18
3.02759e-18
-2.93976e-18
2.64595e-19
0
1.18584e-18
5.80118e-19
-1.05922e-17
0
1.4884e-17
1.83198e-17
2.41307e-18
-4.21547e-18
1.70272e-18
0
-8.34171e-19
1.97733e-18
-1.90457e-18
3.04791e-18
0
-5.45955e-19
0
0
-2.84756e-19
5.61951e-19
-5.42972e-19
1.06019e-18
-2.01308e-18
2.00567e-18
-8.50579e-20
-2.01743e-18
0
0
0
-2.07834e-17
-2.82365e-18
1.74299e-18
0
-1.11889e-17
-1.06858e-17
7.87881e-18
0
0
-3.26971e-18
6.51723e-18
-7.7097e-18
5.33813e-18
0
1.4809e-18
0
0
-8.45025e-18
8.48737e-18
-1.3636e-17
1.58797e-17
0
-2.66223e-17
2.72668e-17
-2.00728e-18
0
7.10983e-17
-7.21864e-17
0
0
0
)
;
    }
    low
    {
        type            calculated;
        value           nonuniform List<scalar> 
84
(
-1.13039e-15
1.12774e-15
-5.50153e-16
8.69602e-16
1.52745e-16
-3.96952e-17
3.31747e-16
3.65925e-17
0
1.40057e-15
-3.5494e-16
2.89305e-16
-3.24394e-16
-2.116e-15
3.45827e-16
0
-3.22101e-16
2.85755e-17
-2.74319e-17
-2.56241e-16
1.32928e-16
3.53621e-16
6.07434e-16
-5.38763e-16
0
-1.04355e-16
-5.36809e-17
0
-4.92256e-16
-1.39786e-16
-4.73498e-16
-5.12395e-16
5.54505e-16
1.89208e-16
1.29874e-15
1.03996e-16
0
8.69259e-16
8.49376e-16
4.82074e-16
-2.55852e-16
1.03946e-16
1.03949e-16
0
4.136e-16
9.57254e-16
7.62821e-16
7.45459e-17
0
-1.79937e-15
1.10549e-15
1.30455e-19
1.341e-19
4.28949e-16
0
-1.02034e-15
0
-5.81726e-17
1.08958e-16
2.24698e-16
3.49642e-16
4.89225e-16
1.02483e-19
1.19147e-15
0
0
-8.96047e-16
9.93327e-16
-1.00549e-15
-3.46114e-16
7.38133e-16
-6.83886e-16
1.52049e-15
7.46971e-16
6.97921e-16
-1.36743e-15
9.59154e-16
-2.92848e-16
6.01755e-16
-4.2657e-16
2.96866e-16
1.82888e-17
-5.6681e-16
5.65012e-16
)
;
    }
    left
    {
        type            calculated;
        value           nonuniform List<scalar> 
19
(
-1.12954e-15
-5.48912e-16
5.5805e-16
1.28123e-17
-1.06139e-15
0
-4.94229e-16
-4.87358e-16
-3.50241e-17
-2.57321e-16
-2.27717e-18
-2.56224e-16
1.14058e-15
-2.53667e-16
1.18486e-15
1.02281e-15
6.08478e-16
8.92743e-16
0
)
;
    }
    right
    {
        type            calculated;
        value           nonuniform List<scalar> 
19
(
5.6459e-16
-3.42523e-18
-9.52872e-18
-1.07117e-15
1.08212e-15
-5.2248e-16
5.2035e-16
5.12866e-16
-4.50016e-16
0
0
8.64893e-16
-8.82925e-16
-9.29874e-16
9.22384e-16
-8.99008e-16
9.72705e-16
-1.64806e-15
0
)
;
    }
    frontAndBackPlanes
    {
        type            empty;
    }
}


// ************************************************************************* //
