/*--------------------------------*- C++ -*----------------------------------*\
  =========                 |
  \\      /  F ield         | OpenFOAM: The Open Source CFD Toolbox
   \\    /   O peration     | Website:  https://openfoam.org
    \\  /    A nd           | Version:  7
     \\/     M anipulation  |
\*---------------------------------------------------------------------------*/
FoamFile
{
    version     2.0;
    format      ascii;
    class       volScalarField;
    location    "0.2";
    object      T;
}
// * * * * * * * * * * * * * * * * * * * * * * * * * * * * * * * * * * * * * //

dimensions      [0 0 0 1 0 0 0];

internalField   nonuniform List<scalar> 
1596
(
0.996942
0.988193
0.97931
0.971023
0.963557
0.95686
0.950807
0.94507
0.939406
0.933236
0.926108
0.9174
0.905796
0.889516
0.865854
0.828869
0.767552
0.659925
0.461926
0.986799
0.959609
0.934171
0.911143
0.890618
0.872325
0.855866
0.840542
0.825725
0.810322
0.793389
0.773769
0.749444
0.718001
0.676524
0.61966
0.539257
0.421389
0.239719
0.974852
0.929218
0.888519
0.852462
0.820658
0.792533
0.767431
0.744425
0.722653
0.700799
0.677717
0.652064
0.621754
0.584456
0.537676
0.477314
0.397901
0.291161
0.141762
0.963135
0.900336
0.845932
0.798454
0.756936
0.720494
0.688256
0.659154
0.632191
0.605978
0.579307
0.550806
0.518505
0.480321
0.434201
0.377057
0.305228
0.213807
0.0938706
0.953512
0.875985
0.809649
0.752208
0.702255
0.658665
0.620409
0.586337
0.555389
0.526162
0.497451
0.467905
0.435701
0.398983
0.356019
0.304397
0.241541
0.164423
0.0677041
0.947154
0.858172
0.781831
0.715745
0.658354
0.608435
0.564879
0.526511
0.492245
0.460704
0.430702
0.400926
0.369677
0.335268
0.296174
0.250402
0.195996
0.130936
0.0518494
0.944173
0.847369
0.763078
0.689594
0.625579
0.569896
0.521459
0.47912
0.44181
0.408194
0.377117
0.347302
0.317149
0.28509
0.249725
0.209314
0.162249
0.107036
0.0413704
0.943813
0.84263
0.752493
0.672872
0.602995
0.542002
0.488949
0.442781
0.402482
0.366777
0.334552
0.304564
0.275292
0.245253
0.213122
0.177315
0.136416
0.0891989
0.0339377
0.945351
0.842691
0.748675
0.664158
0.589163
0.52328
0.465819
0.415884
0.372556
0.334639
0.301067
0.270636
0.241887
0.213402
0.183904
0.151906
0.116101
0.0753945
0.0283734
0.947321
0.845042
0.748857
0.660717
0.581467
0.511243
0.449697
0.396155
0.349837
0.309645
0.274577
0.243468
0.214919
0.187561
0.16015
0.131268
0.0996715
0.0643285
0.0240046
0.948861
0.84769
0.750547
0.659942
0.577366
0.503482
0.438326
0.381483
0.332347
0.289942
0.253338
0.22142
0.19284
0.166277
0.140513
0.114182
0.086084
0.0552172
0.0204513
0.95072
0.85108
0.753643
0.661322
0.5761
0.499102
0.43074
0.370875
0.319093
0.274551
0.236402
0.203581
0.174791
0.148748
0.124257
0.0999927
0.0747871
0.0476523
0.0175204
0.952433
0.854479
0.75714
0.663626
0.576302
0.496684
0.425528
0.362964
0.308776
0.262256
0.222642
0.188922
0.15984
0.134146
0.110663
0.0880969
0.0653039
0.0413032
0.0150705
0.953413
0.856782
0.759682
0.665356
0.576413
0.494674
0.421188
0.356335
0.300082
0.251855
0.210972
0.176469
0.147129
0.121727
0.0991
0.0779803
0.0572435
0.0359139
0.0129991
0.954189
0.858445
0.761452
0.666433
0.576138
0.492618
0.417165
0.350372
0.292374
0.242713
0.20078
0.16565
0.136134
0.111024
0.0891676
0.0693151
0.0503574
0.0313226
0.0112425
0.954917
0.859776
0.762679
0.666914
0.575359
0.490251
0.413082
0.344628
0.285161
0.234326
0.191567
0.155986
0.12641
0.101639
0.0805198
0.0618163
0.0444295
0.0273895
0.00974739
0.955346
0.860495
0.763084
0.666479
0.573691
0.487124
0.408445
0.338581
0.27792
0.22618
0.182844
0.14702
0.117539
0.0931972
0.0728334
0.0552178
0.0392577
0.0239842
0.00846462
0.955588
0.860735
0.762799
0.665224
0.571164
0.483192
0.403134
0.332053
0.270424
0.218021
0.174338
0.138476
0.109251
0.0854431
0.065877
0.0493218
0.0346873
0.0210044
0.00735427
0.956254
0.86147
0.762869
0.664141
0.568652
0.479176
0.39771
0.325447
0.262938
0.209993
0.166099
0.130329
0.101469
0.078268
0.059526
0.044005
0.0306124
0.018376
0.00638662
0.957142
0.862652
0.763378
0.663378
0.566317
0.475217
0.392273
0.318814
0.255465
0.202055
0.158048
0.122471
0.0940606
0.0715256
0.0536309
0.0391268
0.0269152
0.0160186
0.00553123
0.957801
0.86365
0.763761
0.662486
0.563813
0.471052
0.386618
0.311991
0.247862
0.194075
0.150055
0.114767
0.086888
0.0650721
0.0480456
0.034546
0.0234738
0.0138477
0.0047571
0.958504
0.864731
0.764284
0.661755
0.561455
0.467001
0.381051
0.305247
0.240353
0.186219
0.142226
0.107266
0.0799456
0.0588569
0.0426817
0.0301476
0.0201647
0.0117644
0.00402743
0.959379
0.866131
0.76521
0.661473
0.559555
0.463389
0.375894
0.29888
0.23319
0.178684
0.134692
0.100033
0.0732371
0.052828
0.0374379
0.0257841
0.0168043
0.0095857
0.00325406
0.960355
0.867773
0.766477
0.661608
0.55813
0.460291
0.371264
0.293033
0.226516
0.171584
0.127523
0.0930806
0.0667185
0.0468886
0.0321669
0.0212508
0.0131107
0.00694098
0.00208942
0.961983
0.871716
0.77196
0.667903
0.564597
0.466416
0.376675
0.297495
0.229917
0.17391
0.128845
0.0935352
0.0664814
0.0461504
0.0311119
0.0200399
0.0118979
0.00591594
0.00155838
0.963815
0.87698
0.780336
0.678853
0.5774
0.480247
0.39071
0.310989
0.242267
0.184698
0.137839
0.100696
0.0719305
0.0501236
0.0338997
0.0219276
0.0131176
0.0066254
0.00182115
0.964769
0.880278
0.786171
0.687121
0.587726
0.492043
0.403273
0.323593
0.254245
0.19551
0.147109
0.108239
0.0777494
0.0543782
0.0368542
0.023875
0.0143194
0.00727785
0.00203843
0.964856
0.881522
0.789273
0.692432
0.59524
0.501441
0.414006
0.334984
0.26559
0.206166
0.156557
0.116134
0.0839488
0.058938
0.0399928
0.0258899
0.0155074
0.00787997
0.00221781
0.964399
0.881354
0.790456
0.695663
0.600801
0.509224
0.423591
0.345746
0.276804
0.217111
0.166591
0.124767
0.0908832
0.0641047
0.0435441
0.0281266
0.0167782
0.00849015
0.00238459
0.963467
0.880186
0.790399
0.697632
0.605253
0.516185
0.43273
0.356479
0.288402
0.228803
0.177647
0.134569
0.0989788
0.0702684
0.0478192
0.0307901
0.0182415
0.00915882
0.00255608
0.962311
0.878707
0.790042
0.699386
0.609642
0.523299
0.442289
0.36793
0.30103
0.241821
0.19028
0.146107
0.108828
0.0780195
0.0533359
0.0342489
0.0200903
0.00995326
0.00274723
0.961526
0.877894
0.790508
0.702074
0.615071
0.53157
0.45315
0.380863
0.315355
0.256778
0.205096
0.160043
0.121192
0.0882149
0.0609668
0.039238
0.0227742
0.0110215
0.00296071
0.960865
0.877435
0.791533
0.705501
0.621402
0.540911
0.46527
0.395284
0.331443
0.273824
0.222376
0.176844
0.1368
0.101911
0.0720743
0.0472446
0.0275517
0.0130303
0.00320881
0.96029
0.877328
0.793168
0.709764
0.628769
0.551478
0.478822
0.411382
0.349515
0.293234
0.242485
0.19704
0.156469
0.120391
0.0886066
0.0609655
0.0376169
0.0189445
0.00506629
0.959588
0.876813
0.794016
0.712815
0.634493
0.560015
0.490045
0.424971
0.365033
0.310189
0.260386
0.215429
0.174923
0.138484
0.105823
0.0765684
0.0505282
0.0277999
0.00847219
0.9581
0.874006
0.791101
0.71065
0.633612
0.560681
0.492302
0.428702
0.370014
0.316126
0.266963
0.222337
0.181878
0.145246
0.1122
0.0823741
0.0555135
0.0315168
0.010127
0.956053
0.869725
0.785851
0.705289
0.628689
0.556506
0.489002
0.426264
0.368328
0.315012
0.266213
0.221738
0.181237
0.144413
0.111107
0.0810482
0.0541142
0.0303491
0.00959712
0.954416
0.866333
0.781727
0.701117
0.624901
0.553344
0.486559
0.424524
0.367198
0.314353
0.265869
0.221558
0.181088
0.144202
0.110792
0.0806404
0.0536743
0.0299872
0.0094485
0.953341
0.864026
0.778886
0.698235
0.622298
0.551199
0.484942
0.42342
0.366541
0.314039
0.265783
0.221593
0.18115
0.144221
0.110735
0.0805045
0.0534899
0.0298205
0.00938423
0.952551
0.862331
0.7768
0.69612
0.620388
0.549623
0.483751
0.422602
0.366048
0.313795
0.265707
0.221608
0.181188
0.144231
0.110692
0.080405
0.0533544
0.0296981
0.00933904
0.951973
0.861083
0.775264
0.694561
0.618971
0.548439
0.482831
0.42194
0.36561
0.313531
0.265562
0.221531
0.181133
0.144164
0.110597
0.0802789
0.0532137
0.0295806
0.00929505
0.951436
0.860074
0.774099
0.693414
0.617937
0.547565
0.482133
0.421409
0.365226
0.313265
0.265384
0.221413
0.181049
0.144093
0.110528
0.0802078
0.0531438
0.0295263
0.00927688
0.951437
0.860078
0.774104
0.69342
0.617944
0.547573
0.48214
0.421417
0.365233
0.313272
0.265391
0.221419
0.181055
0.144098
0.110532
0.080211
0.0531462
0.0295277
0.00927736
0.951977
0.861094
0.77528
0.69458
0.618992
0.548461
0.482855
0.421964
0.365633
0.313553
0.265583
0.221551
0.181151
0.14418
0.11061
0.0802893
0.0532213
0.0295853
0.00929667
0.952558
0.862349
0.776825
0.696151
0.620422
0.54966
0.483789
0.42264
0.366085
0.313831
0.265741
0.221639
0.181216
0.144255
0.110713
0.0804211
0.053366
0.0297051
0.00934145
0.95335
0.864049
0.778919
0.698276
0.622344
0.551248
0.484993
0.423471
0.366591
0.314087
0.265828
0.221634
0.181187
0.144253
0.110762
0.0805256
0.0535051
0.0298296
0.00938735
0.954427
0.866362
0.781768
0.701168
0.624958
0.553404
0.486622
0.424586
0.36726
0.314412
0.265924
0.221609
0.181134
0.144241
0.110825
0.0806658
0.0536924
0.0299981
0.00945217
0.956066
0.869757
0.785899
0.705348
0.628754
0.556576
0.489075
0.426337
0.368399
0.31508
0.266276
0.221796
0.181288
0.144457
0.111142
0.0810754
0.0541331
0.0303599
0.00960058
0.958114
0.874042
0.791154
0.710716
0.633687
0.56076
0.492384
0.428784
0.370094
0.316202
0.267033
0.222399
0.181932
0.14529
0.112234
0.0823973
0.0555271
0.0315227
0.0101282
0.959605
0.876865
0.7941
0.712925
0.634625
0.560164
0.490206
0.42514
0.365205
0.310361
0.260556
0.215594
0.175082
0.138636
0.105965
0.0766993
0.0506411
0.0278829
0.00850731
0.960311
0.877391
0.793268
0.709897
0.628929
0.551661
0.479021
0.411592
0.34973
0.29345
0.242698
0.197246
0.156667
0.120577
0.0887758
0.0611117
0.0377315
0.0190183
0.00509264
0.960882
0.877489
0.791621
0.705618
0.621544
0.541072
0.465444
0.395465
0.331627
0.274006
0.222552
0.17701
0.136953
0.102047
0.0721892
0.047333
0.0276101
0.0130592
0.00321458
0.961542
0.877944
0.79059
0.702184
0.615205
0.531723
0.453314
0.381034
0.315525
0.256944
0.205254
0.160188
0.12132
0.0883239
0.061053
0.0392995
0.0228119
0.0110395
0.00296523
0.962326
0.878752
0.790118
0.699489
0.609769
0.523443
0.442443
0.368089
0.301187
0.241972
0.190419
0.146232
0.108936
0.0781078
0.0534028
0.034295
0.0201182
0.00996704
0.00275099
0.96348
0.880228
0.790469
0.697729
0.605371
0.516319
0.432874
0.356625
0.288546
0.228939
0.177771
0.134678
0.0990703
0.0703411
0.0478731
0.0308268
0.0182638
0.00917023
0.00255933
0.96441
0.88139
0.790519
0.695751
0.600909
0.509347
0.423722
0.345879
0.276934
0.217232
0.1667
0.124861
0.0909609
0.0641654
0.0435886
0.0281569
0.0167969
0.00849997
0.00238749
0.964865
0.881554
0.789329
0.692511
0.595338
0.501553
0.414124
0.335104
0.265706
0.206274
0.156652
0.116216
0.084015
0.0589893
0.0400303
0.0259157
0.0155237
0.00788873
0.00222051
0.964776
0.880305
0.78622
0.687191
0.587813
0.492143
0.403379
0.3237
0.254347
0.195604
0.147192
0.108309
0.0778062
0.0544222
0.0368866
0.0238977
0.0143341
0.00728604
0.00204112
0.963822
0.877004
0.780379
0.678914
0.577476
0.480334
0.390803
0.311083
0.242356
0.18478
0.137911
0.100756
0.0719796
0.0501619
0.0339282
0.021948
0.0131312
0.00663345
0.00182405
0.961984
0.871721
0.77197
0.667919
0.564618
0.466441
0.376703
0.297524
0.229944
0.173935
0.128868
0.0935538
0.0664961
0.0461611
0.031119
0.020044
0.0118995
0.00591599
0.0015579
0.960352
0.867767
0.766466
0.661594
0.558113
0.460273
0.371246
0.293016
0.2265
0.17157
0.127512
0.0930707
0.0667101
0.0468815
0.0321608
0.0212456
0.0131064
0.00693772
0.0020878
0.959379
0.86613
0.765208
0.66147
0.559552
0.463387
0.375893
0.29888
0.233191
0.178686
0.134695
0.100035
0.0732396
0.0528304
0.03744
0.0257858
0.0168055
0.00958639
0.00325421
0.958504
0.86473
0.764283
0.661753
0.561454
0.467
0.381051
0.305247
0.240353
0.186221
0.142228
0.107268
0.0799476
0.0588587
0.0426833
0.0301488
0.0201655
0.0117648
0.00402755
0.957801
0.863649
0.76376
0.662485
0.563812
0.471051
0.386618
0.311991
0.247863
0.194077
0.150057
0.114769
0.0868895
0.0650736
0.0480467
0.0345469
0.0234744
0.0138481
0.0047572
0.957141
0.862651
0.763377
0.663378
0.566317
0.475217
0.392273
0.318815
0.255466
0.202056
0.15805
0.122472
0.0940618
0.0715267
0.0536318
0.0391275
0.0269157
0.0160189
0.0055313
0.956254
0.86147
0.762869
0.664141
0.568652
0.479176
0.397711
0.325447
0.262939
0.209994
0.1661
0.13033
0.10147
0.0782689
0.0595267
0.0440056
0.0306128
0.0183762
0.00638668
0.955588
0.860734
0.762799
0.665223
0.571164
0.483192
0.403135
0.332054
0.270425
0.218022
0.174339
0.138476
0.109251
0.0854438
0.0658775
0.0493223
0.0346876
0.0210046
0.00735431
0.955346
0.860495
0.763084
0.666479
0.573691
0.487125
0.408445
0.338582
0.277921
0.226181
0.182845
0.147021
0.11754
0.0931978
0.0728338
0.0552182
0.0392579
0.0239843
0.00846464
0.954917
0.859776
0.762679
0.666914
0.57536
0.490251
0.413082
0.344628
0.285162
0.234326
0.191568
0.155987
0.126411
0.10164
0.0805201
0.0618165
0.0444296
0.0273895
0.00974739
0.954189
0.858445
0.761452
0.666433
0.576138
0.492618
0.417165
0.350373
0.292374
0.242713
0.20078
0.16565
0.136134
0.111025
0.0891677
0.0693152
0.0503574
0.0313226
0.0112424
0.953413
0.856783
0.759682
0.665357
0.576413
0.494674
0.421188
0.356335
0.300082
0.251855
0.210972
0.176469
0.147129
0.121727
0.0990999
0.0779802
0.0572433
0.0359138
0.012999
0.952433
0.854479
0.757141
0.663627
0.576302
0.496684
0.425528
0.362964
0.308776
0.262256
0.222642
0.188922
0.15984
0.134146
0.110663
0.0880966
0.0653035
0.041303
0.0150705
0.95072
0.85108
0.753644
0.661323
0.5761
0.499102
0.43074
0.370875
0.319093
0.274551
0.236402
0.203581
0.174791
0.148747
0.124256
0.0999922
0.0747867
0.047652
0.0175204
0.948861
0.847691
0.750548
0.659943
0.577366
0.503482
0.438326
0.381483
0.332347
0.289941
0.253338
0.221419
0.19284
0.166277
0.140513
0.114181
0.0860835
0.055217
0.0204513
0.947322
0.845043
0.748857
0.660717
0.581466
0.511242
0.449697
0.396154
0.349836
0.309644
0.274576
0.243467
0.214918
0.18756
0.160149
0.131267
0.099671
0.0643284
0.0240046
0.945351
0.842691
0.748675
0.664158
0.589162
0.523279
0.465818
0.415883
0.372555
0.334638
0.301066
0.270634
0.241886
0.213401
0.183903
0.151905
0.116101
0.0753944
0.0283735
0.943813
0.84263
0.752492
0.672871
0.602994
0.542001
0.488948
0.442779
0.402481
0.366776
0.334551
0.304563
0.275291
0.245252
0.213121
0.177315
0.136416
0.0891989
0.0339379
0.944173
0.847368
0.763077
0.689593
0.625578
0.569895
0.521457
0.479118
0.441809
0.408192
0.377116
0.347301
0.317148
0.285089
0.249724
0.209314
0.162249
0.107037
0.0413706
0.947154
0.858172
0.78183
0.715744
0.658353
0.608434
0.564878
0.526509
0.492244
0.460702
0.4307
0.400924
0.369676
0.335267
0.296173
0.250402
0.195996
0.130936
0.0518495
0.953511
0.875985
0.809648
0.752208
0.702254
0.658664
0.620408
0.586336
0.555388
0.526161
0.497449
0.467904
0.435701
0.398982
0.356019
0.304397
0.241541
0.164423
0.0677042
0.963135
0.900335
0.845932
0.798453
0.756935
0.720493
0.688255
0.659152
0.63219
0.605977
0.579306
0.550805
0.518504
0.480321
0.434201
0.377058
0.305229
0.213807
0.0938706
0.974852
0.929218
0.888519
0.852462
0.820658
0.792532
0.767431
0.744425
0.722652
0.700798
0.677716
0.652063
0.621753
0.584456
0.537676
0.477314
0.397901
0.291161
0.141762
0.986799
0.959609
0.93417
0.911142
0.890617
0.872325
0.855866
0.840542
0.825725
0.810322
0.793389
0.773768
0.749444
0.718002
0.676524
0.61966
0.539257
0.421389
0.239719
0.996942
0.988193
0.97931
0.971023
0.963557
0.95686
0.950806
0.94507
0.939406
0.933236
0.926108
0.9174
0.905796
0.889516
0.865855
0.828869
0.767552
0.659925
0.461926
)
;

boundaryField
{
    up
    {
        type            fixedValue;
        value           uniform 0;
    }
    low
    {
        type            fixedValue;
        value           uniform 1;
    }
    left
    {
        type            fixedValue;
        value           uniform 1;
    }
    right
    {
        type            fixedValue;
        value           uniform 1;
    }
    frontAndBackPlanes
    {
        type            empty;
    }
}


// ************************************************************************* //
