/*--------------------------------*- C++ -*----------------------------------*\
  =========                 |
  \\      /  F ield         | OpenFOAM: The Open Source CFD Toolbox
   \\    /   O peration     | Website:  https://openfoam.org
    \\  /    A nd           | Version:  7
     \\/     M anipulation  |
\*---------------------------------------------------------------------------*/
FoamFile
{
    version     2.0;
    format      ascii;
    class       volScalarField;
    location    "0.311";
    object      gradTy;
}
// * * * * * * * * * * * * * * * * * * * * * * * * * * * * * * * * * * * * * //

dimensions      [0 -1 0 1 0 0 0];

internalField   nonuniform List<scalar> 
1596
(
-0.0781773
-0.145702
-0.20209
-0.257704
-0.312934
-0.374872
-0.44103
-0.519641
-0.614334
-0.727797
-0.882642
-1.07939
-1.34978
-1.73193
-2.3214
-3.23648
-4.86604
-7.86815
-18.5874
-0.238431
-0.295425
-0.336362
-0.376391
-0.417418
-0.46705
-0.523085
-0.592877
-0.679664
-0.78421
-0.925081
-1.10064
-1.33196
-1.6364
-2.06283
-2.63656
-3.4871
-4.736
-8.28056
-0.427248
-0.448294
-0.46409
-0.484453
-0.509061
-0.544271
-0.587341
-0.644508
-0.718012
-0.807281
-0.92729
-1.0743
-1.26268
-1.50045
-1.81712
-2.21709
-2.7706
-3.52916
-5.1589
-0.625764
-0.597591
-0.582806
-0.580912
-0.587602
-0.606885
-0.635224
-0.677517
-0.735038
-0.806346
-0.903414
-1.02138
-1.1702
-1.35311
-1.58864
-1.87318
-2.24783
-2.73422
-3.56956
-0.809596
-0.734796
-0.689861
-0.665546
-0.65408
-0.656929
-0.669907
-0.696536
-0.737331
-0.790392
-0.865231
-0.956752
-1.07197
-1.21177
-1.38827
-1.5953
-1.85844
-2.18588
-2.66486
-0.956451
-0.851623
-0.782832
-0.738674
-0.710311
-0.697321
-0.695319
-0.706595
-0.731162
-0.766982
-0.821546
-0.890086
-0.977617
-1.08393
-1.21719
-1.37092
-1.56177
-1.79175
-2.09441
-1.05392
-0.941518
-0.859349
-0.800461
-0.757969
-0.7308
-0.715021
-0.712006
-0.721534
-0.741668
-0.778251
-0.827146
-0.891964
-0.972026
-1.07296
-1.18883
-1.33075
-1.49799
-1.70394
-1.10141
-1.00038
-0.916556
-0.849816
-0.797308
-0.758627
-0.730987
-0.715294
-0.711367
-0.71756
-0.738412
-0.770544
-0.816569
-0.875672
-0.951765
-1.03974
-1.14712
-1.27202
-1.41979
-1.10782
-1.03238
-0.957144
-0.889449
-0.831348
-0.784141
-0.746731
-0.720056
-0.704238
-0.69807
-0.705129
-0.722799
-0.752999
-0.794932
-0.851334
-0.917898
-0.999716
-1.09452
-1.20417
-1.0808
-1.03321
-0.973477
-0.911606
-0.853195
-0.801516
-0.757356
-0.722146
-0.696537
-0.679885
-0.675155
-0.68046
-0.697291
-0.724972
-0.765478
-0.815235
-0.877739
-0.950681
-1.03432
-1.04584
-1.01841
-0.974547
-0.921803
-0.866741
-0.813877
-0.765614
-0.724076
-0.690578
-0.66512
-0.650344
-0.645045
-0.650475
-0.66613
-0.693491
-0.729599
-0.776867
-0.833089
-0.897768
-1.00164
-0.99506
-0.966833
-0.924511
-0.874908
-0.823148
-0.772818
-0.726732
-0.686898
-0.653992
-0.630555
-0.616017
-0.611536
-0.616818
-0.633029
-0.657738
-0.692613
-0.735621
-0.785923
-0.946306
-0.958414
-0.945624
-0.914772
-0.872466
-0.824083
-0.773917
-0.725384
-0.681113
-0.642421
-0.611929
-0.589644
-0.576771
-0.573253
-0.58011
-0.595372
-0.620238
-0.652878
-0.692297
-0.896367
-0.919385
-0.918949
-0.898743
-0.864112
-0.820184
-0.771523
-0.721969
-0.674654
-0.631458
-0.595189
-0.566367
-0.546326
-0.535258
-0.534147
-0.541411
-0.557964
-0.582175
-0.613009
-0.849582
-0.881215
-0.890419
-0.879362
-0.852007
-0.812882
-0.76648
-0.716868
-0.667543
-0.620859
-0.579847
-0.545486
-0.519287
-0.5017
-0.49374
-0.494172
-0.503742
-0.521014
-0.544979
-0.803479
-0.843166
-0.860546
-0.857375
-0.836676
-0.802353
-0.758641
-0.709669
-0.659171
-0.609869
-0.565025
-0.526018
-0.49456
-0.47136
-0.457516
-0.452106
-0.455801
-0.46735
-0.485795
-0.761399
-0.806513
-0.830532
-0.83406
-0.819254
-0.789449
-0.748541
-0.700618
-0.649542
-0.598311
-0.550391
-0.507502
-0.471562
-0.443524
-0.424605
-0.414173
-0.412892
-0.419688
-0.433663
-0.724259
-0.772979
-0.802198
-0.811295
-0.801572
-0.775799
-0.737543
-0.690781
-0.639441
-0.586725
-0.536264
-0.490069
-0.450244
-0.417962
-0.394576
-0.379732
-0.374147
-0.376925
-0.387232
-0.68728
-0.742273
-0.776794
-0.790945
-0.785742
-0.763545
-0.727663
-0.681962
-0.630409
-0.576384
-0.523648
-0.474471
-0.431111
-0.394936
-0.367425
-0.348492
-0.338974
-0.338192
-0.345404
-0.649631
-0.711613
-0.751924
-0.77111
-0.770206
-0.751382
-0.717778
-0.673178
-0.621585
-0.566521
-0.511864
-0.460096
-0.413606
-0.373902
-0.342563
-0.319739
-0.30647
-0.302399
-0.306971
-0.617443
-0.683894
-0.729462
-0.753448
-0.756574
-0.740855
-0.709322
-0.665725
-0.614106
-0.55812
-0.501746
-0.44765
-0.398317
-0.35534
-0.320321
-0.293548
-0.276295
-0.268707
-0.270736
-0.589143
-0.659665
-0.709978
-0.738477
-0.745414
-0.732596
-0.702976
-0.660299
-0.608658
-0.55183
-0.493894
-0.437672
-0.385739
-0.339719
-0.301136
-0.270204
-0.24827
-0.236093
-0.234885
-0.563426
-0.638592
-0.693573
-0.726387
-0.736942
-0.726863
-0.699047
-0.657256
-0.605642
-0.548083
-0.488743
-0.430592
-0.376296
-0.327516
-0.285623
-0.250466
-0.222918
-0.203693
-0.196232
-0.54095
-0.620882
-0.68021
-0.71666
-0.730008
-0.721729
-0.694856
-0.653149
-0.600885
-0.542113
-0.480857
-0.420467
-0.363663
-0.312231
-0.267353
-0.22856
-0.195342
-0.16624
-0.140483
-0.523138
-0.607526
-0.671854
-0.713461
-0.732138
-0.729061
-0.707236
-0.670074
-0.621631
-0.565907
-0.506355
-0.446597
-0.389226
-0.336499
-0.289725
-0.248979
-0.212946
-0.179097
-0.142836
-0.511221
-0.598216
-0.665086
-0.709668
-0.731797
-0.73252
-0.714691
-0.681445
-0.636516
-0.58367
-0.525778
-0.466401
-0.408055
-0.353323
-0.304002
-0.261287
-0.224579
-0.192821
-0.163493
-0.511753
-0.599398
-0.667267
-0.713491
-0.73793
-0.741733
-0.727556
-0.698403
-0.657677
-0.608726
-0.553995
-0.496471
-0.438389
-0.382388
-0.330793
-0.285593
-0.247071
-0.214811
-0.186854
-0.52619
-0.612389
-0.679146
-0.724943
-0.749794
-0.75505
-0.743283
-0.71743
-0.680623
-0.635811
-0.584948
-0.530299
-0.47349
-0.41685
-0.363002
-0.314745
-0.273402
-0.239298
-0.210826
-0.553315
-0.636959
-0.700782
-0.7443
-0.767886
-0.773156
-0.762688
-0.739385
-0.706173
-0.665674
-0.619364
-0.568746
-0.514542
-0.458303
-0.402468
-0.350542
-0.305136
-0.267753
-0.237272
-0.592658
-0.671337
-0.730346
-0.769989
-0.790946
-0.795088
-0.785053
-0.763718
-0.733854
-0.697874
-0.656871
-0.611717
-0.562082
-0.508231
-0.451597
-0.39584
-0.344924
-0.302351
-0.268132
-0.643945
-0.715166
-0.768056
-0.802686
-0.820006
-0.822148
-0.811844
-0.791927
-0.765063
-0.733581
-0.698378
-0.660031
-0.617328
-0.568992
-0.514393
-0.456002
-0.398217
-0.347382
-0.306405
-0.700663
-0.765486
-0.811819
-0.840663
-0.853617
-0.853125
-0.842019
-0.823052
-0.798784
-0.771558
-0.742284
-0.711747
-0.678481
-0.640116
-0.593356
-0.537587
-0.474452
-0.411611
-0.357752
-0.766372
-0.823475
-0.86199
-0.884004
-0.89177
-0.887985
-0.8755
-0.856894
-0.834562
-0.810854
-0.786783
-0.763784
-0.741064
-0.716654
-0.685762
-0.644562
-0.587707
-0.516803
-0.435367
-0.84396
-0.891055
-0.920386
-0.934815
-0.937097
-0.930056
-0.916384
-0.898405
-0.878251
-0.858139
-0.839254
-0.823602
-0.811758
-0.803942
-0.797416
-0.789629
-0.77222
-0.73996
-0.687086
-0.931549
-0.966475
-0.983932
-0.988205
-0.982463
-0.969546
-0.951721
-0.930989
-0.909043
-0.887508
-0.867524
-0.850586
-0.837746
-0.830347
-0.828942
-0.835244
-0.847645
-0.864283
-0.881145
-1.03166
-1.0494
-1.05217
-1.04471
-1.03
-1.01058
-0.988207
-0.964558
-0.940957
-0.918489
-0.898325
-0.881233
-0.868037
-0.8594
-0.856071
-0.858824
-0.868835
-0.887314
-0.916019
-1.14307
-1.13892
-1.12578
-1.10671
-1.0837
-1.05857
-1.03252
-1.00682
-0.982447
-0.960131
-0.940822
-0.924857
-0.912665
-0.904281
-0.899698
-0.898121
-0.899159
-0.90161
-0.904632
-1.2476
-1.22173
-1.19303
-1.16259
-1.13132
-1.10025
-1.07006
-1.04154
-1.01531
-0.991806
-0.971594
-0.95479
-0.941496
-0.931528
-0.924669
-0.920231
-0.917846
-0.916783
-0.916545
-1.33502
-1.29248
-1.25107
-1.21107
-1.17276
-1.13657
-1.10276
-1.07172
-1.04377
-1.01909
-0.997999
-0.980488
-0.966499
-0.955792
-0.948105
-0.942874
-0.939721
-0.938054
-0.937392
-1.4059
-1.34972
-1.29796
-1.2502
-1.2062
-1.16586
-1.1291
-1.09598
-1.06658
-1.04092
-1.01912
-1.00112
-0.986747
-0.975748
-0.967825
-0.962477
-0.959287
-0.957718
-0.957281
-1.45769
-1.39108
-1.33143
-1.2779
-1.22975
-1.18643
-1.14759
-1.113
-1.0826
-1.05629
-1.03405
-1.01579
-1.00129
-0.99026
-0.982375
-0.97715
-0.974102
-0.972696
-0.972402
-1.49032
-1.41441
-1.34928
-1.29228
-1.24182
-1.19693
-1.15701
-1.12169
-1.0908
-1.06417
-1.04175
-1.02341
-1.00891
-0.997965
-0.990243
-0.985287
-0.982602
-0.981666
-0.981935
-1.49033
-1.41442
-1.3493
-1.2923
-1.24184
-1.19695
-1.15703
-1.12171
-1.09082
-1.06419
-1.04177
-1.02343
-1.00893
-0.997987
-0.990265
-0.98531
-0.982625
-0.98169
-0.981959
-1.4577
-1.39111
-1.33147
-1.27794
-1.22979
-1.18648
-1.14764
-1.11306
-1.08266
-1.05634
-1.0341
-1.01585
-1.00135
-0.990322
-0.98244
-0.97722
-0.974178
-0.972778
-0.972493
-1.40592
-1.34977
-1.29802
-1.25027
-1.20628
-1.16594
-1.12919
-1.09606
-1.06667
-1.04101
-1.01921
-1.00121
-0.986844
-0.975848
-0.967929
-0.962587
-0.959403
-0.957842
-0.957413
-1.33504
-1.29254
-1.25115
-1.21116
-1.17286
-1.13667
-1.10287
-1.07183
-1.04388
-1.01921
-0.998116
-0.980606
-0.966619
-0.955913
-0.948228
-0.942998
-0.939848
-0.938184
-0.937524
-1.24763
-1.2218
-1.19312
-1.1627
-1.13144
-1.10037
-1.07019
-1.04167
-1.01545
-0.991945
-0.971735
-0.954931
-0.941638
-0.931669
-0.924809
-0.920368
-0.91798
-0.916915
-0.916674
-1.14311
-1.139
-1.12587
-1.10683
-1.08383
-1.05871
-1.03267
-1.00697
-0.9826
-0.960287
-0.940981
-0.925017
-0.912822
-0.904432
-0.899836
-0.898243
-0.899257
-0.901681
-0.904675
-1.0317
-1.04948
-1.05229
-1.04486
-1.03017
-1.01078
-0.988427
-0.9648
-0.941223
-0.918779
-0.898643
-0.88158
-0.868416
-0.859809
-0.856502
-0.85925
-0.869207
-0.887543
-0.915977
-0.931572
-0.96649
-0.983949
-0.988224
-0.982482
-0.969561
-0.951729
-0.930985
-0.909023
-0.887461
-0.867443
-0.850455
-0.837548
-0.830059
-0.828556
-0.834774
-0.847185
-0.864021
-0.88139
-0.843971
-0.891094
-0.920453
-0.934914
-0.937231
-0.930226
-0.91659
-0.898649
-0.878531
-0.858455
-0.839609
-0.824001
-0.812217
-0.804498
-0.798133
-0.790607
-0.773586
-0.741822
-0.689508
-0.766377
-0.823481
-0.862008
-0.88404
-0.891828
-0.888066
-0.875604
-0.857021
-0.834713
-0.811028
-0.786984
-0.764022
-0.741358
-0.717035
-0.686264
-0.645207
-0.588464
-0.517566
-0.435935
-0.700666
-0.765487
-0.811829
-0.840691
-0.853668
-0.8532
-0.842122
-0.823182
-0.798942
-0.771746
-0.742508
-0.712017
-0.678811
-0.640522
-0.593838
-0.538121
-0.474981
-0.412069
-0.358116
-0.643945
-0.715161
-0.768058
-0.802702
-0.820045
-0.822212
-0.811935
-0.792048
-0.765214
-0.733765
-0.6986
-0.660298
-0.617645
-0.569359
-0.514794
-0.456405
-0.398585
-0.347696
-0.306668
-0.592658
-0.671329
-0.730342
-0.769998
-0.790974
-0.795142
-0.785135
-0.763829
-0.733997
-0.69805
-0.657083
-0.611967
-0.562369
-0.508545
-0.45192
-0.396147
-0.345199
-0.302589
-0.268341
-0.553313
-0.636948
-0.700772
-0.744301
-0.767906
-0.7732
-0.762759
-0.739486
-0.706304
-0.665838
-0.61956
-0.568972
-0.514793
-0.458566
-0.402728
-0.350784
-0.305353
-0.267946
-0.237451
-0.526189
-0.612377
-0.679134
-0.724939
-0.749808
-0.755086
-0.743345
-0.717521
-0.680743
-0.63596
-0.585124
-0.530498
-0.473705
-0.417069
-0.363214
-0.314941
-0.27358
-0.239463
-0.210988
-0.511751
-0.599386
-0.667253
-0.713484
-0.737939
-0.741763
-0.727609
-0.698483
-0.657784
-0.608859
-0.55415
-0.496644
-0.438571
-0.38257
-0.330968
-0.285755
-0.247222
-0.21496
-0.187013
-0.511218
-0.598202
-0.665068
-0.709653
-0.731791
-0.732528
-0.714717
-0.68149
-0.636581
-0.583753
-0.525875
-0.466508
-0.408165
-0.35343
-0.3041
-0.261377
-0.224667
-0.192923
-0.163643
-0.523152
-0.607536
-0.671864
-0.713477
-0.732162
-0.729097
-0.707286
-0.67014
-0.621714
-0.566007
-0.506468
-0.446722
-0.389358
-0.336635
-0.289861
-0.249114
-0.213076
-0.179218
-0.142939
-0.540964
-0.620897
-0.680222
-0.716666
-0.730006
-0.721719
-0.694837
-0.653122
-0.600851
-0.542073
-0.480812
-0.420419
-0.363612
-0.31218
-0.2673
-0.228504
-0.195281
-0.166173
-0.140403
-0.563436
-0.638602
-0.693582
-0.726396
-0.736949
-0.726867
-0.699049
-0.657257
-0.605641
-0.548082
-0.488741
-0.43059
-0.376295
-0.327515
-0.285623
-0.250467
-0.222921
-0.203699
-0.19624
-0.589152
-0.659672
-0.709983
-0.738481
-0.745415
-0.732595
-0.702974
-0.660295
-0.608653
-0.551825
-0.493888
-0.437668
-0.385735
-0.339716
-0.301134
-0.270204
-0.248272
-0.236097
-0.234889
-0.61745
-0.6839
-0.729466
-0.753451
-0.756575
-0.740854
-0.709319
-0.665721
-0.614102
-0.558115
-0.501742
-0.447646
-0.398315
-0.355338
-0.32032
-0.293549
-0.276297
-0.26871
-0.270739
-0.649637
-0.711617
-0.751927
-0.771111
-0.770206
-0.75138
-0.717775
-0.673175
-0.621582
-0.566518
-0.511861
-0.460094
-0.413604
-0.373901
-0.342563
-0.31974
-0.306471
-0.302401
-0.306973
-0.687284
-0.742276
-0.776796
-0.790945
-0.785742
-0.763543
-0.727661
-0.681959
-0.630406
-0.576381
-0.523646
-0.474469
-0.43111
-0.394936
-0.367425
-0.348493
-0.338975
-0.338193
-0.345405
-0.724262
-0.772981
-0.802199
-0.811295
-0.801571
-0.775798
-0.737541
-0.690779
-0.639439
-0.586723
-0.536262
-0.490068
-0.450244
-0.417962
-0.394577
-0.379732
-0.374147
-0.376925
-0.387233
-0.761401
-0.806514
-0.830532
-0.83406
-0.819253
-0.789447
-0.748539
-0.700617
-0.649541
-0.59831
-0.55039
-0.507502
-0.471562
-0.443523
-0.424605
-0.414173
-0.412892
-0.419688
-0.433663
-0.80348
-0.843167
-0.860546
-0.857375
-0.836675
-0.802352
-0.75864
-0.709668
-0.65917
-0.609869
-0.565025
-0.526018
-0.49456
-0.47136
-0.457516
-0.452106
-0.4558
-0.467349
-0.485794
-0.849582
-0.881214
-0.890418
-0.879361
-0.852007
-0.812881
-0.76648
-0.716868
-0.667543
-0.620858
-0.579846
-0.545486
-0.519286
-0.501699
-0.49374
-0.494171
-0.503741
-0.521013
-0.544978
-0.896366
-0.919385
-0.918949
-0.898743
-0.864112
-0.820184
-0.771523
-0.721969
-0.674653
-0.631458
-0.595189
-0.566367
-0.546325
-0.535257
-0.534146
-0.54141
-0.557963
-0.582173
-0.613007
-0.946305
-0.958414
-0.945624
-0.914772
-0.872467
-0.824083
-0.773918
-0.725385
-0.681113
-0.642421
-0.611929
-0.589644
-0.576771
-0.573252
-0.58011
-0.59537
-0.620236
-0.652876
-0.692295
-1.00164
-0.995059
-0.966833
-0.924511
-0.874908
-0.823148
-0.772818
-0.726732
-0.686897
-0.653992
-0.630555
-0.616016
-0.611535
-0.616817
-0.633028
-0.657737
-0.692611
-0.735619
-0.785922
-1.04584
-1.01841
-0.974548
-0.921804
-0.866742
-0.813878
-0.765615
-0.724077
-0.690579
-0.665121
-0.650344
-0.645045
-0.650474
-0.666129
-0.693489
-0.729597
-0.776865
-0.833087
-0.897767
-1.0808
-1.03321
-0.973479
-0.911608
-0.853196
-0.801517
-0.757357
-0.722147
-0.696538
-0.679885
-0.675154
-0.68046
-0.69729
-0.72497
-0.765477
-0.815233
-0.877737
-0.95068
-1.03432
-1.10782
-1.03239
-0.957146
-0.889451
-0.83135
-0.784142
-0.746732
-0.720057
-0.704239
-0.69807
-0.705129
-0.722799
-0.752998
-0.794931
-0.851333
-0.917896
-0.999715
-1.09452
-1.20417
-1.10141
-1.00039
-0.916558
-0.849818
-0.79731
-0.758628
-0.730988
-0.715294
-0.711368
-0.717559
-0.738412
-0.770543
-0.816568
-0.875671
-0.951764
-1.03974
-1.14711
-1.27202
-1.41979
-1.05392
-0.941522
-0.859351
-0.800463
-0.75797
-0.730801
-0.715022
-0.712007
-0.721535
-0.741668
-0.778251
-0.827145
-0.891963
-0.972025
-1.07296
-1.18883
-1.33075
-1.49799
-1.70394
-0.956455
-0.851626
-0.782834
-0.738676
-0.710312
-0.697322
-0.695319
-0.706595
-0.731162
-0.766982
-0.821546
-0.890085
-0.977616
-1.08392
-1.21719
-1.37092
-1.56177
-1.79176
-2.09441
-0.8096
-0.734799
-0.689863
-0.665548
-0.654081
-0.65693
-0.669908
-0.696537
-0.737331
-0.790392
-0.865231
-0.956751
-1.07197
-1.21177
-1.38827
-1.5953
-1.85844
-2.18588
-2.66486
-0.625768
-0.597593
-0.582808
-0.580914
-0.587603
-0.606887
-0.635225
-0.677518
-0.735038
-0.806346
-0.903414
-1.02138
-1.1702
-1.35311
-1.58864
-1.87318
-2.24783
-2.73422
-3.56956
-0.42725
-0.448296
-0.464091
-0.484454
-0.509062
-0.544272
-0.587342
-0.644508
-0.718012
-0.807281
-0.92729
-1.0743
-1.26268
-1.50045
-1.81712
-2.21709
-2.7706
-3.52916
-5.1589
-0.238433
-0.295425
-0.336363
-0.376392
-0.417418
-0.46705
-0.523086
-0.592878
-0.679664
-0.78421
-0.925081
-1.10064
-1.33196
-1.6364
-2.06283
-2.63656
-3.4871
-4.736
-8.28056
-0.0781777
-0.145702
-0.20209
-0.257704
-0.312934
-0.374873
-0.44103
-0.519641
-0.614334
-0.727796
-0.882642
-1.07939
-1.34978
-1.73193
-2.3214
-3.23648
-4.86604
-7.86815
-18.5874
)
;

boundaryField
{
    up
    {
        type            calculated;
        value           nonuniform List<scalar> 
84
(
-16.8436
-9.12235
-5.60071
-3.82622
-2.82833
-2.20627
-1.7846
-1.48022
-1.2505
-1.07065
-0.926523
-0.808809
-0.710698
-0.627823
-0.556908
-0.495402
-0.441389
-0.393423
-0.350333
-0.310903
-0.273843
-0.236988
-0.194836
-0.126504
-0.122846
-0.15484
-0.178771
-0.20245
-0.228136
-0.257707
-0.293467
-0.338226
-0.405291
-0.685819
-0.910583
-0.933922
-0.904912
-0.916046
-0.936956
-0.957122
-0.972414
-0.982314
-0.982337
-0.972509
-0.957258
-0.937091
-0.916177
-0.904948
-0.933658
-0.91086
-0.688671
-0.405816
-0.338546
-0.293715
-0.257911
-0.228313
-0.202613
-0.178935
-0.155049
-0.122985
-0.126421
-0.194845
-0.236993
-0.273846
-0.310905
-0.350334
-0.393423
-0.441389
-0.495402
-0.556907
-0.627822
-0.710697
-0.808808
-0.926524
-1.07065
-1.2505
-1.48022
-1.7846
-2.20627
-2.82833
-3.82622
-5.60071
-9.12235
-16.8436
)
;
    }
    low
    {
        type            calculated;
        value           nonuniform List<scalar> 
84
(
-0.0838021
-0.248798
-0.44993
-0.664248
-0.863185
-1.02036
-1.12049
-1.16376
-1.15782
-1.11462
-1.07094
-1.01821
-0.95131
-0.894891
-0.844326
-0.793239
-0.746896
-0.708536
-0.669127
-0.625898
-0.589513
-0.558063
-0.528471
-0.502347
-0.477935
-0.4632
-0.464257
-0.483266
-0.516278
-0.56316
-0.621123
-0.682267
-0.753336
-0.837423
-0.930542
-1.03827
-1.16058
-1.27246
-1.36467
-1.43972
-1.49488
-1.53183
-1.53184
-1.49489
-1.43973
-1.36468
-1.27248
-1.1606
-1.0383
-0.930538
-0.837435
-0.753331
-0.682266
-0.621122
-0.56316
-0.516277
-0.483268
-0.464261
-0.463206
-0.477944
-0.502366
-0.528477
-0.558072
-0.58952
-0.625904
-0.669131
-0.708539
-0.746899
-0.79324
-0.844326
-0.894889
-0.951308
-1.0182
-1.07094
-1.11462
-1.15782
-1.16376
-1.12049
-1.02036
-0.86319
-0.664253
-0.449933
-0.2488
-0.0838026
)
;
    }
    left
    {
        type            calculated;
        value           nonuniform List<scalar> 
19
(
-0.076663
-0.142905
-0.200306
-0.257625
-0.31499
-0.379304
-0.448267
-0.530562
-0.629993
-0.75058
-0.916063
-1.12809
-1.42273
-1.84564
-2.50408
-3.54303
-5.41528
-8.90586
-17.4708
)
;
    }
    right
    {
        type            calculated;
        value           nonuniform List<scalar> 
19
(
-0.0766634
-0.142906
-0.200306
-0.257626
-0.31499
-0.379304
-0.448267
-0.530562
-0.629992
-0.75058
-0.916062
-1.12809
-1.42273
-1.84563
-2.50407
-3.54303
-5.41528
-8.90586
-17.4708
)
;
    }
    frontAndBackPlanes
    {
        type            empty;
    }
}


// ************************************************************************* //
