/*--------------------------------*- C++ -*----------------------------------*\
  =========                 |
  \\      /  F ield         | OpenFOAM: The Open Source CFD Toolbox
   \\    /   O peration     | Website:  https://openfoam.org
    \\  /    A nd           | Version:  7
     \\/     M anipulation  |
\*---------------------------------------------------------------------------*/
FoamFile
{
    version     2.0;
    format      ascii;
    class       volScalarField;
    location    "0.25";
    object      gradTy;
}
// * * * * * * * * * * * * * * * * * * * * * * * * * * * * * * * * * * * * * //

dimensions      [0 -1 0 1 0 0 0];

internalField   nonuniform List<scalar> 
1596
(
-0.176082
-0.327305
-0.451771
-0.57211
-0.688601
-0.816394
-0.949384
-1.10496
-1.29022
-1.51038
-1.81236
-2.1965
-2.72767
-3.48283
-4.65415
-6.47842
-9.73399
-15.7366
-37.1749
-0.536495
-0.662216
-0.748775
-0.829916
-0.909742
-1.005
-1.11062
-1.24251
-1.40733
-1.60654
-1.87911
-2.22107
-2.67572
-3.27801
-4.12639
-5.27095
-6.97121
-9.46951
-16.56
-0.960406
-1.00343
-1.03056
-1.06395
-1.10308
-1.16225
-1.23552
-1.33669
-1.47061
-1.6361
-1.86505
-2.14925
-2.5185
-2.98884
-3.61983
-4.41933
-5.52823
-7.04851
-10.3119
-1.40513
-1.33608
-1.29216
-1.27279
-1.26884
-1.28963
-1.32771
-1.39418
-1.49204
-1.61843
-1.79923
-2.02401
-2.31368
-2.67462
-3.14444
-3.71471
-4.46805
-5.44645
-7.12368
-1.81585
-1.64133
-1.52816
-1.45657
-1.40994
-1.39214
-1.39445
-1.42511
-1.48567
-1.57239
-1.70616
-1.87616
-2.09738
-2.37149
-2.72333
-3.13922
-3.67085
-4.33319
-5.3
-2.14288
-1.90089
-1.73348
-1.61634
-1.5307
-1.47639
-1.44438
-1.44034
-1.46486
-1.51394
-1.60439
-1.72611
-1.89009
-2.09582
-2.36033
-2.66929
-3.05665
-3.52502
-4.14073
-2.35902
-2.10033
-1.90288
-1.75241
-1.63467
-1.54817
-1.485
-1.44891
-1.44008
-1.45476
-1.50638
-1.58624
-1.70246
-1.85368
-2.05189
-2.28394
-2.5728
-2.91565
-3.33855
-2.46366
-2.23073
-2.0299
-1.86206
-1.72197
-1.60973
-1.52006
-1.45576
-1.41716
-1.40121
-1.41859
-1.46227
-1.53835
-1.64525
-1.79158
-1.96596
-2.18426
-2.4415
-2.74767
-2.47731
-2.30163
-2.12042
-1.95088
-1.79863
-1.6676
-1.55631
-1.46771
-1.40286
-1.3597
-1.34687
-1.35903
-1.40084
-1.47084
-1.57529
-1.70457
-1.86974
-2.06517
-2.29396
-2.4174
-2.30365
-2.15737
-2.00137
-1.84897
-1.70848
-1.58262
-1.47546
-1.38926
-1.32323
-1.28467
-1.26987
-1.28256
-1.32157
-1.39163
-1.4848
-1.6089
-1.75843
-1.93341
-2.34092
-2.27148
-2.16055
-2.02521
-1.88073
-1.73812
-1.60365
-1.48295
-1.37977
-1.29474
-1.23442
-1.19661
-1.18449
-1.1973
-1.2387
-1.30218
-1.39333
-1.50706
-1.64198
-2.2449
-2.22111
-2.14467
-2.03255
-1.90044
-1.76064
-1.62201
-1.49173
-1.37507
-1.27417
-1.1953
-1.13765
-1.10415
-1.09446
-1.11155
-1.15014
-1.21421
-1.29922
-1.40317
-2.12491
-2.14197
-2.09939
-2.01258
-1.89671
-1.76464
-1.62678
-1.49163
-1.36583
-1.25293
-1.15931
-1.08539
-1.03411
-1.0056
-1.00243
-1.02038
-1.0624
-1.12451
-1.20451
-2.01759
-2.05819
-2.04239
-1.97872
-1.87959
-1.75734
-1.62299
-1.48602
-1.35417
-1.23222
-1.12688
-1.03964
-0.973603
-0.929366
-0.909302
-0.910058
-0.933889
-0.977353
-1.03825
-1.91768
-1.97689
-1.98176
-1.93764
-1.85401
-1.74201
-1.61255
-1.47569
-1.34
-1.21127
-1.09665
-0.998545
-0.920324
-0.863016
-0.828905
-0.815376
-0.824214
-0.852468
-0.898058
-1.81936
-1.89628
-1.91864
-1.89112
-1.82135
-1.71926
-1.59533
-1.45987
-1.32203
-1.18843
-1.06665
-0.959875
-0.871772
-0.803771
-0.758149
-0.7329
-0.729507
-0.745451
-0.778817
-1.7299
-1.81898
-1.85553
-1.84193
-1.7841
-1.69098
-1.57251
-1.43908
-1.3002
-1.16317
-1.03594
-0.922367
-0.826391
-0.749792
-0.694874
-0.660137
-0.64687
-0.652927
-0.676558
-1.65119
-1.74864
-1.79636
-1.79415
-1.74631
-1.6608
-1.54712
-1.41564
-1.27618
-1.13653
-1.00503
-0.88604
-0.78376
-0.700247
-0.637826
-0.595413
-0.574179
-0.572301
-0.588178
-1.57221
-1.68451
-1.74391
-1.75203
-1.71282
-1.63366
-1.52381
-1.39367
-1.2534
-1.11129
-0.975968
-0.852304
-0.744674
-0.655348
-0.586642
-0.537801
-0.509939
-0.501545
-0.511169
-1.49091
-1.6201
-1.69265
-1.71127
-1.68023
-1.60683
-1.50035
-1.37135
-1.23034
-1.0861
-0.947569
-0.820044
-0.708048
-0.613971
-0.540065
-0.485802
-0.452317
-0.438481
-0.443083
-1.42118
-1.56171
-1.64642
-1.67518
-1.65176
-1.58342
-1.47963
-1.35126
-1.20924
-1.06286
-0.921375
-0.790469
-0.674773
-0.576707
-0.498346
-0.439209
-0.400459
-0.381507
-0.381741
-1.35937
-1.51046
-1.60634
-1.64473
-1.62849
-1.56471
-1.4631
-1.33493
-1.19162
-1.04303
-0.898687
-0.764692
-0.645761
-0.544281
-0.462012
-0.398218
-0.353847
-0.328918
-0.324321
-1.30249
-1.46544
-1.5724
-1.6201
-1.61069
-1.55111
-1.45134
-1.32313
-1.17842
-1.02759
-0.880517
-0.743666
-0.621867
-0.517488
-0.431901
-0.36372
-0.312955
-0.279293
-0.266299
-1.25202
-1.42692
-1.54419
-1.59971
-1.59542
-1.53814
-1.43854
-1.30878
-1.16147
-1.00771
-0.857258
-0.717368
-0.592862
-0.4862
-0.398272
-0.327126
-0.270572
-0.225123
-0.188265
-1.21134
-1.39733
-1.52665
-1.59406
-1.60132
-1.55447
-1.46417
-1.34196
-1.20027
-1.05036
-0.901192
-0.760783
-0.633859
-0.523784
-0.431742
-0.356718
-0.295379
-0.242824
-0.191287
-1.18334
-1.37586
-1.5119
-1.58712
-1.60313
-1.56538
-1.48401
-1.36982
-1.23463
-1.08942
-0.942252
-0.801345
-0.671492
-0.556751
-0.459167
-0.379482
-0.315354
-0.263913
-0.220181
-1.1829
-1.37652
-1.51497
-1.59444
-1.61637
-1.58609
-1.51297
-1.40731
-1.28008
-1.14148
-0.9989
-0.85978
-0.728663
-0.609928
-0.506643
-0.420974
-0.351966
-0.297746
-0.25407
-1.2132
-1.40219
-1.53743
-1.61591
-1.63924
-1.61286
-1.5456
-1.44721
-1.32785
-1.19683
-1.06056
-0.925382
-0.794958
-0.673385
-0.564409
-0.471742
-0.396162
-0.337035
-0.290595
-1.27109
-1.4522
-1.57952
-1.65244
-1.67325
-1.64763
-1.58404
-1.49172
-1.38002
-1.25734
-1.12907
-1.00021
-0.872999
-0.750432
-0.636163
-0.535346
-0.450992
-0.384514
-0.332878
-1.35503
-1.52235
-1.63724
-1.70089
-1.71614
-1.68892
-1.62742
-1.54032
-1.43621
-1.32272
-1.20425
-1.08463
-0.964295
-0.844235
-0.726628
-0.61721
-0.521435
-0.44422
-0.3844
-1.46382
-1.61163
-1.71116
-1.76308
-1.7707
-1.74015
-1.67944
-1.5967
-1.49982
-1.39585
-1.28845
-1.18078
-1.07168
-0.959591
-0.843392
-0.727165
-0.617347
-0.523926
-0.45063
-1.58216
-1.71314
-1.79672
-1.83559
-1.83429
-1.79936
-1.73863
-1.65962
-1.56955
-1.47506
-1.37944
-1.28596
-1.19285
-1.09668
-0.991846
-0.877522
-0.755796
-0.639343
-0.541844
-1.71763
-1.82932
-1.89468
-1.91865
-1.90706
-1.86668
-1.80505
-1.72891
-1.64477
-1.55887
-1.47427
-1.39515
-1.32068
-1.24796
-1.1687
-1.07673
-0.962436
-0.828829
-0.681449
-1.87621
-1.96423
-2.009
-2.01698
-1.99485
-1.94938
-1.88745
-1.81496
-1.7375
-1.66072
-1.58768
-1.52329
-1.46892
-1.42526
-1.3873
-1.35077
-1.30054
-1.22797
-1.12294
-2.05304
-2.11341
-2.13228
-2.11905
-2.08112
-2.02515
-1.95693
-1.88147
-1.80329
-1.72668
-1.6545
-1.59058
-1.53712
-1.49679
-1.47028
-1.46054
-1.46367
-1.47597
-1.48937
-2.25331
-2.27582
-2.26303
-2.22516
-2.16905
-2.10065
-2.02452
-1.9449
-1.86542
-1.78917
-1.71902
-1.65729
-1.60581
-1.56606
-1.53928
-1.52692
-1.53036
-1.55143
-1.59241
-2.47466
-2.45037
-2.40395
-2.34193
-2.26896
-2.18943
-2.10668
-2.02407
-1.94443
-1.87009
-1.80348
-1.74603
-1.69883
-1.66222
-1.63615
-1.61921
-1.61015
-1.60654
-1.60622
-2.67899
-2.60986
-2.53159
-2.44661
-2.35737
-2.26662
-2.17663
-2.08976
-2.00811
-1.93332
-1.86711
-1.81038
-1.7636
-1.72664
-1.69902
-1.6794
-1.66656
-1.65878
-1.65451
-2.84656
-2.74443
-2.64102
-2.53735
-2.43466
-2.33455
-2.23845
-2.1479
-2.06438
-1.989
-1.92294
-1.86679
-1.82068
-1.78429
-1.75703
-1.73768
-1.72501
-1.71749
-1.71362
-2.98098
-2.85254
-2.72913
-2.6106
-2.49725
-2.38971
-2.28873
-2.1952
-2.1101
-2.03415
-1.96817
-1.91254
-1.86717
-1.83163
-1.80526
-1.78686
-1.77519
-1.76876
-1.76609
-3.07884
-2.9305
-2.79196
-2.66247
-2.54142
-2.42862
-2.32422
-2.22861
-2.14244
-2.06615
-2.0003
-1.94517
-1.9005
-1.86582
-1.84036
-1.82294
-1.8122
-1.80666
-1.80475
-3.14151
-2.97473
-2.82549
-2.68934
-2.564
-2.44842
-2.34228
-2.24566
-2.159
-2.08259
-2.01689
-1.96211
-1.91794
-1.88386
-1.85913
-1.84259
-1.83285
-1.82846
-1.82784
-3.14153
-2.97476
-2.82553
-2.68938
-2.56404
-2.44846
-2.34233
-2.2457
-2.15904
-2.08264
-2.01694
-1.96216
-1.91799
-1.88392
-1.85919
-1.84264
-1.8329
-1.82852
-1.82791
-3.07887
-2.93056
-2.79204
-2.66256
-2.54152
-2.42872
-2.32433
-2.22873
-2.14256
-2.06627
-2.00043
-1.9453
-1.90065
-1.86597
-1.84052
-1.82312
-1.81239
-1.80686
-1.80497
-2.98102
-2.85263
-2.72925
-2.61075
-2.49741
-2.38988
-2.28891
-2.19539
-2.11029
-2.03435
-1.96838
-1.91276
-1.8674
-1.83187
-1.80551
-1.78714
-1.77548
-1.76908
-1.76643
-2.84661
-2.74454
-2.64118
-2.53753
-2.43487
-2.33477
-2.23868
-2.14815
-2.06463
-1.98926
-1.92321
-1.86707
-1.82097
-1.78459
-1.75735
-1.73801
-1.72535
-1.71785
-1.71399
-2.67905
-2.60999
-2.53177
-2.44683
-2.35761
-2.26688
-2.1769
-2.09005
-2.00841
-1.93364
-1.86743
-1.81072
-1.76395
-1.72699
-1.69938
-1.67977
-1.66694
-1.65917
-1.6549
-2.47473
-2.45051
-2.40414
-2.34217
-2.26922
-2.18972
-2.10699
-2.02439
-1.94477
-1.87044
-1.80385
-1.7464
-1.69921
-1.6626
-1.63652
-1.61957
-1.61049
-1.60685
-1.6065
-2.25338
-2.27598
-2.26327
-2.22546
-2.16941
-2.10107
-2.02498
-1.94542
-1.86599
-1.78979
-1.71969
-1.65802
-1.6066
-1.56691
-1.54019
-1.52784
-1.5312
-1.55205
-1.5926
-2.05308
-2.11344
-2.13232
-2.1191
-2.08118
-2.02521
-1.95699
-1.88153
-1.80333
-1.72669
-1.65447
-1.59047
-1.53691
-1.49644
-1.46978
-1.45993
-1.46311
-1.47579
-1.49011
-1.87623
-1.96432
-2.00916
-2.01722
-1.99517
-1.94979
-1.88796
-1.81556
-1.73818
-1.66148
-1.58851
-1.52421
-1.46994
-1.42645
-1.38875
-1.35266
-1.30308
-1.23134
-1.12724
-1.71764
-1.82934
-1.89472
-1.91875
-1.90721
-1.8669
-1.80533
-1.72926
-1.64517
-1.55932
-1.47478
-1.39573
-1.32135
-1.24877
-1.1697
-1.07796
-0.963841
-0.830226
-0.682497
-1.58216
-1.71315
-1.79675
-1.83566
-1.83443
-1.79956
-1.73891
-1.65996
-1.56996
-1.47554
-1.37997
-1.28657
-1.19356
-1.09751
-0.992784
-0.878531
-0.756778
-0.640187
-0.542511
-1.46382
-1.61161
-1.71117
-1.76314
-1.77081
-1.74033
-1.67969
-1.59702
-1.50021
-1.3963
-1.28897
-1.18137
-1.07234
-0.960324
-0.844165
-0.727924
-0.618031
-0.524501
-0.451104
-1.35502
-1.52233
-1.63723
-1.70092
-1.71623
-1.68908
-1.62765
-1.54061
-1.43657
-1.32315
-1.20474
-1.08517
-0.964886
-0.844857
-0.727247
-0.617787
-0.52194
-0.444648
-0.384769
-1.27108
-1.45217
-1.5795
-1.65246
-1.67332
-1.64776
-1.58424
-1.49199
-1.38036
-1.25774
-1.12951
-1.00069
-0.873512
-0.750951
-0.63666
-0.535796
-0.451385
-0.384853
-0.333182
-1.21319
-1.40215
-1.5374
-1.61591
-1.63929
-1.61297
-1.54577
-1.44745
-1.32815
-1.19718
-1.06096
-0.925806
-0.795394
-0.673813
-0.56481
-0.472102
-0.396478
-0.337318
-0.290861
-1.18289
-1.37649
-1.51494
-1.59444
-1.61641
-1.58618
-1.51313
-1.40752
-1.28034
-1.14179
-0.999244
-0.860144
-0.72903
-0.610283
-0.506971
-0.421268
-0.35223
-0.297992
-0.25432
-1.18332
-1.37582
-1.51186
-1.58709
-1.60314
-1.56543
-1.4841
-1.36996
-1.23481
-1.08963
-0.942483
-0.801587
-0.671731
-0.556976
-0.459369
-0.379661
-0.315518
-0.264085
-0.220409
-1.21137
-1.39734
-1.52667
-1.59409
-1.60137
-1.55454
-1.46427
-1.34209
-1.20043
-1.05055
-0.901402
-0.761008
-0.63409
-0.524015
-0.431967
-0.356935
-0.295583
-0.243008
-0.191436
-1.25205
-1.42695
-1.54421
-1.59971
-1.59541
-1.53811
-1.43849
-1.3087
-1.16138
-1.00761
-0.85716
-0.717271
-0.592769
-0.486111
-0.398187
-0.327044
-0.270489
-0.225033
-0.188156
-1.3025
-1.46545
-1.57241
-1.62011
-1.6107
-1.55111
-1.45134
-1.32313
-1.17841
-1.02758
-0.880514
-0.743665
-0.621868
-0.517491
-0.431906
-0.363727
-0.312964
-0.279306
-0.266313
-1.35939
-1.51047
-1.60635
-1.64474
-1.62849
-1.5647
-1.46309
-1.33492
-1.19161
-1.04301
-0.898678
-0.764686
-0.645757
-0.54428
-0.462014
-0.398222
-0.353854
-0.328926
-0.32433
-1.42119
-1.56172
-1.64643
-1.67519
-1.65176
-1.58341
-1.47962
-1.35125
-1.20923
-1.06286
-0.921369
-0.790465
-0.674771
-0.576708
-0.498348
-0.439213
-0.400465
-0.381514
-0.381747
-1.49092
-1.62011
-1.69265
-1.71127
-1.68023
-1.60683
-1.50034
-1.37134
-1.23033
-1.0861
-0.947564
-0.820041
-0.708047
-0.613972
-0.540068
-0.485805
-0.452322
-0.438486
-0.443087
-1.57221
-1.68451
-1.74391
-1.75203
-1.71282
-1.63365
-1.5238
-1.39367
-1.2534
-1.11129
-0.975965
-0.852303
-0.744674
-0.655348
-0.586644
-0.537803
-0.509942
-0.501548
-0.511171
-1.65119
-1.74864
-1.79636
-1.79415
-1.7463
-1.6608
-1.54712
-1.41564
-1.27617
-1.13653
-1.00502
-0.886039
-0.78376
-0.700247
-0.637828
-0.595415
-0.574181
-0.572302
-0.588179
-1.72991
-1.81898
-1.85553
-1.84192
-1.7841
-1.69098
-1.57251
-1.43907
-1.3002
-1.16317
-1.03594
-0.922367
-0.826391
-0.749793
-0.694875
-0.660138
-0.64687
-0.652927
-0.676558
-1.81936
-1.89628
-1.91863
-1.89112
-1.82135
-1.71926
-1.59533
-1.45987
-1.32203
-1.18843
-1.06665
-0.959875
-0.871772
-0.803771
-0.758149
-0.7329
-0.729506
-0.745449
-0.778815
-1.91768
-1.97689
-1.98175
-1.93763
-1.85401
-1.74201
-1.61255
-1.47569
-1.33999
-1.21127
-1.09665
-0.998545
-0.920324
-0.863015
-0.828904
-0.815375
-0.824212
-0.852465
-0.898055
-2.01759
-2.05818
-2.04239
-1.97872
-1.87959
-1.75734
-1.62299
-1.48602
-1.35417
-1.23222
-1.12688
-1.03964
-0.973602
-0.929365
-0.9093
-0.910056
-0.933886
-0.977349
-1.03825
-2.1249
-2.14197
-2.09939
-2.01258
-1.89671
-1.76464
-1.62678
-1.49163
-1.36583
-1.25293
-1.15931
-1.08539
-1.03411
-1.00559
-1.00243
-1.02038
-1.0624
-1.12451
-1.20451
-2.2449
-2.22111
-2.14467
-2.03255
-1.90044
-1.76064
-1.62201
-1.49173
-1.37507
-1.27417
-1.1953
-1.13765
-1.10415
-1.09446
-1.11155
-1.15013
-1.2142
-1.29921
-1.40317
-2.34091
-2.27148
-2.16056
-2.02522
-1.88074
-1.73812
-1.60365
-1.48295
-1.37977
-1.29474
-1.23442
-1.19661
-1.18449
-1.19729
-1.23869
-1.30218
-1.39332
-1.50706
-1.64198
-2.4174
-2.30365
-2.15738
-2.00137
-1.84897
-1.70849
-1.58262
-1.47546
-1.38926
-1.32323
-1.28467
-1.26986
-1.28255
-1.32156
-1.39163
-1.4848
-1.60889
-1.75842
-1.93341
-2.47731
-2.30164
-2.12043
-1.95089
-1.79863
-1.6676
-1.55631
-1.46771
-1.40286
-1.3597
-1.34687
-1.35903
-1.40084
-1.47083
-1.57528
-1.70457
-1.86973
-2.06517
-2.29397
-2.46367
-2.23073
-2.0299
-1.86207
-1.72198
-1.60974
-1.52006
-1.45576
-1.41716
-1.40121
-1.41859
-1.46227
-1.53835
-1.64524
-1.79158
-1.96596
-2.18426
-2.4415
-2.74768
-2.35903
-2.10034
-1.90289
-1.75242
-1.63467
-1.54817
-1.485
-1.44891
-1.44008
-1.45476
-1.50638
-1.58623
-1.70246
-1.85368
-2.05189
-2.28393
-2.5728
-2.91565
-3.33855
-2.14289
-1.90089
-1.73348
-1.61634
-1.5307
-1.47639
-1.44438
-1.44034
-1.46486
-1.51394
-1.60439
-1.72611
-1.89009
-2.09582
-2.36033
-2.66929
-3.05665
-3.52502
-4.14074
-1.81586
-1.64134
-1.52817
-1.45657
-1.40995
-1.39215
-1.39445
-1.42511
-1.48567
-1.57239
-1.70616
-1.87615
-2.09737
-2.37148
-2.72333
-3.13922
-3.67085
-4.3332
-5.30001
-1.40514
-1.33609
-1.29216
-1.27279
-1.26884
-1.28964
-1.32771
-1.39418
-1.49204
-1.61843
-1.79923
-2.02401
-2.31368
-2.67461
-3.14444
-3.71471
-4.46805
-5.44646
-7.12368
-0.960412
-1.00344
-1.03056
-1.06395
-1.10308
-1.16225
-1.23553
-1.33669
-1.47061
-1.6361
-1.86505
-2.14925
-2.5185
-2.98883
-3.61983
-4.41933
-5.52824
-7.04851
-10.3119
-0.536498
-0.662217
-0.748776
-0.829917
-0.909743
-1.005
-1.11062
-1.24251
-1.40734
-1.60654
-1.87911
-2.22107
-2.67572
-3.27801
-4.12639
-5.27094
-6.97121
-9.46951
-16.56
-0.176083
-0.327306
-0.451771
-0.57211
-0.688601
-0.816395
-0.949384
-1.10496
-1.29022
-1.51038
-1.81236
-2.19649
-2.72766
-3.48283
-4.65415
-6.47842
-9.73399
-15.7366
-37.1749
)
;

boundaryField
{
    up
    {
        type            calculated;
        value           nonuniform List<scalar> 
84
(
-33.6877
-18.2451
-11.1983
-7.64116
-5.63212
-4.37021
-3.50578
-2.87414
-2.39158
-2.01012
-1.7025
-1.4509
-1.24226
-1.06795
-0.921272
-0.796839
-0.690426
-0.598723
-0.51905
-0.448899
-0.385918
-0.326796
-0.263917
-0.169134
-0.163846
-0.207427
-0.241542
-0.277051
-0.317558
-0.366382
-0.427789
-0.507159
-0.627812
-1.11517
-1.53409
-1.62014
-1.60479
-1.65234
-1.71199
-1.76527
-1.80444
-1.82831
-1.82837
-1.80467
-1.76562
-1.71237
-1.65274
-1.60506
-1.61996
-1.53491
-1.12019
-0.628787
-0.507747
-0.428234
-0.366737
-0.317855
-0.277315
-0.241795
-0.207735
-0.164042
-0.169017
-0.26393
-0.326804
-0.385923
-0.448903
-0.519052
-0.598723
-0.690425
-0.796837
-0.92127
-1.06795
-1.24226
-1.4509
-1.7025
-2.01012
-2.39158
-2.87414
-3.50579
-4.37022
-5.63212
-7.64116
-11.1983
-18.2451
-33.6877
)
;
    }
    low
    {
        type            calculated;
        value           nonuniform List<scalar> 
84
(
-0.188891
-0.560354
-1.0124
-1.493
-1.93783
-2.28799
-2.50993
-2.60495
-2.5909
-2.49491
-2.39921
-2.28444
-2.13888
-2.01734
-1.90916
-1.79969
-1.70058
-1.61899
-1.53421
-1.43979
-1.36003
-1.29054
-1.2243
-1.16507
-1.10887
-1.0742
-1.07511
-1.11636
-1.18839
-1.29026
-1.41498
-1.54392
-1.69188
-1.86521
-2.0544
-2.27132
-2.51604
-2.73559
-2.91261
-3.0551
-3.15946
-3.23091
-3.23092
-3.15948
-3.05512
-2.91263
-2.73562
-2.51608
-2.27137
-2.05439
-1.86524
-1.69187
-1.54392
-1.41497
-1.29026
-1.18839
-1.11636
-1.07511
-1.07421
-1.10889
-1.16511
-1.22431
-1.29055
-1.36004
-1.4398
-1.53422
-1.61899
-1.70058
-1.79969
-1.90916
-2.01734
-2.13887
-2.28443
-2.3992
-2.4949
-2.5909
-2.60496
-2.50994
-2.288
-1.93784
-1.49301
-1.01241
-0.560359
-0.188892
)
;
    }
    left
    {
        type            calculated;
        value           nonuniform List<scalar> 
19
(
-0.172696
-0.321095
-0.447897
-0.572081
-0.693262
-0.826116
-0.964865
-1.12781
-1.32235
-1.55642
-1.87921
-2.2933
-2.87239
-3.70862
-5.01762
-7.08967
-10.8309
-17.811
-34.9413
)
;
    }
    right
    {
        type            calculated;
        value           nonuniform List<scalar> 
19
(
-0.172697
-0.321096
-0.447897
-0.572081
-0.693262
-0.826116
-0.964866
-1.12781
-1.32235
-1.55642
-1.87921
-2.2933
-2.87239
-3.70861
-5.01761
-7.08966
-10.8309
-17.811
-34.9413
)
;
    }
    frontAndBackPlanes
    {
        type            empty;
    }
}


// ************************************************************************* //
