/*--------------------------------*- C++ -*----------------------------------*\
  =========                 |
  \\      /  F ield         | OpenFOAM: The Open Source CFD Toolbox
   \\    /   O peration     | Website:  https://openfoam.org
    \\  /    A nd           | Version:  7
     \\/     M anipulation  |
\*---------------------------------------------------------------------------*/
FoamFile
{
    version     2.0;
    format      ascii;
    class       volScalarField;
    location    "0.05";
    object      gradTx;
}
// * * * * * * * * * * * * * * * * * * * * * * * * * * * * * * * * * * * * * //

dimensions      [0 -1 0 1 0 0 0];

internalField   nonuniform List<scalar> 
1596
(
-0.99975
-4.9952
-8.70216
-11.633
-13.7244
-15.0303
-15.7713
-16.1105
-16.1917
-16.1636
-16.0335
-15.9113
-15.9164
-16.2432
-17.1387
-19.137
-22.9599
-30.0091
-43.0582
0.335091
-3.83348
-7.37654
-10.1177
-12.0876
-13.3492
-14.0926
-14.4479
-14.5524
-14.5159
-14.3558
-14.1389
-13.8719
-13.5871
-13.2949
-13.0357
-12.7195
-12.0837
-10.4206
1.46167
-2.50983
-5.67517
-8.08335
-9.82198
-10.9628
-11.6568
-12.0105
-12.1398
-12.1312
-12.0091
-11.817
-11.5303
-11.1264
-10.5597
-9.79145
-8.72501
-7.2029
-4.83543
1.74717
-1.46523
-3.9953
-5.93282
-7.35445
-8.3179
-8.92655
-9.26105
-9.41069
-9.44144
-9.38354
-9.26672
-9.06542
-8.74176
-8.23493
-7.47426
-6.36651
-4.81168
-2.60488
1.00473
-1.0182
-2.71938
-4.08473
-5.12766
-5.86944
-6.36182
-6.65506
-6.809
-6.86931
-6.86745
-6.82445
-6.7236
-6.5301
-6.18805
-5.61793
-4.7293
-3.43761
-1.62038
-0.549981
-1.277
-2.0789
-2.82133
-3.44603
-3.9296
-4.27541
-4.50059
-4.63499
-4.70374
-4.73321
-4.73759
-4.70915
-4.62278
-4.43603
-4.07572
-3.45871
-2.50099
-1.10643
-2.50148
-2.13486
-2.09914
-2.22492
-2.41585
-2.61402
-2.78527
-2.91512
-3.00493
-3.05949
-3.09454
-3.11725
-3.12505
-3.10238
-3.02143
-2.82387
-2.43999
-1.78877
-0.780763
-4.42858
-3.31346
-2.60535
-2.18382
-1.96146
-1.86837
-1.8491
-1.86404
-1.89013
-1.91331
-1.93547
-1.95604
-1.97315
-1.97766
-1.9534
-1.85909
-1.64199
-1.23157
-0.544976
-6.34237
-4.82033
-3.60436
-2.69374
-2.05898
-1.64863
-1.40535
-1.27365
-1.21028
-1.1828
-1.17668
-1.18167
-1.19219
-1.20127
-1.19968
-1.16081
-1.04843
-0.807536
-0.367123
-7.47276
-5.91275
-4.46837
-3.25911
-2.33103
-1.67143
-1.23832
-0.973972
-0.824667
-0.745497
-0.708524
-0.694837
-0.693777
-0.697856
-0.70093
-0.686789
-0.632695
-0.500246
-0.234981
-8.42224
-6.89835
-5.34551
-3.93368
-2.77183
-1.89336
-1.28146
-0.885317
-0.646799
-0.511881
-0.441112
-0.40713
-0.393295
-0.389628
-0.390211
-0.384951
-0.360364
-0.291984
-0.141957
-9.44205
-7.97699
-6.35198
-4.77061
-3.39159
-2.29553
-1.49645
-0.956782
-0.618119
-0.418962
-0.309166
-0.252346
-0.224952
-0.213032
-0.208963
-0.205299
-0.193933
-0.160351
-0.0805502
-9.851
-8.56766
-6.99299
-5.36297
-3.8724
-2.64077
-1.71142
-1.06432
-0.646516
-0.394344
-0.251491
-0.175156
-0.136427
-0.117809
-0.109636
-0.105201
-0.0990716
-0.0829537
-0.0428633
-10.1173
-8.99862
-7.4967
-5.85339
-4.28921
-2.95633
-1.92379
-1.18858
-0.704229
-0.406578
-0.235107
-0.1419
-0.0936298
-0.0696806
-0.0583897
-0.0528059
-0.0485282
-0.040641
-0.0214374
-10.3498
-9.36117
-7.92185
-6.27194
-4.64968
-3.23426
-2.11655
-1.30824
-0.768627
-0.433174
-0.238034
-0.130998
-0.0750925
-0.0470788
-0.0335841
-0.0270637
-0.0233331
-0.0190913
-0.0101332
-10.3928
-9.54731
-8.18134
-6.54459
-4.89165
-3.42384
-2.24955
-1.39214
-0.81545
-0.454794
-0.244079
-0.128084
-0.0673509
-0.0368703
-0.0221289
-0.0150872
-0.0115241
-0.00883907
-0.00459641
-10.2083
-9.51189
-8.23519
-6.63538
-4.98289
-3.49728
-2.29998
-1.42221
-0.830578
-0.460249
-0.243969
-0.125019
-0.0628494
-0.0317337
-0.0167299
-0.00963122
-0.00622643
-0.00423685
-0.00206536
-9.92886
-9.33591
-8.14009
-6.58461
-4.95019
-3.47054
-2.27597
-1.40149
-0.813989
-0.447811
-0.235057
-0.118677
-0.0582062
-0.0281355
-0.013737
-0.00699384
-0.00384931
-0.00223887
-0.00097053
-9.73967
-9.22953
-8.07916
-6.53674
-4.8992
-3.41563
-2.22333
-1.35711
-0.780534
-0.424794
-0.220312
-0.109662
-0.0527975
-0.0248354
-0.0116007
-0.00548347
-0.00269
-0.00135388
-0.00050795
-9.11058
-8.75926
-7.72008
-6.25286
-4.67003
-3.23327
-2.0849
-1.2586
-0.715149
-0.384215
-0.196591
-0.0964546
-0.0456959
-0.0210751
-0.00958014
-0.0043418
-0.00199144
-0.000909356
-0.000302577
-8.29021
-8.08846
-7.18127
-5.82019
-4.32627
-2.96885
-1.89201
-1.12661
-0.630695
-0.333602
-0.167996
-0.0810977
-0.0377806
-0.0171118
-0.00761648
-0.00335828
-0.00148089
-0.000639232
-0.000197541
-7.31743
-7.23307
-6.46726
-5.24387
-3.87754
-2.63521
-1.65779
-0.972288
-0.535373
-0.278318
-0.137703
-0.0653039
-0.0298841
-0.0132911
-0.00580372
-0.00250464
-0.00107646
-0.000450363
-0.00013411
-6.09149
-6.09216
-5.48953
-4.46022
-3.28734
-2.21709
-1.37961
-0.798442
-0.433166
-0.221649
-0.107889
-0.0503288
-0.0226538
-0.00991
-0.00425581
-0.00180619
-0.0007647
-0.000318078
-9.72551e-05
-4.55213
-4.42717
-3.88308
-3.07356
-2.20978
-1.4559
-0.886236
-0.502107
-0.266674
-0.13348
-0.0634481
-0.0288327
-0.0126007
-0.00532945
-0.00220168
-0.000895395
-0.000366296
-0.000154689
-5.48754e-05
-3.05902
-3.25134
-3.10797
-2.65318
-2.03503
-1.41712
-0.905812
-0.536747
-0.297808
-0.155975
-0.0777856
-0.037285
-0.0172912
-0.00781686
-0.00347459
-0.00153644
-0.00069348
-0.000343062
-0.000204168
-1.01092
-1.06412
-1.05946
-0.9714
-0.812811
-0.621247
-0.436068
-0.282925
-0.171174
-0.0973195
-0.0524233
-0.0270497
-0.0134618
-0.00651592
-0.00309057
-0.00145105
-0.000690581
-0.00036336
-0.000245175
1.07015
1.0125
0.809462
0.535141
0.278001
0.0926479
-0.0106641
-0.0506774
-0.0543734
-0.0431051
-0.0291948
-0.0179609
-0.0103216
-0.00566098
-0.0030003
-0.00155214
-0.000796717
-0.000440873
-0.000305668
3.09475
3.00007
2.60226
2.01059
1.38439
0.850279
0.465261
0.224853
0.0934131
0.0305833
0.00507709
-0.00313547
-0.00444749
-0.00363535
-0.00248401
-0.00154115
-0.000888831
-0.000517982
-0.000359259
4.81778
4.64137
4.07595
3.2493
2.35249
1.55108
0.935053
0.516948
0.262501
0.122028
0.0515037
0.019006
0.00539151
0.000304309
-0.00118775
-0.00130853
-0.000962032
-0.000604673
-0.000398687
6.44726
6.13245
5.38839
4.35602
3.23977
2.22193
1.41095
0.832966
0.459225
0.237123
0.115125
0.0523228
0.0218571
0.00780073
0.00175488
-0.000528067
-0.000984097
-0.000752286
-0.00043883
7.49081
7.04698
6.194
5.06588
3.85404
2.73206
1.81105
1.127
0.661652
0.368054
0.195234
0.0989286
0.0476455
0.0211442
0.00789259
0.00155776
-0.000818912
-0.00113562
-0.00062091
8.31948
7.77123
6.8284
5.63418
4.36629
3.18271
2.18902
1.42561
0.883452
0.523371
0.298542
0.164656
0.0877952
0.044466
0.0203352
0.00688077
0.00025797
-0.00198781
-0.00162206
8.95131
8.27651
7.25862
6.03245
4.75254
3.55357
2.52866
1.71768
1.11902
0.702396
0.427936
0.254476
0.148146
0.0836857
0.044612
0.020072
0.00536486
-0.00216473
-0.00349059
9.16813
8.33362
7.23674
5.99748
4.74274
3.57918
2.58098
1.78065
1.17822
0.749133
0.459303
0.271843
0.154657
0.0824618
0.0377907
0.00821533
-0.0120333
-0.0258667
-0.0328117
9.12599
8.24903
7.19552
6.05419
4.91156
3.84162
2.89954
2.11418
1.49261
1.02274
0.682699
0.445637
0.285023
0.178187
0.107483
0.0588105
0.0229972
-0.00637587
-0.0323493
8.99319
8.10274
7.10066
6.04045
4.9827
3.98464
3.09159
2.33005
1.70983
1.22466
0.859261
0.593132
0.403908
0.271796
0.1805
0.116756
0.0709554
0.0360941
0.00698986
8.19844
7.20827
6.19229
5.18106
4.2162
3.33641
2.56943
1.92818
1.41335
1.01434
0.71523
0.497485
0.341902
0.232072
0.154759
0.0994296
0.0585755
0.0272542
0.00208744
6.97938
6.11364
5.2417
4.38659
3.57894
2.84653
2.20872
1.67398
1.24202
0.904133
0.647843
0.458593
0.321096
0.222151
0.150974
0.0987933
0.0592497
0.0281218
0.00246542
5.65684
4.95212
4.2414
3.54881
2.89897
2.3124
1.8026
1.37491
1.02838
0.755848
0.547615
0.392401
0.278323
0.195073
0.134198
0.0887183
0.0535583
0.0253662
0.00178299
4.18113
3.64927
3.12007
2.60988
2.13462
1.70738
1.33654
1.02512
0.772048
0.572054
0.418283
0.302756
0.217032
0.153761
0.106898
0.0713873
0.0435542
0.0209863
0.00197092
2.60054
2.24883
1.91313
1.59652
1.30505
1.04469
0.819371
0.630312
0.476549
0.35476
0.260805
0.189893
0.136962
0.0976009
0.0681819
0.0456475
0.0277798
0.0131377
0.000699531
0.989472
0.844016
0.71216
0.590654
0.480189
0.382362
0.298317
0.228268
0.171659
0.127101
0.0929342
0.0672964
0.0482644
0.0341783
0.0236828
0.015646
0.00924861
0.00395959
-0.000591706
-0.989
-0.842926
-0.71067
-0.588955
-0.478438
-0.380679
-0.296782
-0.226926
-0.170527
-0.126174
-0.0921912
-0.0667122
-0.0478125
-0.0338348
-0.0234275
-0.0154642
-0.00913004
-0.00389756
0.000600704
-2.60009
-2.24785
-1.9118
-1.59502
-1.30352
-1.04323
-0.818053
-0.629172
-0.475597
-0.353988
-0.260193
-0.189418
-0.136599
-0.0973292
-0.0679841
-0.0455114
-0.0276969
-0.0131026
-0.000709342
-4.18065
-3.64829
-3.11876
-2.6084
-2.13312
-1.70596
-1.33527
-1.02404
-0.771155
-0.57134
-0.417726
-0.302329
-0.216709
-0.15352
-0.106721
-0.0712614
-0.0434692
-0.0209352
-0.00194926
-5.65644
-4.95135
-4.24042
-3.54773
-2.89791
-2.31144
-1.80178
-1.37425
-1.02786
-0.75546
-0.547334
-0.392202
-0.278184
-0.194978
-0.134136
-0.0886798
-0.0535381
-0.0253603
-0.00178875
-6.97907
-6.11305
-5.24094
-4.38578
-3.57817
-2.84587
-2.20821
-1.67361
-1.24178
-0.903993
-0.647773
-0.458568
-0.321097
-0.222165
-0.150993
-0.0988128
-0.0592672
-0.0281348
-0.00247082
-8.19831
-7.20793
-6.19182
-5.18058
-4.21581
-3.33615
-2.56933
-1.92821
-1.41348
-1.01451
-0.715422
-0.497667
-0.34206
-0.232202
-0.154862
-0.0995062
-0.0586287
-0.0272849
-0.00209674
-8.99299
-8.10171
-7.09888
-6.03813
-4.98015
-3.98214
-3.08933
-2.32814
-1.70831
-1.22349
-0.858384
-0.59249
-0.403441
-0.271453
-0.180239
-0.116548
-0.0707814
-0.0359566
-0.00691642
-9.1273
-8.25266
-7.2014
-6.06187
-4.92036
-3.85077
-2.90835
-2.12212
-1.49937
-1.02821
-0.686958
-0.448845
-0.287383
-0.179902
-0.108737
-0.0597578
-0.0237492
0.00576242
0.031892
-9.16733
-8.3318
-7.23429
-5.99488
-4.74031
-3.57709
-2.57925
-1.77922
-1.17703
-0.748122
-0.458442
-0.271113
-0.154042
-0.0819461
-0.0373556
-0.00783789
0.0123934
0.026286
0.0334059
-8.95171
-8.27761
-7.26051
-6.03505
-4.75561
-3.55677
-2.53167
-1.72026
-1.12108
-0.703945
-0.429051
-0.255257
-0.148686
-0.0840573
-0.0448636
-0.0202256
-0.00543069
0.00216718
0.00352675
-8.31969
-7.7719
-6.82974
-5.63616
-4.36871
-3.18524
-2.19136
-1.42756
-0.88495
-0.524453
-0.299293
-0.165167
-0.0881427
-0.0447045
-0.0204952
-0.00697123
-0.000283292
0.00199743
0.0016027
-7.49106
-7.04772
-6.19543
-5.06795
-3.85648
-2.73452
-1.81322
-1.12873
-0.662913
-0.36892
-0.195806
-0.0993009
-0.0478891
-0.0213054
-0.00799631
-0.00161344
0.000804626
0.00114163
0.000600691
-6.44753
-6.13328
-5.38995
-4.35818
-3.24219
-2.22425
-1.41289
-0.834429
-0.460236
-0.237779
-0.115533
-0.0525729
-0.0220108
-0.00789511
-0.00180987
0.000502503
0.000979473
0.000755568
0.000426601
-4.81806
-4.64226
-4.07752
-3.25137
-2.35469
-1.55307
-0.936624
-0.518064
-0.263227
-0.122471
-0.0517619
-0.0191531
-0.0054743
-0.000349446
0.00116608
0.00130209
0.000963669
0.000607199
0.000392752
-3.09511
-3.00112
-2.60395
-2.01262
-1.38638
-0.85194
-0.466479
-0.225655
-0.0938965
-0.0308547
-0.00522157
0.00306195
0.00441207
0.0036205
0.0024806
0.00154367
0.000892848
0.000520322
0.000357123
-1.0705
-1.01358
-0.811097
-0.536946
-0.279613
-0.0938724
0.00985012
0.050194
0.0541134
0.0429779
0.0291385
0.0179396
0.0103166
0.00566322
0.00300545
0.00155771
0.00080093
0.00044299
0.000305477
1.01005
1.06166
1.05607
0.967975
0.809989
0.619254
0.434826
0.282227
0.170817
0.0971525
0.0523525
0.0270241
0.0134556
0.0065173
0.0030942
0.00145456
0.000692919
0.000364442
0.000245462
3.05947
3.25295
3.11049
2.656
2.03759
1.41911
0.90717
0.537588
0.298291
0.156237
0.0779228
0.0373559
0.0173279
0.00783614
0.00348491
0.00154197
0.000696337
0.000344492
0.000204829
4.55141
4.42497
3.87998
3.07033
2.20699
1.4538
0.884817
0.501228
0.266168
0.133207
0.0633095
0.0287656
0.0125697
0.00531582
0.00219589
0.000892973
0.000365224
0.000154179
5.47028e-05
6.09177
6.0927
5.4902
4.46086
3.28785
2.21744
1.37984
0.798573
0.433238
0.221687
0.107908
0.0503378
0.022658
0.00991192
0.00425664
0.00180652
0.000764808
0.000318113
9.72842e-05
7.31743
7.23306
6.46722
5.2438
3.87748
2.63517
1.65778
0.972291
0.535385
0.278331
0.137713
0.0653101
0.0298876
0.013293
0.00580461
0.00250505
0.00107665
0.00045046
0.000134134
8.29021
8.08847
7.18125
5.82014
4.32622
2.96881
1.89199
1.12661
0.630702
0.333611
0.168004
0.081103
0.0377837
0.0171135
0.00761729
0.00335868
0.00148113
0.000639389
0.000197563
9.11057
8.75928
7.72008
6.25283
4.66999
3.23324
2.08488
1.2586
0.715151
0.384221
0.196597
0.0964593
0.045699
0.0210769
0.00958117
0.00434244
0.00199196
0.000909772
0.000302663
9.73968
9.22958
8.0792
6.53675
4.89919
3.41561
2.22331
1.35709
0.78053
0.424796
0.220316
0.109666
0.0528007
0.0248376
0.0116021
0.00548463
0.00269121
0.00135494
0.000508197
9.92885
9.33595
8.14013
6.58463
4.95018
3.47052
2.27595
1.40147
0.813982
0.447811
0.23506
0.118681
0.0582098
0.0281382
0.0137391
0.00699611
0.00385211
0.00224139
0.000971102
10.2083
9.51191
8.23522
6.6354
4.98289
3.49727
2.29996
1.42219
0.83057
0.460249
0.243973
0.125024
0.0628536
0.0317371
0.0167334
0.00963592
0.00623265
0.00424233
0.00206648
10.3928
9.54734
8.18139
6.54463
4.89166
3.42383
2.24954
1.39213
0.815443
0.454794
0.244082
0.128089
0.067355
0.0368745
0.022135
0.0150968
0.0115369
0.00884969
0.00459817
10.3497
9.36119
7.92189
6.27198
4.6497
3.23426
2.11654
1.30823
0.768619
0.433172
0.238035
0.131001
0.075096
0.0470848
0.0335956
0.0270828
0.0233569
0.0191091
0.0101351
10.1173
8.99864
7.49674
5.85344
4.28924
2.95634
1.9238
1.18857
0.704227
0.406577
0.235107
0.141902
0.0936346
0.0696919
0.0584119
0.05284
0.0485665
0.0406654
0.0214373
9.851
8.56769
6.99303
5.36303
3.87245
2.6408
1.71144
1.06433
0.646519
0.394344
0.251491
0.175159
0.136436
0.11783
0.109674
0.105252
0.0991208
0.0829774
0.0428573
9.44201
7.97697
6.352
4.77064
3.39162
2.29556
1.49646
0.956787
0.618118
0.418958
0.309165
0.252351
0.224969
0.213068
0.209017
0.20536
0.193976
0.160356
0.0805339
8.42228
6.89839
5.34557
3.93374
2.77188
1.8934
1.28149
0.885332
0.646804
0.511882
0.441115
0.407144
0.393326
0.389678
0.390269
0.384993
0.360366
0.291948
0.141929
7.47285
5.9128
4.4684
3.25915
2.33106
1.67146
1.23834
0.973986
0.824674
0.745501
0.708535
0.69486
0.693815
0.697899
0.700954
0.686766
0.632616
0.500153
0.234951
6.34245
4.82037
3.60437
2.69375
2.05899
1.64865
1.40536
1.27365
1.21028
1.1828
1.17669
1.18169
1.19221
1.20126
1.19963
1.16068
1.04825
0.807403
0.367111
4.42865
3.31349
2.60535
2.18382
1.96147
1.86837
1.84909
1.86403
1.89013
1.91331
1.93547
1.95604
1.97312
1.97758
1.95324
1.85886
1.64175
1.23145
0.545005
2.50154
2.13489
2.09915
2.22492
2.41585
2.61401
2.78525
2.9151
3.00491
3.05947
3.09451
3.1172
3.12495
3.10221
3.02118
2.82361
2.4398
1.78875
0.780842
0.550021
1.27704
2.07894
2.82135
3.44603
3.92958
4.27538
4.50056
4.63496
4.7037
4.73316
4.73749
4.70899
4.62256
4.43578
4.07555
3.4587
2.50112
1.10653
-1.00472
1.01826
2.71945
4.08477
5.12766
5.86942
6.36179
6.65502
6.80896
6.86926
6.86736
6.82431
6.72342
6.52992
6.18793
5.61797
4.72951
3.43786
1.62046
-1.74717
1.4653
3.99537
5.93286
7.35445
8.31787
8.92651
9.26101
9.41064
9.44138
9.38345
9.2666
9.06531
8.74171
8.23502
7.47454
6.36687
4.81191
2.60487
-1.46169
2.50985
5.67518
8.08334
9.82195
10.9628
11.6568
12.0104
12.1397
12.1311
12.0091
11.817
11.5303
11.1265
10.5599
9.79181
8.72529
7.20295
4.83532
-0.335085
3.83345
7.37646
10.1177
12.0876
13.3492
14.0926
14.4479
14.5524
14.5159
14.3558
14.139
13.872
13.5874
13.2951
13.0358
12.7195
12.0835
10.4205
0.999776
4.99517
8.70208
11.6329
13.7244
15.0303
15.7713
16.1106
16.1917
16.1637
16.0336
15.9114
15.9165
16.2432
17.1387
19.1367
22.9596
30.0089
43.0582
)
;

boundaryField
{
    up
    {
        type            calculated;
        value           nonuniform List<scalar> 
84
(
-43.0582
-10.4206
-4.83543
-2.60488
-1.62038
-1.10643
-0.780763
-0.544976
-0.367123
-0.234981
-0.141957
-0.0805502
-0.0428633
-0.0214374
-0.0101332
-0.00459641
-0.00206536
-0.00097053
-0.00050795
-0.000302577
-0.000197541
-0.00013411
-9.72551e-05
-5.48754e-05
-0.000153959
-0.000205372
-0.000266185
-0.000319706
-0.000344605
-0.000306846
-0.000178294
-8.7782e-07
0.000899045
-0.0272572
-0.0306554
0.00717461
0.00235418
0.00266542
0.00192775
0.00205233
0.000747321
-0.000570294
0.000579457
-0.000756692
-0.00203046
-0.0019328
-0.00267006
-0.00236279
-0.00710175
0.030248
0.0279559
-0.000884126
-7.12467e-05
0.000122974
0.000277465
0.000331629
0.000315083
0.000265258
0.000205683
0.000154386
5.47028e-05
9.72842e-05
0.000134134
0.000197563
0.000302663
0.000508197
0.000971102
0.00206648
0.00459817
0.0101351
0.0214373
0.0428573
0.0805339
0.141929
0.234951
0.367111
0.545005
0.780842
1.10653
1.62046
2.60487
4.83532
10.4205
43.0582
)
;
    }
    low
    {
        type            calculated;
        value           nonuniform List<scalar> 
84
(
-0.890471
0.509121
1.72293
2.0091
1.1564
-0.57585
-2.69953
-4.74406
-6.7021
-7.7822
-8.72095
-9.72742
-10.0597
-10.2897
-10.509
-10.5129
-10.2904
-10.0107
-9.79747
-9.09179
-8.21675
-7.20564
-5.94291
-4.39292
-2.90504
-0.949088
0.997804
2.92461
4.62563
6.30037
7.42406
8.30703
8.99901
9.27866
9.2763
9.19184
8.44174
7.20716
5.84569
4.32394
2.692
1.02673
-1.02625
-2.69154
-4.32343
-5.84524
-7.20679
-8.44153
-9.19155
-9.27737
-9.27783
-8.99925
-8.30715
-7.42426
-6.30061
-4.62589
-2.92496
-0.99815
0.948219
2.90546
4.39224
5.94313
7.20563
8.21674
9.09176
9.79747
10.0107
10.2904
10.5129
10.509
10.2897
10.0597
9.72737
8.72099
7.78229
6.70218
4.74412
2.69958
0.575893
-1.15638
-2.00912
-1.72298
-0.50917
0.890479
)
;
    }
    left
    {
        type            calculated;
        value           nonuniform List<scalar> 
19
(
-0.923439
-4.90438
-8.75359
-11.8402
-14.061
-15.4525
-16.247
-16.6239
-16.7257
-16.7298
-16.6363
-16.5608
-16.665
-17.2023
-18.4737
-21.1941
-26.3404
-35.8442
-37.3092
)
;
    }
    right
    {
        type            calculated;
        value           nonuniform List<scalar> 
19
(
0.923472
4.90441
8.75356
11.8402
14.0609
15.4525
16.247
16.6239
16.7258
16.7298
16.6364
16.5608
16.6651
17.2022
18.4734
21.1937
26.3399
35.844
37.3094
)
;
    }
    frontAndBackPlanes
    {
        type            empty;
    }
}


// ************************************************************************* //
