/*--------------------------------*- C++ -*----------------------------------*\
  =========                 |
  \\      /  F ield         | OpenFOAM: The Open Source CFD Toolbox
   \\    /   O peration     | Website:  https://openfoam.org
    \\  /    A nd           | Version:  7
     \\/     M anipulation  |
\*---------------------------------------------------------------------------*/
FoamFile
{
    version     2.0;
    format      ascii;
    class       volScalarField;
    location    "0.13";
    object      T;
}
// * * * * * * * * * * * * * * * * * * * * * * * * * * * * * * * * * * * * * //

dimensions      [0 0 0 1 0 0 0];

internalField   nonuniform List<scalar> 
1596
(
5.97505
5.90395
5.83265
5.76788
5.71207
5.66528
5.62674
5.59405
5.56537
5.5364
5.50385
5.46309
5.405
5.31784
5.18448
4.96862
4.60417
3.95972
2.77174
5.89276
5.6728
5.46981
5.291
5.13858
5.01134
4.90653
4.81887
4.74341
4.67178
4.59674
4.50929
4.39474
4.23609
4.01358
3.69313
3.22491
2.52558
1.43841
5.79728
5.43065
5.10804
4.82981
4.59482
4.39963
4.2395
4.10719
3.9957
3.89468
3.79499
3.68581
3.55132
3.37421
3.13625
2.80988
2.36031
1.73722
0.849479
5.70608
5.20612
4.77825
4.41425
4.10874
3.85597
3.64939
3.48051
3.34103
3.21973
3.10669
2.99054
2.85591
2.68658
2.46644
2.17331
1.7823
1.26225
0.559594
5.63425
5.02372
4.50661
4.06915
3.70284
3.40017
3.15333
2.95303
2.79025
2.65349
2.5326
2.4162
2.28981
2.13853
1.94803
1.69979
1.3748
0.952186
0.398794
5.59017
4.89773
4.30839
3.80857
3.38909
3.04186
2.75846
2.52933
2.34512
2.19435
2.06687
1.95154
1.83478
1.70292
1.54296
1.33886
1.075
0.735804
0.298898
5.57302
4.82889
4.18478
3.63314
3.16698
2.77911
2.4614
2.20448
1.99898
1.83366
1.6985
1.58261
1.47329
1.35787
1.2244
1.05862
0.846962
0.57656
0.230705
5.57542
4.80665
4.12494
3.532
3.02549
2.60064
2.25048
1.96637
1.73928
1.55828
1.41357
1.29451
1.18913
1.08565
0.972968
0.838202
0.669188
0.454574
0.180704
5.59085
4.81881
4.11473
3.49049
2.9499
2.49176
2.11114
1.8006
1.55174
1.3541
1.19812
1.07339
0.968521
0.872466
0.774851
0.663937
0.52868
0.358737
0.142268
5.60792
4.84499
4.13098
3.4853
2.91776
2.43122
2.02339
1.68842
1.41882
1.20474
1.03685
0.904994
0.798234
0.706098
0.618842
0.525719
0.41667
0.2822
0.11179
5.62036
4.87002
4.15423
3.49571
2.90862
2.39959
1.96902
1.61293
1.32492
1.09581
0.916602
0.777339
0.667442
0.576905
0.496513
0.416392
0.327388
0.220822
0.0873018
5.63395
4.89721
4.18319
3.51677
2.91521
2.3882
1.9387
1.56451
1.26041
1.01793
0.828402
0.682031
0.568486
0.478091
0.402044
0.331201
0.257213
0.172189
0.0677657
5.64545
4.9214
4.21044
3.53905
2.92677
2.38569
1.92093
1.53191
1.21451
0.960926
0.762766
0.610355
0.493503
0.40275
0.329586
0.265449
0.202679
0.134114
0.0523539
5.65074
4.93492
4.22652
3.55199
2.93216
2.38083
1.90477
1.50472
1.17746
0.915719
0.711321
0.554649
0.435577
0.344765
0.273906
0.214895
0.160643
0.104641
0.0403559
5.65393
4.94152
4.23321
3.55529
2.92929
2.37017
1.88582
1.47795
1.14395
0.87689
0.66869
0.509693
0.389753
0.299569
0.230957
0.176153
0.128528
0.0821316
0.031175
5.65631
4.94385
4.23261
3.54973
2.91753
2.35181
1.86126
1.44812
1.1101
0.840355
0.630705
0.471341
0.352006
0.263361
0.197279
0.146247
0.104004
0.0650557
0.0242389
5.65615
4.94016
4.22314
3.53349
2.89458
2.32301
1.82796
1.41189
1.07247
0.802638
0.593929
0.436225
0.319071
0.233036
0.170005
0.122663
0.085045
0.0520453
0.0190159
5.65442
4.9318
4.20628
3.50784
2.86122
2.28393
1.78549
1.36834
1.02973
0.762136
0.556539
0.402367
0.288878
0.206496
0.147093
0.103525
0.0700837
0.0419991
0.0150583
5.65597
4.92659
4.1904
3.48062
2.82423
2.24
1.73794
1.32025
0.983592
0.719651
0.518628
0.369318
0.260578
0.182626
0.127293
0.0875766
0.0580001
0.0340934
0.0120173
5.65944
4.92461
4.17674
3.45365
2.78547
2.19288
1.68655
1.26848
0.934486
0.675252
0.479951
0.336568
0.233453
0.160559
0.109653
0.0738656
0.0479426
0.0276959
0.00962231
5.66149
4.92158
4.16197
3.42474
2.74374
2.14201
1.63118
1.21305
0.88249
0.628957
0.440408
0.303875
0.207116
0.139782
0.0935725
0.0617602
0.0393237
0.0223595
0.0076787
5.66438
4.92014
4.14908
3.39735
2.70275
2.09108
1.57521
1.15688
0.829929
0.582499
0.40118
0.27194
0.181876
0.120303
0.0788468
0.050927
0.0317693
0.017771
0.00604858
5.66926
4.92269
4.14115
3.3751
2.66647
2.04414
1.52248
1.10332
0.77957
0.53799
0.363753
0.2417
0.158224
0.102277
0.0653896
0.0411197
0.0249464
0.0136051
0.00457198
5.67563
4.9292
4.1389
3.35954
2.63725
2.00406
1.47605
1.05533
0.733963
0.497447
0.329571
0.214067
0.13663
0.0858358
0.0530944
0.0320595
0.0184395
0.00933422
0.00277383
5.68806
4.95669
4.1736
3.39498
2.66891
2.02949
1.49458
1.06752
0.74103
0.500761
0.33038
0.213361
0.135124
0.0840026
0.0512126
0.030262
0.0168006
0.00798331
0.00205359
5.70282
4.99747
4.23529
3.47056
2.75061
2.11007
1.56846
1.13117
0.792941
0.541063
0.360244
0.234539
0.149523
0.0934128
0.0571512
0.0338905
0.0189226
0.00910163
0.00242503
5.71105
5.02539
4.28274
3.53403
2.82429
2.18729
1.64307
1.1985
0.850161
0.587108
0.395423
0.260088
0.167148
0.104958
0.0643409
0.0381437
0.0212831
0.0102544
0.00276356
5.71282
5.03953
4.31401
3.58275
2.8871
2.25858
1.71655
1.26853
0.912586
0.639518
0.437003
0.291274
0.189205
0.119607
0.0734492
0.043415
0.0240783
0.0115223
0.00308992
5.71081
5.0448
4.33462
3.6219
2.94341
2.32741
1.79167
1.34366
0.982492
0.700582
0.487296
0.33035
0.217733
0.139037
0.085698
0.0504842
0.0277424
0.013112
0.00346455
5.70571
5.04427
4.34901
3.65606
2.99719
2.39688
1.87074
1.4257
1.06152
0.772012
0.548212
0.379401
0.254851
0.165178
0.102614
0.0603671
0.0328328
0.0152724
0.00395462
5.69956
5.04307
4.36356
3.69159
3.05402
2.47147
1.95723
1.51732
1.1519
0.855952
0.622021
0.440924
0.303227
0.200653
0.126455
0.074671
0.0402304
0.0183502
0.00463996
5.69703
5.04843
4.386
3.73578
3.12019
2.55632
2.05511
1.62165
1.25626
0.954838
0.7113
0.51785
0.366218
0.249115
0.160783
0.0962989
0.0517092
0.0229904
0.00558269
5.69598
5.05738
4.41344
3.78601
3.19344
2.64946
2.16285
1.73761
1.3741
1.06894
0.817223
0.612404
0.44722
0.31514
0.211072
0.130855
0.0717905
0.0315315
0.0068729
5.69596
5.06935
4.44543
3.84199
3.27356
2.75081
2.28042
1.86537
1.50591
1.19926
0.941502
0.727293
0.550298
0.40461
0.285423
0.18863
0.111852
0.0539813
0.0135779
5.6952
5.0784
4.47156
3.88913
3.34238
2.83933
2.3848
1.98074
1.62716
1.32157
1.06082
0.840475
0.655065
0.499316
0.368635
0.25854
0.165818
0.0887654
0.0261585
5.68869
5.07053
4.47012
3.89892
3.36548
2.87572
2.43291
2.03804
1.69064
1.38812
1.12756
0.904943
0.715271
0.553767
0.416302
0.298575
0.197274
0.110108
0.0347601
5.6781
5.05152
4.45092
3.88461
3.35881
2.87766
2.44315
2.05536
1.71332
1.41412
1.15484
0.931617
0.739666
0.574549
0.432611
0.310029
0.204091
0.113172
0.0354036
5.67037
5.03809
4.43808
3.87622
3.35688
2.88285
2.4551
2.07302
1.73521
1.43856
1.18016
0.956275
0.762337
0.594197
0.448576
0.321987
0.212066
0.117552
0.0367893
5.66621
5.03095
4.43192
3.87361
3.3592
2.89051
2.46776
2.08984
1.75503
1.46008
1.20208
0.977416
0.781677
0.610937
0.462208
0.33225
0.218969
0.121393
0.03804
5.66341
5.02625
4.42812
3.87252
3.36178
2.89702
2.47795
2.10305
1.7704
1.47663
1.21884
0.993514
0.79635
0.623593
0.472472
0.33994
0.224104
0.124228
0.0389645
5.66127
5.02249
4.42483
3.87105
3.36283
2.90078
2.48423
2.11141
1.78026
1.48731
1.2297
1.00395
0.805848
0.63175
0.479039
0.3448
0.227289
0.12594
0.0395108
5.6585
5.018
4.42053
3.86791
3.36129
2.90094
2.48597
2.11447
1.78432
1.49199
1.23463
1.00881
0.810355
0.635677
0.482241
0.347198
0.228882
0.126811
0.0397981
5.65851
5.01803
4.42057
3.86796
3.36134
2.90099
2.48602
2.11453
1.78437
1.49205
1.23468
1.00886
0.810395
0.635711
0.482269
0.347221
0.228898
0.126821
0.0398014
5.6613
5.02257
4.42495
3.87119
3.36299
2.90095
2.4844
2.11158
1.78043
1.48747
1.22985
1.00408
0.805968
0.631855
0.479127
0.344869
0.227339
0.125971
0.0395214
5.66346
5.02638
4.4283
3.87274
3.36204
2.8973
2.47823
2.10332
1.77067
1.47688
1.21908
0.99373
0.796543
0.623759
0.472611
0.340049
0.224182
0.124275
0.0389808
5.66628
5.03112
4.43217
3.87392
3.35955
2.89087
2.46813
2.09021
1.75539
1.46042
1.2024
0.977705
0.781933
0.611157
0.462391
0.332394
0.219072
0.121455
0.0380614
5.67045
5.0383
4.43839
3.8766
3.35731
2.88331
2.45556
2.07348
1.73565
1.43898
1.18055
0.956629
0.76265
0.594466
0.448799
0.322161
0.212191
0.117627
0.036815
5.6782
5.05177
4.45128
3.88506
3.35931
2.87819
2.44369
2.0559
1.71384
1.41461
1.1553
0.932025
0.740024
0.574853
0.43286
0.310222
0.204227
0.113252
0.0354304
5.68879
5.0708
4.47053
3.89943
3.36606
2.87633
2.43353
2.03865
1.69123
1.38867
1.12807
0.905394
0.715662
0.554093
0.416562
0.298769
0.197403
0.110181
0.0347833
5.69533
5.07881
4.47219
3.88996
3.34335
2.8404
2.38592
1.98187
1.62827
1.32264
1.06181
0.84139
0.655895
0.500059
0.369292
0.259107
0.166281
0.0890898
0.0262904
5.69613
5.06983
4.44618
3.84297
3.27471
2.75208
2.28175
1.86671
1.50721
1.20049
0.942641
0.728328
0.551223
0.405422
0.28612
0.189202
0.112282
0.0542506
0.0136718
5.69612
5.05779
4.41411
3.78689
3.19446
2.65059
2.16401
1.73876
1.37519
1.06995
0.818135
0.613206
0.447909
0.315715
0.211531
0.131194
0.072009
0.0316384
0.00689459
5.69716
5.04882
4.38663
3.73661
3.12117
2.55738
2.0562
1.62271
1.25725
0.955737
0.71209
0.518524
0.366776
0.24956
0.161118
0.0965296
0.0518461
0.023053
0.00559689
5.69968
5.04343
4.36415
3.69238
3.05495
2.47247
1.95824
1.51829
1.1528
0.856744
0.622699
0.441485
0.303677
0.200998
0.126704
0.0748346
0.0403245
0.0183933
0.00465005
5.70581
5.0446
4.34956
3.65679
2.99806
2.39781
1.87167
1.42658
1.06231
0.772703
0.548789
0.379866
0.255213
0.165446
0.102801
0.0604868
0.0329007
0.0153039
0.00396216
5.7109
5.0451
4.33513
3.62257
2.9442
2.32826
1.79251
1.34445
0.98319
0.701175
0.487781
0.330732
0.218022
0.139246
0.0858402
0.0505738
0.0277932
0.0131358
0.00347046
5.71289
5.0398
4.31446
3.58335
2.88781
2.25933
1.71729
1.26922
0.913187
0.64002
0.437406
0.291585
0.189436
0.11977
0.0735589
0.0434838
0.0241176
0.0115412
0.00309489
5.71111
5.02562
4.28313
3.53456
2.82491
2.18795
1.64371
1.19909
0.850669
0.587527
0.395755
0.260341
0.167333
0.105087
0.0644277
0.0381985
0.0213151
0.0102705
0.00276815
5.70288
4.99766
4.23563
3.47102
2.75114
2.11063
1.569
1.13166
0.793365
0.541411
0.360517
0.234746
0.149673
0.0935185
0.0572224
0.0339362
0.0189502
0.00911627
0.0024297
5.68806
4.95674
4.17369
3.3951
2.66906
2.02965
1.49474
1.06767
0.741163
0.500874
0.330472
0.213432
0.135177
0.0840395
0.0512367
0.0302762
0.0168075
0.00798511
0.0020529
5.67561
4.92914
4.13882
3.35944
2.63714
2.00395
1.47595
1.05524
0.733889
0.497389
0.329528
0.214036
0.136607
0.0858189
0.0530817
0.0320497
0.0184318
0.00932847
0.00277073
5.66925
4.92269
4.14114
3.37509
2.66646
2.04414
1.52248
1.10333
0.779581
0.538003
0.363765
0.241711
0.158232
0.102283
0.0653939
0.0411225
0.024948
0.0136057
0.00457187
5.66438
4.92013
4.14907
3.39734
2.70274
2.09108
1.57522
1.15688
0.829938
0.582508
0.401188
0.271947
0.181881
0.120307
0.0788497
0.050929
0.0317706
0.0177716
0.00604869
5.66148
4.92158
4.16196
3.42474
2.74374
2.14201
1.63118
1.21306
0.882497
0.628963
0.440413
0.30388
0.20712
0.139785
0.093575
0.0617622
0.0393252
0.0223604
0.00767895
5.65943
4.92461
4.17673
3.45364
2.78547
2.19288
1.68655
1.26848
0.93449
0.675256
0.479955
0.336572
0.233456
0.160562
0.109656
0.0738681
0.0479446
0.0276972
0.00962269
5.65597
4.92659
4.19039
3.48062
2.82423
2.24001
1.73794
1.32026
0.983595
0.719654
0.518631
0.369321
0.260581
0.182629
0.127297
0.0875798
0.0580028
0.0340951
0.0120178
5.65442
4.9318
4.20628
3.50784
2.86122
2.28393
1.7855
1.36834
1.02973
0.762138
0.556541
0.40237
0.288881
0.206499
0.147098
0.103529
0.0700872
0.0420013
0.0150589
5.65615
4.94016
4.22314
3.53349
2.89458
2.32301
1.82796
1.41189
1.07247
0.802639
0.59393
0.436227
0.319075
0.233041
0.17001
0.122668
0.0850492
0.0520479
0.0190165
5.65631
4.94385
4.23261
3.54973
2.91753
2.35181
1.86126
1.44812
1.1101
0.840355
0.630707
0.471345
0.352011
0.263367
0.197285
0.146253
0.104008
0.0650583
0.0242395
5.65393
4.94152
4.23322
3.5553
2.9293
2.37017
1.88582
1.47795
1.14395
0.876891
0.668692
0.509697
0.389759
0.299576
0.230964
0.176159
0.128533
0.0821338
0.0311754
5.65074
4.93492
4.22652
3.552
2.93216
2.38083
1.90477
1.50472
1.17746
0.915721
0.711324
0.554654
0.435583
0.344772
0.273913
0.2149
0.160646
0.104643
0.0403559
5.64545
4.9214
4.21044
3.53906
2.92677
2.38569
1.92093
1.53191
1.21451
0.960928
0.762769
0.61036
0.49351
0.402756
0.329591
0.265452
0.20268
0.134114
0.0523535
5.63395
4.89721
4.18319
3.51677
2.91521
2.3882
1.9387
1.56451
1.26041
1.01793
0.828405
0.682036
0.568491
0.478095
0.402047
0.331201
0.257212
0.172187
0.067765
5.62036
4.87002
4.15423
3.49571
2.90862
2.39958
1.96902
1.61293
1.32492
1.09581
0.916605
0.777342
0.667445
0.576906
0.496511
0.416388
0.327383
0.220818
0.087301
5.60793
4.845
4.13098
3.4853
2.91775
2.43122
2.02338
1.68842
1.41882
1.20474
1.03685
0.904994
0.798232
0.706094
0.618836
0.525711
0.416663
0.282195
0.111789
5.59085
4.81881
4.11473
3.49049
2.94989
2.49175
2.11113
1.8006
1.55174
1.3541
1.19811
1.07338
0.968514
0.872457
0.77484
0.663926
0.528671
0.358733
0.142268
5.57542
4.80665
4.12494
3.532
3.02549
2.60063
2.25047
1.96637
1.73927
1.55827
1.41356
1.2945
1.18912
1.08564
0.972954
0.838189
0.669179
0.454571
0.180705
5.57302
4.82888
4.18477
3.63314
3.16697
2.77911
2.46139
2.20447
1.99898
1.83365
1.69849
1.5826
1.47327
1.35785
1.22438
1.05861
0.846955
0.576559
0.230706
5.59017
4.89773
4.30838
3.80856
3.38908
3.04185
2.75845
2.52933
2.34511
2.19434
2.06686
1.95152
1.83477
1.70291
1.54294
1.33885
1.075
0.735805
0.2989
5.63425
5.02371
4.50661
4.06915
3.70283
3.40017
3.15332
2.95302
2.79024
2.65348
2.53258
2.41619
2.2898
2.13852
1.94802
1.69978
1.3748
0.95219
0.398796
5.70608
5.20612
4.77825
4.41425
4.10874
3.85597
3.64939
3.4805
3.34102
3.21972
3.10667
2.99053
2.8559
2.68657
2.46644
2.17331
1.7823
1.26226
0.559595
5.79728
5.43065
5.10804
4.82981
4.59482
4.39963
4.23949
4.10718
3.99569
3.89467
3.79498
3.6858
3.55131
3.37421
3.13626
2.80989
2.36032
1.73722
0.849478
5.89276
5.6728
5.46981
5.291
5.13858
5.01134
4.90653
4.81886
4.7434
4.67177
4.59673
4.50928
4.39473
4.23609
4.01358
3.69313
3.22491
2.52558
1.43841
5.97505
5.90395
5.83265
5.76788
5.71207
5.66528
5.62674
5.59405
5.56536
5.5364
5.50385
5.46309
5.405
5.31784
5.18448
4.96862
4.60417
3.95972
2.77174
)
;

boundaryField
{
    up
    {
        type            fixedValue;
        value           uniform 0;
    }
    low
    {
        type            fixedValue;
        value           uniform 6;
    }
    left
    {
        type            fixedValue;
        value           uniform 6;
    }
    right
    {
        type            fixedValue;
        value           uniform 6;
    }
    frontAndBackPlanes
    {
        type            empty;
    }
}


// ************************************************************************* //
