/*--------------------------------*- C++ -*----------------------------------*\
  =========                 |
  \\      /  F ield         | OpenFOAM: The Open Source CFD Toolbox
   \\    /   O peration     | Website:  https://openfoam.org
    \\  /    A nd           | Version:  7
     \\/     M anipulation  |
\*---------------------------------------------------------------------------*/
FoamFile
{
    version     2.0;
    format      ascii;
    class       volScalarField;
    location    "0.418";
    object      gradTy;
}
// * * * * * * * * * * * * * * * * * * * * * * * * * * * * * * * * * * * * * //

dimensions      [0 -1 0 1 0 0 0];

internalField   nonuniform List<scalar> 
1596
(
-0.274962
-0.514293
-0.717871
-0.923475
-1.13355
-1.37455
-1.63859
-1.95677
-2.34382
-2.81072
-3.44474
-4.24919
-5.34842
-6.89365
-9.26526
-12.9362
-19.4607
-31.4721
-74.3494
-0.839301
-1.045
-1.2004
-1.35921
-1.52837
-1.73525
-1.97226
-2.26648
-2.63043
-3.06731
-3.64791
-4.36699
-5.3068
-6.53641
-8.25012
-10.5501
-13.9538
-18.9485
-33.1243
-1.504
-1.58668
-1.65932
-1.75585
-1.87456
-2.0377
-2.23514
-2.48926
-2.8083
-3.19
-3.69065
-4.2967
-5.06379
-6.0241
-7.2947
-8.89511
-11.1056
-14.1342
-20.6463
-2.20176
-2.11452
-2.08451
-2.10836
-2.16972
-2.28196
-2.43173
-2.63604
-2.89912
-3.21518
-3.62842
-4.12088
-4.73054
-5.47068
-6.41453
-7.55012
-9.04107
-10.9764
-14.3059
-2.84578
-2.59756
-2.46546
-2.41473
-2.41647
-2.4746
-2.57321
-2.72394
-2.9279
-3.17746
-3.50689
-3.8973
-4.37489
-4.94363
-5.651
-6.47511
-7.51734
-8.81323
-10.713
-3.35712
-3.00606
-2.79302
-2.67557
-2.6209
-2.62592
-2.67389
-2.7717
-2.91837
-3.10565
-3.35974
-3.66296
-4.03349
-4.47086
-5.00663
-5.61782
-6.36982
-7.2737
-8.46495
-3.69227
-3.31697
-3.05891
-2.89167
-2.78933
-2.74628
-2.74731
-2.79575
-2.8896
-3.0209
-3.20929
-3.43944
-3.72385
-4.06012
-4.46942
-4.93101
-5.48793
-6.14025
-6.94296
-3.84986
-3.5164
-3.25373
-3.05998
-2.9236
-2.8412
-2.80159
-2.80623
-2.85307
-2.93519
-3.06705
-3.23609
-3.45082
-3.7081
-4.02215
-4.37535
-4.79624
-5.28024
-5.85006
-3.86208
-3.61968
-3.38784
-3.19128
-3.03591
-2.9243
-2.85121
-2.81804
-2.82368
-2.86273
-2.94586
-3.06325
-3.22061
-3.4147
-3.65491
-3.92661
-4.24854
-4.61433
-5.03285
-3.75678
-3.61261
-3.4353
-3.25913
-3.1027
-2.97555
-2.87907
-2.81632
-2.78795
-2.79053
-2.83235
-2.90616
-3.01593
-3.15874
-3.34084
-3.55021
-3.79918
-4.08094
-4.39789
-3.62384
-3.55071
-3.42905
-3.28478
-3.14001
-3.00871
-2.89798
-2.81326
-2.75749
-2.72948
-2.73628
-2.773
-2.84269
-2.9429
-3.07788
-3.23772
-3.43042
-3.64931
-3.89361
-3.45904
-3.45884
-3.3919
-3.28408
-3.15843
-3.03108
-2.91326
-2.81281
-2.73508
-2.6812
-2.65788
-2.66239
-2.69744
-2.76125
-2.85683
-2.97598
-3.12383
-3.29405
-3.48442
-3.2563
-3.32084
-3.30756
-3.23968
-3.13945
-3.02387
-2.9066
-2.79756
-2.70424
-2.63001
-2.5819
-2.55921
-2.56484
-2.59787
-2.66074
-2.74675
-2.85924
-2.99236
-3.14307
-3.07322
-3.17522
-3.20483
-3.17413
-3.10084
-3.001
-2.88909
-2.77649
-2.67238
-2.58205
-2.51333
-2.46728
-2.44741
-2.45371
-2.48858
-2.54656
-2.62999
-2.73345
-2.85359
-2.90209
-3.03326
-3.09624
-3.09764
-3.05015
-2.96756
-2.86391
-2.75126
-2.63999
-2.53696
-2.45094
-2.38458
-2.34221
-2.32485
-2.33522
-2.36896
-2.42794
-2.50722
-2.60334
-2.73454
-2.89249
-2.98357
-3.01271
-2.98905
-2.92399
-2.83039
-2.72034
-2.6049
-2.49212
-2.39167
-2.30764
-2.24531
-2.20678
-2.19537
-2.20784
-2.24599
-2.30533
-2.38246
-2.5821
-2.75749
-2.87119
-2.92398
-2.9217
-2.87348
-2.79067
-2.68493
-2.56757
-2.4474
-2.33491
-2.23539
-2.15509
-2.09726
-2.06604
-2.05934
-2.07926
-2.12183
-2.18369
-2.44793
-2.6343
-2.76553
-2.83809
-2.8546
-2.82188
-2.74973
-2.64908
-2.53116
-2.40524
-2.28243
-2.16898
-2.07209
-1.99607
-1.94607
-1.92125
-1.92441
-1.95225
-2.00152
-2.31581
-2.52186
-2.67073
-2.76127
-2.79481
-2.7764
-2.71444
-2.61906
-2.50121
-2.37046
-2.23828
-2.11177
-1.99887
-1.90488
-1.83599
-1.79276
-1.77917
-1.79299
-1.8313
-2.18296
-2.4108
-2.57868
-2.68696
-2.73679
-2.73219
-2.68046
-2.59093
-2.47417
-2.33984
-2.19964
-2.06128
-1.93327
-1.82164
-1.73353
-1.67086
-1.63943
-1.63887
-1.66733
-2.07016
-2.31124
-2.49626
-2.62147
-2.68678
-2.69535
-2.65352
-2.56998
-2.45484
-2.31771
-2.17043
-2.02107
-1.87857
-1.74936
-1.64108
-1.55661
-1.5039
-1.48574
-1.50345
-1.97205
-2.22515
-2.42561
-2.56683
-2.647
-2.6683
-2.63622
-2.55883
-2.4458
-2.30657
-2.15303
-1.9935
-1.8372
-1.69066
-1.56141
-1.45214
-1.37211
-1.32823
-1.32967
-1.88419
-2.15154
-2.36736
-2.52405
-2.61857
-2.65225
-2.62985
-2.55889
-2.44858
-2.30804
-2.1491
-1.98028
-1.81107
-1.64808
-1.49824
-1.36235
-1.24778
-1.16196
-1.12801
-1.8088
-2.09135
-2.32185
-2.49193
-2.59808
-2.64084
-2.62491
-2.55718
-2.44654
-2.30209
-2.13463
-1.95388
-1.7696
-1.58905
-1.41842
-1.25693
-1.10492
-0.958066
-0.81647
-1.7505
-2.04765
-2.29484
-2.48276
-2.60821
-2.67095
-2.67563
-2.62782
-2.53531
-2.40663
-2.24987
-2.07544
-1.89226
-1.70943
-1.5334
-1.36557
-1.20163
-1.03072
-0.830983
-1.71337
-2.01949
-2.27474
-2.47169
-2.60758
-2.68212
-2.6998
-2.66548
-2.58586
-2.46848
-2.31886
-2.14677
-1.9606
-1.77077
-1.58597
-1.41317
-1.25195
-1.09953
-0.945927
-1.72008
-2.03018
-2.28974
-2.49234
-2.63555
-2.71988
-2.7496
-2.72964
-2.66586
-2.56427
-2.42871
-2.26622
-2.08369
-1.89148
-1.70055
-1.52131
-1.35762
-1.2098
-1.07091
-1.77609
-2.0847
-2.34281
-2.54506
-2.68967
-2.77831
-2.81546
-2.80648
-2.75679
-2.67122
-2.55189
-2.40265
-2.22752
-2.03516
-1.83766
-1.6488
-1.47732
-1.32687
-1.19236
-1.87816
-2.18274
-2.43414
-2.63037
-2.77095
-2.85888
-2.89923
-2.89798
-2.86051
-2.791
-2.69008
-2.55845
-2.39608
-2.2078
-2.00458
-1.80295
-1.61752
-1.4572
-1.31931
-2.02579
-2.31881
-2.55745
-2.74228
-2.87397
-2.95686
-2.99682
-3.00053
-2.97362
-2.92024
-2.84018
-2.73173
-2.59034
-2.4148
-2.21109
-1.99585
-1.78966
-1.61035
-1.46056
-2.21936
-2.49233
-2.71354
-2.88268
-3.00154
-3.07583
-3.11234
-3.11839
-3.10008
-3.06211
-3.00435
-2.92439
-2.8141
-2.66523
-2.47403
-2.25092
-2.0179
-1.80542
-1.62955
-2.43759
-2.69358
-2.89499
-3.04486
-3.14747
-3.21008
-3.24044
-3.2463
-3.2342
-3.2098
-3.17399
-3.12601
-3.05721
-2.95467
-2.80241
-2.59598
-2.34388
-2.08152
-1.8514
-2.69387
-2.92724
-3.10325
-3.22899
-3.31136
-3.35901
-3.38027
-3.38288
-3.37348
-3.35857
-3.34039
-3.3218
-3.29794
-3.25832
-3.18067
-3.04565
-2.82909
-2.5368
-2.18558
-2.99956
-3.20068
-3.34492
-3.44252
-3.50258
-3.53465
-3.54696
-3.54685
-3.54055
-3.53472
-3.533
-3.54146
-3.56202
-3.5948
-3.62786
-3.64871
-3.62044
-3.51754
-3.31358
-3.34948
-3.50891
-3.6103
-3.66942
-3.69717
-3.7034
-3.69504
-3.67846
-3.6585
-3.63971
-3.62575
-3.62083
-3.62896
-3.65537
-3.70313
-3.77977
-3.88045
-3.99754
-4.11529
-3.75363
-3.85143
-3.89869
-3.91327
-3.90559
-3.8846
-3.85541
-3.82335
-3.79203
-3.76407
-3.74331
-3.73115
-3.73055
-3.74368
-3.77398
-3.82445
-3.90175
-4.01169
-4.16383
-4.20694
-4.22294
-4.20986
-4.1796
-4.13894
-4.09413
-4.04828
-4.00518
-3.96715
-3.93558
-3.91336
-3.90026
-3.89754
-3.90467
-3.92163
-3.94461
-3.97294
-4.00166
-4.02829
-4.63972
-4.57099
-4.49662
-4.42078
-4.34612
-4.27565
-4.21058
-4.15275
-4.10313
-4.06201
-4.03069
-4.00825
-3.99459
-3.98843
-3.98891
-3.99304
-4.00028
-4.00809
-4.01555
-5.00892
-4.87208
-4.74562
-4.63011
-4.52549
-4.4322
-4.34982
-4.2785
-4.21809
-4.16801
-4.12847
-4.0983
-4.07681
-4.06266
-4.0549
-4.05135
-4.05139
-4.05323
-4.05599
-5.31151
-5.11736
-4.94743
-4.79899
-4.66958
-4.55742
-4.46068
-4.37814
-4.30875
-4.25134
-4.20535
-4.16955
-4.14291
-4.12413
-4.11215
-4.10526
-4.10258
-4.10267
-4.10453
-5.53336
-5.29494
-5.09158
-4.91841
-4.77078
-4.64497
-4.53796
-4.44747
-4.37182
-4.30943
-4.25925
-4.22003
-4.19054
-4.16947
-4.15563
-4.1475
-4.14387
-4.14331
-4.14463
-5.67096
-5.39448
-5.1684
-4.98049
-4.82276
-4.68969
-4.57734
-4.4828
-4.40399
-4.33915
-4.28697
-4.24623
-4.21559
-4.19381
-4.17967
-4.17184
-4.16899
-4.16978
-4.17293
-5.67099
-5.39454
-5.16847
-4.98056
-4.82284
-4.68977
-4.57742
-4.48287
-4.40407
-4.33922
-4.28704
-4.24629
-4.21566
-4.19388
-4.17974
-4.1719
-4.16905
-4.16984
-4.17299
-5.53342
-5.29507
-5.09175
-4.91859
-4.77097
-4.64516
-4.53815
-4.44767
-4.37202
-4.30962
-4.25944
-4.22022
-4.19072
-4.16965
-4.15582
-4.1477
-4.14408
-4.14354
-4.14488
-5.31159
-5.11756
-4.94769
-4.79928
-4.66989
-4.55774
-4.461
-4.37846
-4.30907
-4.25165
-4.20566
-4.16985
-4.14321
-4.12443
-4.11245
-4.10557
-4.1029
-4.103
-4.10487
-5.00904
-4.87232
-4.74594
-4.63048
-4.52589
-4.43261
-4.35023
-4.27891
-4.21849
-4.16841
-4.12886
-4.09868
-4.07717
-4.06301
-4.05523
-4.05166
-4.05168
-4.05351
-4.05625
-4.63985
-4.57126
-4.49698
-4.4212
-4.34657
-4.27612
-4.21106
-4.15324
-4.10362
-4.0625
-4.03116
-4.0087
-3.99502
-3.98883
-3.98926
-3.99334
-4.00054
-4.00829
-4.01571
-4.20708
-4.22323
-4.21025
-4.18005
-4.13944
-4.09465
-4.04883
-4.00574
-3.9677
-3.93614
-3.9139
-3.90078
-3.89801
-3.90508
-3.92194
-3.94479
-3.97296
-4.00151
-4.02796
-3.75378
-3.85175
-3.89915
-3.91385
-3.90626
-3.88536
-3.85625
-3.82428
-3.79304
-3.76517
-3.74452
-3.73246
-3.73197
-3.7452
-3.77556
-3.82594
-3.90293
-4.01213
-4.16295
-3.34958
-3.50899
-3.61038
-3.66949
-3.69722
-3.70342
-3.695
-3.67833
-3.65827
-3.63933
-3.62518
-3.62
-3.62777
-3.65372
-3.70096
-3.77712
-3.87772
-3.99557
-4.11549
-2.99962
-3.20083
-3.34515
-3.44285
-3.50302
-3.5352
-3.54762
-3.54763
-3.54145
-3.53574
-3.53416
-3.5428
-3.56361
-3.59682
-3.63062
-3.65268
-3.6262
-3.5256
-3.32424
-2.6939
-2.92727
-3.10331
-3.2291
-3.31152
-3.35923
-3.38055
-3.38322
-3.37389
-3.35906
-3.34097
-3.32252
-3.29891
-3.2597
-3.18261
-3.04828
-2.83226
-2.54002
-2.1879
-2.43761
-2.69359
-2.89503
-3.04495
-3.14761
-3.21029
-3.24073
-3.24667
-3.23466
-3.21036
-3.17469
-3.12691
-3.0584
-2.95622
-2.80433
-2.59816
-2.34606
-2.08341
-1.8529
-2.21938
-2.49233
-2.71354
-2.88272
-3.00164
-3.076
-3.11259
-3.11873
-3.10052
-3.06268
-3.00508
-2.92532
-2.81527
-2.66665
-2.47563
-2.25256
-2.01941
-1.80671
-1.63064
-2.0258
-2.3188
-2.55744
-2.7423
-2.87404
-2.957
-2.99704
-3.00084
-2.97404
-2.92079
-2.84088
-2.73262
-2.59142
-2.41602
-2.21238
-1.9971
-1.79079
-1.61134
-1.46146
-1.87817
-2.18271
-2.43411
-2.63037
-2.77099
-2.85899
-2.89942
-2.89827
-2.8609
-2.79152
-2.69074
-2.55926
-2.39702
-2.20883
-2.00562
-1.80394
-1.61842
-1.45803
-1.3201
-1.7761
-2.08467
-2.34277
-2.54504
-2.68969
-2.77839
-2.81562
-2.80673
-2.75714
-2.67169
-2.55249
-2.40336
-2.22833
-2.036
-1.8385
-1.6496
-1.47807
-1.3276
-1.19312
-1.72008
-2.03015
-2.2897
-2.49231
-2.63556
-2.71994
-2.74973
-2.72987
-2.66618
-2.5647
-2.42924
-2.26684
-2.08437
-1.89218
-1.70125
-1.52198
-1.35828
-1.21049
-1.07169
-1.71338
-2.01945
-2.27469
-2.47163
-2.60754
-2.68211
-2.69984
-2.66557
-2.58602
-2.46871
-2.31914
-2.1471
-1.96095
-1.77112
-1.58629
-1.41349
-1.25229
-1.09999
-0.946688
-1.75056
-2.0477
-2.2949
-2.48283
-2.60832
-2.67109
-2.67583
-2.62809
-2.53565
-2.40705
-2.25035
-2.07598
-1.89285
-1.71006
-1.53404
-1.36623
-1.20228
-1.03134
-0.831539
-1.80886
-2.09142
-2.32191
-2.49198
-2.59811
-2.64084
-2.62488
-2.55712
-2.44645
-2.30197
-2.13447
-1.95369
-1.76939
-1.5888
-1.41815
-1.25662
-1.10456
-0.95766
-0.816017
-1.88424
-2.15159
-2.36741
-2.52409
-2.61862
-2.65229
-2.62988
-2.55891
-2.44859
-2.30804
-2.1491
-1.98027
-1.81106
-1.64806
-1.49821
-1.36233
-1.24776
-1.16197
-1.12804
-1.97209
-2.22519
-2.42565
-2.56686
-2.64703
-2.66831
-2.63622
-2.55882
-2.44579
-2.30655
-2.153
-1.99348
-1.83717
-1.69063
-1.56138
-1.45212
-1.3721
-1.32823
-1.32968
-2.07019
-2.31127
-2.49629
-2.62149
-2.6868
-2.69536
-2.65353
-2.56997
-2.45483
-2.31769
-2.17041
-2.02105
-1.87855
-1.74934
-1.64106
-1.55659
-1.50389
-1.48574
-1.50345
-2.18298
-2.41083
-2.57871
-2.68698
-2.7368
-2.7322
-2.68046
-2.59092
-2.47416
-2.33982
-2.19963
-2.06126
-1.93325
-1.82163
-1.73352
-1.67085
-1.63943
-1.63887
-1.66733
-2.31583
-2.52188
-2.67075
-2.76128
-2.79482
-2.7764
-2.71444
-2.61906
-2.5012
-2.37045
-2.23827
-2.11176
-1.99886
-1.90487
-1.83598
-1.79275
-1.77917
-1.79298
-1.8313
-2.44795
-2.63431
-2.76554
-2.8381
-2.8546
-2.82189
-2.74973
-2.64908
-2.53115
-2.40524
-2.28242
-2.16898
-2.07208
-1.99606
-1.94606
-1.92124
-1.92441
-1.95225
-2.00152
-2.58212
-2.7575
-2.8712
-2.92399
-2.92171
-2.87349
-2.79067
-2.68493
-2.56756
-2.44739
-2.33491
-2.23538
-2.15509
-2.09725
-2.06604
-2.05933
-2.07926
-2.12182
-2.18368
-2.73455
-2.8925
-2.98358
-3.01272
-2.98906
-2.92399
-2.83039
-2.72034
-2.6049
-2.49212
-2.39167
-2.30764
-2.24531
-2.20678
-2.19537
-2.20784
-2.24599
-2.30533
-2.38245
-2.9021
-3.03326
-3.09625
-3.09765
-3.05016
-2.96756
-2.86391
-2.75126
-2.63999
-2.53696
-2.45093
-2.38458
-2.34221
-2.32485
-2.33522
-2.36896
-2.42794
-2.50721
-2.60333
-3.07322
-3.17522
-3.20483
-3.17413
-3.10084
-3.001
-2.8891
-2.77649
-2.67238
-2.58205
-2.51333
-2.46728
-2.44741
-2.4537
-2.48858
-2.54656
-2.62999
-2.73345
-2.85358
-3.2563
-3.32084
-3.30756
-3.23968
-3.13946
-3.02387
-2.9066
-2.79756
-2.70424
-2.63001
-2.5819
-2.55921
-2.56484
-2.59787
-2.66074
-2.74675
-2.85924
-2.99236
-3.14307
-3.45904
-3.45884
-3.3919
-3.28408
-3.15843
-3.03108
-2.91326
-2.81281
-2.73508
-2.6812
-2.65787
-2.66239
-2.69744
-2.76125
-2.85682
-2.97597
-3.12382
-3.29405
-3.48442
-3.62384
-3.55072
-3.42905
-3.28478
-3.14001
-3.00872
-2.89798
-2.81326
-2.75749
-2.72948
-2.73628
-2.773
-2.84268
-2.9429
-3.07788
-3.23771
-3.43042
-3.64931
-3.89361
-3.75679
-3.61261
-3.4353
-3.25913
-3.10271
-2.97555
-2.87907
-2.81632
-2.78794
-2.79052
-2.83235
-2.90615
-3.01593
-3.15874
-3.34084
-3.55021
-3.79918
-4.08094
-4.3979
-3.86209
-3.61968
-3.38785
-3.19128
-3.03592
-2.92431
-2.85122
-2.81804
-2.82368
-2.86273
-2.94586
-3.06325
-3.22061
-3.4147
-3.65491
-3.92661
-4.24854
-4.61434
-5.03285
-3.84987
-3.5164
-3.25374
-3.05998
-2.9236
-2.8412
-2.80159
-2.80623
-2.85307
-2.93519
-3.06705
-3.23608
-3.45081
-3.7081
-4.02214
-4.37535
-4.79624
-5.28024
-5.85006
-3.69228
-3.31698
-3.05892
-2.89167
-2.78933
-2.74628
-2.74731
-2.79575
-2.8896
-3.02089
-3.20929
-3.43943
-3.72385
-4.06011
-4.46942
-4.93101
-5.48793
-6.14025
-6.94296
-3.35713
-3.00607
-2.79302
-2.67557
-2.62091
-2.62592
-2.6739
-2.7717
-2.91837
-3.10565
-3.35974
-3.66296
-4.03349
-4.47085
-5.00662
-5.61782
-6.36982
-7.2737
-8.46496
-2.84579
-2.59757
-2.46547
-2.41474
-2.41648
-2.4746
-2.57321
-2.72394
-2.9279
-3.17746
-3.50689
-3.8973
-4.37489
-4.94362
-5.651
-6.47511
-7.51734
-8.81322
-10.713
-2.20176
-2.11453
-2.08452
-2.10836
-2.16972
-2.28196
-2.43173
-2.63605
-2.89912
-3.21518
-3.62842
-4.12088
-4.73053
-5.47067
-6.41453
-7.55012
-9.04107
-10.9764
-14.3059
-1.50401
-1.58668
-1.65932
-1.75586
-1.87457
-2.0377
-2.23515
-2.48926
-2.8083
-3.19
-3.69065
-4.2967
-5.06379
-6.0241
-7.2947
-8.89511
-11.1056
-14.1342
-20.6463
-0.8393
-1.04501
-1.2004
-1.35922
-1.52837
-1.73526
-1.97227
-2.26648
-2.63043
-3.06731
-3.64791
-4.36699
-5.3068
-6.53641
-8.25012
-10.5501
-13.9538
-18.9485
-33.1243
-0.27496
-0.514292
-0.71787
-0.923475
-1.13355
-1.37455
-1.63859
-1.95677
-2.34382
-2.81072
-3.44474
-4.2492
-5.34842
-6.89365
-9.26525
-12.9362
-19.4607
-31.4721
-74.3494
)
;

boundaryField
{
    up
    {
        type            calculated;
        value           nonuniform List<scalar> 
84
(
-67.3734
-36.4887
-22.4084
-15.3251
-11.3574
-8.90161
-7.25422
-6.0805
-5.20758
-4.53384
-4.00076
-3.56975
-3.21222
-2.91006
-2.64982
-2.42106
-2.21599
-2.02875
-1.85439
-1.68721
-1.52057
-1.34245
-1.12131
-0.736638
-0.717455
-0.900193
-1.03053
-1.15247
-1.27749
-1.41426
-1.57303
-1.76585
-2.05348
-3.32306
-4.26577
-4.2535
-4.03404
-4.01622
-4.05589
-4.10492
-4.14532
-4.17497
-4.17502
-4.14559
-4.10528
-4.05615
-4.01638
-4.03367
-4.25156
-4.26607
-3.33568
-2.05561
-1.76715
-1.57407
-1.41515
-1.27828
-1.15324
-1.03134
-0.901294
-0.718232
-0.736187
-1.12136
-1.34247
-1.52058
-1.68721
-1.85438
-2.02875
-2.21598
-2.42105
-2.64981
-2.91006
-3.21221
-3.56975
-4.00077
-4.53384
-5.20759
-6.0805
-7.25422
-8.90162
-11.3574
-15.3251
-22.4084
-36.4887
-67.3734
)
;
    }
    low
    {
        type            calculated;
        value           nonuniform List<scalar> 
84
(
-0.294398
-0.874578
-1.58156
-2.33378
-3.02985
-3.57649
-3.92015
-4.06219
-4.03059
-3.86831
-3.70455
-3.50986
-3.26705
-3.06165
-2.87771
-2.69343
-2.52687
-2.38901
-2.24924
-2.0982
-1.9719
-1.86379
-1.76341
-1.67605
-1.59573
-1.54905
-1.55693
-1.62732
-1.74796
-1.91985
-2.13483
-2.36711
-2.64119
-2.96927
-3.33866
-3.77049
-4.26437
-4.72573
-5.11465
-5.43467
-5.6707
-5.82546
-5.82549
-5.67073
-5.43472
-5.11471
-4.7258
-4.26445
-3.77058
-3.33866
-2.96933
-2.64119
-2.36712
-2.13484
-1.91986
-1.74796
-1.62734
-1.55696
-1.54908
-1.59577
-1.67613
-1.76344
-1.86383
-1.97193
-2.09823
-2.24926
-2.38903
-2.52689
-2.69344
-2.87772
-3.06165
-3.26705
-3.50986
-3.70455
-3.86831
-4.0306
-4.0622
-3.92016
-3.5765
-3.02986
-2.33378
-1.58156
-0.874575
-0.294395
)
;
    }
    left
    {
        type            calculated;
        value           nonuniform List<scalar> 
19
(
-0.269606
-0.504376
-0.711481
-0.923141
-1.14101
-1.39097
-1.66598
-1.99891
-2.4053
-2.9013
-3.57866
-4.44526
-5.64247
-7.35146
-9.99938
-14.1657
-21.6604
-35.6246
-69.8836
)
;
    }
    right
    {
        type            calculated;
        value           nonuniform List<scalar> 
19
(
-0.269604
-0.504374
-0.711479
-0.92314
-1.14101
-1.39097
-1.66598
-1.99891
-2.4053
-2.9013
-3.57866
-4.44526
-5.64247
-7.35147
-9.99938
-14.1657
-21.6604
-35.6246
-69.8836
)
;
    }
    frontAndBackPlanes
    {
        type            empty;
    }
}


// ************************************************************************* //
