/*--------------------------------*- C++ -*----------------------------------*\
  =========                 |
  \\      /  F ield         | OpenFOAM: The Open Source CFD Toolbox
   \\    /   O peration     | Website:  https://openfoam.org
    \\  /    A nd           | Version:  7
     \\/     M anipulation  |
\*---------------------------------------------------------------------------*/
FoamFile
{
    version     2.0;
    format      ascii;
    class       volScalarField;
    location    "0.498";
    object      T;
}
// * * * * * * * * * * * * * * * * * * * * * * * * * * * * * * * * * * * * * //

dimensions      [0 0 0 1 0 0 0];

internalField   nonuniform List<scalar> 
1596
(
6.98632
6.94683
6.90564
6.86519
6.82577
6.78658
6.74664
6.70408
6.65764
6.60432
6.54183
6.4671
6.37247
6.24672
6.07178
5.80658
5.37391
4.61927
3.2333
6.94075
6.81756
6.69885
6.58553
6.47637
6.36886
6.26037
6.14707
6.02588
5.89152
5.73968
5.56522
5.35753
5.10281
4.78313
4.3628
3.78526
2.95231
1.6779
6.88683
6.6795
6.48892
6.31086
6.14136
5.97618
5.81133
5.64193
5.46401
5.27157
5.05993
4.82378
4.55326
4.23649
3.85981
3.39751
2.81282
2.04772
0.993333
6.83366
6.54769
6.2925
6.05795
5.83712
5.62418
5.41412
5.20149
4.98194
4.7495
4.49971
4.22785
3.92564
3.58385
3.19294
2.73536
2.18807
1.51762
0.660634
6.78973
6.43609
6.12486
5.84175
5.57756
5.32526
5.0791
4.83337
4.58356
4.32394
4.0505
3.75911
3.44301
3.09515
2.70907
2.27281
1.77195
1.1873
0.481481
6.76056
6.35422
5.99638
5.67205
5.37112
5.08599
4.81048
4.53878
4.26638
3.98783
3.69945
3.39766
3.07679
2.73139
2.35702
1.94536
1.48723
0.971606
0.37588
6.74691
6.30466
5.91022
5.55152
5.21927
4.90611
4.60585
4.31279
4.02247
3.72971
3.4311
3.12339
2.8017
2.46164
2.10004
1.71089
1.2882
0.825633
0.309082
6.74554
6.28348
5.86259
5.47612
5.11722
4.77965
4.45775
4.14611
3.84049
3.53595
3.22928
2.91746
2.59613
2.26156
1.91136
1.54098
1.14636
0.723913
0.264525
6.75322
6.28516
5.84729
5.4393
5.05793
4.69884
4.35741
4.02884
3.70923
3.39394
3.07995
2.76437
2.44319
2.11308
1.7721
1.4166
1.04371
0.651446
0.23369
6.76329
6.29836
5.85174
5.42838
5.02879
4.65106
4.29204
3.94785
3.61514
3.28965
2.96858
2.64917
2.32762
2.00085
1.66713
1.32338
0.967411
0.598199
0.2115
6.77177
6.31389
5.8644
5.43107
5.01746
4.62411
4.24958
3.89116
3.54624
3.21109
2.88317
2.55988
2.23758
1.91333
1.58547
1.25124
0.908843
0.557768
0.194936
6.78198
6.33372
5.8849
5.44528
5.0208
4.61419
4.22578
3.85413
3.49757
3.15298
2.81817
2.49074
2.16719
1.84463
1.5214
1.19485
0.863374
0.526685
0.182384
6.79177
6.3545
5.9087
5.46551
5.0327
4.61489
4.21406
3.83016
3.46251
3.10871
2.76704
2.43533
2.1102
1.7888
1.46937
1.14928
0.826904
0.502009
0.172574
6.79845
6.37107
5.92941
5.48465
5.04569
4.6186
4.20691
3.81189
3.4339
3.07138
2.72313
2.38728
2.06062
1.74029
1.4244
1.11021
0.796003
0.481397
0.164543
6.80429
6.38531
5.94771
5.50229
5.05848
4.62344
4.202
3.79666
3.40889
3.03798
2.68334
2.34347
2.01534
1.69611
1.38372
1.07523
0.768685
0.463472
0.157718
6.80993
6.39844
5.96447
5.51859
5.07055
4.62831
4.19778
3.78262
3.38536
3.0062
2.64522
2.30135
1.97181
1.65378
1.345
1.04227
0.743307
0.44711
0.151648
6.8142
6.40903
5.97816
5.53178
5.07981
4.63084
4.19167
3.76704
3.36048
2.97315
2.60584
2.258
1.92716
1.61057
1.30576
1.00921
0.718198
0.431212
0.145913
6.81752
6.41746
5.98901
5.54187
5.08598
4.63041
4.18276
3.74873
3.33285
2.93721
2.5634
2.21147
1.87934
1.56438
1.26399
0.974286
0.691976
0.414884
0.14018
6.82236
6.42759
6.00117
5.55282
5.09261
4.63008
4.17356
3.72964
3.30385
2.89923
2.51822
2.16156
1.82767
1.51419
1.21845
0.936221
0.663568
0.397427
0.134205
6.82781
6.43899
6.01458
5.56471
5.09978
4.6298
4.16383
3.70934
3.27281
2.85829
2.46911
2.10679
1.77038
1.45793
1.1669
0.89282
0.631127
0.377644
0.127602
6.83194
6.44871
6.02625
5.57468
5.10474
4.62695
4.15104
3.68534
3.23729
2.81191
2.41353
2.04452
1.70467
1.39261
1.10613
0.840872
0.59182
0.353627
0.119756
6.83583
6.45762
6.03674
5.58314
5.10777
4.62162
4.13508
3.65733
3.1967
2.75927
2.35034
1.97324
1.62859
1.31575
1.03311
0.776762
0.54188
0.3224
0.109624
6.83998
6.46646
6.04663
5.59041
5.10894
4.61366
4.1156
3.62471
3.15023
2.69924
2.2781
1.89113
1.53991
1.22456
0.944222
0.695824
0.475565
0.278219
0.0944478
6.84411
6.4747
6.05507
5.59526
5.10672
4.60132
4.09066
3.58541
3.09564
2.62941
2.19419
1.79537
1.43554
1.11559
0.835341
0.592533
0.3849
0.210009
0.0635977
6.85039
6.49045
6.0778
5.62236
5.13546
4.62894
4.11442
3.60276
3.10437
2.62796
2.18187
1.77263
1.40385
1.07728
0.793273
0.549815
0.345117
0.178138
0.047902
6.85713
6.50992
6.10959
5.66575
5.18921
4.6912
4.18284
3.6745
3.17634
2.69712
2.24554
1.82902
1.45227
1.11806
0.827361
0.578163
0.367952
0.194549
0.0552966
6.86
6.51953
6.12682
5.69114
5.22283
4.73253
4.23069
3.72699
3.23103
2.75118
2.29617
1.87397
1.49028
1.14906
0.852194
0.597968
0.383428
0.205482
0.0602005
6.85897
6.51879
6.1286
5.69737
5.23499
4.75143
4.25633
3.75854
3.26677
2.78868
2.33261
1.90667
1.51732
1.16978
0.867287
0.608798
0.391275
0.210907
0.0627272
6.85515
6.51009
6.11836
5.68876
5.23066
4.75331
4.26543
3.77486
3.28924
2.81526
2.36046
1.93265
1.53871
1.18505
0.876595
0.613681
0.393707
0.21234
0.0635705
6.84864
6.49492
6.09906
5.66948
5.21498
4.74395
4.26415
3.78229
3.30485
2.83734
2.38622
1.95853
1.561
1.20094
0.885185
0.616257
0.392994
0.211043
0.0632107
6.84027
6.47599
6.07488
5.64486
5.19407
4.73003
4.25944
3.78788
3.32065
2.86201
2.41716
1.99196
1.59229
1.22561
0.900398
0.622027
0.392336
0.208411
0.0620574
6.83252
6.45763
6.05123
5.62105
5.17459
4.71848
4.25835
3.79867
3.34365
2.89636
2.46073
2.04117
1.64206
1.26983
0.933414
0.640701
0.397981
0.20677
0.0603068
6.82436
6.43875
6.02754
5.59814
5.15729
4.7106
4.26265
3.81688
3.37651
2.94365
2.52114
2.11199
1.71876
1.34575
1.00027
0.690403
0.425845
0.214941
0.0583176
6.81569
6.4197
6.00481
5.57779
5.14434
4.709
4.27529
3.84571
3.4227
3.00764
2.60265
2.20985
1.83035
1.46619
1.12163
0.801547
0.513932
0.269777
0.0764544
6.80558
6.39696
5.97613
5.54905
5.12037
4.69353
4.27108
3.85475
3.44639
3.0469
2.65809
2.28175
1.91852
1.56941
1.23647
0.920758
0.624586
0.35327
0.111469
6.7908
6.36105
5.92594
5.4902
5.05722
4.6294
4.20842
3.79533
3.39149
2.99742
2.61472
2.24506
1.88906
1.54785
1.22358
0.917016
0.629494
0.363509
0.119052
6.77239
6.3163
5.86244
5.41361
4.97177
4.53823
4.11386
3.69909
3.29487
2.9014
2.52016
2.15283
1.80014
1.46353
1.14574
0.848278
0.573562
0.325224
0.10405
6.75576
6.27631
5.80609
5.34604
4.89678
4.45869
4.03192
3.61639
3.21272
2.8209
2.44236
2.0788
1.73105
1.40068
1.09063
0.802557
0.538919
0.303276
0.0962461
6.7426
6.24404
5.7603
5.29096
4.83564
4.39392
3.96539
3.54958
3.14683
2.75695
2.38131
2.0216
1.67863
1.354
1.05066
0.770185
0.514976
0.288478
0.0911735
6.73213
6.21854
5.72427
5.2478
4.78792
4.3436
3.91397
3.49823
3.09652
2.7085
2.33549
1.97911
1.64012
1.32009
1.02193
0.747157
0.498097
0.278134
0.0876756
6.7245
6.20011
5.69844
5.21712
4.75424
4.3083
3.87812
3.46263
3.06186
2.67533
2.3043
1.95036
1.61422
1.2974
1.00277
0.73183
0.486858
0.271231
0.0853372
6.71913
6.18839
5.68286
5.19922
4.73506
4.28857
3.85837
3.44328
3.04323
2.65771
2.28792
1.93543
1.60092
1.28588
0.993176
0.724251
0.481372
0.267908
0.0842355
6.71914
6.18841
5.68289
5.19925
4.73509
4.2886
3.8584
3.44331
3.04326
2.65773
2.28794
1.93545
1.60094
1.2859
0.993187
0.724259
0.481378
0.267911
0.0842366
6.72452
6.20016
5.69852
5.21721
4.75433
4.3084
3.87821
3.46272
3.06194
2.67541
2.30437
1.95042
1.61427
1.29744
1.00281
0.731861
0.48688
0.271245
0.085342
6.73217
6.21863
5.72439
5.24794
4.78807
4.34375
3.91411
3.49836
3.09665
2.70862
2.33559
1.9792
1.6402
1.32015
1.02198
0.747197
0.498124
0.27815
0.0876809
6.74265
6.24416
5.76046
5.29114
4.83583
4.39411
3.96558
3.54975
3.14699
2.75709
2.38143
2.02171
1.67872
1.35407
1.05071
0.770224
0.515002
0.288493
0.0911777
6.75582
6.27645
5.80628
5.34626
4.89701
4.45892
4.03214
3.6166
3.21291
2.82107
2.4425
2.07892
1.73114
1.40074
1.09068
0.802585
0.538934
0.303283
0.0962467
6.77245
6.31645
5.86265
5.41386
4.97203
4.53849
4.11411
3.69933
3.29508
2.90157
2.5203
2.15294
1.80021
1.46357
1.14575
0.848266
0.573539
0.3252
0.104036
6.79087
6.36122
5.92617
5.49047
5.05751
4.62968
4.20869
3.79558
3.3917
2.99759
2.61484
2.24512
1.88907
1.54779
1.22347
0.916869
0.629333
0.363374
0.11899
6.80566
6.39721
5.97651
5.54956
5.12098
4.69423
4.27185
3.85558
3.44726
3.04781
2.65904
2.28274
1.91953
1.57045
1.23754
0.921823
0.625585
0.354064
0.111829
6.81579
6.41998
6.00528
5.57841
5.14511
4.70991
4.27633
3.84686
3.42396
3.00899
2.60408
2.21134
1.8319
1.46776
1.12317
0.80296
0.515101
0.270563
0.0767463
6.82444
6.43898
6.02793
5.59867
5.15795
4.71138
4.26354
3.81786
3.37758
2.94479
2.52232
2.1132
1.71997
1.34691
1.00131
0.691243
0.426416
0.215225
0.0583689
6.83259
6.45784
6.05158
5.62154
5.17521
4.71921
4.25918
3.79959
3.34463
2.89739
2.4618
2.04223
1.64308
1.27075
0.934181
0.641269
0.398335
0.206942
0.0603514
6.84032
6.47617
6.07519
5.6453
5.19463
4.7307
4.26021
3.78872
3.32155
2.86295
2.41811
1.99288
1.59315
1.22635
0.900993
0.622453
0.392604
0.20855
0.0620985
6.84869
6.49508
6.09934
5.66989
5.21549
4.74457
4.26486
3.78307
3.30568
2.83819
2.38707
1.95934
1.56174
1.20156
0.885674
0.616609
0.393223
0.211169
0.0632503
6.85519
6.51023
6.11861
5.68912
5.23113
4.75387
4.26607
3.77557
3.28999
2.81603
2.36122
1.93337
1.53935
1.18558
0.877018
0.613992
0.393917
0.21246
0.0636107
6.859
6.51891
6.12882
5.69769
5.23541
4.75193
4.25691
3.75918
3.26744
2.78937
2.33329
1.9073
1.51788
1.17026
0.867667
0.609086
0.391477
0.211029
0.0627706
6.86003
6.51963
6.12701
5.69141
5.2232
4.73298
4.23121
3.72757
3.23164
2.7518
2.29678
1.87454
1.49079
1.14949
0.852548
0.598246
0.383632
0.205613
0.0602509
6.85715
6.51
6.10975
5.66599
5.18953
4.6916
4.1833
3.67501
3.17689
2.69767
2.24608
1.82953
1.45273
1.11846
0.827702
0.578443
0.36817
0.194698
0.05536
6.85039
6.49046
6.07782
5.62239
5.13552
4.62901
4.1145
3.60284
3.10445
2.62802
2.18191
1.77265
1.40385
1.07725
0.793221
0.549752
0.345054
0.178088
0.0478804
6.84409
6.47466
6.05501
5.59518
5.10661
4.60119
4.0905
3.58523
3.09544
2.6292
2.19397
1.79515
1.43532
1.11538
0.835143
0.592358
0.384757
0.209911
0.0635572
6.83998
6.46644
6.04661
5.59037
5.10889
4.61361
4.11554
3.62465
3.15017
2.69918
2.27805
1.89109
1.53988
1.22454
0.94421
0.695822
0.47557
0.278226
0.0944513
6.83582
6.4576
6.03672
5.58311
5.10773
4.62157
4.13503
3.65728
3.19665
2.75923
2.3503
1.9732
1.62857
1.31573
1.0331
0.776758
0.541881
0.322402
0.109624
6.83193
6.4487
6.02623
5.57465
5.10471
4.62692
4.151
3.68531
3.23725
2.81188
2.4135
2.04449
1.70465
1.39259
1.10613
0.840868
0.591819
0.353626
0.119755
6.8278
6.43898
6.01457
5.56468
5.09975
4.62977
4.1638
3.70931
3.27279
2.85826
2.46908
2.10677
1.77037
1.45792
1.16689
0.892816
0.631125
0.377643
0.127602
6.82236
6.42759
6.00116
5.5528
5.09259
4.63006
4.17353
3.72962
3.30383
2.8992
2.5182
2.16155
1.82766
1.51418
1.21844
0.936217
0.663566
0.397425
0.134205
6.81752
6.41745
5.989
5.54186
5.08596
4.63039
4.18275
3.74872
3.33284
2.93719
2.56339
2.21146
1.87933
1.56437
1.26399
0.974283
0.691974
0.414883
0.140179
6.81419
6.40903
5.97815
5.53177
5.0798
4.63083
4.19166
3.76703
3.36047
2.97313
2.60583
2.25799
1.92716
1.61056
1.30576
1.00921
0.718196
0.431211
0.145912
6.80992
6.39843
5.96446
5.51859
5.07054
4.6283
4.19777
3.78261
3.38535
3.00619
2.64521
2.30135
1.97181
1.65378
1.345
1.04227
0.743306
0.447109
0.151647
6.80429
6.38531
5.94771
5.50229
5.05847
4.62344
4.20199
3.79665
3.40888
3.03797
2.68334
2.34347
2.01534
1.69611
1.38372
1.07523
0.768685
0.463472
0.157718
6.79845
6.37107
5.9294
5.48464
5.04568
4.6186
4.20691
3.81188
3.43389
3.07138
2.72313
2.38728
2.06062
1.74029
1.4244
1.11021
0.796003
0.481397
0.164543
6.79177
6.3545
5.9087
5.4655
5.0327
4.61488
4.21406
3.83016
3.46251
3.10871
2.76704
2.43533
2.1102
1.7888
1.46937
1.14928
0.826905
0.502009
0.172574
6.78198
6.33372
5.8849
5.44528
5.0208
4.61419
4.22578
3.85413
3.49757
3.15298
2.81817
2.49074
2.16719
1.84463
1.5214
1.19485
0.863375
0.526686
0.182385
6.77177
6.31389
5.8644
5.43107
5.01746
4.62411
4.24958
3.89116
3.54624
3.21109
2.88317
2.55988
2.23758
1.91333
1.58548
1.25124
0.908845
0.557769
0.194936
6.76329
6.29836
5.85174
5.42838
5.02879
4.65106
4.29204
3.94785
3.61514
3.28965
2.96858
2.64917
2.32762
2.00086
1.66713
1.32338
0.967413
0.598201
0.211501
6.75322
6.28516
5.84729
5.4393
5.05793
4.69884
4.35741
4.02884
3.70923
3.39394
3.07995
2.76437
2.44319
2.11309
1.7721
1.4166
1.04371
0.651447
0.233691
6.74554
6.28348
5.86259
5.47611
5.11722
4.77965
4.45774
4.14611
3.84049
3.53595
3.22928
2.91746
2.59613
2.26156
1.91136
1.54098
1.14637
0.723914
0.264525
6.74691
6.30465
5.91022
5.55152
5.21927
4.9061
4.60585
4.31279
4.02247
3.72971
3.4311
3.12339
2.8017
2.46164
2.10004
1.71089
1.2882
0.825634
0.309082
6.76056
6.35422
5.99638
5.67205
5.37112
5.08598
4.81047
4.53878
4.26638
3.98782
3.69945
3.39766
3.07679
2.73139
2.35702
1.94536
1.48723
0.971606
0.37588
6.78973
6.43609
6.12486
5.84174
5.57755
5.32526
5.0791
4.83337
4.58356
4.32394
4.0505
3.75911
3.44301
3.09515
2.70907
2.27281
1.77195
1.1873
0.481481
6.83366
6.54769
6.2925
6.05795
5.83712
5.62418
5.41411
5.20149
4.98194
4.74949
4.49971
4.22785
3.92564
3.58384
3.19293
2.73536
2.18807
1.51762
0.660634
6.88683
6.6795
6.48891
6.31086
6.14136
5.97618
5.81132
5.64193
5.464
5.27157
5.05992
4.82378
4.55326
4.23649
3.85981
3.39751
2.81282
2.04772
0.993333
6.94075
6.81756
6.69885
6.58553
6.47637
6.36886
6.26037
6.14706
6.02588
5.89152
5.73967
5.56522
5.35753
5.10281
4.78313
4.3628
3.78526
2.95231
1.6779
6.98632
6.94683
6.90564
6.86519
6.82577
6.78658
6.74664
6.70408
6.65764
6.60432
6.54183
6.4671
6.37247
6.24672
6.07178
5.80658
5.37391
4.61927
3.2333
)
;

boundaryField
{
    up
    {
        type            fixedValue;
        value           uniform 0;
    }
    low
    {
        type            fixedValue;
        value           uniform 7;
    }
    left
    {
        type            fixedValue;
        value           uniform 7;
    }
    right
    {
        type            fixedValue;
        value           uniform 7;
    }
    frontAndBackPlanes
    {
        type            empty;
    }
}


// ************************************************************************* //
