/*--------------------------------*- C++ -*----------------------------------*\
  =========                 |
  \\      /  F ield         | OpenFOAM: The Open Source CFD Toolbox
   \\    /   O peration     | Website:  https://openfoam.org
    \\  /    A nd           | Version:  7
     \\/     M anipulation  |
\*---------------------------------------------------------------------------*/
FoamFile
{
    version     2.0;
    format      ascii;
    class       volScalarField;
    location    "0.04";
    object      gradTz;
}
// * * * * * * * * * * * * * * * * * * * * * * * * * * * * * * * * * * * * * //

dimensions      [0 -1 0 1 0 0 0];

internalField   nonuniform List<scalar> 
1596
(
-8.06197e-16
-3.66644e-16
4.00037e-16
3.29763e-17
-6.99896e-16
0
-2.93835e-16
-2.91006e-16
-5.07932e-17
-1.69085e-16
-9.17835e-20
-1.72032e-16
8.06589e-16
-1.76207e-16
8.02687e-16
7.06336e-16
4.24108e-16
5.52228e-16
0
7.7698e-16
0
9.33474e-16
-2.01737e-17
-2.31645e-16
2.29468e-16
5.56888e-16
4.84861e-17
2.50217e-16
-1.24832e-16
2.52243e-16
1.14347e-20
-3.48625e-16
-2.22746e-16
-6.44215e-16
-6.43279e-16
-5.96663e-16
3.5022e-16
0
-3.45049e-16
0
-5.38314e-16
3.02473e-17
3.89626e-16
-1.60183e-16
3.17399e-17
-1.72786e-18
-7.92354e-19
-2.22788e-19
5.49856e-17
0
1.80146e-16
4.77858e-16
-4.82517e-17
4.46634e-17
1.00796e-16
1.85838e-16
0
5.90568e-16
-1.30247e-16
1.29772e-16
0
-1.08376e-16
-1.21153e-16
1.51929e-16
-9.30994e-17
0
0
-8.49392e-17
2.91085e-17
0
-1.2794e-16
-1.36344e-16
1.04733e-16
-1.46411e-16
-7.19661e-18
0
1.08499e-16
2.16721e-16
-1.39544e-16
0
-2.63262e-17
-8.83132e-17
0
1.14025e-16
-9.37178e-18
-8.78403e-18
-3.88615e-17
4.72227e-17
6.78896e-17
9.83434e-18
3.23436e-17
-1.12812e-16
5.24984e-18
5.41271e-17
-2.78691e-17
-2.81755e-17
-2.88395e-16
2.13136e-16
-1.38242e-16
-1.06391e-18
-6.79721e-17
1.61489e-18
-1.62025e-18
-3.44975e-17
0
-2.47523e-17
-5.80465e-17
-6.03207e-17
3.63628e-17
6.6379e-17
-7.92116e-19
-3.9159e-17
-5.49003e-17
4.57003e-17
2.35468e-16
-2.98582e-16
2.50403e-16
9.89966e-17
0
5.46676e-17
2.23333e-17
-9.38501e-18
4.19547e-17
-6.4105e-18
-3.57111e-17
-1.63734e-20
-1.55342e-17
-3.63613e-17
-2.09655e-17
2.20817e-17
3.95037e-17
-5.83281e-19
-1.69188e-17
5.94534e-17
4.95787e-16
-4.35847e-16
0
0
-5.79352e-17
0
0
0
1.20744e-17
0
0
1.55423e-17
-1.17064e-19
1.19225e-17
-2.02528e-17
0
1.07556e-17
5.96747e-18
0
-2.84713e-16
5.09747e-16
0
0
5.96652e-17
0
-8.84409e-18
8.83515e-18
-1.229e-17
3.67036e-18
-3.69721e-18
0
5.14112e-18
1.0928e-17
0
-5.98032e-18
-1.09261e-17
-5.46157e-18
9.33982e-16
-4.02272e-16
0
-1.33225e-16
1.31734e-16
0
3.6879e-17
0
0
0
2.22169e-18
-2.23234e-18
0
-4.23681e-18
-8.65141e-19
0
3.05221e-18
2.62189e-18
0
-2.3749e-16
0
0
1.39017e-16
-2.23679e-16
3.42988e-17
1.40503e-17
-8.07495e-18
3.60021e-18
7.43802e-19
-2.50151e-18
-2.13699e-18
0
1.25977e-18
-4.04682e-19
4.10756e-19
2.51931e-18
-2.25086e-18
-7.95867e-19
1.28402e-16
-5.36688e-17
1.30411e-16
3.2152e-16
-5.19601e-17
-8.92745e-17
0
0
0
6.11708e-18
1.24314e-18
3.27273e-18
-7.37435e-19
-1.23724e-18
-3.85027e-19
-3.6551e-19
1.84453e-19
-5.28735e-19
7.22306e-19
-1.85991e-16
1.8772e-16
-3.06244e-16
-3.20148e-16
2.56157e-16
5.43435e-17
-8.42409e-17
4.68903e-17
-2.50158e-17
6.35071e-18
2.16828e-18
-1.05131e-18
1.70801e-19
-2.17952e-19
7.72056e-19
0
-7.22247e-20
7.48851e-19
-1.24425e-19
-1.41853e-15
5.87064e-16
-1.57454e-19
-5.68252e-17
2.97723e-17
5.3471e-17
-9.12269e-17
-2.10572e-17
1.09768e-17
-5.47703e-18
-2.66817e-18
0
-1.09277e-18
-2.50499e-19
-2.22628e-19
-1.0694e-19
5.62191e-21
-2.40104e-19
7.12464e-20
2.31329e-16
-1.73459e-16
-1.0034e-18
-8.43326e-17
-1.39863e-16
1.17618e-16
9.31519e-19
2.05203e-17
-1.06874e-17
1.04162e-17
1.6637e-18
9.25e-19
1.12657e-18
0
3.49955e-19
1.26347e-19
0
7.57351e-20
2.78735e-20
0
1.68275e-16
8.09383e-17
-1.96869e-16
1.33536e-16
-1.60365e-16
8.31882e-17
1.43339e-17
-6.89948e-18
-1.21076e-17
8.31435e-19
-8.27333e-19
-9.58402e-19
2.0094e-19
-8.04462e-20
-1.04024e-19
2.42254e-20
-1.46622e-20
1.76063e-20
-2.13653e-16
5.48554e-16
-4.25047e-16
1.46864e-16
0
0
-9.18212e-18
2.40653e-17
-6.42515e-18
1.029e-17
0
0
5.75135e-19
-3.37266e-19
-9.9253e-20
2.87179e-20
-1.99143e-20
1.064e-20
0
4.99299e-17
2.00603e-16
-1.06189e-16
-7.33903e-17
-6.84285e-17
3.84109e-18
2.42156e-17
0
-5.49549e-18
-1.65377e-18
1.51174e-18
-6.71685e-19
2.91365e-19
0
4.67302e-20
4.42859e-20
0
0
0
-4.95371e-17
1.95311e-16
2.13398e-17
-2.25742e-16
3.74872e-17
2.3414e-17
0
0
4.59143e-18
-2.69527e-18
-1.46218e-18
6.49642e-19
-2.81772e-19
0
-1.57151e-20
9.87744e-21
0
-2.88948e-21
-9.25322e-22
-1.36636e-16
4.074e-16
-4.03404e-16
-9.25873e-17
5.53855e-17
-1.83536e-17
9.6466e-18
0
-2.29482e-18
1.28481e-18
0
0
6.56538e-20
-6.57294e-20
5.53783e-21
-1.01664e-20
4.48345e-21
1.14368e-21
7.12112e-22
8.68399e-17
-6.17513e-17
2.191e-16
-1.33042e-16
-2.84952e-17
7.84323e-18
2.34024e-17
3.81261e-18
2.1958e-18
0
2.72328e-19
-2.45819e-19
1.03261e-19
-4.64035e-20
1.7945e-20
-1.91173e-20
-3.12245e-21
2.06818e-21
3.30097e-22
1.99184e-16
-2.18559e-16
0
7.16178e-17
-4.3676e-17
-1.46819e-17
2.63834e-18
-1.3713e-17
0
-1.03108e-19
-4.60341e-19
-1.34197e-19
8.57041e-20
-1.66774e-20
-1.73436e-20
6.85673e-21
0
6.57601e-22
-3.20522e-22
4.27923e-16
-5.35158e-17
1.43081e-16
-1.0834e-16
2.27973e-17
-1.11364e-17
-1.65265e-17
-1.78171e-18
2.54555e-18
-2.26615e-19
-2.86073e-19
1.81587e-19
-5.14999e-20
-2.2949e-20
0
0
0
-6.58306e-22
1.90326e-23
-3.19344e-16
2.9504e-16
-5.59744e-19
1.78528e-17
9.93791e-18
-1.16728e-17
9.67544e-18
-4.30182e-18
2.01035e-18
-2.12197e-19
3.63032e-19
4.1889e-20
-9.87616e-21
5.29703e-22
-7.72026e-24
-8.21369e-22
0
0
0
0
0
6.81117e-17
-6.40908e-17
-6.65482e-17
0
0
-9.67845e-19
-8.32705e-19
3.2237e-19
0
-5.28297e-20
2.04535e-20
-2.75536e-20
2.71833e-20
-3.1176e-21
3.31643e-21
1.9355e-22
0
-6.07037e-17
6.14508e-17
0
-1.97008e-17
1.60629e-17
1.53985e-17
0
9.77087e-19
2.6387e-19
-1.86073e-18
0
-5.28669e-20
2.03004e-20
7.70022e-21
-3.08821e-21
2.59082e-21
0
-4.48382e-22
0
-3.1452e-17
-2.32072e-17
1.38736e-18
2.02421e-17
-3.36764e-17
0
-2.89419e-18
0
2.00492e-18
3.63727e-19
0
1.94966e-19
-1.29763e-19
1.91808e-20
-6.41076e-22
4.44033e-21
4.23949e-21
9.26684e-22
-7.33846e-22
0
5.69124e-17
-3.07043e-17
3.57045e-17
2.18925e-17
0
5.43334e-18
-4.14234e-18
-1.15158e-18
7.06411e-19
-9.78705e-19
-1.61631e-19
0
0
3.57315e-21
0
0
2.72488e-22
0
-2.93008e-16
2.32808e-16
0
6.84199e-18
-1.01514e-17
-4.00475e-19
5.27751e-18
9.23446e-19
-2.43108e-18
-1.872e-18
1.25257e-18
-3.43723e-19
0
-2.21638e-20
0
0
0
-9.78114e-22
7.58162e-22
-9.23846e-17
6.91339e-17
1.29809e-16
-1.1169e-16
2.36799e-17
3.31521e-18
-5.28014e-18
2.58937e-18
2.40146e-18
8.84422e-19
-1.62497e-18
0
1.14414e-19
-5.60024e-20
-2.52456e-20
-1.11514e-20
6.66827e-21
-3.3118e-22
2.79928e-22
-3.47352e-16
3.38683e-16
-3.17691e-16
3.83004e-17
2.10813e-17
-1.66354e-17
1.01927e-17
-4.05329e-18
0
-1.27677e-18
7.69361e-19
2.93356e-19
2.67168e-19
9.62897e-20
-1.22003e-19
-1.13656e-20
0
8.99765e-23
-3.58347e-22
-3.74649e-16
-8.3429e-17
-1.04044e-16
6.39129e-17
-5.64521e-17
3.28846e-17
-1.61286e-17
7.26284e-18
-1.3975e-18
-1.06843e-18
-1.2164e-18
9.44947e-19
-1.12848e-20
2.41076e-19
-2.58798e-19
-1.00276e-20
1.03839e-20
0
9.3963e-22
4.05078e-16
-9.35636e-17
0
0
-5.90531e-17
1.01279e-16
-1.81035e-17
-1.60648e-18
9.42666e-18
-5.10162e-19
0
0
-3.07627e-19
0
-2.90011e-19
5.07508e-19
-2.93973e-19
0
-6.19154e-22
1.27202e-16
2.02992e-16
0
-5.88596e-17
-2.88052e-17
-1.19959e-17
-1.9442e-17
4.53531e-18
-1.01649e-17
-2.74295e-18
0
0
1.05709e-18
0
0
-5.39474e-19
9.84003e-19
0
0
8.76939e-16
-1.55524e-16
-4.20529e-16
-1.50496e-16
2.10136e-16
4.438e-17
1.88514e-17
0
-3.3968e-18
2.20501e-18
4.86938e-18
-1.30931e-18
-9.27602e-19
1.11198e-18
-1.18281e-18
-1.83084e-19
0
0
0
7.01396e-17
-4.53148e-16
4.36193e-16
-3.23157e-17
-1.82039e-16
2.52464e-16
-1.09864e-16
0
0
1.88428e-17
-1.36379e-17
0
-1.60441e-18
3.05191e-18
-1.38148e-19
5.7537e-19
1.37825e-19
3.64527e-21
2.23958e-20
0
0
0
2.6362e-16
-1.8092e-16
1.16967e-16
-1.69118e-16
4.01647e-17
0
-6.99577e-18
7.37352e-18
-7.53618e-18
-8.6861e-19
1.08519e-19
-3.5834e-19
-2.79698e-20
-2.49066e-19
-7.16857e-20
-3.52379e-20
5.57895e-16
-9.30253e-16
4.09292e-16
0
6.13137e-17
-8.6343e-17
5.50542e-17
-4.28254e-17
0
-9.07546e-18
1.31016e-17
0
0
1.11008e-19
0
-4.44043e-19
2.86886e-19
2.24516e-20
5.98775e-20
6.0734e-16
0
-1.61073e-16
1.78319e-16
-7.60646e-17
1.53349e-16
-6.42009e-17
-3.0997e-17
3.13208e-17
-2.19156e-18
0
0
6.81242e-19
-8.27023e-19
-4.91998e-19
8.76928e-19
-1.78917e-19
7.31e-20
0
3.42641e-16
2.11126e-16
-3.52176e-17
-1.72063e-16
-1.31461e-17
-7.09456e-17
1.95865e-17
4.71598e-17
-1.69938e-18
2.23271e-18
0
0
-6.97887e-19
0
5.70969e-19
-6.10801e-19
0
6.60037e-20
-1.74502e-20
-1.81391e-16
-1.0626e-16
9.99984e-17
-8.93622e-18
-3.35516e-18
7.36703e-18
0
-1.25505e-18
1.3391e-17
-1.12326e-17
0
1.88333e-18
-6.5683e-19
-1.36178e-18
-9.83927e-20
-6.849e-20
0
-5.23548e-20
0
6.68993e-17
-1.19909e-16
5.69988e-18
4.13784e-17
2.67163e-17
-2.59634e-17
-1.21596e-17
1.35806e-17
-2.96239e-18
2.41203e-18
-1.41279e-18
1.45636e-18
0
2.2297e-21
-6.80143e-20
2.47449e-19
-7.56352e-22
0
0
6.69018e-17
-6.66511e-17
-4.11491e-17
3.68852e-17
4.66961e-17
-4.69717e-17
-6.08031e-18
6.10009e-18
-2.99043e-18
3.02042e-18
-1.41296e-18
2.43118e-18
-6.75079e-19
-3.56853e-19
-8.13989e-20
3.26267e-20
5.88573e-20
1.43251e-20
-1.06285e-20
0
-1.48607e-17
7.07407e-17
-7.7969e-17
4.63776e-17
-4.17255e-17
0
1.68503e-17
-1.53481e-17
0
2.74567e-18
-3.38304e-18
-1.29993e-18
1.3624e-18
1.86127e-19
0
0
-5.23995e-20
1.8613e-20
2.65772e-16
-4.60865e-16
4.08158e-16
-3.04675e-16
1.10524e-16
-6.13803e-17
5.9557e-17
4.7759e-18
-1.29108e-17
1.13578e-17
0
-4.00175e-18
3.65123e-18
-4.77792e-19
-1.82311e-19
2.26916e-19
1.52134e-19
5.08698e-20
-1.79844e-20
6.80418e-16
0
-1.84006e-16
1.4367e-16
1.29969e-17
-7.35147e-17
1.15913e-16
-8.09764e-17
2.82504e-17
-7.06926e-18
7.23601e-18
1.00498e-18
1.23242e-18
4.65375e-19
-2.82341e-19
-5.69428e-20
-3.25892e-19
0
2.5286e-20
4.85807e-16
-5.47064e-16
0
3.42217e-17
1.11188e-16
-1.04245e-16
1.24561e-17
8.50635e-18
3.02143e-18
3.75565e-18
0
0
-1.97667e-18
3.11948e-18
-1.01219e-18
-2.62469e-19
2.87359e-19
1.96313e-20
-4.61076e-20
1.14339e-16
4.83299e-16
-4.40993e-17
-2.30647e-16
2.051e-16
1.75115e-17
-1.21905e-17
-8.30817e-18
1.76908e-17
-2.14826e-17
7.38295e-18
-7.54572e-18
5.05426e-19
-1.0223e-18
9.956e-19
-6.74028e-19
0
0
2.65846e-20
0
1.11644e-16
-2.5866e-16
2.9987e-16
-1.58713e-16
1.58335e-16
0
2.44796e-17
-2.45917e-17
-9.98643e-18
1.36639e-17
0
2.44262e-18
-3.05876e-18
-3.41973e-19
0
-2.1642e-20
-2.51971e-20
-9.77607e-21
-1.21376e-15
5.36021e-16
0
-2.10194e-16
2.10173e-16
7.93726e-17
-5.08798e-17
1.20265e-17
0
-2.61204e-19
6.39594e-19
-1.31022e-18
-9.2881e-19
1.11343e-18
-1.18395e-18
0
1.01737e-19
5.93332e-21
-1.6932e-20
7.09276e-16
-6.6304e-16
0
5.55656e-17
3.86058e-17
-2.91764e-17
0
-1.26038e-17
-6.11068e-18
0
-9.30709e-19
0
1.06033e-18
0
0
1.04177e-19
3.02756e-19
-4.39075e-19
0
-4.55244e-19
9.36217e-17
-6.82531e-17
3.17496e-17
-1.75766e-16
5.659e-17
0
1.61009e-18
3.96543e-18
0
-1.85701e-18
2.29477e-18
-2.41079e-18
1.52752e-19
0
-5.98467e-20
0
0
0
-3.98763e-19
0
6.30829e-17
0
-4.54537e-17
4.61763e-17
0
5.21603e-18
-2.39887e-18
6.30208e-18
-2.54103e-18
3.20482e-19
-2.92813e-19
1.0411e-19
-2.60437e-19
-2.8954e-20
0
9.89202e-23
0
2.5142e-16
-4.30783e-16
0
-3.56408e-17
2.20915e-17
0
0
-8.49768e-18
0
-1.28055e-18
-7.72047e-19
-2.94553e-19
2.68462e-19
0
1.92372e-20
0
0
-8.53096e-22
1.0123e-21
0
3.06152e-16
-2.382e-16
3.29952e-17
-2.04568e-17
-4.17052e-18
9.52685e-18
6.00176e-18
-3.41006e-18
1.02667e-18
2.70096e-19
-1.24981e-19
4.30277e-19
-1.04434e-19
-7.32044e-20
1.34253e-20
-5.23456e-22
-1.16784e-22
-6.91568e-23
-6.71943e-16
2.33876e-16
0
0
6.05647e-18
-6.15874e-18
6.65789e-19
-6.95618e-19
2.32578e-18
5.41524e-19
-4.15305e-19
-6.30183e-20
-3.69117e-20
2.22667e-20
0
1.54274e-21
4.79786e-22
2.8705e-22
6.2508e-23
0
1.62391e-16
-1.16615e-16
3.11766e-17
1.50591e-17
-2.52775e-18
-3.6862e-18
-1.71689e-18
-2.6626e-18
4.62904e-19
-2.26275e-20
1.87062e-19
3.4517e-20
-1.31069e-20
1.39122e-20
2.51374e-21
-3.62638e-21
-2.65133e-22
0
-4.16779e-17
-1.37034e-16
3.41934e-17
2.02542e-17
-3.9655e-17
2.26084e-17
3.78571e-18
-3.86958e-18
1.09445e-18
-4.39319e-19
0
0
-2.90951e-20
4.1758e-20
-1.19471e-20
3.92159e-21
-4.23763e-21
4.12021e-22
-7.33301e-22
7.12378e-17
5.14508e-17
-3.24021e-17
9.48727e-18
-1.90477e-17
-1.01824e-17
0
0
0
0
0
0
1.96505e-20
-2.14348e-20
2.26697e-20
-2.3807e-21
3.32482e-21
7.86901e-22
-6.37515e-22
1.61531e-16
-1.63645e-16
1.97731e-16
-3.73462e-17
5.66091e-17
-1.36824e-17
2.01077e-17
-7.27515e-18
-1.0917e-18
1.11676e-18
0
5.27731e-20
-1.91975e-20
2.00446e-20
-1.32103e-20
-6.42106e-21
-5.00201e-21
5.4602e-22
4.80613e-22
2.58757e-16
5.06236e-17
0
-3.63938e-17
-1.39784e-17
2.50694e-17
-1.29131e-18
-3.42332e-18
1.28988e-18
-3.73201e-19
0
-4.17759e-20
0
-1.0688e-20
5.40927e-21
-2.43437e-21
-5.63584e-22
1.65413e-22
0
3.50951e-16
-5.35147e-17
1.4433e-16
-1.09722e-16
-1.16162e-17
2.27225e-17
-1.29949e-17
1.02627e-18
5.13913e-19
-4.74007e-19
3.21268e-19
0
0
1.91564e-20
-9.51395e-22
2.8506e-22
1.94335e-21
-5.32111e-22
0
-2.01087e-19
0
-3.69761e-17
1.40897e-16
-8.56925e-17
-4.16356e-17
2.16237e-17
-7.69887e-18
6.0482e-18
1.31444e-18
-5.15277e-19
1.36832e-19
-7.84684e-20
1.67647e-20
2.96729e-20
-1.55855e-21
-2.65026e-21
1.77658e-21
-3.54063e-22
7.82668e-16
-2.32764e-16
5.05081e-17
-1.82787e-16
2.84951e-17
-2.71036e-17
1.68867e-17
0
0
-1.48709e-19
-2.96275e-19
-4.85275e-20
0
-4.5136e-20
-1.7945e-20
7.0849e-21
-2.98491e-22
9.48347e-22
8.6583e-22
0
-2.01608e-16
2.38217e-16
4.87395e-18
-1.26914e-16
1.83535e-17
-1.56206e-17
7.6782e-18
7.69699e-18
0
0
3.81878e-20
1.57198e-19
0
-3.18341e-20
-7.83142e-21
1.36111e-21
-8.7173e-22
-1.44698e-21
0
-1.01628e-16
7.5528e-17
1.63582e-16
5.89062e-17
-9.55817e-17
3.43162e-17
-9.46114e-18
6.00786e-18
-3.18347e-18
0
0
0
-1.20247e-19
3.11281e-21
-1.57926e-20
0
-2.8446e-22
1.21467e-21
-5.62595e-16
5.01876e-16
3.50193e-16
-4.11811e-16
1.09999e-16
-9.3619e-17
0
1.11163e-17
-1.30252e-17
4.92849e-18
-1.77343e-18
8.01914e-19
3.54555e-19
1.24362e-19
5.31516e-20
0
0
0
0
6.9376e-16
-3.18499e-16
0
0
-4.80426e-17
7.13467e-17
-4.34739e-17
-1.28111e-17
1.26667e-17
3.9407e-18
3.92455e-18
-8.32063e-19
2.07334e-19
4.99455e-20
2.85703e-20
1.43466e-20
2.33155e-20
-8.5416e-22
8.70039e-22
-6.72925e-16
5.53344e-16
2.00562e-16
-1.16043e-16
1.31982e-16
-8.08086e-17
-3.55612e-17
-1.92909e-17
0
-8.45031e-18
1.34305e-18
1.10404e-18
-4.47866e-19
-2.00947e-19
-3.84066e-20
-1.61782e-20
-1.39888e-20
0
0
-2.31053e-16
0
1.24301e-16
1.00988e-18
0
0
3.66825e-17
1.99054e-17
0
5.08813e-18
0
-1.57797e-18
-1.62417e-19
3.02953e-19
0
1.13813e-19
-1.25571e-20
1.281e-20
0
5.27207e-16
0
2.15595e-16
-3.54629e-16
2.51206e-16
1.20816e-16
-1.39502e-17
0
2.7559e-18
8.26144e-18
0
-1.88365e-18
1.36069e-18
-8.4419e-19
-1.39944e-19
-8.3566e-20
-3.49999e-20
-1.10782e-20
-1.08069e-19
-4.26786e-16
5.97866e-16
-1.29848e-16
-2.62923e-16
-1.13201e-16
-6.89185e-17
-7.86202e-17
-1.65615e-17
5.00645e-18
2.1724e-18
-2.16832e-18
3.05865e-18
-9.69561e-19
1.32179e-18
-2.20635e-19
0
5.07123e-19
-4.47915e-19
9.554e-20
1.08423e-15
-4.92669e-17
-5.64769e-16
3.21523e-16
-2.32556e-16
1.43021e-16
-1.34057e-17
-2.11926e-17
1.14153e-17
2.28256e-18
-1.03883e-18
-2.91081e-18
4.95284e-19
1.04993e-18
-1.83405e-19
1.85496e-19
-5.25256e-19
-6.7275e-19
-6.51337e-19
5.32259e-16
1.78459e-16
2.53747e-16
-1.66419e-16
-8.65212e-17
2.19883e-17
-2.92345e-17
6.29352e-17
3.81703e-18
1.11874e-17
4.33614e-18
-3.15765e-18
0
-1.25971e-18
0
0
2.93054e-18
9.59588e-19
7.13542e-19
4.64206e-16
0
2.39593e-16
1.65345e-16
-1.00715e-16
6.36361e-17
0
-2.08177e-17
-1.98051e-17
-1.16334e-17
-4.37452e-18
3.19336e-18
0
0
0
0
-2.79899e-18
-5.35865e-18
0
-9.06776e-16
0
-4.22264e-17
-4.04625e-17
1.56734e-16
-4.43795e-17
-1.30135e-17
-1.45372e-17
2.01351e-17
0
3.67029e-18
-2.91589e-19
6.44985e-18
0
0
1.15439e-17
-9.41234e-19
6.48188e-18
-5.82581e-18
6.13937e-16
1.3315e-16
-1.31776e-16
-8.74288e-17
-1.8963e-16
9.53791e-17
7.60974e-17
-6.02922e-18
-1.57537e-17
1.96741e-17
3.238e-18
-2.1617e-17
-1.31133e-17
-1.64225e-17
-1.92766e-17
-1.35048e-17
2.32178e-17
-9.52756e-19
5.96685e-18
-1.74414e-16
6.2952e-17
-2.69871e-16
2.87653e-17
-2.86606e-17
0
-3.91722e-17
-1.24437e-17
-3.55702e-17
1.40322e-17
3.57111e-17
1.80388e-17
-6.13595e-18
-1.03492e-17
1.75778e-17
0
-6.18485e-17
-3.31465e-17
-6.16727e-19
3.90806e-16
-7.60197e-18
4.14764e-16
-1.53014e-16
1.06391e-18
2.65838e-18
6.95997e-17
-2.23869e-17
3.44972e-17
-3.23218e-17
-3.19062e-17
0
6.03209e-17
3.5632e-17
7.64962e-19
-1.17407e-18
3.95592e-17
3.36237e-17
0
-2.67734e-16
0
-2.48191e-17
1.55407e-16
7.3986e-18
2.63613e-17
-6.73018e-17
5.96266e-17
9.32925e-17
9.25529e-17
9.37774e-17
0
-5.86007e-17
0
5.06777e-18
-5.26333e-18
0
-7.60259e-19
4.4467e-17
2.13051e-16
3.58248e-17
-8.48753e-17
2.90376e-16
-8.30833e-17
0
0
-1.46997e-16
-9.03909e-17
-8.96631e-17
-2.09248e-16
-2.91085e-17
0
0
0
-1.52685e-17
1.61579e-17
1.28624e-16
-4.52674e-17
4.10624e-17
0
-2.46481e-16
-1.72322e-16
2.14801e-16
-2.26385e-16
-3.07196e-16
3.1794e-16
1.27356e-16
0
1.42512e-16
2.21004e-16
-4.56887e-17
2.77616e-16
-4.66587e-17
4.85603e-17
2.20205e-16
-1.22298e-16
0
-3.95969e-16
0
-3.44241e-16
3.25823e-16
0
4.78591e-16
2.09506e-16
-5.01643e-16
4.63807e-16
-2.20945e-19
-1.2611e-16
-2.13977e-16
0
4.09777e-16
-6.44214e-16
7.06342e-16
-9.03714e-16
0
0
4.0266e-16
-1.0887e-17
-2.51142e-17
-7.07955e-16
7.44433e-16
-3.42223e-16
3.40828e-16
3.37503e-16
-2.39666e-16
0
0
6.21119e-16
-6.31819e-16
-6.10276e-16
6.20364e-16
-6.18585e-16
6.83211e-16
-1.0884e-15
0
)
;

boundaryField
{
    up
    {
        type            calculated;
        value           nonuniform List<scalar> 
84
(
0
0
0
0
-2.78691e-17
4.57003e-17
-1.69188e-17
5.96747e-18
-5.46157e-18
0
-7.95867e-19
7.22306e-19
-1.24425e-19
7.12464e-20
2.78735e-20
1.76063e-20
0
0
-9.25322e-22
7.12112e-22
3.30097e-22
-3.20522e-22
1.90326e-23
0
1.16568e-22
9.97369e-23
-6.38276e-22
0
7.58162e-22
3.5168e-22
-3.58347e-22
9.3963e-22
-6.19154e-22
0
1.04665e-20
2.08109e-20
-3.29229e-20
5.74586e-20
0
-1.63288e-20
0
0
-1.03864e-20
1.8613e-20
-1.79844e-20
2.5286e-20
-4.61076e-20
2.65846e-20
-9.77607e-21
-1.6932e-20
0
0
0
1.0123e-21
-2.11301e-22
6.2508e-23
0
-7.33301e-22
-6.37515e-22
3.64087e-22
0
0
-3.54063e-22
8.6583e-22
-1.44698e-21
1.21467e-21
0
8.70039e-22
0
0
-1.08069e-19
9.554e-20
-6.51337e-19
7.13542e-19
0
-5.82581e-18
5.96685e-18
-6.16727e-19
0
4.4467e-17
-4.52674e-17
0
0
0
)
;
    }
    low
    {
        type            calculated;
        value           nonuniform List<scalar> 
84
(
-8.08875e-16
7.7698e-16
-3.40267e-16
5.94042e-16
1.10607e-16
-2.87364e-17
2.39778e-16
6.33354e-17
0
9.38796e-16
-2.3749e-16
1.24726e-16
-1.85991e-16
-1.42078e-15
2.31329e-16
0
-2.13653e-16
4.99299e-17
-4.95371e-17
-1.36636e-16
8.68399e-17
1.99184e-16
4.2674e-16
-3.19344e-16
0
-6.07037e-17
-3.1452e-17
0
-2.93008e-16
-9.23846e-17
-3.47164e-16
-3.75053e-16
4.0608e-16
1.27202e-16
8.7902e-16
7.01396e-17
0
5.57895e-16
6.11383e-16
3.44711e-16
-1.8245e-16
6.68993e-17
6.69018e-17
0
2.65772e-16
6.8446e-16
4.85807e-16
1.17902e-16
0
-1.21584e-15
7.09276e-16
-4.55244e-19
-3.98763e-19
2.5142e-16
0
-6.69501e-16
0
-4.16779e-17
7.12378e-17
1.60004e-16
2.56917e-16
3.49767e-16
-2.01087e-19
7.82628e-16
0
0
-5.62595e-16
6.9512e-16
-6.74624e-16
-2.31053e-16
5.2946e-16
-4.26786e-16
1.09158e-15
5.36469e-16
4.64206e-16
-9.06776e-16
6.10055e-16
-1.70105e-16
3.90806e-16
-2.65626e-16
2.13051e-16
4.58439e-17
-3.95969e-16
4.03999e-16
)
;
    }
    left
    {
        type            calculated;
        value           nonuniform List<scalar> 
19
(
-8.06197e-16
-3.6696e-16
4.00037e-16
3.46613e-17
-7.02369e-16
0
-2.93835e-16
-2.91006e-16
-5.44467e-17
-1.69085e-16
-9.17835e-20
-1.72032e-16
8.16392e-16
-1.76207e-16
8.02687e-16
7.06336e-16
4.24108e-16
6.3895e-16
0
)
;
    }
    right
    {
        type            calculated;
        value           nonuniform List<scalar> 
19
(
4.0266e-16
-1.05709e-17
-2.51142e-17
-7.0964e-16
7.46906e-16
-3.42223e-16
3.40828e-16
3.37503e-16
-2.36012e-16
0
0
6.29838e-16
-6.41621e-16
-6.10276e-16
6.20364e-16
-6.18585e-16
6.83211e-16
-1.17512e-15
0
)
;
    }
    frontAndBackPlanes
    {
        type            empty;
    }
}


// ************************************************************************* //
