/*--------------------------------*- C++ -*----------------------------------*\
  =========                 |
  \\      /  F ield         | OpenFOAM: The Open Source CFD Toolbox
   \\    /   O peration     | Website:  https://openfoam.org
    \\  /    A nd           | Version:  7
     \\/     M anipulation  |
\*---------------------------------------------------------------------------*/
FoamFile
{
    version     2.0;
    format      ascii;
    class       volScalarField;
    location    "0.216";
    object      gradTx;
}
// * * * * * * * * * * * * * * * * * * * * * * * * * * * * * * * * * * * * * //

dimensions      [0 -1 0 1 0 0 0];

internalField   nonuniform List<scalar> 
1596
(
-0.277651
-1.39299
-2.49294
-3.48177
-4.35175
-5.0996
-5.7599
-6.35502
-6.91612
-7.50264
-8.13229
-8.87682
-9.81983
-11.0813
-12.8019
-15.3318
-19.2105
-25.6019
-36.9131
0.0613409
-1.15857
-2.24158
-3.17518
-3.98051
-4.6617
-5.25015
-5.75715
-6.20619
-6.62868
-7.02944
-7.4479
-7.89969
-8.40716
-8.95842
-9.52915
-9.96871
-9.96817
-8.87083
0.339507
-0.944354
-1.99196
-2.85978
-3.59109
-4.19941
-4.71195
-5.13619
-5.48794
-5.78441
-6.02447
-6.22942
-6.39609
-6.52303
-6.5862
-6.54226
-6.27132
-5.56212
-3.99831
0.384963
-0.828267
-1.7848
-2.56242
-3.20804
-3.73923
-4.17735
-4.5283
-4.80216
-5.00785
-5.1432
-5.21887
-5.22799
-5.16363
-5.00653
-4.72213
-4.23416
-3.41685
-2.02309
0.117968
-0.861086
-1.65703
-2.31356
-2.86015
-3.3101
-3.6765
-3.96355
-4.17675
-4.31956
-4.39076
-4.39424
-4.32398
-4.17287
-3.92858
-3.5671
-3.04425
-2.28906
-1.16038
-0.438178
-1.06226
-1.63688
-2.14192
-2.57533
-2.93856
-3.23428
-3.46367
-3.62806
-3.72674
-3.75953
-3.72572
-3.62073
-3.43822
-3.17104
-2.80258
-2.30863
-1.64988
-0.747224
-1.17778
-1.41556
-1.73639
-2.06741
-2.3748
-2.64448
-2.86794
-3.04176
-3.16313
-3.22793
-3.23616
-3.18388
-3.06739
-2.88087
-2.62017
-2.27317
-1.8271
-1.26017
-0.528354
-1.9523
-1.8546
-1.92886
-2.08103
-2.25705
-2.42905
-2.57865
-2.69711
-2.77766
-2.8132
-2.8031
-2.74111
-2.62378
-2.44538
-2.20322
-1.8877
-1.4922
-1.00444
-0.400001
-2.75392
-2.41905
-2.27433
-2.24657
-2.28097
-2.34286
-2.40754
-2.46135
-2.49396
-2.4957
-2.4644
-2.39215
-2.27494
-2.10674
-1.88499
-1.60134
-1.2519
-0.829179
-0.319097
-3.23578
-2.81415
-2.54021
-2.38348
-2.30569
-2.27515
-2.26635
-2.26307
-2.25288
-2.22455
-2.17443
-2.09378
-1.97803
-1.82098
-1.61989
-1.3673
-1.06058
-0.694849
-0.261683
-3.62959
-3.17157
-2.82
-2.56776
-2.39524
-2.27947
-2.19873
-2.13693
-2.08112
-2.01947
-1.94708
-1.8548
-1.73742
-1.58847
-1.40471
-1.17903
-0.909033
-0.590979
-0.219426
-4.0322
-3.57111
-3.17115
-2.84387
-2.58624
-2.3864
-2.2295
-2.10222
-1.99281
-1.88978
-1.78746
-1.67656
-1.55118
-1.40443
-1.23232
-1.02772
-0.787783
-0.508965
-0.187029
-4.14541
-3.74585
-3.3554
-3.00434
-2.7038
-2.45263
-2.24366
-2.06806
-1.91677
-1.77992
-1.65209
-1.52462
-1.39146
-1.24578
-1.08316
-0.896639
-0.682991
-0.43867
-0.15995
-4.17736
-3.84482
-3.4864
-3.13604
-2.81388
-2.52798
-2.27862
-2.06227
-1.87345
-1.70472
-1.55165
-1.40659
-1.26371
-1.11639
-0.959916
-0.78747
-0.595388
-0.379957
-0.137584
-4.17581
-3.90393
-3.5849
-3.24908
-2.91988
-2.61176
-2.33143
-2.08075
-1.85828
-1.6595
-1.48156
-1.31812
-1.16388
-1.01252
-0.859195
-0.69719
-0.522421
-0.330907
-0.118945
-4.08017
-3.87361
-3.60255
-3.2956
-2.97636
-2.66282
-2.3663
-2.09334
-1.84644
-1.62426
-1.42594
-1.24677
-1.08225
-0.926658
-0.775213
-0.621408
-0.460883
-0.289443
-0.103207
-3.88579
-3.74164
-3.5235
-3.2562
-2.96165
-2.65892
-2.36197
-2.08076
-1.8212
-1.58492
-1.37325
-1.18329
-1.01162
-0.853309
-0.703871
-0.557156
-0.408725
-0.254306
-0.0899058
-3.65509
-3.55107
-3.37969
-3.154
-2.89114
-2.60902
-2.3225
-2.04371
-1.78111
-1.53888
-1.3204
-1.12456
-0.949143
-0.790066
-0.643274
-0.503028
-0.364952
-0.22485
-0.0787678
-3.46164
-3.38982
-3.25414
-3.06197
-2.82598
-2.56223
-2.28583
-2.01032
-1.74622
-1.49985
-1.27633
-1.07614
-0.898061
-0.738744
-0.594419
-0.459592
-0.329873
-0.201178
-0.0697401
-3.11823
-3.08936
-2.99566
-2.84562
-2.64891
-2.41886
-2.16936
-1.91395
-1.66413
-1.42761
-1.2109
-1.01594
-0.842572
-0.688347
-0.54995
-0.422209
-0.300778
-0.181833
-0.0622923
-2.73531
-2.74031
-2.68452
-2.57459
-2.41792
-2.22522
-2.00866
-1.78093
-1.55363
-1.33519
-1.13288
-0.949745
-0.78652
-0.641591
-0.512113
-0.393126
-0.279995
-0.168713
-0.0570514
-2.33365
-2.36031
-2.33582
-2.26239
-2.14464
-1.9907
-1.81075
-1.61614
-1.41793
-1.22459
-1.04355
-0.878484
-0.730726
-0.599429
-0.482309
-0.374647
-0.271089
-0.166066
-0.0562684
-1.88602
-1.92309
-1.9239
-1.88524
-1.80804
-1.69725
-1.56059
-1.40742
-1.24759
-1.08892
-0.938266
-0.799451
-0.674028
-0.56189
-0.461651
-0.369435
-0.27948
-0.183464
-0.0708673
-1.37891
-1.35887
-1.31176
-1.23837
-1.14382
-1.03527
-0.920982
-0.808312
-0.703492
-0.610087
-0.529308
-0.460359
-0.400912
-0.348477
-0.300736
-0.254896
-0.206749
-0.148505
-0.0663804
-0.921606
-1.02272
-1.12966
-1.22305
-1.28959
-1.32124
-1.31651
-1.27834
-1.21374
-1.13079
-1.0367
-0.93806
-0.838752
-0.742816
-0.653451
-0.572862
-0.499749
-0.428918
-0.347179
-0.311121
-0.356829
-0.415835
-0.477271
-0.533037
-0.577424
-0.608388
-0.625779
-0.632018
-0.629901
-0.620434
-0.605014
-0.582097
-0.55182
-0.515522
-0.477652
-0.441226
-0.40971
-0.383037
0.300496
0.243763
0.162495
0.0668253
-0.0336323
-0.130973
-0.220259
-0.298895
-0.366966
-0.425607
-0.474396
-0.512963
-0.537781
-0.546616
-0.539182
-0.520505
-0.49583
-0.471644
-0.450285
0.910196
0.832599
0.721268
0.587589
0.442425
0.295176
0.152611
0.0187008
-0.105362
-0.219958
-0.324238
-0.416719
-0.492083
-0.544877
-0.57134
-0.575023
-0.562506
-0.543621
-0.523703
1.46018
1.34942
1.20124
1.02898
0.843922
0.655806
0.47168
0.29548
0.128342
-0.0305186
-0.180934
-0.321564
-0.446205
-0.546113
-0.612175
-0.64344
-0.645311
-0.630897
-0.610087
2.02869
1.8769
1.6871
1.47319
1.24689
1.01827
0.794397
0.5789
0.372497
0.173536
-0.0191912
-0.205923
-0.381429
-0.535213
-0.652191
-0.723538
-0.748533
-0.741223
-0.717813
2.45573
2.25705
2.02656
1.77779
1.52218
1.26872
1.02302
0.787116
0.560438
0.339873
0.122345
-0.0951523
-0.310631
-0.515194
-0.689952
-0.81649
-0.880466
-0.888669
-0.860709
2.85383
2.61521
2.3453
2.06283
1.77989
1.50434
1.2403
0.988382
0.747025
0.512045
0.278915
0.041617
-0.202918
-0.452003
-0.689408
-0.891937
-1.02713
-1.0804
-1.06209
3.22058
2.92986
2.61782
2.30347
1.99744
1.70537
1.4294
1.16865
0.920801
0.681172
0.444825
0.204089
-0.0486663
-0.319666
-0.603524
-0.886398
-1.12767
-1.28396
-1.31212
3.45608
3.08657
2.71093
2.3458
1.99885
1.67299
1.3683
1.08268
0.813313
0.555616
0.304795
0.0533274
-0.2082
-0.4926
-0.808927
-1.16619
-1.54739
-1.91744
-2.20977
3.60016
3.19733
2.81734
2.47024
2.15629
1.87269
1.61523
1.37949
1.16153
0.957514
0.764604
0.579353
0.397786
0.213594
0.0178084
-0.208011
-0.48201
-0.825021
-1.24518
3.70565
3.29037
2.92364
2.6009
2.31443
2.05763
1.82436
1.60989
1.41069
1.22377
1.04763
0.881255
0.723923
0.575687
0.437473
0.30848
0.186905
0.0655877
-0.0694129
3.50496
3.03133
2.63045
2.28634
1.98671
1.72281
1.48736
1.27489
1.08131
0.903055
0.738119
0.585078
0.442804
0.311195
0.191513
0.085189
-0.0050892
-0.0761323
-0.12645
3.07514
2.6448
2.28629
1.98253
1.72109
1.493
1.29116
1.11023
0.946374
0.796375
0.658426
0.531293
0.413895
0.305828
0.207389
0.118568
0.0396338
-0.0289064
-0.0873656
2.55384
2.19309
1.89181
1.63732
1.41945
1.23041
1.06405
0.91567
0.781926
0.660028
0.54834
0.445697
0.350969
0.263526
0.183265
0.109845
0.0432337
-0.0161734
-0.0685603
1.92231
1.64436
1.41454
1.22221
1.05883
0.917966
0.794617
0.685024
0.586546
0.496993
0.415053
0.339774
0.270208
0.205789
0.146377
0.0916936
0.0417523
-0.00303355
-0.0426963
1.21038
1.02506
0.876561
0.754673
0.652386
0.564856
0.488599
0.421074
0.360538
0.30556
0.255274
0.209043
0.166227
0.126431
0.0895339
0.0553487
0.0238933
-0.00451464
-0.0298172
0.464616
0.389766
0.331938
0.285117
0.245967
0.212457
0.183241
0.15737
0.1342
0.113202
0.0940374
0.0764477
0.0601667
0.0450105
0.0308883
0.0176877
0.00537014
-0.00598163
-0.0163536
-0.464393
-0.38927
-0.331258
-0.284316
-0.245092
-0.211544
-0.182319
-0.156463
-0.133328
-0.112382
-0.0932845
-0.0757742
-0.0595838
-0.0445277
-0.030513
-0.0174258
-0.00522544
0.00600872
0.016265
-1.21018
-1.02462
-0.875965
-0.753974
-0.651627
-0.56407
-0.487812
-0.420309
-0.359812
-0.304891
-0.254674
-0.208524
-0.165801
-0.126105
-0.0893145
-0.0552415
-0.0239009
0.00439319
0.0295857
-1.9221
-1.64393
-1.41396
-1.22151
-1.05807
-0.917159
-0.793797
-0.684212
-0.585762
-0.496253
-0.41437
-0.33916
-0.26967
-0.205334
-0.146008
-0.09141
-0.0415525
0.00315466
0.0427456
-2.55368
-2.19279
-1.89141
-1.63685
-1.41892
-1.22986
-1.0635
-0.915138
-0.781427
-0.659576
-0.547948
-0.445373
-0.35072
-0.263356
-0.183175
-0.109833
-0.0432949
0.0160452
0.0683727
-3.07504
-2.64461
-2.28602
-1.9822
-1.72071
-1.4926
-1.29075
-1.10984
-0.946003
-0.796045
-0.65815
-0.53108
-0.413751
-0.305757
-0.207389
-0.118633
-0.0397514
0.0287533
0.0871991
-3.50496
-3.03128
-2.63034
-2.28617
-1.98651
-1.72259
-1.48714
-1.27469
-1.08114
-0.902943
-0.738074
-0.585113
-0.442931
-0.311422
-0.19184
-0.0856021
0.00463043
0.0756964
0.126117
-3.70564
-3.29006
-2.92294
-2.59976
-2.31286
-2.05566
-1.82204
-1.60727
-1.40782
-1.2207
-1.04439
-0.87788
-0.720432
-0.572092
-0.433802
-0.304824
-0.183484
-0.0628704
0.0706565
-3.6008
-3.19905
-2.82017
-2.47415
-2.16122
-1.87855
-1.62192
-1.38692
-1.1696
-0.966169
-0.77381
-0.589128
-0.408215
-0.224868
-0.0302324
0.193994
0.465979
0.806822
1.22531
-3.45581
-3.08584
-2.70968
-2.34401
-1.99656
-1.67025
-1.36517
-1.07924
-0.809633
-0.551767
-0.300844
-0.049343
0.212148
0.496462
0.812731
1.17014
1.55205
1.92374
2.21896
-3.22081
-2.93039
-2.61861
-2.30447
-1.9986
-1.70664
-1.43076
-1.17008
-0.922267
-0.682674
-0.446367
-0.205679
0.0470351
0.318053
0.602087
0.885429
1.12752
1.28483
1.31373
-2.85396
-2.61554
-2.3458
-2.06345
-1.78061
-1.50514
-1.24115
-0.989279
-0.747951
-0.512993
-0.279879
-0.0425793
0.202008
0.451252
0.688984
0.892028
1.02782
1.0816
1.06354
-2.45588
-2.25739
-2.02707
-1.77843
-1.52293
-1.26956
-1.0239
-0.788023
-0.561351
-0.340772
-0.123209
0.0943621
0.309982
0.514787
0.689895
0.816848
0.881198
0.88963
0.861731
-2.02882
-1.87723
-1.68761
-1.47386
-1.24768
-1.01913
-0.795304
-0.579818
-0.373397
-0.174387
0.0184202
0.205278
0.380972
0.535015
0.652296
0.72394
0.749156
0.741963
0.718594
-1.4603
-1.34973
-1.20173
-1.02962
-0.844676
-0.656632
-0.472539
-0.296332
-0.129153
0.0297818
0.180306
0.321087
0.445923
0.546064
0.612364
0.643832
0.64584
0.631498
0.610724
-0.910328
-0.832926
-0.721781
-0.588257
-0.443208
-0.296025
-0.153479
-0.0195411
0.104588
0.219286
0.3237
0.416348
0.491905
0.544901
0.571552
0.575383
0.562963
0.544136
0.524258
-0.300609
-0.244073
-0.162991
-0.0674767
0.032873
0.130159
0.219444
0.298127
0.366285
0.425046
0.473981
0.512713
0.537706
0.546709
0.539419
0.520851
0.496251
0.47212
0.450813
0.310855
0.356029
0.414479
0.475406
0.530765
0.574884
0.605732
0.62315
0.62954
0.627671
0.618511
0.603433
0.580859
0.5509
0.514874
0.477234
0.441007
0.409711
0.383359
0.921789
1.02342
1.131
1.22506
1.29223
1.3244
1.32004
1.28206
1.21749
1.13445
1.04015
0.941251
0.841644
0.745411
0.655772
0.574952
0.501652
0.430672
0.348791
1.37871
1.35816
1.31053
1.23668
1.14177
1.033
0.918633
0.806003
0.70132
0.608124
0.527592
0.458902
0.39971
0.34751
0.299977
0.254317
0.206328
0.14823
0.066265
1.88613
1.92332
1.92425
1.88567
1.80853
1.69775
1.56108
1.40786
1.24797
1.08921
0.938485
0.799602
0.674123
0.561943
0.461674
0.369438
0.279471
0.18345
0.070861
2.33367
2.36034
2.33585
2.26243
2.14468
1.99074
1.81078
1.61616
1.41794
1.22458
1.04354
0.878459
0.730697
0.599399
0.482281
0.374622
0.271069
0.166054
0.0562661
2.73533
2.74033
2.68455
2.57462
2.41795
2.22525
2.00868
1.78094
1.55363
1.33518
1.13286
0.949722
0.786495
0.641567
0.512092
0.393109
0.279983
0.168706
0.0570499
3.11824
3.08938
2.99568
2.84564
2.64893
2.41887
2.16937
1.91395
1.66412
1.4276
1.21088
1.01592
0.842552
0.688328
0.549934
0.422197
0.300769
0.181829
0.062291
3.46166
3.38984
3.25417
3.06199
2.826
2.56224
2.28583
2.01031
1.74621
1.49984
1.27631
1.07613
0.898044
0.738729
0.594407
0.459583
0.329867
0.201174
0.069739
3.65511
3.55108
3.37971
3.15402
2.89116
2.60903
2.32251
2.0437
1.7811
1.53887
1.32038
1.12455
0.949129
0.790053
0.643263
0.503019
0.364945
0.224846
0.0787667
3.8858
3.74165
3.52352
3.25621
2.96166
2.65893
2.36197
2.08075
1.82119
1.58491
1.37323
1.18327
1.01161
0.853297
0.70386
0.557148
0.408718
0.254301
0.0899047
4.08018
3.87362
3.60257
3.29561
2.97637
2.66282
2.3663
2.09333
1.84644
1.62425
1.42592
1.24675
1.08224
0.926646
0.775202
0.621398
0.460876
0.289439
0.103206
4.17581
3.90393
3.5849
3.24909
2.91988
2.61176
2.33143
2.08074
1.85826
1.65948
1.48155
1.31811
1.16386
1.0125
0.859183
0.69718
0.522413
0.330902
0.118944
4.17737
3.84484
3.48642
3.13605
2.81389
2.52798
2.27861
2.06226
1.87344
1.70471
1.55164
1.40657
1.2637
1.11637
0.959904
0.78746
0.59538
0.379953
0.137583
4.14542
3.74586
3.35542
3.00435
2.70381
2.45264
2.24366
2.06805
1.91676
1.77991
1.65208
1.5246
1.39145
1.24577
1.08315
0.896631
0.682986
0.438668
0.159951
4.03219
3.5711
3.17114
2.84386
2.58623
2.38639
2.22948
2.1022
1.99279
1.88977
1.78744
1.67654
1.55116
1.40442
1.23231
1.02771
0.787779
0.508964
0.18703
3.62961
3.17159
2.82001
2.56777
2.39524
2.27947
2.19873
2.13692
2.08111
2.01946
1.94707
1.85479
1.73741
1.58846
1.4047
1.17903
0.909033
0.590981
0.219428
3.23582
2.81417
2.54022
2.38349
2.30569
2.27514
2.26635
2.26306
2.25287
2.22454
2.17442
2.09377
1.97803
1.82097
1.61989
1.36731
1.06059
0.694855
0.261686
2.75395
2.41907
2.27433
2.24657
2.28096
2.34285
2.40754
2.46134
2.49396
2.49569
2.46439
2.39214
2.27494
2.10674
1.88499
1.60135
1.25191
0.829187
0.319099
1.95232
1.85461
1.92886
2.08103
2.25705
2.42904
2.57864
2.69711
2.77765
2.81319
2.80309
2.74111
2.62378
2.44539
2.20323
1.88772
1.49221
1.00445
0.400002
1.1778
1.41557
1.7364
2.06741
2.37481
2.64448
2.86794
3.04175
3.16313
3.22793
3.23616
3.18388
3.0674
2.88088
2.62019
2.27319
1.82711
1.26017
0.528353
0.438191
1.06227
1.63689
2.14193
2.57534
2.93856
3.23428
3.46367
3.62806
3.72674
3.75953
3.72572
3.62074
3.43823
3.17106
2.80259
2.30864
1.64988
0.747222
-0.117961
0.861095
1.65704
2.31357
2.86015
3.31011
3.6765
3.96355
4.17676
4.31957
4.39077
4.39425
4.32399
4.17288
3.9286
3.56711
3.04425
2.28906
1.16037
-0.384961
0.828273
1.78481
2.56242
3.20804
3.73923
4.17735
4.5283
4.80216
5.00785
5.14321
5.21887
5.228
5.16364
5.00653
4.72213
4.23416
3.41685
2.02309
-0.339509
0.944356
1.99196
2.85978
3.59109
4.19941
4.71195
5.13619
5.48795
5.78441
6.02447
6.22942
6.39609
6.52303
6.5862
6.54225
6.27131
5.56211
3.9983
-0.0613412
1.15857
2.24158
3.17518
3.98051
4.6617
5.25016
5.75715
6.20619
6.62869
7.02945
7.44791
7.89969
8.40715
8.9584
9.52914
9.96869
9.96816
8.87083
0.277653
1.39299
2.49294
3.48177
4.35175
5.0996
5.7599
6.35503
6.91613
7.50264
8.13229
8.87681
9.81981
11.0813
12.8018
15.3318
19.2105
25.6019
36.9131
)
;

boundaryField
{
    up
    {
        type            calculated;
        value           nonuniform List<scalar> 
84
(
-36.9131
-8.87083
-3.99831
-2.02309
-1.16038
-0.747224
-0.528354
-0.400001
-0.319097
-0.261683
-0.219426
-0.187029
-0.15995
-0.137584
-0.118945
-0.103207
-0.0899058
-0.0787678
-0.0697401
-0.0622923
-0.0570514
-0.0562684
-0.0708673
-0.0663804
-0.296341
-0.357238
-0.424033
-0.494464
-0.576097
-0.676828
-0.807678
-0.980645
-1.18517
-2.18172
-1.28606
-0.0717643
-0.12618
-0.0871424
-0.068433
-0.0426516
-0.0298028
-0.0163563
0.0162678
0.0295717
0.0427014
0.0682465
0.0869772
0.125847
0.0729749
1.26568
2.19259
1.18661
0.981907
0.808623
0.67757
0.576713
0.495009
0.424562
0.357708
0.2978
0.066265
0.070861
0.0562661
0.0570499
0.062291
0.069739
0.0787667
0.0899047
0.103206
0.118944
0.137583
0.159951
0.18703
0.219428
0.261686
0.319099
0.400002
0.528353
0.747222
1.16037
2.02309
3.9983
8.87083
36.9131
)
;
    }
    low
    {
        type            calculated;
        value           nonuniform List<scalar> 
84
(
-0.250206
0.102847
0.406628
0.458035
0.16398
-0.446704
-1.24808
-2.07054
-2.8908
-3.34823
-3.72804
-4.11086
-4.17792
-4.18133
-4.1617
-4.03989
-3.82324
-3.58674
-3.37946
-3.0107
-2.61569
-2.21201
-1.7676
-1.27538
-0.840944
-0.282053
0.267394
0.827832
1.35434
1.92255
2.3684
2.78247
3.17265
3.43878
3.60737
3.74189
3.57192
3.14749
2.61878
1.97423
1.24488
0.479072
-0.478848
-1.24467
-1.97401
-2.6186
-3.14736
-3.57188
-3.74184
-3.60791
-3.43852
-3.17282
-2.7826
-2.36853
-1.92269
-1.35446
-0.82797
-0.267509
0.281794
0.841124
1.27519
1.7677
2.21203
2.61571
3.01071
3.37948
3.58675
3.82324
4.0399
4.1617
4.18134
4.17794
4.11085
3.72805
3.34826
2.89083
2.07056
1.24809
0.446718
-0.163973
-0.458036
-0.406634
-0.102851
0.250207
)
;
    }
    left
    {
        type            calculated;
        value           nonuniform List<scalar> 
19
(
-0.246496
-1.33749
-2.45991
-3.483
-4.39046
-5.17321
-5.86845
-6.50231
-7.10577
-7.75325
-8.46193
-9.31237
-10.4135
-11.9259
-14.0258
-17.206
-22.2149
-30.6784
-32.0156
)
;
    }
    right
    {
        type            calculated;
        value           nonuniform List<scalar> 
19
(
0.246499
1.33749
2.45991
3.483
4.39046
5.17321
5.86845
6.50231
7.10578
7.75325
8.46192
9.31236
10.4135
11.9258
14.0258
17.206
22.2149
30.6785
32.0156
)
;
    }
    frontAndBackPlanes
    {
        type            empty;
    }
}


// ************************************************************************* //
