/*--------------------------------*- C++ -*----------------------------------*\
  =========                 |
  \\      /  F ield         | OpenFOAM: The Open Source CFD Toolbox
   \\    /   O peration     | Website:  https://openfoam.org
    \\  /    A nd           | Version:  7
     \\/     M anipulation  |
\*---------------------------------------------------------------------------*/
FoamFile
{
    version     2.0;
    format      ascii;
    class       volScalarField;
    location    "0.02";
    object      gradTx;
}
// * * * * * * * * * * * * * * * * * * * * * * * * * * * * * * * * * * * * * //

dimensions      [0 -1 0 1 0 0 0];

internalField   nonuniform List<scalar> 
1596
(
-1.7007
-8.23924
-13.3207
-16.2997
-17.7174
-18.2028
-18.2905
-18.1944
-18.0068
-17.8028
-17.5058
-17.1546
-16.7592
-16.373
-16.0978
-16.3744
-17.8969
-21.9649
-30.7798
0.88499
-5.3418
-9.94576
-12.6582
-13.9792
-14.454
-14.5511
-14.4695
-14.3201
-14.1554
-13.9492
-13.7371
-13.4874
-13.174
-12.715
-12.0478
-11.0649
-9.69819
-7.69326
2.90565
-2.06512
-5.70849
-7.91156
-9.0209
-9.4487
-9.55493
-9.51387
-9.42681
-9.33517
-9.24267
-9.17705
-9.1181
-9.04363
-8.87983
-8.48931
-7.65363
-6.1674
-3.81804
3.27068
0.109991
-2.36405
-3.96555
-4.82532
-5.19291
-5.30869
-5.30964
-5.27628
-5.24084
-5.21943
-5.23023
-5.26773
-5.32558
-5.37037
-5.29629
-4.90762
-3.94877
-2.15095
2.06724
0.710352
-0.604198
-1.58563
-2.17354
-2.45813
-2.56728
-2.59191
-2.58841
-2.58043
-2.58471
-2.61183
-2.66312
-2.7408
-2.83975
-2.90601
-2.81818
-2.3628
-1.2607
-0.0475399
0.0636024
-0.206592
-0.573658
-0.863572
-1.03385
-1.11256
-1.13971
-1.14629
-1.14704
-1.15419
-1.17342
-1.20724
-1.25923
-1.33432
-1.41339
-1.4404
-1.2806
-0.711304
-2.43357
-1.27966
-0.664577
-0.437956
-0.403802
-0.427689
-0.45257
-0.465603
-0.470702
-0.472184
-0.476262
-0.485547
-0.501717
-0.527049
-0.566709
-0.616762
-0.658299
-0.623772
-0.371064
-4.65264
-2.83628
-1.52409
-0.757245
-0.391558
-0.246926
-0.199975
-0.187315
-0.184626
-0.18397
-0.185188
-0.188559
-0.194694
-0.204537
-0.221031
-0.244476
-0.271061
-0.273379
-0.176296
-6.79487
-4.60013
-2.70838
-1.40305
-0.660063
-0.300196
-0.149936
-0.0944637
-0.0761832
-0.0704981
-0.0692315
-0.069777
-0.0715617
-0.074667
-0.0802815
-0.0890622
-0.101335
-0.1082
-0.0759831
-8.08284
-5.86289
-3.68056
-2.01499
-0.976969
-0.428636
-0.17863
-0.0778144
-0.041464
-0.0294504
-0.0258497
-0.02502
-0.0252053
-0.0259437
-0.0275118
-0.0301989
-0.0347124
-0.0388635
-0.029722
-9.17075
-6.9449
-4.56161
-2.61026
-1.31588
-0.591656
-0.242337
-0.0935112
-0.0368129
-0.0171635
-0.0108875
-0.00905075
-0.00860918
-0.0086282
-0.00895488
-0.00961208
-0.0109714
-0.0127185
-0.0105673
-10.3532
-8.10909
-5.51627
-3.27108
-1.70706
-0.792201
-0.331579
-0.12706
-0.0458774
-0.0166128
-0.00689534
-0.00390018
-0.00303296
-0.00280693
-0.00280302
-0.00290942
-0.00323765
-0.00381776
-0.00342212
-10.8899
-8.78412
-6.13514
-3.73161
-1.99598
-0.948855
-0.405925
-0.158033
-0.0568613
-0.019365
-0.00657506
-0.00252194
-0.00130606
-0.000956063
-0.000864754
-0.000850656
-0.000906086
-0.0010628
-0.00101528
-11.2663
-9.26735
-6.58272
-4.06589
-2.20692
-1.06473
-0.462159
-0.182412
-0.0662798
-0.022469
-0.0072585
-0.00234669
-0.000846284
-0.00040714
-0.000282709
-0.000246428
-0.00024427
-0.000277522
-0.000277682
-11.6107
-9.66906
-6.92782
-4.3079
-2.35214
-1.14174
-0.498762
-0.198214
-0.0725035
-0.0246717
-0.00791543
-0.00244723
-0.000759003
-0.000260661
-0.000118269
-7.71395e-05
-6.57459e-05
-6.92278e-05
-7.05599e-05
-11.7562
-9.89037
-7.10768
-4.4178
-2.40783
-1.16674
-0.509032
-0.202209
-0.0739909
-0.0251875
-0.00807189
-0.00247059
-0.000734859
-0.000220535
-7.32681e-05
-3.15182e-05
-1.95301e-05
-1.72085e-05
-1.6909e-05
-11.6537
-9.87359
-7.07805
-4.36732
-2.35862
-1.13247
-0.489925
-0.193209
-0.0702737
-0.023802
-0.00759608
-0.0023124
-0.000679115
-0.000195777
-5.7536e-05
-1.86499e-05
-7.70575e-06
-4.75466e-06
-3.95972e-06
-11.4522
-9.70177
-6.88962
-4.189
-2.22495
-1.05078
-0.447608
-0.174082
-0.062546
-0.0209576
-0.00662711
-0.00200061
-0.000582202
-0.000165253
-4.66649e-05
-1.3519e-05
-4.31772e-06
-1.75834e-06
-9.97762e-07
-11.3815
-9.62524
-6.73409
-4.00652
-2.07706
-0.957405
-0.398519
-0.151718
-0.0534627
-0.0176008
-0.00547816
-0.00163006
-0.000467996
-0.00013096
-3.62482e-05
-1.00678e-05
-2.89463e-06
-9.15868e-07
-3.24219e-07
-10.836
-9.21184
-6.35235
-3.68797
-1.85799
-0.831629
-0.336461
-0.124729
-0.0428898
-0.0138074
-0.00421138
-0.00123022
-0.000347294
-9.56558e-05
-2.605e-05
-7.08033e-06
-1.95451e-06
-5.59309e-07
-1.47539e-07
-10.0638
-8.59447
-5.82779
-3.28859
-1.60222
-0.692692
-0.270927
-0.0972853
-0.0324825
-0.0101788
-0.00302961
-0.000865519
-0.000239431
-6.47296e-05
-1.73229e-05
-4.62432e-06
-1.24798e-06
-3.43054e-07
-8.0621e-08
-9.08996
-7.78821
-5.18416
-2.83623
-1.33186
-0.553972
-0.208562
-0.0722225
-0.0233138
-0.00708231
-0.00204931
-0.000570619
-0.000154212
-4.08137e-05
-1.07119e-05
-2.8072e-06
-7.4356e-07
-1.99856e-07
-4.50982e-08
-7.75653
-6.67411
-4.37044
-2.3232
-1.05309
-0.421664
-0.152774
-0.0509744
-0.0158888
-0.0046728
-0.00131281
-0.000355931
-9.39219e-05
-2.43342e-05
-6.26769e-06
-1.61526e-06
-4.21581e-07
-1.12e-07
-2.5289e-08
-5.92235
-4.94985
-3.11531
-1.58335
-0.685251
-0.262082
-0.0908103
-0.0290082
-0.00866219
-0.00244069
-0.000656769
-0.000170417
-4.2998e-05
-1.06438e-05
-2.6186e-06
-6.45444e-07
-1.62369e-07
-4.30511e-08
-1.11047e-08
-3.99305
-3.57877
-2.40547
-1.29306
-0.586498
-0.233527
-0.0840428
-0.0279137
-0.00870486
-0.00258004
-0.00073534
-0.00020386
-5.53703e-05
-1.48525e-05
-3.96955e-06
-1.06762e-06
-2.92904e-07
-8.72057e-08
-3.4047e-08
-1.28759
-1.15203
-0.843106
-0.507172
-0.257964
-0.114448
-0.0455008
-0.0165443
-0.00560281
-0.00179119
-0.000547481
-0.000162134
-4.68974e-05
-1.33638e-05
-3.78164e-06
-1.0707e-06
-3.08322e-07
-9.93377e-08
-4.60158e-08
1.5272
1.31249
0.754498
0.311126
0.0908434
0.0138479
-0.00374308
-0.00431084
-0.00233807
-0.000994197
-0.000369541
-0.000126597
-4.10113e-05
-1.28105e-05
-3.90724e-06
-1.16694e-06
-3.45789e-07
-1.18212e-07
-6.71129e-08
4.20124
3.67168
2.36567
1.19775
0.499265
0.175989
0.0529368
0.0133934
0.00265437
0.000280274
-7.52791e-05
-6.66369e-05
-3.1077e-05
-1.19667e-05
-4.18172e-06
-1.34558e-06
-3.88761e-07
-1.22181e-07
-9.48137e-08
6.34337
5.55047
3.7372
2.03085
0.926716
0.364877
0.126141
0.0386207
0.0104651
0.0024593
0.000471861
5.37202e-05
-9.98379e-06
-1.04396e-05
-5.21597e-06
-2.07519e-06
-6.3912e-07
-1.40294e-07
-1.31198e-07
8.2053
7.12375
4.94251
2.8328
1.38384
0.589899
0.223257
0.0758884
0.0233381
0.00648694
0.00161857
0.000346864
5.39355e-05
-1.25099e-06
-6.553e-06
-4.19091e-06
-1.78314e-06
-4.15796e-07
-1.79554e-07
9.24245
8.00141
5.71558
3.4436
1.79259
0.822445
0.338033
0.126017
0.0430595
0.0135633
0.00396556
0.00106893
0.000258424
4.92923e-05
1.84894e-06
-5.9483e-06
-4.44351e-06
-1.60301e-06
-1.64202e-07
9.98191
8.65401
6.34608
3.99864
2.20589
1.08359
0.481261
0.195768
0.0738616
0.0261083
0.00877201
0.002828
0.000882476
0.000265159
7.41432e-05
1.49673e-05
-6.50618e-07
-1.66601e-06
6.40219e-07
10.4807
9.07157
6.80012
4.46056
2.59728
1.36182
0.652208
0.2891
0.120311
0.0476366
0.0182972
0.00694292
0.00265873
0.00104652
0.000431349
0.000181719
7.81809e-05
3.64654e-05
2.64989e-05
10.5239
9.03711
6.85668
4.62354
2.79852
1.53681
0.774337
0.361682
0.158375
0.0656594
0.0261544
0.0101522
0.00390971
0.0015215
0.000612784
0.000246217
8.99776e-05
1.69052e-05
-6.0328e-06
10.3003
8.85367
6.85708
4.80437
3.06773
1.80064
0.980933
0.500483
0.24156
0.111279
0.0494873
0.0214882
0.00920824
0.00393694
0.00170144
0.000733764
0.000295366
6.55552e-05
-8.2715e-05
9.99668
8.58313
6.73322
4.83621
3.19903
1.96369
1.12843
0.612212
0.316564
0.157347
0.0759452
0.0359883
0.0168954
0.00793626
0.00377177
0.0018172
0.000874587
0.000385135
8.57384e-05
9.01008
7.55849
5.83991
4.15813
2.74184
1.68621
0.975256
0.534818
0.280682
0.142162
0.0701886
0.034158
0.0165296
0.00802919
0.00395323
0.00197042
0.000970595
0.000424624
7.80505e-05
7.61059
6.36804
4.92908
3.53232
2.35473
1.47004
0.866265
0.485593
0.261268
0.136017
0.0691898
0.0347671
0.017405
0.00875983
0.00447266
0.00231073
0.00117651
0.000529514
0.000100736
6.13579
5.13657
3.9842
2.86884
1.9272
1.21594
0.726115
0.413525
0.226581
0.12039
0.0626352
0.0322539
0.0165771
0.00857804
0.00450685
0.00239424
0.0012494
0.000572118
0.000106896
4.51953
3.77617
2.93072
2.11713
1.43051
0.910006
0.549133
0.316673
0.176039
0.0950668
0.0503563
0.0264428
0.0138787
0.00734254
0.00394666
0.00214427
0.00114275
0.000534305
0.000106467
2.8054
2.32507
1.79856
1.29914
0.879833
0.562081
0.341198
0.198227
0.111168
0.06064
0.0324834
0.0172695
0.00918594
0.00492895
0.00268776
0.00148014
0.000796964
0.000373137
6.88748e-05
1.06584
0.871384
0.668774
0.480487
0.324068
0.206327
0.124879
0.0723612
0.0404825
0.022032
0.0117754
0.00624635
0.00331506
0.00177461
0.000964999
0.000529043
0.000281755
0.000126876
1.3663e-05
-1.06531
-0.87023
-0.667356
-0.479105
-0.322903
-0.205444
-0.124261
-0.0719555
-0.040229
-0.0218794
-0.0116858
-0.00619444
-0.00328512
-0.00175726
-0.000954819
-0.000523036
-0.000278292
-0.000125125
-1.32535e-05
-2.8049
-2.32405
-1.79734
-1.29799
-0.878881
-0.561376
-0.340716
-0.197917
-0.110978
-0.0605283
-0.0324191
-0.0172329
-0.00916516
-0.00491711
-0.00268092
-0.00147619
-0.000794763
-0.000372126
-6.88095e-05
-4.51901
-3.77518
-2.92959
-2.11611
-1.42971
-0.909433
-0.548756
-0.31644
-0.175902
-0.0949889
-0.050313
-0.0264191
-0.0138657
-0.00733536
-0.00394264
-0.00214199
-0.00114145
-0.000533596
-0.000106151
-6.13534
-5.13584
-3.98348
-2.86828
-1.92685
-1.21575
-0.726029
-0.413495
-0.226575
-0.120393
-0.0626405
-0.0322586
-0.0165805
-0.00858032
-0.00450833
-0.0023952
-0.00125
-0.000572466
-0.000107029
-7.61023
-6.36752
-4.92871
-3.53218
-2.35478
-1.47019
-0.866432
-0.485736
-0.261373
-0.136087
-0.0692331
-0.0347929
-0.0174199
-0.0087683
-0.00447747
-0.00231347
-0.00117804
-0.000530271
-0.000100907
-9.00987
-7.55826
-5.83996
-4.15847
-2.74235
-1.68675
-0.975709
-0.535152
-0.280905
-0.1423
-0.070269
-0.0342029
-0.016554
-0.00804217
-0.00396012
-0.00197409
-0.000972505
-0.000425494
-7.8206e-05
-9.99635
-8.5822
-6.73216
-4.83533
-3.19845
-1.96338
-1.1283
-0.612174
-0.316567
-0.157361
-0.0759587
-0.0359979
-0.0169013
-0.00793969
-0.00377367
-0.0018182
-0.000875019
-0.000385204
-8.55758e-05
-10.3017
-8.85769
-6.8634
-4.81163
-3.0745
-1.80605
-0.984757
-0.502923
-0.242994
-0.112066
-0.0498973
-0.0216939
-0.00930903
-0.00398586
-0.00172538
-0.000745826
-0.000301759
-6.91058e-05
8.12373e-05
-10.5231
-9.03598
-6.85617
-4.62376
-2.79912
-1.53741
-0.774758
-0.361909
-0.158469
-0.0656839
-0.0261516
-0.0101427
-0.00390123
-0.00151566
-0.000609234
-0.000244182
-8.87166e-05
-1.59547e-05
6.3329e-06
-10.4812
-9.07335
-6.80329
-4.46425
-2.60058
-1.36424
-0.653741
-0.289961
-0.120754
-0.0478502
-0.0183967
-0.00698876
-0.00268013
-0.00105683
-0.000436581
-0.000184513
-7.97192e-05
-3.73654e-05
-2.79239e-05
-9.98215
-8.65541
-6.34877
-4.00176
-2.20855
-1.08542
-0.482335
-0.19632
-0.0741187
-0.0262194
-0.00881771
-0.00284618
-0.000889505
-0.000267745
-7.498e-05
-1.51209e-05
6.96929e-07
1.70499e-06
-6.13841e-07
-9.24273
-8.00289
-5.71825
-3.44651
-1.7949
-0.82392
-0.338825
-0.126389
-0.0432165
-0.013624
-0.00398741
-0.00107619
-0.000260525
-4.96702e-05
-1.69972e-06
6.22753e-06
4.67585e-06
1.67755e-06
2.87774e-07
-8.20562
-7.12529
-4.9451
-2.83541
-1.38576
-0.591026
-0.223811
-0.0761252
-0.0234283
-0.00651797
-0.00162822
-0.000349437
-5.43922e-05
1.3367e-06
6.73052e-06
4.3523e-06
1.8925e-06
4.36433e-07
2.23202e-07
-6.34371
-5.55195
-3.73948
-2.03297
-0.928143
-0.365642
-0.126485
-0.0387543
-0.0105111
-0.00247336
-0.000475598
-5.44776e-05
9.95216e-06
1.0525e-05
5.28739e-06
2.12052e-06
6.61169e-07
1.34216e-07
1.41644e-07
-4.20172
-3.67319
-2.36764
-1.19937
-0.500242
-0.176461
-0.0531285
-0.0134607
-0.00267506
-0.00028576
7.41144e-05
6.6511e-05
3.11239e-05
1.20058e-05
4.19666e-06
1.34709e-06
3.84428e-07
1.13688e-07
9.69474e-08
-1.52772
-1.31384
-0.755968
-0.312161
-0.0913897
-0.0140805
0.00365992
0.00428542
0.00233154
0.000992939
0.000369464
0.00012668
4.10643e-05
1.28272e-05
3.90625e-06
1.16065e-06
3.39565e-07
1.13386e-07
6.76503e-08
1.28638
1.14958
0.840972
0.505927
0.257405
0.114241
0.0454353
0.0165264
0.00559864
0.00179046
0.000547429
0.000162161
4.6909e-05
1.33614e-05
3.77483e-06
1.06441e-06
3.04024e-07
9.69464e-08
4.59568e-08
3.99326
3.57991
2.4069
1.29414
0.587098
0.233801
0.0841516
0.0279533
0.00871841
0.0025845
0.000736752
0.00020429
5.54929e-05
1.48832e-05
3.97478e-06
1.06706e-06
2.91771e-07
8.65504e-08
3.39976e-08
5.92132
4.9475
3.11308
1.58189
0.684506
0.261762
0.0906898
0.0289672
0.00864926
0.00243682
0.000655636
0.000170083
4.28958e-05
1.06106e-05
2.60708e-06
6.41237e-07
1.60829e-07
4.25401e-08
1.09996e-08
7.75684
6.67466
4.37096
2.32353
1.05326
0.421732
0.1528
0.0509838
0.0158919
0.00467373
0.00131306
0.00035599
9.39324e-05
2.43348e-05
6.267e-06
1.6148e-06
4.21374e-07
1.11928e-07
2.52662e-08
9.08991
7.78817
5.18414
2.83621
1.33185
0.553963
0.208559
0.0722221
0.023314
0.00708254
0.00204943
0.00057067
0.000154231
4.08202e-05
1.0714e-05
2.80786e-06
7.43753e-07
1.99908e-07
4.51013e-08
10.0637
8.59444
5.82778
3.28859
1.60221
0.692685
0.270923
0.0972845
0.0324827
0.0101791
0.00302983
0.000865632
0.00023948
6.4749e-05
1.733e-05
4.62677e-06
1.24873e-06
3.43262e-07
8.06437e-08
10.8359
9.21181
6.35234
3.68797
1.85799
0.831623
0.336457
0.124728
0.0428898
0.0138078
0.00421171
0.00123041
0.000347383
9.56928e-05
2.60641e-05
7.08518e-06
1.95575e-06
5.59552e-07
1.47513e-07
11.3815
9.62523
6.7341
4.00653
2.07707
0.957402
0.398515
0.151717
0.0534628
0.0176013
0.00547861
0.00163033
0.000468127
0.000131016
3.62696e-05
1.00741e-05
2.89463e-06
9.15306e-07
3.23954e-07
11.4522
9.70176
6.88963
4.18901
2.22496
1.05078
0.447605
0.174081
0.0625462
0.0209583
0.00662765
0.00200093
0.00058236
0.000165321
4.66887e-05
1.35197e-05
4.30832e-06
1.75423e-06
9.97515e-07
11.6537
9.87358
7.07805
4.36733
2.35863
1.13247
0.489924
0.193208
0.0702739
0.0238025
0.00759655
0.00231269
0.000679255
0.000195835
5.75432e-05
1.8617e-05
7.65738e-06
4.74217e-06
3.96495e-06
11.7563
9.89038
7.1077
4.41782
2.40785
1.16675
0.509034
0.20221
0.0739911
0.0251877
0.00807209
0.00247072
0.000734921
0.000220546
7.32026e-05
3.13565e-05
1.93533e-05
1.71952e-05
1.6953e-05
11.6106
9.66906
6.92782
4.30791
2.35215
1.14175
0.498767
0.198216
0.0725039
0.0246716
0.0079153
0.00244715
0.000758952
0.000260557
0.000117961
7.65655e-05
6.5224e-05
6.932e-05
7.07801e-05
11.2664
9.26737
6.58274
4.06591
2.20694
1.06475
0.462168
0.182415
0.0662806
0.0224687
0.00725804
0.00234639
0.000846081
0.000406725
0.000281669
0.000244745
0.000243044
0.000278234
0.0002785
10.89
8.78415
6.13517
3.73164
1.996
0.948875
0.405937
0.158037
0.0568619
0.0193643
0.0065743
0.00252146
0.00130556
0.000954767
0.000861848
0.000846614
0.000904035
0.00106577
0.00101764
10.3532
8.10909
5.51628
3.27108
1.70707
0.792216
0.331588
0.127063
0.0458775
0.0166119
0.00689457
0.00389958
0.00303169
0.00280348
0.00279641
0.00290193
0.00323627
0.00382666
0.00342733
9.17082
6.94498
4.56166
2.6103
1.31591
0.591673
0.242346
0.0935145
0.0368134
0.0171631
0.0108869
0.00904961
0.00860588
0.0086207
0.0089434
0.00960309
0.0109762
0.0127381
0.0105754
8.08294
5.86298
3.68063
2.01503
0.976992
0.428647
0.178634
0.0778149
0.0414634
0.0294495
0.0258484
0.0250169
0.0251983
0.0259317
0.0274994
0.0301982
0.0347331
0.038893
0.0297281
6.79496
4.6002
2.70843
1.40308
0.660075
0.300198
0.149934
0.0944612
0.0761812
0.0704962
0.0692283
0.0697706
0.0715513
0.0746562
0.0802823
0.0890874
0.101376
0.10822
0.0759749
4.65271
2.83633
1.52412
0.757256
0.391554
0.246917
0.199967
0.18731
0.184622
0.183966
0.185182
0.188551
0.194687
0.204542
0.221065
0.244537
0.2711
0.273344
0.176261
2.43363
1.27971
0.664599
0.437954
0.403788
0.427674
0.452559
0.465596
0.470695
0.472177
0.476254
0.485542
0.501726
0.527088
0.566782
0.616829
0.658278
0.623644
0.371012
0.0475902
-0.0635782
0.206592
0.573643
0.863551
1.03383
1.11255
1.1397
1.14628
1.14703
1.15419
1.17343
1.20727
1.25929
1.33439
1.41339
1.44026
1.28042
0.711281
-2.0672
-0.710352
0.604176
1.5856
2.17351
2.45811
2.56726
2.59189
2.58839
2.58042
2.58471
2.61185
2.66316
2.74085
2.83973
2.90586
2.81799
2.36273
1.26076
-3.27067
-0.110011
2.36401
3.9655
4.82528
5.19288
5.30866
5.30961
5.27625
5.24082
5.21943
5.23024
5.26774
5.32554
5.37022
5.29609
4.90755
3.94897
2.15106
-2.90567
2.06508
5.70845
7.91152
9.02086
9.44866
9.5549
9.51384
9.42679
9.33515
9.24266
9.17702
9.11804
9.0435
8.87967
8.48926
7.65384
6.16774
3.81807
-0.885008
5.34178
9.94575
12.6582
13.9792
14.454
14.5511
14.4695
14.32
14.1554
13.9492
13.737
13.4873
13.1739
12.715
12.048
11.0651
9.69822
7.69318
1.70069
8.23924
13.3207
16.2997
17.7174
18.2028
18.2905
18.1944
18.0068
17.8028
17.5058
17.1546
16.7592
16.3731
16.0979
16.3745
17.8968
21.9646
30.7798
)
;

boundaryField
{
    up
    {
        type            calculated;
        value           nonuniform List<scalar> 
84
(
-30.7798
-7.69326
-3.81804
-2.15095
-1.2607
-0.711304
-0.371064
-0.176296
-0.0759831
-0.029722
-0.0105673
-0.00342212
-0.00101528
-0.000277682
-7.05599e-05
-1.6909e-05
-3.95972e-06
-9.97762e-07
-3.24219e-07
-1.47539e-07
-8.0621e-08
-4.50982e-08
-2.5289e-08
-1.11047e-08
-2.02363e-08
-2.92859e-08
-4.70685e-08
-8.3653e-08
-1.97107e-07
-5.80361e-07
-1.44552e-06
-2.61854e-07
3.3996e-05
2.33852e-05
-5.94784e-05
8.94191e-05
8.32756e-05
0.000105894
0.000111723
0.000109883
7.12701e-05
1.48839e-05
-1.44658e-05
-7.11879e-05
-0.000109568
-0.000111847
-0.000106062
-8.34283e-05
-8.9257e-05
5.84627e-05
-2.37645e-05
-3.64215e-05
1.58436e-07
1.77291e-06
7.68323e-07
2.68369e-07
1.05943e-07
5.33157e-08
3.06022e-08
2.03307e-08
1.09996e-08
2.52662e-08
4.51013e-08
8.06437e-08
1.47513e-07
3.23954e-07
9.97515e-07
3.96495e-06
1.6953e-05
7.07801e-05
0.0002785
0.00101764
0.00342733
0.0105754
0.0297281
0.0759749
0.176261
0.371012
0.711281
1.26076
2.15106
3.81807
7.69318
30.7798
)
;
    }
    low
    {
        type            calculated;
        value           nonuniform List<scalar> 
84
(
-1.45135
1.32856
3.48195
3.772
2.3258
-0.0881863
-2.73237
-5.12762
-7.36202
-8.62182
-9.72471
-10.9229
-11.3918
-11.7458
-12.0984
-12.2232
-12.1015
-11.9313
-11.8776
-11.2771
-10.4715
-9.47397
-8.08764
-6.18209
-4.12173
-1.31668
1.55018
4.26668
6.46499
8.4163
9.52846
10.2932
10.8194
10.8881
10.6696
10.3907
9.42279
7.97446
6.42948
4.73741
2.94301
1.12082
-1.12029
-2.94249
-4.73684
-6.42895
-7.97397
-9.42241
-10.3901
-10.6705
-10.887
-10.8193
-10.2931
-9.52836
-8.41626
-6.46503
-4.26697
-1.55064
1.31543
4.12188
6.18117
8.08788
9.47391
10.4714
11.277
11.8776
11.9313
12.1015
12.2232
12.0984
11.7458
11.3919
10.9229
9.72477
8.62192
7.36211
5.1277
2.73244
0.0882428
-2.32575
-3.77199
-3.48197
-1.32858
1.45135
)
;
    }
    left
    {
        type            calculated;
        value           nonuniform List<scalar> 
19
(
-1.72475
-8.51897
-13.9943
-17.2494
-18.8214
-19.3776
-19.4986
-19.4245
-19.2407
-19.0475
-18.7461
-18.3668
-17.9434
-17.5616
-17.3556
-17.9302
-20.2263
-25.9794
-26.5707
)
;
    }
    right
    {
        type            calculated;
        value           nonuniform List<scalar> 
19
(
1.72475
8.51897
13.9943
17.2494
18.8214
19.3776
19.4986
19.4245
19.2407
19.0475
18.7461
18.3668
17.9435
17.5617
17.3557
17.9303
20.226
25.9791
26.5707
)
;
    }
    frontAndBackPlanes
    {
        type            empty;
    }
}


// ************************************************************************* //
