/*--------------------------------*- C++ -*----------------------------------*\
  =========                 |
  \\      /  F ield         | OpenFOAM: The Open Source CFD Toolbox
   \\    /   O peration     | Website:  https://openfoam.org
    \\  /    A nd           | Version:  7
     \\/     M anipulation  |
\*---------------------------------------------------------------------------*/
FoamFile
{
    version     2.0;
    format      ascii;
    class       volScalarField;
    location    "0.02";
    object      gradTy;
}
// * * * * * * * * * * * * * * * * * * * * * * * * * * * * * * * * * * * * * //

dimensions      [0 -1 0 1 0 0 0];

internalField   nonuniform List<scalar> 
1596
(
-3.64681
-6.02084
-7.04801
-7.50293
-7.73198
-8.06609
-8.40762
-8.85853
-9.37466
-9.88276
-10.5752
-11.2524
-12.0613
-13.1154
-14.9635
-18.2485
-25.2774
-39.5581
-92.9541
-10.0094
-10.3787
-9.15326
-7.86622
-7.03429
-6.78167
-6.81369
-7.0556
-7.40379
-7.75146
-8.24926
-8.74727
-9.3414
-10.0651
-11.266
-13.1228
-16.637
-22.5978
-40.5828
-15.4061
-13.1945
-9.92876
-7.23856
-5.57978
-4.84513
-4.60559
-4.6505
-4.83039
-5.03209
-5.34882
-5.67995
-6.08275
-6.56172
-7.34502
-8.5133
-10.7284
-14.4642
-23.1754
-19.0165
-14.8585
-10.1811
-6.52659
-4.28351
-3.18919
-2.7424
-2.63695
-2.68812
-2.78285
-2.95961
-3.15647
-3.40288
-3.69362
-4.16112
-4.84327
-6.17052
-8.49232
-13.1819
-20.945
-15.868
-10.441
-6.19682
-3.54913
-2.18539
-1.58031
-1.36661
-1.33042
-1.35569
-1.43904
-1.54154
-1.67494
-1.83269
-2.08168
-2.43758
-3.15588
-4.49604
-7.10943
-21.6763
-16.5072
-10.8398
-6.27412
-3.33616
-1.75423
-1.01559
-0.718136
-0.622879
-0.605419
-0.633771
-0.67894
-0.742173
-0.817987
-0.935512
-1.09878
-1.44118
-2.1347
-3.53717
-21.6609
-16.8738
-11.3021
-6.60298
-3.45292
-1.6818
-0.81892
-0.447727
-0.308128
-0.263348
-0.261882
-0.27652
-0.302221
-0.334432
-0.383849
-0.449652
-0.592169
-0.909474
-1.60377
-21.2035
-16.9842
-11.7063
-7.01426
-3.72235
-1.7894
-0.809149
-0.367966
-0.190197
-0.125363
-0.107603
-0.107326
-0.115321
-0.127205
-0.145832
-0.169289
-0.221001
-0.348886
-0.660108
-20.5215
-16.942
-12.047
-7.4441
-4.05867
-1.98334
-0.888554
-0.376499
-0.161114
-0.0781946
-0.0498707
-0.042102
-0.0423465
-0.0457019
-0.0519152
-0.0593471
-0.0756983
-0.121124
-0.2467
-19.6795
-16.6383
-12.1522
-7.7228
-4.32672
-2.16506
-0.984226
-0.413579
-0.165678
-0.067053
-0.0309851
-0.0189888
-0.0158545
-0.0158827
-0.0175391
-0.0195995
-0.0240782
-0.0382753
-0.0838748
-18.9881
-16.2533
-12.0895
-7.84769
-4.49467
-2.29776
-1.06389
-0.451876
-0.179299
-0.068255
-0.0263639
-0.0116512
-0.00690396
-0.00564904
-0.00573552
-0.00616095
-0.00719862
-0.0111065
-0.0260511
-18.3425
-15.8876
-11.9758
-7.89571
-4.5986
-2.39152
-1.12528
-0.484444
-0.193518
-0.0728631
-0.0265004
-0.00984224
-0.0041789
-0.00238201
-0.00193638
-0.00189104
-0.00205776
-0.00299313
-0.00742426
-17.6579
-15.4299
-11.7266
-7.80244
-4.58997
-2.4129
-1.14751
-0.498974
-0.200886
-0.0757985
-0.0271996
-0.00953304
-0.00342295
-0.00140367
-0.000782701
-0.000606649
-0.000580802
-0.000763315
-0.00195395
-17.1541
-14.9859
-11.3935
-7.59026
-4.47481
-2.36006
-1.12665
-0.491906
-0.198764
-0.0751424
-0.0268951
-0.00927193
-0.00314346
-0.00109765
-0.0004408
-0.00023582
-0.000174643
-0.000191379
-0.000480545
-16.763
-14.5943
-11.0304
-7.30448
-4.28378
-2.25023
-1.07089
-0.466477
-0.188115
-0.0709514
-0.0253089
-0.00865928
-0.00287747
-0.000948458
-0.000324995
-0.000127424
-6.52247e-05
-5.15943e-05
-0.000113011
-16.4297
-14.2354
-10.6446
-6.9614
-4.03232
-2.09448
-0.986799
-0.426053
-0.170439
-0.0637925
-0.0225839
-0.00766011
-0.00251455
-0.00080949
-0.000261309
-8.81862e-05
-3.38109e-05
-1.769e-05
-2.69948e-05
-16.2046
-13.9072
-10.2293
-6.56096
-3.72558
-1.89914
-0.879427
-0.3738
-0.147417
-0.0544466
-0.0190359
-0.0063769
-0.00206601
-0.000654364
-0.000205609
-6.53774e-05
-2.18396e-05
-8.51515e-06
-7.51655e-06
-16.0967
-13.6269
-9.80213
-6.12392
-3.38419
-1.68045
-0.759321
-0.315574
-0.121918
-0.044179
-0.0151748
-0.00499802
-0.00159269
-0.000495905
-0.000152753
-4.71436e-05
-1.48593e-05
-5.05845e-06
-2.84388e-06
-16.0122
-13.4105
-9.41022
-5.70018
-3.04853
-1.4656
-0.642154
-0.259311
-0.0975419
-0.0344783
-0.0115709
-0.00372782
-0.00116298
-0.000354641
-0.000106942
-3.22216e-05
-9.82715e-06
-3.14804e-06
-1.40732e-06
-15.9434
-13.2121
-9.0155
-5.2679
-2.71034
-1.2537
-0.529325
-0.206422
-0.0751604
-0.0257733
-0.00840797
-0.00263737
-0.000802128
-0.000238681
-7.02683e-05
-2.06615e-05
-6.1345e-06
-1.89478e-06
-7.67747e-07
-15.9996
-13.0556
-8.61345
-4.8218
-2.36948
-1.04716
-0.423238
-0.158422
-0.0555236
-0.0183771
-0.00580111
-0.00176451
-0.000521339
-0.000150918
-4.32717e-05
-1.23989e-05
-3.58642e-06
-1.07545e-06
-4.14293e-07
-16.1248
-12.9549
-8.22806
-4.38329
-2.04128
-0.85509
-0.328415
-0.117219
-0.0393174
-0.0124976
-0.00380087
-0.0011169
-0.000319569
-8.97638e-05
-2.50136e-05
-6.97412e-06
-1.9643e-06
-5.72847e-07
-2.12908e-07
-16.2581
-12.9048
-7.88249
-3.97584
-1.74026
-0.684188
-0.247225
-0.0833832
-0.0265624
-0.00805859
-0.00234974
-0.000664572
-0.000183625
-4.99484e-05
-1.35102e-05
-3.6631e-06
-1.00482e-06
-2.85375e-07
-1.02816e-07
-16.3548
-12.8899
-7.59531
-3.62086
-1.47763
-0.537506
-0.179421
-0.0560577
-0.0166368
-0.00473512
-0.00130385
-0.000350413
-9.24599e-05
-2.4109e-05
-6.26698e-06
-1.63674e-06
-4.33058e-07
-1.1901e-07
-4.05557e-08
-16.4219
-13.047
-7.62796
-3.56567
-1.41328
-0.495486
-0.158814
-0.0476812
-0.0136842
-0.00380866
-0.00103965
-0.000281326
-7.57937e-05
-2.04245e-05
-5.53307e-06
-1.5166e-06
-4.22522e-07
-1.23344e-07
-4.22975e-08
-16.4306
-13.2988
-7.89861
-3.73838
-1.49216
-0.522567
-0.165685
-0.048717
-0.0135908
-0.00367072
-0.000978215
-0.000262282
-7.15192e-05
-1.99718e-05
-5.72715e-06
-1.68902e-06
-5.12594e-07
-1.64706e-07
-6.20244e-08
-16.3978
-13.4971
-8.23452
-4.02193
-1.65721
-0.596726
-0.192861
-0.0570145
-0.0156958
-0.00409395
-0.00103233
-0.000259298
-6.68508e-05
-1.82436e-05
-5.36781e-06
-1.70373e-06
-5.7968e-07
-2.16032e-07
-9.50894e-08
-16.3521
-13.6335
-8.61789
-4.41719
-1.92319
-0.733348
-0.25046
-0.0776746
-0.0221222
-0.0058345
-0.00143489
-0.000334408
-7.55045e-05
-1.74072e-05
-4.47893e-06
-1.39924e-06
-5.43247e-07
-2.60111e-07
-1.52079e-07
-16.3177
-13.7639
-9.06021
-4.92115
-2.2944
-0.942366
-0.347574
-0.116404
-0.0356965
-0.0100665
-0.00260678
-0.000619612
-0.000133249
-2.54088e-05
-4.20269e-06
-6.5866e-07
-2.19456e-07
-2.22262e-07
-2.56333e-07
-16.348
-13.9189
-9.54365
-5.50264
-2.75435
-1.22292
-0.489744
-0.178672
-0.0598614
-0.0184996
-0.00526446
-0.00137683
-0.000323854
-6.51633e-05
-9.35962e-06
1.89095e-07
8.52097e-07
2.60079e-07
-3.54673e-07
-16.5065
-14.1626
-10.0909
-6.15715
-3.29798
-1.57824
-0.684829
-0.272008
-0.099732
-0.0339487
-0.0107328
-0.00315724
-0.000851777
-0.000203985
-3.87953e-05
-2.57531e-06
3.15049e-06
2.45335e-06
2.99642e-07
-16.6639
-14.4816
-10.712
-6.89407
-3.93514
-2.02137
-0.947006
-0.408415
-0.163608
-0.0613104
-0.0215498
-0.00714617
-0.00222103
-0.000637867
-0.00016131
-2.9979e-05
2.88845e-06
8.84806e-06
5.52285e-06
-16.924
-14.8925
-11.3899
-7.68927
-4.65092
-2.55155
-1.28537
-0.600015
-0.261998
-0.107888
-0.0420846
-0.0156891
-0.00558431
-0.00189224
-0.000598927
-0.000169699
-3.00003e-05
1.52536e-05
3.18924e-05
-17.3598
-15.4326
-12.1456
-8.55396
-5.45539
-3.18439
-1.72078
-0.868691
-0.413752
-0.187658
-0.0816179
-0.0344532
-0.0141974
-0.00576124
-0.00231829
-0.000943114
-0.000387243
-0.000157185
-4.17626e-05
-17.8952
-16.0101
-12.8589
-9.35271
-6.22099
-3.81977
-2.1871
-1.17775
-0.602089
-0.29482
-0.139363
-0.0643474
-0.0292377
-0.013207
-0.00599442
-0.00279083
-0.00136399
-0.000738961
-0.000455561
-18.5728
-16.5882
-13.4349
-9.93653
-6.76644
-4.27827
-2.53459
-1.41846
-0.756648
-0.387974
-0.192813
-0.0939103
-0.0451802
-0.021686
-0.0105052
-0.00523363
-0.00275577
-0.00163744
-0.0011877
-19.437
-17.242
-13.9775
-10.4053
-7.16272
-4.59511
-2.77115
-1.58364
-0.865313
-0.455856
-0.233548
-0.117659
-0.058764
-0.0293959
-0.0149162
-0.00783015
-0.00438137
-0.00277733
-0.00211805
-20.2305
-17.8424
-14.4629
-10.8142
-7.50585
-4.87206
-2.98238
-1.73524
-0.968133
-0.5222
-0.274687
-0.142467
-0.0734569
-0.0380452
-0.0200608
-0.0109923
-0.00645996
-0.00431422
-0.0034382
-20.8421
-18.3417
-14.8821
-11.1732
-7.80972
-5.11939
-3.17305
-1.87394
-1.06376
-0.585081
-0.314533
-0.167081
-0.0884293
-0.0471229
-0.0256428
-0.0145547
-0.00890349
-0.00619939
-0.00511141
-21.3289
-18.7406
-15.216
-11.4578
-8.0505
-5.3162
-3.32609
-1.98665
-1.14265
-0.637868
-0.348642
-0.188609
-0.101835
-0.0554615
-0.0309193
-0.0180318
-0.0113749
-0.0081728
-0.00690862
-21.6889
-19.0286
-15.4493
-11.6521
-8.2132
-5.44933
-3.43041
-2.06437
-1.19781
-0.675357
-0.37328
-0.204443
-0.111887
-0.0618459
-0.0350536
-0.020827
-0.0134179
-0.00984682
-0.00846016
-21.9509
-19.1929
-15.5629
-11.7394
-8.28485
-5.50872
-3.47819
-2.10101
-1.22454
-0.693994
-0.385818
-0.212678
-0.117224
-0.0653037
-0.0373385
-0.0224046
-0.0145964
-0.0108324
-0.00938822
-21.951
-19.1931
-15.5633
-11.7398
-8.28529
-5.50911
-3.4785
-2.10123
-1.2247
-0.694095
-0.385882
-0.212717
-0.117248
-0.0653184
-0.0373477
-0.0224107
-0.0146006
-0.0108358
-0.00939144
-21.689
-19.0291
-15.4502
-11.6533
-8.21445
-5.45044
-3.4313
-2.06502
-1.19826
-0.675649
-0.373464
-0.204556
-0.111956
-0.0618882
-0.0350799
-0.0208441
-0.0134299
-0.00985637
-0.0084691
-21.3291
-18.7415
-15.2175
-11.4598
-8.05249
-5.31797
-3.3275
-1.98768
-1.14334
-0.638319
-0.348924
-0.188781
-0.101938
-0.0555236
-0.0309573
-0.018056
-0.0113916
-0.00818583
-0.00692061
-20.8424
-18.3428
-14.8841
-11.1758
-7.81236
-5.12172
-3.17488
-1.87526
-1.06464
-0.585647
-0.31488
-0.167289
-0.0885518
-0.047195
-0.0256859
-0.0145814
-0.00892129
-0.00621288
-0.00512352
-20.2309
-17.8438
-14.4654
-10.8174
-7.50906
-4.87486
-2.98456
-1.73679
-0.969157
-0.52284
-0.275072
-0.142691
-0.0735858
-0.038119
-0.0201035
-0.0110178
-0.00647634
-0.00432616
-0.00344857
-19.4374
-17.2437
-13.9804
-10.409
-7.16642
-4.5983
-2.77358
-1.58533
-0.866408
-0.456524
-0.233937
-0.117879
-0.0588862
-0.0294634
-0.0149538
-0.0078518
-0.00439466
-0.00278662
-0.00212592
-18.5732
-16.5902
-13.4385
-9.94103
-6.77092
-4.28206
-2.53742
-1.42037
-0.75785
-0.388682
-0.193211
-0.0941271
-0.0452962
-0.0217477
-0.0105384
-0.0052521
-0.00276669
-0.00164479
-0.00119401
-17.8954
-16.0116
-12.8624
-9.35772
-6.22634
-3.8245
-2.1907
-1.18019
-0.603606
-0.295693
-0.139838
-0.064595
-0.0293633
-0.0132699
-0.00602583
-0.00280671
-0.00137238
-0.000744127
-0.000460193
-17.3603
-15.4355
-12.151
-8.56069
-5.46195
-3.18973
-1.72457
-0.871104
-0.415158
-0.188422
-0.0820118
-0.0346493
-0.0142929
-0.00580738
-0.00234061
-0.000954109
-0.000392971
-0.000160419
-4.28769e-05
-16.9243
-14.8947
-11.3944
-7.69479
-4.65606
-2.55549
-1.28797
-0.601533
-0.262803
-0.108284
-0.0422665
-0.0157688
-0.00561774
-0.00190563
-0.000603929
-0.00017135
-3.03631e-05
1.55459e-05
3.35279e-05
-16.6641
-14.4839
-10.7164
-6.89922
-3.93966
-2.0246
-0.948979
-0.409479
-0.164125
-0.0615416
-0.0216461
-0.00718386
-0.00223489
-0.000642563
-0.000162698
-3.02591e-05
3.02785e-06
9.22607e-06
5.85578e-06
-16.5067
-14.1648
-10.0951
-6.16184
-3.30183
-1.5808
-0.686274
-0.272723
-0.10005
-0.034078
-0.0107812
-0.00317399
-0.000857052
-0.00020542
-3.90826e-05
-2.57872e-06
3.24335e-06
2.62833e-06
2.43009e-07
-16.3482
-13.921
-9.54764
-5.50684
-2.75756
-1.2249
-0.49077
-0.179138
-0.0600505
-0.0185693
-0.00528782
-0.00138392
-0.000325714
-6.55312e-05
-9.38159e-06
2.11456e-07
8.7862e-07
3.00837e-07
-4.32344e-07
-16.3178
-13.7659
-9.06389
-4.9248
-2.29699
-0.943831
-0.348272
-0.116694
-0.035804
-0.0101024
-0.00261748
-0.000622411
-0.000133832
-2.54716e-05
-4.18671e-06
-6.50791e-07
-2.20148e-07
-2.23327e-07
-2.98978e-07
-16.3522
-13.6354
-8.62118
-4.42023
-1.92519
-0.734389
-0.250915
-0.0778477
-0.0221807
-0.00585208
-0.00143954
-0.000335436
-7.56625e-05
-1.74085e-05
-4.47272e-06
-1.40252e-06
-5.50425e-07
-2.67197e-07
-1.7025e-07
-16.3978
-13.4988
-8.23732
-4.02434
-1.65869
-0.597437
-0.193149
-0.0571154
-0.0157271
-0.00410255
-0.00103437
-0.000259698
-6.69083e-05
-1.82512e-05
-5.37426e-06
-1.71144e-06
-5.86396e-07
-2.21117e-07
-1.01962e-07
-16.4307
-13.3002
-7.90079
-3.74017
-1.49319
-0.523038
-0.165865
-0.0487763
-0.0136081
-0.00367517
-0.000979224
-0.000262489
-7.15651e-05
-1.99889e-05
-5.73736e-06
-1.69566e-06
-5.16677e-07
-1.67145e-07
-6.41714e-08
-16.4219
-13.0473
-7.62852
-3.5661
-1.4135
-0.495576
-0.158843
-0.0476887
-0.0136856
-0.00380877
-0.0010396
-0.000281307
-7.57948e-05
-2.04305e-05
-5.53778e-06
-1.51941e-06
-4.23997e-07
-1.24063e-07
-4.2686e-08
-16.3546
-12.8895
-7.59473
-3.6203
-1.47725
-0.5373
-0.179326
-0.0560192
-0.0166226
-0.00473022
-0.00130226
-0.000349915
-9.23092e-05
-2.40646e-05
-6.25404e-06
-1.63302e-06
-4.31996e-07
-1.18697e-07
-4.04482e-08
-16.2581
-12.9049
-7.88252
-3.97585
-1.74027
-0.684194
-0.247229
-0.0833855
-0.0265635
-0.008059
-0.00234986
-0.000664593
-0.000183623
-4.99443e-05
-1.35077e-05
-3.66198e-06
-1.00437e-06
-2.85196e-07
-1.02723e-07
-16.1248
-12.9549
-8.22807
-4.38329
-2.04128
-0.855087
-0.328415
-0.11722
-0.0393181
-0.012498
-0.00380102
-0.00111695
-0.000319578
-8.97641e-05
-2.50127e-05
-6.97351e-06
-1.96399e-06
-5.72706e-07
-2.12809e-07
-15.9996
-13.0556
-8.61346
-4.82181
-2.36948
-1.04716
-0.423236
-0.158422
-0.0555241
-0.0183775
-0.00580133
-0.00176461
-0.000521379
-0.000150933
-4.32769e-05
-1.24006e-05
-3.58696e-06
-1.0756e-06
-4.14289e-07
-15.9434
-13.2121
-9.01551
-5.26791
-2.71034
-1.2537
-0.529322
-0.206421
-0.0751605
-0.0257737
-0.00840828
-0.00263756
-0.000802224
-0.000238724
-7.02859e-05
-2.06684e-05
-6.13692e-06
-1.89555e-06
-7.67921e-07
-16.0122
-13.4105
-9.41022
-5.7002
-3.04853
-1.4656
-0.642151
-0.259309
-0.0975414
-0.0344787
-0.0115713
-0.00372813
-0.00116315
-0.000354725
-0.000106979
-3.22367e-05
-9.83205e-06
-3.14923e-06
-1.4074e-06
-16.0967
-13.6269
-9.80214
-6.12393
-3.3842
-1.68045
-0.759317
-0.315571
-0.121917
-0.0441793
-0.0151754
-0.00499848
-0.00159296
-0.000496041
-0.000152815
-4.71686e-05
-1.48636e-05
-5.05698e-06
-2.84266e-06
-16.2046
-13.9072
-10.2293
-6.56097
-3.72559
-1.89914
-0.879422
-0.373797
-0.147416
-0.054447
-0.0190366
-0.0063775
-0.00206637
-0.000654548
-0.000205696
-6.54068e-05
-2.18235e-05
-8.49694e-06
-7.51384e-06
-16.4297
-14.2354
-10.6446
-6.96142
-4.03234
-2.09448
-0.986796
-0.426051
-0.170438
-0.063793
-0.0225847
-0.00766074
-0.00251492
-0.000809695
-0.000261413
-8.81895e-05
-3.36908e-05
-1.76083e-05
-2.70152e-05
-16.763
-14.5943
-11.0304
-7.30449
-4.2838
-2.25024
-1.07089
-0.466476
-0.188115
-0.0709521
-0.0253096
-0.00865979
-0.00287779
-0.000948668
-0.000325112
-0.00012729
-6.47064e-05
-5.13315e-05
-0.000113232
-17.1541
-14.9859
-11.3935
-7.59027
-4.47482
-2.36006
-1.12665
-0.491908
-0.198766
-0.0751434
-0.0268957
-0.00927223
-0.00314369
-0.00109794
-0.000440954
-0.000235172
-0.000172841
-0.000190742
-0.000481778
-17.6579
-15.4299
-11.7266
-7.80245
-4.58998
-2.41291
-1.14752
-0.49898
-0.200889
-0.0757997
-0.0271998
-0.00953303
-0.00342322
-0.00140433
-0.000782918
-0.000604399
-0.000575504
-0.000762305
-0.00195894
-18.3425
-15.8876
-11.9757
-7.89571
-4.59861
-2.39153
-1.12529
-0.484453
-0.193523
-0.0728642
-0.0265002
-0.00984212
-0.00417976
-0.00238377
-0.00193654
-0.0018846
-0.00204468
-0.00299299
-0.00743993
-18.988
-16.2533
-12.0895
-7.8477
-4.49469
-2.29778
-1.06391
-0.451888
-0.179304
-0.0682562
-0.0263637
-0.0116518
-0.00690673
-0.00565312
-0.00573481
-0.00614569
-0.00717221
-0.0111117
-0.0260897
-19.6794
-16.6383
-12.1522
-7.72281
-4.32673
-2.16508
-0.984245
-0.41359
-0.165682
-0.0670536
-0.0309852
-0.0189913
-0.015861
-0.0158899
-0.0175351
-0.0195701
-0.0240369
-0.0382945
-0.083947
-20.5214
-16.942
-12.047
-7.44412
-4.05869
-1.98336
-0.888569
-0.376507
-0.161116
-0.0781945
-0.0498721
-0.0421082
-0.0423578
-0.0457101
-0.0519025
-0.0593031
-0.0756557
-0.121164
-0.246792
-21.2034
-16.9842
-11.7063
-7.01427
-3.72236
-1.78942
-0.809158
-0.367968
-0.190197
-0.125364
-0.107607
-0.107336
-0.115334
-0.127205
-0.145804
-0.169245
-0.220994
-0.348936
-0.66015
-21.6609
-16.8738
-11.3021
-6.603
-3.45293
-1.6818
-0.818921
-0.447726
-0.308126
-0.263349
-0.261889
-0.27653
-0.302224
-0.334412
-0.383807
-0.449641
-0.592245
-0.90949
-1.60366
-21.6763
-16.5072
-10.8398
-6.27413
-3.33617
-1.75423
-1.01559
-0.718131
-0.622875
-0.60542
-0.633774
-0.678938
-0.742151
-0.817937
-0.935472
-1.09884
-1.44135
-2.13463
-3.53684
-20.945
-15.868
-10.441
-6.19683
-3.54912
-2.18539
-1.5803
-1.3666
-1.33041
-1.35569
-1.43903
-1.54151
-1.67489
-1.83263
-2.08168
-2.43772
-3.15608
-4.49589
-7.10905
-19.0165
-14.8585
-10.1811
-6.52659
-4.2835
-3.18918
-2.74238
-2.63694
-2.6881
-2.78283
-2.95958
-3.15642
-3.40281
-3.69358
-4.16118
-4.84344
-6.17063
-8.49223
-13.1818
-15.4061
-13.1945
-9.92877
-7.23855
-5.57976
-4.84511
-4.60557
-4.65048
-4.83037
-5.03206
-5.34879
-5.67989
-6.0827
-6.56173
-7.34511
-8.51338
-10.7283
-14.4643
-23.1757
-10.0094
-10.3787
-9.15326
-7.86622
-7.03428
-6.78167
-6.81369
-7.05559
-7.40378
-7.75145
-8.24924
-8.74726
-9.34142
-10.0652
-11.2661
-13.1228
-16.6367
-22.5979
-40.5831
-3.64682
-6.02084
-7.04801
-7.50293
-7.73198
-8.06609
-8.40761
-8.85853
-9.37466
-9.88276
-10.5752
-11.2524
-12.0614
-13.1155
-14.9636
-18.2484
-25.2772
-39.5579
-92.9541
)
;

boundaryField
{
    up
    {
        type            calculated;
        value           nonuniform List<scalar> 
84
(
-84.439
-45.2353
-25.8545
-14.7683
-8.00154
-3.9924
-1.81089
-0.743733
-0.276642
-0.0934519
-0.0287759
-0.00811969
-0.00211523
-0.000514049
-0.000118861
-2.74368e-05
-7.09099e-06
-2.41154e-06
-1.09863e-06
-5.73312e-07
-3.01726e-07
-1.52285e-07
-7.21671e-08
-2.62674e-08
-2.60142e-08
-4.29468e-08
-7.22322e-08
-1.39352e-07
-3.31491e-07
-8.11725e-07
-1.16148e-06
4.49419e-06
4.04416e-05
-8.2165e-06
-0.000395703
-0.00108392
-0.001959
-0.00323314
-0.00486643
-0.00663555
-0.00817135
-0.00909545
-0.00909867
-0.00818031
-0.0066475
-0.00487839
-0.00324326
-0.00196664
-0.00109022
-0.000400649
-8.55605e-06
4.3218e-05
4.97514e-06
-1.45054e-06
-1.05396e-06
-4.43485e-07
-1.80509e-07
-8.56163e-08
-4.66622e-08
-2.66453e-08
-2.62048e-08
-7.20888e-08
-1.52182e-07
-3.01665e-07
-5.73324e-07
-1.09839e-06
-2.40994e-06
-7.08929e-06
-2.74692e-05
-0.000119154
-0.000515612
-0.00212144
-0.00813896
-0.0288227
-0.0935362
-0.276739
-0.743744
-1.81068
-3.99195
-8.00113
-14.7684
-25.855
-45.2357
-84.4389
)
;
    }
    low
    {
        type            calculated;
        value           nonuniform List<scalar> 
84
(
-4.031
-10.8561
-16.8834
-21.0046
-23.1981
-23.9432
-23.7568
-23.0536
-22.0545
-20.8929
-20.0668
-19.2997
-18.4406
-17.8649
-17.4528
-17.074
-16.8256
-16.7708
-16.7101
-16.5977
-16.6591
-16.8194
-16.9631
-17.0626
-16.9556
-16.7882
-16.6427
-16.603
-16.6254
-16.7601
-17.0093
-17.1772
-17.4619
-17.9461
-18.5191
-19.2842
-20.2959
-21.1678
-21.8125
-22.329
-22.716
-23.0322
-23.0323
-22.716
-22.3291
-21.8126
-21.1679
-20.296
-19.2842
-18.5186
-17.9462
-17.4615
-17.1768
-17.0088
-16.7596
-16.6248
-16.6023
-16.6421
-16.7878
-16.9553
-17.0628
-16.963
-16.8194
-16.6591
-16.5976
-16.7101
-16.7708
-16.8256
-17.0739
-17.4527
-17.8649
-18.4405
-19.2997
-20.0668
-20.8928
-22.0545
-23.0535
-23.7568
-23.9432
-23.1981
-21.0046
-16.8834
-10.8561
-4.03101
)
;
    }
    left
    {
        type            calculated;
        value           nonuniform List<scalar> 
19
(
-3.65531
-6.12194
-7.2969
-7.87056
-8.1785
-8.57133
-8.95678
-9.45555
-10.0175
-10.5765
-11.3312
-12.0573
-12.9218
-14.0631
-16.0792
-19.7668
-27.8257
-44.4774
-87.1941
)
;
    }
    right
    {
        type            calculated;
        value           nonuniform List<scalar> 
19
(
-3.65532
-6.12194
-7.2969
-7.87056
-8.1785
-8.57133
-8.95678
-9.45555
-10.0175
-10.5765
-11.3312
-12.0573
-12.9219
-14.0632
-16.0793
-19.7667
-27.8254
-44.4771
-87.1942
)
;
    }
    frontAndBackPlanes
    {
        type            empty;
    }
}


// ************************************************************************* //
