/*--------------------------------*- C++ -*----------------------------------*\
  =========                 |
  \\      /  F ield         | OpenFOAM: The Open Source CFD Toolbox
   \\    /   O peration     | Website:  https://openfoam.org
    \\  /    A nd           | Version:  7
     \\/     M anipulation  |
\*---------------------------------------------------------------------------*/
FoamFile
{
    version     2.0;
    format      ascii;
    class       volScalarField;
    location    "0.187";
    object      gradTx;
}
// * * * * * * * * * * * * * * * * * * * * * * * * * * * * * * * * * * * * * //

dimensions      [0 -1 0 1 0 0 0];

internalField   nonuniform List<scalar> 
1596
(
-0.355935
-1.78486
-3.18897
-4.44114
-5.52774
-6.44199
-7.22636
-7.90869
-8.52874
-9.16157
-9.8313
-10.6287
-11.6577
-13.0646
-15.0176
-17.9291
-22.4286
-29.8723
-43.0648
0.0798745
-1.48099
-2.86329
-4.04731
-5.05713
-5.89612
-6.60319
-7.19257
-7.69462
-8.14979
-8.56637
-8.99543
-9.45937
-9.98908
-10.5749
-11.1925
-11.6685
-11.6437
-10.3511
0.438226
-1.19914
-2.53365
-3.6341
-4.55331
-5.30712
-5.92942
-6.42977
-6.82885
-7.14926
-7.39151
-7.58394
-7.72548
-7.8179
-7.83656
-7.73471
-7.37564
-6.51561
-4.67007
0.499077
-1.03984
-2.25323
-3.23686
-4.04845
-4.70924
-5.24581
-5.66576
-5.98231
-6.20741
-6.33969
-6.39368
-6.3629
-6.24139
-6.00919
-5.62906
-5.01509
-4.02388
-2.36959
0.161808
-1.06929
-2.07151
-2.89723
-3.58206
-4.14201
-4.59324
-4.94108
-5.19279
-5.3531
-5.42118
-5.40261
-5.29092
-5.07887
-4.75358
-4.28913
-3.63654
-2.71625
-1.36654
-0.541667
-1.31358
-2.02745
-2.65546
-3.19374
-3.64345
-4.00769
-4.28787
-4.48579
-4.6007
-4.63255
-4.58062
-4.43943
-4.20167
-3.8596
-3.39485
-2.78099
-1.97483
-0.886938
-1.47507
-1.75278
-2.1387
-2.54031
-2.91457
-3.24339
-3.51601
-3.72806
-3.87606
-3.95473
-3.96394
-3.89851
-3.75343
-3.52122
-3.19684
-2.76616
-2.21521
-1.52039
-0.632708
-2.44974
-2.30274
-2.37262
-2.54272
-2.74588
-2.94735
-3.12443
-3.26614
-3.36408
-3.4092
-3.40032
-3.32918
-3.1906
-2.97668
-2.68338
-2.29867
-1.81487
-1.21854
-0.482775
-3.45653
-3.01285
-2.80437
-2.74292
-2.76207
-2.81959
-2.8855
-2.94301
-2.97946
-2.98262
-2.94932
-2.86909
-2.73582
-2.54082
-2.27969
-1.94112
-1.51983
-1.00698
-0.386855
-4.06084
-3.51172
-3.14072
-2.91437
-2.78823
-2.72485
-2.69399
-2.67612
-2.65625
-2.62041
-2.56358
-2.47428
-2.3456
-2.16845
-1.93787
-1.64312
-1.27975
-0.841165
-0.317419
-4.55626
-3.9652
-3.4978
-3.15
-2.90152
-2.72673
-2.60089
-2.50525
-2.42456
-2.34437
-2.25819
-2.15416
-2.02454
-1.85985
-1.65432
-1.39736
-1.08429
-0.70921
-0.264863
-5.06564
-4.4737
-3.94694
-3.50415
-3.14609
-2.86175
-2.63569
-2.45331
-2.30127
-2.16589
-2.03988
-1.91131
-1.77163
-1.61086
-1.42222
-1.19494
-0.92351
-0.601754
-0.223225
-5.21523
-4.70299
-4.19005
-3.71782
-3.30459
-2.95311
-2.65806
-2.41102
-2.20248
-2.02117
-1.86031
-1.70887
-1.55827
-1.39862
-1.22265
-1.01981
-0.783967
-0.508707
-0.187799
-5.26568
-4.8393
-4.36813
-3.89739
-3.45623
-3.05908
-2.71028
-2.40855
-2.14928
-1.92456
-1.7291
-1.55326
-1.38883
-1.22626
-1.05798
-0.873674
-0.666647
-0.430204
-0.158054
-5.27641
-4.92726
-4.50666
-4.05468
-3.60408
-3.17739
-2.78716
-2.43927
-2.13454
-1.86903
-1.63963
-1.43848
-1.25804
-1.08926
-0.924408
-0.753406
-0.569098
-0.364478
-0.133071
-5.17005
-4.90409
-4.54485
-4.12973
-3.69138
-3.25668
-2.84407
-2.46565
-2.12749
-1.82986
-1.5724
-1.34933
-1.15423
-0.978768
-0.815363
-0.65426
-0.488048
-0.30954
-0.112099
-4.93888
-4.75291
-4.46164
-4.09735
-3.69026
-3.26848
-2.85384
-2.463
-2.10659
-1.78886
-1.51238
-1.27372
-1.06786
-0.887492
-0.725423
-0.572395
-0.42097
-0.263953
-0.0946668
-4.66032
-4.52631
-4.29548
-3.98484
-3.61826
-3.22225
-2.81982
-2.43049
-2.06837
-1.74113
-1.45412
-1.20623
-0.993965
-0.811129
-0.651096
-0.505165
-0.366029
-0.226629
-0.0803873
-4.42725
-4.33472
-4.14978
-3.88209
-3.54967
-3.17659
-2.78615
-2.39982
-2.03445
-1.70054
-1.40575
-1.151
-0.934074
-0.7497
-0.591668
-0.451649
-0.322393
-0.196972
-0.0689942
-4.00016
-3.96381
-3.83392
-3.62133
-3.33995
-3.01017
-2.65374
-2.29217
-1.94368
-1.62074
-1.33292
-1.08303
-0.870299
-0.690617
-0.538471
-0.40609
-0.286443
-0.172931
-0.0597604
-3.51841
-3.52644
-3.44653
-3.28683
-3.05806
-2.77701
-2.46304
-2.13656
-1.81598
-1.51477
-1.24365
-1.00691
-0.80501
-0.634978
-0.492067
-0.369059
-0.258977
-0.155274
-0.0529064
-3.00858
-3.04476
-3.00601
-2.89458
-2.71735
-2.48744
-2.22138
-1.93767
-1.65398
-1.38382
-1.13826
-0.922518
-0.737916
-0.582564
-0.452591
-0.341433
-0.241951
-0.146693
-0.0499276
-2.43576
-2.48508
-2.47961
-2.41443
-2.29139
-2.11905
-1.91037
-1.68087
-1.44644
-1.2197
-1.01114
-0.82635
-0.667147
-0.532705
-0.420379
-0.324855
-0.239202
-0.154319
-0.0591825
-1.78275
-1.75768
-1.69271
-1.58906
-1.45402
-1.29799
-1.13282
-0.969282
-0.816605
-0.680489
-0.563643
-0.465983
-0.385198
-0.31842
-0.262733
-0.214685
-0.169652
-0.120074
-0.0534364
-1.19141
-1.31918
-1.44729
-1.5491
-1.60718
-1.61259
-1.56607
-1.47497
-1.35205
-1.21104
-1.06394
-0.920781
-0.786998
-0.666875
-0.562851
-0.475851
-0.403378
-0.339733
-0.272565
-0.401071
-0.456024
-0.525336
-0.594451
-0.652481
-0.691955
-0.710393
-0.708276
-0.689833
-0.660154
-0.622751
-0.581491
-0.536518
-0.489085
-0.440899
-0.396053
-0.356804
-0.325655
-0.301721
0.39095
0.324456
0.227275
0.112707
-0.00626365
-0.118698
-0.217449
-0.298714
-0.362647
-0.411403
-0.446258
-0.469119
-0.478438
-0.473743
-0.455888
-0.430327
-0.402078
-0.377075
-0.357043
1.17891
1.08811
0.953466
0.789619
0.611186
0.431366
0.260272
0.104297
-0.0341675
-0.155473
-0.259664
-0.347122
-0.414503
-0.458475
-0.476996
-0.47479
-0.458758
-0.438663
-0.419512
1.88672
1.75573
1.57544
1.36275
1.1327
0.898962
0.67228
0.459472
0.263523
0.084354
-0.0780718
-0.223729
-0.348073
-0.444464
-0.505754
-0.532753
-0.531687
-0.516093
-0.495798
2.61373
2.43176
2.19915
1.93339
1.65003
1.36322
1.08389
0.818706
0.570554
0.338853
0.12268
-0.0790361
-0.262307
-0.418488
-0.534431
-0.603499
-0.626272
-0.61783
-0.594647
3.15353
2.91385
2.63135
2.32277
2.00318
1.68517
1.37768
1.08536
0.809639
0.548469
0.299343
0.0588662
-0.171666
-0.384629
-0.562566
-0.689239
-0.75185
-0.758885
-0.730706
3.65047
3.36217
3.03141
2.68146
2.32815
1.98252
1.65152
1.33791
1.04176
0.759813
0.488171
0.22064
-0.0461477
-0.310209
-0.555967
-0.761939
-0.896956
-0.948724
-0.929064
4.10128
3.74924
3.36712
2.97844
2.59712
2.23132
1.88537
1.55985
1.2537
0.962855
0.682883
0.405965
0.124313
-0.16865
-0.467402
-0.758953
-1.00287
-1.15782
-1.18309
4.38016
3.93217
3.47333
3.02429
2.59544
2.19153
1.81423
1.46239
1.13402
0.824786
0.530032
0.241843
-0.0496463
-0.357829
-0.691558
-1.06
-1.4449
-1.81103
-2.09192
4.53947
4.05337
3.5916
3.16643
2.77876
2.42586
2.10359
1.80749
1.53368
1.27831
1.03853
0.810718
0.590515
0.371111
0.143295
-0.111894
-0.411949
-0.776577
-1.21174
4.64742
4.14862
3.70446
3.30941
2.95473
2.63316
2.33829
2.0653
1.81079
1.57193
1.34731
1.13607
0.937205
0.750494
0.576548
0.413982
0.260533
0.108758
-0.0555388
4.37364
3.80571
3.32173
2.90281
2.535
2.20854
1.91562
1.6503
1.40827
1.18561
0.979999
0.789743
0.613158
0.449691
0.30027
0.166004
0.0493988
-0.0462027
-0.119323
3.81984
3.30789
2.87778
2.50988
2.19028
1.90905
1.65848
1.43272
1.22762
1.03963
0.866621
0.707146
0.559703
0.423586
0.298929
0.185566
0.0837358
-0.00581846
-0.0833504
3.15957
2.73338
2.3737
2.06663
1.80107
1.56855
1.36238
1.17743
1.01005
0.857114
0.716749
0.587596
0.468206
0.357732
0.255985
0.162522
0.0773161
0.000965409
-0.0666698
2.37058
2.04377
1.77041
1.53903
1.34037
1.1674
1.01471
0.878166
0.754884
0.642407
0.539251
0.444327
0.356466
0.274961
0.199628
0.130125
0.0664849
0.00927356
-0.0415094
1.48921
1.27151
1.09517
0.948794
0.824625
0.717316
0.62304
0.538994
0.463265
0.394247
0.330964
0.27269
0.218652
0.168368
0.121695
0.0784085
0.0385389
0.00250245
-0.0296189
0.570655
0.482215
0.413233
0.35679
0.309112
0.267941
0.231791
0.199617
0.17071
0.144471
0.120516
0.0985422
0.0782226
0.0593285
0.0417461
0.0253348
0.0100484
-0.00400606
-0.0168116
-0.570381
-0.4816
-0.412384
-0.355783
-0.308006
-0.266783
-0.230618
-0.198459
-0.169594
-0.14342
-0.119548
-0.097673
-0.0774666
-0.0586977
-0.0412499
-0.0249807
-0.00984105
0.00406622
0.0167271
-1.48896
-1.27096
-1.09442
-0.947909
-0.823658
-0.716309
-0.622027
-0.538004
-0.462322
-0.393371
-0.330172
-0.271997
-0.218071
-0.167911
-0.121371
-0.0782234
-0.0384965
-0.00260202
0.0293819
-2.37032
-2.04323
-1.76968
-1.53814
-1.33939
-1.16637
-1.01366
-0.877127
-0.753878
-0.641456
-0.538373
-0.443534
-0.355771
-0.27437
-0.199146
-0.129753
-0.0662214
-0.00911294
0.0415749
-3.15937
-2.733
-2.37318
-2.06601
-1.80038
-1.56783
-1.36166
-1.17672
-1.00938
-0.856501
-0.716207
-0.587135
-0.467836
-0.357459
-0.25581
-0.162444
-0.0773325
-0.00106908
0.0664869
-3.81971
-3.30764
-2.87742
-2.50944
-2.18977
-1.90851
-1.65793
-1.43218
-1.22712
-1.03917
-0.866222
-0.70682
-0.559458
-0.423427
-0.298855
-0.185572
-0.0838103
0.00569252
0.0831958
-4.37362
-3.80563
-3.32156
-2.90257
-2.53471
-2.20823
-1.9153
-1.65001
-1.40801
-1.18542
-0.979876
-0.789707
-0.613219
-0.449858
-0.300543
-0.166369
-0.0498164
0.0457987
0.119009
-4.6474
-4.14821
-3.70355
-3.30796
-2.95277
-2.63074
-2.33548
-2.06217
-1.80743
-1.56839
-1.34365
-1.13232
-0.933397
-0.74664
-0.572673
-0.410173
-0.257004
-0.105973
0.0568189
-4.54027
-4.05548
-3.59508
-3.17122
-2.78476
-2.43292
-2.11157
-1.81623
-1.54305
-1.28819
-1.04885
-0.821472
-0.601769
-0.383042
-0.156195
0.0975982
0.395865
0.758594
1.19241
-4.37981
-3.93123
-3.47174
-3.02207
-2.59264
-2.18823
-1.81052
-1.45838
-1.1298
-0.820444
-0.525646
-0.237484
0.0539137
0.361963
0.695604
1.06418
1.44977
1.81756
2.10135
-4.10155
-3.74988
-3.36809
-2.97966
-2.59854
-2.23289
-1.88703
-1.56157
-1.25546
-0.964621
-0.684656
-0.407744
-0.126085
0.166948
0.465928
0.757994
1.00277
1.15877
1.1848
-3.65064
-3.36257
-3.03202
-2.68224
-2.32906
-1.98352
-1.65259
-1.33902
-1.04289
-0.760948
-0.489294
-0.221726
0.0451518
0.309409
0.555526
0.762039
0.89768
0.949956
0.930545
-3.1537
-2.91426
-2.63198
-2.32358
-2.00413
-1.68621
-1.37878
-1.08649
-0.810756
-0.549548
-0.300354
-0.0597682
0.170939
0.384172
0.56248
0.689582
0.752577
0.759846
0.731721
-2.6139
-2.43217
-2.1998
-1.93423
-1.65102
-1.36431
-1.08503
-0.819848
-0.571656
-0.339876
-0.123586
0.0782905
0.261778
0.418239
0.5345
0.603873
0.626872
0.61855
0.5954
-1.88687
-1.75612
-1.57606
-1.36356
-1.13366
-0.900012
-0.673362
-0.460533
-0.264517
-0.08524
0.0773295
0.223168
0.347731
0.444369
0.505905
0.533112
0.532183
0.516659
0.496394
-1.17908
-1.08853
-0.954123
-0.790477
-0.612187
-0.432444
-0.261361
-0.105336
0.0332285
0.154674
0.259034
0.346686
0.414279
0.458463
0.477175
0.475116
0.459178
0.439136
0.420015
-0.391094
-0.324856
-0.227916
-0.113546
0.00529192
0.117668
0.216434
0.297775
0.361834
0.410749
0.445781
0.46883
0.478335
0.473812
0.456098
0.43064
0.402458
0.3775
0.357507
0.400728
0.454993
0.523603
0.592099
0.649666
0.688876
0.707257
0.705266
0.687089
0.657772
0.620775
0.57993
0.535349
0.488259
0.440351
0.395726
0.356655
0.325685
0.302004
1.19164
1.32007
1.44896
1.55158
1.61038
1.61633
1.57014
1.47914
1.35614
1.21488
1.06743
0.923885
0.789703
0.669209
0.564861
0.477601
0.404928
0.341133
0.273834
1.78249
1.75677
1.69114
1.58692
1.45148
1.29523
1.13002
0.966591
0.81414
0.678322
0.561801
0.464466
0.383982
0.317472
0.262013
0.214154
0.169277
0.119838
0.0533407
2.4359
2.48537
2.48003
2.41496
2.29198
2.11965
1.91093
1.68135
1.44683
1.22
1.01135
0.82648
0.667219
0.532737
0.420388
0.324849
0.23919
0.154307
0.059179
3.0086
3.04479
3.00604
2.89462
2.71739
2.48746
2.22139
1.93767
1.65396
1.3838
1.13823
0.922479
0.737876
0.582528
0.45256
0.34141
0.241934
0.146684
0.0499269
3.51842
3.52647
3.44656
3.28686
3.05808
2.77703
2.46305
2.13655
1.81597
1.51474
1.24362
1.00688
0.80498
0.634952
0.492047
0.369045
0.258968
0.15527
0.0529057
4.00017
3.96382
3.83394
3.62135
3.33996
3.01018
2.65374
2.29216
1.94366
1.62071
1.33289
1.08301
0.870277
0.690599
0.538458
0.406082
0.286438
0.172929
0.0597598
4.42727
4.33474
4.1498
3.88212
3.54969
3.1766
2.78616
2.39982
2.03444
1.70052
1.40573
1.15098
0.934059
0.749688
0.59166
0.451643
0.322389
0.19697
0.0689935
4.66033
4.52633
4.2955
3.98486
3.61828
3.22226
2.81982
2.43048
2.06836
1.74112
1.45411
1.20622
0.993953
0.81112
0.651089
0.505159
0.366025
0.226626
0.0803863
4.93889
4.75292
4.46165
4.09736
3.69026
3.26848
2.85383
2.46299
2.10658
1.78884
1.51236
1.27371
1.06785
0.887484
0.725416
0.572388
0.420965
0.263949
0.0946656
5.17006
4.90411
4.54487
4.12975
3.69139
3.25668
2.84407
2.46564
2.12748
1.82984
1.57239
1.34932
1.15422
0.978759
0.815354
0.654251
0.48804
0.309534
0.112098
5.27641
4.92727
4.50667
4.05469
3.60409
3.17739
2.78715
2.43926
2.13453
1.86901
1.63962
1.43846
1.25802
1.08924
0.924395
0.753393
0.569087
0.364471
0.13307
5.26569
4.83931
4.36815
3.8974
3.45623
3.05908
2.71028
2.40854
2.14927
1.92455
1.72908
1.55324
1.38881
1.22625
1.05797
0.873659
0.666635
0.430197
0.158053
5.21525
4.70302
4.19007
3.71784
3.3046
2.95311
2.65805
2.41101
2.20248
2.02116
1.86029
1.70886
1.55825
1.3986
1.22264
1.0198
0.783955
0.508702
0.187799
5.06563
4.47369
3.94693
3.50414
3.14608
2.86174
2.63568
2.45329
2.30125
2.16587
2.03986
1.91129
1.77161
1.61084
1.4222
1.19493
0.923499
0.601751
0.223226
4.55629
3.96523
3.49782
3.15001
2.90152
2.72673
2.60088
2.50524
2.42455
2.34435
2.25817
2.15414
2.02452
1.85983
1.6543
1.39735
1.08429
0.709212
0.264866
4.06088
3.51175
3.14074
2.91437
2.78823
2.72485
2.69398
2.67611
2.65624
2.62039
2.56356
2.47426
2.34559
2.16844
1.93786
1.64312
1.27975
0.841171
0.317423
3.45657
3.01287
2.80438
2.74293
2.76207
2.81959
2.88549
2.943
2.97945
2.98261
2.94931
2.86907
2.73581
2.54081
2.27969
1.94113
1.51984
1.00699
0.386859
2.44977
2.30275
2.37262
2.54272
2.74588
2.94735
3.12442
3.26614
3.36407
3.40919
3.40031
3.32917
3.19059
2.97668
2.68339
2.29869
1.81489
1.21855
0.482777
1.47509
1.75279
2.1387
2.54032
2.91457
3.24339
3.51601
3.72806
3.87605
3.95472
3.96393
3.8985
3.75343
3.52123
3.19686
2.76619
2.21523
1.5204
0.632709
0.541682
1.31359
2.02746
2.65547
3.19375
3.64345
4.00769
4.28787
4.48578
4.6007
4.63255
4.58063
4.43944
4.20168
3.85962
3.39487
2.78101
1.97483
0.886936
-0.1618
1.0693
2.07153
2.89724
3.58207
4.14202
4.59324
4.94108
5.19279
5.3531
5.42119
5.40262
5.29094
5.07889
4.75361
4.28915
3.63655
2.71625
1.36654
-0.499076
1.03985
2.25323
3.23687
4.04846
4.70925
5.24581
5.66576
5.98231
6.20742
6.3397
6.3937
6.36291
6.24141
6.00921
5.62907
5.01508
4.02387
2.36959
-0.438229
1.19914
2.53365
3.6341
4.55331
5.30712
5.92942
6.42977
6.82886
7.14927
7.39152
7.58395
7.7255
7.81791
7.83656
7.7347
7.37563
6.51559
4.67006
-0.0798746
1.48099
2.86328
4.0473
5.05712
5.89611
6.60319
7.19258
7.69463
8.14981
8.56638
8.99544
9.45938
9.98908
10.5749
11.1925
11.6685
11.6437
10.3511
0.355938
1.78487
3.18897
4.44113
5.52774
6.44199
7.22637
7.9087
8.52875
9.16158
9.8313
10.6287
11.6577
13.0645
15.0176
17.9291
22.4286
29.8723
43.0649
)
;

boundaryField
{
    up
    {
        type            calculated;
        value           nonuniform List<scalar> 
84
(
-43.0648
-10.3511
-4.67007
-2.36959
-1.36654
-0.886938
-0.632708
-0.482775
-0.386855
-0.317419
-0.264863
-0.223225
-0.187799
-0.158054
-0.133071
-0.112099
-0.0946668
-0.0803873
-0.0689942
-0.0597604
-0.0529064
-0.0499276
-0.0591825
-0.0534364
-0.231618
-0.279726
-0.333889
-0.392939
-0.463979
-0.555133
-0.678198
-0.846905
-1.05328
-2.05291
-1.24717
-0.0576086
-0.118873
-0.0830268
-0.0664867
-0.0414408
-0.0295939
-0.0168108
0.0167263
0.0293574
0.0415069
0.0663052
0.0828739
0.118561
0.058857
1.22743
2.064
1.05483
0.848183
0.679123
0.555837
0.464545
0.393425
0.334346
0.280123
0.232758
0.0533407
0.059179
0.0499269
0.0529057
0.0597598
0.0689935
0.0803863
0.0946656
0.112098
0.13307
0.158053
0.187799
0.223226
0.264866
0.317423
0.386859
0.482777
0.632709
0.886936
1.36654
2.36959
4.67006
10.3511
43.0649
)
;
    }
    low
    {
        type            calculated;
        value           nonuniform List<scalar> 
84
(
-0.320543
0.133649
0.524858
0.593004
0.220707
-0.552534
-1.56429
-2.59927
-3.62926
-4.20287
-4.68138
-5.16719
-5.26032
-5.27645
-5.26584
-5.12747
-4.86854
-4.58263
-4.33167
-3.87113
-3.37245
-2.85839
-2.28802
-1.65259
-1.08926
-0.364127
0.348871
1.07458
1.75359
2.48183
3.04704
3.56543
4.04666
4.36438
4.55422
4.69791
4.46121
3.91261
3.24183
2.43577
1.53226
0.588623
-0.588348
-1.532
-2.43549
-3.24161
-3.91244
-4.46114
-4.69784
-4.55489
-4.36404
-4.04687
-3.56557
-3.04721
-2.48199
-1.75375
-1.07476
-0.349018
0.363793
1.08949
1.65235
2.28814
2.85841
3.37246
3.87113
4.33169
4.58265
4.86855
5.12748
5.26585
5.27646
5.26033
5.16717
4.68139
4.2029
3.62929
2.59929
1.56431
0.552551
-0.220699
-0.593006
-0.524867
-0.133654
0.320545
)
;
    }
    left
    {
        type            calculated;
        value           nonuniform List<scalar> 
19
(
-0.316463
-1.71516
-3.14889
-4.4453
-5.57938
-6.53666
-7.36262
-8.08965
-8.75722
-9.45858
-10.2174
-11.1349
-12.3456
-14.0432
-16.4383
-20.109
-25.9287
-35.7919
-37.3501
)
;
    }
    right
    {
        type            calculated;
        value           nonuniform List<scalar> 
19
(
0.316466
1.71517
3.14889
4.4453
5.57938
6.53666
7.36262
8.08966
8.75722
9.45858
10.2174
11.1349
12.3456
14.0432
16.4382
20.109
25.9287
35.7919
37.3501
)
;
    }
    frontAndBackPlanes
    {
        type            empty;
    }
}


// ************************************************************************* //
