/*--------------------------------*- C++ -*----------------------------------*\
  =========                 |
  \\      /  F ield         | OpenFOAM: The Open Source CFD Toolbox
   \\    /   O peration     | Website:  https://openfoam.org
    \\  /    A nd           | Version:  7
     \\/     M anipulation  |
\*---------------------------------------------------------------------------*/
FoamFile
{
    version     2.0;
    format      ascii;
    class       volScalarField;
    location    "0.09";
    object      gradTx;
}
// * * * * * * * * * * * * * * * * * * * * * * * * * * * * * * * * * * * * * //

dimensions      [0 -1 0 1 0 0 0];

internalField   nonuniform List<scalar> 
1596
(
-0.0873858
-0.437788
-0.774961
-1.06196
-1.29183
-1.46201
-1.58365
-1.66502
-1.71694
-1.75609
-1.78793
-1.83068
-1.90399
-2.0342
-2.25061
-2.61745
-3.22705
-4.27272
-6.15165
0.0233755
-0.35286
-0.681389
-0.952382
-1.16848
-1.32983
-1.4466
-1.52422
-1.57182
-1.5997
-1.61114
-1.61711
-1.62299
-1.63642
-1.65952
-1.69345
-1.71736
-1.68302
-1.48144
0.116004
-0.264488
-0.572586
-0.819615
-1.01512
-1.16223
-1.26966
-1.34165
-1.38519
-1.40699
-1.40898
-1.39763
-1.37347
-1.33804
-1.2895
-1.2242
-1.12619
-0.964986
-0.674588
0.136386
-0.201078
-0.467555
-0.679628
-0.847649
-0.975759
-1.07057
-1.13548
-1.17548
-1.19486
-1.19503
-1.17949
-1.14714
-1.09699
-1.0263
-0.930917
-0.800855
-0.619592
-0.350464
0.0632938
-0.183004
-0.386139
-0.552194
-0.68629
-0.791062
-0.870319
-0.926377
-0.962433
-0.98091
-0.98301
-0.970277
-0.941144
-0.893565
-0.82467
-0.73023
-0.603942
-0.437046
-0.210185
-0.0906788
-0.219167
-0.344152
-0.455529
-0.550276
-0.627669
-0.688355
-0.733202
-0.763697
-0.780723
-0.78526
-0.777502
-0.755848
-0.717824
-0.660619
-0.579842
-0.470934
-0.32861
-0.142531
-0.290374
-0.304847
-0.34845
-0.401005
-0.452794
-0.49941
-0.538565
-0.569441
-0.591924
-0.605582
-0.610952
-0.60731
-0.593097
-0.565738
-0.522554
-0.459058
-0.371368
-0.255381
-0.104876
-0.493429
-0.419376
-0.390821
-0.387059
-0.395836
-0.410299
-0.426091
-0.44082
-0.452988
-0.461065
-0.464938
-0.463245
-0.454424
-0.435976
-0.405409
-0.358354
-0.291195
-0.20007
-0.0803546
-0.699118
-0.570082
-0.482911
-0.426345
-0.391041
-0.37022
-0.358894
-0.353612
-0.351802
-0.350976
-0.350158
-0.347422
-0.341023
-0.328528
-0.307602
-0.274177
-0.224795
-0.155573
-0.0623088
-0.820693
-0.678165
-0.56059
-0.469198
-0.400973
-0.351625
-0.317088
-0.293772
-0.27864
-0.268681
-0.262194
-0.256887
-0.250825
-0.241686
-0.227321
-0.204153
-0.169022
-0.11821
-0.0477299
-0.921799
-0.777767
-0.64449
-0.529061
-0.434332
-0.359688
-0.303119
-0.26176
-0.232638
-0.212519
-0.199089
-0.189726
-0.182222
-0.174274
-0.163846
-0.147859
-0.123502
-0.0873785
-0.035759
-1.02885
-0.889469
-0.747424
-0.613662
-0.495641
-0.39671
-0.317602
-0.256917
-0.212244
-0.180374
-0.158502
-0.143618
-0.133122
-0.124565
-0.115889
-0.104399
-0.0876319
-0.0626145
-0.0259965
-1.06702
-0.947044
-0.810668
-0.672443
-0.543196
-0.42963
-0.335132
-0.260138
-0.203248
-0.161682
-0.132526
-0.112584
-0.0989846
-0.089152
-0.0809848
-0.0721082
-0.0603998
-0.0433831
-0.0182365
-1.08839
-0.987503
-0.861115
-0.723889
-0.58866
-0.464895
-0.358393
-0.27152
-0.204061
-0.153843
-0.118039
-0.0933359
-0.0766281
-0.0651768
-0.0567808
-0.0492573
-0.0407422
-0.0292052
-0.0123695
-1.10464
-1.01998
-0.904044
-0.770173
-0.631915
-0.500785
-0.384662
-0.287772
-0.211136
-0.153256
-0.111502
-0.0824833
-0.0628814
-0.0497638
-0.0407847
-0.0338382
-0.0272241
-0.0192593
-0.00814748
-1.09894
-1.03175
-0.928002
-0.800512
-0.66302
-0.52842
-0.406234
-0.302336
-0.218929
-0.155223
-0.108879
-0.0764995
-0.0546197
-0.0401415
-0.0305816
-0.0238485
-0.0183378
-0.012615
-0.00526413
-1.06787
-1.01816
-0.928221
-0.80993
-0.676871
-0.542783
-0.418397
-0.310928
-0.223626
-0.156372
-0.107166
-0.0726777
-0.0493745
-0.034055
-0.0241399
-0.0175365
-0.0126997
-0.00836456
-0.00339197
-1.02607
-0.988406
-0.911146
-0.802877
-0.676219
-0.545205
-0.421398
-0.313032
-0.224213
-0.155396
-0.104892
-0.0694654
-0.0455686
-0.0299481
-0.0199719
-0.0135521
-0.00918743
-0.00572853
-0.00222631
-0.992905
-0.964842
-0.896843
-0.795928
-0.673935
-0.545092
-0.421669
-0.312712
-0.222983
-0.153334
-0.102253
-0.0665174
-0.0425266
-0.0269621
-0.0171424
-0.0109761
-0.00699104
-0.00411381
-0.00151989
-0.914359
-0.901083
-0.846571
-0.757688
-0.645561
-0.524178
-0.406116
-0.300929
-0.213887
-0.14622
-0.0966456
-0.0620767
-0.0389864
-0.0241139
-0.0148269
-0.00909604
-0.0055134
-0.00308524
-0.00108648
-0.818681
-0.817841
-0.776757
-0.70097
-0.600722
-0.489439
-0.379621
-0.280976
-0.199049
-0.135336
-0.0887611
-0.0564229
-0.0349513
-0.0212286
-0.0127451
-0.00758564
-0.00443663
-0.00239086
-0.000810296
-0.71122
-0.718693
-0.689576
-0.62722
-0.540475
-0.441726
-0.342929
-0.253521
-0.179046
-0.121139
-0.0789166
-0.0497351
-0.0304762
-0.018261
-0.0107807
-0.00628968
-0.00360006
-0.00190057
-0.000630042
-0.583438
-0.595231
-0.576982
-0.529437
-0.459311
-0.377125
-0.293544
-0.217169
-0.153232
-0.103425
-0.0671208
-0.0420899
-0.0256282
-0.0152378
-0.00891746
-0.00516243
-0.00295154
-0.00158473
-0.000557771
-0.430981
-0.425858
-0.400383
-0.357013
-0.301776
-0.242109
-0.184684
-0.134225
-0.0932168
-0.0620115
-0.0396911
-0.0245594
-0.0147581
-0.00866199
-0.00501187
-0.00289077
-0.00168467
-0.000965689
-0.000395327
-0.288555
-0.315555
-0.32977
-0.324547
-0.299628
-0.259717
-0.212032
-0.163659
-0.120041
-0.0840738
-0.0565528
-0.0367982
-0.0232868
-0.0144331
-0.0088472
-0.00545219
-0.00346599
-0.00235138
-0.00169302
-0.0960648
-0.105342
-0.114341
-0.119242
-0.117882
-0.109933
-0.0967011
-0.0803508
-0.0633529
-0.047628
-0.0343354
-0.0239604
-0.0162723
-0.0108304
-0.00711469
-0.00468666
-0.00317585
-0.0023267
-0.00191735
0.0977867
0.0886553
0.0707961
0.0478752
0.0243256
0.00401035
-0.0107002
-0.0191747
-0.0223037
-0.0216792
-0.0189365
-0.0154865
-0.0120807
-0.00911389
-0.00669456
-0.0048571
-0.00355193
-0.00274381
-0.00232697
0.288519
0.27627
0.248281
0.208513
0.162873
0.117601
0.077759
0.0462253
0.0236173
0.00891177
0.00034096
-0.00410795
-0.0059497
-0.0062806
-0.00576359
-0.00489297
-0.00397178
-0.0032578
-0.0028232
0.455539
0.436017
0.397112
0.343191
0.280668
0.216762
0.157869
0.108182
0.069437
0.0412515
0.0220523
0.00961973
0.00202082
-0.00228106
-0.00430064
-0.00486403
-0.00456664
-0.00400916
-0.00353053
0.620484
0.589712
0.537648
0.469011
0.390678
0.310399
0.235199
0.16992
0.116967
0.0764284
0.0469858
0.026377
0.0124358
0.0033509
-0.00206671
-0.00480044
-0.00557084
-0.00530193
-0.00471644
0.734569
0.691862
0.629314
0.551415
0.464745
0.376477
0.293173
0.219482
0.157996
0.109149
0.0720204
0.0445811
0.0247233
0.0105938
0.00105442
-0.0047826
-0.00739574
-0.0077673
-0.006971
0.832136
0.779529
0.707066
0.620811
0.527389
0.433331
0.344498
0.265036
0.197422
0.142218
0.0988039
0.0653832
0.0399359
0.0205543
0.00612553
-0.00412118
-0.0100722
-0.0122136
-0.0115784
0.913164
0.847602
0.765222
0.672207
0.574562
0.477762
0.386637
0.304561
0.233671
0.174502
0.126677
0.0886712
0.0586056
0.0344964
0.0151007
-0.000570119
-0.0118771
-0.0182868
-0.0191342
0.952324
0.868478
0.77304
0.671768
0.569736
0.471218
0.379883
0.298183
0.227661
0.168579
0.120459
0.0818795
0.0509946
0.0256654
0.00423075
-0.0149731
-0.0318297
-0.0456195
-0.0541802
0.963645
0.87393
0.779851
0.685217
0.592599
0.50406
0.421501
0.346298
0.279505
0.221509
0.17228
0.13121
0.0972281
0.0689652
0.044998
0.0234155
0.00284065
-0.0179675
-0.0392515
0.963657
0.872272
0.782165
0.693867
0.608058
0.5258
0.448364
0.376868
0.312299
0.255148
0.205582
0.163382
0.127819
0.0980425
0.0731597
0.0520935
0.0338792
0.0175168
0.00187225
0.888542
0.785001
0.689398
0.60016
0.516963
0.440121
0.370123
0.307331
0.251997
0.203968
0.162909
0.128264
0.0991339
0.0746394
0.0539914
0.0364274
0.0213936
0.00860429
-0.00222727
0.762817
0.67153
0.588306
0.511566
0.440792
0.375969
0.317242
0.264695
0.21838
0.178062
0.143416
0.113967
0.0889812
0.0677537
0.0496563
0.0340651
0.0205019
0.00870503
-0.00158758
0.622078
0.547423
0.478889
0.415876
0.358111
0.305528
0.258126
0.215852
0.178644
0.146235
0.11832
0.0944917
0.074152
0.056738
0.0417613
0.0287326
0.0172883
0.00724625
-0.001584
0.461729
0.405142
0.353678
0.306797
0.26415
0.225549
0.190879
0.160019
0.132865
0.109178
0.0887219
0.0711877
0.0561411
0.0431779
0.0319575
0.0221357
0.013466
0.00583727
-0.000875646
0.287934
0.250312
0.217361
0.187996
0.161624
0.13794
0.116769
0.0979755
0.0814588
0.0670484
0.0545875
0.0438799
0.0346575
0.026674
0.0197259
0.0136071
0.00817442
0.00337111
-0.000869231
0.109748
0.0941806
0.0811578
0.0697793
0.0596591
0.050629
0.0426049
0.035527
0.0293492
0.023999
0.0194077
0.0154911
0.0121406
0.00925548
0.00675141
0.00454482
0.00257633
0.000819464
-0.000752016
-0.109696
-0.0940596
-0.0809889
-0.0695795
-0.0594423
-0.0504065
-0.0423857
-0.0353179
-0.029155
-0.0238228
-0.0192512
-0.0153551
-0.0120251
-0.00916038
-0.00667626
-0.00448929
-0.00254011
-0.000802049
0.000751169
-0.287884
-0.250202
-0.21721
-0.187818
-0.161432
-0.137744
-0.116577
-0.0977932
-0.0812907
-0.0668971
-0.0544544
-0.0437655
-0.0345619
-0.0265969
-0.0196671
-0.0135661
-0.00815117
-0.00336509
0.000858608
-0.461677
-0.405033
-0.353527
-0.306619
-0.263957
-0.225351
-0.190686
-0.159836
-0.132696
-0.109026
-0.0885881
-0.0710725
-0.0560438
-0.0430979
-0.0318938
-0.0220873
-0.0134319
-0.00581638
0.000884296
-0.622035
-0.547339
-0.478776
-0.415743
-0.357968
-0.305384
-0.257987
-0.215723
-0.178528
-0.146133
-0.118233
-0.0944197
-0.074094
-0.0566931
-0.0417284
-0.0287107
-0.0172766
-0.00724383
0.00157795
-0.762785
-0.671466
-0.588219
-0.511463
-0.440681
-0.375857
-0.317136
-0.264599
-0.218296
-0.177991
-0.143358
-0.113921
-0.0889465
-0.0677287
-0.0496397
-0.0340557
-0.0204984
-0.00870603
0.0015838
-0.88853
-0.784967
-0.689345
-0.600093
-0.516892
-0.440052
-0.370062
-0.307281
-0.251959
-0.203944
-0.162896
-0.12826
-0.0991369
-0.0746481
-0.0540044
-0.036443
-0.0214095
-0.00861792
0.00221847
-0.96364
-0.872166
-0.781961
-0.693573
-0.607694
-0.525391
-0.447935
-0.376442
-0.311894
-0.254775
-0.205247
-0.163086
-0.12756
-0.097814
-0.0729561
-0.0519114
-0.03372
-0.0173937
-0.00181282
-0.963794
-0.874335
-0.780513
-0.686106
-0.59367
-0.505256
-0.422764
-0.347572
-0.280741
-0.222674
-0.173351
-0.132179
-0.0980973
-0.0697489
-0.0457171
-0.0240974
-0.0035076
0.0173101
0.0386332
-0.95224
-0.868271
-0.772722
-0.671368
-0.569286
-0.470746
-0.379413
-0.297731
-0.227237
-0.168188
-0.120102
-0.0815555
-0.0507012
-0.0253991
-0.00398501
0.01521
0.0320836
0.0459375
0.0546264
-0.91321
-0.84772
-0.765408
-0.672453
-0.574856
-0.478086
-0.386973
-0.30489
-0.233976
-0.174774
-0.126911
-0.0888663
-0.0587645
-0.0346217
-0.0151925
0.000517333
0.011871
0.0183302
0.019215
-0.832162
-0.7796
-0.707187
-0.620979
-0.527597
-0.433566
-0.344743
-0.265276
-0.197642
-0.14241
-0.0989635
-0.0655113
-0.0400351
-0.0206264
-0.00616986
0.00410873
0.0100932
0.0122584
0.0116266
-0.734599
-0.69194
-0.629445
-0.551596
-0.464964
-0.376719
-0.293419
-0.219715
-0.158202
-0.109322
-0.0721593
-0.0446883
-0.024803
-0.0106491
-0.00108622
0.00477473
0.00740982
0.0077943
0.00699441
-0.620515
-0.589797
-0.53779
-0.469204
-0.390909
-0.310647
-0.235443
-0.170142
-0.117156
-0.0765808
-0.0471032
-0.026464
-0.0124979
-0.00339194
0.00204429
0.00479487
0.00557862
0.00531658
0.00472817
-0.455568
-0.436104
-0.397256
-0.343384
-0.280892
-0.216996
-0.15809
-0.108375
-0.0695953
-0.0413735
-0.0221422
-0.00968357
-0.00206427
0.00225399
0.00428713
0.00486156
0.00457176
0.00401759
0.00353689
-0.288555
-0.276368
-0.248439
-0.208718
-0.163101
-0.117826
-0.0779622
-0.0463937
-0.0237473
-0.00900623
-0.000406492
0.00406432
0.00592216
0.00626516
0.00575738
0.00489346
0.0039762
0.00326353
0.00282745
-0.0978203
-0.0887544
-0.0709549
-0.0480735
-0.0245365
-0.00420877
0.0105319
0.0190442
0.02221
0.0216165
0.0188968
0.0154628
0.012068
0.00910869
0.00669455
0.00486033
0.00355659
0.0027486
0.00233072
0.0959816
0.105098
0.113958
0.118777
0.117402
0.109493
0.0963361
0.0800722
0.0631547
0.0474955
0.0342512
0.0239095
0.0162433
0.0108154
0.00710808
0.00468481
0.00317624
0.00232809
0.00191965
0.288605
0.315741
0.330093
0.324972
0.300103
0.260185
0.212451
0.164005
0.120308
0.0842688
0.0566887
0.03689
0.0233473
0.0144729
0.00887361
0.00547016
0.00347871
0.00236089
0.00170028
0.430914
0.425639
0.400036
0.356589
0.301333
0.241695
0.184329
0.133943
0.0930044
0.0618598
0.0395872
0.0244908
0.0147145
0.00863528
0.00499607
0.00288177
0.00167973
0.000963197
0.00039451
0.583468
0.59529
0.577064
0.529528
0.459399
0.377199
0.2936
0.217208
0.153256
0.103438
0.0671275
0.0420929
0.0256295
0.0152384
0.00891783
0.00516274
0.00295179
0.00158495
0.000557953
0.711222
0.718695
0.689576
0.627218
0.54047
0.44172
0.342922
0.253514
0.17904
0.121135
0.0789144
0.0497341
0.0304761
0.0182614
0.0107814
0.00629035
0.00360067
0.00190103
0.000630248
0.818683
0.817844
0.776757
0.700968
0.600718
0.489433
0.379615
0.280971
0.199045
0.135334
0.08876
0.0564228
0.0349518
0.0212294
0.0127461
0.0075866
0.00443748
0.00239146
0.000810496
0.914359
0.901085
0.846573
0.757687
0.645558
0.524174
0.406111
0.300924
0.213883
0.146218
0.0966447
0.0620768
0.0389871
0.0241149
0.0148281
0.00909732
0.00551458
0.00308607
0.00108674
0.992907
0.964847
0.896848
0.79593
0.673935
0.54509
0.421666
0.312709
0.22298
0.153333
0.102252
0.0665175
0.0425274
0.0269634
0.017144
0.0109779
0.00699273
0.00411499
0.00152025
1.02608
0.98841
0.911149
0.802879
0.67622
0.545204
0.421395
0.313029
0.22421
0.155394
0.104892
0.0694656
0.0455697
0.0299498
0.0199742
0.0135546
0.00918979
0.00573012
0.00222673
1.06787
1.01816
0.928224
0.809932
0.676871
0.542782
0.418396
0.310926
0.223624
0.156371
0.107166
0.0726784
0.0493762
0.0340576
0.0241431
0.0175399
0.0127027
0.00836648
0.0033924
1.09894
1.03175
0.928006
0.800516
0.663022
0.528421
0.406234
0.302335
0.218928
0.155222
0.108879
0.0765008
0.0546221
0.040145
0.0305857
0.0238527
0.0183413
0.0126169
0.00526439
1.10463
1.01998
0.904046
0.770176
0.631917
0.500786
0.384662
0.287772
0.211135
0.153256
0.111503
0.0824854
0.0628847
0.0497681
0.0407895
0.0338425
0.027227
0.0192604
0.00814733
1.0884
0.987505
0.861118
0.723892
0.588663
0.464897
0.358393
0.27152
0.204061
0.153844
0.118041
0.0933388
0.0766321
0.0651814
0.0567851
0.0492604
0.0407434
0.0292046
0.0123687
1.06702
0.947047
0.810673
0.672448
0.5432
0.429632
0.335134
0.26014
0.20325
0.161684
0.132529
0.112588
0.0989885
0.0891555
0.080987
0.0721082
0.0603976
0.0433801
0.0182351
1.02885
0.889468
0.747424
0.613663
0.495641
0.39671
0.317602
0.256917
0.212245
0.180375
0.158504
0.14362
0.133124
0.124566
0.115886
0.104393
0.0876251
0.0626088
0.0259948
0.921805
0.777773
0.644495
0.529065
0.434334
0.35969
0.303121
0.261762
0.23264
0.212521
0.199091
0.189726
0.18222
0.174269
0.163838
0.147848
0.123491
0.0873711
0.0357577
0.820702
0.678171
0.560593
0.4692
0.400974
0.351627
0.31709
0.293774
0.278641
0.268681
0.262192
0.256883
0.250817
0.241674
0.227307
0.204137
0.169009
0.118203
0.0477298
0.699126
0.570087
0.482913
0.426346
0.391042
0.370222
0.358896
0.353613
0.351801
0.350973
0.350152
0.347412
0.341009
0.328511
0.307584
0.27416
0.224784
0.15557
0.0623104
0.493435
0.419378
0.390823
0.387061
0.395838
0.410301
0.426092
0.440819
0.452985
0.461058
0.464927
0.46323
0.454406
0.435956
0.405391
0.358341
0.29119
0.200072
0.0803577
0.290378
0.30485
0.348454
0.401009
0.452798
0.499412
0.538565
0.569438
0.591918
0.605572
0.610938
0.607293
0.593079
0.565722
0.522542
0.459055
0.371372
0.255388
0.10488
0.090682
0.219172
0.344159
0.455535
0.55028
0.62767
0.688354
0.733197
0.763688
0.780712
0.785246
0.777487
0.755835
0.717816
0.660618
0.57985
0.470947
0.328621
0.142534
-0.0632919
0.18301
0.386146
0.5522
0.686294
0.791062
0.870316
0.926371
0.962424
0.9809
0.982999
0.970268
0.941139
0.893568
0.824681
0.730248
0.603959
0.437055
0.210185
-0.136386
0.201083
0.46756
0.679632
0.84765
0.975757
1.07057
1.13547
1.17547
1.19486
1.19502
1.17949
1.14714
1.097
1.02632
0.930937
0.800869
0.619596
0.350461
-0.116005
0.264489
0.572586
0.819613
1.01512
1.16222
1.26965
1.34165
1.38518
1.40699
1.40899
1.39764
1.37349
1.33806
1.28952
1.22422
1.12619
0.964982
0.674583
-0.0233749
0.352859
0.681384
0.952374
1.16847
1.32983
1.4466
1.52422
1.57182
1.59971
1.61115
1.61712
1.62301
1.63643
1.65953
1.69345
1.71735
1.68301
1.48144
0.087387
0.437786
0.774955
1.06196
1.29182
1.462
1.58364
1.66502
1.71694
1.7561
1.78794
1.83069
1.904
2.0342
2.2506
2.61743
3.22703
4.27272
6.15165
)
;

boundaryField
{
    up
    {
        type            calculated;
        value           nonuniform List<scalar> 
84
(
-6.15165
-1.48144
-0.674588
-0.350464
-0.210185
-0.142531
-0.104876
-0.0803546
-0.0623088
-0.0477299
-0.035759
-0.0259965
-0.0182365
-0.0123695
-0.00814748
-0.00526413
-0.00339197
-0.00222631
-0.00151989
-0.00108648
-0.000810296
-0.000630042
-0.000557771
-0.000395327
-0.00138237
-0.0017036
-0.00208085
-0.00250393
-0.00306455
-0.00396615
-0.00564367
-0.00886861
-0.0139476
-0.0502169
-0.0391711
0.00188648
-0.00213643
-0.00152779
-0.00154683
-0.000858011
-0.000860382
-0.000748753
0.000747933
0.000849858
0.000866737
0.00154101
0.00152429
0.00212794
-0.001828
0.0385636
0.0507354
0.0140229
0.00890018
0.00565537
0.00397057
0.00306659
0.00250573
0.00208329
0.0017062
0.0013882
0.00039451
0.000557953
0.000630248
0.000810496
0.00108674
0.00152025
0.00222673
0.0033924
0.00526439
0.00814733
0.0123687
0.0182351
0.0259948
0.0357577
0.0477298
0.0623104
0.0803577
0.10488
0.142534
0.210185
0.350461
0.674583
1.48144
6.15165
)
;
    }
    low
    {
        type            calculated;
        value           nonuniform List<scalar> 
84
(
-0.0783956
0.0372738
0.137769
0.15924
0.0771477
-0.0931456
-0.309929
-0.525229
-0.735231
-0.850558
-0.94918
-1.05315
-1.08171
-1.09799
-1.11166
-1.10072
-1.06468
-1.02183
-0.984991
-0.898194
-0.797193
-0.686784
-0.557178
-0.406317
-0.267894
-0.0883341
0.0889226
0.267018
0.42936
0.596714
0.718045
0.82123
0.909158
0.956164
0.973058
0.979447
0.910476
0.78433
0.640335
0.475752
0.297007
0.11348
-0.113428
-0.296955
-0.475697
-0.640287
-0.784292
-0.910456
-0.979421
-0.973182
-0.956081
-0.909191
-0.82125
-0.718072
-0.596744
-0.42939
-0.267056
-0.0889566
0.0882525
0.267942
0.406255
0.557202
0.686786
0.797193
0.898193
0.984992
1.02183
1.06468
1.10072
1.11166
1.098
1.08172
1.05315
0.949185
0.850567
0.735237
0.525234
0.309934
0.0931491
-0.0771457
-0.159241
-0.137772
-0.0372761
0.078396
)
;
    }
    left
    {
        type            calculated;
        value           nonuniform List<scalar> 
19
(
-0.0788036
-0.424061
-0.770496
-1.06951
-1.31086
-1.48998
-1.6185
-1.70576
-1.76239
-1.80848
-1.84943
-1.90496
-2.0001
-2.16861
-2.44621
-2.92117
-3.72073
-5.1144
-5.33377
)
;
    }
    right
    {
        type            calculated;
        value           nonuniform List<scalar> 
19
(
0.078805
0.424062
0.770492
1.0695
1.31085
1.48997
1.6185
1.70576
1.76239
1.80848
1.84944
1.90497
2.0001
2.1686
2.44619
2.92115
3.72071
5.1144
5.33378
)
;
    }
    frontAndBackPlanes
    {
        type            empty;
    }
}


// ************************************************************************* //
