/*--------------------------------*- C++ -*----------------------------------*\
  =========                 |
  \\      /  F ield         | OpenFOAM: The Open Source CFD Toolbox
   \\    /   O peration     | Website:  https://openfoam.org
    \\  /    A nd           | Version:  7
     \\/     M anipulation  |
\*---------------------------------------------------------------------------*/
FoamFile
{
    version     2.0;
    format      ascii;
    class       volScalarField;
    location    "0.09";
    object      gradTy;
}
// * * * * * * * * * * * * * * * * * * * * * * * * * * * * * * * * * * * * * //

dimensions      [0 -1 0 1 0 0 0];

internalField   nonuniform List<scalar> 
1596
(
-0.182772
-0.334985
-0.451299
-0.551996
-0.635578
-0.715409
-0.784435
-0.856367
-0.934017
-1.01828
-1.13902
-1.29149
-1.51353
-1.84662
-2.39267
-3.27216
-4.87914
-7.87043
-18.5881
-0.549682
-0.664176
-0.724235
-0.763368
-0.787134
-0.812992
-0.836847
-0.871959
-0.921389
-0.983394
-1.08371
-1.21574
-1.40576
-1.67294
-2.07153
-2.62556
-3.4688
-4.71945
-8.27237
-0.963527
-0.982399
-0.966143
-0.938404
-0.903054
-0.876916
-0.856881
-0.854882
-0.873097
-0.908066
-0.980969
-1.08319
-1.23345
-1.44079
-1.7398
-2.1321
-2.69207
-3.4666
-5.11885
-1.37075
-1.27241
-1.17428
-1.0806
-0.989816
-0.915345
-0.854331
-0.816669
-0.803544
-0.810404
-0.853948
-0.924574
-1.0355
-1.19053
-1.41313
-1.69658
-2.08661
-2.60004
-3.47106
-1.71461
-1.51778
-1.3482
-1.19641
-1.05697
-0.939521
-0.841661
-0.771108
-0.728333
-0.708282
-0.723463
-0.764274
-0.839715
-0.950833
-1.11434
-1.32137
-1.60265
-1.9624
-2.48535
-1.95571
-1.70675
-1.48856
-1.29222
-1.11351
-0.959799
-0.830026
-0.730165
-0.660427
-0.615809
-0.605069
-0.619235
-0.663916
-0.738582
-0.855341
-1.00571
-1.2117
-1.4728
-1.821
-2.08472
-1.83381
-1.59522
-1.37147
-1.16465
-0.982411
-0.826201
-0.7011
-0.607607
-0.541259
-0.507655
-0.498771
-0.517433
-0.562074
-0.641239
-0.74768
-0.897631
-1.08939
-1.33594
-2.11768
-1.89935
-1.66613
-1.4328
-1.20997
-1.00778
-0.831177
-0.685396
-0.571782
-0.486839
-0.433723
-0.405469
-0.402666
-0.422965
-0.471937
-0.54364
-0.649975
-0.789441
-0.96799
-2.08417
-1.91896
-1.70945
-1.481
-1.25247
-1.03783
-0.84604
-0.68351
-0.552916
-0.452053
-0.382406
-0.338044
-0.317827
-0.318769
-0.3439
-0.388305
-0.460332
-0.558957
-0.687387
-2.00464
-1.88961
-1.71314
-1.50149
-1.27788
-1.05973
-0.859728
-0.686085
-0.543106
-0.43009
-0.347626
-0.290755
-0.257147
-0.24333
-0.250258
-0.273726
-0.319167
-0.385944
-0.476118
-1.92654
-1.84206
-1.69453
-1.50283
-1.28954
-1.07369
-0.870587
-0.690314
-0.538822
-0.416924
-0.324915
-0.258706
-0.215225
-0.190658
-0.184337
-0.192459
-0.218072
-0.26063
-0.321503
-1.84561
-1.79023
-1.6674
-1.49464
-1.29316
-1.08241
-0.879233
-0.695318
-0.538101
-0.409786
-0.310783
-0.237732
-0.18715
-0.154999
-0.139398
-0.136725
-0.148157
-0.173005
-0.212065
-1.75576
-1.72493
-1.62403
-1.46937
-1.28083
-1.07788
-0.877967
-0.693984
-0.534496
-0.402849
-0.299807
-0.222598
-0.167601
-0.130665
-0.10909
-0.0993256
-0.101186
-0.113743
-0.137296
-1.68388
-1.66347
-1.577
-1.43621
-1.25872
-1.06355
-0.868131
-0.68609
-0.526701
-0.394093
-0.289406
-0.21027
-0.153059
-0.113577
-0.0886057
-0.0746124
-0.0704757
-0.0750067
-0.0880788
-1.6234
-1.61019
-1.53225
-1.40049
-1.23095
-1.04214
-0.851169
-0.672006
-0.51425
-0.382452
-0.278001
-0.198743
-0.141071
-0.100773
-0.0743196
-0.0581831
-0.0506451
-0.0503027
-0.0566983
-1.56771
-1.56241
-1.49016
-1.36367
-1.19899
-1.01465
-0.827512
-0.651627
-0.496599
-0.367053
-0.264429
-0.186587
-0.129909
-0.0901655
-0.0636521
-0.0468595
-0.0377261
-0.0347091
-0.037129
-1.52138
-1.52077
-1.45155
-1.32708
-1.16423
-0.9822
-0.797851
-0.625232
-0.473682
-0.347565
-0.248116
-0.173013
-0.118548
-0.0804514
-0.0549326
-0.0385246
-0.0290032
-0.0247636
-0.0250037
-1.4848
-1.48718
-1.41868
-1.29334
-1.12939
-0.947261
-0.764258
-0.59441
-0.446615
-0.324695
-0.229401
-0.158037
-0.106703
-0.071053
-0.047257
-0.0319171
-0.0227658
-0.0182021
-0.0173784
-1.44724
-1.46062
-1.39405
-1.26637
-1.09887
-0.914117
-0.73053
-0.562301
-0.41784
-0.300233
-0.209495
-0.142386
-0.0946911
-0.0619421
-0.0402794
-0.0263887
-0.0180295
-0.0136488
-0.0124047
-1.40569
-1.4347
-1.37277
-1.24295
-1.07067
-0.881673
-0.696154
-0.528763
-0.387431
-0.274347
-0.188579
-0.126188
-0.0825502
-0.0530387
-0.0337783
-0.0215605
-0.0142236
-0.0102991
-0.00898686
-1.37139
-1.41323
-1.3564
-1.2243
-1.04615
-0.851359
-0.662548
-0.495111
-0.356534
-0.247985
-0.167388
-0.109972
-0.0706162
-0.0445068
-0.027763
-0.0173021
-0.0110761
-0.00772742
-0.00652127
-1.34008
-1.39613
-1.34512
-1.21096
-1.02636
-0.824679
-0.631426
-0.463039
-0.326665
-0.222393
-0.146877
-0.0944182
-0.0593323
-0.0365986
-0.0223347
-0.0135954
-0.00846531
-0.00571101
-0.00467821
-1.30799
-1.38131
-1.33792
-1.20265
-1.01178
-0.802734
-0.604262
-0.434116
-0.299264
-0.198759
-0.127942
-0.0801487
-0.0490936
-0.0295356
-0.017591
-0.0104514
-0.0063355
-0.00412803
-0.0032604
-1.27564
-1.36712
-1.33243
-1.19682
-1.00008
-0.783601
-0.579627
-0.407286
-0.273529
-0.176458
-0.110026
-0.0666785
-0.0394788
-0.0229608
-0.0132317
-0.00762937
-0.00449264
-0.0028051
-0.00198623
-1.24636
-1.35643
-1.33661
-1.20969
-1.01604
-0.798299
-0.591048
-0.414912
-0.277973
-0.17878
-0.111049
-0.0671053
-0.0396581
-0.0230789
-0.0133506
-0.00778631
-0.00467076
-0.0029653
-0.00200603
-1.22297
-1.3471
-1.34176
-1.22751
-1.04245
-0.828096
-0.619763
-0.439519
-0.297199
-0.192764
-0.120582
-0.0733167
-0.0435573
-0.0254609
-0.0147754
-0.00864837
-0.00521833
-0.00336774
-0.00239125
-1.21897
-1.34676
-1.3497
-1.24585
-1.06994
-0.861062
-0.653692
-0.470601
-0.323113
-0.212778
-0.135064
-0.0832713
-0.0501054
-0.0296103
-0.0173196
-0.0101838
-0.00615977
-0.00399561
-0.00287686
-1.23742
-1.35805
-1.36139
-1.26369
-1.09598
-0.893839
-0.689579
-0.505573
-0.354051
-0.238063
-0.15437
-0.0972392
-0.0597452
-0.0359844
-0.0213516
-0.0126404
-0.00762262
-0.00489635
-0.00348908
-1.27471
-1.38179
-1.37946
-1.28408
-1.12324
-0.928363
-0.728752
-0.545477
-0.39107
-0.269839
-0.179882
-0.116676
-0.0738937
-0.0458612
-0.0279283
-0.0168103
-0.0101346
-0.00638703
-0.00440675
-1.32856
-1.41532
-1.40299
-1.30735
-1.15233
-0.96502
-0.771263
-0.590239
-0.434247
-0.308528
-0.212421
-0.142744
-0.0939385
-0.0607212
-0.0384741
-0.0239171
-0.0146101
-0.0090673
-0.0059897
-1.39711
-1.45916
-1.4351
-1.33778
-1.18756
-1.00743
-0.819844
-0.641833
-0.485104
-0.355503
-0.253425
-0.177048
-0.121682
-0.0825495
-0.0550743
-0.0359765
-0.0227391
-0.0141362
-0.00897982
-1.46546
-1.50824
-1.47405
-1.37515
-1.22938
-1.05624
-0.875055
-0.700725
-0.544124
-0.411422
-0.30384
-0.220883
-0.158807
-0.113474
-0.0803471
-0.0560308
-0.0375979
-0.0240874
-0.0149836
-1.54087
-1.56517
-1.52087
-1.41983
-1.27775
-1.11112
-0.93642
-0.766418
-0.610957
-0.476233
-0.364015
-0.275023
-0.206516
-0.155231
-0.116833
-0.0878507
-0.0642868
-0.0445673
-0.0275412
-1.62874
-1.63389
-1.57921
-1.47561
-1.33681
-1.17661
-1.00881
-0.844092
-0.691104
-0.555758
-0.440197
-0.346057
-0.27167
-0.214937
-0.172305
-0.140841
-0.115852
-0.094697
-0.0745872
-1.7241
-1.70916
-1.64054
-1.53008
-1.39025
-1.2329
-1.06943
-0.908788
-0.758341
-0.623283
-0.505969
-0.408225
-0.329199
-0.267671
-0.221279
-0.188192
-0.164856
-0.148714
-0.136394
-1.83171
-1.78978
-1.70188
-1.57959
-1.43381
-1.27479
-1.11195
-0.952969
-0.804153
-0.669896
-0.552657
-0.454001
-0.373444
-0.309997
-0.261905
-0.227527
-0.204452
-0.191034
-0.185343
-1.95192
-1.87818
-1.76932
-1.6337
-1.48001
-1.31688
-1.15227
-0.992896
-0.844297
-0.710322
-0.593378
-0.494831
-0.414301
-0.350837
-0.302805
-0.268282
-0.244737
-0.22998
-0.221546
-2.05805
-1.95682
-1.82955
-1.68182
-1.5206
-1.35319
-1.1865
-1.0264
-0.877816
-0.744152
-0.627627
-0.529476
-0.449313
-0.386202
-0.338584
-0.30452
-0.281538
-0.267437
-0.259758
-2.13949
-2.02092
-1.88063
-1.72378
-1.55664
-1.38573
-1.21726
-1.05649
-0.907888
-0.774502
-0.658421
-0.560757
-0.481119
-0.41858
-0.371649
-0.338359
-0.316292
-0.3032
-0.29659
-2.20309
-2.07166
-1.92152
-1.75763
-1.58584
-1.41215
-1.24222
-1.08088
-0.932255
-0.799131
-0.683493
-0.586349
-0.507297
-0.445404
-0.399225
-0.366757
-0.345622
-0.33353
-0.327963
-2.2494
-2.10831
-1.95063
-1.78146
-1.60625
-1.43053
-1.25956
-1.09784
-0.949248
-0.81638
-0.701148
-0.604483
-0.52597
-0.464665
-0.419147
-0.387375
-0.366991
-0.355661
-0.35084
-2.28173
-2.12976
-1.96608
-1.79343
-1.6162
-1.4394
-1.26794
-1.10611
-0.957642
-0.825015
-0.710103
-0.61379
-0.535657
-0.474752
-0.429674
-0.398371
-0.378504
-0.367726
-0.363483
-2.28174
-2.12978
-1.9661
-1.79346
-1.61623
-1.43944
-1.26798
-1.10615
-0.95768
-0.825053
-0.71014
-0.613826
-0.535692
-0.474786
-0.429709
-0.398406
-0.37854
-0.367763
-0.363523
-2.24941
-2.10834
-1.95069
-1.78154
-1.60633
-1.43063
-1.25966
-1.09794
-0.949357
-0.816489
-0.701255
-0.604588
-0.526073
-0.464766
-0.419248
-0.387478
-0.367099
-0.355775
-0.350964
-2.20311
-2.07172
-1.92161
-1.75775
-1.58598
-1.4123
-1.24238
-1.08105
-0.932431
-0.799306
-0.683665
-0.586517
-0.507461
-0.445565
-0.399385
-0.366919
-0.345789
-0.333706
-0.328151
-2.13952
-2.021
-1.88075
-1.72393
-1.55681
-1.38594
-1.21748
-1.05672
-0.90812
-0.774732
-0.658646
-0.560975
-0.48133
-0.418785
-0.37185
-0.33856
-0.316498
-0.303415
-0.296818
-2.05808
-1.9569
-1.82968
-1.682
-1.52082
-1.35343
-1.18677
-1.02668
-0.878099
-0.744432
-0.6279
-0.529738
-0.449564
-0.386443
-0.338817
-0.30475
-0.28177
-0.267677
-0.260011
-1.95196
-1.87828
-1.76947
-1.6339
-1.48025
-1.31715
-1.15257
-0.993214
-0.84462
-0.710641
-0.593686
-0.495124
-0.414577
-0.351098
-0.303054
-0.268523
-0.244975
-0.230219
-0.221792
-1.83175
-1.78989
-1.70207
-1.57985
-1.43413
-1.27516
-1.11236
-0.953407
-0.804599
-0.670334
-0.553078
-0.454399
-0.373819
-0.310349
-0.262239
-0.227845
-0.204755
-0.191318
-0.1856
-1.72413
-1.70919
-1.64061
-1.53022
-1.39046
-1.23318
-1.06976
-0.909162
-0.758734
-0.623674
-0.50634
-0.408561
-0.329492
-0.267916
-0.221479
-0.188357
-0.165017
-0.148926
-0.136737
-1.62875
-1.63399
-1.57942
-1.47594
-1.33727
-1.17718
-1.00946
-0.844793
-0.69182
-0.556456
-0.440854
-0.346657
-0.272208
-0.215416
-0.172742
-0.141261
-0.116287
-0.0951854
-0.0751578
-1.54087
-1.56521
-1.52099
-1.42005
-1.27808
-1.11154
-0.936908
-0.766939
-0.611479
-0.476727
-0.364461
-0.275411
-0.206847
-0.155513
-0.117081
-0.0880808
-0.0645064
-0.0447663
-0.0276889
-1.46546
-1.50826
-1.47415
-1.37536
-1.2297
-1.05664
-0.875523
-0.701216
-0.544603
-0.411862
-0.304224
-0.221206
-0.159072
-0.113693
-0.080532
-0.0561932
-0.0377399
-0.0241991
-0.0150525
-1.3971
-1.45917
-1.43518
-1.33797
-1.18785
-1.00782
-0.820278
-0.64228
-0.485529
-0.355882
-0.253745
-0.177306
-0.121887
-0.0827115
-0.0552047
-0.0360833
-0.0228249
-0.0141981
-0.00901291
-1.32854
-1.41532
-1.40306
-1.30752
-1.1526
-0.965374
-0.771661
-0.590641
-0.434619
-0.308849
-0.212683
-0.142948
-0.0940942
-0.0608394
-0.0385645
-0.0239861
-0.014661
-0.0091012
-0.00600599
-1.27468
-1.38177
-1.37951
-1.28423
-1.12349
-0.928685
-0.729109
-0.54583
-0.391388
-0.270105
-0.180092
-0.116835
-0.0740106
-0.0459464
-0.0279902
-0.0168546
-0.0101648
-0.00640574
-0.00441515
-1.2374
-1.35804
-1.36143
-1.26382
-1.09621
-0.894126
-0.689891
-0.505874
-0.354315
-0.238279
-0.154536
-0.0973608
-0.059832
-0.0360455
-0.021394
-0.012669
-0.00764092
-0.00490719
-0.00349416
-1.21895
-1.34675
-1.34974
-1.24597
-1.07014
-0.861308
-0.653955
-0.47085
-0.323327
-0.21295
-0.135193
-0.0833639
-0.05017
-0.0296545
-0.0173492
-0.0102029
-0.00617154
-0.00400269
-0.00288093
-1.22295
-1.34709
-1.34179
-1.2276
-1.0426
-0.828284
-0.619962
-0.439705
-0.297357
-0.192888
-0.120674
-0.0733823
-0.0436024
-0.0254911
-0.014795
-0.00866063
-0.00522574
-0.00337241
-0.00239487
-1.24638
-1.35645
-1.33664
-1.20973
-1.0161
-0.798368
-0.591121
-0.414981
-0.278033
-0.178829
-0.111088
-0.0671342
-0.0396792
-0.0230939
-0.0133609
-0.00779323
-0.00467545
-0.00296853
-0.00200753
-1.27566
-1.36713
-1.33243
-1.19679
-1.00004
-0.783541
-0.579565
-0.407228
-0.27348
-0.176418
-0.109997
-0.0666571
-0.0394638
-0.0229505
-0.0132246
-0.00762458
-0.00448938
-0.00280275
-0.00198355
-1.308
-1.38131
-1.33792
-1.20265
-1.01177
-0.802732
-0.604262
-0.434119
-0.299269
-0.198764
-0.127946
-0.0801518
-0.0490956
-0.0295367
-0.0175914
-0.0104514
-0.0063354
-0.0041279
-0.00325995
-1.34008
-1.39614
-1.34512
-1.21095
-1.02635
-0.824673
-0.631424
-0.463039
-0.326666
-0.222395
-0.146879
-0.0944197
-0.0593333
-0.0365991
-0.022335
-0.0135955
-0.00846538
-0.0057111
-0.00467817
-1.37139
-1.41323
-1.3564
-1.2243
-1.04614
-0.851356
-0.662546
-0.49511
-0.356535
-0.247986
-0.167389
-0.109973
-0.0706168
-0.0445073
-0.0277633
-0.0173023
-0.0110764
-0.00772789
-0.00652167
-1.40569
-1.4347
-1.37277
-1.24294
-1.07067
-0.881671
-0.696153
-0.528763
-0.387431
-0.274347
-0.188579
-0.126188
-0.0825505
-0.053039
-0.0337786
-0.0215609
-0.0142243
-0.0103001
-0.00898788
-1.44725
-1.46063
-1.39405
-1.26636
-1.09886
-0.914116
-0.73053
-0.5623
-0.417839
-0.300233
-0.209495
-0.142385
-0.0946909
-0.0619421
-0.0402796
-0.0263893
-0.0180308
-0.0136507
-0.0124066
-1.4848
-1.48718
-1.41868
-1.29334
-1.12939
-0.947261
-0.764258
-0.594409
-0.446613
-0.324694
-0.2294
-0.158036
-0.106702
-0.0710527
-0.0472572
-0.031918
-0.0227679
-0.0182053
-0.0173816
-1.52138
-1.52077
-1.45155
-1.32708
-1.16423
-0.982201
-0.797852
-0.625232
-0.47368
-0.347563
-0.248114
-0.173011
-0.118547
-0.0804507
-0.0549327
-0.038526
-0.0290065
-0.0247687
-0.0250086
-1.56771
-1.56241
-1.49016
-1.36367
-1.19899
-1.01465
-0.827513
-0.651626
-0.496597
-0.36705
-0.264426
-0.186584
-0.129907
-0.0901644
-0.0636522
-0.0468617
-0.037731
-0.0347164
-0.0371355
-1.62339
-1.61019
-1.53225
-1.40049
-1.23095
-1.04214
-0.85117
-0.672005
-0.514248
-0.382448
-0.277998
-0.19874
-0.141069
-0.100772
-0.07432
-0.0581863
-0.0506519
-0.0503121
-0.0567059
-1.68388
-1.66346
-1.577
-1.43622
-1.25872
-1.06355
-0.868132
-0.686089
-0.526698
-0.394089
-0.289401
-0.210266
-0.153056
-0.113575
-0.0886066
-0.074617
-0.0704843
-0.0750173
-0.0880858
-1.75576
-1.72493
-1.62404
-1.46938
-1.28084
-1.07788
-0.877967
-0.693982
-0.534492
-0.402844
-0.299801
-0.222593
-0.167597
-0.130663
-0.109092
-0.0993314
-0.101195
-0.113752
-0.137299
-1.8456
-1.79023
-1.6674
-1.49464
-1.29316
-1.08242
-0.879232
-0.695315
-0.538096
-0.40978
-0.310777
-0.237726
-0.187147
-0.154998
-0.139401
-0.136731
-0.148165
-0.17301
-0.212063
-1.92653
-1.84206
-1.69453
-1.50284
-1.28954
-1.07369
-0.870586
-0.69031
-0.538817
-0.416918
-0.324909
-0.258701
-0.215222
-0.190659
-0.184341
-0.192464
-0.218076
-0.260626
-0.321492
-2.00463
-1.88961
-1.71314
-1.50149
-1.27788
-1.05973
-0.859725
-0.68608
-0.543101
-0.430084
-0.34762
-0.290751
-0.257146
-0.243332
-0.250262
-0.273728
-0.319162
-0.385929
-0.4761
-2.08417
-1.91897
-1.70946
-1.48101
-1.25248
-1.03783
-0.846036
-0.683505
-0.55291
-0.452048
-0.382402
-0.338042
-0.317828
-0.318772
-0.343903
-0.388303
-0.460319
-0.558932
-0.687367
-2.11769
-1.89936
-1.66613
-1.43281
-1.20997
-1.00778
-0.831172
-0.685392
-0.571778
-0.486836
-0.433722
-0.40547
-0.402669
-0.42297
-0.471938
-0.543632
-0.649954
-0.78941
-0.967973
-2.08473
-1.83382
-1.59522
-1.37147
-1.16464
-0.982408
-0.826198
-0.701098
-0.607605
-0.541259
-0.507658
-0.498776
-0.517439
-0.562078
-0.641237
-0.747667
-0.897607
-1.08937
-1.33593
-1.95571
-1.70675
-1.48856
-1.29223
-1.11351
-0.959799
-0.830026
-0.730165
-0.660429
-0.615813
-0.605076
-0.619243
-0.663923
-0.738585
-0.855336
-1.00569
-1.21167
-1.47278
-1.82101
-1.71462
-1.51778
-1.34821
-1.19641
-1.05698
-0.939524
-0.841664
-0.771112
-0.728338
-0.708289
-0.723472
-0.764284
-0.839722
-0.950834
-1.11433
-1.32136
-1.60263
-1.96239
-2.48537
-1.37075
-1.27241
-1.17428
-1.0806
-0.98982
-0.915349
-0.854337
-0.816676
-0.803552
-0.810414
-0.853959
-0.924584
-1.0355
-1.19053
-1.41312
-1.69657
-2.08661
-2.60005
-3.47108
-0.963528
-0.982394
-0.966141
-0.938405
-0.903057
-0.876921
-0.856888
-0.854889
-0.873106
-0.908077
-0.98098
-1.0832
-1.23345
-1.44079
-1.73979
-2.13209
-2.69207
-3.46661
-5.11886
-0.549682
-0.664169
-0.72423
-0.763367
-0.787134
-0.812994
-0.836852
-0.871965
-0.921397
-0.983403
-1.08372
-1.21575
-1.40576
-1.67294
-2.07152
-2.62555
-3.46879
-4.71946
-8.27237
-0.182774
-0.334983
-0.451296
-0.551993
-0.635576
-0.715408
-0.784435
-0.85637
-0.934021
-1.01829
-1.13903
-1.29149
-1.51353
-1.84661
-2.39266
-3.27215
-4.87913
-7.87043
-18.5881
)
;

boundaryField
{
    up
    {
        type            calculated;
        value           nonuniform List<scalar> 
84
(
-16.847
-9.1238
-5.57773
-3.75052
-2.67424
-1.95739
-1.43724
-1.04323
-0.74207
-0.514699
-0.347589
-0.228879
-0.147611
-0.0940411
-0.0599092
-0.0387017
-0.0256587
-0.0175529
-0.0123483
-0.00883674
-0.00634755
-0.00451183
-0.00308673
-0.00170731
-0.00163975
-0.0021475
-0.00259621
-0.00312501
-0.00387538
-0.00513413
-0.00746624
-0.0118935
-0.0216268
-0.0700678
-0.136187
-0.184942
-0.218781
-0.257381
-0.294704
-0.326553
-0.349773
-0.3627
-0.362741
-0.349901
-0.326748
-0.294938
-0.257641
-0.219031
-0.185172
-0.136555
-0.0707208
-0.0217681
-0.0119435
-0.00748598
-0.00514207
-0.00387885
-0.0031273
-0.00259878
-0.00215146
-0.00164124
-0.00170409
-0.00308594
-0.00451162
-0.00634781
-0.00883758
-0.01235
-0.0175556
-0.0256628
-0.038707
-0.0599147
-0.0940448
-0.14761
-0.228872
-0.347574
-0.51468
-0.742054
-1.04322
-1.43726
-1.95742
-2.67427
-3.75055
-5.57773
-9.12379
-16.847
)
;
    }
    low
    {
        type            calculated;
        value           nonuniform List<scalar> 
84
(
-0.196625
-0.57621
-1.01932
-1.46138
-1.83534
-2.09328
-2.2219
-2.24155
-2.18179
-2.07187
-1.97986
-1.88643
-1.77868
-1.69811
-1.63333
-1.57017
-1.51695
-1.47883
-1.43611
-1.38171
-1.33662
-1.29588
-1.25208
-1.20843
-1.16068
-1.12795
-1.1245
-1.15499
-1.20846
-1.28213
-1.36806
-1.44748
-1.53451
-1.63492
-1.74001
-1.86021
-1.99757
-2.11347
-2.19982
-2.26745
-2.31712
-2.35512
-2.35513
-2.31712
-2.26746
-2.19983
-2.11348
-1.99759
-1.86024
-1.73999
-1.63494
-1.53449
-1.44746
-1.36804
-1.28212
-1.20844
-1.15497
-1.12449
-1.12794
-1.16068
-1.20845
-1.25208
-1.29589
-1.33663
-1.38171
-1.43611
-1.47883
-1.51695
-1.57017
-1.63333
-1.69811
-1.77867
-1.88642
-1.97985
-2.07186
-2.18178
-2.24154
-2.2219
-2.09328
-1.83535
-1.46139
-1.01933
-0.576216
-0.196627
)
;
    }
    left
    {
        type            calculated;
        value           nonuniform List<scalar> 
19
(
-0.17974
-0.330024
-0.449649
-0.554917
-0.643276
-0.727437
-0.800279
-0.876136
-0.957695
-1.04748
-1.17651
-1.34081
-1.58336
-1.95378
-2.56618
-3.56856
-5.41923
-8.9018
-17.4689
)
;
    }
    right
    {
        type            calculated;
        value           nonuniform List<scalar> 
19
(
-0.179741
-0.330023
-0.449647
-0.554914
-0.643274
-0.727437
-0.80028
-0.876139
-0.957699
-1.04748
-1.17651
-1.34082
-1.58336
-1.95377
-2.56616
-3.56854
-5.41922
-8.9018
-17.4689
)
;
    }
    frontAndBackPlanes
    {
        type            empty;
    }
}


// ************************************************************************* //
