/*--------------------------------*- C++ -*----------------------------------*\
  =========                 |
  \\      /  F ield         | OpenFOAM: The Open Source CFD Toolbox
   \\    /   O peration     | Website:  https://openfoam.org
    \\  /    A nd           | Version:  7
     \\/     M anipulation  |
\*---------------------------------------------------------------------------*/
FoamFile
{
    version     2.0;
    format      ascii;
    class       volScalarField;
    location    "0.09";
    object      gradTz;
}
// * * * * * * * * * * * * * * * * * * * * * * * * * * * * * * * * * * * * * //

dimensions      [0 -1 0 1 0 0 0];

internalField   nonuniform List<scalar> 
1596
(
-1.61319e-16
-7.67087e-17
7.98495e-17
3.45918e-18
-1.47265e-16
0
-6.58834e-17
-6.50162e-17
-6.83897e-18
-3.55892e-17
-1.64323e-19
-3.58447e-17
1.61318e-16
-3.59729e-17
1.66913e-16
1.44932e-16
8.64598e-17
1.09932e-16
0
1.59206e-16
0
2.12454e-16
-2.74731e-18
-6.04977e-17
5.96266e-17
1.29512e-16
6.6499e-18
6.00956e-17
-2.94801e-17
5.92155e-17
-4.64819e-19
-8.269e-17
-5.23126e-17
-1.34678e-16
-1.32356e-16
-1.21057e-16
6.94183e-17
0
-7.54064e-17
0
-1.32955e-16
4.29389e-18
1.12083e-16
-3.60963e-17
4.9545e-18
-7.19739e-19
-5.43092e-19
-4.48075e-19
1.84452e-17
0
4.28267e-17
1.19416e-16
-1.19173e-17
1.00626e-17
2.33983e-17
3.82634e-17
0
1.21942e-16
-3.29085e-17
3.27884e-17
0
-3.01972e-17
-3.23913e-17
4.82507e-17
-3.70792e-17
0
0
-1.9753e-17
9.69502e-18
0
-3.40872e-17
-4.12009e-17
2.96652e-17
-3.3617e-17
-1.70885e-18
0
2.16999e-17
5.15901e-17
-4.1458e-17
0
-1.0627e-17
-3.32581e-17
0
4.64983e-17
-4.35939e-18
-3.96611e-18
-8.45662e-18
2.24737e-17
2.9574e-17
3.51505e-18
4.5987e-18
-3.20399e-17
1.57824e-18
1.50687e-17
-6.86135e-18
-5.63511e-18
-7.00891e-17
6.11008e-17
-4.76724e-17
-2.02695e-19
-3.48993e-17
9.30142e-19
-9.3323e-19
-2.33681e-17
0
-6.72159e-18
-2.69644e-17
-2.65653e-17
1.95764e-17
2.51559e-17
-3.29702e-19
-1.51415e-17
-1.5284e-17
1.19864e-17
4.70936e-17
-7.09812e-17
7.12747e-17
3.5995e-17
0
2.73128e-17
1.40498e-17
-6.48478e-18
2.92001e-17
-5.12628e-18
-2.35603e-17
1.12485e-19
-1.26353e-17
-1.96348e-17
-1.38549e-17
1.28558e-17
1.52748e-17
-2.1183e-19
-4.82552e-18
8.04421e-18
1.14702e-16
-1.20242e-16
0
0
-3.06452e-17
0
0
0
1.432e-17
0
0
1.19508e-17
1.97331e-19
5.52502e-18
-1.14661e-17
0
6.09825e-18
2.7012e-18
0
-7.04354e-17
1.31792e-16
0
0
3.15603e-17
0
-8.77064e-18
8.76177e-18
-1.45757e-17
5.3942e-18
-5.43366e-18
0
7.68157e-18
1.00836e-17
0
-5.7557e-18
-6.21762e-18
-2.40685e-18
1.93902e-16
-8.7445e-17
0
-4.53582e-17
4.48506e-17
0
2.32179e-17
0
0
0
4.2705e-18
-4.29097e-18
0
-6.07302e-18
-1.55551e-18
0
1.67774e-18
2.95423e-18
0
-4.92949e-17
0
0
4.60294e-17
-8.07662e-17
8.17477e-18
3.37059e-18
-7.56391e-18
1.80581e-18
6.05738e-19
-4.39737e-18
-5.74321e-18
0
4.03393e-18
-9.70132e-19
9.84693e-19
3.51096e-18
-2.41217e-18
-9.87092e-19
3.44797e-17
-7.47122e-18
3.35071e-17
9.99438e-17
-1.03591e-17
-3.54627e-17
0
0
0
9.40363e-18
2.97424e-18
9.84497e-18
-2.31991e-18
-3.96177e-18
-1.8626e-18
-1.25235e-18
5.83966e-19
-1.37065e-18
9.17533e-19
-4.22736e-17
4.17512e-17
-7.34141e-17
-9.91109e-17
8.65246e-17
2.66556e-17
-4.57653e-17
3.33344e-17
-2.39896e-17
6.37581e-18
3.57439e-18
-2.79768e-18
1.1342e-18
-1.15494e-18
3.63061e-18
0
-2.96674e-19
2.40414e-18
-3.6945e-19
-2.94151e-16
1.29017e-16
7.29146e-20
-2.02155e-17
5.59322e-18
2.60372e-17
-4.74371e-17
-1.56173e-17
1.09896e-17
-7.60533e-18
-5.26024e-18
0
-4.33598e-18
-1.1809e-18
-1.71295e-18
-9.66724e-19
7.26971e-20
-1.16558e-18
1.19208e-19
4.80466e-17
-3.97367e-17
-3.43921e-20
-2.52541e-17
-5.33543e-17
4.80055e-17
2.68232e-19
1.52191e-17
-1.06998e-17
1.44858e-17
3.03128e-18
2.07121e-18
4.66375e-18
0
2.89348e-18
1.26388e-18
0
5.30515e-19
7.51726e-20
0
3.85493e-17
2.4794e-17
-5.47958e-17
5.1447e-17
-7.04071e-17
4.41147e-17
1.21464e-17
-3.66572e-18
-1.51023e-17
1.87522e-18
-1.86597e-18
-3.99936e-18
1.24617e-18
-6.36439e-19
-1.12441e-18
3.9272e-19
-2.4794e-19
1.44669e-19
-4.46124e-17
1.34317e-16
-1.01736e-16
4.60668e-17
0
0
-6.8986e-18
1.5979e-17
-7.6581e-18
1.34901e-17
0
0
2.5217e-18
-1.90591e-18
-9.78695e-19
3.05342e-19
-3.13307e-19
1.72647e-19
0
6.70849e-18
4.17878e-17
-2.82449e-17
-2.24431e-17
-2.90304e-17
-4.57513e-18
1.19033e-17
0
-6.94005e-18
-4.14344e-18
3.43715e-18
-2.1891e-18
1.37902e-18
0
4.09108e-19
5.85119e-19
0
0
0
-6.5772e-18
5.48359e-17
1.49112e-17
-6.83264e-17
1.5453e-17
1.16487e-17
0
0
6.24314e-18
-3.39788e-18
-3.32447e-18
2.11726e-18
-1.33362e-18
0
-1.92793e-19
1.30261e-19
0
-9.09344e-20
-3.22394e-20
-3.26099e-17
9.59569e-17
-1.0738e-16
-3.42879e-17
1.90128e-17
-1.02949e-17
7.16062e-18
0
-3.18575e-18
2.25679e-18
0
0
4.15793e-19
-4.16272e-19
7.61041e-20
-1.28123e-19
1.21888e-19
2.75209e-20
2.47246e-20
1.83344e-17
-1.50129e-17
6.60343e-17
-4.16069e-17
-1.31892e-17
2.88672e-18
1.56775e-17
4.27134e-18
3.04829e-18
0
9.26403e-19
-8.36285e-19
5.11078e-19
-3.37227e-19
2.68662e-19
-3.90104e-19
-9.2519e-20
7.43135e-20
1.64584e-20
4.60666e-17
-4.82303e-17
0
2.94083e-17
-1.65184e-17
-8.92376e-18
3.73509e-18
-1.38753e-17
0
-2.07522e-19
-1.25764e-18
-6.25691e-19
6.40178e-19
-9.08594e-20
-2.59658e-19
1.51372e-19
0
3.41319e-20
-1.5981e-20
8.65174e-17
-1.33597e-17
4.73257e-17
-3.65451e-17
1.37307e-17
-2.09541e-18
-1.31485e-17
-2.79247e-18
4.51354e-18
-3.17132e-19
-1.34414e-18
9.81443e-19
-3.61783e-19
-3.04515e-19
0
0
0
-3.43348e-20
1.15778e-21
-7.17285e-17
6.84338e-17
1.63323e-20
7.43478e-18
5.35652e-18
-9.71293e-18
9.86791e-18
-6.30688e-18
4.26393e-18
-8.65529e-19
1.56543e-18
3.56158e-19
-1.19913e-19
7.19589e-21
-1.6011e-20
-3.21932e-20
0
0
0
0
0
2.54091e-17
-1.70992e-17
-3.26991e-17
0
0
-1.76027e-18
-2.13329e-18
1.3401e-18
0
-4.4918e-19
2.58301e-19
-5.91261e-19
6.3275e-19
-1.37226e-19
1.45112e-19
1.27941e-20
0
-1.3824e-17
1.39941e-17
0
-8.07423e-18
7.80114e-18
1.01326e-17
0
1.77708e-18
1.26234e-18
-6.63693e-18
0
-5.30196e-19
3.07369e-19
1.56004e-19
-8.90874e-20
1.06655e-19
0
-2.87883e-20
0
-7.12949e-18
-6.39429e-18
3.77125e-19
8.29606e-18
-1.86892e-17
0
-3.18988e-18
0
5.25248e-18
1.53714e-18
0
2.07661e-18
-1.77479e-18
2.48291e-19
-1.44427e-19
1.1202e-19
2.01652e-19
5.81885e-20
-4.61249e-20
0
1.40371e-17
-1.02473e-17
1.23794e-17
1.17255e-17
0
6.25015e-18
-5.40476e-18
-2.90453e-18
3.06682e-18
-4.47068e-18
-1.45645e-18
0
0
1.2825e-19
0
0
2.25314e-20
0
-6.56331e-17
5.10938e-17
0
1.3353e-18
-6.4118e-18
-2.99113e-19
4.47339e-18
2.00538e-18
-3.26804e-18
-4.98106e-18
5.7581e-18
-1.63105e-18
0
-3.80291e-19
0
0
0
-8.83025e-20
7.09311e-20
-1.93719e-17
1.66363e-17
3.8652e-17
-3.6056e-17
9.74142e-18
9.4714e-19
-4.52011e-18
3.14822e-18
4.25858e-18
2.45057e-18
-4.72211e-18
0
1.21367e-18
-1.4615e-19
-4.34164e-19
-6.22731e-19
4.79418e-19
-4.3777e-20
9.7115e-20
-6.85027e-17
8.40088e-17
-8.15524e-17
1.23777e-17
8.79152e-18
-7.76001e-18
5.88613e-18
-3.59526e-18
0
-2.10968e-18
2.36926e-18
9.86146e-19
1.30503e-18
1.07821e-18
-1.51119e-18
-9.70099e-20
0
-4.78053e-20
1.64686e-20
-7.40182e-17
-1.95353e-17
-2.98367e-17
1.68214e-17
-2.16525e-17
1.60793e-17
-8.88196e-18
5.95014e-18
-8.01974e-19
-7.33273e-19
-2.89635e-18
1.93705e-18
-4.64899e-19
1.68249e-18
-1.80616e-18
7.16231e-20
1.41742e-19
0
-3.23567e-20
8.00299e-17
-2.13379e-17
0
0
-2.223e-17
4.12691e-17
-8.719e-18
-1.25377e-18
9.1018e-18
-3.138e-19
0
0
-1.05263e-18
0
-1.75737e-18
3.81077e-18
-2.49493e-18
0
1.58103e-20
2.63505e-17
4.60445e-17
0
-1.67933e-17
-1.12131e-17
-8.00138e-18
-9.22232e-18
3.07624e-18
-7.90492e-18
-3.4441e-18
0
0
2.0257e-18
0
0
-2.72444e-18
4.61499e-18
0
0
1.81115e-16
-2.63622e-17
-9.93202e-17
-4.57393e-17
6.27555e-17
1.71109e-17
8.94219e-18
0
-2.54125e-18
2.06692e-18
5.13966e-18
-1.54769e-18
-1.77756e-18
2.58646e-18
-2.7512e-18
-6.61342e-19
0
0
0
1.45008e-17
-1.05092e-16
1.02252e-16
-8.85791e-18
-6.05413e-17
9.03973e-17
-4.31148e-17
0
0
1.54176e-17
-1.20965e-17
0
-2.71573e-18
4.90053e-18
-4.14319e-19
1.26708e-18
3.55982e-19
6.22062e-21
7.03956e-20
0
0
0
7.56001e-17
-5.11631e-17
4.4888e-17
-6.80559e-17
1.8187e-17
0
-5.12613e-18
7.17678e-18
-7.33509e-18
-1.20808e-18
7.23805e-20
-7.14771e-19
-7.7801e-20
-5.62404e-19
-1.63944e-19
-8.55211e-20
1.18807e-16
-2.0595e-16
9.47159e-17
0
2.04141e-17
-2.81316e-17
2.40026e-17
-1.89243e-17
0
-7.04352e-18
9.93555e-18
0
0
6.74302e-20
0
-8.36394e-19
5.6023e-19
7.60597e-20
1.40123e-19
1.21238e-16
0
-4.09017e-17
4.5535e-17
-2.47701e-17
5.25508e-17
-2.3829e-17
-1.58437e-17
1.60092e-17
-1.45608e-18
0
0
7.60669e-19
-1.14983e-18
-7.86404e-19
1.46189e-18
-3.13543e-19
1.4861e-19
0
6.86413e-17
4.86319e-17
-4.27478e-18
-4.36858e-17
-3.97783e-18
-2.59259e-17
4.39738e-18
2.01254e-17
-9.29786e-19
1.48342e-18
0
0
-7.79255e-19
0
8.4831e-19
-9.07489e-19
0
1.12647e-19
-3.06501e-20
-3.63919e-17
-2.4449e-17
2.29409e-17
-2.39048e-18
-1.00665e-18
2.52569e-18
0
-5.77504e-19
7.75821e-18
-6.52714e-18
0
1.81395e-18
-4.31006e-19
-1.52294e-18
-1.32385e-19
-1.0068e-19
0
-8.85745e-20
0
1.42434e-17
-2.64422e-17
3.2028e-19
1.04436e-17
8.42365e-18
-8.30382e-18
-5.11787e-18
5.767e-18
-1.71777e-18
1.3613e-18
-1.14302e-18
1.17827e-18
0
2.6468e-21
-9.72072e-20
3.47711e-19
-1.16368e-21
0
0
1.42439e-17
-1.41905e-17
-1.03877e-17
9.2437e-18
1.48259e-17
-1.49134e-17
-2.55907e-18
2.56589e-18
-1.73284e-18
1.75078e-18
-1.1431e-18
2.10294e-18
-5.89903e-19
-3.92034e-19
-1.12396e-19
3.89959e-20
8.72093e-20
2.26666e-20
-1.69617e-20
0
-3.28958e-18
1.79931e-17
-1.96245e-17
1.47529e-17
-1.31495e-17
0
8.34146e-18
-7.50833e-18
0
2.2485e-18
-2.82258e-18
-1.45347e-18
1.52333e-18
2.59163e-19
0
0
-8.86137e-20
3.20119e-20
5.66095e-17
-1.01702e-16
9.81208e-17
-8.09871e-17
3.09338e-17
-2.26136e-17
2.16254e-17
2.24742e-18
-7.58336e-18
6.74063e-18
0
-3.96726e-18
3.62442e-18
-6.1996e-19
-2.53851e-19
3.69839e-19
2.66074e-19
8.60269e-20
-3.09308e-20
1.36313e-16
0
-4.64487e-17
3.61794e-17
3.93233e-18
-2.70444e-17
4.60031e-17
-3.76619e-17
1.42484e-17
-5.14655e-18
5.26795e-18
9.49996e-19
1.4579e-18
6.03848e-19
-4.50552e-19
-7.30236e-20
-5.70399e-19
0
5.28625e-20
1.03934e-16
-1.1701e-16
0
9.23681e-18
3.57834e-17
-3.44855e-17
5.17721e-18
4.19289e-18
1.72796e-18
2.68564e-18
0
0
-2.48472e-18
4.37387e-18
-1.54362e-18
-5.12136e-19
5.60703e-19
4.30107e-20
-9.86257e-20
1.58061e-17
1.0299e-16
-1.08027e-17
-6.65549e-17
5.8702e-17
6.2206e-18
-5.06684e-18
-4.09521e-18
1.15653e-17
-1.42683e-17
7.18191e-18
-7.34024e-18
8.88207e-19
-1.3289e-18
1.9761e-18
-1.33481e-18
0
0
7.77908e-20
0
2.49413e-17
-6.74217e-17
7.74906e-17
-5.32498e-17
5.3123e-17
0
1.37522e-17
-1.38152e-17
-8.42538e-18
1.21114e-17
0
3.87924e-18
-4.90729e-18
-6.81487e-19
0
-6.31531e-20
-1.01e-19
-1.58579e-20
-2.50858e-16
1.15764e-16
0
-6.27555e-17
6.27492e-17
3.20354e-17
-2.08571e-17
7.008e-18
0
-2.44612e-19
1.28048e-18
-1.54679e-18
-1.77689e-18
2.58541e-18
-2.74915e-18
0
4.29154e-19
-4.50842e-20
-6.40038e-20
1.5101e-16
-1.45394e-16
0
1.64183e-17
1.34617e-17
-1.145e-17
0
-7.34444e-18
-5.10735e-18
0
-5.80819e-19
0
2.02849e-18
0
0
5.3358e-19
1.87098e-18
-2.50474e-18
0
-1.7068e-20
2.13495e-17
-1.79579e-17
1.18384e-17
-6.16346e-17
2.21179e-17
0
1.25539e-18
3.4069e-18
0
-2.64153e-18
5.68409e-18
-5.97146e-18
7.16592e-19
0
-1.83278e-19
0
0
0
-9.0287e-21
0
1.65976e-17
0
-1.91271e-17
1.94311e-17
0
4.54112e-18
-2.95074e-18
9.48085e-18
-4.31196e-18
1.07513e-18
-1.42674e-18
1.03777e-18
-1.8115e-18
-2.58602e-19
0
-7.79708e-20
0
5.67027e-17
-9.63927e-17
0
-1.21152e-17
9.46294e-18
0
0
-7.96496e-18
0
-2.11293e-18
-2.37341e-18
-9.88143e-19
1.30809e-18
0
3.60233e-19
0
0
1.51328e-19
-1.47138e-19
0
7.73704e-17
-6.12836e-17
1.12159e-17
-8.76273e-18
-2.76618e-18
7.33505e-18
6.64278e-18
-6.12953e-18
1.91014e-18
3.92106e-19
-8.59046e-19
3.2919e-18
-9.71076e-19
-1.50684e-18
4.38751e-19
-6.99559e-20
4.31848e-20
-8.81657e-21
-1.4142e-16
5.11516e-17
0
0
3.29648e-18
-3.35214e-18
1.38244e-18
2.95618e-19
5.09363e-18
1.915e-18
-1.70337e-18
-1.97606e-19
-5.06282e-19
3.81279e-19
0
9.38462e-20
6.41196e-20
2.4442e-20
7.96894e-21
0
4.08788e-17
-3.46247e-17
1.04029e-17
8.22181e-18
-1.4964e-18
-3.61349e-18
-2.46307e-18
-6.15986e-18
1.81849e-18
-5.72882e-19
1.14929e-18
4.73437e-19
-3.72426e-19
3.95308e-19
1.43512e-19
-2.10528e-19
-2.25758e-20
0
-8.33767e-18
-3.32547e-17
1.04585e-17
8.29924e-18
-2.32074e-17
1.52509e-17
5.07258e-18
-5.18496e-18
2.75806e-18
-1.72583e-18
0
0
-5.20689e-19
8.42512e-19
-3.14721e-19
1.87151e-19
-2.0671e-19
2.60325e-20
-4.61865e-20
1.50669e-17
1.28146e-17
-1.02211e-17
5.67509e-18
-7.9781e-18
-8.32326e-18
0
0
0
0
0
0
2.7356e-19
-5.03403e-19
5.32404e-19
-1.08744e-19
1.39589e-19
5.07846e-20
-4.22604e-20
3.23062e-17
-4.53233e-17
5.60104e-17
-1.88781e-17
2.69461e-17
-1.2942e-17
2.18663e-17
-1.04691e-17
-3.36966e-18
3.44701e-18
0
4.48934e-19
-2.67253e-19
4.39231e-19
-2.14869e-19
-1.73305e-19
-2.41289e-19
2.16629e-20
3.47567e-20
5.08712e-17
1.26378e-17
0
-1.48744e-17
-8.91001e-18
1.84981e-17
3.69216e-19
-4.79329e-18
2.42087e-18
-1.1788e-18
0
-3.55382e-19
0
-1.72214e-19
1.16105e-19
-8.02626e-20
-2.37683e-20
1.2359e-20
0
7.0222e-17
-1.33595e-17
4.73929e-17
-3.66682e-17
-5.78412e-18
1.73049e-17
-1.02362e-17
7.95391e-19
4.99596e-19
-1.22692e-18
1.04673e-18
0
0
2.45853e-19
-4.86882e-20
2.24901e-20
8.46185e-20
-2.8094e-20
0
4.62879e-21
0
-1.1108e-17
5.48846e-17
-3.55376e-17
-2.78686e-17
1.4937e-17
-1.01829e-17
8.77134e-18
3.13544e-18
-1.79644e-18
5.92058e-19
-4.55189e-19
1.09159e-19
4.16094e-19
-9.97423e-21
-9.13214e-20
8.25787e-20
-1.76555e-20
1.64629e-16
-5.10574e-17
1.82817e-17
-5.96007e-17
1.31892e-17
-1.67157e-17
9.67115e-18
0
0
-2.4155e-19
-4.19566e-19
-1.09316e-19
0
-4.56696e-19
-2.68663e-19
1.56413e-19
-9.75685e-21
2.60593e-20
3.87889e-20
0
-4.79625e-17
7.03867e-17
9.49802e-18
-4.84983e-17
1.02949e-17
-1.24422e-17
3.92638e-18
8.29956e-18
0
0
1.08133e-19
6.8122e-19
0
-3.4626e-19
-1.21971e-19
1.98131e-20
-3.97875e-20
-5.42045e-20
0
-2.75527e-17
1.1864e-17
4.76501e-17
2.68547e-17
-4.6571e-17
1.93902e-17
-9.38973e-18
5.39786e-18
-5.12664e-18
0
0
0
-8.35289e-19
1.04645e-19
-1.93749e-19
0
-8.64036e-21
4.10348e-20
-1.21301e-16
1.12096e-16
1.00882e-16
-1.20939e-16
4.54432e-17
-4.10668e-17
0
1.03123e-17
-1.31166e-17
6.45662e-18
-3.75185e-18
2.42887e-18
1.56048e-18
8.63873e-19
5.44548e-19
0
0
0
0
1.40634e-16
-7.36853e-17
0
0
-1.77904e-17
3.56565e-17
-2.23654e-17
-1.12627e-17
1.11357e-17
5.92241e-18
8.09059e-18
-2.52018e-18
9.02896e-19
4.95477e-19
3.03801e-19
2.46348e-19
3.7803e-19
-1.70048e-20
1.73209e-20
-1.39709e-16
1.22491e-16
5.58237e-17
-3.03581e-17
5.12436e-17
-3.22591e-17
-2.03467e-17
-1.44635e-17
0
-1.24721e-17
1.22609e-18
3.12755e-18
-1.8855e-18
-1.24623e-18
-3.87308e-19
-3.17967e-19
-2.56146e-19
0
0
-4.80504e-17
0
3.20172e-17
6.16199e-20
0
0
2.09882e-17
1.49242e-17
0
7.08729e-18
0
-4.65191e-18
-1.06041e-18
1.77973e-18
0
1.00979e-18
-1.31675e-19
1.34326e-19
0
1.05441e-16
0
5.89336e-17
-1.04081e-16
8.48293e-17
5.58772e-17
-3.71513e-18
0
1.79226e-18
9.37802e-18
0
-5.66172e-18
5.36213e-18
-4.38669e-18
-8.88054e-19
-7.82464e-19
-2.68673e-19
-5.76177e-20
-2.95582e-19
-9.22415e-17
1.31287e-16
-3.33301e-17
-7.86104e-17
-4.0507e-17
-3.05373e-17
-4.49604e-17
-1.40632e-17
2.3619e-18
3.58113e-18
-3.5744e-18
8.86305e-18
-3.64879e-18
6.4108e-18
-1.16938e-18
0
1.71836e-18
-1.16438e-18
2.78012e-19
2.16845e-16
-7.33924e-18
-1.40341e-16
9.99444e-17
-8.20976e-17
6.24491e-17
-3.74707e-18
-1.70278e-17
1.26185e-17
3.93465e-18
-9.59321e-19
-7.80227e-18
1.87601e-18
2.82182e-18
-6.74738e-19
6.82434e-19
-1.7798e-18
-6.79484e-19
-7.76393e-19
1.06452e-16
4.07096e-17
6.55801e-17
-5.13375e-17
-3.53522e-17
4.45637e-18
-2.01651e-17
4.71251e-17
2.62797e-18
1.61638e-17
8.4386e-18
-7.03322e-18
0
-4.03416e-18
0
0
4.18666e-18
1.62954e-18
8.79937e-19
9.66436e-17
0
6.36809e-17
5.10062e-17
-3.95935e-17
3.05196e-17
0
-1.76622e-17
-2.21356e-17
-1.6845e-17
-8.51329e-18
7.11275e-18
0
0
0
0
-3.95294e-18
-4.1954e-18
0
-1.89114e-16
0
-6.44859e-18
-5.91394e-18
6.12843e-17
-2.79084e-17
-1.14748e-17
-1.17128e-17
2.31697e-17
0
5.39424e-18
-5.31696e-19
6.19335e-18
0
0
9.2732e-18
-7.2017e-19
5.05739e-18
-2.63731e-18
1.30896e-16
3.36072e-17
-3.32603e-17
-2.63651e-17
-7.76516e-17
4.81533e-17
5.15829e-17
-2.90058e-18
-1.66936e-17
1.7847e-17
3.44903e-18
-1.91323e-17
-1.41592e-17
-1.13723e-17
-1.25673e-17
-1.07526e-17
1.17243e-17
-5.28353e-19
2.70117e-18
-3.89559e-17
1.62236e-17
-7.53207e-17
1.09391e-17
-1.08993e-17
0
-2.62406e-17
-4.28267e-18
-2.40948e-17
4.90746e-18
2.35601e-17
1.52593e-17
-4.28132e-18
-1.12426e-18
1.17757e-17
0
-2.65137e-17
-1.11712e-17
-2.23986e-19
8.28221e-17
-1.98805e-18
1.18348e-16
-5.2245e-17
2.02694e-19
1.20517e-18
3.45379e-17
-5.90019e-18
2.3368e-17
-2.17205e-17
-2.0749e-17
0
2.65648e-17
1.92402e-17
3.18396e-19
-4.71957e-19
1.52909e-17
1.13473e-17
0
-5.80337e-17
0
-9.91074e-18
5.08197e-17
1.3761e-18
1.06412e-17
-3.33976e-17
3.05997e-17
3.66788e-17
3.56048e-17
3.50822e-17
0
-2.58072e-17
0
1.6686e-18
-1.73299e-18
0
-1.90281e-19
9.84039e-18
4.25577e-17
4.17187e-18
-2.67212e-17
8.53234e-17
-2.63719e-17
0
0
-4.64478e-17
-3.5538e-17
-3.44931e-17
-6.86078e-17
-9.69493e-18
0
0
0
-3.88111e-18
4.10719e-18
2.8044e-17
-9.99896e-18
4.45897e-18
0
-6.3698e-17
-5.33099e-17
5.9024e-17
-5.92096e-17
-8.28083e-17
9.55167e-17
3.03306e-17
0
4.28043e-17
5.46359e-17
-1.17487e-17
6.62449e-17
-1.10135e-17
1.14624e-17
4.66534e-17
-2.66531e-17
0
-8.03958e-17
0
-7.45064e-17
7.20449e-17
0
1.20236e-16
5.47473e-17
-1.20851e-16
1.0221e-16
-3.25789e-19
-2.97819e-17
-5.28988e-17
0
8.20641e-17
-1.34678e-16
1.45528e-16
-1.85704e-16
0
0
8.06114e-17
-1.07591e-18
-2.60227e-18
-1.48885e-16
1.52522e-16
-7.22466e-17
7.19521e-17
7.10003e-17
-5.7929e-17
0
0
1.22984e-16
-1.25103e-16
-1.2965e-16
1.29691e-16
-1.27275e-16
1.38451e-16
-2.17711e-16
0
)
;

boundaryField
{
    up
    {
        type            calculated;
        value           nonuniform List<scalar> 
84
(
0
0
0
0
-6.86135e-18
1.19864e-17
-4.82552e-18
2.7012e-18
-2.40685e-18
0
-9.87092e-19
9.17533e-19
-3.6945e-19
1.19208e-19
7.51726e-20
1.44669e-19
0
0
-3.22394e-20
2.47246e-20
1.64584e-20
-1.5981e-20
1.15778e-21
0
5.70944e-21
3.84031e-21
-4.17031e-20
0
7.09311e-20
1.10595e-19
1.64686e-20
-3.23567e-20
1.58103e-20
0
1.31649e-21
7.00984e-20
-8.34729e-20
1.38363e-19
0
-3.01283e-20
0
0
-1.68894e-20
3.20119e-20
-3.09308e-20
5.28625e-20
-9.86257e-20
7.77908e-20
-1.58579e-20
-6.40038e-20
0
0
0
-1.47138e-19
-2.24277e-20
7.96894e-21
0
-4.61865e-20
-4.22604e-20
2.90568e-20
0
0
-1.76555e-20
3.87889e-20
-5.42045e-20
4.10348e-20
0
1.73209e-20
0
0
-2.95582e-19
2.78012e-19
-7.76393e-19
8.79937e-19
0
-2.63731e-18
2.70117e-18
-2.23986e-19
0
9.84039e-18
-9.99896e-18
0
0
0
)
;
    }
    low
    {
        type            calculated;
        value           nonuniform List<scalar> 
84
(
-1.61562e-16
1.59206e-16
-7.4966e-17
1.22286e-16
2.19233e-17
-5.69835e-18
4.76032e-17
8.51445e-18
0
1.94443e-16
-4.92949e-17
3.41304e-17
-4.22736e-17
-2.94277e-16
4.80466e-17
0
-4.46124e-17
6.70849e-18
-6.5772e-18
-3.26099e-17
1.83344e-17
4.60666e-17
8.60631e-17
-7.17285e-17
0
-1.3824e-17
-7.12949e-18
0
-6.56331e-17
-1.93719e-17
-6.82569e-17
-7.38635e-17
7.99746e-17
2.63505e-17
1.81251e-16
1.45008e-17
0
1.18807e-16
1.21701e-16
6.88835e-17
-3.65175e-17
1.42434e-17
1.42439e-17
0
5.66095e-17
1.36777e-16
1.03934e-16
1.61784e-17
0
-2.50993e-16
1.5101e-16
-1.7068e-20
-9.0287e-21
5.67027e-17
0
-1.40896e-16
0
-8.33767e-18
1.50669e-17
3.1982e-17
5.03447e-17
6.97676e-17
4.62879e-21
1.64328e-16
0
0
-1.21301e-16
1.40594e-16
-1.39731e-16
-4.80504e-17
1.05568e-16
-9.22415e-17
2.17544e-16
1.06893e-16
9.66436e-17
-1.89114e-16
1.30425e-16
-3.84464e-17
8.28221e-17
-5.78103e-17
4.25577e-17
4.89944e-18
-8.03958e-17
8.07329e-17
)
;
    }
    left
    {
        type            calculated;
        value           nonuniform List<scalar> 
19
(
-1.61319e-16
-7.68053e-17
7.98495e-17
3.51274e-18
-1.47401e-16
0
-6.58834e-17
-6.50162e-17
-7.17823e-18
-3.55892e-17
-1.64323e-19
-3.58447e-17
1.62891e-16
-3.59729e-17
1.66913e-16
1.44932e-16
8.64598e-17
1.27558e-16
0
)
;
    }
    right
    {
        type            calculated;
        value           nonuniform List<scalar> 
19
(
8.06114e-17
-9.79304e-19
-2.60227e-18
-1.48939e-16
1.52658e-16
-7.22466e-17
7.19521e-17
7.10003e-17
-5.75897e-17
0
0
1.24165e-16
-1.26675e-16
-1.2965e-16
1.29691e-16
-1.27275e-16
1.38451e-16
-2.35337e-16
0
)
;
    }
    frontAndBackPlanes
    {
        type            empty;
    }
}


// ************************************************************************* //
