/*--------------------------------*- C++ -*----------------------------------*\
  =========                 |
  \\      /  F ield         | OpenFOAM: The Open Source CFD Toolbox
   \\    /   O peration     | Website:  https://openfoam.org
    \\  /    A nd           | Version:  7
     \\/     M anipulation  |
\*---------------------------------------------------------------------------*/
FoamFile
{
    version     2.0;
    format      ascii;
    class       volScalarField;
    location    "0.461";
    object      gradTx;
}
// * * * * * * * * * * * * * * * * * * * * * * * * * * * * * * * * * * * * * //

dimensions      [0 -1 0 1 0 0 0];

internalField   nonuniform List<scalar> 
1596
(
-0.127376
-0.64225
-1.1605
-1.64584
-2.10101
-2.52871
-2.94785
-3.37004
-3.80953
-4.29529
-4.8323
-5.45534
-6.20842
-7.1611
-8.39981
-10.1532
-12.7809
-17.0627
-24.6094
0.0287277
-0.533288
-1.03995
-1.49208
-1.9044
-2.28181
-2.64088
-2.98696
-3.3302
-3.68423
-4.04685
-4.43463
-4.84992
-5.2988
-5.766
-6.22882
-6.58335
-6.62264
-5.9111
0.156914
-0.434574
-0.922181
-1.33755
-1.7045
-2.03142
-2.33223
-2.61009
-2.87133
-3.12227
-3.35824
-3.58625
-3.79844
-3.98687
-4.12896
-4.18918
-4.08267
-3.66478
-2.65692
0.177668
-0.38246
-0.827042
-1.19649
-1.51537
-1.79335
-2.04112
-2.2611
-2.45701
-2.63138
-2.77998
-2.90491
-2.99756
-3.04809
-3.03822
-2.93896
-2.69419
-2.21499
-1.33347
0.0538659
-0.400165
-0.771459
-1.08322
-1.35101
-1.58204
-1.78287
-1.95522
-2.10093
-2.22034
-2.31075
-2.37166
-2.3964
-2.3766
-2.29984
-2.14527
-1.87851
-1.44689
-0.752113
-0.203694
-0.495757
-0.767118
-1.00948
-1.22278
-1.40822
-1.56727
-1.70032
-1.80754
-1.88779
-1.93975
-1.96152
-1.94854
-1.89443
-1.79141
-1.62492
-1.37458
-1.00923
-0.471647
-0.545521
-0.660489
-0.817573
-0.981908
-1.1375
-1.27769
-1.39842
-1.49793
-1.57463
-1.62617
-1.652
-1.64943
-1.61551
-1.54548
-1.43475
-1.27313
-1.04875
-0.742982
-0.322273
-0.90182
-0.862438
-0.908453
-0.993396
-1.09065
-1.18633
-1.27138
-1.34135
-1.39284
-1.42239
-1.42955
-1.41122
-1.3654
-1.2886
-1.17819
-1.02704
-0.828359
-0.570912
-0.234861
-1.26785
-1.11964
-1.06762
-1.07381
-1.11009
-1.15843
-1.20616
-1.24613
-1.27311
-1.28251
-1.27335
-1.24226
-1.18766
-1.10682
-0.99827
-0.856966
-0.679067
-0.457718
-0.180913
-1.48246
-1.29422
-1.18414
-1.13378
-1.12197
-1.13121
-1.14785
-1.16299
-1.17013
-1.16389
-1.14257
-1.10275
-1.04299
-0.961172
-0.856552
-0.72565
-0.566469
-0.374985
-0.143909
-1.6531
-1.44874
-1.30458
-1.21329
-1.162
-1.13655
-1.12437
-1.11602
-1.10428
-1.08325
-1.0505
-1.00255
-0.937938
-0.854902
-0.753102
-0.630162
-0.485207
-0.316041
-0.118371
-1.82359
-1.61949
-1.4555
-1.33345
-1.24808
-1.18975
-1.14842
-1.11522
-1.08292
-1.04536
-0.999507
-0.941774
-0.87055
-0.784244
-0.682694
-0.564259
-0.428733
-0.275062
-0.100774
-1.85864
-1.68327
-1.52465
-1.39383
-1.2923
-1.21506
-1.15516
-1.10513
-1.05841
-1.00905
-0.953809
-0.889154
-0.81343
-0.725251
-0.624638
-0.510567
-0.383323
-0.24266
-0.0872621
-1.85536
-1.71124
-1.56826
-1.43975
-1.33164
-1.24307
-1.17011
-1.10718
-1.04875
-0.989408
-0.925925
-0.854917
-0.774733
-0.68416
-0.583376
-0.471851
-0.350259
-0.218946
-0.0774196
-1.83606
-1.72031
-1.59646
-1.47667
-1.36867
-1.27452
-1.19298
-1.1204
-1.05253
-0.984694
-0.913892
-0.836926
-0.752182
-0.658589
-0.556474
-0.445725
-0.327373
-0.202231
-0.0703975
-1.77509
-1.68898
-1.58751
-1.48237
-1.38166
-1.28911
-1.20539
-1.12858
-1.05568
-0.982848
-0.907446
-0.82651
-0.738497
-0.642462
-0.538891
-0.428082
-0.311474
-0.190361
-0.065325
-1.6726
-1.61387
-1.53612
-1.44961
-1.36197
-1.27759
-1.19822
-1.12322
-1.0506
-0.977289
-0.901054
-0.81915
-0.73009
-0.632996
-0.528476
-0.417223
-0.301198
-0.182324
-0.0617629
-1.55734
-1.51599
-1.45883
-1.3913
-1.31927
-1.24685
-1.17619
-1.10743
-1.03932
-0.969373
-0.895702
-0.815698
-0.727846
-0.631191
-0.526296
-0.414121
-0.297205
-0.178356
-0.0596617
-1.46122
-1.43436
-1.39367
-1.34233
-1.28443
-1.22343
-1.16162
-1.09963
-1.0368
-0.971152
-0.901049
-0.823956
-0.738206
-0.642547
-0.537169
-0.422908
-0.302666
-0.180324
-0.0594938
-1.30506
-1.29609
-1.27314
-1.24016
-1.20024
-1.15602
-1.10936
-1.06088
-1.01014
-0.955348
-0.894953
-0.826395
-0.747784
-0.657446
-0.554902
-0.440328
-0.316393
-0.187943
-0.0610892
-1.13702
-1.14251
-1.13571
-1.12012
-1.09816
-1.07178
-1.04232
-1.0102
-0.974893
-0.934616
-0.887716
-0.831489
-0.763773
-0.682421
-0.586044
-0.473447
-0.345696
-0.207089
-0.066505
-0.965396
-0.981024
-0.988224
-0.988879
-0.984538
-0.976476
-0.965516
-0.951782
-0.934562
-0.911911
-0.881889
-0.841537
-0.788406
-0.720018
-0.63423
-0.528178
-0.399665
-0.248505
-0.0814382
-0.778344
-0.800102
-0.81921
-0.835481
-0.84924
-0.860916
-0.870772
-0.878522
-0.883178
-0.88247
-0.873879
-0.854035
-0.820083
-0.769495
-0.700097
-0.608346
-0.488805
-0.332994
-0.130428
-0.569631
-0.570042
-0.568837
-0.566094
-0.563127
-0.561563
-0.563108
-0.568666
-0.578094
-0.589635
-0.600004
-0.604763
-0.599668
-0.581184
-0.546787
-0.493696
-0.417167
-0.305779
-0.137014
-0.383216
-0.438966
-0.510307
-0.591888
-0.679645
-0.76999
-0.860256
-0.947762
-1.02972
-1.10262
-1.1616
-1.20179
-1.21893
-1.21137
-1.17947
-1.12451
-1.04527
-0.934321
-0.771054
-0.133407
-0.16869
-0.218031
-0.277746
-0.345031
-0.417681
-0.494561
-0.574571
-0.656591
-0.738419
-0.815286
-0.881644
-0.930653
-0.957938
-0.962423
-0.948125
-0.919814
-0.883466
-0.841442
0.118257
0.0742135
0.0129423
-0.0617321
-0.146255
-0.237809
-0.334784
-0.436225
-0.541482
-0.649138
-0.755053
-0.85313
-0.934837
-0.992834
-1.02335
-1.02946
-1.01729
-0.994806
-0.96635
0.37286
0.315798
0.238611
0.146112
0.0426135
-0.0684774
-0.185198
-0.306812
-0.433329
-0.564461
-0.697443
-0.82653
-0.942118
-1.03354
-1.09278
-1.11992
-1.12134
-1.1072
-1.08414
0.6083
0.532652
0.43568
0.323606
0.201317
0.0726123
-0.0605261
-0.197782
-0.340068
-0.4886
-0.642684
-0.798268
-0.946086
-1.07279
-1.16487
-1.21661
-1.23217
-1.22381
-1.20233
0.860178
0.763007
0.644728
0.512346
0.371237
0.225566
0.0772649
-0.0737319
-0.229156
-0.391723
-0.563132
-0.74229
-0.922323
-1.0893
-1.22422
-1.31248
-1.3508
-1.3508
-1.32908
1.06132
0.938314
0.797079
0.64518
0.488354
0.330681
0.173606
0.0164206
-0.143435
-0.310044
-0.487456
-0.678413
-0.880852
-1.08432
-1.26773
-1.40697
-1.48412
-1.50135
-1.47751
1.26104
1.11449
0.950661
0.780082
0.609063
0.441392
0.27794
0.117475
-0.0430067
-0.208287
-0.383914
-0.576119
-0.788973
-1.02012
-1.25374
-1.46267
-1.61112
-1.67733
-1.66818
1.45941
1.2827
1.09443
0.905793
0.722558
0.547571
0.380862
0.220693
0.0640025
-0.093893
-0.258605
-0.437873
-0.640509
-0.874147
-1.13653
-1.4133
-1.664
-1.83798
-1.88308
1.60908
1.38643
1.16034
0.940946
0.73223
0.535393
0.349214
0.171374
-0.00121104
-0.172691
-0.347766
-0.533401
-0.73923
-0.978795
-1.2648
-1.60908
-2.00099
-2.40663
-2.75799
1.72541
1.47701
1.24289
1.03019
0.839432
0.669358
0.517114
0.379982
0.255192
0.140075
0.0326482
-0.0697706
-0.170351
-0.274748
-0.392628
-0.543129
-0.749177
-1.03842
-1.42888
1.83085
1.56814
1.33764
1.13817
0.965405
0.815514
0.684192
0.568242
0.464906
0.371809
0.28787
0.212046
0.144175
0.0846485
0.0345819
-0.00612716
-0.0390215
-0.0717908
-0.119267
1.78192
1.47989
1.22605
1.01137
0.827976
0.670144
0.53268
0.41191
0.304946
0.209383
0.12424
0.0485968
-0.0177018
-0.0742402
-0.119661
-0.15256
-0.170561
-0.171634
-0.154815
1.60435
1.3192
1.08546
0.891766
0.729335
0.591845
0.474066
0.372288
0.283758
0.206289
0.138844
0.0804992
0.0307618
-0.0106303
-0.0436949
-0.0688554
-0.0865359
-0.0975638
-0.102953
1.36308
1.11599
0.915092
0.750346
0.613765
0.499408
0.402544
0.319751
0.248548
0.186961
0.133878
0.0883205
0.0495062
0.0167958
-0.0103076
-0.0325401
-0.050542
-0.0649527
-0.0764456
1.04488
0.850276
0.694479
0.568463
0.465267
0.379766
0.308055
0.247296
0.19547
0.150968
0.112787
0.0800712
0.0520561
0.0281165
0.00776864
-0.00955835
-0.0242998
-0.0367695
-0.047315
0.666464
0.536173
0.434882
0.354536
0.289614
0.236325
0.191955
0.154568
0.122813
0.0956212
0.0722936
0.0522469
0.0349387
0.0199299
0.00688559
-0.00455025
-0.0146282
-0.0234655
-0.0311919
0.258334
0.207047
0.168441
0.138199
0.113825
0.0937586
0.0769508
0.0626725
0.0504219
0.0398055
0.0305574
0.0224592
0.0153043
0.00892343
0.00318242
-0.00205765
-0.0069005
-0.0113904
-0.0155653
-0.258211
-0.20679
-0.168107
-0.137827
-0.113441
-0.0933802
-0.0765905
-0.0623393
-0.0501216
-0.0395422
-0.0303336
-0.0222761
-0.0151625
-0.00882304
-0.00312324
0.00207582
0.00687789
0.0113275
0.0154628
-0.666353
-0.535955
-0.434604
-0.354229
-0.289303
-0.236027
-0.191681
-0.154327
-0.122611
-0.0954617
-0.0721791
-0.0521782
-0.0349158
-0.0199523
-0.00695178
0.00444156
0.0144786
0.0232772
0.0309672
-1.04477
-0.85008
-0.69422
-0.568169
-0.464958
-0.379457
-0.307758
-0.247021
-0.195223
-0.150753
-0.112607
-0.0799252
-0.0519436
-0.0280347
-0.00771342
0.00959206
0.0243177
0.0367774
0.0473182
-1.36302
-1.11588
-0.91495
-0.750188
-0.613606
-0.49926
-0.402418
-0.319655
-0.248488
-0.186943
-0.133904
-0.0883907
-0.0496187
-0.016946
0.0101269
0.0323374
0.050327
0.0647344
0.0762317
-1.60433
-1.31916
-1.0854
-0.891696
-0.729262
-0.591779
-0.474017
-0.372266
-0.28377
-0.206344
-0.138945
-0.0806491
-0.0309602
0.0103884
0.0434197
0.0685618
0.0862438
0.0972958
0.102733
-1.78195
-1.47993
-1.22609
-1.0114
-0.828001
-0.670175
-0.53273
-0.411991
-0.305071
-0.209566
-0.124491
-0.0489294
0.0172791
0.0737226
0.119055
0.15189
0.169881
0.171028
0.154384
-1.8309
-1.56806
-1.33738
-1.13768
-0.964672
-0.81453
-0.682958
-0.566761
-0.463185
-0.369851
-0.28568
-0.209626
-0.141524
-0.0817648
-0.0314838
0.00935689
0.0421603
0.0743515
0.120427
-1.72578
-1.47796
-1.24445
-1.03239
-0.842267
-0.672839
-0.52125
-0.384788
-0.260691
-0.146301
-0.0396578
0.0618885
0.161446
0.26457
0.38079
0.529077
0.732326
1.01842
1.40601
-1.60899
-1.38613
-1.15979
-0.940091
-0.731058
-0.533899
-0.3474
-0.169254
0.00361999
0.175361
0.350657
0.53646
0.742381
0.981963
1.26797
1.61243
2.00504
2.41233
2.76665
-1.45955
-1.28301
-1.09489
-0.906377
-0.723241
-0.548336
-0.381699
-0.221598
-0.0649807
0.0928279
0.257429
0.436556
0.639033
0.872553
1.13497
1.41208
1.66351
1.83846
1.88423
-1.26113
-1.11469
-0.950955
-0.780448
-0.609486
-0.441861
-0.278449
-0.118025
0.0424063
0.207624
0.383175
0.575303
0.788114
1.01932
1.25318
1.46256
1.61158
1.67829
1.6694
-1.06141
-0.938504
-0.797359
-0.645534
-0.488766
-0.33114
-0.174104
-0.0169548
0.142864
0.309434
0.486812
0.677763
0.880261
1.0839
1.2676
1.40723
1.48474
1.50219
1.47842
-0.860256
-0.763183
-0.644993
-0.512689
-0.371642
-0.226019
-0.0777559
0.0732106
0.228611
0.391164
0.562579
0.741786
0.921937
1.08912
1.22431
1.31285
1.35139
1.3515
1.32984
-0.608365
-0.532807
-0.435919
-0.323918
-0.201687
-0.073027
0.0600795
0.197315
0.339592
0.488132
0.642254
0.797921
0.945879
1.07278
1.16508
1.21702
1.23272
1.22444
1.20303
-0.372925
-0.315951
-0.238848
-0.146422
-0.0429825
0.0680646
0.184757
0.306358
0.432879
0.56404
0.697082
0.826271
0.942007
1.03361
1.09303
1.12032
1.12187
1.10781
1.08484
-0.118309
-0.0743511
-0.0131612
0.0614421
0.145908
0.237422
0.334373
0.435809
0.541082
0.648782
0.754771
0.852959
0.934809
0.992966
1.02363
1.02989
1.01783
0.995459
0.967113
0.133298
0.168353
0.217441
0.276894
0.343925
0.416342
0.493021
0.572873
0.654788
0.736573
0.813463
0.879911
0.929067
0.956537
0.961229
0.947171
0.919156
0.883235
0.841893
0.383301
0.43928
0.510928
0.592871
0.681029
0.771787
0.862461
0.95035
1.03265
1.10584
1.16506
1.20543
1.22269
1.21518
1.1833
1.12834
1.04905
0.938013
0.774575
0.569561
0.569761
0.568326
0.565355
0.562177
0.560432
0.561838
0.5673
0.576679
0.588218
0.598626
0.603458
0.598464
0.580101
0.545838
0.492891
0.41652
0.305314
0.136797
0.778404
0.800215
0.819381
0.835707
0.849512
0.861222
0.871097
0.878851
0.883498
0.882769
0.874145
0.854265
0.820271
0.769641
0.7002
0.608404
0.488819
0.332974
0.130404
0.965422
0.981056
0.988265
0.988928
0.984595
0.976538
0.965581
0.951847
0.934625
0.911969
0.88194
0.841578
0.788436
0.720037
0.634235
0.528169
0.399646
0.248483
0.0814284
1.13704
1.14254
1.13575
1.12016
1.09821
1.07183
1.04238
1.01026
0.974946
0.934663
0.887756
0.83152
0.763795
0.682433
0.586047
0.473441
0.345685
0.20708
0.0665017
1.30508
1.29612
1.27317
1.2402
1.20029
1.15607
1.1094
1.06093
1.01019
0.955385
0.894985
0.826418
0.7478
0.657455
0.554904
0.440324
0.316387
0.187939
0.0610878
1.46124
1.43439
1.39371
1.34238
1.28447
1.22347
1.16167
1.09967
1.03684
0.971184
0.901075
0.823976
0.73822
0.642554
0.537172
0.422908
0.302664
0.180322
0.0594933
1.55736
1.51602
1.45886
1.39134
1.31931
1.24688
1.17623
1.10746
1.03935
0.969399
0.895723
0.815714
0.727857
0.631197
0.526299
0.414122
0.297205
0.178356
0.0596617
1.67261
1.61389
1.53614
1.44964
1.362
1.27762
1.19825
1.12325
1.05063
0.97731
0.901071
0.819163
0.730099
0.633002
0.52848
0.417225
0.301199
0.182325
0.0617632
1.77511
1.689
1.58754
1.4824
1.38169
1.28914
1.20541
1.12861
1.0557
0.982866
0.907461
0.826522
0.738506
0.642468
0.538896
0.428085
0.311476
0.190362
0.0653256
1.83607
1.72033
1.59647
1.47669
1.36869
1.27454
1.19299
1.12042
1.05254
0.984707
0.913904
0.836935
0.752189
0.658594
0.556479
0.445729
0.327376
0.202233
0.0703982
1.85537
1.71125
1.56827
1.43977
1.33166
1.24308
1.17013
1.1072
1.04876
0.98942
0.925935
0.854925
0.77474
0.684166
0.583381
0.471855
0.350263
0.218948
0.0774204
1.85865
1.68328
1.52466
1.39385
1.29231
1.21507
1.15517
1.10515
1.05842
1.00907
0.953819
0.889162
0.813437
0.725258
0.624644
0.510572
0.383327
0.242662
0.0872631
1.8236
1.61949
1.45551
1.33346
1.24808
1.18975
1.14843
1.11523
1.08293
1.04536
0.99951
0.941777
0.870553
0.784247
0.682696
0.564262
0.428736
0.275064
0.100774
1.65311
1.44876
1.3046
1.2133
1.16201
1.13656
1.12438
1.11602
1.10429
1.08325
1.05051
1.00255
0.937942
0.854905
0.753105
0.630166
0.48521
0.316043
0.118372
1.48248
1.29424
1.18416
1.13379
1.12197
1.13121
1.14785
1.16299
1.17014
1.16389
1.14257
1.10275
1.043
0.961174
0.856554
0.725653
0.566471
0.374986
0.14391
1.26787
1.11966
1.06763
1.07382
1.1101
1.15843
1.20616
1.24613
1.27311
1.28251
1.27335
1.24226
1.18766
1.10682
0.998272
0.856967
0.679069
0.457719
0.180913
0.901834
0.862448
0.908459
0.993399
1.09065
1.18633
1.27138
1.34135
1.39284
1.42239
1.42955
1.41121
1.3654
1.2886
1.17819
1.02704
0.828359
0.570912
0.234861
0.545533
0.660497
0.817578
0.98191
1.1375
1.27769
1.39842
1.49793
1.57463
1.62617
1.65199
1.64943
1.6155
1.54548
1.43475
1.27313
1.04874
0.742982
0.322273
0.203702
0.495763
0.767121
1.00948
1.22278
1.40822
1.56727
1.70032
1.80754
1.88779
1.93975
1.96151
1.94853
1.89442
1.79141
1.62492
1.37457
1.00923
0.471647
-0.0538604
0.400169
0.771461
1.08322
1.35101
1.58204
1.78286
1.95521
2.10092
2.22033
2.31074
2.37165
2.39639
2.37659
2.29983
2.14527
1.87851
1.44689
0.752113
-0.177665
0.382462
0.827043
1.19649
1.51537
1.79334
2.04111
2.2611
2.45701
2.63137
2.77998
2.9049
2.99756
3.04808
3.03821
2.93895
2.69419
2.21499
1.33347
-0.156913
0.434573
0.92218
1.33755
1.7045
2.03142
2.33223
2.61009
2.87133
3.12227
3.35824
3.58624
3.79843
3.98687
4.12896
4.18918
4.08267
3.66478
2.65692
-0.0287276
0.533286
1.03995
1.49208
1.9044
2.2818
2.64088
2.98696
3.3302
3.68422
4.04685
4.43463
4.84992
5.2988
5.766
6.22881
6.58335
6.62263
5.9111
0.127375
0.642246
1.1605
1.64583
2.101
2.5287
2.94785
3.37003
3.80953
4.29529
4.8323
5.45534
6.20842
7.1611
8.39981
10.1532
12.7809
17.0626
24.6094
)
;

boundaryField
{
    up
    {
        type            calculated;
        value           nonuniform List<scalar> 
84
(
-24.6094
-5.9111
-2.65692
-1.33347
-0.752113
-0.471647
-0.322273
-0.234861
-0.180913
-0.143909
-0.118371
-0.100774
-0.0872621
-0.0774196
-0.0703975
-0.065325
-0.0617629
-0.0596617
-0.0594938
-0.0610892
-0.066505
-0.0814382
-0.130428
-0.137014
-0.666375
-0.798576
-0.92907
-1.04782
-1.16469
-1.28775
-1.42722
-1.59183
-1.76493
-2.77011
-1.49077
-0.122621
-0.155047
-0.102988
-0.0764524
-0.0473234
-0.0311989
-0.0155743
0.0154717
0.0309743
0.0473267
0.0762385
0.102768
0.154614
0.123741
1.46702
2.78057
1.7659
1.59288
1.42808
1.28849
1.16539
1.04853
0.929865
0.799354
0.669626
0.136797
0.130404
0.0814284
0.0665017
0.0610878
0.0594933
0.0596617
0.0617632
0.0653256
0.0703982
0.0774204
0.0872631
0.100774
0.118372
0.14391
0.180913
0.234861
0.322273
0.471647
0.752113
1.33347
2.65692
5.9111
24.6094
)
;
    }
    low
    {
        type            calculated;
        value           nonuniform List<scalar> 
84
(
-0.115235
0.0464115
0.185881
0.209554
0.0740924
-0.207457
-0.576548
-0.953739
-1.32695
-1.52899
-1.69163
-1.8512
-1.86384
-1.84653
-1.81827
-1.74545
-1.63355
-1.51648
-1.41533
-1.25001
-1.07871
-0.908059
-0.724083
-0.523074
-0.347562
-0.120629
0.103602
0.335595
0.558655
0.807501
1.0142
1.21875
1.42613
1.58958
1.71797
1.83885
1.80801
1.63647
1.39414
1.07109
0.684509
0.266056
-0.265932
-0.684394
-1.07097
-1.39406
-1.63642
-1.80802
-1.83886
-1.71828
-1.5895
-1.42624
-1.21883
-1.01428
-0.807577
-0.55872
-0.335661
-0.103654
0.120522
0.347646
0.523009
0.724137
0.908084
1.07874
1.25003
1.41536
1.5165
1.63357
1.74546
1.81828
1.84654
1.86386
1.8512
1.69165
1.52901
1.32697
0.953754
0.57656
0.207465
-0.0740865
-0.209551
-0.18588
-0.0464106
0.115234
)
;
    }
    left
    {
        type            calculated;
        value           nonuniform List<scalar> 
19
(
-0.112744
-0.615734
-1.14379
-1.64506
-2.11909
-2.56627
-3.00741
-3.45622
-3.9271
-4.45765
-5.05218
-5.75114
-6.61389
-7.73623
-9.22838
-11.414
-14.7922
-20.4518
-21.3461
)
;
    }
    right
    {
        type            calculated;
        value           nonuniform List<scalar> 
19
(
0.112742
0.615729
1.14378
1.64506
2.11909
2.56627
3.0074
3.45622
3.9271
4.45765
5.05218
5.75114
6.61389
7.73623
9.22838
11.414
14.7922
20.4518
21.3461
)
;
    }
    frontAndBackPlanes
    {
        type            empty;
    }
}


// ************************************************************************* //
