/*--------------------------------*- C++ -*----------------------------------*\
  =========                 |
  \\      /  F ield         | OpenFOAM: The Open Source CFD Toolbox
   \\    /   O peration     | Website:  https://openfoam.org
    \\  /    A nd           | Version:  7
     \\/     M anipulation  |
\*---------------------------------------------------------------------------*/
FoamFile
{
    version     2.0;
    format      ascii;
    class       volScalarField;
    location    "0.02";
    object      gradTy;
}
// * * * * * * * * * * * * * * * * * * * * * * * * * * * * * * * * * * * * * //

dimensions      [0 -1 0 1 0 0 0];

internalField   nonuniform List<scalar> 
1596
(
-0.729363
-1.20417
-1.4096
-1.50059
-1.5464
-1.61322
-1.68152
-1.77171
-1.87493
-1.97655
-2.11504
-2.25047
-2.41227
-2.62308
-2.99271
-3.64969
-5.05547
-7.91162
-18.5908
-2.00188
-2.07573
-1.83065
-1.57324
-1.40686
-1.35633
-1.36274
-1.41112
-1.48076
-1.55029
-1.64985
-1.74945
-1.86828
-2.01303
-2.2532
-2.62457
-3.3274
-4.51956
-8.11656
-3.08122
-2.6389
-1.98575
-1.44771
-1.11596
-0.969026
-0.921118
-0.930099
-0.966077
-1.00642
-1.06976
-1.13599
-1.21655
-1.31234
-1.469
-1.70266
-2.14567
-2.89284
-4.63509
-3.80329
-2.97171
-2.03622
-1.30532
-0.856702
-0.637838
-0.54848
-0.527391
-0.537624
-0.556569
-0.591922
-0.631294
-0.680577
-0.738724
-0.832224
-0.968655
-1.2341
-1.69846
-2.63638
-4.18899
-3.1736
-2.08821
-1.23936
-0.709825
-0.437079
-0.316062
-0.273322
-0.266084
-0.271138
-0.287808
-0.308308
-0.334988
-0.366539
-0.416336
-0.487515
-0.631177
-0.899208
-1.42189
-4.33526
-3.30144
-2.16795
-1.25482
-0.667233
-0.350847
-0.203119
-0.143627
-0.124576
-0.121084
-0.126754
-0.135788
-0.148435
-0.163597
-0.187102
-0.219755
-0.288237
-0.426941
-0.707433
-4.33218
-3.37476
-2.26042
-1.3206
-0.690585
-0.336359
-0.163784
-0.0895455
-0.0616255
-0.0526696
-0.0523764
-0.055304
-0.0604442
-0.0668865
-0.0767699
-0.0899305
-0.118434
-0.181895
-0.320755
-4.24069
-3.39683
-2.34126
-1.40285
-0.744469
-0.357881
-0.16183
-0.0735931
-0.0380394
-0.0250727
-0.0215206
-0.0214652
-0.0230642
-0.025441
-0.0291663
-0.0338578
-0.0442001
-0.0697773
-0.132022
-4.10429
-3.38839
-2.4094
-1.48882
-0.811734
-0.396668
-0.177711
-0.0752999
-0.0322227
-0.0156389
-0.00997413
-0.00842039
-0.00846931
-0.00914038
-0.010383
-0.0118694
-0.0151397
-0.0242248
-0.0493401
-3.93589
-3.32766
-2.43043
-1.54456
-0.865343
-0.433012
-0.196845
-0.0827157
-0.0331356
-0.0134106
-0.00619702
-0.00379776
-0.0031709
-0.00317654
-0.00350783
-0.00391991
-0.00481563
-0.00765505
-0.016775
-3.79761
-3.25066
-2.41791
-1.56954
-0.898935
-0.459553
-0.212779
-0.0903752
-0.0358598
-0.013651
-0.00527278
-0.00233024
-0.00138079
-0.00112981
-0.0011471
-0.00123219
-0.00143972
-0.0022213
-0.00521022
-3.6685
-3.17753
-2.39515
-1.57914
-0.91972
-0.478304
-0.225056
-0.0968887
-0.0387037
-0.0145726
-0.00530008
-0.00196845
-0.000835781
-0.000476401
-0.000387276
-0.000378207
-0.000411552
-0.000598626
-0.00148485
-3.53158
-3.08599
-2.34533
-1.56049
-0.917995
-0.48258
-0.229502
-0.0997948
-0.0401771
-0.0151597
-0.00543992
-0.00190661
-0.000684591
-0.000280735
-0.00015654
-0.00012133
-0.00011616
-0.000152663
-0.000390791
-3.43082
-2.99718
-2.27871
-1.51805
-0.894962
-0.472011
-0.22533
-0.0983812
-0.0397529
-0.0150285
-0.00537902
-0.00185439
-0.000628692
-0.00021953
-8.816e-05
-4.7164e-05
-3.49286e-05
-3.82758e-05
-9.6109e-05
-3.3526
-2.91886
-2.20608
-1.4609
-0.856756
-0.450046
-0.214178
-0.0932954
-0.037623
-0.0141903
-0.00506178
-0.00173186
-0.000575495
-0.000189692
-6.49989e-05
-2.54849e-05
-1.30449e-05
-1.03189e-05
-2.26021e-05
-3.28594
-2.84708
-2.12892
-1.39228
-0.806464
-0.418896
-0.19736
-0.0852107
-0.0340877
-0.0127585
-0.00451678
-0.00153202
-0.000502909
-0.000161898
-5.22618e-05
-1.76372e-05
-6.76219e-06
-3.53799e-06
-5.39896e-06
-3.24092
-2.78144
-2.04586
-1.31219
-0.745116
-0.379828
-0.175885
-0.0747601
-0.0294834
-0.0108893
-0.00380718
-0.00127538
-0.000413203
-0.000130873
-4.11218e-05
-1.30755e-05
-4.36793e-06
-1.70303e-06
-1.50331e-06
-3.21934
-2.72538
-1.96043
-1.22478
-0.676839
-0.336091
-0.151864
-0.0631148
-0.0243835
-0.0088358
-0.00303496
-0.000999604
-0.000318537
-9.91811e-05
-3.05505e-05
-9.42871e-06
-2.97187e-06
-1.01169e-06
-5.68775e-07
-3.20243
-2.68209
-1.88204
-1.14004
-0.609705
-0.293121
-0.128431
-0.0518623
-0.0195084
-0.00689567
-0.00231417
-0.000745564
-0.000232596
-7.09283e-05
-2.13884e-05
-6.44432e-06
-1.96543e-06
-6.29607e-07
-2.81464e-07
-3.18868
-2.64242
-1.8031
-1.05358
-0.542068
-0.25074
-0.105865
-0.0412844
-0.0150321
-0.00515467
-0.00168159
-0.000527473
-0.000160426
-4.77363e-05
-1.40537e-05
-4.13231e-06
-1.2269e-06
-3.78955e-07
-1.53549e-07
-3.19991
-2.61112
-1.72269
-0.964361
-0.473896
-0.209433
-0.0846476
-0.0316845
-0.0111047
-0.00367543
-0.00116022
-0.000352903
-0.000104268
-3.01837e-05
-8.65435e-06
-2.47977e-06
-7.17285e-07
-2.1509e-07
-8.28587e-08
-3.22497
-2.59097
-1.64561
-0.876658
-0.408256
-0.171018
-0.065683
-0.0234438
-0.00786347
-0.00249952
-0.000760174
-0.00022338
-6.39138e-05
-1.79528e-05
-5.00272e-06
-1.39482e-06
-3.9286e-07
-1.14569e-07
-4.25815e-08
-3.25162
-2.58097
-1.5765
-0.795167
-0.348051
-0.136838
-0.0494451
-0.0166766
-0.00531248
-0.00161172
-0.000469949
-0.000132914
-3.67251e-05
-9.98967e-06
-2.70204e-06
-7.3262e-07
-2.00965e-07
-5.7075e-08
-2.05633e-08
-3.27095
-2.57798
-1.51906
-0.724171
-0.295526
-0.107501
-0.0358842
-0.0112115
-0.00332737
-0.000947024
-0.000260771
-7.00827e-05
-1.8492e-05
-4.8218e-06
-1.2534e-06
-3.27348e-07
-8.66117e-08
-2.3802e-08
-8.11113e-09
-3.28438
-2.6094
-1.52559
-0.713135
-0.282655
-0.0990973
-0.0317629
-0.00953624
-0.00273683
-0.000761733
-0.000207929
-5.62652e-05
-1.51587e-05
-4.08491e-06
-1.10661e-06
-3.0332e-07
-8.45044e-08
-2.46688e-08
-8.45951e-09
-3.28612
-2.65976
-1.57972
-0.747675
-0.298431
-0.104513
-0.033137
-0.00974339
-0.00271817
-0.000734143
-0.000195643
-5.24564e-05
-1.43038e-05
-3.99436e-06
-1.14543e-06
-3.37805e-07
-1.02519e-07
-3.29413e-08
-1.24049e-08
-3.27955
-2.69942
-1.6469
-0.804385
-0.331443
-0.119345
-0.0385722
-0.0114029
-0.00313915
-0.00081879
-0.000206466
-5.18596e-05
-1.33702e-05
-3.64872e-06
-1.07356e-06
-3.40745e-07
-1.15936e-07
-4.32065e-08
-1.90179e-08
-3.27041
-2.7267
-1.72358
-0.883437
-0.384639
-0.14667
-0.050092
-0.0155349
-0.00442445
-0.0011669
-0.000286979
-6.68815e-05
-1.51009e-05
-3.48144e-06
-8.95786e-07
-2.79847e-07
-1.08649e-07
-5.20223e-08
-3.04158e-08
-3.26354
-2.75277
-1.81204
-0.98423
-0.45888
-0.188473
-0.0695148
-0.0232807
-0.0071393
-0.00201331
-0.000521357
-0.000123922
-2.66499e-05
-5.08175e-06
-8.40537e-07
-1.31732e-07
-4.38913e-08
-4.44524e-08
-5.12666e-08
-3.2696
-2.78377
-1.90873
-1.10053
-0.550869
-0.244584
-0.0979488
-0.0357343
-0.0119723
-0.00369992
-0.00105289
-0.000275367
-6.47708e-05
-1.30327e-05
-1.87192e-06
3.7819e-08
1.70419e-07
5.20158e-08
-7.09347e-08
-3.3013
-2.83251
-2.01817
-1.23143
-0.659596
-0.315648
-0.136966
-0.0544015
-0.0199464
-0.00678975
-0.00214657
-0.000631447
-0.000170355
-4.0797e-05
-7.75906e-06
-5.15062e-07
6.30097e-07
4.90669e-07
5.99284e-08
-3.33278
-2.89633
-2.1424
-1.37881
-0.787029
-0.404274
-0.189401
-0.081683
-0.0327215
-0.0122621
-0.00430997
-0.00142923
-0.000444207
-0.000127573
-3.22619e-05
-5.9958e-06
5.77691e-07
1.76961e-06
1.10457e-06
-3.3848
-2.97849
-2.27798
-1.53785
-0.930183
-0.51031
-0.257074
-0.120003
-0.0523995
-0.0215777
-0.00841692
-0.00313783
-0.00111686
-0.000378447
-0.000119785
-3.39398e-05
-6.00007e-06
3.05071e-06
6.37849e-06
-3.47196
-3.08652
-2.42912
-1.71079
-1.09108
-0.636878
-0.344156
-0.173738
-0.0827505
-0.0375316
-0.0163236
-0.00689065
-0.00283947
-0.00115225
-0.000463658
-0.000188623
-7.74487e-05
-3.1437e-05
-8.35252e-06
-3.57903
-3.20203
-2.57177
-1.87054
-1.2442
-0.763955
-0.43742
-0.235549
-0.120418
-0.058964
-0.0278727
-0.0128695
-0.00584754
-0.0026414
-0.00119888
-0.000558166
-0.000272798
-0.000147792
-9.11122e-05
-3.71457
-3.31765
-2.68698
-1.98731
-1.35329
-0.855653
-0.506919
-0.283691
-0.15133
-0.0775948
-0.0385626
-0.0187821
-0.00903604
-0.00433719
-0.00210104
-0.00104673
-0.000551154
-0.000327488
-0.000237539
-3.88741
-3.44841
-2.79549
-2.08106
-1.43254
-0.919023
-0.55423
-0.316728
-0.173063
-0.0911713
-0.0467096
-0.0235317
-0.0117528
-0.00587918
-0.00298324
-0.00156603
-0.000876274
-0.000555467
-0.00042361
-4.0461
-3.56848
-2.89259
-2.16284
-1.50117
-0.974411
-0.596476
-0.347048
-0.193627
-0.10444
-0.0549374
-0.0284934
-0.0146914
-0.00760904
-0.00401216
-0.00219845
-0.00129199
-0.000862843
-0.00068764
-4.16842
-3.66833
-2.97642
-2.23463
-1.56194
-1.02388
-0.63461
-0.374789
-0.212751
-0.117016
-0.0629065
-0.0334162
-0.0176859
-0.00942458
-0.00512855
-0.00291093
-0.0017807
-0.00123988
-0.00102228
-4.26578
-3.74811
-3.0432
-2.29157
-1.6101
-1.06324
-0.665219
-0.397331
-0.228529
-0.127574
-0.0697285
-0.0377219
-0.020367
-0.0110923
-0.00618385
-0.00360636
-0.00227498
-0.00163456
-0.00138172
-4.33777
-3.80572
-3.08985
-2.33042
-1.64264
-1.08987
-0.686082
-0.412874
-0.239562
-0.135071
-0.074656
-0.0408886
-0.0223774
-0.0123692
-0.00701072
-0.00416541
-0.00268358
-0.00196936
-0.00169203
-4.39018
-3.83857
-3.11259
-2.34788
-1.65697
-1.10174
-0.695638
-0.420202
-0.244909
-0.138799
-0.0771636
-0.0425355
-0.0234447
-0.0130607
-0.0074677
-0.00448093
-0.00291928
-0.00216648
-0.00187764
-4.3902
-3.83862
-3.11266
-2.34797
-1.65706
-1.10182
-0.6957
-0.420247
-0.244939
-0.138819
-0.0771763
-0.0425434
-0.0234495
-0.0130637
-0.00746955
-0.00448214
-0.00292013
-0.00216716
-0.00187829
-4.3378
-3.80583
-3.09005
-2.33066
-1.64289
-1.09009
-0.686259
-0.413004
-0.239651
-0.13513
-0.0746928
-0.0409113
-0.0223913
-0.0123776
-0.00701598
-0.00416882
-0.00268597
-0.00197127
-0.00169382
-4.26583
-3.74829
-3.04351
-2.29196
-1.6105
-1.06359
-0.6655
-0.397535
-0.228669
-0.127664
-0.0697847
-0.0377561
-0.0203876
-0.0111047
-0.00619146
-0.0036112
-0.00227831
-0.00163717
-0.00138412
-4.16848
-3.66857
-2.97683
-2.23515
-1.56247
-1.02434
-0.634976
-0.375052
-0.212929
-0.117129
-0.062976
-0.0334578
-0.0177104
-0.009439
-0.00513717
-0.00291627
-0.00178426
-0.00124258
-0.0010247
-4.04617
-3.56876
-2.89309
-2.16348
-1.50181
-0.974972
-0.596912
-0.347357
-0.193831
-0.104568
-0.0550143
-0.0285383
-0.0147172
-0.00762379
-0.0040207
-0.00220356
-0.00129527
-0.000865231
-0.000689714
-3.88749
-3.44874
-2.79608
-2.0818
-1.43328
-0.91966
-0.554717
-0.317067
-0.173282
-0.0913047
-0.0467874
-0.0235757
-0.0117772
-0.00589268
-0.00299077
-0.00157036
-0.000878931
-0.000557324
-0.000425184
-3.71465
-3.31804
-2.68769
-1.98821
-1.35418
-0.856411
-0.507485
-0.284075
-0.15157
-0.0777364
-0.0386422
-0.0188254
-0.00905923
-0.00434954
-0.00210769
-0.00105042
-0.000553337
-0.000328958
-0.000238802
-3.57908
-3.20233
-2.57248
-1.87154
-1.24527
-0.764899
-0.438139
-0.236038
-0.120721
-0.0591386
-0.0279676
-0.012919
-0.00587266
-0.00265397
-0.00120517
-0.000561342
-0.000274475
-0.000148825
-9.20386e-05
-3.47206
-3.0871
-2.4302
-1.71214
-1.09239
-0.637946
-0.344914
-0.174221
-0.0830316
-0.0376844
-0.0164024
-0.00692987
-0.00285858
-0.00116148
-0.000468122
-0.000190822
-7.85942e-05
-3.20838e-05
-8.57539e-06
-3.38486
-2.97894
-2.27887
-1.53896
-0.931212
-0.511098
-0.257593
-0.120307
-0.0525607
-0.0216567
-0.00845329
-0.00315377
-0.00112355
-0.000381127
-0.000120786
-3.42701e-05
-6.07262e-06
3.10919e-06
6.70558e-06
-3.33283
-2.89678
-2.14327
-1.37984
-0.787932
-0.404919
-0.189796
-0.0818957
-0.032825
-0.0123083
-0.00432921
-0.00143677
-0.000446977
-0.000128513
-3.25396e-05
-6.05182e-06
6.0557e-07
1.84521e-06
1.17116e-06
-3.30134
-2.83295
-2.01901
-1.23237
-0.660366
-0.316159
-0.137255
-0.0545446
-0.02001
-0.0068156
-0.00215624
-0.000634798
-0.00017141
-4.10839e-05
-7.81652e-06
-5.15745e-07
6.4867e-07
5.25666e-07
4.86018e-08
-3.26964
-2.7842
-1.90953
-1.10137
-0.551513
-0.244979
-0.098154
-0.0358275
-0.0120101
-0.00371386
-0.00105756
-0.000276784
-6.51428e-05
-1.31062e-05
-1.87632e-06
4.22912e-08
1.75724e-07
6.01674e-08
-8.64689e-08
-3.26355
-2.75318
-1.81278
-0.984959
-0.459398
-0.188766
-0.0696545
-0.0233388
-0.00716079
-0.00202047
-0.000523497
-0.000124482
-2.67663e-05
-5.09431e-06
-8.37342e-07
-1.30158e-07
-4.40295e-08
-4.46654e-08
-5.97955e-08
-3.27043
-2.72708
-1.72424
-0.884047
-0.385039
-0.146878
-0.050183
-0.0155695
-0.00443613
-0.00117042
-0.000287909
-6.70872e-05
-1.51325e-05
-3.4817e-06
-8.94545e-07
-2.80503e-07
-1.10085e-07
-5.34394e-08
-3.40501e-08
-3.27957
-2.69977
-1.64746
-0.804869
-0.331738
-0.119487
-0.0386298
-0.0114231
-0.00314541
-0.00082051
-0.000206874
-5.19397e-05
-1.33817e-05
-3.65025e-06
-1.07485e-06
-3.42288e-07
-1.17279e-07
-4.42234e-08
-2.03925e-08
-3.28614
-2.66004
-1.58016
-0.748034
-0.298638
-0.104608
-0.033173
-0.00975526
-0.00272162
-0.000735033
-0.000195845
-5.24978e-05
-1.4313e-05
-3.99777e-06
-1.14747e-06
-3.39132e-07
-1.03335e-07
-3.34289e-08
-1.28343e-08
-3.28439
-2.60947
-1.5257
-0.713221
-0.2827
-0.0991152
-0.0317687
-0.00953773
-0.00273711
-0.000761754
-0.00020792
-5.62613e-05
-1.5159e-05
-4.08609e-06
-1.10756e-06
-3.03883e-07
-8.47993e-08
-2.48126e-08
-8.53721e-09
-3.27092
-2.5779
-1.51895
-0.724061
-0.29545
-0.10746
-0.0358652
-0.0112038
-0.00332452
-0.000946044
-0.000260452
-6.9983e-05
-1.84618e-05
-4.81291e-06
-1.25081e-06
-3.26603e-07
-8.63991e-08
-2.37395e-08
-8.08963e-09
-3.25163
-2.58097
-1.5765
-0.79517
-0.348053
-0.136839
-0.0494458
-0.0166771
-0.0053127
-0.0016118
-0.000469972
-0.000132919
-3.67246e-05
-9.98885e-06
-2.70155e-06
-7.32395e-07
-2.00874e-07
-5.70392e-08
-2.05446e-08
-3.22497
-2.59097
-1.64561
-0.876659
-0.408256
-0.171017
-0.065683
-0.0234439
-0.00786361
-0.0024996
-0.000760203
-0.000223389
-6.39156e-05
-1.79528e-05
-5.00255e-06
-1.3947e-06
-3.92799e-07
-1.14541e-07
-4.25619e-08
-3.19991
-2.61112
-1.72269
-0.964362
-0.473896
-0.209432
-0.0846472
-0.0316844
-0.0111048
-0.0036755
-0.00116027
-0.000352923
-0.000104276
-3.01866e-05
-8.65537e-06
-2.48012e-06
-7.17393e-07
-2.15121e-07
-8.28578e-08
-3.18867
-2.64242
-1.8031
-1.05358
-0.542068
-0.25074
-0.105864
-0.0412842
-0.0150321
-0.00515474
-0.00168166
-0.000527511
-0.000160445
-4.77448e-05
-1.40572e-05
-4.13368e-06
-1.22738e-06
-3.7911e-07
-1.53584e-07
-3.20243
-2.68209
-1.88204
-1.14004
-0.609706
-0.293121
-0.12843
-0.0518619
-0.0195083
-0.00689573
-0.00231426
-0.000745625
-0.00023263
-7.09451e-05
-2.13958e-05
-6.44734e-06
-1.96641e-06
-6.29847e-07
-2.81481e-07
-3.21933
-2.72538
-1.96043
-1.22479
-0.67684
-0.336091
-0.151863
-0.0631142
-0.0243834
-0.00883586
-0.00303508
-0.000999696
-0.000318591
-9.92083e-05
-3.0563e-05
-9.43371e-06
-2.97273e-06
-1.0114e-06
-5.68532e-07
-3.24092
-2.78144
-2.04586
-1.31219
-0.745118
-0.379828
-0.175884
-0.0747594
-0.0294832
-0.0108894
-0.00380733
-0.0012755
-0.000413274
-0.00013091
-4.11393e-05
-1.30814e-05
-4.3647e-06
-1.69939e-06
-1.50277e-06
-3.28594
-2.84708
-2.12892
-1.39228
-0.806467
-0.418897
-0.197359
-0.0852101
-0.0340876
-0.0127586
-0.00451694
-0.00153215
-0.000502984
-0.000161939
-5.22826e-05
-1.76379e-05
-6.73817e-06
-3.52166e-06
-5.40304e-06
-3.3526
-2.91886
-2.20608
-1.4609
-0.856759
-0.450047
-0.214178
-0.0932952
-0.037623
-0.0141904
-0.00506192
-0.00173196
-0.000575558
-0.000189734
-6.50224e-05
-2.54579e-05
-1.29413e-05
-1.02663e-05
-2.26464e-05
-3.43082
-2.99718
-2.27871
-1.51805
-0.894965
-0.472013
-0.225331
-0.0983816
-0.0397532
-0.0150287
-0.00537914
-0.00185445
-0.000628738
-0.000219588
-8.81909e-05
-4.70344e-05
-3.45681e-05
-3.81485e-05
-9.63557e-05
-3.53158
-3.08599
-2.34533
-1.56049
-0.917996
-0.482581
-0.229504
-0.099796
-0.0401777
-0.0151599
-0.00543997
-0.00190661
-0.000684643
-0.000280866
-0.000156584
-0.00012088
-0.000115101
-0.000152461
-0.000391787
-3.6685
-3.17752
-2.39515
-1.57914
-0.919721
-0.478306
-0.225059
-0.0968905
-0.0387045
-0.0145728
-0.00530004
-0.00196842
-0.000835952
-0.000476754
-0.000387307
-0.000376919
-0.000408936
-0.000598599
-0.00148799
-3.79761
-3.25066
-2.41791
-1.56954
-0.898937
-0.459557
-0.212783
-0.0903776
-0.0358609
-0.0136512
-0.00527274
-0.00233035
-0.00138135
-0.00113062
-0.00114696
-0.00122914
-0.00143444
-0.00222235
-0.00521795
-3.93589
-3.32766
-2.43044
-1.54456
-0.865347
-0.433016
-0.196849
-0.082718
-0.0331364
-0.0134107
-0.00619705
-0.00379827
-0.0031722
-0.00317798
-0.00350702
-0.00391403
-0.00480737
-0.0076589
-0.0167894
-4.10429
-3.3884
-2.4094
-1.48882
-0.811738
-0.396672
-0.177714
-0.0753015
-0.0322231
-0.0156389
-0.00997443
-0.00842163
-0.00847156
-0.00914202
-0.0103805
-0.0118606
-0.0151311
-0.0242328
-0.0493584
-4.24069
-3.39683
-2.34126
-1.40285
-0.744472
-0.357883
-0.161832
-0.0735937
-0.0380393
-0.0250727
-0.0215214
-0.0214672
-0.0230668
-0.0254411
-0.0291608
-0.0338489
-0.0441988
-0.0697873
-0.13203
-4.33218
-3.37476
-2.26042
-1.3206
-0.690587
-0.33636
-0.163784
-0.0895451
-0.0616252
-0.0526699
-0.0523777
-0.055306
-0.0604449
-0.0668823
-0.0767613
-0.0899283
-0.118449
-0.181898
-0.320731
-4.33526
-3.30144
-2.16796
-1.25483
-0.667234
-0.350847
-0.203118
-0.143626
-0.124575
-0.121084
-0.126755
-0.135788
-0.14843
-0.163587
-0.187094
-0.219767
-0.28827
-0.426926
-0.707368
-4.189
-3.1736
-2.08821
-1.23937
-0.709825
-0.437077
-0.31606
-0.27332
-0.266083
-0.271137
-0.287806
-0.308303
-0.334977
-0.366526
-0.416336
-0.487544
-0.631216
-0.899178
-1.42181
-3.8033
-2.97171
-2.03622
-1.30532
-0.8567
-0.637835
-0.548477
-0.527388
-0.537621
-0.556566
-0.591916
-0.631283
-0.680562
-0.738715
-0.832237
-0.968688
-1.23413
-1.69845
-2.63635
-3.08122
-2.6389
-1.98575
-1.44771
-1.11595
-0.969023
-0.921115
-0.930096
-0.966074
-1.00641
-1.06976
-1.13598
-1.21654
-1.31235
-1.46902
-1.70268
-2.14566
-2.89286
-4.63513
-2.00188
-2.07574
-1.83065
-1.57324
-1.40686
-1.35633
-1.36274
-1.41112
-1.48076
-1.55029
-1.64985
-1.74945
-1.86828
-2.01304
-2.25322
-2.62455
-3.32735
-4.51958
-8.11663
-0.729364
-1.20417
-1.4096
-1.50059
-1.5464
-1.61322
-1.68152
-1.77171
-1.87493
-1.97655
-2.11504
-2.25048
-2.41228
-2.6231
-2.99272
-3.64968
-5.05543
-7.91159
-18.5908
)
;

boundaryField
{
    up
    {
        type            calculated;
        value           nonuniform List<scalar> 
84
(
-16.8878
-9.04707
-5.1709
-2.95367
-1.60031
-0.79848
-0.362178
-0.148747
-0.0553285
-0.0186904
-0.00575519
-0.00162394
-0.000423047
-0.00010281
-2.37722e-05
-5.48736e-06
-1.4182e-06
-4.82308e-07
-2.19727e-07
-1.14662e-07
-6.03453e-08
-3.0457e-08
-1.44334e-08
-5.25348e-09
-5.20284e-09
-8.58936e-09
-1.44464e-08
-2.78704e-08
-6.62981e-08
-1.62345e-07
-2.32296e-07
8.98839e-07
8.08831e-06
-1.6433e-06
-7.91406e-05
-0.000216784
-0.000391801
-0.000646628
-0.000973286
-0.00132711
-0.00163427
-0.00181909
-0.00181973
-0.00163606
-0.0013295
-0.000975679
-0.000648652
-0.000393328
-0.000218044
-8.01299e-05
-1.71121e-06
8.64359e-06
9.95027e-07
-2.90107e-07
-2.10792e-07
-8.86969e-08
-3.61017e-08
-1.71233e-08
-9.33243e-09
-5.32906e-09
-5.24097e-09
-1.44178e-08
-3.04364e-08
-6.03331e-08
-1.14665e-07
-2.19678e-07
-4.81988e-07
-1.41786e-06
-5.49384e-06
-2.38308e-05
-0.000103122
-0.000424287
-0.00162779
-0.00576453
-0.0187072
-0.0553478
-0.148749
-0.362136
-0.79839
-1.60023
-2.95368
-5.171
-9.04713
-16.8878
)
;
    }
    low
    {
        type            calculated;
        value           nonuniform List<scalar> 
84
(
-0.806201
-2.17121
-3.37667
-4.20091
-4.63962
-4.78864
-4.75137
-4.61071
-4.41091
-4.17857
-4.01337
-3.85995
-3.68811
-3.57298
-3.49055
-3.41479
-3.36512
-3.35417
-3.34201
-3.31953
-3.33183
-3.36388
-3.39262
-3.41252
-3.39111
-3.35764
-3.32853
-3.32059
-3.32508
-3.35203
-3.40186
-3.43545
-3.49238
-3.58922
-3.70381
-3.85683
-4.05919
-4.23357
-4.3625
-4.46581
-4.5432
-4.60644
-4.60645
-4.54321
-4.46581
-4.36251
-4.23357
-4.05919
-3.85684
-3.70373
-3.58924
-3.4923
-3.43537
-3.40176
-3.35192
-3.32495
-3.32047
-3.32841
-3.35756
-3.39107
-3.41256
-3.39259
-3.36388
-3.33182
-3.31953
-3.34201
-3.35416
-3.36512
-3.41479
-3.49055
-3.57298
-3.68811
-3.85994
-4.01336
-4.17856
-4.4109
-4.61071
-4.75137
-4.78864
-4.63963
-4.20092
-3.37668
-2.17122
-0.806203
)
;
    }
    left
    {
        type            calculated;
        value           nonuniform List<scalar> 
19
(
-0.731063
-1.22439
-1.45938
-1.57411
-1.6357
-1.71427
-1.79136
-1.89111
-2.0035
-2.1153
-2.26624
-2.41146
-2.58437
-2.81262
-3.21584
-3.95335
-5.56515
-8.89547
-17.4388
)
;
    }
    right
    {
        type            calculated;
        value           nonuniform List<scalar> 
19
(
-0.731064
-1.22439
-1.45938
-1.57411
-1.6357
-1.71427
-1.79136
-1.89111
-2.0035
-2.1153
-2.26624
-2.41146
-2.58438
-2.81264
-3.21585
-3.95333
-5.56509
-8.89542
-17.4388
)
;
    }
    frontAndBackPlanes
    {
        type            empty;
    }
}


// ************************************************************************* //
