/*--------------------------------*- C++ -*----------------------------------*\
  =========                 |
  \\      /  F ield         | OpenFOAM: The Open Source CFD Toolbox
   \\    /   O peration     | Website:  https://openfoam.org
    \\  /    A nd           | Version:  7
     \\/     M anipulation  |
\*---------------------------------------------------------------------------*/
FoamFile
{
    version     2.0;
    format      ascii;
    class       volScalarField;
    location    "0.262";
    object      gradTx;
}
// * * * * * * * * * * * * * * * * * * * * * * * * * * * * * * * * * * * * * //

dimensions      [0 -1 0 1 0 0 0];

internalField   nonuniform List<scalar> 
1596
(
-0.123548
-0.620433
-1.11298
-1.5606
-1.96162
-2.31579
-2.63942
-2.94293
-3.24026
-3.55838
-3.90443
-4.31079
-4.8161
-5.47749
-6.36313
-7.64674
-9.59788
-12.7995
-18.4567
0.0270397
-0.516837
-1.00142
-1.42285
-1.79194
-2.11143
-2.39596
-2.65069
-2.886
-3.11577
-3.34104
-3.57901
-3.83539
-4.11898
-4.42182
-4.72988
-4.96677
-4.97763
-4.43462
0.150407
-0.423379
-0.892501
-1.28368
-1.61735
-1.90019
-2.14483
-2.3546
-2.53639
-2.69756
-2.83663
-2.96245
-3.07202
-3.16284
-3.22114
-3.2234
-3.10826
-2.76889
-1.99671
0.169901
-0.374692
-0.804307
-1.15511
-1.44901
-1.69436
-1.90104
-2.0717
-2.21068
-2.32168
-2.40302
-2.45887
-2.4849
-2.47641
-2.4224
-2.30402
-2.08167
-1.69094
-1.00726
0.0495414
-0.393114
-0.752748
-1.05015
-1.29926
-1.50643
-1.67776
-1.81516
-1.92101
-1.99667
-2.04119
-2.0559
-2.03731
-1.98112
-1.88022
-1.72142
-1.48131
-1.12287
-0.574231
-0.200861
-0.486904
-0.749558
-0.98054
-1.1794
-1.34706
-1.48486
-1.59339
-1.67321
-1.72393
-1.74533
-1.73689
-1.69619
-1.61976
-1.50346
-1.33825
-1.11098
-0.800657
-0.366384
-0.534412
-0.648462
-0.799237
-0.95396
-1.09749
-1.22355
-1.32833
-1.41034
-1.46831
-1.50039
-1.50663
-1.48524
-1.43454
-1.35169
-1.23443
-1.07641
-0.870527
-0.604856
-0.256202
-0.884382
-0.847771
-0.889167
-0.965338
-1.05145
-1.13474
-1.20675
-1.2635
-1.30191
-1.31884
-1.31414
-1.28515
-1.23051
-1.14776
-1.03569
-0.889612
-0.705858
-0.477636
-0.191816
-1.24696
-1.10283
-1.04651
-1.04341
-1.06775
-1.10329
-1.13844
-1.16681
-1.18365
-1.18461
-1.16889
-1.13315
-1.07596
-0.994957
-0.889281
-0.755239
-0.590901
-0.392271
-0.151739
-1.46473
-1.28037
-1.16591
-1.10571
-1.08106
-1.07666
-1.08026
-1.08411
-1.08236
-1.06988
-1.04518
-1.00457
-0.946452
-0.868522
-0.77007
-0.648106
-0.501648
-0.328365
-0.123825
-1.64182
-1.43996
-1.29028
-1.18773
-1.12176
-1.08069
-1.05369
-1.03282
-1.01179
-0.985093
-0.950595
-0.904401
-0.844651
-0.769003
-0.676657
-0.565016
-0.433491
-0.28065
-0.103894
-1.82162
-1.61762
-1.44588
-1.31002
-1.20695
-1.12975
-1.07039
-1.02195
-0.978464
-0.934395
-0.887176
-0.832781
-0.769036
-0.693449
-0.60497
-0.501135
-0.381379
-0.244644
-0.0892506
-1.86908
-1.6922
-1.52429
-1.37778
-1.2561
-1.15706
-1.07592
-1.00753
-0.94694
-0.889171
-0.83164
-0.770504
-0.703487
-0.628105
-0.543168
-0.446361
-0.337086
-0.214485
-0.0773647
-1.87874
-1.73167
-1.57782
-1.43161
-1.30074
-1.18712
-1.08929
-1.00428
-0.928566
-0.858079
-0.790542
-0.722469
-0.651616
-0.575559
-0.492993
-0.401701
-0.300977
-0.19002
-0.0678791
-1.87243
-1.75247
-1.61612
-1.47648
-1.34287
-1.22016
-1.10972
-1.01084
-0.921662
-0.839265
-0.761943
-0.686699
-0.611436
-0.533846
-0.452542
-0.365373
-0.271494
-0.170065
-0.0602034
-1.82334
-1.73249
-1.61745
-1.49069
-1.36183
-1.23737
-1.12075
-1.01324
-0.914623
-0.823244
-0.738164
-0.657016
-0.577988
-0.498976
-0.418606
-0.334821
-0.246687
-0.153314
-0.053809
-1.73016
-1.66688
-1.57518
-1.46594
-1.34821
-1.22903
-1.11304
-1.003
-0.900061
-0.803797
-0.714104
-0.629328
-0.548052
-0.468459
-0.389276
-0.308597
-0.225478
-0.139046
-0.0484072
-1.62146
-1.57573
-1.50447
-1.41349
-1.3098
-1.20006
-1.08933
-0.98129
-0.878159
-0.780532
-0.689097
-0.602901
-0.520955
-0.441757
-0.364158
-0.286415
-0.207637
-0.127055
-0.0438729
-1.53022
-1.4987
-1.44319
-1.36704
-1.27538
-1.17409
-1.06839
-0.962582
-0.859742
-0.761346
-0.668769
-0.581684
-0.499466
-0.42085
-0.344724
-0.269386
-0.193938
-0.117753
-0.0402766
-1.37369
-1.36075
-1.32333
-1.26538
-1.19081
-1.1044
-1.0109
-0.914599
-0.818977
-0.726066
-0.637749
-0.554256
-0.475339
-0.400014
-0.327234
-0.255294
-0.183221
-0.110574
-0.0373941
-1.20141
-1.20314
-1.18202
-1.14129
-1.08396
-1.01382
-0.93491
-0.85123
-0.766291
-0.682391
-0.601678
-0.524777
-0.451737
-0.381832
-0.314044
-0.246517
-0.177857
-0.107389
-0.0358616
-1.0225
-1.03377
-1.02623
-1.00121
-0.960598
-0.907196
-0.844304
-0.775427
-0.703886
-0.631987
-0.56189
-0.494416
-0.429791
-0.367533
-0.306719
-0.245309
-0.181053
-0.111852
-0.0375843
-0.82489
-0.841004
-0.844519
-0.834439
-0.811149
-0.776219
-0.732051
-0.68143
-0.627254
-0.57157
-0.516228
-0.462022
-0.409167
-0.357442
-0.30626
-0.253795
-0.19708
-0.131505
-0.051126
-0.602549
-0.594106
-0.575977
-0.548498
-0.513746
-0.474526
-0.434066
-0.395091
-0.359747
-0.328931
-0.302377
-0.278939
-0.256941
-0.234831
-0.211329
-0.184956
-0.153304
-0.111393
-0.0499258
-0.402947
-0.449069
-0.500925
-0.550838
-0.593343
-0.62466
-0.643338
-0.649351
-0.644128
-0.629485
-0.606802
-0.577572
-0.5426
-0.503487
-0.461994
-0.41972
-0.376315
-0.328729
-0.268294
-0.136691
-0.159211
-0.189102
-0.221883
-0.254254
-0.28385
-0.309799
-0.331821
-0.350492
-0.366269
-0.37836
-0.386053
-0.387293
-0.381265
-0.368313
-0.351074
-0.331703
-0.312801
-0.294851
0.130102
0.101548
0.0613076
0.0136773
-0.0373813
-0.0887087
-0.138463
-0.185706
-0.230439
-0.272791
-0.311622
-0.345409
-0.370915
-0.385705
-0.388833
-0.382877
-0.371033
-0.357429
-0.343839
0.396831
0.35793
0.303716
0.23916
0.168809
0.0964113
0.0244329
-0.0458711
-0.114307
-0.181065
-0.245202
-0.304846
-0.355822
-0.393714
-0.415306
-0.421926
-0.417279
-0.407174
-0.394975
0.6388
0.584119
0.512689
0.430482
0.34232
0.252127
0.162433
0.0743284
-0.0122842
-0.098133
-0.183026
-0.265518
-0.341162
-0.40371
-0.446737
-0.468632
-0.472152
-0.46475
-0.452327
0.891039
0.817323
0.72678
0.625732
0.519231
0.411382
0.304694
0.200031
0.0969361
-0.00599247
-0.109616
-0.213713
-0.314698
-0.405512
-0.476313
-0.52065
-0.537412
-0.534251
-0.520613
1.08345
0.987702
0.877904
0.760357
0.640107
0.520874
0.404559
0.291345
0.180137
0.0686961
-0.0450579
-0.162768
-0.283088
-0.40028
-0.502623
-0.578071
-0.617361
-0.623458
-0.60753
1.26581
1.15097
1.02246
0.888996
0.755977
0.626672
0.50236
0.382639
0.265984
0.149629
0.0306269
-0.0945391
-0.227717
-0.367187
-0.503311
-0.621574
-0.702207
-0.735217
-0.725815
1.43728
1.29769
1.14909
1.00044
0.856488
0.719545
0.590057
0.467023
0.34868
0.232131
0.114263
-0.00939427
-0.143417
-0.291527
-0.450976
-0.61336
-0.754856
-0.848655
-0.867781
1.55269
1.37556
1.19636
1.02296
0.858691
0.704564
0.560074
0.423725
0.293628
0.167092
0.0412846
-0.0880314
-0.226278
-0.38089
-0.557649
-0.762107
-0.985384
-1.20709
-1.38803
1.62913
1.43469
1.25211
1.0863
0.937292
0.803643
0.683043
0.573153
0.471801
0.376903
0.286906
0.199926
0.113824
0.0251067
-0.0715067
-0.186763
-0.332025
-0.520583
-0.758919
1.68977
1.48787
1.31068
1.1562
1.02062
0.900602
0.792876
0.694907
0.60469
0.52053
0.441567
0.367169
0.297041
0.231321
0.170647
0.114779
0.0628066
0.010545
-0.0502049
1.60991
1.37904
1.18468
1.0191
0.876122
0.751264
0.64069
0.541553
0.451679
0.36922
0.293216
0.222966
0.158074
0.0986583
0.0455531
-0.0003259
-0.0373993
-0.0639848
-0.0792731
1.42189
1.20972
1.03435
0.887169
0.761756
0.65346
0.558531
0.474192
0.398417
0.329555
0.266724
0.209297
0.156825
0.109167
0.0664975
0.0287991
-0.00384961
-0.0313777
-0.05407
1.18784
1.0082
0.859798
0.735873
0.630997
0.541044
0.462732
0.393599
0.331877
0.276128
0.225526
0.179463
0.137406
0.0990387
0.0642755
0.0328924
0.00479337
-0.0199712
-0.0415813
0.898372
0.759023
0.645234
0.551203
0.472342
0.405193
0.347097
0.296069
0.250709
0.209879
0.172899
0.13926
0.108489
0.0802829
0.0545278
0.0310403
0.00976772
-0.00917934
-0.0258674
0.56759
0.474548
0.400866
0.341146
0.291677
0.24989
0.213938
0.182482
0.154597
0.12954
0.106854
0.0861979
0.0672437
0.0497767
0.0337055
0.0189091
0.00536049
-0.00683469
-0.0176722
0.218438
0.181155
0.152644
0.129837
0.111001
0.0950694
0.0813279
0.0692761
0.0585725
0.048943
0.0402115
0.0322432
0.0249056
0.0181046
0.0117876
0.00589271
0.000391117
-0.004691
-0.00935276
-0.218333
-0.180925
-0.152333
-0.129475
-0.11061
-0.0946648
-0.0809231
-0.0688813
-0.058196
-0.0485921
-0.0398922
-0.0319605
-0.0246639
-0.0179077
-0.0116384
-0.00579348
-0.000343353
0.00468719
0.00929822
-0.567493
-0.474347
-0.400597
-0.340834
-0.291341
-0.249547
-0.213599
-0.182157
-0.154293
-0.129265
-0.106613
-0.085995
-0.0670834
-0.0496623
-0.0336394
-0.0188931
-0.00539527
0.00674979
0.0175392
-0.898276
-0.758831
-0.644974
-0.550895
-0.472005
-0.404841
-0.346741
-0.295719
-0.250373
-0.209565
-0.172612
-0.139004
-0.108267
-0.0800975
-0.0543791
-0.0309278
-0.00968954
0.00922615
0.0258864
-1.18777
-1.00807
-0.859627
-0.735671
-0.630777
-0.540817
-0.462508
-0.393386
-0.331682
-0.275958
-0.225386
-0.179357
-0.137335
-0.0990045
-0.0642772
-0.0329278
-0.00485913
0.0198791
0.0414673
-1.42185
-1.20965
-1.03425
-0.887036
-0.761605
-0.653301
-0.558372
-0.474042
-0.398282
-0.329442
-0.266639
-0.209244
-0.156807
-0.109185
-0.0665488
-0.0288789
0.00374937
0.0312677
0.0539633
-1.60992
-1.37903
-1.18465
-1.01905
-0.876055
-0.751189
-0.640618
-0.541493
-0.45164
-0.36921
-0.293243
-0.223039
-0.158198
-0.0988392
-0.0457897
4.29379e-05
0.0370953
0.0637023
0.0790618
-1.68977
-1.48775
-1.31038
-1.15569
-1.01991
-0.899692
-0.791782
-0.693647
-0.603281
-0.51899
-0.43991
-0.365407
-0.29518
-0.229368
-0.168618
-0.112728
-0.0608642
-0.00898941
0.050914
-1.62943
-1.4355
-1.25344
-1.08814
-0.939636
-0.806459
-0.686299
-0.576823
-0.475861
-0.38134
-0.291722
-0.205148
-0.119515
-0.0313885
0.0644426
0.17864
0.32257
0.509672
0.746806
-1.55258
-1.37524
-1.1958
-1.02215
-0.857623
-0.703262
-0.55856
-0.422026
-0.291773
-0.165113
-0.0392155
0.0901528
0.228409
0.382997
0.559739
0.764296
0.987987
1.21065
1.3933
-1.43738
-1.29794
-1.14947
-1.00092
-0.857036
-0.720151
-0.590708
-0.46771
-0.349399
-0.232883
-0.115056
0.00855196
0.142524
0.290615
0.450136
0.612768
0.754723
0.849111
0.868652
-1.26587
-1.15113
-1.02269
-0.889292
-0.756319
-0.627048
-0.502762
-0.383063
-0.266429
-0.150096
-0.031118
0.0940308
0.227218
0.36676
0.503056
0.621607
0.702588
0.73589
0.726639
-1.08352
-0.987859
-0.87814
-0.760657
-0.640455
-0.521258
-0.404967
-0.29177
-0.180572
-0.0691367
0.0446215
0.162356
0.28274
0.400057
0.502594
0.578278
0.617782
0.624012
0.608124
-0.891103
-0.817477
-0.727016
-0.626036
-0.519588
-0.411776
-0.305111
-0.200458
-0.097363
0.00557802
0.10923
0.213383
0.314461
0.405415
0.476386
0.520893
0.537783
0.534692
0.521082
-0.638855
-0.584261
-0.512909
-0.430769
-0.342658
-0.252499
-0.162824
-0.0747223
0.0119015
0.0977771
0.182716
0.265279
0.341025
0.4037
0.446863
0.468876
0.472477
0.465119
0.452723
-0.39689
-0.358076
-0.303943
-0.239456
-0.169158
-0.0967929
-0.0248279
0.0454812
0.11394
0.180739
0.244936
0.304662
0.35574
0.393745
0.415446
0.422154
0.417568
0.407501
0.395333
-0.130152
-0.101685
-0.0615259
-0.0139643
0.0370443
0.0883428
0.13809
0.185347
0.230112
0.272515
0.311413
0.345284
0.370885
0.385772
0.388987
0.383099
0.371307
0.357744
0.344194
0.136575
0.158859
0.188501
0.221044
0.253211
0.282653
0.30851
0.330499
0.349196
0.365052
0.377262
0.385105
0.386511
0.380648
0.367849
0.350747
0.331511
0.312771
0.295066
0.403029
0.449382
0.501531
0.551765
0.594586
0.626187
0.645095
0.651272
0.646142
0.631526
0.608813
0.579513
0.54444
0.505211
0.463603
0.421224
0.377726
0.330058
0.269532
0.602464
0.593797
0.575436
0.547743
0.512815
0.473471
0.432944
0.393956
0.358647
0.327904
0.301448
0.278122
0.256243
0.234248
0.210854
0.18458
0.15302
0.111201
0.0498418
0.824941
0.841106
0.844675
0.834641
0.811384
0.776469
0.7323
0.681663
0.627461
0.571744
0.516366
0.462126
0.40924
0.35749
0.306286
0.253806
0.197077
0.131496
0.05112
1.02251
1.03379
1.02625
1.00123
0.960624
0.907222
0.844329
0.775448
0.703901
0.631995
0.561893
0.494413
0.429784
0.367523
0.306707
0.245296
0.18104
0.111844
0.0375819
1.20142
1.20315
1.18204
1.14131
1.08398
1.01384
0.934927
0.851243
0.766299
0.682394
0.601676
0.524771
0.451729
0.381822
0.314033
0.246507
0.177849
0.107384
0.0358604
1.3737
1.36076
1.32334
1.2654
1.19082
1.10441
1.01091
0.914606
0.81898
0.726065
0.637744
0.554249
0.47533
0.400005
0.327225
0.255287
0.183215
0.110571
0.0373932
1.53023
1.49871
1.44321
1.36706
1.27539
1.1741
1.0684
0.962587
0.859743
0.761344
0.668763
0.581677
0.499458
0.420842
0.344716
0.26938
0.193934
0.117751
0.0402759
1.62147
1.57574
1.50449
1.4135
1.30981
1.20007
1.08934
0.981292
0.878157
0.780528
0.689091
0.602894
0.520947
0.441749
0.364151
0.28641
0.207633
0.127053
0.0438723
1.73016
1.66689
1.57518
1.46595
1.34821
1.22904
1.11305
1.003
0.900058
0.803791
0.714097
0.629321
0.548044
0.468452
0.38927
0.308592
0.225474
0.139044
0.0484067
1.82334
1.7325
1.61746
1.4907
1.36183
1.23737
1.12075
1.01324
0.914619
0.823238
0.738158
0.657009
0.577982
0.498969
0.4186
0.334817
0.246683
0.153313
0.0538087
1.87243
1.75247
1.61613
1.47648
1.34287
1.22016
1.10971
1.01084
0.921656
0.839258
0.761936
0.686692
0.61143
0.53384
0.452537
0.365369
0.271491
0.170064
0.0602033
1.87875
1.73167
1.57782
1.43162
1.30074
1.18712
1.08929
1.00428
0.92856
0.858073
0.790536
0.722463
0.65161
0.575554
0.492989
0.401698
0.300975
0.19002
0.0678792
1.86909
1.69221
1.52429
1.37779
1.25611
1.15706
1.07592
1.00753
0.946937
0.889167
0.831636
0.7705
0.703483
0.628101
0.543165
0.446359
0.337085
0.214485
0.0773651
1.82162
1.61762
1.44588
1.31001
1.20694
1.12974
1.07039
1.02195
0.978456
0.934388
0.887169
0.832775
0.769031
0.693444
0.604967
0.501133
0.381378
0.244644
0.0892511
1.64183
1.43997
1.29029
1.18773
1.12176
1.08069
1.05369
1.03281
1.01179
0.985089
0.950592
0.904398
0.844649
0.769001
0.676657
0.565017
0.433492
0.280652
0.103895
1.46474
1.28038
1.16591
1.10571
1.08106
1.07666
1.08026
1.08411
1.08236
1.06987
1.04517
1.00457
0.946451
0.868523
0.770072
0.648108
0.50165
0.328368
0.123826
1.24697
1.10284
1.04652
1.04341
1.06775
1.10329
1.13843
1.16681
1.18365
1.1846
1.16889
1.13315
1.07597
0.994959
0.889284
0.755243
0.590905
0.392274
0.15174
0.884393
0.847777
0.889169
0.965338
1.05145
1.13474
1.20675
1.2635
1.3019
1.31884
1.31414
1.28515
1.23051
1.14776
1.03569
0.889616
0.705862
0.477638
0.191816
0.534421
0.648467
0.79924
0.953962
1.09749
1.22355
1.32833
1.41034
1.46831
1.50039
1.50663
1.48524
1.43454
1.35169
1.23444
1.07642
0.870531
0.604858
0.256201
0.200867
0.486909
0.749561
0.980543
1.1794
1.34706
1.48486
1.59339
1.67321
1.72393
1.74534
1.73689
1.69619
1.61976
1.50346
1.33825
1.11099
0.800657
0.366383
-0.049538
0.393118
0.752751
1.05016
1.29926
1.50643
1.67776
1.81516
1.92101
1.99667
2.04119
2.0559
2.03731
1.98112
1.88023
1.72142
1.48131
1.12287
0.574229
-0.1699
0.374695
0.804309
1.15511
1.44901
1.69436
1.90104
2.0717
2.21068
2.32168
2.40302
2.45887
2.4849
2.47641
2.4224
2.30402
2.08167
1.69094
1.00726
-0.150408
0.423379
0.892501
1.28368
1.61735
1.90019
2.14483
2.3546
2.53639
2.69756
2.83663
2.96245
3.07202
3.16284
3.22113
3.2234
3.10825
2.76889
1.99671
-0.02704
0.516837
1.00142
1.42285
1.79194
2.11143
2.39596
2.65069
2.88601
3.11577
3.34104
3.57901
3.83538
4.11898
4.42182
4.72988
4.96677
4.97762
4.43462
0.123549
0.620434
1.11298
1.5606
1.96162
2.31579
2.63942
2.94293
3.24026
3.55838
3.90442
4.31078
4.8161
5.47749
6.36312
7.64674
9.59787
12.7995
18.4567
)
;

boundaryField
{
    up
    {
        type            calculated;
        value           nonuniform List<scalar> 
84
(
-18.4567
-4.43462
-1.99671
-1.00726
-0.574231
-0.366384
-0.256202
-0.191816
-0.151739
-0.123825
-0.103894
-0.0892506
-0.0773647
-0.0678791
-0.0602034
-0.053809
-0.0484072
-0.0438729
-0.0402766
-0.0373941
-0.0358616
-0.0375843
-0.051126
-0.0499258
-0.230087
-0.27679
-0.326295
-0.376184
-0.431246
-0.495997
-0.576493
-0.678792
-0.795175
-1.37919
-0.786767
-0.0517756
-0.0792238
-0.0539978
-0.0415382
-0.0258542
-0.0176693
-0.00935611
0.00930154
0.0175364
0.0258734
0.0414245
0.0538915
0.0790123
0.0524642
0.774284
1.38545
0.795948
0.67951
0.577048
0.496448
0.431634
0.376541
0.326656
0.277121
0.231217
0.0498418
0.05112
0.0375819
0.0358604
0.0373932
0.0402759
0.0438723
0.0484067
0.0538087
0.0602033
0.0678792
0.0773651
0.0892511
0.103895
0.123826
0.15174
0.191816
0.256201
0.366383
0.574229
1.00726
1.99671
4.43462
18.4567
)
;
    }
    low
    {
        type            calculated;
        value           nonuniform List<scalar> 
84
(
-0.111439
0.0452102
0.179918
0.202172
0.0699454
-0.204657
-0.565817
-0.937354
-1.30831
-1.51493
-1.68536
-1.85565
-1.88166
-1.87785
-1.86286
-1.80168
-1.69842
-1.58721
-1.49001
-1.32275
-1.14575
-0.966616
-0.7711
-0.555898
-0.366876
-0.123738
0.115344
0.359932
0.590951
0.842316
1.04239
1.23132
1.41288
1.54199
1.62964
1.7038
1.63866
1.45391
1.2171
0.922087
0.583493
0.225139
-0.225034
-0.583393
-0.921985
-1.21702
-1.45385
-1.63865
-1.70379
-1.62989
-1.54188
-1.41297
-1.23138
-1.04246
-0.84238
-0.591009
-0.359995
-0.115396
0.123625
0.366957
0.555819
0.771144
0.966629
1.14576
1.32275
1.49002
1.58721
1.69843
1.80168
1.86287
1.87785
1.88167
1.85565
1.68536
1.51494
1.30833
0.937365
0.565827
0.204663
-0.0699421
-0.202172
-0.17992
-0.0452117
0.111439
)
;
    }
    left
    {
        type            calculated;
        value           nonuniform List<scalar> 
19
(
-0.109531
-0.595249
-1.09752
-1.56033
-1.97838
-2.34894
-2.68966
-3.01276
-3.33216
-3.68194
-4.0689
-4.52976
-5.11543
-5.903
-6.97855
-8.58698
-11.1024
-15.3391
-16.0085
)
;
    }
    right
    {
        type            calculated;
        value           nonuniform List<scalar> 
19
(
0.109532
0.595251
1.09752
1.56034
1.97838
2.34894
2.68966
3.01276
3.33216
3.68194
4.06889
4.52976
5.11542
5.90299
6.97854
8.58697
11.1024
15.3391
16.0085
)
;
    }
    frontAndBackPlanes
    {
        type            empty;
    }
}


// ************************************************************************* //
