/*--------------------------------*- C++ -*----------------------------------*\
  =========                 |
  \\      /  F ield         | OpenFOAM: The Open Source CFD Toolbox
   \\    /   O peration     | Website:  https://openfoam.org
    \\  /    A nd           | Version:  7
     \\/     M anipulation  |
\*---------------------------------------------------------------------------*/
FoamFile
{
    version     2.0;
    format      ascii;
    class       volScalarField;
    location    "0.06";
    object      gradTx;
}
// * * * * * * * * * * * * * * * * * * * * * * * * * * * * * * * * * * * * * //

dimensions      [0 -1 0 1 0 0 0];

internalField   nonuniform List<scalar> 
1596
(
-0.732101
-3.66289
-6.42261
-8.66912
-10.3451
-11.4613
-12.1514
-12.5181
-12.6645
-12.7124
-12.6821
-12.6787
-12.8158
-13.2623
-14.2195
-16.1174
-19.5457
-25.6842
-36.9078
0.227308
-2.86335
-5.51973
-7.62827
-9.2064
-10.2786
-10.962
-11.3346
-11.4913
-11.5173
-11.432
-11.2989
-11.1366
-10.9838
-10.8555
-10.7797
-10.6619
-10.2496
-8.91299
1.03613
-1.97448
-4.39015
-6.26735
-7.67281
-8.64585
-9.28162
-9.64358
-9.80997
-9.84443
-9.76598
-9.61386
-9.37672
-9.04779
-8.60211
-8.01614
-7.20683
-6.0229
-4.10452
1.23533
-1.28395
-3.27061
-4.81571
-5.98459
-6.8147
-7.37336
-7.70936
-7.88212
-7.93825
-7.89818
-7.78628
-7.58528
-7.27204
-6.80889
-6.15283
-5.23731
-3.97721
-2.18243
0.672779
-1.0029
-2.40073
-3.53025
-4.41212
-5.0634
-5.5194
-5.81132
-5.97882
-6.05306
-6.0546
-5.99837
-5.87018
-5.64438
-5.28299
-4.7351
-3.94237
-2.8465
-1.34413
-0.512264
-1.21436
-1.94508
-2.60858
-3.16799
-3.61017
-3.93882
-4.16507
-4.30875
-4.38619
-4.41479
-4.40284
-4.34106
-4.2075
-3.96982
-3.57706
-2.97552
-2.11315
-0.92183
-2.01796
-1.8594
-1.9455
-2.13539
-2.35528
-2.56566
-2.74444
-2.88277
-2.98173
-3.04348
-3.07859
-3.08971
-3.07102
-3.00595
-2.86995
-2.61789
-2.20169
-1.57014
-0.665997
-3.51949
-2.74716
-2.29947
-2.05963
-1.95196
-1.92503
-1.9414
-1.97585
-2.01345
-2.04354
-2.06744
-2.08223
-2.08305
-2.0579
-1.98961
-1.84208
-1.57513
-1.14047
-0.48459
-5.02018
-3.90056
-3.04236
-2.41492
-1.97983
-1.69576
-1.52361
-1.4281
-1.38149
-1.36106
-1.35684
-1.35917
-1.36099
-1.35244
-1.32159
-1.24171
-1.08157
-0.799299
-0.345581
-5.90539
-4.73588
-3.68542
-2.81689
-2.1468
-1.66022
-1.32896
-1.11695
-0.990335
-0.918626
-0.882606
-0.866737
-0.860677
-0.855008
-0.840826
-0.799447
-0.708393
-0.534801
-0.237034
-6.64704
-5.49697
-4.35498
-3.32413
-2.46774
-1.80403
-1.32351
-0.996342
-0.787115
-0.660209
-0.58852
-0.550714
-0.532212
-0.522311
-0.513036
-0.491304
-0.441688
-0.340399
-0.155112
-7.44101
-6.33704
-5.14034
-3.97972
-2.95488
-2.11817
-1.48346
-1.03234
-0.731426
-0.541592
-0.428721
-0.365211
-0.331289
-0.313425
-0.30275
-0.289221
-0.262238
-0.205628
-0.0962522
-7.74925
-6.7903
-5.63744
-4.44412
-3.33606
-2.39376
-1.65308
-1.11
-0.737173
-0.495777
-0.348174
-0.262496
-0.214949
-0.189332
-0.175375
-0.164403
-0.148761
-0.117889
-0.0564759
-7.94359
-7.11921
-6.03173
-4.83685
-3.67767
-2.65823
-1.83392
-1.21503
-0.781166
-0.495053
-0.317038
-0.211896
-0.152452
-0.119965
-0.102539
-0.0917423
-0.0813839
-0.064478
-0.0313968
-8.10891
-7.39371
-6.36683
-5.17883
-3.98294
-2.90219
-2.00891
-1.32635
-0.840748
-0.516526
-0.312674
-0.191124
-0.121812
-0.0837033
-0.0633263
-0.0519081
-0.0438003
-0.034028
-0.0166273
-8.12257
-7.52623
-6.56944
-5.40528
-4.19527
-3.07751
-2.13817
-1.41149
-0.889486
-0.538326
-0.316313
-0.183353
-0.10731
-0.0654631
-0.043155
-0.0311795
-0.0240216
-0.0177396
-0.00850884
-7.9556
-7.48155
-6.60717
-5.48567
-4.28582
-3.1578
-2.19862
-1.45088
-0.911067
-0.546783
-0.316165
-0.178007
-0.0990646
-0.0557308
-0.0327415
-0.0206656
-0.0140524
-0.0094924
-0.00432521
-7.71237
-7.32384
-6.5251
-5.45208
-4.27573
-3.15515
-2.1956
-1.44536
-0.903536
-0.538381
-0.307866
-0.170275
-0.0920179
-0.0493049
-0.0268086
-0.0151658
-0.00907544
-0.00545777
-0.00227876
-7.53647
-7.21678
-6.46742
-5.42037
-4.25187
-3.13057
-2.16914
-1.41931
-0.880486
-0.519741
-0.293787
-0.160068
-0.0847125
-0.0439922
-0.02278
-0.0119619
-0.00646658
-0.00347188
-0.00130307
-7.01732
-6.81867
-6.16387
-5.18764
-4.0708
-2.98876
-2.05973
-1.33777
-0.822473
-0.480477
-0.26842
-0.144279
-0.0751118
-0.0381768
-0.0191747
-0.00962022
-0.00486801
-0.00240298
-0.000821743
-6.35397
-6.26499
-5.71529
-4.82921
-3.78779
-2.7695
-1.89526
-1.21962
-0.741694
-0.428039
-0.235988
-0.12505
-0.064087
-0.0319887
-0.015711
-0.00765003
-0.0037147
-0.00173844
-0.000558369
-5.58016
-5.57254
-5.12805
-4.34933
-3.40867
-2.48068
-1.68452
-1.07307
-0.644871
-0.367291
-0.199659
-0.104239
-0.05259
-0.0258111
-0.0124412
-0.00592597
-0.00280246
-0.00127227
-0.00039511
-4.62286
-4.6681
-4.33501
-3.69536
-2.89879
-2.10376
-1.42038
-0.897489
-0.534043
-0.300777
-0.161523
-0.0832532
-0.0414407
-0.0200539
-0.0095233
-0.00446728
-0.00208539
-0.000945474
-0.000303986
-3.44103
-3.37447
-3.04829
-2.53185
-1.9392
-1.37703
-0.911508
-0.565386
-0.330437
-0.182733
-0.0962325
-0.0485461
-0.0235845
-0.0110987
-0.00510419
-0.00231445
-0.00105723
-0.00049333
-0.000183907
-2.30932
-2.48473
-2.46061
-2.21858
-1.82425
-1.37683
-0.961344
-0.625722
-0.382781
-0.221604
-0.122347
-0.0649727
-0.0333938
-0.0167317
-0.0082441
-0.00404779
-0.00203653
-0.00111926
-0.000713339
-0.764852
-0.817539
-0.841344
-0.810414
-0.722425
-0.594885
-0.453777
-0.322016
-0.214076
-0.134182
-0.0798641
-0.0456042
-0.0251445
-0.013494
-0.00709978
-0.00370635
-0.0019708
-0.00115562
-0.000835077
0.799255
0.749365
0.606248
0.412325
0.221281
0.0724841
-0.0194374
-0.0608092
-0.0683471
-0.0586626
-0.043517
-0.0295065
-0.0187675
-0.0114236
-0.00672753
-0.00387829
-0.00223142
-0.00138122
-0.00102548
2.32663
2.25375
1.99286
1.59979
1.16305
0.764066
0.451813
0.237943
0.108503
0.0393189
0.00740323
-0.00476873
-0.00770626
-0.00707858
-0.00541391
-0.00375978
-0.00244639
-0.00161624
-0.00121651
3.63917
3.50885
3.1389
2.59338
1.97568
1.38824
0.901304
0.541379
0.300919
0.154158
0.0721021
0.0295958
0.00931182
0.000501041
-0.00264091
-0.00319071
-0.00263674
-0.00191692
-0.00143672
4.89864
4.671
4.17778
3.49029
2.71966
1.97751
1.34481
0.857506
0.514262
0.290568
0.154966
0.0774061
0.0352866
0.0133829
0.00275711
-0.00176032
-0.00285867
-0.00248645
-0.00182824
5.72616
5.40293
4.82664
4.06581
3.22533
2.41031
1.70043
1.13529
0.719888
0.434794
0.251152
0.138481
0.0720011
0.0337334
0.0124651
0.00131184
-0.00320971
-0.00390822
-0.00291254
6.39914
5.99727
5.34798
4.53034
3.64406
2.78453
2.02523
1.40522
0.933453
0.595505
0.366605
0.217895
0.124193
0.0658821
0.0300534
0.00828819
-0.0031089
-0.00710485
-0.00637919
6.92639
6.42606
5.71083
4.85776
3.95488
3.08305
2.30531
1.65668
1.14803
0.769513
0.50143
0.318325
0.196342
0.115455
0.0616815
0.0248983
0.00139013
-0.0110639
-0.0130704
7.13172
6.50216
5.71103
4.82876
3.92858
3.07438
2.31547
1.67903
1.17385
0.791731
0.515892
0.323992
0.19395
0.106153
0.045966
0.00172777
-0.0313818
-0.0554624
-0.0684048
7.13211
6.46508
5.69778
4.88114
4.06247
3.28332
2.57769
1.96671
1.46041
1.05698
0.747469
0.517551
0.350725
0.231149
0.145235
0.0805098
0.0284066
-0.017585
-0.0602692
7.05707
6.37811
5.64561
4.88514
4.1268
3.40133
2.73579
2.14867
1.65045
1.24194
0.917855
0.668212
0.479777
0.339628
0.23614
0.158771
0.0993043
0.0511947
0.00904577
6.4533
5.69169
4.93676
4.19789
3.4938
2.84443
2.2659
1.76739
1.352
1.0159
0.751526
0.548674
0.395241
0.280111
0.193694
0.127752
0.0761403
0.0347786
0.000680595
5.50593
4.83812
4.18706
3.55894
2.9669
2.42467
1.94305
1.52781
1.18051
0.897585
0.672956
0.498548
0.364727
0.262615
0.18451
0.123666
0.0749731
0.0350288
0.00129208
4.46963
3.92515
3.39259
2.88166
2.40341
1.96787
1.58233
1.25027
0.972213
0.744901
0.563444
0.421485
0.311489
0.226527
0.160608
0.108424
0.0659724
0.0306374
0.000445846
3.30712
2.89548
2.49777
2.12025
1.76959
1.45183
1.17121
0.929587
0.726921
0.560661
0.427284
0.32225
0.240193
0.176181
0.125968
0.0857497
0.0526819
0.0249366
0.00111957
2.05826
1.78537
1.53224
1.29727
1.08173
0.887779
0.717154
0.570474
0.44745
0.346384
0.265101
0.200847
0.150386
0.110756
0.0794164
0.0540785
0.0330453
0.015249
-0.000122041
0.783486
0.670469
0.570761
0.480267
0.398244
0.32505
0.261116
0.206529
0.161052
0.123943
0.0942963
0.0710096
0.0528324
0.0386292
0.0274325
0.0183817
0.0108385
0.00440056
-0.00122997
-0.783113
-0.669606
-0.56957
-0.478887
-0.396792
-0.323618
-0.25977
-0.205313
-0.159987
-0.123035
-0.0935391
-0.0703903
-0.0523352
-0.0382385
-0.0271345
-0.0181656
-0.0106968
-0.00432762
0.00123742
-2.05791
-1.78459
-1.53117
-1.29605
-1.08045
-0.886528
-0.715987
-0.569429
-0.446543
-0.345618
-0.264469
-0.200335
-0.149981
-0.110443
-0.0791833
-0.0539161
-0.0329472
-0.0152108
0.000103406
-3.30674
-2.8947
-2.49671
-2.11904
-1.76833
-1.4506
-1.17007
-0.928571
-0.726047
-0.55993
-0.426688
-0.321773
-0.239817
-0.17589
-0.125747
-0.0855882
-0.0525709
-0.0248693
-0.0010913
-4.46932
-3.92454
-3.39179
-2.88076
-2.40249
-1.967
-1.58154
-1.2496
-0.971665
-0.744466
-0.563109
-0.421232
-0.311302
-0.226393
-0.160516
-0.108364
-0.0659402
-0.030628
-0.000455899
-5.50569
-4.83765
-4.18643
-3.55824
-2.9662
-2.42403
-1.94251
-1.52738
-1.18019
-0.897361
-0.672808
-0.498457
-0.364676
-0.262591
-0.184503
-0.123669
-0.0749822
-0.0350394
-0.00129933
-6.4532
-5.69142
-4.93637
-4.19745
-3.49339
-2.84411
-2.26569
-1.76729
-1.352
-1.01596
-0.751627
-0.548792
-0.395359
-0.28022
-0.193789
-0.127831
-0.0761998
-0.0348165
-0.00069541
-7.05692
-6.3773
-5.64415
-4.88319
-4.12456
-3.39901
-2.73357
-2.14669
-1.64875
-1.24055
-0.916744
-0.667342
-0.479102
-0.3391
-0.235715
-0.158419
-0.0990063
-0.0509624
-0.00892658
-7.13315
-6.46796
-5.70245
-4.88731
-4.06967
-3.29102
-2.58537
-1.97392
-1.46686
-1.0625
-0.752031
-0.521215
-0.353612
-0.233409
-0.147022
-0.0819726
-0.0296598
0.0164873
0.0593694
-7.13109
-6.50068
-5.70894
-4.82638
-3.92619
-3.07215
-2.31349
-1.67731
-1.17236
-0.790442
-0.514776
-0.323025
-0.193115
-0.105431
-0.0453353
-0.00115894
0.0319466
0.0561346
0.0693487
-6.9267
-6.42691
-5.71224
-4.85969
-3.95719
-3.08554
-2.30775
-1.65888
-1.14989
-0.771
-0.502565
-0.319164
-0.196949
-0.115887
-0.0619781
-0.0250724
-0.00144417
0.0111154
0.0131879
-6.39931
-5.99778
-5.34894
-4.53176
-3.64583
-2.78645
-2.0271
-1.40688
-0.934817
-0.596557
-0.367382
-0.218453
-0.124591
-0.0661618
-0.0302398
-0.00838395
0.00310278
0.00715255
0.00640346
-5.72636
-5.40349
-4.82768
-4.06731
-3.22714
-2.41222
-1.70222
-1.13681
-0.721084
-0.435678
-0.251778
-0.138917
-0.072304
-0.0339426
-0.0126019
-0.00138218
0.00319942
0.00393029
0.00290705
-4.89885
-4.67163
-4.17892
-3.49188
-2.72151
-1.97937
-1.34648
-0.858852
-0.515267
-0.291275
-0.155445
-0.0777254
-0.0354993
-0.013523
-0.00284304
0.00171902
0.00285145
0.00249454
0.00181875
-3.63938
-3.50952
-3.14007
-2.59494
-1.97741
-1.38989
-0.902706
-0.542454
-0.301681
-0.154666
-0.0724287
-0.0298023
-0.00944163
-0.000580216
0.0025977
0.00317383
0.00263598
0.00192074
0.00143004
-2.32691
-2.25455
-1.99414
-1.60138
-1.16469
-0.765523
-0.452964
-0.238766
-0.109047
-0.0396563
-0.00760445
0.00465161
0.00763975
0.0070436
0.00539948
0.00375815
0.00245024
0.00161958
0.0012136
-0.799521
-0.75018
-0.607516
-0.413793
-0.222679
-0.07363
0.0186076
0.0602673
0.0680228
0.0584824
0.0434227
0.0294603
0.0187475
0.0114183
0.00673026
0.00388455
0.00223742
0.00138484
0.00102542
0.764187
0.815636
0.83859
0.807433
0.719758
0.592819
0.452353
0.321124
0.213562
0.133906
0.0797259
0.0455402
0.0251185
0.0134867
0.00710077
0.00371001
0.00197399
0.00115734
0.000835671
2.30969
2.48603
2.46273
2.2211
1.82672
1.37892
0.962916
0.626798
0.383462
0.222012
0.12258
0.0651031
0.0334663
0.0167724
0.00826737
0.00406123
0.00204419
0.00112366
0.000715767
3.44049
3.37277
3.04579
2.52908
1.93665
1.37495
0.909977
0.564347
0.32978
0.182342
0.0960118
0.0484276
0.0235238
0.0110692
0.00509042
0.00230822
0.00105434
0.000491953
0.000183437
4.62309
4.66853
4.33557
3.69592
2.89927
2.10411
1.42062
0.89763
0.534124
0.300822
0.161546
0.0832659
0.0414475
0.0200576
0.00952531
0.00446831
0.00208586
0.000945694
0.000304114
5.58017
5.57255
5.12803
4.34928
3.40861
2.48063
1.68449
1.07306
0.644872
0.367299
0.199669
0.104247
0.0525956
0.0258148
0.0124434
0.00592725
0.0028032
0.0012727
0.000395262
6.35397
6.26501
5.71528
4.82918
3.78774
2.76946
1.89523
1.2196
0.741694
0.428045
0.235996
0.125058
0.0640923
0.0319922
0.0157131
0.00765138
0.00371565
0.00173907
0.000558552
7.01732
6.81869
6.16388
5.18763
4.07077
2.98872
2.0597
1.33776
0.822469
0.48048
0.268426
0.144284
0.0751165
0.0381802
0.0191771
0.00962212
0.00486967
0.00240424
0.000822125
7.53648
7.21682
6.46745
5.42038
4.25187
3.13055
2.16911
1.4193
0.880477
0.519739
0.29379
0.160072
0.0847167
0.0439958
0.0227831
0.0119651
0.00646979
0.00347448
0.00130385
7.71238
7.32387
6.52514
5.4521
4.27572
3.15514
2.19558
1.44535
0.903525
0.538377
0.307867
0.170279
0.0920221
0.0493093
0.0268134
0.0151714
0.00908171
0.00546285
0.00228021
7.9556
7.48157
6.60719
5.48569
4.28582
3.15778
2.1986
1.45086
0.911055
0.546778
0.316165
0.178011
0.0990696
0.0557369
0.0327496
0.020676
0.0140641
0.00950153
0.00432752
8.12257
7.52625
6.56948
5.40531
4.19529
3.07751
2.13816
1.41148
0.889476
0.538321
0.316313
0.183357
0.107316
0.0654723
0.0431686
0.0311976
0.0240414
0.0177541
0.00851181
8.10889
7.39371
6.36686
5.17885
3.98296
2.9022
2.0089
1.32634
0.840739
0.516521
0.312674
0.191128
0.12182
0.083718
0.0633489
0.0519374
0.0438301
0.0340474
0.0166298
7.94358
7.11923
6.03176
4.83688
3.6777
2.65824
1.83393
1.21503
0.781163
0.495051
0.317039
0.211903
0.152466
0.119989
0.102574
0.0917838
0.0814216
0.064498
0.0313962
7.74926
6.79032
5.63748
4.44416
3.3361
2.39379
1.6531
1.11001
0.737176
0.49578
0.34818
0.262509
0.214972
0.189367
0.175421
0.164451
0.148796
0.117899
0.0564688
7.44098
6.33703
5.14035
3.97974
2.9549
2.11819
1.48347
1.03234
0.731428
0.541595
0.428729
0.365229
0.33132
0.313467
0.302797
0.289256
0.262248
0.205612
0.0962364
6.64707
5.49701
4.35502
3.32417
2.46778
1.80405
1.32353
0.996357
0.787126
0.660219
0.588536
0.550738
0.532246
0.522348
0.51306
0.491298
0.441647
0.340346
0.15509
5.90546
4.73592
3.68544
2.81691
2.14681
1.66024
1.32897
1.11697
0.990348
0.918639
0.882623
0.866758
0.860697
0.855012
0.840795
0.799369
0.708286
0.534713
0.237015
5.02025
3.90059
3.04237
2.41492
1.97984
1.69578
1.52362
1.42811
1.3815
1.36106
1.35684
1.35917
1.36097
1.35238
1.32147
1.24155
1.08141
0.799203
0.345579
3.51954
2.74718
2.29948
2.05963
1.95197
1.92503
1.9414
1.97585
2.01344
2.04353
2.06742
2.08219
2.08297
2.05776
1.98943
1.84188
1.57497
1.14041
0.484618
2.018
1.85943
1.94552
2.1354
2.3553
2.56566
2.74444
2.88276
2.9817
3.04344
3.07854
3.08962
3.07088
3.00576
2.86974
2.61771
2.2016
1.57016
0.666052
0.512292
1.21439
1.94513
2.60861
3.168
3.61017
3.9388
4.16504
4.30871
4.38613
4.4147
4.40271
4.34089
4.20731
3.96967
3.577
2.97558
2.11327
0.921892
-0.672764
1.00296
2.4008
3.5303
4.41214
5.06339
5.51937
5.81128
5.97877
6.05299
6.05449
5.99824
5.87004
5.64427
5.28297
4.7352
3.94257
2.84667
1.34417
-1.23533
1.284
3.27067
4.81574
5.9846
6.81468
7.37333
7.70932
7.88207
7.93819
7.8981
7.78619
7.58524
7.27207
6.80904
6.15307
5.23756
3.97734
2.18241
-1.03614
1.9745
4.39016
6.26734
7.67279
8.64582
9.28159
9.64355
9.80994
9.8444
9.76596
9.61387
9.37679
9.04795
8.60235
8.01639
7.20698
6.0229
4.10445
-0.227301
2.86332
5.51966
7.6282
9.20634
10.2786
10.962
11.3346
11.4913
11.5173
11.4321
11.299
11.1367
10.984
10.8557
10.7798
10.6618
10.2495
8.91292
0.732116
3.66286
6.42254
8.66905
10.3451
11.4612
12.1514
12.5181
12.6645
12.7124
12.6821
12.6788
12.8159
13.2623
14.2195
16.1172
19.5455
25.6841
36.9078
)
;

boundaryField
{
    up
    {
        type            calculated;
        value           nonuniform List<scalar> 
84
(
-36.9078
-8.91299
-4.10452
-2.18243
-1.34413
-0.92183
-0.665997
-0.48459
-0.345581
-0.237034
-0.155112
-0.0962522
-0.0564759
-0.0313968
-0.0166273
-0.00850884
-0.00432521
-0.00227876
-0.00130307
-0.000821743
-0.000558369
-0.00039511
-0.000303986
-0.000183907
-0.000555607
-0.000716399
-0.000900326
-0.00106873
-0.00120807
-0.00135155
-0.00171021
-0.00291829
-0.00482446
-0.0594379
-0.0582677
0.00925039
0.00101553
0.0015313
0.000610424
0.00120749
-7.2652e-05
-0.00120877
0.00121639
5.44927e-05
-0.00117895
-0.000619616
-0.00153758
-0.00102937
-0.00913242
0.0574299
0.0605416
0.00492043
0.0028785
0.00165967
0.00131784
0.00119011
0.00106115
0.000898566
0.000717037
0.000557307
0.000183437
0.000304114
0.000395262
0.000558552
0.000822125
0.00130385
0.00228021
0.00432752
0.00851181
0.0166298
0.0313962
0.0564688
0.0962364
0.15509
0.237015
0.345579
0.484618
0.666052
0.921892
1.34417
2.18241
4.10445
8.91292
36.9078
)
;
    }
    low
    {
        type            calculated;
        value           nonuniform List<scalar> 
84
(
-0.654025
0.350122
1.22344
1.42636
0.785223
-0.531724
-2.16855
-3.76055
-5.29392
-6.13706
-6.86698
-7.64672
-7.89211
-8.05559
-8.20824
-8.18893
-7.99002
-7.74389
-7.54584
-6.96553
-6.25946
-5.45736
-4.47578
-3.29254
-2.17468
-0.712405
0.738453
2.18193
3.47071
4.75973
5.64766
6.36367
6.94002
7.19795
7.233
7.19882
6.63328
5.67671
4.61214
3.41536
2.12779
0.811896
-0.81152
-2.12742
-3.41496
-4.6118
-5.67642
-6.63312
-7.1986
-7.23386
-7.1973
-6.94022
-6.36377
-5.64782
-4.75993
-3.47092
-2.18222
-0.738719
0.711749
2.17503
3.29203
4.47596
5.45736
6.25946
6.96552
7.54585
7.7439
7.99001
8.18893
8.20821
8.05558
7.89211
7.64668
6.86701
6.13713
5.29397
3.76059
2.16859
0.531754
-0.785206
-1.42637
-1.22347
-0.35015
0.65403
)
;
    }
    left
    {
        type            calculated;
        value           nonuniform List<scalar> 
19
(
-0.670037
-3.57776
-6.43187
-8.78811
-10.56
-11.7434
-12.4784
-12.8784
-13.0454
-13.1244
-13.1327
-13.1819
-13.4215
-14.0687
-15.3683
-17.9
-22.4677
-30.7054
-31.9887
)
;
    }
    right
    {
        type            calculated;
        value           nonuniform List<scalar> 
19
(
0.670056
3.57776
6.43183
8.78804
10.56
11.7433
12.4784
12.8784
13.0454
13.1245
13.1328
13.182
13.4215
14.0686
15.3681
17.8998
22.4674
30.7052
31.9888
)
;
    }
    frontAndBackPlanes
    {
        type            empty;
    }
}


// ************************************************************************* //
