/*--------------------------------*- C++ -*----------------------------------*\
  =========                 |
  \\      /  F ield         | OpenFOAM: The Open Source CFD Toolbox
   \\    /   O peration     | Website:  https://openfoam.org
    \\  /    A nd           | Version:  7
     \\/     M anipulation  |
\*---------------------------------------------------------------------------*/
FoamFile
{
    version     2.0;
    format      ascii;
    class       volScalarField;
    location    "0.219";
    object      gradTy;
}
// * * * * * * * * * * * * * * * * * * * * * * * * * * * * * * * * * * * * * //

dimensions      [0 -1 0 1 0 0 0];

internalField   nonuniform List<scalar> 
1596
(
-0.667962
-1.23965
-1.7061
-2.15146
-2.57534
-3.0333
-3.50096
-4.04158
-4.6796
-5.43272
-6.46953
-7.78935
-9.62292
-12.2415
-16.3206
-22.6895
-34.0743
-55.079
-130.113
-2.03344
-2.50415
-2.81964
-3.1068
-3.38073
-3.70399
-4.05715
-4.49896
-5.05325
-5.72472
-6.65471
-7.82736
-9.3973
-11.4875
-14.4446
-18.4425
-24.391
-33.1364
-57.957
-3.63607
-3.78913
-3.87279
-3.97087
-4.08186
-4.2599
-4.48313
-4.80317
-5.23799
-5.78333
-6.5557
-7.52454
-8.79686
-10.4289
-12.6308
-15.4276
-19.3136
-24.6429
-36.0751
-5.31219
-5.03814
-4.84782
-4.74003
-4.68158
-4.70849
-4.79384
-4.97979
-5.27804
-5.67855
-6.27672
-7.03431
-8.02701
-9.27703
-10.9177
-12.9163
-15.5634
-19.0027
-24.8906
-6.85361
-6.1804
-5.72549
-5.41637
-5.19253
-5.06993
-5.01745
-5.06697
-5.22521
-5.47911
-5.90645
-6.46772
-7.21782
-8.16242
-9.39019
-10.8499
-12.7242
-15.0618
-18.4691
-8.07365
-7.14769
-6.48753
-6.00482
-5.63174
-5.36956
-5.18645
-5.10495
-5.1285
-5.24333
-5.51247
-5.89932
-6.44456
-7.1463
-8.06603
-9.15039
-10.5201
-12.1807
-14.3628
-8.87269
-7.88685
-7.11483
-6.50677
-6.01245
-5.62866
-5.32813
-5.12646
-5.02582
-5.0135
-5.14023
-5.37465
-5.74729
-6.25333
-6.9367
-7.74844
-8.77113
-9.99172
-11.4998
-9.25215
-8.36583
-7.58334
-6.91148
-6.33415
-5.85436
-5.45503
-5.1484
-4.93746
-4.81206
-4.81294
-4.91497
-5.14133
-5.48657
-5.98281
-6.58772
-7.35906
-8.2768
-9.37441
-9.29241
-8.62229
-7.91555
-7.23933
-6.61802
-6.06909
-5.58996
-5.19355
-4.88573
-4.66014
-4.54995
-4.53635
-4.63719
-4.84752
-5.19115
-5.63243
-6.21218
-6.90865
-7.73151
-9.06104
-8.6225
-8.04805
-7.42453
-6.80471
-6.22234
-5.69053
-5.22658
-4.84091
-4.53195
-4.32779
-4.21567
-4.20991
-4.30666
-4.52411
-4.83298
-5.26256
-5.79222
-6.42114
-8.77227
-8.4974
-8.05517
-7.51008
-6.92147
-6.333
-5.77098
-5.25857
-4.81175
-4.43433
-4.15148
-3.95602
-3.86005
-3.86109
-3.97333
-4.17296
-4.48113
-4.87917
-5.36164
-8.41499
-8.30767
-7.993
-7.53465
-6.99299
-6.41633
-5.84045
-5.29434
-4.79965
-4.36574
-4.01664
-3.75017
-3.57728
-3.49693
-3.52049
-3.62875
-3.83695
-4.12869
-4.4967
-7.97199
-8.01399
-7.82359
-7.45873
-6.97762
-6.43054
-5.85887
-5.29661
-4.77044
-4.29493
-3.89431
-3.57081
-3.33516
-3.18781
-3.13833
-3.17145
-3.29835
-3.50497
-3.78351
-7.57953
-7.70599
-7.61266
-7.33206
-6.91216
-6.40148
-5.84357
-5.27612
-4.72987
-4.2239
-3.78349
-3.4146
-3.12825
-2.92633
-2.81722
-2.78883
-2.84947
-2.98717
-3.19432
-7.21688
-7.41
-7.39054
-7.17994
-6.81557
-6.34175
-5.80184
-5.23576
-4.67732
-4.14935
-3.67853
-3.27392
-2.94716
-2.70139
-2.54422
-2.46608
-2.47322
-2.55548
-2.70578
-6.86129
-7.11871
-7.16143
-7.00934
-6.69346
-6.25427
-5.73378
-5.17314
-4.60837
-4.0653
-3.57206
-3.14027
-2.78227
-2.50226
-2.30734
-2.18988
-2.15465
-2.19301
-2.29849
-6.53923
-6.84111
-6.93418
-6.83033
-6.55517
-6.14619
-5.64391
-5.09022
-4.52272
-3.96957
-3.4603
-3.00852
-2.62724
-2.32144
-2.09779
-1.95013
-1.88213
-1.88633
-1.95686
-6.25709
-6.5903
-6.72292
-6.65794
-6.41573
-6.0311
-5.54365
-4.99578
-4.4265
-3.86597
-3.34481
-2.87832
-2.47993
-2.15515
-1.91015
-1.73981
-1.64689
-1.62487
-1.6684
-5.97269
-6.36298
-6.53795
-6.50815
-6.29355
-5.92782
-5.45068
-4.90545
-4.33274
-3.76471
-3.23305
-2.7545
-2.34272
-2.00347
-1.74229
-1.55468
-1.44263
-1.40038
-1.42297
-5.67773
-6.13411
-6.35804
-6.36467
-6.17609
-5.82675
-5.35755
-4.81334
-4.23667
-3.66177
-3.12139
-2.63355
-2.21201
-1.86247
-1.58963
-1.38921
-1.26259
-1.20478
-1.21137
-5.4244
-5.92668
-6.19667
-6.23893
-6.07443
-5.73864
-5.27435
-4.72859
-4.14624
-3.56379
-3.01515
-2.51948
-2.09053
-1.73362
-1.4523
-1.24195
-1.10327
-1.0323
-1.02593
-5.19875
-5.74442
-6.05738
-6.13395
-5.99226
-5.66809
-5.20646
-4.65701
-4.06731
-3.47635
-2.91928
-2.41643
-1.98147
-1.61918
-1.3316
-1.11293
-0.962502
-0.877416
-0.858014
-4.98918
-5.58346
-5.93958
-6.04978
-5.93001
-5.61631
-5.156
-4.60157
-4.00353
-3.40347
-2.83781
-2.3281
-1.888
-1.52178
-1.22985
-1.00418
-0.840943
-0.735734
-0.69509
-4.80136
-5.44431
-5.84079
-5.9795
-5.87588
-5.56629
-5.10177
-4.53749
-3.92744
-3.31634
-2.74048
-2.22394
-1.77985
-1.41224
-1.11953
-0.891766
-0.71861
-0.586859
-0.486417
-4.64835
-5.33646
-5.78096
-5.96533
-5.90399
-5.63021
-5.19526
-4.65261
-4.05643
-3.45292
-2.87639
-2.35415
-1.89931
-1.51884
-1.21209
-0.971869
-0.784583
-0.633286
-0.493921
-4.54134
-5.25662
-5.72972
-5.94687
-5.92102
-5.68245
-5.27997
-4.76429
-4.18773
-3.59616
-3.02184
-2.49365
-2.02558
-1.62716
-1.30049
-1.04339
-0.844781
-0.692936
-0.570848
-4.53691
-5.2563
-5.73979
-5.97517
-5.97395
-5.76484
-5.39312
-4.90689
-4.35545
-3.7824
-3.21829
-2.69052
-2.21308
-1.79722
-1.44849
-1.16924
-0.952347
-0.78878
-0.663247
-4.64688
-5.34616
-5.81685
-6.04951
-6.05564
-5.86326
-5.51456
-5.05476
-4.52965
-3.97967
-3.43247
-2.9126
-2.4321
-2.00212
-1.63085
-1.32579
-1.08501
-0.903163
-0.76604
-4.85862
-5.5238
-5.96244
-6.17428
-6.17277
-5.98579
-5.65296
-5.21641
-4.71814
-4.1951
-3.67131
-3.16764
-2.69224
-2.25366
-1.86051
-1.52536
-1.25325
-1.04516
-0.888855
-5.16536
-5.77298
-6.16191
-6.33869
-6.31829
-6.1284
-5.80638
-5.39105
-4.92062
-4.42863
-3.93532
-3.45801
-2.99962
-2.56326
-2.15373
-1.78626
-1.47377
-1.22825
-1.04303
-5.56148
-6.08968
-6.41798
-6.55067
-6.50384
-6.305
-5.98961
-5.59314
-5.15015
-4.69124
-4.23354
-3.79205
-3.36485
-2.94774
-2.53601
-2.1408
-1.77868
-1.47783
-1.24656
-5.98782
-6.44768
-6.71397
-6.79838
-6.72107
-6.51
-6.19891
-5.81982
-5.40377
-4.97893
-4.56029
-4.16292
-3.78283
-3.41022
-3.02697
-2.63006
-2.22346
-1.84468
-1.53305
-6.4724
-6.85575
-7.05267
-7.08297
-6.97084
-6.74426
-6.43489
-6.07095
-5.6798
-5.2873
-4.90683
-4.55583
-4.23285
-3.92975
-3.62002
-3.28464
-2.8919
-2.45103
-1.97759
-7.03675
-7.32883
-7.449
-7.42212
-7.27492
-7.03459
-6.72951
-6.38386
-6.0209
-5.66359
-5.32447
-5.02285
-4.76381
-4.55026
-4.3654
-4.19587
-3.99217
-3.7276
-3.36962
-7.6614
-7.84903
-7.87383
-7.77113
-7.56989
-7.2963
-6.97427
-6.62426
-6.26513
-5.91465
-5.58439
-5.28969
-5.03838
-4.83964
-4.69474
-4.6126
-4.57799
-4.57784
-4.58396
-8.36509
-8.41188
-8.32053
-8.12899
-7.86381
-7.54834
-7.20152
-6.84079
-6.48149
-6.13682
-5.81822
-5.53575
-5.2961
-5.10472
-4.96514
-4.88192
-4.85743
-4.89648
-5.00407
-9.13988
-9.0154
-8.80186
-8.52346
-8.19852
-7.84464
-7.47616
-7.10715
-6.75
-6.41501
-6.11213
-5.84819
-5.62752
-5.45183
-5.32071
-5.22947
-5.17246
-5.14092
-5.12609
-9.84778
-9.56253
-9.2354
-8.87582
-8.49421
-8.10232
-7.71057
-7.32947
-6.96865
-6.63592
-6.33877
-6.08206
-5.868
-5.69659
-5.56604
-5.47153
-5.40755
-5.36732
-5.34394
-10.4209
-10.0204
-9.60547
-9.18103
-8.75347
-8.33053
-7.91965
-7.52841
-7.1642
-6.83286
-6.54004
-6.28932
-6.08167
-5.91633
-5.79108
-5.70121
-5.64125
-5.60491
-5.58545
-10.8774
-10.3865
-9.90274
-9.42744
-8.96387
-8.51661
-8.09066
-7.69131
-7.32422
-6.9937
-6.70415
-6.45827
-6.2562
-6.09673
-5.97731
-5.89322
-5.8389
-5.80822
-5.79453
-11.209
-10.6502
-10.1146
-9.60191
-9.11249
-8.64811
-8.2117
-7.80681
-7.43783
-7.10807
-6.82104
-6.57891
-6.3813
-6.22666
-6.11216
-6.03296
-5.98325
-5.95678
-5.94675
-11.4238
-10.8004
-10.2276
-9.69211
-9.18827
-8.71486
-8.27317
-7.86565
-7.49596
-7.16685
-6.88142
-6.64155
-6.44666
-6.29507
-6.18393
-6.10844
-6.0628
-6.04081
-6.03562
-11.4239
-10.8005
-10.2278
-9.69225
-9.18842
-8.71501
-8.27333
-7.86581
-7.49613
-7.16702
-6.8816
-6.64174
-6.44685
-6.29527
-6.18414
-6.10866
-6.06303
-6.04105
-6.03587
-11.2091
-10.6504
-10.1149
-9.60224
-9.11286
-8.64851
-8.21212
-7.80725
-7.43829
-7.10854
-6.82154
-6.57943
-6.38185
-6.22724
-6.11278
-6.03363
-5.98398
-5.95757
-5.94762
-10.8776
-10.3869
-9.90318
-9.42797
-8.96446
-8.51725
-8.09133
-7.69201
-7.32495
-6.99447
-6.70496
-6.45911
-6.25709
-6.09767
-5.9783
-5.89428
-5.84004
-5.80944
-5.79584
-10.4211
-10.0208
-9.60604
-9.18171
-8.75422
-8.33134
-7.92051
-7.52931
-7.16515
-6.83385
-6.54107
-6.29039
-6.08279
-5.91751
-5.79231
-5.7025
-5.64261
-5.60634
-5.58696
-9.84797
-9.56299
-9.23605
-8.8766
-8.49509
-8.10327
-7.71159
-7.33055
-6.96978
-6.63711
-6.34
-6.08334
-5.86933
-5.69797
-5.56747
-5.47301
-5.40909
-5.36892
-5.34561
-9.14011
-9.0159
-8.80257
-8.52431
-8.19948
-7.8457
-7.4773
-7.10835
-6.75127
-6.41634
-6.11352
-5.84963
-5.629
-5.45334
-5.32222
-5.23097
-5.17393
-5.14234
-5.12745
-8.36534
-8.41246
-8.3214
-8.13011
-7.86514
-7.54986
-7.20323
-6.84268
-6.48355
-6.13905
-5.82064
-5.53838
-5.29894
-5.10777
-4.96838
-4.88521
-4.86053
-4.89895
-5.00525
-7.66155
-7.84913
-7.87397
-7.77133
-7.57015
-7.29663
-6.97464
-6.62465
-6.26551
-5.91496
-5.58459
-5.28968
-5.03808
-4.83893
-4.69361
-4.61115
-4.57678
-4.57792
-4.587
-7.03682
-7.32916
-7.4496
-7.42305
-7.2762
-7.03623
-6.73151
-6.38621
-6.02356
-5.66653
-5.32768
-5.02631
-4.76759
-4.55452
-4.37047
-4.20225
-4.0005
-3.73845
-3.38331
-6.47242
-6.85581
-7.05287
-7.08338
-6.97149
-6.74518
-6.43608
-6.07239
-5.68146
-5.28916
-4.90887
-4.55806
-4.23536
-3.93265
-3.62348
-3.28875
-2.89649
-2.45555
-1.981
-5.98782
-6.44769
-6.71409
-6.79871
-6.72166
-6.51088
-6.20008
-5.82125
-5.40544
-4.98081
-4.56237
-4.16522
-3.78539
-3.41309
-3.03014
-2.6334
-2.22666
-1.84742
-1.53519
-5.56146
-6.08963
-6.41803
-6.55091
-6.50433
-6.30577
-5.99067
-5.59447
-5.15173
-4.69303
-4.23552
-3.79422
-3.36721
-2.95025
-2.53859
-2.14329
-1.7809
-1.47968
-1.24806
-5.16533
-5.77291
-6.1619
-6.33885
-6.31869
-6.12908
-5.80734
-5.39228
-4.92209
-4.43029
-3.93715
-3.45998
-3.00169
-2.56537
-2.15579
-1.78814
-1.47539
-1.22961
-1.04418
-4.85857
-5.52369
-5.96239
-6.17438
-6.17309
-5.98637
-5.65382
-5.21752
-4.71948
-4.19662
-3.67296
-3.16939
-2.69402
-2.25541
-1.86215
-1.52682
-1.2545
-1.04622
-0.889776
-4.64684
-5.34605
-5.81677
-6.04957
-6.0559
-5.86376
-5.51532
-5.05576
-4.53085
-3.98103
-3.43392
-2.91411
-2.43361
-2.00356
-1.63216
-1.32694
-1.086
-0.904023
-0.766825
-4.53686
-5.25618
-5.73969
-5.97519
-5.97415
-5.76527
-5.39378
-4.90777
-4.35651
-3.78359
-3.21955
-2.69181
-2.21434
-1.7984
-1.44955
-1.17018
-0.95316
-0.789515
-0.663968
-4.54129
-5.25649
-5.72958
-5.94681
-5.9211
-5.68269
-5.28039
-4.76488
-4.18846
-3.59699
-3.02271
-2.49454
-2.02643
-1.62794
-1.30117
-1.04398
-0.845304
-0.693455
-0.57149
-4.64844
-5.33651
-5.78102
-5.96544
-5.90417
-5.63048
-5.19564
-4.65308
-4.057
-3.45356
-2.87708
-2.35487
-1.90003
-1.51954
-1.21277
-0.972504
-0.785168
-0.633805
-0.494329
-4.80146
-5.4444
-5.84085
-5.97949
-5.8758
-5.56613
-5.10154
-4.53719
-3.92711
-3.31599
-2.74013
-2.22361
-1.77954
-1.41196
-1.11928
-0.891537
-0.718388
-0.586626
-0.486129
-4.98925
-5.58352
-5.93963
-6.04981
-5.93003
-5.61632
-5.156
-4.60156
-4.00351
-3.40345
-2.8378
-2.3281
-1.88801
-1.5218
-1.22987
-1.00421
-0.840979
-0.735777
-0.695129
-5.1988
-5.74445
-6.0574
-6.13396
-5.99225
-5.66807
-5.20642
-4.65697
-4.06727
-3.47632
-2.91925
-2.41641
-1.98147
-1.61918
-1.33162
-1.11295
-0.962527
-0.877445
-0.858041
-5.42444
-5.92671
-6.19668
-6.23892
-6.07442
-5.73861
-5.27431
-4.72856
-4.14621
-3.56377
-3.01513
-2.51947
-2.09053
-1.73362
-1.45232
-1.24197
-1.10329
-1.03232
-1.02595
-5.67776
-6.13413
-6.35805
-6.36466
-6.17607
-5.82672
-5.35752
-4.81332
-4.23664
-3.66175
-3.12138
-2.63354
-2.21201
-1.86247
-1.58964
-1.38922
-1.2626
-1.2048
-1.21138
-5.97271
-6.36299
-6.53795
-6.50814
-6.29353
-5.9278
-5.45066
-4.90543
-4.33272
-3.7647
-3.23305
-2.75449
-2.34272
-2.00347
-1.74229
-1.55468
-1.44264
-1.40039
-1.42298
-6.2571
-6.59031
-6.72291
-6.65793
-6.41571
-6.03108
-5.54363
-4.99577
-4.42649
-3.86596
-3.34481
-2.87832
-2.47993
-2.15515
-1.91016
-1.73982
-1.64689
-1.62488
-1.6684
-6.53923
-6.84111
-6.93417
-6.83032
-6.55516
-6.14618
-5.6439
-5.09021
-4.52271
-3.96957
-3.4603
-3.00852
-2.62724
-2.32144
-2.0978
-1.95014
-1.88213
-1.88633
-1.95686
-6.86129
-7.11871
-7.16142
-7.00934
-6.69346
-6.25426
-5.73377
-5.17314
-4.60837
-4.0653
-3.57206
-3.14027
-2.78227
-2.50226
-2.30734
-2.18988
-2.15465
-2.193
-2.29848
-7.21688
-7.40999
-7.39053
-7.17993
-6.81557
-6.34175
-5.80184
-5.23576
-4.67732
-4.14935
-3.67853
-3.27392
-2.94716
-2.70139
-2.54422
-2.46608
-2.47322
-2.55547
-2.70577
-7.57951
-7.70598
-7.61265
-7.33206
-6.91217
-6.40148
-5.84357
-5.27612
-4.72987
-4.2239
-3.78349
-3.41459
-3.12825
-2.92632
-2.81721
-2.78882
-2.84946
-2.98715
-3.1943
-7.97198
-8.01398
-7.82359
-7.45873
-6.97763
-6.43055
-5.85888
-5.29662
-4.77044
-4.29493
-3.89431
-3.57081
-3.33516
-3.18781
-3.13832
-3.17144
-3.29833
-3.50494
-3.78349
-8.41496
-8.30766
-7.993
-7.53465
-6.99299
-6.41633
-5.84046
-5.29435
-4.79964
-4.36574
-4.01664
-3.75016
-3.57727
-3.49693
-3.52047
-3.62873
-3.83693
-4.12866
-4.49669
-8.77224
-8.49739
-8.05518
-7.51009
-6.92149
-6.33301
-5.77098
-5.25858
-4.81175
-4.43433
-4.15148
-3.95601
-3.86004
-3.86108
-3.97332
-4.17294
-4.4811
-4.87914
-5.36163
-9.06102
-8.62251
-8.04806
-7.42455
-6.80473
-6.22236
-5.69054
-5.22658
-4.84091
-4.53195
-4.32779
-4.21567
-4.2099
-4.30665
-4.5241
-4.83295
-5.26254
-5.79219
-6.42113
-9.29241
-8.62231
-7.91558
-7.23935
-6.61803
-6.0691
-5.58996
-5.19355
-4.88573
-4.66015
-4.54995
-4.53635
-4.63718
-4.84751
-5.19113
-5.63241
-6.21215
-6.90863
-7.73152
-9.25217
-8.36586
-7.58336
-6.9115
-6.33416
-5.85437
-5.45504
-5.14841
-4.93746
-4.81206
-4.81294
-4.91497
-5.14132
-5.48656
-5.9828
-6.5877
-7.35905
-8.27679
-9.37443
-8.87272
-7.88688
-7.11485
-6.50678
-6.01246
-5.62867
-5.32814
-5.12647
-5.02582
-5.01351
-5.14023
-5.37465
-5.74728
-6.25331
-6.93668
-7.74843
-8.77112
-9.99172
-11.4998
-8.07369
-7.14772
-6.48755
-6.00483
-5.63176
-5.36957
-5.18646
-5.10496
-5.12851
-5.24334
-5.51247
-5.89932
-6.44455
-7.14629
-8.06602
-9.15038
-10.5201
-12.1808
-14.3628
-6.85365
-6.18042
-5.7255
-5.41638
-5.19254
-5.06995
-5.01746
-5.06698
-5.22522
-5.47911
-5.90645
-6.46771
-7.21781
-8.1624
-9.39018
-10.8499
-12.7242
-15.0619
-18.4692
-5.31223
-5.03816
-4.84784
-4.74004
-4.68159
-4.7085
-4.79385
-4.9798
-5.27805
-5.67856
-6.27672
-7.03431
-8.027
-9.27701
-10.9176
-12.9163
-15.5634
-19.0027
-24.8906
-3.6361
-3.78914
-3.8728
-3.97088
-4.08187
-4.25991
-4.48314
-4.80318
-5.23799
-5.78333
-6.5557
-7.52453
-8.79685
-10.4289
-12.6308
-15.4276
-19.3136
-24.6429
-36.0751
-2.03345
-2.50415
-2.81964
-3.10681
-3.38073
-3.70399
-4.05716
-4.49896
-5.05325
-5.72473
-6.65471
-7.82735
-9.39729
-11.4875
-14.4446
-18.4425
-24.391
-33.1364
-57.957
-0.667967
-1.23966
-1.7061
-2.15146
-2.57534
-3.0333
-3.50096
-4.04158
-4.6796
-5.43272
-6.46953
-7.78934
-9.62291
-12.2415
-16.3205
-22.6895
-34.0743
-55.079
-130.113
)
;

boundaryField
{
    up
    {
        type            calculated;
        value           nonuniform List<scalar> 
84
(
-117.908
-63.8589
-39.1855
-26.7129
-19.6452
-15.1809
-12.0999
-9.83059
-8.08448
-6.69807
-5.57887
-4.66625
-3.91553
-3.29608
-2.78333
-2.3569
-2.00026
-1.70006
-1.4455
-1.227
-1.03629
-0.86335
-0.687665
-0.436092
-0.42169
-0.535584
-0.627484
-0.726319
-0.842805
-0.987648
-1.17505
-1.42338
-1.8068
-3.33315
-4.70996
-5.08327
-5.11692
-5.33384
-5.57809
-5.79048
-5.94483
-6.03647
-6.03673
-5.94573
-5.79183
-5.57963
-5.33555
-5.11828
-5.08335
-4.71326
-3.3491
-1.80999
-1.42526
-1.17645
-0.988739
-0.843698
-0.727092
-0.628206
-0.53643
-0.422211
-0.435776
-0.687698
-0.863374
-1.03631
-1.22701
-1.44551
-1.70007
-2.00026
-2.3569
-2.78332
-3.29607
-3.91552
-4.66624
-5.57887
-6.69808
-8.0845
-9.83062
-12.1
-15.181
-19.6452
-26.7129
-39.1855
-63.8589
-117.908
)
;
    }
    low
    {
        type            calculated;
        value           nonuniform List<scalar> 
84
(
-0.71684
-2.12497
-3.83492
-5.64721
-7.31732
-8.62373
-9.44331
-9.7853
-9.7208
-9.35409
-8.99407
-8.56766
-8.03013
-7.58561
-7.19291
-6.796
-6.43778
-6.14474
-5.8379
-5.49225
-5.1997
-4.94354
-4.69699
-4.47459
-4.26117
-4.12793
-4.12869
-4.28136
-4.54843
-4.92498
-5.38312
-5.85086
-6.38341
-7.00365
-7.67467
-8.4401
-9.30068
-10.0633
-10.6693
-11.1536
-11.5076
-11.7536
-11.7536
-11.5076
-11.1537
-10.6694
-10.0634
-9.3008
-8.44025
-7.67462
-7.00374
-6.38334
-5.85083
-5.38309
-4.92495
-4.5484
-4.28136
-4.1287
-4.12795
-4.26122
-4.47473
-4.69702
-4.94359
-5.19973
-5.49227
-5.83791
-6.14476
-6.43779
-6.796
-7.1929
-7.58559
-8.03011
-8.56762
-8.99402
-9.35405
-9.72079
-9.78531
-9.44334
-8.62378
-7.31737
-5.64726
-3.83495
-2.12499
-0.716847
)
;
    }
    left
    {
        type            calculated;
        value           nonuniform List<scalar> 
19
(
-0.655217
-1.21642
-1.69192
-2.15194
-2.59339
-3.06992
-3.55816
-4.12462
-4.79457
-5.59547
-6.7039
-8.12689
-10.1265
-13.0276
-17.5877
-24.8238
-37.9094
-62.3368
-122.294
)
;
    }
    right
    {
        type            calculated;
        value           nonuniform List<scalar> 
19
(
-0.655222
-1.21642
-1.69192
-2.15194
-2.59339
-3.06992
-3.55817
-4.12462
-4.79457
-5.59547
-6.70389
-8.12688
-10.1265
-13.0275
-17.5877
-24.8238
-37.9094
-62.3368
-122.294
)
;
    }
    frontAndBackPlanes
    {
        type            empty;
    }
}


// ************************************************************************* //
