/*--------------------------------*- C++ -*----------------------------------*\
  =========                 |
  \\      /  F ield         | OpenFOAM: The Open Source CFD Toolbox
   \\    /   O peration     | Website:  https://openfoam.org
    \\  /    A nd           | Version:  7
     \\/     M anipulation  |
\*---------------------------------------------------------------------------*/
FoamFile
{
    version     2.0;
    format      ascii;
    class       volScalarField;
    location    "0.181";
    object      gradTx;
}
// * * * * * * * * * * * * * * * * * * * * * * * * * * * * * * * * * * * * * //

dimensions      [0 -1 0 1 0 0 0];

internalField   nonuniform List<scalar> 
1596
(
-0.207926
-1.04257
-1.86205
-2.59153
-3.22258
-3.75089
-4.20107
-4.58927
-4.93873
-5.29313
-5.66672
-6.11235
-6.69035
-7.48503
-8.59331
-10.2513
-12.8187
-17.0704
-24.6084
0.0468722
-0.864478
-1.67113
-2.3611
-2.94804
-3.43368
-3.84059
-4.17708
-4.46091
-4.71575
-4.94668
-5.18361
-5.43989
-5.73382
-6.06046
-6.40651
-6.67326
-6.65563
-5.91517
0.2565
-0.698651
-1.47694
-2.11809
-2.65258
-3.08948
-3.44845
-3.73512
-3.96162
-4.14121
-4.27446
-4.37801
-4.45161
-4.49671
-4.4997
-4.4344
-4.22313
-3.72702
-2.66939
0.292453
-0.603932
-1.31074
-1.88337
-2.35519
-2.73844
-3.04855
-3.28997
-3.47049
-3.59716
-3.66934
-3.69563
-3.67248
-3.59677
-3.45742
-3.23353
-2.87645
-2.30473
-1.3554
0.0961971
-0.619184
-1.2018
-1.68171
-2.07941
-2.40411
-2.66517
-2.86571
-3.01001
-3.10087
-3.13792
-3.12445
-3.05682
-2.93099
-2.7398
-2.46866
-2.08993
-1.5586
-0.782703
-0.313298
-0.759834
-1.17331
-1.53718
-1.849
-2.10935
-2.32001
-2.48179
-2.59577
-2.66154
-2.6791
-2.64804
-2.56517
-2.42629
-2.22701
-1.95694
-1.60119
-1.13543
-0.508962
-0.856287
-1.01434
-1.2359
-1.46704
-1.68267
-1.87223
-2.02945
-2.15179
-2.23724
-2.28273
-2.28818
-2.25053
-2.1668
-2.03259
-1.84495
-1.59573
-1.27704
-0.875628
-0.363805
-1.42284
-1.33368
-1.3707
-1.46632
-1.58164
-1.6965
-1.79776
-1.87906
-1.93551
-1.96187
-1.9574
-1.91725
-1.83827
-1.71576
-1.54725
-1.32568
-1.04663
-0.702473
-0.278049
-2.00772
-1.74644
-1.62129
-1.58162
-1.58916
-1.61958
-1.6556
-1.68752
-1.70802
-1.71001
-1.69158
-1.64658
-1.57132
-1.46058
-1.31162
-1.11771
-0.875681
-0.580408
-0.222962
-2.35861
-2.03664
-1.8171
-1.68124
-1.60379
-1.5633
-1.54247
-1.53008
-1.51748
-1.4966
-1.46445
-1.41432
-1.34202
-1.2421
-1.11146
-0.943651
-0.735882
-0.484211
-0.182879
-2.64646
-2.30073
-2.0254
-1.81882
-1.66986
-1.56408
-1.48746
-1.42931
-1.3809
-1.33389
-1.28447
-1.2257
-1.15294
-1.06049
-0.944779
-0.799417
-0.621428
-0.407174
-0.152337
-2.94281
-2.59704
-2.28749
-2.02568
-1.81274
-1.64281
-1.50739
-1.39828
-1.3079
-1.22842
-1.15555
-1.08234
-1.00367
-0.913586
-0.807898
-0.680134
-0.5268
-0.344059
-0.12797
-3.03067
-2.73158
-2.43035
-2.15154
-1.90641
-1.69716
-1.52122
-1.37405
-1.25038
-1.14378
-1.05031
-0.96354
-0.878337
-0.788813
-0.690514
-0.577091
-0.444699
-0.289347
-0.107176
-3.06137
-2.81239
-2.53567
-2.25783
-1.99641
-1.76039
-1.55287
-1.37351
-1.21995
-1.08774
-0.97382
-0.872584
-0.779125
-0.687752
-0.593847
-0.491214
-0.375703
-0.243158
-0.089678
-3.06933
-2.86537
-2.61818
-2.35132
-2.08435
-1.83097
-1.59908
-1.39256
-1.21223
-1.05598
-0.922066
-0.805869
-0.702898
-0.607741
-0.515707
-0.420747
-0.318464
-0.204541
-0.0749824
-3.00945
-2.85397
-2.64257
-2.39721
-2.13731
-1.87913
-1.63399
-1.40944
-1.20938
-1.03419
-0.883717
-0.754572
-0.642885
-0.543672
-0.45232
-0.362987
-0.271146
-0.172401
-0.0626844
-2.87697
-2.76819
-2.59647
-2.38076
-2.13904
-1.88827
-1.64176
-1.40975
-1.19883
-1.01172
-0.849973
-0.711572
-0.593455
-0.491211
-0.40046
-0.315652
-0.232259
-0.145902
-0.052518
-2.71675
-2.63838
-2.50199
-2.31761
-2.0995
-1.86367
-1.62412
-1.3928
-1.17836
-0.985519
-0.817469
-0.673531
-0.551526
-0.447681
-0.35794
-0.277073
-0.200642
-0.124362
-0.0442471
-2.58279
-2.52866
-2.41907
-2.25975
-2.06152
-1.83896
-1.60628
-1.37657
-1.16008
-0.963223
-0.790536
-0.642502
-0.517679
-0.412817
-0.324097
-0.246508
-0.175656
-0.10734
-0.0376885
-2.33534
-2.31417
-2.2369
-2.10987
-1.9415
-1.74423
-1.53131
-1.31591
-1.10912
-0.918491
-0.749695
-0.604327
-0.481774
-0.379456
-0.293962
-0.220617
-0.155169
-0.0936117
-0.0324092
-2.05544
-2.06034
-2.01244
-1.9165
-1.77901
-1.61028
-1.42218
-1.22722
-1.0366
-0.858503
-0.699271
-0.561375
-0.444916
-0.347982
-0.267615
-0.199483
-0.139408
-0.083447
-0.0284739
-1.75859
-1.77999
-1.75629
-1.68876
-1.5816
-1.44293
-1.28295
-1.11301
-0.943899
-0.783812
-0.639322
-0.51344
-0.406801
-0.318117
-0.244957
-0.183399
-0.129241
-0.0781288
-0.0266106
-1.42439
-1.45346
-1.44934
-1.40908
-1.33392
-1.22921
-1.10301
-0.964896
-0.824584
-0.689744
-0.566632
-0.458503
-0.366308
-0.289399
-0.226066
-0.173126
-0.126574
-0.0812783
-0.0311096
-1.04281
-1.02832
-0.989798
-0.928
-0.847318
-0.754028
-0.655258
-0.557497
-0.466298
-0.38511
-0.315618
-0.257838
-0.210447
-0.171767
-0.140064
-0.113312
-0.0888882
-0.0626433
-0.0278395
-0.696918
-0.771312
-0.844913
-0.901948
-0.932241
-0.930829
-0.898582
-0.840314
-0.763989
-0.678004
-0.589642
-0.504851
-0.426751
-0.357641
-0.298676
-0.250127
-0.210418
-0.176317
-0.141118
-0.234472
-0.266131
-0.305838
-0.345017
-0.377258
-0.398201
-0.406442
-0.402376
-0.388628
-0.368359
-0.343875
-0.317644
-0.289963
-0.261643
-0.233642
-0.208128
-0.186221
-0.169157
-0.156337
0.229004
0.190952
0.135023
0.0690151
0.000599244
-0.0637284
-0.119688
-0.165
-0.199768
-0.22534
-0.242683
-0.253185
-0.256279
-0.25195
-0.240813
-0.225906
-0.20995
-0.196122
-0.185284
0.689897
0.637976
0.56028
0.465355
0.361839
0.257613
0.158789
0.0692836
-0.00939213
-0.077427
-0.134992
-0.182591
-0.218691
-0.241776
-0.250972
-0.249035
-0.239803
-0.228627
-0.218213
1.10351
1.02842
0.92425
0.800831
0.667042
0.531052
0.39939
0.276298
0.16373
0.0617588
-0.0296744
-0.110773
-0.179311
-0.231967
-0.265115
-0.279454
-0.278527
-0.269834
-0.25877
1.52772
1.42305
1.28843
1.13402
0.968987
0.801805
0.639138
0.485176
0.341877
0.209102
0.0863815
-0.027019
-0.129128
-0.2155
-0.279217
-0.316956
-0.329234
-0.324485
-0.311806
1.84185
1.70377
1.54029
1.36108
1.17505
0.989704
0.810552
0.640614
0.481012
0.330822
0.188748
0.0528461
-0.0763108
-0.19476
-0.293153
-0.362898
-0.397198
-0.400959
-0.385484
2.1302
1.96404
1.77264
1.5695
1.36393
1.16255
0.96969
0.787231
0.61553
0.452958
0.297472
0.145627
-0.00450594
-0.151985
-0.288391
-0.402192
-0.476466
-0.504779
-0.493845
2.39087
2.18785
1.96678
1.74129
1.51958
1.30658
1.10505
0.915613
0.737906
0.569816
0.408999
0.251123
0.0918565
-0.0725067
-0.238964
-0.400539
-0.53507
-0.620135
-0.633698
2.55072
2.2923
2.02703
1.76691
1.5181
1.28356
1.06449
0.860443
0.670491
0.492315
0.32338
0.159273
-0.00551851
-0.178473
-0.364475
-0.568637
-0.780784
-0.981579
-1.13452
2.64051
2.36037
2.0937
1.84761
1.62272
1.41759
1.22999
1.0575
0.898028
0.749487
0.610318
0.478513
0.351616
0.225795
0.0959316
-0.0485008
-0.21706
-0.420462
-0.661719
2.70013
2.41293
2.1566
1.92795
1.72206
1.53488
1.36288
1.20342
1.0547
0.915183
0.784142
0.661114
0.545516
0.437167
0.336343
0.242178
0.153343
0.0656859
-0.0286509
2.53829
2.21141
1.93231
1.69019
1.47715
1.28771
1.11751
0.963259
0.822543
0.693185
0.573859
0.463596
0.361378
0.266821
0.18037
0.102569
0.0347504
-0.0212418
-0.0646093
2.21473
1.92056
1.67285
1.46046
1.27552
1.11246
0.966953
0.83574
0.716502
0.607231
0.506726
0.41415
0.328607
0.249653
0.177322
0.111484
0.0522518
5.40779e-05
-0.0452497
1.83035
1.58581
1.37888
1.20174
1.04818
0.913451
0.793798
0.686346
0.589056
0.500166
0.418605
0.343594
0.274284
0.210166
0.151111
0.0968479
0.0473522
0.0029715
-0.0363711
1.37235
1.18501
1.02787
0.894485
0.779674
0.679496
0.59091
0.511599
0.439947
0.374565
0.314611
0.259461
0.208435
0.161115
0.117385
0.0770388
0.040089
0.00686316
-0.0226391
0.861703
0.736932
0.635596
0.551253
0.479522
0.417394
0.362718
0.313916
0.269914
0.229802
0.193028
0.159176
0.127798
0.098612
0.0715306
0.0464188
0.0232917
0.00238827
-0.0162454
0.330079
0.279328
0.23965
0.2071
0.179541
0.155696
0.13473
0.116053
0.099268
0.0840349
0.0701348
0.0573936
0.0456218
0.0346849
0.024515
0.015029
0.00619869
-0.00191492
-0.00930289
-0.32992
-0.278972
-0.239156
-0.206515
-0.178898
-0.155022
-0.134047
-0.115379
-0.0986186
-0.0834227
-0.0695709
-0.0568874
-0.0451812
-0.0343168
-0.0242249
-0.0148211
-0.00607569
0.00195274
0.00925704
-0.861554
-0.736615
-0.63516
-0.550738
-0.478959
-0.416807
-0.362127
-0.313338
-0.269363
-0.22929
-0.192564
-0.15877
-0.127457
-0.0983424
-0.0713375
-0.046306
-0.0232612
-0.00243986
0.0161143
-1.3722
-1.1847
-1.02744
-0.893973
-0.779107
-0.678896
-0.590299
-0.510993
-0.439361
-0.374012
-0.3141
-0.259
-0.20803
-0.160771
-0.117104
-0.0768218
-0.0399352
-0.00676933
0.0226774
-1.83023
-1.58559
-1.37857
-1.20138
-1.04778
-0.91303
-0.793374
-0.685932
-0.588664
-0.499806
-0.418285
-0.343322
-0.274064
-0.210002
-0.151003
-0.0967965
-0.0473551
-0.00302518
0.0362712
-2.21465
-1.92041
-1.67264
-1.46019
-1.27522
-1.11214
-0.966628
-0.835423
-0.716203
-0.606958
-0.50649
-0.413955
-0.328459
-0.249554
-0.177271
-0.11148
-0.0522872
-0.000119843
0.0451662
-2.53828
-2.21136
-1.93221
-1.69005
-1.47698
-1.28753
-1.11733
-0.963082
-0.82239
-0.693066
-0.573782
-0.463567
-0.361403
-0.266906
-0.180514
-0.102764
-0.0349751
0.0210236
0.0644395
-2.70011
-2.41269
-2.15606
-1.9271
-1.72093
-1.53348
-1.36126
-1.20163
-1.05278
-0.913167
-0.782066
-0.659001
-0.543379
-0.435014
-0.334185
-0.240064
-0.151389
-0.0641456
0.0293594
-2.64097
-2.3616
-2.09572
-1.85038
-1.62619
-1.42166
-1.23458
-1.0625
-0.903372
-0.755101
-0.616158
-0.48457
-0.357924
-0.23245
-0.103092
0.0406011
0.20821
0.410604
0.651167
-2.55052
-2.29175
-2.0261
-1.76562
-1.51648
-1.28166
-1.06236
-0.858155
-0.668092
-0.489858
-0.320907
-0.156823
0.00790915
0.180784
0.366732
0.570963
0.783493
0.985198
1.13974
-2.39102
-2.18823
-1.96734
-1.74199
-1.5204
-1.30748
-1.10601
-0.916607
-0.738916
-0.570829
-0.41001
-0.25213
-0.0928525
0.071557
0.238147
0.400011
0.535016
0.620662
0.634648
-2.1303
-1.96428
-1.773
-1.56995
-1.36446
-1.16314
-0.970312
-0.787875
-0.616184
-0.453612
-0.298114
-0.146244
0.00394473
0.151537
0.288145
0.402247
0.476866
0.505459
0.494661
-1.84195
-1.70401
-1.54065
-1.36155
-1.1756
-0.990313
-0.811195
-0.641268
-0.481659
-0.331444
-0.189327
-0.0533594
0.0758987
0.1945
0.2931
0.363083
0.397596
0.401486
0.38604
-1.52782
-1.42329
-1.28881
-1.13451
-0.969566
-0.802441
-0.639801
-0.485839
-0.342513
-0.20969
-0.0869006
0.0265936
0.128827
0.215355
0.279248
0.317156
0.32956
0.324877
0.312215
-1.1036
-1.02865
-0.924612
-0.801307
-0.667603
-0.531664
-0.40002
-0.276913
-0.164304
-0.0622685
0.0292491
0.110451
0.179113
0.231908
0.265192
0.279645
0.278794
0.27014
0.259091
-0.689994
-0.63822
-0.560663
-0.465856
-0.362424
-0.258242
-0.159422
-0.0698847
0.0088512
0.0769686
0.134632
0.182342
0.218561
0.241764
0.251065
0.249209
0.240029
0.228881
0.218482
-0.229088
-0.191186
-0.135398
-0.0695058
-0.00116633
0.063129
0.119099
0.164458
0.199301
0.224967
0.242412
0.25302
0.256219
0.251984
0.240924
0.226074
0.210153
0.196348
0.18553
0.234271
0.265528
0.304827
0.343649
0.375628
0.396428
0.404648
0.400666
0.387083
0.36703
0.342782
0.316789
0.289329
0.261201
0.233353
0.207959
0.186147
0.169176
0.156488
0.697053
0.771829
0.845888
0.903384
0.934081
0.932969
0.900896
0.842671
0.766277
0.680138
0.591567
0.506545
0.428213
0.35889
0.299743
0.251048
0.211228
0.177045
0.141775
1.04266
1.02779
0.988879
0.926757
0.845845
0.752434
0.653649
0.555963
0.464901
0.38389
0.314589
0.256996
0.209778
0.171248
0.139673
0.113026
0.0886884
0.062518
0.0277892
1.42447
1.45362
1.44959
1.40939
1.33426
1.22955
1.10332
0.965168
0.824802
0.689907
0.566743
0.458571
0.366345
0.289415
0.226068
0.173122
0.126567
0.0812721
0.0311081
1.7586
1.78
1.75631
1.68878
1.58162
1.44295
1.28295
1.11301
0.94389
0.783796
0.6393
0.513417
0.406778
0.318097
0.24494
0.183386
0.129232
0.0781245
0.0266104
2.05545
2.06035
2.01246
1.91651
1.77902
1.61029
1.42218
1.22721
1.03659
0.858487
0.699252
0.561356
0.444899
0.347968
0.267604
0.199476
0.139403
0.0834452
0.0284736
2.33535
2.31418
2.23691
2.10988
1.94151
1.74423
1.53131
1.31591
1.10911
0.918477
0.749679
0.604313
0.481762
0.379447
0.293956
0.220613
0.155166
0.0936108
0.0324089
2.5828
2.52867
2.41908
2.25976
2.06152
1.83896
1.60628
1.37656
1.16007
0.963212
0.790525
0.642492
0.517671
0.412811
0.324093
0.246506
0.175655
0.107339
0.0376882
2.71675
2.63839
2.502
2.31762
2.09951
1.86367
1.62412
1.3928
1.17835
0.98551
0.81746
0.673523
0.55152
0.447677
0.357937
0.277071
0.20064
0.12436
0.0442466
2.87698
2.7682
2.59648
2.38077
2.13904
1.88827
1.64175
1.40974
1.19882
1.01171
0.849965
0.711565
0.59345
0.491207
0.400457
0.315649
0.232256
0.1459
0.0525173
3.00945
2.85398
2.64258
2.39722
2.13732
1.87913
1.63399
1.40943
1.20937
1.03419
0.883711
0.754566
0.64288
0.543667
0.452315
0.362982
0.271142
0.172398
0.0626835
3.06933
2.86538
2.61819
2.35133
2.08435
1.83097
1.59908
1.39256
1.21222
1.05598
0.922059
0.805862
0.702891
0.607734
0.5157
0.42074
0.318457
0.204537
0.0749815
3.06137
2.8124
2.53568
2.25784
1.99641
1.76039
1.55286
1.37351
1.21994
1.08773
0.973813
0.872577
0.779117
0.687743
0.593837
0.491204
0.375696
0.243154
0.0896773
3.03068
2.73159
2.43036
2.15155
1.90642
1.69716
1.52122
1.37405
1.25038
1.14378
1.05031
0.963531
0.878327
0.788802
0.690503
0.577081
0.444692
0.289344
0.107176
2.94281
2.59704
2.28748
2.02567
1.81273
1.6428
1.50738
1.39827
1.30789
1.22841
1.15554
1.08233
1.00366
0.913572
0.807885
0.680123
0.526793
0.344057
0.127971
2.64647
2.30074
2.02541
1.81883
1.66986
1.56408
1.48745
1.4293
1.3809
1.33388
1.28446
1.22569
1.15293
1.06048
0.944768
0.799409
0.621424
0.407174
0.152339
2.35863
2.03666
1.81711
1.68124
1.60379
1.5633
1.54247
1.53007
1.51747
1.49659
1.46444
1.4143
1.34201
1.24209
1.11145
0.943648
0.735883
0.484215
0.182881
2.00774
1.74645
1.6213
1.58162
1.58916
1.61958
1.65559
1.68751
1.70802
1.71
1.69157
1.64657
1.57131
1.46058
1.31162
1.11772
0.875687
0.580414
0.222964
1.42285
1.33369
1.3707
1.46632
1.58164
1.6965
1.79776
1.87905
1.93551
1.96187
1.9574
1.91724
1.83827
1.71576
1.54725
1.32569
1.04663
0.70248
0.27805
0.8563
1.01435
1.2359
1.46705
1.68268
1.87223
2.02945
2.15178
2.23723
2.28273
2.28817
2.25053
2.16681
2.0326
1.84496
1.59574
1.27706
0.875635
0.363806
0.313306
0.759842
1.17332
1.53719
1.84901
2.10935
2.32001
2.48179
2.59577
2.66154
2.6791
2.64804
2.56517
2.4263
2.22703
1.95696
1.6012
1.13543
0.50896
-0.0961923
0.619191
1.20181
1.68172
2.07942
2.40411
2.66517
2.86571
3.01001
3.10087
3.13792
3.12445
3.05683
2.93101
2.73981
2.46867
2.08993
1.5586
0.7827
-0.292452
0.603937
1.31075
1.88338
2.35519
2.73844
3.04855
3.28997
3.4705
3.59717
3.66935
3.69564
3.67249
3.59679
3.45743
3.23354
2.87645
2.30472
1.35539
-0.256502
0.698652
1.47694
2.11809
2.65258
3.08947
3.44845
3.73512
3.96162
4.14122
4.27446
4.37802
4.45162
4.49672
4.4997
4.43439
4.22312
3.72702
2.66939
-0.0468722
0.864478
1.67113
2.3611
2.94803
3.43368
3.84059
4.17708
4.46091
4.71575
4.94669
5.18362
5.43989
5.73382
6.06046
6.40649
6.67325
6.65563
5.91517
0.207928
1.04257
1.86204
2.59153
3.22258
3.75089
4.20107
4.58928
4.93873
5.29314
5.66673
6.11234
6.69034
7.48502
8.5933
10.2513
12.8187
17.0704
24.6084
)
;

boundaryField
{
    up
    {
        type            calculated;
        value           nonuniform List<scalar> 
84
(
-24.6084
-5.91517
-2.66939
-1.3554
-0.782703
-0.508962
-0.363805
-0.278049
-0.222962
-0.182879
-0.152337
-0.12797
-0.107176
-0.089678
-0.0749824
-0.0626844
-0.052518
-0.0442471
-0.0376885
-0.0324092
-0.0284739
-0.0266106
-0.0311096
-0.0278395
-0.119783
-0.144726
-0.17297
-0.203986
-0.241611
-0.290339
-0.356756
-0.44865
-0.562009
-1.11164
-0.680467
-0.0297499
-0.0643366
-0.0450573
-0.0362622
-0.0225978
-0.01623
-0.00930185
0.00925603
0.0160992
0.0226364
0.0361631
0.0449748
0.0641676
0.0304411
0.669697
1.11777
0.56287
0.449353
0.357261
0.29072
0.241915
0.204244
0.173212
0.144935
0.120372
0.0277892
0.0311081
0.0266104
0.0284736
0.0324089
0.0376882
0.0442466
0.0525173
0.0626835
0.0749815
0.0896773
0.107176
0.127971
0.152339
0.182881
0.222964
0.27805
0.363806
0.50896
0.7827
1.35539
2.66939
5.91517
24.6084
)
;
    }
    low
    {
        type            calculated;
        value           nonuniform List<scalar> 
84
(
-0.187224
0.0783555
0.307174
0.347338
0.130578
-0.319634
-0.908254
-1.50984
-2.10816
-2.44119
-2.71931
-3.00215
-3.05743
-3.0684
-3.06417
-2.98582
-2.83727
-2.67278
-2.52836
-2.26126
-1.97129
-1.67174
-1.33874
-0.967211
-0.637475
-0.212953
0.204492
0.629171
1.02615
1.45129
1.78042
2.08141
2.35988
2.54234
2.64983
2.73011
2.58964
2.2689
1.87826
1.41024
0.886695
0.340501
-0.340342
-0.886542
-1.41008
-1.87813
-2.2688
-2.5896
-2.73007
-2.65021
-2.54214
-2.36
-2.0815
-1.78052
-1.45138
-1.02624
-0.629273
-0.204578
0.212757
0.637607
0.967067
1.33881
1.67175
1.9713
2.26127
2.52837
2.67278
2.83727
2.98583
3.06417
3.06841
3.05744
3.00214
2.71932
2.44121
2.10817
1.50985
0.908268
0.319644
-0.130573
-0.347339
-0.30718
-0.0783589
0.187225
)
;
    }
    left
    {
        type            calculated;
        value           nonuniform List<scalar> 
19
(
-0.184939
-1.00207
-1.83898
-2.59437
-3.25308
-3.80632
-4.28038
-4.69406
-5.0704
-5.46358
-5.88765
-6.40141
-7.08279
-8.04336
-9.40411
-11.496
-14.818
-20.4526
-21.3427
)
;
    }
    right
    {
        type            calculated;
        value           nonuniform List<scalar> 
19
(
0.184941
1.00207
1.83898
2.59437
3.25308
3.80632
4.28038
4.69407
5.0704
5.46359
5.88765
6.4014
7.08278
8.04334
9.40408
11.4959
14.818
20.4526
21.3427
)
;
    }
    frontAndBackPlanes
    {
        type            empty;
    }
}


// ************************************************************************* //
