/*--------------------------------*- C++ -*----------------------------------*\
  =========                 |
  \\      /  F ield         | OpenFOAM: The Open Source CFD Toolbox
   \\    /   O peration     | Website:  https://openfoam.org
    \\  /    A nd           | Version:  7
     \\/     M anipulation  |
\*---------------------------------------------------------------------------*/
FoamFile
{
    version     2.0;
    format      ascii;
    class       volScalarField;
    location    "0.23";
    object      gradTy;
}
// * * * * * * * * * * * * * * * * * * * * * * * * * * * * * * * * * * * * * //

dimensions      [0 -1 0 1 0 0 0];

internalField   nonuniform List<scalar> 
1596
(
-0.0925584
-0.171877
-0.236803
-0.299083
-0.358739
-0.423567
-0.49025
-0.567693
-0.659409
-0.767961
-0.917188
-1.1071
-1.37046
-1.7459
-2.32977
-3.24051
-4.86745
-7.86838
-18.5875
-0.281866
-0.347411
-0.391786
-0.432632
-0.472066
-0.518806
-0.570169
-0.634377
-0.714809
-0.812157
-0.946341
-1.1152
-1.34067
-1.64026
-2.06339
-2.63497
-3.48489
-4.73416
-8.27974
-0.50425
-0.525982
-0.538558
-0.553609
-0.570903
-0.597946
-0.631672
-0.679272
-0.743259
-0.823036
-0.934974
-1.07481
-1.25768
-1.49162
-1.80655
-2.20617
-2.76105
-3.52192
-5.15451
-0.737136
-0.699774
-0.674607
-0.661421
-0.65554
-0.661922
-0.676762
-0.705901
-0.750947
-0.810469
-0.897831
-1.00767
-1.15065
-1.32997
-1.56455
-1.84993
-2.22752
-2.71802
-3.55816
-0.951696
-0.858948
-0.797201
-0.756274
-0.727648
-0.713464
-0.709305
-0.719563
-0.745123
-0.784119
-0.847414
-0.929451
-1.03794
-1.17371
-1.34932
-1.55763
-1.82464
-2.15751
-2.64297
-1.12196
-0.993987
-0.903752
-0.838799
-0.789545
-0.756064
-0.733817
-0.725876
-0.732656
-0.752181
-0.793227
-0.85064
-0.930109
-1.03137
-1.1631
-1.31786
-1.51277
-1.74883
-2.05906
-1.23391
-1.09743
-0.991569
-0.909175
-0.843078
-0.792709
-0.754137
-0.729457
-0.718894
-0.720613
-0.741663
-0.777612
-0.832716
-0.906286
-1.00449
-1.12049
-1.26596
-1.43921
-1.65312
-1.28753
-1.16474
-1.05728
-0.965927
-0.888224
-0.824454
-0.772089
-0.732743
-0.706746
-0.692616
-0.696003
-0.713341
-0.747854
-0.798756
-0.870533
-0.957262
-1.06708
-1.19725
-1.35264
-1.29381
-1.20103
-1.104
-1.01192
-0.927999
-0.854525
-0.790974
-0.739051
-0.699473
-0.671286
-0.659079
-0.660173
-0.677045
-0.708977
-0.759275
-0.822947
-0.905705
-1.00455
-1.12092
-1.26203
-1.20153
-1.12285
-1.038
-0.95417
-0.875927
-0.804932
-0.743486
-0.692944
-0.653011
-0.627575
-0.614801
-0.61668
-0.632652
-0.665233
-0.710311
-0.771971
-0.84733
-0.936314
-1.22198
-1.18441
-1.12416
-1.05018
-0.970617
-0.891421
-0.816104
-0.747783
-0.688582
-0.638959
-0.6024
-0.577852
-0.567008
-0.569504
-0.587305
-0.617059
-0.661703
-0.718609
-0.787024
-1.17213
-1.15809
-1.1157
-1.05382
-0.980762
-0.903142
-0.8258
-0.752663
-0.686647
-0.628987
-0.583015
-0.548386
-0.526642
-0.517632
-0.52294
-0.539856
-0.570494
-0.612528
-0.664929
-1.1101
-1.11708
-1.09214
-1.04336
-0.978753
-0.90522
-0.828391
-0.752889
-0.682336
-0.618695
-0.565337
-0.522543
-0.491837
-0.473291
-0.468257
-0.474578
-0.493811
-0.523949
-0.563876
-1.05493
-1.07389
-1.06266
-1.02575
-0.969754
-0.901314
-0.826369
-0.750053
-0.676561
-0.608486
-0.549359
-0.49999
-0.461966
-0.435574
-0.422023
-0.419606
-0.429496
-0.449975
-0.479945
-1.0038
-1.03221
-1.03148
-1.0045
-0.956383
-0.893161
-0.82074
-0.744561
-0.669247
-0.597924
-0.534321
-0.479705
-0.435763
-0.402978
-0.382477
-0.372915
-0.375198
-0.38786
-0.409876
-0.953581
-0.991077
-0.999192
-0.980571
-0.939397
-0.881133
-0.811486
-0.736053
-0.659762
-0.586162
-0.519196
-0.460507
-0.411899
-0.374029
-0.347972
-0.332678
-0.328862
-0.33528
-0.350991
-0.90801
-0.951769
-0.967061
-0.955377
-0.920097
-0.866225
-0.799234
-0.724799
-0.648062
-0.572905
-0.503469
-0.441701
-0.389517
-0.34771
-0.317323
-0.297532
-0.288917
-0.290412
-0.301164
-0.868014
-0.916149
-0.937085
-0.931028
-0.900583
-0.85033
-0.785568
-0.712019
-0.635006
-0.558688
-0.487372
-0.423257
-0.368345
-0.323528
-0.28981
-0.266536
-0.254184
-0.251833
-0.258704
-0.827765
-0.883784
-0.910706
-0.909749
-0.883409
-0.836051
-0.772939
-0.699881
-0.622403
-0.544942
-0.471956
-0.40587
-0.348743
-0.301529
-0.265174
-0.23914
-0.223824
-0.218431
-0.222245
-0.786144
-0.851226
-0.884992
-0.889276
-0.866816
-0.822022
-0.760263
-0.687513
-0.609537
-0.531052
-0.45667
-0.389015
-0.330185
-0.281151
-0.242771
-0.21457
-0.196891
-0.189079
-0.190512
-0.750411
-0.82171
-0.861875
-0.871257
-0.852396
-0.809782
-0.74898
-0.676215
-0.597539
-0.517967
-0.442277
-0.373275
-0.313077
-0.26263
-0.222655
-0.192656
-0.172914
-0.162966
-0.162415
-0.718641
-0.795779
-0.841877
-0.856142
-0.840684
-0.799983
-0.739843
-0.666792
-0.587214
-0.506454
-0.429463
-0.359225
-0.297874
-0.246303
-0.205039
-0.173432
-0.1516
-0.139281
-0.136662
-0.689237
-0.772924
-0.824949
-0.84397
-0.831769
-0.792809
-0.733147
-0.659649
-0.579059
-0.497057
-0.418773
-0.347374
-0.285017
-0.232551
-0.190283
-0.157245
-0.133093
-0.117367
-0.111296
-0.662988
-0.753244
-0.810797
-0.833835
-0.824048
-0.785899
-0.725904
-0.651238
-0.569087
-0.485539
-0.405699
-0.333112
-0.269888
-0.216874
-0.174112
-0.140355
-0.114267
-0.0940096
-0.0781983
-0.641688
-0.738034
-0.802123
-0.831461
-0.827617
-0.794634
-0.739039
-0.667737
-0.587891
-0.505751
-0.426092
-0.352892
-0.288244
-0.233428
-0.188628
-0.153019
-0.124765
-0.101434
-0.0794244
-0.626878
-0.726858
-0.79474
-0.828454
-0.829412
-0.801283
-0.750274
-0.682908
-0.606059
-0.525891
-0.446824
-0.373015
-0.306642
-0.249348
-0.201721
-0.163716
-0.133907
-0.110704
-0.0916515
-0.626396
-0.726941
-0.796187
-0.83231
-0.836563
-0.812459
-0.765752
-0.70263
-0.62954
-0.552293
-0.47502
-0.401599
-0.33416
-0.274559
-0.223884
-0.182765
-0.150386
-0.125589
-0.106208
-0.64189
-0.73977
-0.807263
-0.842942
-0.848098
-0.826207
-0.782651
-0.723262
-0.654019
-0.580275
-0.505722
-0.433767
-0.366199
-0.304809
-0.251051
-0.206303
-0.170543
-0.143172
-0.122212
-0.671643
-0.765007
-0.828148
-0.86091
-0.864892
-0.843611
-0.802153
-0.745981
-0.680583
-0.610834
-0.539896
-0.470598
-0.404107
-0.341774
-0.285071
-0.236102
-0.195887
-0.164777
-0.141108
-0.714761
-0.800409
-0.856775
-0.884655
-0.88589
-0.864032
-0.823917
-0.770618
-0.709142
-0.64391
-0.577561
-0.512375
-0.448716
-0.387067
-0.328283
-0.274815
-0.228842
-0.192364
-0.164561
-0.770519
-0.845423
-0.893494
-0.915226
-0.912648
-0.889348
-0.849963
-0.799164
-0.741503
-0.68103
-0.619965
-0.560249
-0.501508
-0.443093
-0.384387
-0.327168
-0.274126
-0.229658
-0.195201
-0.830767
-0.89642
-0.935956
-0.950913
-0.943925
-0.918693
-0.879678
-0.831128
-0.777159
-0.721528
-0.666185
-0.613102
-0.561597
-0.510166
-0.45615
-0.399142
-0.339893
-0.284141
-0.237959
-0.899426
-0.954631
-0.984548
-0.991869
-0.979824
-0.95217
-0.913128
-0.86647
-0.815844
-0.764729
-0.714891
-0.668674
-0.625797
-0.584999
-0.542365
-0.495054
-0.438438
-0.373918
-0.303927
-0.979533
-1.02215
-1.04135
-1.04055
-1.02338
-0.993534
-0.954813
-0.910471
-0.863625
-0.817382
-0.773428
-0.734416
-0.701053
-0.673738
-0.650029
-0.627945
-0.600229
-0.562889
-0.511126
-1.06844
-1.09655
-1.10237
-1.09081
-1.06585
-1.03105
-0.989625
-0.944335
-0.8977
-0.852111
-0.809131
-0.77085
-0.738381
-0.713048
-0.695097
-0.685883
-0.683312
-0.685528
-0.6885
-1.16879
-1.17722
-1.16674
-1.14263
-1.10854
-1.06767
-1.02254
-0.975513
-0.928624
-0.883629
-0.842083
-0.805324
-0.774289
-0.749749
-0.732252
-0.722482
-0.720911
-0.728318
-0.745576
-1.27943
-1.2638
-1.2361
-1.19971
-1.15712
-1.11073
-1.06244
-1.01411
-0.967392
-0.92363
-0.884167
-0.84988
-0.821362
-0.798833
-0.782244
-0.77092
-0.764124
-0.760617
-0.759218
-1.38089
-1.34251
-1.2987
-1.25076
-1.20007
-1.14818
-1.09646
-1.04626
-0.998843
-0.955209
-0.916343
-0.882851
-0.855018
-0.832818
-0.816006
-0.803901
-0.795785
-0.790733
-0.787837
-1.46343
-1.40858
-1.35223
-1.29499
-1.23768
-1.18128
-1.1267
-1.07491
-1.02685
-0.983237
-0.944796
-0.911959
-0.884834
-0.863294
-0.847033
-0.835401
-0.827685
-0.823034
-0.820569
-1.52936
-1.46151
-1.39526
-1.33071
-1.26818
-1.20822
-1.15139
-1.09832
-1.04971
-1.00607
-0.967945
-0.935644
-0.909163
-0.888314
-0.872745
-0.861815
-0.854793
-0.850858
-0.849137
-1.57728
-1.49964
-1.42593
-1.35599
-1.28972
-1.22724
-1.16884
-1.1149
-1.06592
-1.02229
-0.984419
-0.952551
-0.926605
-0.90635
-0.891398
-0.881091
-0.874657
-0.871264
-0.870015
-1.60819
-1.52133
-1.4423
-1.36908
-1.30072
-1.23691
-1.17772
-1.12335
-1.07422
-1.03063
-0.992928
-0.96133
-0.93572
-0.915856
-0.90134
-0.891529
-0.885648
-0.882873
-0.8823
-1.6082
-1.52134
-1.44232
-1.3691
-1.30074
-1.23693
-1.17774
-1.12337
-1.07424
-1.03065
-0.992952
-0.961355
-0.935747
-0.915883
-0.901369
-0.891559
-0.885679
-0.882906
-0.882334
-1.57729
-1.49967
-1.42597
-1.35604
-1.28978
-1.2273
-1.1689
-1.11496
-1.06599
-1.02236
-0.984488
-0.952623
-0.926681
-0.90643
-0.891483
-0.881182
-0.874756
-0.871373
-0.870134
-1.52938
-1.46155
-1.39532
-1.33078
-1.26827
-1.20831
-1.15148
-1.09842
-1.04981
-1.00618
-0.968057
-0.935761
-0.909285
-0.888443
-0.872882
-0.861961
-0.854949
-0.851026
-0.849317
-1.46346
-1.40864
-1.35231
-1.29509
-1.23779
-1.18139
-1.12682
-1.07504
-1.02698
-0.983374
-0.944939
-0.912108
-0.884988
-0.863455
-0.847202
-0.835578
-0.827869
-0.823229
-0.820774
-1.38092
-1.34257
-1.29879
-1.25087
-1.20019
-1.14832
-1.0966
-1.04641
-0.999
-0.955373
-0.916514
-0.883029
-0.855201
-0.833008
-0.816202
-0.804103
-0.795994
-0.790949
-0.788061
-1.27946
-1.26387
-1.2362
-1.19983
-1.15726
-1.11088
-1.06259
-1.01428
-0.967568
-0.923814
-0.884359
-0.850079
-0.821566
-0.799039
-0.78245
-0.771123
-0.764319
-0.760803
-0.759393
-1.16882
-1.1773
-1.16686
-1.14278
-1.10873
-1.06788
-1.02278
-0.975777
-0.928913
-0.883943
-0.842425
-0.805695
-0.774692
-0.750182
-0.732713
-0.722949
-0.721348
-0.728656
-0.745718
-1.06846
-1.09656
-1.10239
-1.09084
-1.06588
-1.03109
-0.98967
-0.94438
-0.897742
-0.852141
-0.809142
-0.770829
-0.738314
-0.712919
-0.694904
-0.685639
-0.6831
-0.685504
-0.688913
-0.979543
-1.0222
-1.04143
-1.04068
-1.02356
-0.993758
-0.955086
-0.910791
-0.863989
-0.817785
-0.77387
-0.734897
-0.701583
-0.674342
-0.650755
-0.62887
-0.60145
-0.564491
-0.513156
-0.89943
-0.954638
-0.984575
-0.991924
-0.979912
-0.952293
-0.913287
-0.866662
-0.816068
-0.764981
-0.715169
-0.668982
-0.626147
-0.58541
-0.542864
-0.495654
-0.439113
-0.374585
-0.304429
-0.830768
-0.896421
-0.935973
-0.950957
-0.944004
-0.918809
-0.879833
-0.83132
-0.777385
-0.721784
-0.666472
-0.613423
-0.561959
-0.510577
-0.45661
-0.399629
-0.340364
-0.284544
-0.238276
-0.770517
-0.845417
-0.8935
-0.915256
-0.912712
-0.88945
-0.850104
-0.799342
-0.741716
-0.681275
-0.620239
-0.560554
-0.501843
-0.443456
-0.384764
-0.327533
-0.274453
-0.229931
-0.195425
-0.714758
-0.800398
-0.856774
-0.884676
-0.885943
-0.864121
-0.824045
-0.770783
-0.709341
-0.644139
-0.577816
-0.512653
-0.449013
-0.387373
-0.328583
-0.275091
-0.229082
-0.192565
-0.164732
-0.671637
-0.764991
-0.828139
-0.860921
-0.864933
-0.843687
-0.802267
-0.746131
-0.680765
-0.611043
-0.540127
-0.470845
-0.404363
-0.342028
-0.285311
-0.236317
-0.196072
-0.164935
-0.141248
-0.641885
-0.739754
-0.80725
-0.842947
-0.848131
-0.826273
-0.782752
-0.723397
-0.654182
-0.580462
-0.505927
-0.433981
-0.366415
-0.305018
-0.251244
-0.206474
-0.170691
-0.143302
-0.122332
-0.62639
-0.726924
-0.796173
-0.83231
-0.836589
-0.812515
-0.76584
-0.702748
-0.629684
-0.552457
-0.475198
-0.401782
-0.334342
-0.274731
-0.224041
-0.182903
-0.150508
-0.125701
-0.106319
-0.626871
-0.726839
-0.794721
-0.828444
-0.82942
-0.801313
-0.750329
-0.682986
-0.606157
-0.526004
-0.446946
-0.373139
-0.306763
-0.24946
-0.20182
-0.163803
-0.133985
-0.110783
-0.0917514
-0.641702
-0.738042
-0.802132
-0.831476
-0.827643
-0.794672
-0.739092
-0.667805
-0.587972
-0.505844
-0.426193
-0.352999
-0.288352
-0.233535
-0.18873
-0.153116
-0.124855
-0.101515
-0.0794886
-0.663002
-0.753257
-0.810805
-0.833836
-0.824038
-0.785878
-0.725873
-0.651198
-0.569041
-0.48549
-0.40565
-0.333064
-0.269843
-0.216833
-0.174074
-0.14032
-0.114232
-0.0939721
-0.0781525
-0.689246
-0.772932
-0.824957
-0.843976
-0.831772
-0.79281
-0.733147
-0.659647
-0.579057
-0.497055
-0.418772
-0.347374
-0.285018
-0.232553
-0.190286
-0.157249
-0.133098
-0.117373
-0.111302
-0.718648
-0.795785
-0.84188
-0.856143
-0.840683
-0.79998
-0.739838
-0.666786
-0.587208
-0.506449
-0.429459
-0.359223
-0.297873
-0.246303
-0.205041
-0.173435
-0.151604
-0.139285
-0.136666
-0.750416
-0.821714
-0.861877
-0.871257
-0.852394
-0.809778
-0.748975
-0.67621
-0.597534
-0.517963
-0.442275
-0.373273
-0.313077
-0.262631
-0.222657
-0.192658
-0.172917
-0.162969
-0.162418
-0.786148
-0.851229
-0.884993
-0.889275
-0.866814
-0.822019
-0.760259
-0.687509
-0.609534
-0.531049
-0.456668
-0.389014
-0.330185
-0.281151
-0.242772
-0.214572
-0.196893
-0.189082
-0.190514
-0.827768
-0.883786
-0.910707
-0.909747
-0.883407
-0.836049
-0.772937
-0.699878
-0.622401
-0.54494
-0.471955
-0.405869
-0.348743
-0.30153
-0.265175
-0.239141
-0.223825
-0.218432
-0.222247
-0.868016
-0.91615
-0.937085
-0.931027
-0.900581
-0.850328
-0.785566
-0.712017
-0.635004
-0.558687
-0.487371
-0.423257
-0.368345
-0.323528
-0.28981
-0.266537
-0.254185
-0.251834
-0.258705
-0.908011
-0.951769
-0.96706
-0.955375
-0.920095
-0.866224
-0.799232
-0.724797
-0.648061
-0.572904
-0.503469
-0.441701
-0.389517
-0.34771
-0.317323
-0.297532
-0.288917
-0.290412
-0.301164
-0.953581
-0.991077
-0.999191
-0.98057
-0.939396
-0.881132
-0.811485
-0.736053
-0.659762
-0.586162
-0.519196
-0.460507
-0.411899
-0.374029
-0.347972
-0.332678
-0.328862
-0.335279
-0.35099
-1.0038
-1.03221
-1.03148
-1.0045
-0.956383
-0.893161
-0.82074
-0.744561
-0.669247
-0.597924
-0.534321
-0.479705
-0.435763
-0.402978
-0.382476
-0.372915
-0.375197
-0.387858
-0.409875
-1.05493
-1.07388
-1.06266
-1.02575
-0.969754
-0.901314
-0.826369
-0.750054
-0.676561
-0.608486
-0.549359
-0.49999
-0.461966
-0.435574
-0.422022
-0.419605
-0.429495
-0.449972
-0.479943
-1.11009
-1.11707
-1.09214
-1.04336
-0.978754
-0.905221
-0.828392
-0.752889
-0.682336
-0.618695
-0.565337
-0.522543
-0.491836
-0.473291
-0.468256
-0.474576
-0.493809
-0.523946
-0.563874
-1.17212
-1.15809
-1.1157
-1.05382
-0.980763
-0.903142
-0.825801
-0.752663
-0.686647
-0.628986
-0.583014
-0.548385
-0.526641
-0.517631
-0.522938
-0.539854
-0.570491
-0.612524
-0.664927
-1.22198
-1.18441
-1.12416
-1.05018
-0.970619
-0.891423
-0.816105
-0.747784
-0.688583
-0.638959
-0.6024
-0.577852
-0.567008
-0.569503
-0.587303
-0.617056
-0.6617
-0.718605
-0.787023
-1.26203
-1.20153
-1.12285
-1.038
-0.954172
-0.875929
-0.804933
-0.743487
-0.692944
-0.653011
-0.627575
-0.614801
-0.61668
-0.632651
-0.66523
-0.710308
-0.771967
-0.847326
-0.936313
-1.29381
-1.20103
-1.104
-1.01192
-0.928001
-0.854526
-0.790976
-0.739051
-0.699474
-0.671286
-0.659079
-0.660173
-0.677044
-0.708976
-0.759273
-0.822944
-0.905702
-1.00455
-1.12092
-1.28753
-1.16474
-1.05729
-0.965929
-0.888226
-0.824455
-0.77209
-0.732744
-0.706747
-0.692617
-0.696003
-0.713341
-0.747853
-0.798755
-0.87053
-0.957259
-1.06707
-1.19725
-1.35264
-1.23391
-1.09744
-0.991572
-0.909177
-0.84308
-0.79271
-0.754138
-0.729458
-0.718895
-0.720614
-0.741663
-0.777611
-0.832715
-0.906284
-1.00449
-1.12049
-1.26596
-1.43921
-1.65312
-1.12196
-0.993991
-0.903755
-0.838801
-0.789547
-0.756066
-0.733819
-0.725877
-0.732657
-0.752181
-0.793227
-0.850639
-0.930108
-1.03137
-1.1631
-1.31786
-1.51277
-1.74884
-2.05907
-0.951702
-0.858952
-0.797203
-0.756277
-0.72765
-0.713466
-0.709307
-0.719564
-0.745123
-0.784119
-0.847414
-0.92945
-1.03794
-1.17371
-1.34931
-1.55763
-1.82464
-2.15752
-2.64297
-0.737141
-0.699776
-0.674609
-0.661423
-0.655542
-0.661924
-0.676763
-0.705903
-0.750948
-0.81047
-0.897831
-1.00767
-1.15065
-1.32996
-1.56455
-1.84993
-2.22752
-2.71802
-3.55817
-0.504253
-0.525983
-0.538559
-0.55361
-0.570905
-0.597947
-0.631673
-0.679273
-0.74326
-0.823036
-0.934973
-1.07481
-1.25768
-1.49162
-1.80655
-2.20617
-2.76105
-3.52192
-5.15451
-0.281868
-0.347412
-0.391786
-0.432633
-0.472067
-0.518806
-0.57017
-0.634378
-0.71481
-0.812157
-0.94634
-1.1152
-1.34067
-1.64026
-2.06338
-2.63497
-3.48489
-4.73416
-8.27974
-0.092559
-0.171878
-0.236803
-0.299083
-0.358739
-0.423567
-0.49025
-0.567693
-0.659409
-0.767961
-0.917188
-1.1071
-1.37046
-1.7459
-2.32977
-3.24051
-4.86745
-7.86838
-18.5875
)
;

boundaryField
{
    up
    {
        type            calculated;
        value           nonuniform List<scalar> 
84
(
-16.844
-9.12264
-5.59842
-3.81787
-2.81022
-2.17511
-1.73804
-1.41707
-1.17074
-0.975437
-0.81779
-0.689046
-0.582775
-0.494632
-0.421182
-0.35961
-0.307656
-0.263519
-0.225739
-0.192996
-0.164116
-0.137593
-0.110186
-0.0701658
-0.0678963
-0.0861273
-0.100672
-0.116125
-0.134116
-0.156224
-0.184517
-0.221643
-0.278596
-0.506372
-0.708105
-0.757836
-0.758124
-0.786526
-0.819606
-0.848622
-0.869785
-0.882465
-0.882499
-0.86991
-0.848808
-0.819815
-0.786754
-0.758298
-0.757811
-0.708554
-0.50874
-0.279064
-0.221922
-0.184726
-0.156388
-0.134252
-0.116243
-0.100784
-0.0862601
-0.0679791
-0.0701159
-0.110191
-0.137596
-0.164119
-0.192998
-0.22574
-0.26352
-0.307655
-0.359609
-0.421181
-0.49463
-0.582773
-0.689045
-0.81779
-0.975438
-1.17074
-1.41708
-1.73805
-2.17512
-2.81022
-3.81788
-5.59842
-9.12264
-16.844
)
;
    }
    low
    {
        type            calculated;
        value           nonuniform List<scalar> 
84
(
-0.0993169
-0.294499
-0.531726
-0.783486
-1.01593
-1.19824
-1.31312
-1.36161
-1.35336
-1.30273
-1.25272
-1.19317
-1.1179
-1.05541
-1.00004
-0.944039
-0.893425
-0.851915
-0.808577
-0.759973
-0.718862
-0.682934
-0.648483
-0.617511
-0.587919
-0.569523
-0.56976
-0.591116
-0.628455
-0.681161
-0.745435
-0.811364
-0.886644
-0.974506
-1.06987
-1.17885
-1.30152
-1.41072
-1.49797
-1.56789
-1.61903
-1.65436
-1.65437
-1.61903
-1.5679
-1.49799
-1.41074
-1.30154
-1.17887
-1.06986
-0.974518
-0.886636
-0.81136
-0.745431
-0.681158
-0.628451
-0.591116
-0.569762
-0.569528
-0.587926
-0.617531
-0.648487
-0.682941
-0.718867
-0.759977
-0.80858
-0.851918
-0.893427
-0.944039
-1.00004
-1.05541
-1.1179
-1.19317
-1.25272
-1.30273
-1.35335
-1.36161
-1.31313
-1.19824
-1.01593
-0.783492
-0.531731
-0.294501
-0.0993178
)
;
    }
    left
    {
        type            calculated;
        value           nonuniform List<scalar> 
19
(
-0.0907867
-0.168639
-0.234809
-0.299116
-0.361218
-0.42865
-0.49825
-0.57938
-0.675688
-0.791117
-0.950644
-1.15539
-1.44256
-1.85843
-2.51107
-3.5457
-5.41556
-8.90535
-17.4706
)
;
    }
    right
    {
        type            calculated;
        value           nonuniform List<scalar> 
19
(
-0.0907873
-0.16864
-0.234809
-0.299116
-0.361218
-0.42865
-0.49825
-0.57938
-0.675688
-0.791117
-0.950643
-1.15539
-1.44256
-1.85843
-2.51107
-3.5457
-5.41556
-8.90536
-17.4706
)
;
    }
    frontAndBackPlanes
    {
        type            empty;
    }
}


// ************************************************************************* //
