/*--------------------------------*- C++ -*----------------------------------*\
  =========                 |
  \\      /  F ield         | OpenFOAM: The Open Source CFD Toolbox
   \\    /   O peration     | Website:  https://openfoam.org
    \\  /    A nd           | Version:  7
     \\/     M anipulation  |
\*---------------------------------------------------------------------------*/
FoamFile
{
    version     2.0;
    format      ascii;
    class       volScalarField;
    location    "0.23";
    object      gradTx;
}
// * * * * * * * * * * * * * * * * * * * * * * * * * * * * * * * * * * * * * //

dimensions      [0 -1 0 1 0 0 0];

internalField   nonuniform List<scalar> 
1596
(
-0.044495
-0.223294
-0.399916
-0.559252
-0.700274
-0.822598
-0.931872
-1.03174
-1.1272
-1.22784
-1.33641
-1.46447
-1.6256
-1.83944
-2.12917
-2.55304
-3.20088
-4.26681
-6.1522
0.00978604
-0.185849
-0.359725
-0.510038
-0.640342
-0.751404
-0.848337
-0.932963
-1.00904
-1.08159
-1.15127
-1.22434
-1.30319
-1.39125
-1.48631
-1.5841
-1.65937
-1.6606
-1.47838
0.0542971
-0.151804
-0.320077
-0.459762
-0.577933
-0.676838
-0.760897
-0.831311
-0.890599
-0.941482
-0.98367
-1.02051
-1.05131
-1.07563
-1.08926
-1.08476
-1.04199
-0.925581
-0.666095
0.0614741
-0.133635
-0.287479
-0.412713
-0.516984
-0.603176
-0.674753
-0.732666
-0.778514
-0.813696
-0.837786
-0.852429
-0.856387
-0.848364
-0.824999
-0.780352
-0.701539
-0.567417
-0.336675
0.0184684
-0.139438
-0.267763
-0.373685
-0.462029
-0.534984
-0.594678
-0.641793
-0.677203
-0.70144
-0.714267
-0.716266
-0.706389
-0.683371
-0.645056
-0.587309
-0.502619
-0.378974
-0.192695
-0.0710697
-0.172276
-0.265342
-0.347132
-0.417378
-0.476349
-0.524491
-0.562
-0.589085
-0.60563
-0.611589
-0.60683
-0.590585
-0.561773
-0.519148
-0.459863
-0.379769
-0.27216
-0.123692
-0.190229
-0.229505
-0.282032
-0.336091
-0.38625
-0.430253
-0.46673
-0.495138
-0.515024
-0.525726
-0.527253
-0.518973
-0.500301
-0.470281
-0.428217
-0.372062
-0.299615
-0.207131
-0.087135
-0.315123
-0.300428
-0.313467
-0.33899
-0.368232
-0.396677
-0.421346
-0.440825
-0.454018
-0.459793
-0.458063
-0.447845
-0.428613
-0.399472
-0.359997
-0.308617
-0.244198
-0.164627
-0.0657302
-0.444459
-0.391458
-0.369338
-0.366106
-0.372796
-0.38375
-0.394928
-0.404105
-0.409602
-0.409862
-0.404561
-0.39245
-0.372937
-0.345098
-0.308568
-0.262024
-0.204832
-0.135728
-0.0523047
-0.522213
-0.455069
-0.41213
-0.388245
-0.377058
-0.37334
-0.372886
-0.373027
-0.371731
-0.367179
-0.358805
-0.345229
-0.325774
-0.299504
-0.266051
-0.224268
-0.17377
-0.113768
-0.0428444
-0.585663
-0.512492
-0.456999
-0.417799
-0.391515
-0.37428
-0.362461
-0.353382
-0.344904
-0.335095
-0.323177
-0.307703
-0.287894
-0.262779
-0.23192
-0.194254
-0.149464
-0.096992
-0.0359572
-0.650381
-0.576594
-0.51325
-0.462005
-0.42215
-0.391576
-0.367721
-0.348328
-0.331421
-0.315106
-0.29847
-0.280034
-0.258906
-0.234051
-0.204918
-0.170453
-0.130293
-0.0839399
-0.0307529
-0.668222
-0.604257
-0.542373
-0.48729
-0.440598
-0.4019
-0.369853
-0.342891
-0.319448
-0.297871
-0.277273
-0.256264
-0.233926
-0.209226
-0.181551
-0.149878
-0.113795
-0.0728271
-0.0264429
-0.672813
-0.619587
-0.562804
-0.507818
-0.457696
-0.413522
-0.375139
-0.341812
-0.31253
-0.28601
-0.26151
-0.23779
-0.213961
-0.18902
-0.162307
-0.132821
-0.100088
-0.0636174
-0.0229184
-0.671887
-0.6284
-0.577923
-0.525271
-0.474055
-0.426399
-0.383177
-0.344499
-0.309985
-0.278809
-0.250465
-0.223917
-0.198348
-0.172804
-0.146599
-0.118748
-0.0887121
-0.0559634
-0.0200029
-0.655741
-0.622735
-0.579944
-0.531919
-0.48233
-0.433874
-0.388165
-0.346051
-0.307777
-0.273002
-0.241533
-0.212585
-0.185466
-0.159308
-0.133433
-0.106891
-0.0790962
-0.049489
-0.0175454
-0.623722
-0.600702
-0.566371
-0.524688
-0.479071
-0.432397
-0.386707
-0.343392
-0.303228
-0.266341
-0.232872
-0.202322
-0.174164
-0.14765
-0.122149
-0.0967629
-0.0708954
-0.0439753
-0.0154622
-0.585947
-0.569323
-0.542446
-0.507401
-0.466856
-0.423513
-0.379562
-0.336733
-0.296202
-0.258496
-0.22407
-0.192706
-0.164056
-0.13751
-0.112495
-0.0881798
-0.0639761
-0.0393294
-0.0137096
-0.554252
-0.542777
-0.521606
-0.491923
-0.45569
-0.415318
-0.373042
-0.330817
-0.290142
-0.251878
-0.216753
-0.184796
-0.155816
-0.129312
-0.10475
-0.0813292
-0.0584593
-0.0356085
-0.0122896
-0.498669
-0.494013
-0.479498
-0.456502
-0.426517
-0.391531
-0.353587
-0.314641
-0.276341
-0.239769
-0.205861
-0.174873
-0.146776
-0.121205
-0.0976841
-0.0754533
-0.0539165
-0.0325892
-0.0111191
-0.436971
-0.437693
-0.429183
-0.412536
-0.388894
-0.359847
-0.327165
-0.29268
-0.258054
-0.224475
-0.192997
-0.164041
-0.137715
-0.113775
-0.0918081
-0.0710619
-0.0508647
-0.0306846
-0.0103365
-0.37248
-0.376659
-0.373117
-0.362248
-0.344764
-0.321856
-0.294995
-0.26581
-0.235883
-0.206405
-0.178452
-0.152535
-0.12885
-0.107269
-0.0874524
-0.0686594
-0.0500485
-0.0307617
-0.0103971
-0.300834
-0.306702
-0.307183
-0.301811
-0.290724
-0.274628
-0.254624
-0.23204
-0.208278
-0.184429
-0.161471
-0.13993
-0.120022
-0.101733
-0.084859
-0.0687814
-0.0525386
-0.0346996
-0.0134364
-0.219865
-0.216668
-0.209406
-0.198202
-0.18385
-0.167447
-0.150261
-0.133403
-0.117803
-0.103958
-0.0919787
-0.0816581
-0.0725618
-0.0642502
-0.0563317
-0.0483388
-0.0395422
-0.0285341
-0.0127698
-0.146966
-0.163284
-0.180907
-0.196837
-0.208988
-0.216029
-0.217614
-0.214042
-0.206235
-0.195289
-0.182161
-0.16777
-0.15266
-0.137482
-0.12281
-0.109085
-0.0961332
-0.0830528
-0.067433
-0.0496838
-0.0572362
-0.0670779
-0.0775067
-0.0872579
-0.0954343
-0.10171
-0.106033
-0.108732
-0.110168
-0.110364
-0.109403
-0.106891
-0.102764
-0.0972168
-0.0910443
-0.0848228
-0.079226
-0.0742974
0.0477768
0.0383213
0.024864
0.00900675
-0.00774694
-0.0241736
-0.0395258
-0.0534146
-0.0658511
-0.0769763
-0.0866153
-0.0945601
-0.100061
-0.102603
-0.102056
-0.0992692
-0.0951822
-0.0909747
-0.0871018
0.14502
0.132092
0.11375
0.0918094
0.0679764
0.0437019
0.0200008
-0.00255568
-0.0238199
-0.0438582
-0.0624707
-0.0792839
-0.0932406
-0.103245
-0.108523
-0.109621
-0.107681
-0.104444
-0.100876
0.232898
0.214533
0.190191
0.162017
0.131794
0.101028
0.0707679
0.0415604
0.0135109
-0.0135542
-0.0395952
-0.0643009
-0.0864827
-0.104472
-0.11654
-0.122404
-0.122971
-0.120527
-0.116827
0.323985
0.298954
0.267877
0.232999
0.196173
0.158963
0.122417
0.0870192
0.0527867
0.0193731
-0.0134523
-0.0456892
-0.0763507
-0.10348
-0.124302
-0.13712
-0.141728
-0.140542
-0.13641
0.39275
0.360069
0.322339
0.281761
0.240158
0.198929
0.158892
0.12028
0.0828957
0.0461355
0.00942441
-0.0277521
-0.065016
-0.100733
-0.131492
-0.153907
-0.165352
-0.166915
-0.162016
0.457199
0.417968
0.373787
0.327703
0.281647
0.236845
0.193879
0.152761
0.113135
0.0742207
0.035184
-0.00503291
-0.0469696
-0.0901271
-0.131618
-0.167247
-0.191203
-0.200762
-0.197653
0.516972
0.469213
0.418128
0.366818
0.316979
0.269486
0.224612
0.182134
0.141588
0.102125
0.0628469
0.0224036
-0.0205556
-0.0671276
-0.116395
-0.165875
-0.208395
-0.236157
-0.241375
0.555957
0.495287
0.433742
0.374038
0.317386
0.264213
0.214459
0.167716
0.12345
0.0808488
0.0390611
-0.00322002
-0.0476393
-0.0964407
-0.15126
-0.213703
-0.280876
-0.346602
-0.39912
0.580468
0.514181
0.451777
0.394915
0.343617
0.297405
0.255543
0.217274
0.181911
0.14879
0.117417
0.0871999
0.0574565
0.0270993
-0.00545125
-0.0434341
-0.0901178
-0.14928
-0.222526
0.598935
0.530444
0.470116
0.417215
0.370455
0.328723
0.290968
0.256374
0.224319
0.194279
0.165987
0.139259
0.113982
0.0901778
0.0680241
0.0474078
0.028031
0.00863679
-0.0132315
0.567807
0.489626
0.423598
0.367084
0.318026
0.274946
0.236605
0.202074
0.170653
0.141737
0.114995
0.0901904
0.0671558
0.0458953
0.0266452
0.00967038
-0.00455105
-0.0154732
-0.0228377
0.499223
0.427928
0.36871
0.318708
0.275826
0.238545
0.205656
0.176254
0.149683
0.125402
0.103111
0.0826039
0.0637116
0.0463763
0.0306539
0.0165449
0.00409128
-0.00663871
-0.0157091
0.415369
0.35541
0.305533
0.263573
0.227794
0.19687
0.16975
0.145636
0.123957
0.104244
0.086222
0.0696954
0.0544808
0.0404753
0.0276607
0.015977
0.00541268
-0.00397987
-0.0122394
0.313124
0.266827
0.228716
0.196962
0.170107
0.147048
0.126934
0.109125
0.0931696
0.078699
0.0654915
0.0533857
0.0422247
0.0319138
0.0224268
0.0137143
0.00577386
-0.00133442
-0.00762044
0.197372
0.166488
0.141845
0.121707
0.104882
0.090546
0.0781059
0.0671297
0.0573206
0.048437
0.0403317
0.0328969
0.0260258
0.0196515
0.0137518
0.00829362
0.00327696
-0.00125005
-0.00527989
0.0758245
0.0633835
0.0538067
0.0460853
0.0396559
0.0341743
0.0294112
0.0252054
0.0214472
0.0180473
0.0149487
0.0121079
0.00948079
0.00703695
0.00476086
0.00263355
0.00064792
-0.00118358
-0.00285909
-0.0757881
-0.0633029
-0.0536966
-0.0459561
-0.0395152
-0.0340279
-0.0292637
-0.0250606
-0.0213083
-0.017917
-0.0148293
-0.0120013
-0.00938886
-0.00696115
-0.00470233
-0.00259324
-0.000626409
0.00118623
0.00284319
-0.197338
-0.166417
-0.141749
-0.121594
-0.10476
-0.0904204
-0.0779806
-0.0670083
-0.057206
-0.0483317
-0.040238
-0.0328165
-0.0259603
-0.0196023
-0.0137199
-0.00827975
-0.00328157
0.00122716
0.00523935
-0.313091
-0.266759
-0.228623
-0.196851
-0.169985
-0.14692
-0.126803
-0.108995
-0.093045
-0.0785816
-0.0653835
-0.0532886
-0.04214
-0.0318423
-0.0223689
-0.01367
-0.00574279
0.00135319
0.00762808
-0.415344
-0.355364
-0.30547
-0.263498
-0.227711
-0.196784
-0.169664
-0.145553
-0.12388
-0.104174
-0.0861625
-0.0696471
-0.0544448
-0.0404522
-0.0276505
-0.0159792
-0.00542659
0.00395551
0.0122059
-0.499208
-0.427899
-0.368668
-0.318656
-0.275767
-0.238483
-0.205593
-0.176193
-0.149627
-0.125353
-0.103071
-0.0825738
-0.0636931
-0.0463699
-0.0306592
-0.0165606
-0.0041152
0.00660967
0.0156788
-0.567808
-0.48962
-0.423583
-0.36706
-0.317996
-0.274913
-0.236572
-0.202045
-0.17063
-0.141723
-0.114992
-0.0902019
-0.0671832
-0.0459401
-0.0267073
-0.00974722
0.0044667
0.0153937
0.0227773
-0.598936
-0.530397
-0.470004
-0.417032
-0.370202
-0.328404
-0.290589
-0.255943
-0.223843
-0.193766
-0.165442
-0.138687
-0.113386
-0.0895601
-0.0673895
-0.0467726
-0.0274342
-0.00816142
0.0134487
-0.580574
-0.514461
-0.45224
-0.395555
-0.344425
-0.298368
-0.256648
-0.218507
-0.183259
-0.150245
-0.118976
-0.088867
-0.0592485
-0.0290511
0.00328499
0.0409734
0.087286
0.146047
0.218976
-0.555915
-0.495171
-0.43354
-0.373749
-0.317013
-0.263764
-0.213943
-0.167144
-0.122834
-0.0802001
-0.038391
0.00389961
0.048316
0.0971049
0.151916
0.214387
0.281685
0.347701
0.400728
-0.517009
-0.469299
-0.418257
-0.366981
-0.317168
-0.269695
-0.224835
-0.182368
-0.14183
-0.102375
-0.063106
-0.0226736
0.0202754
0.0668474
0.116142
0.165702
0.208364
0.236306
0.241651
-0.457222
-0.418023
-0.373869
-0.327805
-0.281766
-0.236975
-0.194019
-0.152908
-0.113287
-0.0743776
-0.0353454
0.00486985
0.0468134
0.0899966
0.131543
0.167261
0.191324
0.200971
0.197907
-0.392773
-0.360123
-0.322422
-0.281866
-0.24028
-0.199064
-0.159035
-0.120428
-0.0830452
-0.0462841
-0.00956863
0.0276188
0.0649056
0.100664
0.131483
0.153971
0.165481
0.167084
0.162196
-0.324007
-0.299008
-0.26796
-0.233106
-0.1963
-0.159102
-0.122564
-0.0871684
-0.0529337
-0.0195135
0.013324
0.0455811
0.076274
0.103448
0.124322
0.137192
0.141839
0.140673
0.136549
-0.232917
-0.214583
-0.19027
-0.16212
-0.131915
-0.101161
-0.0709064
-0.0416986
-0.0136433
0.0134329
0.0394912
0.0642215
0.0864365
0.104466
0.116575
0.122475
0.123066
0.120635
0.116942
-0.145041
-0.132145
-0.113832
-0.0919164
-0.0681019
-0.0438384
-0.0201409
0.00241911
0.0236932
0.0437473
0.0623814
0.0792222
0.0932117
0.103251
0.108562
0.109686
0.107764
0.104538
0.100977
-0.0477949
-0.0383709
-0.0249433
-0.00911082
0.00762532
0.0240426
0.0393938
0.0532892
0.065739
0.0768832
0.0865459
0.0945185
0.100049
0.102621
0.102099
0.0993325
0.0952594
0.0910625
0.0871996
0.0496414
0.0571084
0.0668608
0.0772064
0.0868896
0.0950188
0.101271
0.105593
0.108312
0.109785
0.110028
0.109122
0.106667
0.102594
0.0970943
0.0909629
0.0847782
0.0792234
0.074357
0.146996
0.163397
0.181123
0.197164
0.209419
0.21655
0.218202
0.21467
0.206878
0.195923
0.182769
0.16834
0.153185
0.13796
0.123244
0.10948
0.0964975
0.083391
0.0677454
0.219833
0.216555
0.209209
0.19793
0.18352
0.167078
0.149875
0.13302
0.117439
0.103625
0.091684
0.081405
0.0723503
0.0640779
0.0561948
0.0482331
0.0394644
0.0284825
0.0127478
0.300852
0.306738
0.307238
0.301881
0.290805
0.274713
0.254707
0.232115
0.208342
0.184482
0.16151
0.139958
0.120041
0.101744
0.0848643
0.0687827
0.0525371
0.034697
0.0134351
0.372483
0.376664
0.373123
0.362255
0.344771
0.321863
0.295001
0.265815
0.235885
0.206405
0.17845
0.152532
0.128846
0.107265
0.0874478
0.0686551
0.0500448
0.0307593
0.0103966
0.436974
0.437697
0.429188
0.412542
0.3889
0.359851
0.327169
0.292682
0.258054
0.224474
0.192994
0.164038
0.137711
0.113771
0.0918044
0.0710588
0.0508624
0.0306833
0.0103362
0.498671
0.494016
0.479502
0.456506
0.426521
0.391534
0.353589
0.314641
0.276341
0.239767
0.205858
0.17487
0.146773
0.121201
0.0976812
0.075451
0.0539149
0.0325883
0.0111189
0.554255
0.542781
0.52161
0.491927
0.455694
0.415321
0.373044
0.330817
0.290141
0.251876
0.21675
0.184794
0.155813
0.12931
0.104747
0.0813274
0.058458
0.0356078
0.0122894
0.585949
0.569326
0.542449
0.507404
0.466859
0.423515
0.379563
0.336732
0.296201
0.258494
0.224068
0.192703
0.164053
0.137508
0.112493
0.0881782
0.063975
0.0393287
0.0137094
0.623723
0.600704
0.566373
0.52469
0.479072
0.432398
0.386706
0.343391
0.303226
0.266339
0.23287
0.20232
0.174161
0.147648
0.122147
0.0967613
0.0708942
0.0439746
0.015462
0.655743
0.622738
0.579947
0.531921
0.482332
0.433875
0.388165
0.346051
0.307776
0.273
0.24153
0.212583
0.185463
0.159306
0.133431
0.106889
0.079095
0.0494883
0.0175452
0.671887
0.628401
0.577925
0.525272
0.474055
0.426399
0.383176
0.344497
0.309983
0.278807
0.250462
0.223915
0.198346
0.172802
0.146597
0.118746
0.0887108
0.0559627
0.0200028
0.672814
0.619589
0.562806
0.507819
0.457697
0.413521
0.375138
0.341811
0.312528
0.286008
0.261507
0.237787
0.213959
0.189018
0.162305
0.132819
0.100087
0.0636169
0.0229184
0.668224
0.604259
0.542375
0.487291
0.440599
0.4019
0.369853
0.34289
0.319446
0.297869
0.277272
0.256262
0.233924
0.209224
0.181549
0.149876
0.113794
0.0728269
0.026443
0.650379
0.576593
0.513249
0.462004
0.422148
0.391573
0.367718
0.348325
0.331418
0.315104
0.298467
0.280031
0.258904
0.234049
0.204917
0.170452
0.130292
0.0839399
0.0307531
0.585666
0.512495
0.457001
0.4178
0.391515
0.37428
0.362459
0.353381
0.344903
0.335093
0.323175
0.307702
0.287893
0.262778
0.231919
0.194254
0.149464
0.0969925
0.0359576
0.522219
0.455073
0.412132
0.388246
0.377058
0.373339
0.372885
0.373026
0.37173
0.367178
0.358803
0.345228
0.325773
0.299503
0.266052
0.224269
0.17377
0.113769
0.0428448
0.444463
0.391461
0.369339
0.366106
0.372796
0.383749
0.394928
0.404104
0.409601
0.409861
0.40456
0.39245
0.372937
0.345098
0.308569
0.262025
0.204834
0.135729
0.052305
0.315127
0.30043
0.313468
0.33899
0.368232
0.396676
0.421345
0.440824
0.454018
0.459792
0.458063
0.447845
0.428614
0.399473
0.359998
0.308619
0.2442
0.164628
0.0657304
0.190232
0.229507
0.282034
0.336092
0.386251
0.430253
0.46673
0.495138
0.515024
0.525726
0.527253
0.518974
0.500302
0.470283
0.428219
0.372064
0.299616
0.207132
0.0871349
0.0710717
0.172278
0.265343
0.347133
0.417379
0.476349
0.524491
0.562
0.589085
0.605631
0.611589
0.60683
0.590587
0.561775
0.51915
0.459865
0.379771
0.272161
0.123692
-0.0184673
0.139439
0.267765
0.373686
0.46203
0.534985
0.594678
0.641793
0.677203
0.701441
0.714268
0.716268
0.70639
0.683372
0.645057
0.58731
0.502619
0.378974
0.192695
-0.0614739
0.133636
0.28748
0.412714
0.516985
0.603177
0.674753
0.732666
0.778514
0.813696
0.837787
0.85243
0.856388
0.848365
0.824999
0.780352
0.701538
0.567416
0.336675
-0.0542975
0.151805
0.320077
0.459762
0.577932
0.676838
0.760897
0.831312
0.890599
0.941483
0.983671
1.02051
1.05131
1.07563
1.08926
1.08476
1.04199
0.925579
0.666094
-0.0097861
0.185849
0.359725
0.510038
0.640342
0.751404
0.848337
0.932964
1.00904
1.08159
1.15127
1.22435
1.30319
1.39125
1.48631
1.58409
1.65937
1.66059
1.47838
0.0444953
0.223294
0.399916
0.559252
0.700274
0.822598
0.931872
1.03174
1.1272
1.22784
1.33641
1.46447
1.62559
1.83944
2.12917
2.55303
3.20088
4.26681
6.1522
)
;

boundaryField
{
    up
    {
        type            calculated;
        value           nonuniform List<scalar> 
84
(
-6.1522
-1.47838
-0.666095
-0.336675
-0.192695
-0.123692
-0.087135
-0.0657302
-0.0523047
-0.0428444
-0.0359572
-0.0307529
-0.0264429
-0.0229184
-0.0200029
-0.0175454
-0.0154622
-0.0137096
-0.0122896
-0.0111191
-0.0103365
-0.0103971
-0.0134364
-0.0127698
-0.0576555
-0.069453
-0.0822465
-0.0955371
-0.110695
-0.129099
-0.152646
-0.183344
-0.219161
-0.394951
-0.230137
-0.0136663
-0.0228017
-0.0156761
-0.0122204
-0.007614
-0.00527798
-0.00285978
0.00284387
0.0052375
0.00762172
0.0121871
0.015646
0.0227414
0.0138776
0.226488
0.396856
0.219408
0.183565
0.152814
0.129232
0.110807
0.0956373
0.082345
0.0695414
0.0579392
0.0127478
0.0134351
0.0103966
0.0103362
0.0111189
0.0122894
0.0137094
0.015462
0.0175452
0.0200028
0.0229184
0.026443
0.0307531
0.0359576
0.0428448
0.052305
0.0657304
0.0871349
0.123692
0.192695
0.336675
0.666094
1.47838
6.1522
)
;
    }
    low
    {
        type            calculated;
        value           nonuniform List<scalar> 
84
(
-0.0401086
0.0164043
0.0650157
0.0731615
0.0258389
-0.0724375
-0.201522
-0.334142
-0.466487
-0.540293
-0.601447
-0.662905
-0.673227
-0.673139
-0.66923
-0.648825
-0.613207
-0.574504
-0.540613
-0.481026
-0.41747
-0.352738
-0.281692
-0.203178
-0.134001
-0.0450175
0.0424627
0.131777
0.21583
0.306782
0.378481
0.445433
0.508926
0.552835
0.581313
0.604507
0.578424
0.510804
0.425822
0.321518
0.202965
0.0781723
-0.0781357
-0.20293
-0.321482
-0.425793
-0.510783
-0.578418
-0.6045
-0.581402
-0.552794
-0.508955
-0.445453
-0.378504
-0.306804
-0.21585
-0.131799
-0.0424812
0.0449763
0.13403
0.203148
0.281708
0.352742
0.417473
0.481027
0.540616
0.574507
0.613208
0.648827
0.66923
0.673139
0.673228
0.662903
0.60145
0.540298
0.466492
0.334146
0.201526
0.0724397
-0.0258378
-0.0731617
-0.0650167
-0.0164049
0.0401088
)
;
    }
    left
    {
        type            calculated;
        value           nonuniform List<scalar> 
19
(
-0.0394815
-0.214335
-0.39452
-0.559336
-0.706402
-0.834417
-0.94947
-1.05582
-1.15844
-1.26938
-1.39129
-1.53719
-1.72483
-1.98057
-2.33357
-2.86577
-3.70189
-5.11306
-5.33601
)
;
    }
    right
    {
        type            calculated;
        value           nonuniform List<scalar> 
19
(
0.0394819
0.214336
0.39452
0.559337
0.706402
0.834418
0.949471
1.05582
1.15844
1.26938
1.39129
1.53719
1.72483
1.98057
2.33356
2.86577
3.70189
5.11306
5.33601
)
;
    }
    frontAndBackPlanes
    {
        type            empty;
    }
}


// ************************************************************************* //
