/*--------------------------------*- C++ -*----------------------------------*\
  =========                 |
  \\      /  F ield         | OpenFOAM: The Open Source CFD Toolbox
   \\    /   O peration     | Website:  https://openfoam.org
    \\  /    A nd           | Version:  7
     \\/     M anipulation  |
\*---------------------------------------------------------------------------*/
FoamFile
{
    version     2.0;
    format      ascii;
    class       volScalarField;
    location    "0.14";
    object      gradTx;
}
// * * * * * * * * * * * * * * * * * * * * * * * * * * * * * * * * * * * * * //

dimensions      [0 -1 0 1 0 0 0];

internalField   nonuniform List<scalar> 
1596
(
-0.311643
-1.56192
-2.78165
-3.85185
-4.75442
-5.47977
-6.06313
-6.52839
-6.91065
-7.27358
-7.63972
-8.08537
-8.69539
-9.58439
-10.8809
-12.8863
-16.052
-21.3442
-30.7598
0.0736847
-1.28567
-2.48382
-3.49702
-4.34115
-5.01648
-5.55565
-5.97164
-6.29202
-6.55259
-6.7636
-6.96964
-7.19297
-7.46321
-7.78047
-8.13474
-8.40724
-8.34431
-7.39718
0.392395
-1.01891
-2.16687
-3.10491
-3.87442
-4.48708
-4.97147
-5.33679
-5.60238
-5.78919
-5.90063
-5.96235
-5.97702
-5.95072
-5.87093
-5.71053
-5.37764
-4.70383
-3.34612
0.452124
-0.852384
-1.88173
-2.71161
-3.38766
-3.92642
-4.35024
-4.66648
-4.88788
-5.02602
-5.08196
-5.0692
-4.98453
-4.82609
-4.58258
-4.23175
-3.71727
-2.943
-1.71008
0.16868
-0.847649
-1.67863
-2.36201
-2.92453
-3.37827
-3.73662
-4.00469
-4.18976
-4.29683
-4.32656
-4.28422
-4.16516
-3.96457
-3.67428
-3.27789
-2.74391
-2.02098
-0.999379
-0.424691
-1.03045
-1.59863
-2.10047
-2.52998
-2.88682
-3.1734
-3.39117
-3.54244
-3.62718
-3.64593
-3.59815
-3.47886
-3.28168
-3.00046
-2.62205
-2.1292
-1.49485
-0.660136
-1.20652
-1.38456
-1.66161
-1.95889
-2.2395
-2.48768
-2.69455
-2.85654
-2.9713
-3.03473
-3.04674
-3.00274
-2.89737
-2.72313
-2.47452
-2.13961
-1.70822
-1.16521
-0.47902
-2.0159
-1.83759
-1.84102
-1.93296
-2.05951
-2.19243
-2.31367
-2.4143
-2.48778
-2.52679
-2.52997
-2.49004
-2.40112
-2.25481
-2.0455
-1.76146
-1.39539
-0.937381
-0.369693
-2.84663
-2.4282
-2.19668
-2.08734
-2.05048
-2.0538
-2.07454
-2.09946
-2.11869
-2.12227
-2.10692
-2.06354
-1.98529
-1.86296
-1.69014
-1.45487
-1.15031
-0.768078
-0.296455
-3.34226
-2.84616
-2.48201
-2.2324
-2.0684
-1.96369
-1.89675
-1.85289
-1.82068
-1.78891
-1.75268
-1.70212
-1.62975
-1.52608
-1.38415
-1.19215
-0.943094
-0.628993
-0.240675
-3.75089
-3.22946
-2.78985
-2.43902
-2.16939
-1.96616
-1.81379
-1.69919
-1.61123
-1.53856
-1.47505
-1.41055
-1.33698
-1.24468
-1.12616
-0.969823
-0.768185
-0.513046
-0.196013
-4.17615
-3.6611
-3.17683
-2.74798
-2.38474
-2.08577
-1.84445
-1.65219
-1.50002
-1.3775
-1.27777
-1.19057
-1.10715
-1.01758
-0.913734
-0.784202
-0.620926
-0.4153
-0.158869
-4.31166
-3.86758
-3.39914
-2.94798
-2.53828
-2.18077
-1.87804
-1.62758
-1.42418
-1.25966
-1.12767
-1.01856
-0.923537
-0.832821
-0.738096
-0.628484
-0.495788
-0.331416
-0.12698
-4.37109
-4.0011
-3.5703
-3.122
-2.68875
-2.29124
-1.94064
-1.64118
-1.3922
-1.18857
-1.0252
-0.893392
-0.784528
-0.689063
-0.598567
-0.502696
-0.393251
-0.261834
-0.100286
-4.40249
-4.098
-3.71068
-3.27863
-2.83674
-2.41268
-2.02485
-1.6841
-1.39473
-1.15505
-0.961787
-0.807378
-0.683539
-0.580938
-0.491052
-0.403954
-0.311506
-0.205595
-0.0784047
-4.33999
-4.10595
-3.77064
-3.36937
-2.93662
-2.50384
-2.09475
-1.72597
-1.4066
-1.13856
-0.920834
-0.747234
-0.610059
-0.500299
-0.409442
-0.327939
-0.247793
-0.161241
-0.0609155
-4.17394
-4.00858
-3.73128
-3.37271
-2.96508
-2.54116
-2.12787
-1.74626
-1.40962
-1.12338
-0.888914
-0.701635
-0.554661
-0.43946
-0.34768
-0.27015
-0.199084
-0.127104
-0.0473363
-3.96628
-3.84661
-3.62159
-3.30858
-2.93427
-2.53027
-2.12493
-1.7423
-1.399
-1.1035
-0.859494
-0.663991
-0.511035
-0.39266
-0.300758
-0.226521
-0.162398
-0.101383
-0.0370701
-3.7943
-3.71084
-3.52513
-3.24803
-2.90124
-2.51459
-2.11716
-1.73508
-1.38767
-1.08586
-0.835218
-0.634076
-0.477178
-0.356948
-0.265414
-0.193973
-0.135214
-0.0823982
-0.0294976
-3.45237
-3.41991
-3.2839
-3.05554
-2.75273
-2.40226
-2.03218
-1.6692
-1.33426
-1.04018
-0.794228
-0.59617
-0.441711
-0.323978
-0.235434
-0.167891
-0.114231
-0.0680749
-0.0238571
-3.056
-3.06435
-2.97442
-2.79431
-2.53864
-2.2308
-1.89691
-1.56301
-1.25052
-0.973396
-0.740046
-0.551469
-0.404318
-0.292537
-0.209184
-0.146607
-0.0980435
-0.0574504
-0.0197398
-2.62759
-2.66178
-2.61024
-2.47523
-2.26736
-2.00622
-1.71525
-1.4187
-1.13743
-0.885634
-0.672241
-0.499176
-0.363958
-0.26144
-0.185462
-0.129094
-0.0860007
-0.0503354
-0.0171537
-2.13674
-2.18281
-2.16292
-2.0725
-1.91687
-1.71063
-1.47325
-1.22586
-0.987545
-0.771802
-0.587457
-0.437155
-0.319274
-0.229792
-0.163676
-0.115099
-0.0784476
-0.0480349
-0.0180054
-1.56851
-1.54909
-1.48372
-1.37459
-1.23086
-1.06556
-0.892746
-0.724928
-0.572111
-0.44014
-0.331599
-0.245941
-0.180423
-0.131603
-0.096021
-0.0702369
-0.0509006
-0.0341526
-0.0149136
-1.0486
-1.15658
-1.25023
-1.30398
-1.30421
-1.24863
-1.14542
-1.00885
-0.856316
-0.703382
-0.561792
-0.438958
-0.337034
-0.25591
-0.193785
-0.148082
-0.115326
-0.0916157
-0.0714837
-0.351332
-0.393783
-0.444193
-0.489079
-0.518644
-0.527034
-0.513386
-0.48022
-0.433497
-0.379812
-0.324678
-0.272934
-0.226145
-0.185349
-0.150868
-0.123411
-0.10271
-0.0885999
-0.0797195
0.34831
0.300435
0.225455
0.13531
0.0425452
-0.0418369
-0.110302
-0.159074
-0.188717
-0.202392
-0.203802
-0.197386
-0.185184
-0.169057
-0.150492
-0.132148
-0.115883
-0.103662
-0.0955647
1.04155
0.976795
0.869838
0.733353
0.581784
0.429406
0.288158
0.166082
0.0665867
-0.0107162
-0.0678882
-0.108576
-0.134653
-0.147797
-0.14945
-0.143235
-0.132804
-0.122583
-0.11454
1.65871
1.56284
1.41788
1.23805
1.03822
0.833543
0.637472
0.459703
0.30559
0.176315
0.0709662
-0.0133276
-0.077855
-0.123217
-0.149255
-0.158838
-0.156167
-0.148183
-0.139521
2.28391
2.14591
1.95601
1.72893
1.48018
1.22565
0.979466
0.751883
0.549079
0.372858
0.222762
0.0960332
-0.00855635
-0.0906948
-0.147738
-0.179882
-0.189474
-0.185055
-0.174907
2.73664
2.5519
2.32156
2.05949
1.78056
1.49907
1.22735
0.974076
0.744613
0.540355
0.360771
0.202784
0.0646629
-0.0531489
-0.145553
-0.208434
-0.238251
-0.241337
-0.228514
3.14251
2.91889
2.64956
2.35395
2.04758
1.74325
1.45136
1.17874
0.929665
0.704773
0.503168
0.320946
0.154823
0.0033011
-0.128557
-0.233779
-0.299931
-0.324245
-0.314431
3.49897
3.22408
2.91379
2.58781
2.26005
1.94058
1.63717
1.35441
1.0952
0.859348
0.645706
0.449852
0.266829
0.091679
-0.0743018
-0.227297
-0.349261
-0.423442
-0.433553
3.70196
3.35107
2.98165
2.6114
2.25141
1.90874
1.58853
1.29328
1.02446
0.781034
0.561123
0.36001
0.17152
-0.0126737
-0.197922
-0.390204
-0.580445
-0.752548
-0.875379
3.79932
3.42131
3.0528
2.70437
2.37878
2.07621
1.79623
1.53782
1.30037
1.08269
0.883827
0.701859
0.533851
0.375301
0.220716
0.0594298
-0.1171
-0.317939
-0.544219
3.85114
3.46558
3.11244
2.78837
2.48865
2.20991
1.94987
1.70711
1.48119
1.27157
1.07815
0.900754
0.738292
0.589813
0.454593
0.330516
0.215237
0.104206
-0.0102482
3.59169
3.15367
2.77187
2.4333
2.12946
1.85501
1.60617
1.38011
1.17493
0.988562
0.819522
0.666476
0.527465
0.401106
0.286813
0.184062
0.0932499
0.015694
-0.0482717
3.11218
2.7222
2.38637
2.09175
1.82994
1.59535
1.38391
1.19255
1.01919
0.861749
0.718836
0.589267
0.471395
0.364037
0.266545
0.178121
0.0983797
0.0276056
-0.0345277
2.5568
2.23559
1.95695
1.71272
1.49662
1.30393
1.13106
0.975177
0.834331
0.706611
0.590741
0.485634
0.389855
0.302343
0.222499
0.14958
0.0832356
0.0237414
-0.0291105
1.90812
1.66355
1.45306
1.27003
1.10919
0.966525
0.83902
0.724328
0.620838
0.527006
0.441831
0.364458
0.293796
0.229048
0.169792
0.115501
0.0659768
0.0215117
-0.0179848
1.19423
1.03149
0.896108
0.780763
0.680622
0.592467
0.514046
0.443711
0.380351
0.322936
0.270806
0.223396
0.180009
0.140135
0.103511
0.0698129
0.0389351
0.0111045
-0.0136823
0.456352
0.389578
0.336248
0.291541
0.252965
0.219113
0.189093
0.162282
0.138263
0.116639
0.0971415
0.0795243
0.063492
0.0488114
0.035335
0.0228968
0.0114137
0.000931812
-0.00856328
-0.456133
-0.389079
-0.335553
-0.290712
-0.252053
-0.218157
-0.188127
-0.161334
-0.137352
-0.115786
-0.0963585
-0.0788232
-0.062882
-0.0483002
-0.0349282
-0.0225988
-0.0112274
-0.000856825
0.00852913
-1.19402
-1.03104
-0.895489
-0.780029
-0.679817
-0.591627
-0.513202
-0.442886
-0.379566
-0.322207
-0.270146
-0.222815
-0.179515
-0.139736
-0.103212
-0.0696177
-0.0388465
-0.0111218
0.0135623
-1.90791
-1.66311
-1.45244
-1.2693
-1.10837
-0.965671
-0.838155
-0.723477
-0.62002
-0.52624
-0.441129
-0.363829
-0.293246
-0.228582
-0.169411
-0.115207
-0.0657677
-0.0213836
0.0180373
-2.55664
-2.23526
-1.9565
-1.71219
-1.49603
-1.30332
-1.13044
-0.974575
-0.833763
-0.70609
-0.590276
-0.485234
-0.389524
-0.302083
-0.222312
-0.149466
-0.0831909
-0.0237628
0.029028
-3.11206
-2.72197
-2.38604
-2.09135
-1.82949
-1.59488
-1.38343
-1.19208
-1.01875
-0.861352
-0.718489
-0.588975
-0.471162
-0.363864
-0.266432
-0.178064
-0.0983727
-0.0276393
0.0344658
-3.59166
-3.15356
-2.77169
-2.43306
-2.12917
-1.85471
-1.60587
-1.37984
-1.17469
-0.988372
-0.819383
-0.666393
-0.52744
-0.401141
-0.286904
-0.184202
-0.0934191
-0.0158612
0.0481408
-3.8511
-3.46519
-3.11164
-2.78716
-2.48707
-2.20801
-1.94774
-1.70482
-1.47883
-1.26919
-1.0758
-0.898461
-0.736068
-0.587658
-0.452507
-0.32853
-0.213437
-0.102801
0.0109018
-3.79995
-3.42301
-3.05559
-2.70817
-2.38346
-2.08162
-1.80219
-1.54417
-1.30694
-1.08936
-0.890508
-0.708504
-0.54047
-0.381973
-0.227576
-0.0666817
0.109285
0.309537
0.535552
-3.70165
-3.35026
-2.98033
-2.60962
-2.24924
-1.90629
-1.58588
-1.29052
-1.02166
-0.778267
-0.558428
-0.357421
-0.169057
0.0150058
0.200162
0.392471
0.583026
0.755926
0.880185
-3.49918
-3.22458
-2.91456
-2.5888
-2.2612
-1.94185
-1.63851
-1.35578
-1.09655
-0.860654
-0.646949
-0.451021
-0.267913
-0.0926493
0.0735128
0.226815
0.349231
0.423946
0.434456
-3.14263
-2.91921
-2.65004
-2.35458
-2.04834
-1.7441
-1.45226
-1.17967
-0.930579
-0.705647
-0.503982
-0.321681
-0.155453
-0.00378362
0.128289
0.233803
0.300279
0.324845
0.31514
-2.73678
-2.55223
-2.32207
-2.06016
-1.78136
-1.49996
-1.22829
-0.97501
-0.745509
-0.541182
-0.361505
-0.203405
-0.0651479
0.0528328
0.145442
0.208548
0.238566
0.241773
0.228963
-2.28405
-2.14625
-1.95655
-1.72965
-1.48103
-1.22658
-0.980427
-0.75282
-0.54995
-0.373631
-0.223417
-0.0965539
0.00818368
0.090485
0.147698
0.180001
0.189713
0.185355
0.175212
-1.65883
-1.56317
-1.41841
-1.23876
-1.03905
-0.834442
-0.638379
-0.460565
-0.306366
-0.176977
-0.0714997
0.0129294
0.0775951
0.123095
0.149262
0.158952
0.156352
0.148401
0.139742
-1.04169
-0.977156
-0.870412
-0.734102
-0.582649
-0.430319
-0.289052
-0.166901
-0.0672932
0.0101427
0.0674525
0.108274
0.134478
0.147736
0.149484
0.14334
0.132953
0.122753
0.114714
-0.348435
-0.300787
-0.226023
-0.136045
-0.0433793
0.0409803
0.109493
0.158363
0.188136
0.201949
0.203492
0.197195
0.185097
0.169055
0.150555
0.132254
0.116015
0.103807
0.0957155
0.351029
0.392881
0.442711
0.487132
0.516415
0.524727
0.511184
0.478255
0.431846
0.378497
0.323681
0.272216
0.225657
0.185041
0.15069
0.123325
0.102685
0.0886262
0.0798112
1.04879
1.15733
1.2516
1.30593
1.30661
1.25129
1.14814
1.01145
0.858669
0.705418
0.563487
0.440331
0.338122
0.256764
0.194457
0.148621
0.115771
0.0919971
0.071816
1.56827
1.54828
1.48237
1.37282
1.22884
1.06346
0.890728
0.723104
0.570543
0.438851
0.330576
0.245155
0.179837
0.131179
0.0957225
0.0700336
0.0507686
0.0340757
0.0148852
2.13686
2.18304
2.16326
2.07291
1.91731
1.71105
1.47362
1.22615
0.987759
0.771944
0.587541
0.437197
0.319289
0.229793
0.163671
0.115093
0.0784427
0.0480325
0.0180062
2.6276
2.6618
2.61025
2.47524
2.26736
2.00622
1.71523
1.41867
1.1374
0.885602
0.672209
0.499147
0.363934
0.261423
0.185451
0.129088
0.0859986
0.0503358
0.017155
3.056
3.06436
2.97443
2.79432
2.53864
2.23079
1.8969
1.56299
1.25049
0.97337
0.740022
0.55145
0.404304
0.292529
0.20918
0.146608
0.0980454
0.0574526
0.0197408
3.45237
3.41992
3.28391
3.05554
2.75273
2.40225
2.03216
1.66918
1.33423
1.04016
0.794211
0.596158
0.441704
0.323976
0.235435
0.167895
0.114235
0.0680779
0.023858
3.79431
3.71085
3.52514
3.24804
2.90124
2.51459
2.11715
1.73507
1.38766
1.08585
0.835207
0.634069
0.477176
0.35695
0.265418
0.193979
0.135219
0.0824013
0.0294984
3.96629
3.84662
3.6216
3.30859
2.93427
2.53027
2.12493
1.74229
1.39899
1.10349
0.859487
0.663988
0.511037
0.392664
0.300764
0.226528
0.162403
0.101386
0.0370706
4.17394
4.00859
3.73129
3.37272
2.96509
2.54116
2.12786
1.74625
1.40961
1.12337
0.888911
0.701636
0.554664
0.439466
0.347686
0.270155
0.199087
0.127105
0.0473361
4.34
4.10596
3.77065
3.36939
2.93663
2.50385
2.09475
1.72597
1.40659
1.13856
0.920834
0.747236
0.610063
0.500304
0.409446
0.327941
0.247792
0.161239
0.0609144
4.40249
4.09801
3.71069
3.27863
2.83675
2.41268
2.02484
1.6841
1.39472
1.15505
0.961787
0.80738
0.683541
0.580939
0.49105
0.40395
0.3115
0.205589
0.0784027
4.3711
4.00111
3.57031
3.12202
2.68876
2.29124
1.94064
1.64118
1.3922
1.18857
1.0252
0.893391
0.784526
0.689057
0.598558
0.502685
0.393239
0.261825
0.100284
4.31167
3.86759
3.39916
2.94799
2.53829
2.18077
1.87804
1.62759
1.42418
1.25966
1.12767
1.01856
0.923529
0.832808
0.738078
0.628465
0.495771
0.331405
0.126978
4.17614
3.66109
3.17683
2.74797
2.38474
2.08576
1.84444
1.65218
1.50001
1.37749
1.27776
1.19055
1.10713
1.01755
0.913707
0.784176
0.620905
0.415289
0.158868
3.75092
3.22948
2.78987
2.43903
2.16939
1.96616
1.81379
1.69919
1.61122
1.53855
1.47504
1.41053
1.33695
1.24465
1.12613
0.969795
0.768166
0.513039
0.196014
3.34229
2.84619
2.48202
2.2324
2.0684
1.96369
1.89675
1.85289
1.82067
1.78889
1.75266
1.70209
1.62972
1.52604
1.38412
1.19213
0.943082
0.628993
0.240679
2.84666
2.42822
2.19668
2.08734
2.05048
2.0538
2.07453
2.09945
2.11868
2.12225
2.1069
2.0635
1.98526
1.86293
1.69012
1.45486
1.15031
0.768085
0.296461
2.01592
1.8376
1.84102
1.93296
2.05951
2.19243
2.31366
2.41429
2.48777
2.52677
2.52994
2.49001
2.40109
2.25479
2.04549
1.76146
1.39541
0.937394
0.369698
1.20654
1.38458
1.66162
1.9589
2.23951
2.48768
2.69454
2.85653
2.97128
3.03471
3.04671
3.00272
2.89736
2.72312
2.47453
2.13963
1.70825
1.16523
0.479023
0.424703
1.03046
1.59864
2.10049
2.52999
2.88682
3.1734
3.39116
3.54242
3.62716
3.64591
3.59814
3.47886
3.28169
3.00048
2.62208
2.12923
1.49487
0.660136
-0.168673
0.847663
1.67864
2.36202
2.92453
3.37827
3.73661
4.00468
4.18975
4.29682
4.32656
4.28423
4.16517
3.96459
3.67432
3.27792
2.74393
2.02099
0.999374
-0.452123
0.852395
1.88174
2.71161
3.38766
3.92642
4.35024
4.66647
4.88787
5.02602
5.08197
5.06922
4.98456
4.82612
4.58261
4.23177
3.71728
2.943
1.71007
-0.392398
1.01891
2.16687
3.1049
3.87442
4.48707
4.97146
5.33678
5.60239
5.7892
5.90065
5.96237
5.97705
5.95075
5.87095
5.71054
5.37763
4.70381
3.34611
-0.0736842
1.28567
2.48382
3.497
4.34114
5.01647
5.55565
5.97165
6.29203
6.55261
6.76362
6.96966
7.19299
7.46322
7.78047
8.13472
8.40721
8.34429
7.39718
0.311647
1.56192
2.78164
3.85183
4.75441
5.47977
6.06313
6.5284
6.91066
7.2736
7.63973
8.08538
8.69539
9.58437
10.8809
12.8863
16.052
21.3442
30.7599
)
;

boundaryField
{
    up
    {
        type            calculated;
        value           nonuniform List<scalar> 
84
(
-30.7598
-7.39718
-3.34612
-1.71008
-0.999379
-0.660136
-0.47902
-0.369693
-0.296455
-0.240675
-0.196013
-0.158869
-0.12698
-0.100286
-0.0784047
-0.0609155
-0.0473363
-0.0370701
-0.0294976
-0.0238571
-0.0197398
-0.0171537
-0.0180054
-0.0149136
-0.0600349
-0.0728342
-0.0878762
-0.105178
-0.127503
-0.158778
-0.205337
-0.275691
-0.369309
-0.845041
-0.554985
-0.0108903
-0.0478153
-0.0342303
-0.0289393
-0.0179138
-0.013652
-0.00855608
0.008522
0.0135324
0.0179668
0.028858
0.03417
0.047686
0.01153
0.546225
0.850648
0.37014
0.276283
0.205722
0.159045
0.127699
0.105335
0.0880174
0.0729526
0.0603254
0.0148852
0.0180062
0.017155
0.0197408
0.023858
0.0294984
0.0370706
0.0473361
0.0609144
0.0784027
0.100284
0.126978
0.158868
0.196014
0.240679
0.296461
0.369698
0.479023
0.660136
0.999374
1.71007
3.34611
7.39718
30.7599
)
;
    }
    low
    {
        type            calculated;
        value           nonuniform List<scalar> 
84
(
-0.280293
0.121655
0.468972
0.5343
0.219654
-0.433989
-1.28198
-2.14102
-2.99015
-3.46025
-3.85616
-4.26444
-4.35631
-4.39043
-4.40699
-4.31995
-4.13179
-3.91833
-3.731
-3.35881
-2.94533
-2.51023
-2.01816
-1.46198
-0.963369
-0.3202
0.312802
0.954167
1.54892
2.1781
2.65497
3.08072
3.46379
3.69917
3.8211
3.90118
3.67008
3.19244
2.62655
1.96257
1.22983
0.471111
-0.470892
-1.22961
-1.96235
-2.62636
-3.19229
-3.67002
-3.90111
-3.82163
-3.69887
-3.46394
-3.08082
-2.6551
-2.17823
-1.54904
-0.954314
-0.312929
0.319905
0.96356
1.46175
2.01826
2.51024
2.94533
3.35881
3.73101
3.91834
4.1318
4.31996
4.40699
4.39043
4.35632
4.26443
3.85617
3.46028
2.99018
2.14104
1.28199
0.434002
-0.219648
-0.534302
-0.468981
-0.121661
0.280294
)
;
    }
    left
    {
        type            calculated;
        value           nonuniform List<scalar> 
19
(
-0.278235
-1.50442
-2.75215
-3.86217
-4.80573
-5.56617
-6.18075
-6.67707
-7.08978
-7.4969
-7.9209
-8.44575
-9.1798
-10.2725
-11.883
-14.4312
-18.5426
-25.5668
-26.6758
)
;
    }
    right
    {
        type            calculated;
        value           nonuniform List<scalar> 
19
(
0.278239
1.50443
2.75215
3.86216
4.80573
5.56616
6.18075
6.67708
7.08979
7.49691
7.92091
8.44575
9.17978
10.2725
11.883
14.4312
18.5426
25.5668
26.6758
)
;
    }
    frontAndBackPlanes
    {
        type            empty;
    }
}


// ************************************************************************* //
