/*--------------------------------*- C++ -*----------------------------------*\
  =========                 |
  \\      /  F ield         | OpenFOAM: The Open Source CFD Toolbox
   \\    /   O peration     | Website:  https://openfoam.org
    \\  /    A nd           | Version:  7
     \\/     M anipulation  |
\*---------------------------------------------------------------------------*/
FoamFile
{
    version     2.0;
    format      ascii;
    class       volScalarField;
    location    "0.2";
    object      gradTy;
}
// * * * * * * * * * * * * * * * * * * * * * * * * * * * * * * * * * * * * * //

dimensions      [0 -1 0 1 0 0 0];

internalField   nonuniform List<scalar> 
1596
(
-0.20232
-0.375076
-0.515197
-0.647818
-0.772527
-0.905759
-1.03989
-1.19354
-1.37358
-1.58494
-1.87675
-2.24839
-2.76658
-3.50927
-4.67008
-6.48613
-9.73672
-15.7371
-37.1751
-0.615479
-0.756748
-0.849657
-0.932399
-1.00944
-1.09956
-1.19684
-1.31873
-1.47215
-1.65836
-1.91878
-2.24847
-2.69227
-3.28547
-4.12757
-5.26801
-6.96702
-9.46597
-16.5584
-1.09944
-1.14367
-1.16505
-1.18888
-1.21482
-1.25925
-1.31571
-1.39969
-1.51651
-1.66492
-1.87926
-2.15037
-2.50944
-2.97254
-3.60014
-4.39883
-5.51017
-7.0347
-10.3034
-1.6041
-1.51867
-1.45621
-1.41653
-1.38995
-1.3875
-1.40135
-1.44428
-1.51986
-1.6252
-1.78858
-1.99866
-2.27763
-2.6318
-3.09965
-3.67121
-4.42981
-5.41575
-7.10194
-2.06628
-1.86042
-1.71757
-1.61634
-1.53902
-1.49072
-1.46248
-1.46406
-1.49764
-1.5595
-1.67278
-1.82585
-2.03489
-2.30149
-2.65139
-3.06928
-3.60771
-4.27985
-5.25857
-2.42997
-2.14857
-1.94388
-1.79004
-1.66738
-1.57668
-1.50891
-1.47105
-1.4644
-1.48504
-1.5518
-1.65396
-1.80356
-2.00004
-2.2614
-2.57175
-2.966
-3.44509
-4.07445
-2.66598
-2.36747
-2.12955
-1.93814
-1.77901
-1.65172
-1.54868
-1.47487
-1.43125
-1.41424
-1.43905
-1.49651
-1.59571
-1.73527
-1.92817
-2.15985
-2.45439
-2.80745
-3.24431
-2.77579
-2.50796
-2.26752
-2.05738
-1.87361
-1.71771
-1.58525
-1.48024
-1.40392
-1.35351
-1.34123
-1.35979
-1.41609
-1.50859
-1.64686
-1.81835
-2.04005
-2.30576
-2.62478
-2.78446
-2.58186
-2.36471
-2.15379
-1.95725
-1.781
-1.62496
-1.49341
-1.3885
-1.30858
-1.26361
-1.24818
-1.2676
-1.32047
-1.41393
-1.53745
-1.70313
-1.90445
-2.14396
-2.71286
-2.5795
-2.40231
-2.20766
-2.01207
-1.82628
-1.65494
-1.50367
-1.376
-1.27173
-1.19928
-1.15504
-1.14323
-1.16274
-1.21904
-1.30351
-1.42492
-1.57717
-1.75992
-2.6253
-2.54036
-2.40269
-2.23176
-2.04589
-1.85872
-1.67882
-1.5136
-1.36824
-1.24418
-1.14892
-1.08051
-1.04244
-1.03399
-1.05938
-1.11164
-1.19712
-1.31038
-1.44986
-2.51846
-2.48279
-2.38289
-2.23787
-2.06619
-1.88286
-1.69923
-1.52445
-1.3654
-1.22517
-1.11092
-1.02212
-0.961898
-0.929892
-0.929411
-0.954863
-1.01079
-1.09249
-1.19792
-2.38704
-2.39511
-2.33174
-2.21436
-2.06072
-1.88638
-1.70433
-1.52521
-1.35739
-1.20552
-1.07677
-0.971903
-0.893893
-0.842776
-0.821238
-0.824832
-0.856829
-0.913258
-0.991944
-2.27155
-2.30394
-2.2688
-2.17604
-2.04036
-1.87681
-1.69902
-1.51873
-1.34553
-1.18535
-1.04569
-0.928321
-0.836274
-0.769924
-0.73152
-0.717509
-0.730239
-0.766356
-0.823758
-2.16553
-2.21706
-2.20314
-2.13052
-2.01085
-1.858
-1.68553
-1.50589
-1.32957
-1.16361
-1.01586
-0.888968
-0.786072
-0.707839
-0.656195
-0.62827
-0.625728
-0.645726
-0.686316
-2.06196
-2.13215
-2.13598
-2.07997
-1.97399
-1.83093
-1.664
-1.48607
-1.30828
-1.13853
-0.985089
-0.851276
-0.740356
-0.653224
-0.591555
-0.552979
-0.53865
-0.546131
-0.573644
-1.96855
-2.05171
-2.06985
-2.02731
-1.93256
-1.79777
-1.63581
-1.45987
-1.28156
-1.10947
-0.952225
-0.81366
-0.697147
-0.603722
-0.534831
-0.488448
-0.465324
-0.463327
-0.480837
-1.88708
-1.97949
-2.00884
-1.97698
-1.89103
-1.76257
-1.60439
-1.42992
-1.25125
-1.07753
-0.917688
-0.775946
-0.655719
-0.558089
-0.484258
-0.432405
-0.402937
-0.393938
-0.403911
-1.80469
-1.91441
-1.95601
-1.93377
-1.85495
-1.73105
-1.57509
-1.40094
-1.22125
-1.04576
-0.883664
-0.739507
-0.616683
-0.516232
-0.439067
-0.383443
-0.349454
-0.335327
-0.339651
-1.71876
-1.84881
-1.90488
-1.89278
-1.82063
-1.70045
-1.54586
-1.37139
-1.19036
-1.01316
-0.849243
-0.703444
-0.579078
-0.47705
-0.397932
-0.339933
-0.302861
-0.285072
-0.285252
-1.64492
-1.78942
-1.85928
-1.8572
-1.79119
-1.67381
-1.51957
-1.34388
-1.16087
-0.981634
-0.81595
-0.66888
-0.543625
-0.440875
-0.360772
-0.301333
-0.262062
-0.241465
-0.23848
-1.57892
-1.73724
-1.82015
-1.82784
-1.76764
-1.6525
-1.49787
-1.32019
-1.13457
-0.952905
-0.785295
-0.63706
-0.511259
-0.408322
-0.327875
-0.267548
-0.226378
-0.203002
-0.197053
-1.5172
-1.69101
-1.78715
-1.80455
-1.75002
-1.63682
-1.48138
-1.30126
-1.11264
-0.928242
-0.758544
-0.609128
-0.482931
-0.380132
-0.299817
-0.238997
-0.19584
-0.168526
-0.157951
-1.46146
-1.65074
-1.75935
-1.78506
-1.73464
-1.62166
-1.46395
-1.2801
-1.08752
-0.89994
-0.727799
-0.577299
-0.451096
-0.349166
-0.269964
-0.209961
-0.165694
-0.133253
-0.109616
-1.4157
-1.61938
-1.74301
-1.78264
-1.74463
-1.64159
-1.49155
-1.31275
-1.12284
-0.93618
-0.762832
-0.61001
-0.4804
-0.374755
-0.291756
-0.22853
-0.180809
-0.143801
-0.111248
-1.38335
-1.59585
-1.72889
-1.77913
-1.75231
-1.65997
-1.5193
-1.34773
-1.16252
-0.978114
-0.804229
-0.648742
-0.514714
-0.403647
-0.314935
-0.246921
-0.195867
-0.15812
-0.128963
-1.38153
-1.59534
-1.7319
-1.78821
-1.76934
-1.68614
-1.55455
-1.39113
-1.2123
-1.03198
-0.859613
-0.702919
-0.565169
-0.448453
-0.35313
-0.278715
-0.222405
-0.181163
-0.150591
-1.41378
-1.62107
-1.75375
-1.8096
-1.79351
-1.71582
-1.59133
-1.43556
-1.26379
-1.08911
-0.92027
-0.764444
-0.624592
-0.502972
-0.40074
-0.318805
-0.255672
-0.2092
-0.175184
-1.47617
-1.67233
-1.79504
-1.84483
-1.827
-1.75158
-1.63233
-1.48355
-1.3193
-1.15161
-0.988258
-0.835613
-0.695793
-0.570595
-0.46144
-0.370673
-0.298607
-0.244718
-0.205238
-1.56648
-1.74422
-1.85153
-1.89093
-1.86804
-1.79254
-1.67719
-1.53508
-1.3789
-1.21961
-1.0639
-0.917286
-0.780674
-0.65464
-0.539811
-0.439401
-0.355818
-0.291421
-0.243818
-1.68281
-1.83553
-1.92418
-1.95053
-1.92037
-1.84306
-1.73052
-1.59453
-1.4465
-1.29638
-1.1499
-1.012
-0.88238
-0.759905
-0.642911
-0.533785
-0.435999
-0.356193
-0.295819
-1.80711
-1.93836
-2.00811
-2.02033
-1.98182
-1.90183
-1.79153
-1.66139
-1.52156
-1.38112
-1.24506
-1.1183
-1.00003
-0.887758
-0.776482
-0.665143
-0.554123
-0.452691
-0.37036
-1.94771
-2.05528
-2.10419
-2.10071
-2.05268
-1.96917
-1.86045
-1.73567
-1.60368
-1.47273
-1.34717
-1.23251
-1.12858
-1.03332
-0.939608
-0.842375
-0.732884
-0.613384
-0.487514
-2.11095
-2.19076
-2.21689
-2.19697
-2.13947
-2.05299
-1.94666
-1.82822
-1.70515
-1.58469
-1.47083
-1.36948
-1.28212
-1.20961
-1.14728
-1.09153
-1.0289
-0.952352
-0.853136
-2.29076
-2.33921
-2.33721
-2.29542
-2.22286
-2.12772
-2.01765
-1.89921
-1.77845
-1.66107
-1.5507
-1.45209
-1.3675
-1.29946
-1.24808
-1.21556
-1.19725
-1.18935
-1.18383
-2.49268
-2.4992
-2.46296
-2.39532
-2.3045
-2.19777
-2.08125
-1.96052
-1.84055
-1.72564
-1.61937
-1.52497
-1.44441
-1.37926
-1.33034
-1.29879
-1.28478
-1.2893
-1.31319
-2.71452
-2.67055
-2.59847
-2.50555
-2.39751
-2.27992
-2.15749
-2.03479
-1.9159
-1.80424
-1.70297
-1.61439
-1.53985
-1.4799
-1.43437
-1.40191
-1.38064
-1.36798
-1.36116
-2.91583
-2.82509
-2.72008
-2.60377
-2.47957
-2.35135
-2.22266
-2.097
-1.97766
-1.86731
-1.76841
-1.68269
-1.6109
-1.55313
-1.50879
-1.47648
-1.45434
-1.44026
-1.43196
-3.07739
-2.9537
-2.8236
-2.68882
-2.55167
-2.41488
-2.28111
-2.15305
-2.0333
-1.92394
-1.82694
-1.74361
-1.67435
-1.61901
-1.57689
-1.54654
-1.52616
-1.51372
-1.50699
-3.20548
-3.05622
-2.90661
-2.75748
-2.61026
-2.46681
-2.32909
-2.19913
-2.07901
-1.97039
-1.87483
-1.79341
-1.72627
-1.6731
-1.63312
-1.60486
-1.58647
-1.57597
-1.57116
-3.29838
-3.12999
-2.96574
-2.80609
-2.65167
-2.50355
-2.3631
-2.23185
-2.11153
-2.00346
-1.90899
-1.82899
-1.76347
-1.71201
-1.67374
-1.64713
-1.63029
-1.6212
-1.61762
-3.35906
-3.17215
-2.9973
-2.83118
-2.67272
-2.52214
-2.38034
-2.2485
-2.12815
-2.02045
-1.92663
-1.84746
-1.78289
-1.73246
-1.69529
-1.66986
-1.65429
-1.64655
-1.6444
-3.35907
-3.17218
-2.99733
-2.83122
-2.67277
-2.52219
-2.38038
-2.24855
-2.1282
-2.0205
-1.92668
-1.84752
-1.78295
-1.73252
-1.69536
-1.66993
-1.65436
-1.64662
-1.64447
-3.29841
-3.13005
-2.96582
-2.80619
-2.65178
-2.50366
-2.36323
-2.23198
-2.11167
-2.0036
-1.90914
-1.82915
-1.76364
-1.71218
-1.67393
-1.64733
-1.63051
-1.62144
-1.61788
-3.20552
-3.05632
-2.90674
-2.75763
-2.61044
-2.467
-2.32929
-2.19934
-2.07923
-1.97062
-1.87508
-1.79367
-1.72654
-1.67339
-1.63343
-1.60518
-1.58681
-1.57634
-1.57155
-3.07744
-2.95381
-2.82376
-2.68902
-2.55189
-2.41512
-2.28137
-2.15332
-2.03359
-1.92424
-1.82725
-1.74394
-1.67469
-1.61937
-1.57726
-1.54694
-1.52658
-1.51416
-1.50745
-2.91588
-2.82522
-2.72027
-2.604
-2.47983
-2.35163
-2.22296
-2.09733
-1.978
-1.86767
-1.76878
-1.68308
-1.61131
-1.55355
-1.50923
-1.47694
-1.45482
-1.44076
-1.43249
-2.71458
-2.67069
-2.59868
-2.5058
-2.39779
-2.28023
-2.15783
-2.03515
-1.91628
-1.80464
-1.70339
-1.61483
-1.5403
-1.48036
-1.43483
-1.40238
-1.38111
-1.36844
-1.36161
-2.49275
-2.49937
-2.46321
-2.39565
-2.30489
-2.19822
-2.08176
-1.96108
-1.84116
-1.7263
-1.62007
-1.52573
-1.44523
-1.38014
-1.33127
-1.29974
-1.28568
-1.29005
-1.31362
-2.29081
-2.33924
-2.33725
-2.29549
-2.22295
-2.12784
-2.01779
-1.89936
-1.77861
-1.66122
-1.55082
-1.45217
-1.3675
-1.29936
-1.24788
-1.21528
-1.19704
-1.18949
-1.18476
-2.11097
-2.19086
-2.21707
-2.19726
-2.13987
-2.05351
-1.94728
-1.82895
-1.70597
-1.58559
-1.47181
-1.37052
-1.28324
-1.21084
-1.14871
-1.0933
-1.03115
-0.955252
-0.856763
-1.94771
-2.0553
-2.10425
-2.10084
-2.0529
-1.96947
-1.86083
-1.73613
-1.60421
-1.47331
-1.34781
-1.23319
-1.12932
-1.03416
-0.940576
-0.843501
-0.734123
-0.614595
-0.488429
-1.80711
-1.93836
-2.00816
-2.02044
-1.98201
-1.90212
-1.7919
-1.66184
-1.52208
-1.38171
-1.24569
-1.11898
-1.00077
-0.888567
-0.777355
-0.666048
-0.554985
-0.453422
-0.370929
-1.6828
-1.83552
-1.9242
-1.95062
-1.92054
-1.84332
-1.73086
-1.59496
-1.44699
-1.29693
-1.1505
-1.01263
-0.883052
-0.760606
-0.643617
-0.534458
-0.436593
-0.356683
-0.296212
-1.56647
-1.7442
-1.85153
-1.89099
-1.86818
-1.79276
-1.67751
-1.53547
-1.37936
-1.22012
-1.06444
-0.917859
-0.781261
-0.655226
-0.540369
-0.439906
-0.356249
-0.291776
-0.244112
-1.47615
-1.6723
-1.79503
-1.84487
-1.82711
-1.75178
-1.63261
-1.48391
-1.31971
-1.15207
-0.988747
-0.836116
-0.696294
-0.571076
-0.461881
-0.371059
-0.298933
-0.244991
-0.205471
-1.41377
-1.62103
-1.75373
-1.80962
-1.7936
-1.71599
-1.59158
-1.43588
-1.26416
-1.08952
-0.9207
-0.764877
-0.625012
-0.503364
-0.401091
-0.319108
-0.255928
-0.209419
-0.175379
-1.38151
-1.59531
-1.73188
-1.78823
-1.76942
-1.68628
-1.55477
-1.39142
-1.21263
-1.03234
-0.859982
-0.703286
-0.565519
-0.448773
-0.353412
-0.278957
-0.222612
-0.181346
-0.150767
-1.38334
-1.59581
-1.72885
-1.77912
-1.75235
-1.66006
-1.51944
-1.34793
-1.16275
-0.978366
-0.804489
-0.648996
-0.514953
-0.403862
-0.31512
-0.247079
-0.196003
-0.15825
-0.129118
-1.41572
-1.61939
-1.74303
-1.78268
-1.74468
-1.64168
-1.49167
-1.31289
-1.123
-0.936358
-0.763019
-0.610201
-0.480588
-0.374936
-0.291926
-0.228687
-0.180952
-0.143925
-0.111344
-1.46148
-1.65077
-1.75936
-1.78505
-1.73461
-1.6216
-1.46388
-1.28001
-1.08742
-0.899837
-0.727698
-0.577206
-0.451013
-0.349093
-0.269901
-0.209905
-0.165643
-0.1332
-0.10955
-1.51722
-1.69103
-1.78717
-1.80456
-1.75003
-1.63682
-1.48138
-1.30126
-1.11263
-0.928238
-0.758543
-0.60913
-0.482936
-0.380138
-0.299824
-0.239006
-0.19585
-0.168537
-0.15796
-1.57893
-1.73725
-1.82015
-1.82784
-1.76763
-1.65249
-1.49786
-1.32017
-1.13456
-0.952896
-0.785289
-0.637057
-0.511259
-0.408324
-0.327879
-0.267553
-0.226385
-0.203009
-0.197059
-1.64493
-1.78942
-1.85929
-1.8572
-1.79118
-1.67381
-1.51956
-1.34387
-1.16086
-0.981628
-0.815946
-0.668879
-0.543625
-0.440877
-0.360775
-0.301338
-0.262067
-0.24147
-0.238485
-1.71876
-1.84882
-1.90488
-1.89277
-1.82063
-1.70044
-1.54585
-1.37138
-1.19036
-1.01315
-0.84924
-0.703443
-0.579078
-0.477052
-0.397935
-0.339936
-0.302866
-0.285076
-0.285255
-1.80469
-1.91441
-1.95601
-1.93376
-1.85494
-1.73104
-1.57509
-1.40094
-1.22125
-1.04576
-0.883662
-0.739506
-0.616684
-0.516233
-0.439069
-0.383446
-0.349457
-0.33533
-0.339654
-1.88708
-1.97949
-2.00884
-1.97697
-1.89102
-1.76257
-1.60438
-1.42992
-1.25124
-1.07753
-0.917687
-0.775945
-0.655719
-0.558089
-0.48426
-0.432407
-0.402939
-0.393941
-0.403913
-1.96855
-2.05171
-2.06985
-2.02731
-1.93256
-1.79776
-1.63581
-1.45986
-1.28156
-1.10947
-0.952224
-0.813659
-0.697147
-0.603722
-0.534832
-0.48845
-0.465325
-0.463328
-0.480838
-2.06196
-2.13215
-2.13598
-2.07996
-1.97399
-1.83093
-1.66399
-1.48607
-1.30828
-1.13853
-0.985088
-0.851275
-0.740355
-0.653224
-0.591555
-0.55298
-0.538651
-0.54613
-0.573643
-2.16553
-2.21706
-2.20314
-2.13052
-2.01085
-1.858
-1.68553
-1.50589
-1.32957
-1.1636
-1.01585
-0.888967
-0.786071
-0.707839
-0.656195
-0.628269
-0.625727
-0.645724
-0.686314
-2.27154
-2.30394
-2.2688
-2.17604
-2.04036
-1.87682
-1.69902
-1.51873
-1.34553
-1.18535
-1.04568
-0.92832
-0.836273
-0.769924
-0.731519
-0.717507
-0.730236
-0.766351
-0.823754
-2.38704
-2.3951
-2.33174
-2.21436
-2.06073
-1.88639
-1.70433
-1.52521
-1.35739
-1.20552
-1.07677
-0.971902
-0.893892
-0.842775
-0.821237
-0.824829
-0.856824
-0.913251
-0.991938
-2.51845
-2.48279
-2.38289
-2.23787
-2.06619
-1.88286
-1.69923
-1.52445
-1.3654
-1.22517
-1.11092
-1.02212
-0.961897
-0.92989
-0.929408
-0.954859
-1.01078
-1.09248
-1.19791
-2.62529
-2.54035
-2.40269
-2.23177
-2.04589
-1.85872
-1.67883
-1.5136
-1.36824
-1.24418
-1.14892
-1.08051
-1.04244
-1.03399
-1.05937
-1.11164
-1.19711
-1.31037
-1.44985
-2.71285
-2.5795
-2.40231
-2.20767
-2.01207
-1.82629
-1.65494
-1.50367
-1.376
-1.27173
-1.19928
-1.15504
-1.14323
-1.16274
-1.21904
-1.30351
-1.42491
-1.57716
-1.75992
-2.78446
-2.58186
-2.36472
-2.15379
-1.95726
-1.781
-1.62496
-1.49341
-1.3885
-1.30858
-1.26361
-1.24818
-1.2676
-1.32047
-1.41393
-1.53744
-1.70312
-1.90444
-2.14396
-2.7758
-2.50797
-2.26753
-2.05738
-1.87361
-1.71772
-1.58526
-1.48024
-1.40393
-1.35351
-1.34123
-1.35979
-1.41609
-1.50859
-1.64686
-1.81834
-2.04004
-2.30575
-2.62479
-2.66599
-2.36748
-2.12956
-1.93815
-1.77901
-1.65172
-1.54868
-1.47487
-1.43125
-1.41424
-1.43905
-1.49651
-1.59571
-1.73527
-1.92816
-2.15985
-2.45439
-2.80745
-3.24431
-2.42998
-2.14858
-1.94388
-1.79005
-1.66738
-1.57669
-1.50891
-1.47105
-1.4644
-1.48504
-1.55181
-1.65396
-1.80356
-2.00004
-2.2614
-2.57174
-2.966
-3.44509
-4.07446
-2.06629
-1.86043
-1.71757
-1.61635
-1.53902
-1.49072
-1.46248
-1.46406
-1.49764
-1.5595
-1.67278
-1.82585
-2.03489
-2.30149
-2.65139
-3.06928
-3.60771
-4.27986
-5.25858
-1.60411
-1.51867
-1.45621
-1.41654
-1.38995
-1.3875
-1.40136
-1.44428
-1.51986
-1.6252
-1.78858
-1.99866
-2.27763
-2.6318
-3.09965
-3.67121
-4.42981
-5.41576
-7.10195
-1.09945
-1.14367
-1.16506
-1.18889
-1.21482
-1.25926
-1.31571
-1.39969
-1.51652
-1.66492
-1.87926
-2.15037
-2.50943
-2.97254
-3.60013
-4.39883
-5.51017
-7.03471
-10.3034
-0.615483
-0.756748
-0.849657
-0.9324
-1.00945
-1.09957
-1.19684
-1.31873
-1.47215
-1.65836
-1.91878
-2.24847
-2.69227
-3.28546
-4.12757
-5.26801
-6.96702
-9.46597
-16.5584
-0.202322
-0.375076
-0.515197
-0.647817
-0.772527
-0.90576
-1.03989
-1.19354
-1.37358
-1.58494
-1.87675
-2.24838
-2.76658
-3.50926
-4.67007
-6.48613
-9.73672
-15.7371
-37.1751
)
;

boundaryField
{
    up
    {
        type            calculated;
        value           nonuniform List<scalar> 
84
(
-33.6884
-18.2456
-11.1939
-7.62511
-5.59762
-4.31146
-3.41895
-2.75791
-2.24703
-1.84058
-1.51275
-1.24654
-1.0293
-0.852059
-0.707436
-0.589163
-0.492037
-0.411813
-0.345048
-0.288805
-0.240665
-0.198011
-0.156015
-0.0981024
-0.0947309
-0.120609
-0.141932
-0.165385
-0.19367
-0.229657
-0.27725
-0.341586
-0.442371
-0.841269
-1.21403
-1.33236
-1.35777
-1.42861
-1.50456
-1.56976
-1.61689
-1.64447
-1.64455
-1.61716
-1.57017
-1.50504
-1.42915
-1.35823
-1.33251
-1.21504
-0.845481
-0.443228
-0.342086
-0.277614
-0.229936
-0.193894
-0.165575
-0.142107
-0.120808
-0.0948508
-0.0980281
-0.156022
-0.198017
-0.240669
-0.288808
-0.345051
-0.411815
-0.492037
-0.589162
-0.707434
-0.852055
-1.02929
-1.24653
-1.51275
-1.84058
-2.24704
-2.75792
-3.41897
-4.31147
-5.59763
-7.62511
-11.1939
-18.2456
-33.6884
)
;
    }
    low
    {
        type            calculated;
        value           nonuniform List<scalar> 
84
(
-0.21718
-0.643392
-1.15994
-1.70578
-2.20668
-2.59611
-2.8379
-2.93609
-2.91312
-2.80094
-2.69223
-2.56499
-2.4056
-2.27484
-2.16008
-2.04428
-1.9401
-1.85537
-1.76612
-1.66471
-1.57878
-1.50327
-1.43004
-1.36354
-1.29917
-1.25867
-1.25841
-1.30379
-1.38323
-1.49498
-1.63038
-1.76741
-1.9226
-2.1027
-2.29641
-2.51669
-2.76389
-2.98116
-3.1521
-3.28806
-3.3873
-3.45701
-3.45703
-3.38731
-3.28808
-3.15213
-2.98118
-2.76392
-2.51673
-2.29639
-2.10272
-1.92258
-1.7674
-1.63037
-1.49498
-1.38322
-1.30378
-1.25841
-1.25868
-1.29919
-1.36358
-1.43005
-1.50328
-1.57879
-1.66471
-1.76613
-1.85537
-1.94011
-2.04428
-2.16007
-2.27483
-2.4056
-2.56498
-2.69222
-2.80093
-2.91311
-2.93609
-2.83791
-2.59612
-2.2067
-1.7058
-1.15995
-0.643398
-0.217182
)
;
    }
    left
    {
        type            calculated;
        value           nonuniform List<scalar> 
19
(
-0.198486
-0.368122
-0.511036
-0.64812
-0.778117
-0.916852
-1.05697
-1.218
-1.40705
-1.63186
-1.94385
-2.34459
-2.90986
-3.73294
-5.03101
-7.09483
-10.8315
-17.8101
-34.9409
)
;
    }
    right
    {
        type            calculated;
        value           nonuniform List<scalar> 
19
(
-0.198488
-0.368122
-0.511036
-0.64812
-0.778117
-0.916853
-1.05697
-1.218
-1.40705
-1.63186
-1.94385
-2.34459
-2.90986
-3.73293
-5.031
-7.09483
-10.8315
-17.8101
-34.9409
)
;
    }
    frontAndBackPlanes
    {
        type            empty;
    }
}


// ************************************************************************* //
