/*--------------------------------*- C++ -*----------------------------------*\
  =========                 |
  \\      /  F ield         | OpenFOAM: The Open Source CFD Toolbox
   \\    /   O peration     | Website:  https://openfoam.org
    \\  /    A nd           | Version:  7
     \\/     M anipulation  |
\*---------------------------------------------------------------------------*/
FoamFile
{
    version     2.0;
    format      ascii;
    class       volScalarField;
    location    "0.2";
    object      gradTx;
}
// * * * * * * * * * * * * * * * * * * * * * * * * * * * * * * * * * * * * * //

dimensions      [0 -1 0 1 0 0 0];

internalField   nonuniform List<scalar> 
1596
(
-0.0972584
-0.487811
-0.872225
-1.21632
-1.51685
-1.77228
-1.99445
-2.19106
-2.37299
-2.5609
-2.76122
-2.99889
-3.30276
-3.71372
-4.27927
-5.11673
-6.40589
-8.53447
-12.3043
0.0216474
-0.405262
-0.783757
-1.10892
-1.38772
-1.62131
-1.82049
-1.98917
-2.13562
-2.27087
-2.39691
-2.52765
-2.66892
-2.82889
-3.00421
-3.18737
-3.3285
-3.32479
-2.9572
0.119317
-0.329263
-0.695058
-0.997334
-1.25086
-1.46016
-1.6346
-1.77681
-1.89237
-1.9874
-2.06179
-2.12316
-2.17085
-2.20491
-2.21783
-2.19572
-2.09909
-1.8579
-1.33355
0.135589
-0.287187
-0.620508
-0.891063
-1.11494
-1.2981
-1.44792
-1.56645
-1.65728
-1.72359
-1.76485
-1.78491
-1.78173
-1.75333
-1.69367
-1.5917
-1.42243
-1.14445
-0.675725
0.0427477
-0.296963
-0.573318
-0.801114
-0.990369
-1.14559
-1.27127
-1.36888
-1.44036
-1.48697
-1.50838
-1.50607
-1.47812
-1.42232
-1.33481
-1.20791
-1.02728
-0.769739
-0.388664
-0.150769
-0.365562
-0.563752
-0.738009
-0.887438
-1.01245
-1.11393
-1.19227
-1.24796
-1.28075
-1.29062
-1.27736
-1.23942
-1.17473
-1.081
-0.952873
-0.78256
-0.557355
-0.25131
-0.407836
-0.487431
-0.596342
-0.709174
-0.814122
-0.906246
-0.982585
-1.04194
-1.08334
-1.10534
-1.10792
-1.08968
-1.0493
-0.984746
-0.894636
-0.774946
-0.621574
-0.427544
-0.178534
-0.676665
-0.639453
-0.661971
-0.711822
-0.770365
-0.827974
-0.87833
-0.918405
-0.945857
-0.958208
-0.955178
-0.934543
-0.894987
-0.834437
-0.751876
-0.644007
-0.508648
-0.341859
-0.135743
-0.954643
-0.835334
-0.781435
-0.768099
-0.776658
-0.795286
-0.815562
-0.832804
-0.843474
-0.844202
-0.834172
-0.81056
-0.771825
-0.715716
-0.641189
-0.545245
-0.426501
-0.282468
-0.108574
-1.12164
-0.972716
-0.873958
-0.81547
-0.784494
-0.770378
-0.764533
-0.761457
-0.756929
-0.747071
-0.730557
-0.70428
-0.666481
-0.614823
-0.548146
-0.463672
-0.360342
-0.236419
-0.0890997
-1.25835
-1.09732
-0.971774
-0.879933
-0.81561
-0.771301
-0.739834
-0.715844
-0.69499
-0.673225
-0.648805
-0.618499
-0.580326
-0.531842
-0.471676
-0.397132
-0.307145
-0.200261
-0.074556
-1.39854
-1.23684
-1.09469
-0.976702
-0.88246
-0.808408
-0.749853
-0.702491
-0.662453
-0.625868
-0.590747
-0.553831
-0.512906
-0.465385
-0.409622
-0.342883
-0.263904
-0.171217
-0.0632061
-1.43889
-1.29887
-1.16027
-1.03408
-0.924752
-0.832494
-0.755344
-0.690629
-0.635485
-0.586655
-0.542275
-0.499317
-0.455541
-0.408383
-0.356053
-0.295869
-0.226408
-0.146161
-0.0536218
-1.45148
-1.33493
-1.20766
-1.08178
-0.964829
-0.860214
-0.7686
-0.689221
-0.620514
-0.560117
-0.506543
-0.457141
-0.409764
-0.361929
-0.311755
-0.256612
-0.194919
-0.12509
-0.0456254
-1.45278
-1.35742
-1.24395
-1.12319
-1.0037
-0.891128
-0.788387
-0.696638
-0.615767
-0.544475
-0.481859
-0.425742
-0.374163
-0.32477
-0.275636
-0.224176
-0.16867
-0.107437
-0.0389227
-1.4216
-1.34905
-1.25238
-1.14171
-1.02564
-0.911011
-0.802347
-0.702477
-0.61271
-0.532872
-0.462797
-0.400885
-0.345474
-0.294415
-0.245814
-0.19717
-0.146675
-0.0925792
-0.0332716
-1.35605
-1.30538
-1.22728
-1.13052
-1.02305
-0.912068
-0.803028
-0.699985
-0.605461
-0.520355
-0.445289
-0.379308
-0.321138
-0.268911
-0.220842
-0.174561
-0.128239
-0.0801096
-0.02853
-1.27764
-1.24111
-1.17948
-1.09735
-1.00098
-0.897132
-0.79158
-0.689141
-0.593267
-0.505775
-0.428027
-0.359708
-0.299964
-0.24724
-0.199904
-0.155738
-0.112939
-0.0697684
-0.024599
-1.21196
-1.18674
-1.13764
-1.06726
-0.980272
-0.882781
-0.780636
-0.679164
-0.582553
-0.493383
-0.413645
-0.343582
-0.282697
-0.229693
-0.183053
-0.140654
-0.1007
-0.0614843
-0.0214315
-1.09345
-1.08343
-1.04922
-0.993771
-0.920658
-0.835003
-0.742219
-0.647643
-0.555817
-0.469841
-0.392205
-0.323677
-0.264148
-0.212643
-0.167826
-0.127714
-0.0905516
-0.0547207
-0.0188357
-0.96051
-0.962497
-0.941766
-0.90058
-0.841684
-0.769246
-0.68804
-0.603105
-0.519023
-0.439155
-0.366288
-0.301585
-0.245268
-0.19667
-0.15465
-0.117345
-0.0829694
-0.0498828
-0.0169405
-0.820425
-0.830049
-0.820425
-0.792235
-0.747209
-0.688554
-0.620313
-0.547023
-0.473064
-0.401813
-0.336133
-0.277422
-0.226134
-0.181884
-0.143756
-0.110031
-0.078792
-0.0480257
-0.0163156
-0.663649
-0.676884
-0.676234
-0.66045
-0.629934
-0.586708
-0.533895
-0.475267
-0.414752
-0.355485
-0.300151
-0.250227
-0.206274
-0.168185
-0.135369
-0.106432
-0.0794338
-0.0516949
-0.0198978
-0.485468
-0.478506
-0.461312
-0.434192
-0.39903
-0.358497
-0.315656
-0.273272
-0.233711
-0.198399
-0.167947
-0.142239
-0.120581
-0.102169
-0.0862132
-0.071766
-0.0574765
-0.0409934
-0.0182866
-0.324442
-0.359587
-0.395749
-0.425873
-0.445221
-0.45114
-0.443465
-0.423723
-0.394921
-0.360403
-0.32313
-0.285699
-0.249579
-0.216093
-0.186143
-0.160235
-0.137797
-0.117163
-0.0944197
-0.109356
-0.124816
-0.144534
-0.164607
-0.182119
-0.195038
-0.202659
-0.205018
-0.203124
-0.198181
-0.190883
-0.182047
-0.171471
-0.159383
-0.146271
-0.133461
-0.12177
-0.112118
-0.104353
0.106154
0.0872061
0.0597994
0.0275326
-0.00612964
-0.0383006
-0.0671314
-0.0916409
-0.111865
-0.128304
-0.141082
-0.150437
-0.155586
-0.15612
-0.152135
-0.145253
-0.13706
-0.129469
-0.123103
0.320756
0.294853
0.257082
0.211442
0.161837
0.11172
0.0636655
0.0192495
-0.020986
-0.0571543
-0.0891254
-0.116723
-0.138605
-0.153416
-0.160265
-0.160431
-0.155991
-0.149966
-0.143948
0.513909
0.476726
0.426287
0.367237
0.303613
0.238984
0.176057
0.116461
0.0608122
0.0089699
-0.0390423
-0.0830049
-0.12125
-0.151401
-0.170945
-0.179864
-0.179947
-0.175301
-0.168962
0.712895
0.661579
0.596722
0.523145
0.445023
0.366052
0.288966
0.215317
0.145636
0.0795687
0.0167877
-0.042899
-0.0980562
-0.145722
-0.181536
-0.203114
-0.210433
-0.20798
-0.200788
0.861449
0.794062
0.71529
0.629782
0.5416
0.454028
0.369273
0.288333
0.211311
0.137402
0.0657434
-0.00464399
-0.0732385
-0.137478
-0.191749
-0.230706
-0.250166
-0.252482
-0.243813
0.999013
0.918022
0.825783
0.728744
0.631181
0.535971
0.444784
0.358108
0.275691
0.196373
0.11885
0.0412472
-0.0374119
-0.11639
-0.190768
-0.253653
-0.295234
-0.311378
-0.305496
1.12471
1.02592
0.919324
0.811433
0.706009
0.605148
0.509816
0.419941
0.33498
0.253573
0.174271
0.0946905
0.012469
-0.0743491
-0.164062
-0.25252
-0.327223
-0.375122
-0.383309
1.20385
1.07822
0.950044
0.825055
0.706006
0.594053
0.48944
0.391648
0.299917
0.212866
0.129033
0.0460443
-0.0390617
-0.130308
-0.230431
-0.342213
-0.460196
-0.573536
-0.661733
1.25059
1.11397
0.984677
0.86612
0.758464
0.66084
0.571946
0.490397
0.414976
0.34449
0.278052
0.214573
0.15277
0.090629
0.0253571
-0.0487956
-0.137301
-0.246384
-0.37819
1.28349
1.14302
1.01848
0.908289
0.809924
0.721223
0.640247
0.565508
0.495927
0.430598
0.369068
0.311043
0.256263
0.204704
0.156609
0.11165
0.0692079
0.027041
-0.0191773
1.21067
1.05061
0.914687
0.797529
0.695087
0.6045
0.523432
0.450121
0.383263
0.321703
0.264771
0.211989
0.162927
0.11749
0.0760211
0.0389205
0.00699512
-0.0187417
-0.0378277
1.05956
0.914766
0.793628
0.690496
0.601306
0.523145
0.453721
0.391308
0.33467
0.28276
0.234976
0.190903
0.150148
0.112545
0.0781666
0.0469925
0.0191068
-0.0052914
-0.0262855
0.878016
0.757095
0.655567
0.569336
0.495124
0.430423
0.373249
0.322084
0.275849
0.233633
0.194894
0.159245
0.126292
0.095814
0.0677692
0.0420426
0.0186299
-0.00231165
-0.0208289
0.659727
0.566802
0.489512
0.424445
0.368867
0.320695
0.278325
0.24054
0.206487
0.17545
0.146999
0.120821
0.0965924
0.0741213
0.0533608
0.0342192
0.0167069
0.000977624
-0.0129718
0.414876
0.352948
0.30305
0.261856
0.227089
0.19718
0.171002
0.147732
0.126805
0.107754
0.0902962
0.0742218
0.0593155
0.0454439
0.0325688
0.0206287
0.00963322
-0.000303141
-0.00915771
0.159102
0.134012
0.114532
0.0986744
0.0853431
0.0738782
0.0638432
0.0549307
0.0469321
0.0396738
0.0330449
0.026959
0.0213258
0.0160824
0.011198
0.00663446
0.00237942
-0.00153735
-0.00511068
-0.159026
-0.133841
-0.114297
-0.0983964
-0.0850386
-0.0735597
-0.0635209
-0.0546129
-0.0466261
-0.0393857
-0.0327797
-0.0267213
-0.0211195
-0.0159107
-0.0110636
-0.00653945
-0.0023251
0.00155083
0.00508403
-0.414804
-0.352797
-0.302844
-0.261612
-0.226823
-0.196904
-0.170725
-0.147462
-0.126548
-0.107516
-0.0900817
-0.0740351
-0.0591602
-0.0453231
-0.032485
-0.0205836
-0.00962777
0.000269129
0.00908553
-0.659656
-0.566655
-0.48931
-0.424204
-0.368599
-0.320413
-0.278038
-0.240255
-0.206211
-0.175189
-0.146758
-0.120604
-0.0964022
-0.0739599
-0.0532293
-0.034118
-0.0166353
-0.000934119
0.0129895
-0.877962
-0.756991
-0.655426
-0.569168
-0.494938
-0.430228
-0.373053
-0.321893
-0.275669
-0.233469
-0.194749
-0.159123
-0.126197
-0.0957454
-0.0677281
-0.0420285
-0.0186416
0.00227607
0.0207719
-1.05953
-0.914698
-0.793531
-0.690376
-0.60117
-0.523
-0.453573
-0.391163
-0.334534
-0.282638
-0.234872
-0.19082
-0.150088
-0.112509
-0.0781547
-0.0470029
-0.0191361
0.00524866
0.0262362
-1.21066
-1.05059
-0.914644
-0.797467
-0.695012
-0.604418
-0.523349
-0.450045
-0.383198
-0.321656
-0.264745
-0.211989
-0.162955
-0.11755
-0.0761128
-0.0390397
-0.00712959
0.0186127
0.0377282
-1.28349
-1.14291
-1.01823
-0.907892
-0.809382
-0.72055
-0.639459
-0.564623
-0.494966
-0.429578
-0.368004
-0.309945
-0.255138
-0.203555
-0.155446
-0.110499
-0.0681367
-0.0261928
0.0195662
-1.25081
-1.11456
-0.985648
-0.86746
-0.760144
-0.662828
-0.574202
-0.492884
-0.417659
-0.347342
-0.281058
-0.217734
-0.15611
-0.0942032
-0.0292576
0.0444348
0.132356
0.240813
0.372158
-1.20376
-1.07796
-0.949607
-0.824438
-0.705222
-0.593123
-0.488388
-0.390501
-0.2987
-0.211604
-0.127748
-0.0447583
0.040328
0.13154
0.231642
0.343467
0.461665
0.575514
0.664604
-1.12479
-1.02611
-0.919593
-0.811774
-0.706406
-0.605585
-0.510281
-0.420424
-0.335475
-0.254075
-0.174781
-0.0952088
-0.0129927
0.073839
0.163614
0.252224
0.327184
0.375404
0.38382
-0.99906
-0.918135
-0.825953
-0.72896
-0.631432
-0.536248
-0.445079
-0.358416
-0.276007
-0.196693
-0.119171
-0.0415621
0.0371189
0.116152
0.190636
0.253683
0.295454
0.311753
0.305949
-0.861498
-0.794176
-0.715465
-0.630006
-0.541862
-0.454317
-0.369578
-0.288645
-0.211623
-0.137706
-0.0660317
0.00438387
0.0730271
0.137346
0.191727
0.230815
0.250391
0.252779
0.244127
-0.712942
-0.661694
-0.5969
-0.523377
-0.445296
-0.366352
-0.28928
-0.215633
-0.145943
-0.0798568
-0.0170456
0.0426853
0.097905
0.145653
0.181563
0.203234
0.210621
0.208205
0.201024
-0.51395
-0.476834
-0.426457
-0.367461
-0.303876
-0.239272
-0.176355
-0.116755
-0.0610897
-0.00921949
0.0388315
0.0828453
0.121155
0.151379
0.170998
0.17998
0.180105
0.175481
0.169152
-0.320802
-0.294968
-0.257262
-0.211676
-0.162111
-0.112016
-0.063966
-0.0195384
0.0207225
0.0569279
0.0889457
0.116598
0.138543
0.153418
0.160325
0.160536
0.156126
0.150118
0.14411
-0.106193
-0.0873152
-0.0599742
-0.0277615
0.00586378
0.0380172
0.0668499
0.0913783
0.111634
0.128116
0.140945
0.150354
0.155558
0.156145
0.152203
0.145355
0.137183
0.129607
0.123255
0.109262
0.124534
0.144059
0.163959
0.181337
0.194174
0.201767
0.204149
0.202319
0.19747
0.190282
0.181563
0.1711
0.159115
0.146088
0.133348
0.121715
0.112123
0.104446
0.324506
0.359831
0.396213
0.426564
0.446119
0.452201
0.444634
0.42494
0.39613
0.361559
0.324201
0.286668
0.25044
0.21685
0.186807
0.160822
0.138324
0.117644
0.0948589
0.485397
0.478256
0.460882
0.433604
0.398325
0.357723
0.314862
0.272501
0.232996
0.197762
0.167399
0.141781
0.120209
0.101874
0.0859855
0.0715953
0.0573544
0.040915
0.0182543
0.663687
0.676962
0.676351
0.660598
0.630101
0.586878
0.534056
0.47541
0.41487
0.355576
0.300216
0.25027
0.2063
0.168198
0.135374
0.106432
0.0794303
0.0516909
0.0198963
0.820432
0.830057
0.820435
0.792247
0.747221
0.688564
0.62032
0.547026
0.473063
0.401808
0.336125
0.277412
0.226123
0.181874
0.143747
0.110024
0.0787863
0.0480225
0.0163151
0.960515
0.962505
0.941774
0.900589
0.841692
0.769252
0.688044
0.603105
0.51902
0.439149
0.36628
0.301576
0.24526
0.196663
0.154643
0.11734
0.0829661
0.0498812
0.0169402
1.09345
1.08344
1.04923
0.993777
0.920663
0.835006
0.74222
0.647642
0.555813
0.469835
0.392198
0.32367
0.264141
0.212637
0.167821
0.12771
0.0905495
0.0547196
0.0188354
1.21197
1.18674
1.13764
1.06727
0.980278
0.882785
0.780637
0.679162
0.582549
0.493378
0.413639
0.343576
0.282692
0.229689
0.18305
0.140651
0.100698
0.0614834
0.0214312
1.27765
1.24111
1.17948
1.09735
1.00098
0.897134
0.79158
0.689139
0.593263
0.505771
0.428022
0.359703
0.29996
0.247236
0.199901
0.155735
0.112937
0.0697673
0.0245987
1.35606
1.30538
1.22729
1.13052
1.02305
0.912068
0.803027
0.699982
0.605457
0.520351
0.445284
0.379304
0.321134
0.268907
0.220839
0.174558
0.128237
0.0801083
0.0285297
1.42161
1.34906
1.25239
1.14172
1.02565
0.911012
0.802346
0.702475
0.612707
0.532869
0.462793
0.400881
0.34547
0.294412
0.245811
0.197167
0.146672
0.0925777
0.0332712
1.45278
1.35742
1.24395
1.12319
1.0037
0.891127
0.788385
0.696635
0.615763
0.544471
0.481855
0.425737
0.374159
0.324766
0.275632
0.224173
0.168668
0.107435
0.0389224
1.45148
1.33494
1.20766
1.08178
0.96483
0.860214
0.768598
0.689218
0.62051
0.560113
0.506539
0.457137
0.409759
0.361924
0.311751
0.256608
0.194916
0.125089
0.0456252
1.4389
1.29887
1.16028
1.03408
0.924754
0.832495
0.755343
0.690627
0.635482
0.586652
0.542271
0.499312
0.455537
0.408378
0.356049
0.295865
0.226405
0.14616
0.053622
1.39853
1.23684
1.09469
0.976698
0.882455
0.808403
0.749848
0.702485
0.662447
0.625862
0.590741
0.553825
0.5129
0.465379
0.409617
0.342879
0.263902
0.171216
0.0632065
1.25836
1.09733
0.971778
0.879935
0.81561
0.7713
0.739832
0.715842
0.694987
0.673221
0.6488
0.618494
0.580322
0.531838
0.471673
0.39713
0.307145
0.200262
0.0745569
1.12165
0.972724
0.873962
0.815471
0.784494
0.770376
0.764531
0.761454
0.756926
0.747067
0.730553
0.704276
0.666478
0.61482
0.548144
0.463672
0.360343
0.236421
0.0891007
0.954653
0.83534
0.781437
0.768099
0.776658
0.795284
0.81556
0.832801
0.843471
0.844198
0.834169
0.810557
0.771823
0.715716
0.64119
0.545247
0.426504
0.282471
0.108575
0.676673
0.639456
0.661972
0.711822
0.770364
0.827973
0.878329
0.918403
0.945855
0.958205
0.955176
0.934541
0.894987
0.834438
0.751879
0.644011
0.508652
0.341861
0.135743
0.407842
0.487434
0.596345
0.709175
0.814123
0.906246
0.982584
1.04194
1.08334
1.10534
1.10791
1.08968
1.0493
0.984749
0.894641
0.774951
0.621578
0.427546
0.178534
0.150773
0.365566
0.563756
0.738011
0.88744
1.01245
1.11393
1.19227
1.24795
1.28075
1.29062
1.27736
1.23942
1.17473
1.08101
0.952879
0.782564
0.557356
0.251309
-0.0427453
0.296966
0.573321
0.801117
0.990371
1.14559
1.27127
1.36888
1.44036
1.48697
1.50839
1.50608
1.47812
1.42233
1.33482
1.20792
1.02729
0.769739
0.388662
-0.135588
0.287189
0.620511
0.891065
1.11494
1.2981
1.44792
1.56645
1.65728
1.72359
1.76485
1.78491
1.78174
1.75334
1.69368
1.5917
1.42243
1.14445
0.675723
-0.119318
0.329264
0.695058
0.997334
1.25086
1.46016
1.6346
1.77681
1.89237
1.9874
2.06179
2.12316
2.17086
2.20491
2.21782
2.19571
2.09908
1.8579
1.33355
-0.0216475
0.405262
0.783756
1.10892
1.38772
1.62131
1.82049
1.98917
2.13563
2.27087
2.39692
2.52766
2.66892
2.82889
3.0042
3.18736
3.32849
3.32479
2.9572
0.0972593
0.487812
0.872225
1.21632
1.51685
1.77228
1.99445
2.19106
2.37299
2.5609
2.76122
2.99889
3.30276
3.71372
4.27927
5.11672
6.40588
8.53447
12.3043
)
;

boundaryField
{
    up
    {
        type            calculated;
        value           nonuniform List<scalar> 
84
(
-12.3043
-2.9572
-1.33355
-0.675725
-0.388664
-0.25131
-0.178534
-0.135743
-0.108574
-0.0890997
-0.074556
-0.0632061
-0.0536218
-0.0456254
-0.0389227
-0.0332716
-0.02853
-0.024599
-0.0214315
-0.0188357
-0.0169405
-0.0163156
-0.0198978
-0.0182866
-0.0804108
-0.0970269
-0.11551
-0.135354
-0.158817
-0.188369
-0.227529
-0.280263
-0.343721
-0.651326
-0.389913
-0.0198572
-0.0377164
-0.0262012
-0.0207811
-0.0129544
-0.00915168
-0.005111
0.00508435
0.00907964
0.0129723
0.0207244
0.0261523
0.0376173
0.0202361
0.383737
0.65471
0.344182
0.280655
0.227818
0.188593
0.159
0.135513
0.115661
0.0971597
0.0808068
0.0182543
0.0198963
0.0163151
0.0169402
0.0188354
0.0214312
0.0245987
0.0285297
0.0332712
0.0389224
0.0456252
0.053622
0.0632065
0.0745569
0.0891007
0.108575
0.135743
0.178534
0.251309
0.388662
0.675723
1.33355
2.9572
12.3043
)
;
    }
    low
    {
        type            calculated;
        value           nonuniform List<scalar> 
84
(
-0.087614
0.0362711
0.14292
0.161229
0.0588592
-0.153748
-0.432346
-0.717819
-1.00224
-1.16076
-1.29272
-1.42623
-1.45079
-1.4537
-1.44893
-1.40879
-1.33554
-1.25511
-1.18455
-1.05701
-0.919626
-0.778598
-0.622713
-0.449538
-0.296345
-0.0992117
0.0946013
0.292067
0.477178
0.676294
0.83163
0.974939
1.10891
1.19873
1.25393
1.29679
1.23439
1.08492
0.900628
0.677717
0.426789
0.164083
-0.164006
-0.426715
-0.677641
-0.900566
-1.08488
-1.23437
-1.29677
-1.25411
-1.19864
-1.10897
-0.97498
-0.831676
-0.67634
-0.477221
-0.292114
-0.0946416
0.0991206
0.296407
0.449472
0.622746
0.778604
0.919631
1.05701
1.18455
1.25511
1.33554
1.40879
1.44893
1.4537
1.4508
1.42622
1.29272
1.16077
1.00225
0.717826
0.432353
0.153753
-0.0588569
-0.16123
-0.142922
-0.0362725
0.0876144
)
;
    }
    left
    {
        type            calculated;
        value           nonuniform List<scalar> 
19
(
-0.0864093
-0.46857
-0.860965
-1.2171
-1.53067
-1.79808
-2.03201
-2.24146
-2.43723
-2.64509
-2.87129
-3.14377
-3.49995
-3.99425
-4.68619
-5.74048
-7.40662
-10.2262
-10.6717
)
;
    }
    right
    {
        type            calculated;
        value           nonuniform List<scalar> 
19
(
0.0864102
0.468571
0.860966
1.2171
1.53067
1.79808
2.03201
2.24146
2.43723
2.64509
2.87129
3.14377
3.49994
3.99425
4.68618
5.74048
7.40661
10.2262
10.6717
)
;
    }
    frontAndBackPlanes
    {
        type            empty;
    }
}


// ************************************************************************* //
