/*--------------------------------*- C++ -*----------------------------------*\
  =========                 |
  \\      /  F ield         | OpenFOAM: The Open Source CFD Toolbox
   \\    /   O peration     | Website:  https://openfoam.org
    \\  /    A nd           | Version:  7
     \\/     M anipulation  |
\*---------------------------------------------------------------------------*/
FoamFile
{
    version     2.0;
    format      ascii;
    class       volScalarField;
    location    "0.142";
    object      T;
}
// * * * * * * * * * * * * * * * * * * * * * * * * * * * * * * * * * * * * * //

dimensions      [0 0 0 1 0 0 0];

internalField   nonuniform List<scalar> 
1596
(
3.98443
3.94003
3.89539
3.8546
3.81911
3.78893
3.76356
3.74148
3.72152
3.70097
3.6777
3.64875
3.60821
3.54842
3.45811
3.3132
3.06965
2.63979
1.84779
3.93301
3.79549
3.66821
3.55543
3.45838
3.3762
3.30718
3.24801
3.1956
3.14465
3.09056
3.02761
2.94636
2.83585
2.68328
2.46626
2.15175
1.6842
0.958927
3.87312
3.64349
3.44085
3.26508
3.11523
2.98907
2.88363
2.79442
2.7171
2.64515
2.5728
2.49321
2.39628
2.27095
2.10555
1.88221
1.57809
1.1598
0.566511
3.81551
3.50163
3.23231
3.00193
2.80686
2.64339
2.50746
2.3938
2.29732
2.21099
2.12858
2.04293
1.94425
1.82224
1.6667
1.46342
1.19631
0.844952
0.373683
3.76964
3.38525
3.05899
2.78158
2.54739
2.35159
2.18933
2.05489
1.94276
1.84577
1.75756
1.671
1.57687
1.46571
1.3285
1.15351
0.928635
0.640449
0.267109
3.74093
3.30364
2.93083
2.61324
2.34471
2.12003
1.93398
1.78068
1.65444
1.54814
1.45547
1.36943
1.28138
1.18261
1.06495
0.918271
0.732751
0.498583
0.201272
3.72916
3.25775
2.84921
2.49794
2.19912
1.94807
1.73972
1.56835
1.42828
1.31257
1.21502
1.12882
1.04583
0.957986
0.857715
0.735993
0.584323
0.394744
0.156624
3.72988
3.24146
2.80792
2.42953
2.10435
1.82918
1.59972
1.41067
1.25661
1.13083
1.02732
0.939411
0.859456
0.779889
0.693629
0.592458
0.468729
0.315456
0.124071
3.73912
3.24739
2.79852
2.3993
2.05167
1.75468
1.50528
1.29898
1.13076
0.994259
0.883631
0.792412
0.713319
0.639219
0.56344
0.47841
0.377113
0.253148
0.0991189
3.74966
3.26278
2.8066
2.39282
2.02722
1.71143
1.44408
1.22169
1.03985
0.892618
0.774366
0.678802
0.598954
0.528049
0.459766
0.387088
0.303531
0.203136
0.0792989
3.75745
3.27796
2.81985
2.39703
2.01815
1.68725
1.4047
1.16821
0.974111
0.816927
0.691282
0.591059
0.50954
0.440255
0.377188
0.313817
0.244143
0.162617
0.0632611
3.76615
3.29501
2.83746
2.40889
2.01999
1.67685
1.38145
1.1327
0.927717
0.761514
0.628976
0.524137
0.440472
0.37174
0.312174
0.255673
0.196678
0.130033
0.0503125
3.77366
3.31059
2.85465
2.42235
2.02591
1.673
1.36706
1.10808
0.893896
0.720014
0.581544
0.472644
0.386916
0.318281
0.261158
0.209791
0.159005
0.104019
0.0399206
3.7773
3.3197
2.86526
2.43054
2.02865
1.66844
1.35445
1.08759
0.866344
0.686594
0.543646
0.431736
0.344544
0.276091
0.220933
0.173593
0.129222
0.0833879
0.0316483
3.77969
3.32468
2.87037
2.43322
2.02685
1.6609
1.34077
1.06804
0.841664
0.657811
0.511892
0.398155
0.310299
0.24239
0.189068
0.14507
0.105819
0.0671872
0.0251483
3.78163
3.32718
2.87126
2.43081
2.02001
1.64913
1.32416
1.04715
0.817335
0.631018
0.483599
0.369258
0.281645
0.214815
0.163444
0.122428
0.0874091
0.0545195
0.0200884
3.78199
3.32604
2.86685
2.42209
2.0066
1.63126
1.30251
1.02265
0.791022
0.603873
0.456466
0.342814
0.256451
0.191369
0.142249
0.104105
0.0727564
0.044562
0.0161536
3.78138
3.3221
2.85805
2.40779
1.98703
1.60732
1.27546
0.99387
0.761787
0.575254
0.429239
0.317484
0.233335
0.170678
0.124168
0.0889123
0.0608847
0.0366404
0.0130746
3.78286
3.32027
2.85013
2.3929
1.96564
1.5808
1.24562
0.962602
0.730728
0.545672
0.401966
0.29296
0.211733
0.152011
0.108389
0.0760454
0.0510855
0.0302413
0.0106374
3.78554
3.32055
2.84383
2.37849
1.94355
1.5527
1.21377
0.929341
0.698067
0.51511
0.374421
0.268847
0.191118
0.134748
0.09425
0.0648536
0.0427871
0.0249477
0.00866741
3.78729
3.32015
2.83689
2.36305
1.91984
1.5225
1.17966
0.89398
0.663735
0.483471
0.346444
0.244903
0.171162
0.11849
0.0812997
0.0548749
0.0355688
0.0204463
0.00703232
3.7895
3.32066
2.83109
2.3486
1.89672
1.49245
1.14535
0.858313
0.629186
0.451849
0.318781
0.22156
0.15204
0.103207
0.069365
0.0458464
0.029141
0.0164979
0.0056303
3.79288
3.32351
2.82824
2.33726
1.87652
1.46493
1.11317
0.824415
0.596154
0.421589
0.292387
0.199423
0.134057
0.0889739
0.0583463
0.0375482
0.0232141
0.0128188
0.00432277
3.79711
3.32857
2.82859
2.32975
1.86043
1.44151
1.08485
0.794
0.566173
0.393932
0.268167
0.179061
0.117491
0.075835
0.0481146
0.0297154
0.0174029
0.0089153
0.00265949
3.80502
3.34648
2.85177
2.35417
1.88312
1.46063
1.09964
0.804518
0.572959
0.397737
0.26977
0.179157
0.116646
0.0744726
0.0465285
0.028084
0.0158537
0.00761922
0.00197159
3.8143
3.37236
2.8914
2.40352
1.9375
1.5155
1.15125
0.850227
0.611347
0.428452
0.293227
0.196292
0.128632
0.0825204
0.0517344
0.031335
0.0177906
0.00865703
0.00232265
3.81939
3.38973
2.92122
2.44397
1.98531
1.56669
1.20192
0.897186
0.652399
0.462473
0.320007
0.216325
0.142861
0.0921099
0.0578733
0.0350621
0.0199074
0.00971149
0.00263862
3.82035
3.39805
2.94006
2.47392
2.02476
1.61249
1.25031
0.944538
0.695793
0.499954
0.350604
0.239931
0.160025
0.103825
0.0653582
0.0395138
0.0223315
0.0108389
0.00293706
3.81886
3.40046
2.95156
2.49691
2.05894
1.65546
1.29848
0.994035
0.743117
0.542436
0.38655
0.268601
0.181492
0.118807
0.0750342
0.0452384
0.025376
0.0121956
0.00326795
3.81533
3.39894
2.95866
2.51613
2.09075
1.69798
1.3483
1.04714
0.79564
0.591158
0.429161
0.303752
0.208703
0.138382
0.0879592
0.0529432
0.0294294
0.0139568
0.00368101
3.81105
3.39677
2.96558
2.53586
2.12409
1.74331
1.40237
1.10592
0.855076
0.647695
0.480046
0.347119
0.243513
0.164391
0.105733
0.0637704
0.0351134
0.0163619
0.00423132
3.80896
3.39862
2.97736
2.56098
2.16327
1.79504
1.46357
1.17267
0.923336
0.713802
0.541016
0.400741
0.288272
0.199426
0.13092
0.079833
0.0437199
0.019869
0.00495475
3.80776
3.40267
2.99231
2.58998
2.20702
1.85211
1.53104
1.2468
1.00018
0.789696
0.612862
0.466122
0.345325
0.24673
0.167493
0.105274
0.0586354
0.026239
0.00590704
3.80718
3.40866
3.01024
2.6228
2.25534
1.91459
1.60493
1.32854
1.08603
0.876087
0.696745
0.545082
0.417456
0.31044
0.221308
0.147709
0.0884361
0.0431226
0.0110106
3.80612
3.41284
3.02452
2.65006
2.29642
1.96865
1.66989
1.40159
1.16408
0.956128
0.776124
0.621654
0.489554
0.376744
0.280553
0.198289
0.128061
0.0690038
0.0204968
3.80142
3.40627
3.02126
2.65341
2.30799
1.98869
1.69766
1.43568
1.20271
0.997374
0.818156
0.662844
0.52854
0.412462
0.312231
0.22526
0.149564
0.0838232
0.0265715
3.79413
3.39269
3.00682
2.64153
2.30061
1.98661
1.70086
1.44351
1.21415
1.01119
0.833052
0.6776
0.542057
0.423854
0.320935
0.231048
0.152643
0.0848786
0.0266199
3.78871
3.38285
2.99674
2.63383
2.29674
1.98715
1.70568
1.45206
1.22556
1.02443
0.847076
0.691431
0.55484
0.43492
0.329861
0.237639
0.15694
0.0871662
0.0273235
3.78565
3.37726
2.99129
2.6303
2.29612
1.98981
1.71153
1.46061
1.23615
1.03625
0.859331
0.703372
0.565816
0.444421
0.337566
0.243388
0.160749
0.0892452
0.0279949
3.78356
3.37347
2.9877
2.62818
2.29617
1.99229
1.71632
1.46737
1.24437
1.04533
0.868671
0.712426
0.574103
0.451566
0.343333
0.247667
0.163562
0.0907664
0.0284877
3.78198
3.37053
2.98482
2.62628
2.29576
1.99353
1.71916
1.47156
1.24956
1.05111
0.874643
0.71822
0.579395
0.456102
0.34696
0.250314
0.165257
0.0916489
0.0287647
3.78009
3.36737
2.98165
2.62376
2.2942
1.99302
1.71964
1.47289
1.25155
1.05354
0.877277
0.720859
0.58186
0.458253
0.348706
0.251609
0.166101
0.0920992
0.0289132
3.7801
3.36739
2.98168
2.62379
2.29423
1.99306
1.71968
1.47293
1.25159
1.05357
0.877308
0.720888
0.581886
0.458276
0.348725
0.251624
0.166112
0.0921056
0.0289154
3.782
3.37059
2.98489
2.62637
2.29586
1.99364
1.71927
1.47167
1.24966
1.05122
0.87474
0.718309
0.579475
0.456172
0.347018
0.25036
0.165291
0.0916692
0.0287718
3.78359
3.37356
2.98782
2.62832
2.29634
1.99246
1.7165
1.46755
1.24455
1.0455
0.868827
0.712569
0.574231
0.451676
0.343425
0.247739
0.163614
0.090798
0.0284986
3.7857
3.37737
2.99145
2.63049
2.29634
1.99005
1.71177
1.46085
1.23639
1.03648
0.859539
0.703562
0.565986
0.444567
0.337688
0.243484
0.160818
0.0892868
0.0280092
3.78876
3.38299
2.99694
2.63408
2.29702
1.98744
1.70598
1.45236
1.22585
1.02471
0.847333
0.691665
0.555048
0.435099
0.33001
0.237756
0.157024
0.0872164
0.0273407
3.79419
3.39285
3.00705
2.64181
2.30092
1.98695
1.70121
1.44386
1.21449
1.01151
0.833349
0.677869
0.542295
0.424057
0.321102
0.231177
0.152734
0.0849322
0.0266377
3.80149
3.40645
3.02152
2.65373
2.30835
1.98908
1.69806
1.43608
1.2031
0.997736
0.818489
0.663142
0.5288
0.412679
0.312404
0.225387
0.149649
0.0838695
0.026586
3.80621
3.41309
3.02492
2.65059
2.29705
1.96934
1.67061
1.40234
1.16482
0.95684
0.776799
0.622284
0.490133
0.37727
0.281025
0.198702
0.128402
0.069245
0.0205957
3.80729
3.40896
3.01072
2.62343
2.25609
1.91542
1.6058
1.32943
1.0869
0.876924
0.697531
0.545808
0.418115
0.311029
0.221819
0.148134
0.0887586
0.0433256
0.0110817
3.80784
3.40293
2.99273
2.59054
2.20768
1.85284
1.5318
1.24756
1.00092
0.790389
0.613497
0.46669
0.345822
0.247151
0.167833
0.105527
0.0587995
0.0263195
0.00592336
3.80904
3.39886
2.97777
2.56151
2.1639
1.79573
1.46428
1.17338
0.92401
0.714423
0.541571
0.401223
0.288678
0.199754
0.13117
0.0800066
0.0438236
0.019917
0.00496599
3.81112
3.397
2.96596
2.53637
2.12468
1.74395
1.40304
1.10657
0.855687
0.648247
0.480527
0.347525
0.243844
0.164649
0.105921
0.0638953
0.0351861
0.0163959
0.00423969
3.81539
3.39914
2.95901
2.51659
2.0913
1.69858
1.34892
1.04774
0.796188
0.591643
0.429575
0.304093
0.208973
0.138586
0.0881029
0.0530366
0.0294835
0.0139825
0.00368753
3.81892
3.40065
2.95187
2.49734
2.05945
1.65601
1.29904
0.994567
0.743601
0.542857
0.386902
0.268885
0.181711
0.118969
0.075146
0.0453103
0.0254177
0.0122157
0.00327325
3.8204
3.39822
2.94034
2.47431
2.02522
1.61299
1.2508
0.945007
0.696213
0.500315
0.350901
0.240166
0.160203
0.103954
0.0654466
0.0395706
0.0223648
0.0108554
0.00294162
3.81943
3.38987
2.92147
2.44431
1.98572
1.56712
1.20235
0.897591
0.652759
0.462778
0.320255
0.216519
0.143007
0.0922143
0.0579449
0.0351085
0.0199353
0.00972588
0.00264288
3.81433
3.37248
2.89162
2.40381
1.93785
1.51588
1.15162
0.850571
0.611651
0.428708
0.293434
0.196453
0.128753
0.0826069
0.0517941
0.0313744
0.017815
0.0086703
0.002327
3.80502
3.34651
2.85182
2.35425
1.88321
1.46074
1.09975
0.804624
0.573055
0.39782
0.269838
0.179211
0.116687
0.0745022
0.0465482
0.0280958
0.0158594
0.00762068
0.00197099
3.79709
3.32854
2.82854
2.32968
1.86036
1.44144
1.08478
0.793938
0.566121
0.39389
0.268135
0.179037
0.117474
0.0758217
0.0481043
0.0297072
0.0173963
0.00891029
0.0026568
3.79288
3.3235
2.82823
2.33725
1.87651
1.46493
1.11318
0.824419
0.596161
0.421597
0.292396
0.199431
0.134064
0.0889795
0.0583504
0.0375511
0.0232158
0.0128196
0.00432277
3.7895
3.32065
2.83109
2.34859
1.89672
1.49245
1.14536
0.858317
0.629192
0.451856
0.318787
0.221566
0.152044
0.103211
0.0693679
0.0458484
0.0291423
0.0164985
0.00563043
3.78728
3.32015
2.83689
2.36305
1.91984
1.52251
1.17966
0.893984
0.663739
0.483476
0.346449
0.244906
0.171165
0.118492
0.081302
0.0548767
0.0355701
0.020447
0.00703252
3.78554
3.32055
2.84382
2.37849
1.94355
1.5527
1.21377
0.929344
0.698071
0.515113
0.374424
0.26885
0.191121
0.134751
0.0942522
0.0648555
0.0427886
0.0249486
0.00866767
3.78286
3.32027
2.85013
2.3929
1.96564
1.5808
1.24562
0.962605
0.730731
0.545674
0.401968
0.292962
0.211735
0.152013
0.108392
0.0760476
0.0510873
0.0302424
0.0106377
3.78138
3.3221
2.85805
2.40779
1.98703
1.60732
1.27546
0.993871
0.761789
0.575256
0.429241
0.317486
0.233337
0.170681
0.124171
0.088915
0.0608868
0.0366418
0.013075
3.78199
3.32604
2.86685
2.42209
2.0066
1.63126
1.30251
1.02265
0.791023
0.603874
0.456467
0.342816
0.256454
0.191372
0.142253
0.104108
0.0727588
0.0445634
0.016154
3.78163
3.32718
2.87126
2.43081
2.02001
1.64913
1.32416
1.04715
0.817336
0.631019
0.4836
0.36926
0.281648
0.214818
0.163448
0.122432
0.0874115
0.0545208
0.0200887
3.77969
3.32468
2.87037
2.43322
2.02685
1.6609
1.34077
1.06804
0.841665
0.657812
0.511894
0.398157
0.310302
0.242393
0.189072
0.145073
0.105821
0.0671882
0.0251485
3.77731
3.3197
2.86527
2.43055
2.02866
1.66844
1.35446
1.08759
0.866344
0.686595
0.543648
0.431738
0.344547
0.276094
0.220936
0.173595
0.129223
0.0833882
0.0316483
3.77366
3.31059
2.85465
2.42235
2.02591
1.673
1.36706
1.10808
0.893896
0.720015
0.581546
0.472646
0.386919
0.318283
0.26116
0.209792
0.159005
0.104018
0.0399203
3.76615
3.29502
2.83746
2.40889
2.02
1.67685
1.38145
1.1327
0.927717
0.761515
0.628978
0.524139
0.440474
0.371741
0.312174
0.255672
0.196676
0.130031
0.0503121
3.75745
3.27796
2.81985
2.39704
2.01815
1.68725
1.4047
1.16821
0.974111
0.816927
0.691283
0.59106
0.50954
0.440254
0.377186
0.313814
0.24414
0.162615
0.0632608
3.74966
3.26278
2.80661
2.39282
2.02722
1.71143
1.44408
1.22169
1.03985
0.892617
0.774365
0.678801
0.598951
0.528045
0.459761
0.387083
0.303526
0.203134
0.0792989
3.73912
3.24739
2.79852
2.3993
2.05166
1.75468
1.50528
1.29898
1.13076
0.994257
0.883628
0.792409
0.713314
0.639213
0.563433
0.478403
0.377109
0.253146
0.0991193
3.72988
3.24146
2.80791
2.42952
2.10434
1.82918
1.59971
1.41067
1.2566
1.13083
1.02731
0.939405
0.859449
0.779881
0.693621
0.592451
0.468725
0.315455
0.124072
3.72916
3.25775
2.8492
2.49794
2.19912
1.94806
1.73971
1.56834
1.42827
1.31256
1.21502
1.12881
1.04582
0.957977
0.857707
0.735987
0.58432
0.394744
0.156625
3.74093
3.30364
2.93082
2.61323
2.3447
2.12002
1.93397
1.78067
1.65443
1.54813
1.45546
1.36942
1.28137
1.1826
1.06494
0.918267
0.73275
0.498584
0.201273
3.76964
3.38525
3.05899
2.78158
2.54738
2.35158
2.18932
2.05489
1.94275
1.84576
1.75755
1.671
1.57686
1.4657
1.3285
1.15351
0.928637
0.640451
0.26711
3.81551
3.50163
3.23231
3.00193
2.80686
2.64339
2.50745
2.39379
2.29731
2.21098
2.12857
2.04292
1.94425
1.82223
1.6667
1.46342
1.19632
0.844954
0.373683
3.87312
3.64349
3.44085
3.26508
3.11523
2.98907
2.88363
2.79441
2.71709
2.64515
2.5728
2.49321
2.39628
2.27095
2.10555
1.88221
1.57809
1.15981
0.566511
3.93301
3.79549
3.66821
3.55543
3.45838
3.3762
3.30718
3.24801
3.1956
3.14465
3.09056
3.0276
2.94635
2.83585
2.68328
2.46626
2.15175
1.6842
0.958927
3.98443
3.94003
3.89539
3.8546
3.81911
3.78893
3.76356
3.74148
3.72152
3.70097
3.6777
3.64875
3.60821
3.54842
3.45811
3.3132
3.06965
2.63979
1.84779
)
;

boundaryField
{
    up
    {
        type            fixedValue;
        value           uniform 0;
    }
    low
    {
        type            fixedValue;
        value           uniform 4;
    }
    left
    {
        type            fixedValue;
        value           uniform 4;
    }
    right
    {
        type            fixedValue;
        value           uniform 4;
    }
    frontAndBackPlanes
    {
        type            empty;
    }
}


// ************************************************************************* //
