/*--------------------------------*- C++ -*----------------------------------*\
  =========                 |
  \\      /  F ield         | OpenFOAM: The Open Source CFD Toolbox
   \\    /   O peration     | Website:  https://openfoam.org
    \\  /    A nd           | Version:  7
     \\/     M anipulation  |
\*---------------------------------------------------------------------------*/
FoamFile
{
    version     2.0;
    format      ascii;
    class       volScalarField;
    location    "0.051";
    object      gradTx;
}
// * * * * * * * * * * * * * * * * * * * * * * * * * * * * * * * * * * * * * //

dimensions      [0 -1 0 1 0 0 0];

internalField   nonuniform List<scalar> 
1596
(
-0.84221
-4.20882
-7.33801
-9.82074
-11.6018
-12.7225
-13.3648
-13.6644
-13.7422
-13.7254
-13.622
-13.5276
-13.546
-13.8445
-14.6337
-16.3682
-19.6632
-25.7172
-36.9071
0.279879
-3.23701
-6.23029
-8.55333
-10.2308
-11.3128
-11.9564
-12.269
-12.366
-12.3406
-12.2084
-12.0274
-11.8048
-11.57
-11.3325
-11.1266
-10.8733
-10.3442
-8.92956
1.2269
-2.13243
-4.81209
-6.85601
-8.33813
-9.31691
-9.91747
-10.2277
-10.3448
-10.3419
-10.2396
-10.0755
-9.8296
-9.48399
-9.00131
-8.3498
-7.44688
-6.15588
-4.13974
1.46636
-1.26162
-3.41049
-5.05917
-6.27332
-7.10079
-7.62755
-7.92029
-8.05365
-8.0832
-8.03432
-7.9324
-7.75595
-7.4734
-7.03425
-6.38013
-5.43297
-4.10755
-2.22681
0.838761
-0.890113
-2.34251
-3.50909
-4.40252
-5.04086
-5.46732
-5.72357
-5.85963
-5.91383
-5.91251
-5.8734
-5.78208
-5.60901
-5.30719
-4.81043
-4.04358
-2.93619
-1.3839
-0.476705
-1.11002
-1.80315
-2.44316
-2.98174
-3.39968
-3.69997
-3.89687
-4.01532
-4.07634
-4.10207
-4.10425
-4.07593
-3.99535
-3.82636
-3.50737
-2.96909
-2.14201
-0.94578
-2.13028
-1.83426
-1.81735
-1.93464
-2.10463
-2.27895
-2.42923
-2.54348
-2.62287
-2.67131
-2.70203
-2.72085
-2.72515
-2.70113
-2.62469
-2.44611
-2.10677
-1.5393
-0.669474
-3.76498
-2.8301
-2.24135
-1.89369
-1.7121
-1.63779
-1.62454
-1.63945
-1.66332
-1.68425
-1.70384
-1.7214
-1.73497
-1.73622
-1.71082
-1.62307
-1.42809
-1.06665
-0.469688
-5.38954
-4.10592
-3.0846
-2.32119
-1.78887
-1.44402
-1.23885
-1.12733
-1.07351
-1.05011
-1.04495
-1.04916
-1.05771
-1.06421
-1.06028
-1.02251
-0.919648
-0.704903
-0.318558
-6.3489
-5.03087
-3.81424
-2.79659
-2.01467
-1.45731
-1.08964
-0.863935
-0.735595
-0.667025
-0.634757
-0.622627
-0.621361
-0.624226
-0.625559
-0.610888
-0.560269
-0.440598
-0.205552
-7.15453
-5.86634
-4.55712
-3.36727
-2.38663
-1.6428
-1.12221
-0.783133
-0.577519
-0.460269
-0.398249
-0.368178
-0.355719
-0.352083
-0.351897
-0.346028
-0.322444
-0.259747
-0.12533
-8.01955
-6.78151
-5.41151
-4.07834
-2.9137
-1.98488
-1.30443
-0.842091
-0.549863
-0.376607
-0.280257
-0.229928
-0.205404
-0.194528
-0.190519
-0.186617
-0.175477
-0.144207
-0.0718471
-8.36527
-7.28192
-5.95536
-4.58176
-3.32306
-2.27927
-1.48776
-0.93325
-0.572642
-0.353212
-0.227807
-0.160163
-0.125502
-0.108644
-0.101075
-0.0967495
-0.0907104
-0.0754755
-0.0386582
-8.58974
-7.64687
-6.38321
-4.99953
-3.67921
-2.54975
-1.67029
-1.04012
-0.621945
-0.362853
-0.212267
-0.129633
-0.0864139
-0.0647444
-0.0543921
-0.0491426
-0.0449874
-0.0374381
-0.019566
-8.78517
-7.95369
-6.74466
-5.3569
-3.98836
-2.78919
-1.83708
-1.14404
-0.677935
-0.385775
-0.214294
-0.119336
-0.0692426
-0.0438808
-0.0315266
-0.0254642
-0.0219048
-0.0178174
-0.00936702
-8.81949
-8.11035
-6.96518
-5.59024
-4.1968
-2.95355
-1.9531
-1.21764
-0.719175
-0.404804
-0.219461
-0.116449
-0.0619705
-0.0343451
-0.020841
-0.0143101
-0.0109451
-0.00835933
-0.00430642
-8.66041
-8.07856
-7.01073
-5.66879
-4.27679
-3.01872
-1.99839
-1.24498
-0.733107
-0.409918
-0.219418
-0.113623
-0.0577683
-0.0295215
-0.0157557
-0.00916874
-0.00596462
-0.00405627
-0.0019619
-8.42052
-7.92712
-6.92952
-5.62682
-4.25113
-2.99824
-1.97977
-1.22849
-0.719524
-0.39944
-0.211697
-0.107977
-0.0535315
-0.0261722
-0.0129321
-0.00666315
-0.00370367
-0.00216328
-0.000933792
-8.2568
-7.8343
-6.87706
-5.58732
-4.21001
-2.95382
-1.93665
-1.19159
-0.691283
-0.379704
-0.198847
-0.0999851
-0.0486479
-0.0231353
-0.0109302
-0.00522726
-0.00259286
-0.00131509
-0.000493545
-7.71975
-7.43177
-6.56998
-5.34553
-4.01555
-2.79916
-1.81887
-1.10725
-0.634826
-0.344315
-0.177928
-0.0881955
-0.0422246
-0.0196849
-0.00904724
-0.00414656
-0.0019229
-0.000885997
-0.000295812
-7.02091
-6.85908
-6.10971
-4.97626
-3.72233
-2.57328
-1.65342
-0.993322
-0.561336
-0.299856
-0.152549
-0.0744137
-0.0350372
-0.0160412
-0.00721796
-0.00321755
-0.00143408
-0.000624731
-0.00019395
-6.19368
-6.13023
-5.50035
-4.48381
-3.33825
-2.2868
-1.45132
-0.859264
-0.477857
-0.25099
-0.125501
-0.06016
-0.0278306
-0.0125137
-0.00552413
-0.00241001
-0.00104679
-0.000441985
-0.000132262
-5.15326
-5.16024
-4.66691
-3.81364
-2.83149
-1.92599
-1.20978
-0.707206
-0.387708
-0.200544
-0.0986966
-0.0465556
-0.0211908
-0.00937402
-0.00407044
-0.00174658
-0.000747424
-0.000313879
-9.6521e-05
-3.8493
-3.74776
-3.29914
-2.62656
-1.90263
-1.26457
-0.777271
-0.444968
-0.238913
-0.120938
-0.0581513
-0.0267353
-0.011822
-0.00505926
-0.00211471
-0.00087022
-0.000360245
-0.000153795
-5.48634e-05
-2.58633
-2.75315
-2.64298
-2.27089
-1.75604
-1.23429
-0.796987
-0.477338
-0.267787
-0.141841
-0.0715462
-0.0346876
-0.0162709
-0.00743946
-0.00334438
-0.0014958
-0.000683116
-0.00034186
-0.000205045
-0.854921
-0.901557
-0.901154
-0.83109
-0.700603
-0.540159
-0.382816
-0.250942
-0.153463
-0.0882182
-0.0480565
-0.0250787
-0.0126235
-0.00618013
-0.00296481
-0.00140813
-0.000678205
-0.000361057
-0.00024547
0.903689
0.854359
0.684351
0.454274
0.237178
0.0791912
-0.00995436
-0.0451041
-0.0487109
-0.0389846
-0.0266823
-0.0165966
-0.00964624
-0.00535194
-0.00286959
-0.00150218
-0.000780647
-0.000437251
-0.000305385
2.61529
2.53553
2.20491
1.71177
1.18649
0.734647
0.405717
0.198085
0.0832166
0.0275954
0.0046798
-0.00284709
-0.00412044
-0.00341573
-0.00236438
-0.00148566
-0.00086835
-0.000513147
-0.000359079
4.07354
3.92539
3.45547
2.76691
2.01564
1.33911
0.814352
0.454604
0.233287
0.109684
0.0468601
0.0175231
0.00504869
0.000304513
-0.00112216
-0.0012563
-0.000937213
-0.000599416
-0.000401386
5.45485
5.19069
4.57126
3.71043
2.77516
1.91656
1.22689
0.730844
0.40688
0.212302
0.10421
0.0478989
0.0202314
0.00729093
0.00164609
-0.000516999
-0.000961864
-0.000749078
-0.00045174
6.34199
5.96901
5.25732
4.31538
3.29964
2.35377
1.57176
0.986156
0.584166
0.328067
0.175758
0.0899529
0.043732
0.0195556
0.00731983
0.00140659
-0.000833786
-0.00114002
-0.000656863
7.04829
6.58703
5.79863
4.79989
3.73642
2.73886
1.89617
1.24407
0.777201
0.4644
0.267263
0.148706
0.0799333
0.0407361
0.0186651
0.00623829
7.66702e-05
-0.00202231
-0.00167914
7.58841
7.01974
6.1666
5.13941
4.06495
3.05452
2.18626
1.4949
0.980916
0.62042
0.380954
0.228277
0.133814
0.0759825
0.0405695
0.0181166
0.00456223
-0.00240417
-0.00362005
7.77653
7.07171
6.14967
5.109
4.05395
3.07262
2.22711
1.54552
1.02925
0.658943
0.406896
0.242522
0.13884
0.0743214
0.0339499
0.00690812
-0.011795
-0.024664
-0.0311738
7.74454
7.0031
6.11653
5.15758
4.19699
3.29549
2.49891
1.83177
1.30088
0.897054
0.602829
0.39621
0.25513
0.160501
0.0973031
0.0533612
0.0207001
-0.00631295
-0.0303299
7.63507
6.88196
6.03828
5.14723
4.25795
3.41725
2.66262
2.01647
1.48764
1.07166
0.756468
0.52542
0.360015
0.243702
0.162721
0.105741
0.0644837
0.0328599
0.00631234
6.96255
6.1242
5.26723
4.41565
3.60298
2.86076
2.21194
1.66746
1.22837
0.886332
0.628491
0.439648
0.303838
0.207304
0.138854
0.0895072
0.0528213
0.0245453
0.00175303
5.9286
5.19535
4.45948
3.73897
3.0584
2.44035
1.90078
1.44684
1.07862
0.7892
0.568506
0.404598
0.28477
0.197965
0.135085
0.0886633
0.0532579
0.0252491
0.00209491
4.80594
4.20896
3.60891
3.02507
2.47726
1.98215
1.55083
1.1878
0.892499
0.65919
0.480016
0.345717
0.246415
0.17348
0.119787
0.0794026
0.0479935
0.022695
0.00147745
3.55259
3.10194
2.655
2.22478
1.82404
1.46336
1.1496
0.885303
0.669706
0.498573
0.366341
0.266457
0.191904
0.136531
0.0952479
0.0637637
0.0389456
0.0187387
0.00167358
2.20975
1.91165
1.62802
1.36096
1.11514
0.895303
0.70466
0.544216
0.413241
0.309054
0.228287
0.167005
0.120996
0.0865696
0.0606718
0.0407094
0.0247941
0.0117011
0.000555998
0.840818
0.71751
0.60607
0.503536
0.410329
0.327694
0.25655
0.197076
0.148838
0.110707
0.0813284
0.0591674
0.0426221
0.0303009
0.0210608
0.0139406
0.00824171
0.0035119
-0.000566301
-0.840417
-0.716584
-0.604802
-0.502087
-0.408833
-0.326251
-0.255229
-0.195918
-0.147856
-0.109899
-0.0806778
-0.0586535
-0.0422229
-0.0299961
-0.0208337
-0.0137784
-0.00813587
-0.00345661
0.000574089
-2.20936
-1.91082
-1.62689
-1.35968
-1.11383
-0.894052
-0.703525
-0.54323
-0.412414
-0.30838
-0.227751
-0.166586
-0.120675
-0.0863282
-0.0604956
-0.0405878
-0.0247201
-0.0116701
-0.000565263
-3.55218
-3.1011
-2.65388
-2.22352
-1.82276
-1.46214
-1.14851
-0.884364
-0.668928
-0.497947
-0.36585
-0.266079
-0.191617
-0.136316
-0.0950897
-0.0636505
-0.038869
-0.0186926
-0.00165405
-4.80561
-4.20831
-3.60807
-3.02415
-2.47635
-1.98132
-1.55011
-1.18722
-0.892043
-0.658846
-0.479765
-0.345538
-0.24629
-0.173394
-0.11973
-0.0793672
-0.0479748
-0.0226895
-0.00148281
-5.92834
-5.19485
-4.45883
-3.73827
-3.05773
-2.43978
-1.90032
-1.44651
-1.0784
-0.789069
-0.568438
-0.40457
-0.284766
-0.197974
-0.135099
-0.0886791
-0.0532726
-0.0252604
-0.00209977
-6.96244
-6.1239
-5.26683
-4.41524
-3.60263
-2.86053
-2.21184
-1.66747
-1.22847
-0.886476
-0.628651
-0.439802
-0.303974
-0.207416
-0.138943
-0.0895745
-0.0528683
-0.0245727
-0.00176154
-7.6349
-6.88109
-6.03676
-5.14525
-4.25576
-3.41509
-2.66066
-2.01479
-1.48629
-1.07061
-0.75568
-0.524839
-0.359588
-0.243386
-0.16248
-0.105547
-0.0643217
-0.0327322
-0.00624448
-7.74566
-7.00619
-6.12153
-5.16412
-4.2045
-3.30332
-2.50648
-1.83863
-1.30674
-0.901841
-0.606578
-0.399054
-0.257239
-0.162046
-0.0984426
-0.0542298
-0.0213957
0.00574069
0.0298983
-7.77585
-7.07016
-6.14757
-5.10675
-4.05183
-3.07078
-2.22556
-1.54424
-1.02818
-0.658033
-0.40612
-0.241862
-0.138283
-0.0738524
-0.0335526
-0.00656187
0.0121269
0.0250513
0.0317218
-7.58875
-7.02067
-6.1682
-5.1416
-4.06755
-3.05724
-2.18883
-1.49712
-0.982696
-0.621767
-0.381931
-0.228964
-0.134292
-0.0763126
-0.0407933
-0.0182525
-0.00461876
0.00241033
0.00365818
-7.04847
-6.5876
-5.79975
-4.80156
-3.73846
-2.741
-1.89817
-1.24574
-0.778497
-0.465343
-0.267922
-0.149157
-0.0802422
-0.0409489
-0.018808
-0.00631853
-9.77783e-05
0.00203337
0.00166514
-6.3422
-5.96964
-5.25852
-4.31713
-3.30171
-2.35586
-1.57361
-0.987642
-0.585262
-0.328826
-0.176264
-0.0902851
-0.0439513
-0.0197017
-0.00741421
-0.00145723
0.000821058
0.00114611
0.000639809
-5.45508
-5.1914
-4.57256
-3.71225
-2.77721
-1.91854
-1.22856
-0.732111
-0.407764
-0.21288
-0.104575
-0.0481246
-0.0203716
-0.00737802
-0.00169731
0.000492936
0.000957293
0.00075205
0.000440905
-4.07377
-3.92614
-3.4568
-2.76866
-2.01751
-1.34081
-0.815707
-0.455575
-0.233925
-0.110077
-0.0470924
-0.0176574
-0.00512546
-0.000347091
0.00110126
0.00124971
0.00093835
0.000601598
0.000395951
-2.6156
-2.53642
-2.20634
-1.7135
-1.18819
-0.736077
-0.406775
-0.198788
-0.0836447
-0.0278387
-0.00481122
0.00277901
0.00408685
0.00340112
0.00236056
0.00148757
0.00087185
0.000515224
0.000357067
-0.903985
-0.855273
-0.685739
-0.455814
-0.238564
-0.080253
0.00924186
0.0446764
0.0484779
0.0388688
0.0266299
0.0165761
0.00964079
0.00535342
0.00287402
0.00150716
0.00078449
0.000439197
0.000305188
0.85418
0.899472
0.898265
0.828145
0.698153
0.538411
0.381713
0.250315
0.153138
0.0880635
0.0479896
0.0250535
0.0126168
0.00618087
0.00296794
0.0014113
0.000680349
0.000362053
0.000245728
2.58672
2.75452
2.64513
2.27332
1.75827
1.23603
0.798193
0.478093
0.268225
0.142081
0.0716731
0.0347537
0.0163054
0.00745774
0.00335425
0.00150113
0.000685897
0.000343268
0.000205706
3.84869
3.74589
3.2965
2.62379
1.90021
1.26274
0.77602
0.444185
0.238457
0.12069
0.0580236
0.0266728
0.0117928
0.00504628
0.00210916
0.000867883
0.000359207
0.000153299
5.46947e-05
5.1535
5.1607
4.66748
3.8142
2.83193
1.9263
1.20998
0.707321
0.387772
0.200578
0.0987136
0.0465639
0.0211947
0.00937585
0.00407127
0.00174692
0.00074754
0.000313918
9.65514e-05
6.19368
6.13023
5.50031
4.48376
3.33819
2.28676
1.4513
0.859265
0.477866
0.251001
0.12551
0.0601657
0.027834
0.0125155
0.00552502
0.00241043
0.00104699
0.000442088
0.00013229
7.02091
6.85909
6.10969
4.97622
3.72228
2.57324
1.65341
0.99332
0.561342
0.299864
0.152556
0.0744186
0.0350402
0.0160428
0.00721877
0.00321797
0.00143433
0.000624896
0.000193979
7.71975
7.43178
6.56997
5.34551
4.01552
2.79913
1.81885
1.10724
0.634827
0.344319
0.177933
0.0881998
0.0422275
0.0196867
0.00904824
0.0041472
0.00192343
0.000886418
0.000295908
8.25681
7.83434
6.87709
5.58733
4.21
2.9538
1.93663
1.19158
0.691279
0.379705
0.198851
0.0999888
0.0486508
0.0231373
0.0109315
0.00522842
0.00259407
0.00131614
0.000493805
8.42052
7.92716
6.92956
5.62684
4.25112
2.99822
1.97975
1.22847
0.719517
0.399439
0.2117
0.107981
0.0535347
0.0261747
0.0129342
0.00666541
0.00370641
0.00216571
0.000934375
8.6604
8.07857
7.01076
5.6688
4.27679
3.01871
1.99837
1.24496
0.7331
0.409917
0.219421
0.113627
0.0577721
0.0295247
0.0157591
0.00917336
0.00597058
0.00406144
0.00196301
8.81949
8.11038
6.96522
5.59028
4.19681
2.95354
1.95309
1.21763
0.719169
0.404803
0.219463
0.116452
0.0619741
0.0343492
0.0208469
0.0143194
0.0109572
0.00836914
0.00430813
8.78515
7.9537
6.7447
5.35693
3.98838
2.78919
1.83707
1.14403
0.677928
0.385773
0.214295
0.119338
0.069246
0.0438868
0.0315378
0.0254821
0.0219266
0.0178334
0.0093688
8.58973
7.64689
6.38325
4.99957
3.67924
2.54976
1.67029
1.04011
0.621943
0.362853
0.212268
0.129635
0.0864189
0.0647556
0.0544132
0.0491738
0.0450215
0.0374595
0.019566
8.36527
7.28194
5.9554
4.5818
3.3231
2.2793
1.48778
0.933257
0.572644
0.353212
0.227808
0.160166
0.125512
0.108665
0.10111
0.0967951
0.0907528
0.0754953
0.038653
8.01952
6.78149
5.41152
4.07837
2.91373
1.9849
1.30444
0.842095
0.549863
0.376605
0.280257
0.229933
0.205421
0.194562
0.190567
0.186668
0.175512
0.144209
0.0718328
7.15456
5.86638
4.55716
3.36732
2.38668
1.64283
1.12223
0.783146
0.577525
0.460271
0.398254
0.368192
0.355747
0.352126
0.351945
0.34606
0.322441
0.259713
0.125306
6.34897
5.03091
3.81427
2.79662
2.01469
1.45733
1.08966
0.863948
0.735602
0.66703
0.634767
0.622648
0.621393
0.62426
0.625575
0.610862
0.560195
0.440516
0.205527
5.3896
4.10596
3.08461
2.3212
1.78888
1.44403
1.23886
1.12734
1.07351
1.05011
1.04496
1.04918
1.05773
1.0642
1.06022
1.02239
0.919493
0.704789
0.318548
3.76504
2.83012
2.24136
1.89369
1.71211
1.6378
1.62454
1.63944
1.66332
1.68425
1.70384
1.7214
1.73494
1.73615
1.71067
1.62287
1.4279
1.06655
0.469714
2.13033
1.83429
1.81736
1.93465
2.10463
2.27894
2.42921
2.54347
2.62285
2.67129
2.70201
2.7208
2.72506
2.70098
2.62447
2.44588
2.10662
1.53929
0.669541
0.476738
1.11005
1.80319
2.44318
2.98174
3.39966
3.69994
3.89684
4.01529
4.07631
4.10201
4.10416
4.07578
3.99515
3.82615
3.50723
2.96909
2.14213
0.945868
-0.838747
0.890166
2.34257
3.50913
4.40253
5.04084
5.46729
5.72353
5.85959
5.91377
5.91243
5.87328
5.78193
5.60885
5.3071
4.81048
4.04377
2.9364
1.38396
-1.46637
1.26168
3.41056
5.0592
6.27332
7.10077
7.62752
7.92025
8.0536
8.08314
8.03424
7.9323
7.75585
7.47336
7.03434
6.38036
5.43327
4.10774
2.2268
-1.22692
2.13245
4.8121
6.856
8.3381
9.31688
9.91744
10.2277
10.3448
10.3418
10.2396
10.0755
9.82963
9.48412
9.00155
8.35011
7.44711
6.15592
4.13964
-0.279873
3.23699
6.23022
8.55326
10.2308
11.3128
11.9563
12.269
12.366
12.3406
12.2084
12.0275
11.805
11.5702
11.3327
11.1267
10.8733
10.344
8.92946
0.842231
4.2088
7.33794
9.82066
11.6018
12.7224
13.3648
13.6644
13.7422
13.7255
13.6221
13.5277
13.5461
13.8445
14.6336
16.368
19.663
25.7171
36.9071
)
;

boundaryField
{
    up
    {
        type            calculated;
        value           nonuniform List<scalar> 
84
(
-36.9071
-8.92956
-4.13974
-2.22681
-1.3839
-0.94578
-0.669474
-0.469688
-0.318558
-0.205552
-0.12533
-0.0718471
-0.0386582
-0.019566
-0.00936702
-0.00430642
-0.0019619
-0.000933792
-0.000493545
-0.000295812
-0.00019395
-0.000132262
-9.6521e-05
-5.48634e-05
-0.000155227
-0.000206234
-0.000266232
-0.000318961
-0.000345111
-0.000316953
-0.00022207
-0.000134005
0.000502084
-0.0260431
-0.0288108
0.00647671
0.0019926
0.00227355
0.00160602
0.00174548
0.000598018
-0.000547554
0.000555486
-0.000606893
-0.00172577
-0.00161075
-0.00227773
-0.00200047
-0.00640939
0.0284242
0.0266869
-0.000482639
7.27172e-05
0.000173358
0.000290491
0.000333179
0.000314619
0.000265333
0.000206518
0.000155659
5.46947e-05
9.65514e-05
0.00013229
0.000193979
0.000295908
0.000493805
0.000934375
0.00196301
0.00430813
0.0093688
0.019566
0.038653
0.0718328
0.125306
0.205527
0.318548
0.469714
0.669541
0.945868
1.38396
2.2268
4.13964
8.92946
36.9071
)
;
    }
    low
    {
        type            calculated;
        value           nonuniform List<scalar> 
84
(
-0.750427
0.425825
1.44641
1.68687
0.966689
-0.498559
-2.29778
-4.03193
-5.69376
-6.61009
-7.40621
-8.25947
-8.53983
-8.73315
-8.9172
-8.91802
-8.7264
-8.48599
-8.30141
-7.69916
-6.95388
-6.09427
-5.02312
-3.71099
-2.45372
-0.801874
0.841699
2.46929
3.90803
5.32705
6.28198
7.03448
7.62594
7.86783
7.87003
7.80195
7.16772
6.12096
4.96553
3.67332
2.2871
0.872336
-0.871932
-2.28671
-3.6729
-4.96516
-6.12065
-7.16755
-7.80171
-7.87094
-7.86712
-7.62614
-7.03458
-6.28214
-5.32726
-3.90825
-2.4696
-0.841993
0.801139
2.45408
3.71041
5.02331
6.09426
6.95387
7.69914
8.30141
8.48599
8.72639
8.918
8.91716
8.73312
8.53982
8.25943
7.40625
6.61017
5.69382
4.03198
2.29783
0.498596
-0.966671
-1.68689
-1.44645
-0.425866
0.750434
)
;
    }
    left
    {
        type            calculated;
        value           nonuniform List<scalar> 
19
(
-0.777076
-4.12977
-7.37748
-9.99093
-11.8812
-13.0746
-13.7627
-14.0947
-14.1905
-14.2016
-14.1304
-14.0774
-14.1828
-14.6641
-15.778
-18.1335
-22.5636
-30.7211
-31.9805
)
;
    }
    right
    {
        type            calculated;
        value           nonuniform List<scalar> 
19
(
0.777103
4.12979
7.37745
9.99088
11.8811
13.0745
13.7627
14.0947
14.1905
14.2016
14.1304
14.0774
14.1828
14.664
15.7778
18.1332
22.5632
30.721
31.9806
)
;
    }
    frontAndBackPlanes
    {
        type            empty;
    }
}


// ************************************************************************* //
