/*--------------------------------*- C++ -*----------------------------------*\
  =========                 |
  \\      /  F ield         | OpenFOAM: The Open Source CFD Toolbox
   \\    /   O peration     | Website:  https://openfoam.org
    \\  /    A nd           | Version:  7
     \\/     M anipulation  |
\*---------------------------------------------------------------------------*/
FoamFile
{
    version     2.0;
    format      ascii;
    class       volScalarField;
    location    "0.12";
    object      gradTx;
}
// * * * * * * * * * * * * * * * * * * * * * * * * * * * * * * * * * * * * * //

dimensions      [0 -1 0 1 0 0 0];

internalField   nonuniform List<scalar> 
1596
(
-0.279594
-1.40111
-2.49068
-3.43777
-4.22359
-4.83869
-5.31487
-5.67431
-5.94914
-6.1954
-6.43319
-6.72847
-7.15361
-7.80515
-8.79028
-10.3543
-12.8599
-17.0794
-24.6075
0.0686509
-1.14631
-2.21425
-3.11057
-3.84728
-4.42396
-4.87009
-5.19843
-5.43473
-5.61141
-5.73855
-5.85527
-5.98164
-6.14444
-6.34691
-6.58494
-6.76657
-6.69116
-5.91988
0.357772
-0.893996
-1.91096
-2.73739
-3.4081
-3.93291
-4.33762
-4.63159
-4.83338
-4.96251
-5.02328
-5.03841
-5.01094
-4.9472
-4.83893
-4.66723
-4.36162
-3.79082
-2.68285
0.415152
-0.727936
-1.6303
-2.35523
-2.94111
-3.40199
-3.75791
-4.01641
-4.19003
-4.29004
-4.31848
-4.28741
-4.19427
-4.03777
-3.80932
-3.49247
-3.04432
-2.39135
-1.37779
0.167611
-0.706065
-1.42241
-2.0107
-2.49246
-2.87768
-3.17824
-3.3994
-3.54858
-3.63109
-3.64839
-3.60526
-3.49743
-3.32038
-3.06696
-2.724
-2.26726
-1.65809
-0.81191
-0.351777
-0.853235
-1.32846
-1.74935
-2.10909
-2.40674
-2.64443
-2.82384
-2.94776
-3.01687
-3.03227
-2.99364
-2.89616
-2.73354
-2.49954
-2.18242
-1.76811
-1.23608
-0.541526
-1.03282
-1.15516
-1.36827
-1.60306
-1.82699
-2.02597
-2.19236
-2.32322
-2.417
-2.47063
-2.48439
-2.45446
-2.37565
-2.24053
-2.04302
-1.77161
-1.41682
-0.966309
-0.39585
-1.7338
-1.54703
-1.51812
-1.56875
-1.65344
-1.74802
-1.83724
-1.9134
-1.97112
-2.00437
-2.01207
-1.98811
-1.92688
-1.82028
-1.66202
-1.44044
-1.14764
-0.774345
-0.306063
-2.45019
-2.06029
-1.82718
-1.69986
-1.63849
-1.61655
-1.61539
-1.6237
-1.63311
-1.63516
-1.62683
-1.6004
-1.54951
-1.4655
-1.34159
-1.1659
-0.930605
-0.62688
-0.243953
-2.87601
-2.42511
-2.07958
-1.83027
-1.65662
-1.53842
-1.45876
-1.40541
-1.3687
-1.33899
-1.31165
-1.27823
-1.23185
-1.16384
-1.06714
-0.930299
-0.745363
-0.50352
-0.195345
-3.22814
-2.76079
-2.3532
-2.01714
-1.75119
-1.54599
-1.39049
-1.27426
-1.18798
-1.12183
-1.06988
-1.02332
-0.974706
-0.915367
-0.838052
-0.731859
-0.588706
-0.39965
-0.155606
-3.59695
-3.13891
-2.69547
-2.29304
-1.94574
-1.65653
-1.42269
-1.23814
-1.09555
-0.98579
-0.902083
-0.835245
-0.777118
-0.718811
-0.652733
-0.568522
-0.458023
-0.312293
-0.122297
-3.71939
-3.32506
-2.89759
-2.47723
-2.09002
-1.74971
-1.46197
-1.22638
-1.03903
-0.892708
-0.780886
-0.694649
-0.625591
-0.564876
-0.504838
-0.435862
-0.350086
-0.239037
-0.094099
-3.77893
-3.4498
-3.05606
-2.63889
-2.2313
-1.85596
-1.52624
-1.2479
-1.02112
-0.841225
-0.702625
-0.596888
-0.515519
-0.449704
-0.391676
-0.332447
-0.264512
-0.180021
-0.0710247
-3.81659
-3.54443
-3.18849
-2.78516
-2.36947
-1.97034
-1.60771
-1.29338
-1.0319
-0.821496
-0.657926
-0.533376
-0.439341
-0.366942
-0.308241
-0.254669
-0.19903
-0.134112
-0.0527354
-3.77481
-3.56388
-3.25271
-2.87528
-2.46631
-2.05838
-1.67633
-1.33727
-1.05001
-0.8158
-0.632122
-0.49199
-0.387073
-0.308486
-0.248153
-0.197792
-0.150482
-0.0996015
-0.0387519
-3.64383
-3.49309
-3.23207
-2.89077
-2.50214
-2.1003
-1.71327
-1.36234
-1.06008
-0.810669
-0.613478
-0.462541
-0.349917
-0.266842
-0.205202
-0.156947
-0.115408
-0.0744726
-0.0284526
-3.47614
-3.36597
-3.15048
-2.84797
-2.48681
-2.10054
-1.71887
-1.36604
-1.05772
-0.800654
-0.59601
-0.438893
-0.321855
-0.236343
-0.17428
-0.127817
-0.0904993
-0.05663
-0.0211092
-3.33866
-3.26063
-3.07916
-2.80679
-2.46779
-2.09463
-1.71812
-1.36473
-1.05257
-0.790442
-0.580938
-0.419967
-0.300392
-0.213744
-0.151903
-0.107099
-0.0729982
-0.0441896
-0.0160057
-3.05023
-3.01868
-2.88189
-2.65236
-2.35107
-2.00813
-1.65396
-1.31594
-1.01382
-0.758125
-0.5528
-0.394778
-0.277542
-0.193037
-0.133393
-0.0911129
-0.0601104
-0.035299
-0.0124288
-2.71031
-2.71644
-2.62189
-2.43589
-2.17628
-1.87033
-1.54705
-1.23355
-0.950286
-0.708812
-0.514104
-0.36405
-0.252848
-0.173033
-0.117178
-0.0782052
-0.0503576
-0.0288801
-0.00991857
-2.33823
-2.36847
-2.30968
-2.16534
-1.94935
-1.6854
-1.40015
-1.11928
-0.862903
-0.642911
-0.464844
-0.327439
-0.225681
-0.152879
-0.102273
-0.0673906
-0.0429172
-0.0244108
-0.00827741
-1.90675
-1.94831
-1.91974
-1.81782
-1.65112
-1.43828
-1.2021
-0.96532
-0.746545
-0.557243
-0.403143
-0.28386
-0.195365
-0.132071
-0.0882317
-0.0583088
-0.0376492
-0.0221792
-0.00816689
-1.40241
-1.38603
-1.32157
-1.21215
-1.06854
-0.905594
-0.738569
-0.580416
-0.440591
-0.323852
-0.231479
-0.161691
-0.11091
-0.0751589
-0.0507433
-0.0343821
-0.0233257
-0.0149706
-0.00642486
-0.937923
-1.03206
-1.1048
-1.13288
-1.1065
-1.02818
-0.910262
-0.769623
-0.623916
-0.487016
-0.367903
-0.270724
-0.195014
-0.138473
-0.0978552
-0.0698358
-0.0511467
-0.0388409
-0.0296434
-0.313526
-0.348847
-0.388834
-0.4212
-0.437429
-0.433225
-0.409113
-0.368845
-0.318909
-0.265819
-0.214772
-0.169694
-0.131623
-0.100754
-0.0765425
-0.0585396
-0.0458537
-0.0377945
-0.0332044
0.313643
0.275586
0.212426
0.135032
0.0553907
-0.0158782
-0.0715571
-0.108397
-0.127447
-0.13227
-0.127112
-0.11657
-0.103172
-0.0888008
-0.0745879
-0.0619342
-0.0516109
-0.0443882
-0.0400268
0.933631
0.88246
0.790165
0.668173
0.530759
0.392614
0.266227
0.159865
0.076803
0.0161876
-0.024982
-0.0512775
-0.065973
-0.0718286
-0.0708565
-0.0657778
-0.0589059
-0.0527634
-0.0483615
1.48265
1.4054
1.27932
1.11708
0.933549
0.744727
0.565234
0.405674
0.271817
0.164711
0.0825929
0.0213924
-0.0221616
-0.0507783
-0.0661795
-0.0713088
-0.0692943
-0.0645138
-0.0597478
2.03429
1.92014
1.75357
1.54779
1.31849
1.08258
0.855685
0.649377
0.470664
0.321607
0.201218
0.105702
0.0317575
-0.0230723
-0.0594431
-0.0792579
-0.0850044
-0.082444
-0.0767913
2.42787
2.27332
2.07163
1.83524
1.57917
1.3188
1.06817
0.837599
0.633729
0.458732
0.312121
0.190381
0.0902474
0.00949292
-0.0510655
-0.0910091
-0.109591
-0.111688
-0.104377
2.7753
2.58724
2.35178
2.08641
1.80668
1.52647
1.25796
1.00977
0.787668
0.593416
0.426636
0.283708
0.160818
0.0548741
-0.0330628
-0.10085
-0.142408
-0.157497
-0.151731
3.07486
2.84255
2.57206
2.28119
1.98397
1.6917
1.41392
1.15704
0.92552
0.720452
0.54147
0.38496
0.246461
0.121145
0.00822676
-0.0918091
-0.169109
-0.21499
-0.220918
3.23699
2.93998
2.62023
2.29396
1.97271
1.66488
1.37728
1.11411
0.878226
0.669779
0.487684
0.328146
0.185999
0.0544521
-0.0711509
-0.195988
-0.315103
-0.419475
-0.490662
3.30545
2.98635
2.66866
2.36236
2.07146
1.79791
1.54334
1.30858
1.09455
0.90125
0.728428
0.574655
0.437359
0.312713
0.196279
0.0802172
-0.0413926
-0.174529
-0.319695
3.33406
3.00898
2.7047
2.41945
2.15085
1.8978
1.66019
1.43838
1.2333
1.04537
0.874972
0.722019
0.585266
0.463333
0.354849
0.257374
0.168465
0.0845095
0.000112527
3.09619
2.72712
2.39989
2.10488
1.83652
1.59187
1.36918
1.16719
0.985174
0.821891
0.676248
0.547003
0.432097
0.329783
0.238817
0.157981
0.0867847
0.0255971
-0.0257678
2.67325
2.34612
2.05946
1.80383
1.57362
1.36545
1.17707
1.00678
0.853501
0.715858
0.592774
0.483141
0.385246
0.297653
0.219303
0.149036
0.0860894
0.0303595
-0.0186241
2.18976
1.92126
1.68413
1.47293
1.28363
1.11336
0.960022
0.821911
0.697877
0.586576
0.487002
0.398145
0.318553
0.24702
0.182678
0.124568
0.0720894
0.0252273
-0.0163397
1.63057
1.42659
1.24788
1.09002
0.949511
0.823822
0.711053
0.609717
0.518798
0.437179
0.364064
0.298664
0.239899
0.186884
0.139017
0.0956261
0.0563313
0.0211989
-0.00995453
1.01898
0.883288
0.768518
0.669229
0.581955
0.504478
0.435296
0.373308
0.317777
0.267942
0.223274
0.183255
0.147205
0.114571
0.08499
0.0580525
0.0335479
0.0115558
-0.00799473
0.388961
0.333066
0.287758
0.249237
0.215628
0.185921
0.159509
0.135967
0.115008
0.0963337
0.0797205
0.0649429
0.0517149
0.0397946
0.0290065
0.0191635
0.0101533
0.00197624
-0.00540419
-0.388775
-0.332639
-0.287161
-0.248527
-0.214848
-0.185108
-0.158692
-0.135169
-0.114249
-0.0956274
-0.0790776
-0.0643709
-0.0512198
-0.0393808
-0.0286769
-0.0189205
-0.00999817
-0.0019084
0.00538673
-1.0188
-0.882903
-0.767985
-0.668598
-0.581264
-0.503761
-0.434579
-0.372613
-0.31712
-0.267336
-0.222728
-0.182776
-0.146798
-0.114241
-0.0847393
-0.0578836
-0.0334618
-0.0115518
0.00791905
-1.63039
-1.42621
-1.24735
-1.08938
-0.948815
-0.823094
-0.710322
-0.609005
-0.518122
-0.436551
-0.363494
-0.298158
-0.23946
-0.186514
-0.138718
-0.0953951
-0.0561673
-0.0210984
0.00999585
-2.18961
-1.92097
-1.68374
-1.47246
-1.28312
-1.11283
-0.959495
-0.821404
-0.697403
-0.586146
-0.486623
-0.39782
-0.318284
-0.246808
-0.182523
-0.124467
-0.0720421
-0.0252298
0.0162911
-2.67314
-2.34591
-2.05917
-1.80347
-1.57323
-1.36504
-1.17666
-1.00639
-0.853139
-0.715535
-0.592495
-0.482909
-0.38506
-0.297515
-0.219209
-0.148983
-0.086073
-0.0303727
0.0185902
-3.09615
-2.72702
-2.39972
-2.10466
-1.83626
-1.59161
-1.36893
-1.16697
-0.984984
-0.821742
-0.676141
-0.546939
-0.432074
-0.329801
-0.238871
-0.158064
-0.0868848
-0.0256945
0.0256936
-3.33402
-3.00864
-2.704
-2.4184
-2.14951
-1.89622
-1.65846
-1.43657
-1.23148
-1.04358
-0.873254
-0.720394
-0.583737
-0.461895
-0.353491
-0.256106
-0.16733
-0.0836279
0.000301704
-3.30599
-2.98779
-2.67102
-2.36557
-2.07538
-1.8024
-1.54822
-1.31369
-1.09973
-0.906388
-0.733435
-0.57949
-0.442023
-0.317257
-0.200794
-0.0848379
0.0365557
0.169464
0.314612
-3.23671
-2.93928
-2.6191
-2.29246
-1.97093
-1.6629
-1.37519
-1.11199
-0.876139
-0.667762
-0.485763
-0.326335
-0.184305
-0.052871
0.0726508
0.197485
0.316777
0.421635
0.493716
-3.07504
-2.84298
-2.57272
-2.28204
-1.98497
-1.6928
-1.41507
-1.15821
-0.926651
-0.721519
-0.542452
-0.385849
-0.24725
-0.121822
-0.00875771
0.0914936
0.169089
0.21531
0.221494
-2.7754
-2.5875
-2.3522
-2.08697
-1.80735
-1.52723
-1.25876
-1.01059
-0.788454
-0.594146
-0.427291
-0.284277
-0.161288
-0.0552268
0.0328611
0.100842
0.142611
0.15786
0.152151
-2.42798
-2.27359
-2.07207
-1.83583
-1.57988
-1.31959
-1.069
-0.838411
-0.63449
-0.459415
-0.312708
-0.190863
-0.0906176
-0.00974039
0.0509556
0.091047
0.109761
0.111938
0.104627
-2.0344
-1.92043
-1.75404
-1.54843
-1.31925
-1.08341
-0.856525
-0.650181
-0.471393
-0.322235
-0.201735
-0.106105
-0.0320467
0.0228969
0.0593802
0.079299
0.085125
0.0826056
0.0769499
-1.48276
-1.40569
-1.27979
-1.11771
-0.934287
-0.745518
-0.56602
-0.406404
-0.272456
-0.16524
-0.0830083
-0.0216989
0.0219563
0.050667
0.0661523
0.0713506
0.0693827
0.0646241
0.0598555
-0.933754
-0.882781
-0.790677
-0.668841
-0.531524
-0.393408
-0.266987
-0.160542
-0.0773679
-0.0166314
0.0246534
0.0510515
0.0658353
0.0717659
0.0708546
0.0658208
0.0589763
0.0528458
0.0484419
-0.313753
-0.275903
-0.212936
-0.135688
-0.0561217
0.0151455
0.0708858
0.107829
0.127
0.131942
0.126889
0.116433
0.103103
0.0887854
0.0746114
0.0619833
0.0516737
0.0444568
0.0400948
0.313256
0.348044
0.387533
0.419529
0.435574
0.431373
0.407419
0.367404
0.317759
0.264952
0.21415
0.16927
0.131351
0.100592
0.0764565
0.058503
0.0458474
0.0378099
0.0332454
0.938094
1.03271
1.10597
1.1345
1.10844
1.03025
0.912297
0.771484
0.62552
0.488332
0.368939
0.271515
0.195605
0.138911
0.0981804
0.0700832
0.0513419
0.0390021
0.0297795
1.40219
1.38531
1.32038
1.21062
1.06685
0.903893
0.736992
0.579044
0.43946
0.322961
0.230802
0.161195
0.110557
0.0749155
0.0505805
0.0342769
0.0232609
0.0149346
0.00641222
1.90685
1.94851
1.92003
1.81817
1.65148
1.43861
1.20237
0.965527
0.746687
0.557331
0.40319
0.283881
0.195371
0.13207
0.088229
0.0583064
0.0376478
0.0221791
0.00816794
2.33824
2.36848
2.30969
2.16534
1.94935
1.68539
1.40013
1.11926
0.862877
0.642886
0.464821
0.327421
0.225668
0.152872
0.102269
0.0673902
0.0429185
0.0244126
0.00827867
2.71032
2.71645
2.6219
2.43589
2.17628
1.87032
1.54704
1.23353
0.950264
0.708793
0.514089
0.364039
0.252842
0.173032
0.11718
0.0782082
0.0503612
0.0288829
0.0099196
3.05023
3.01868
2.8819
2.65236
2.35107
2.00812
1.65394
1.31592
1.01381
0.75811
0.55279
0.394772
0.277541
0.193039
0.133397
0.0911182
0.0601156
0.0353026
0.0124299
3.33867
3.26065
3.07917
2.8068
2.46779
2.09463
1.71812
1.36472
1.05256
0.790432
0.580931
0.419964
0.300393
0.213748
0.15191
0.107106
0.0730046
0.0441937
0.0160068
3.47615
3.36598
3.15049
2.84798
2.48682
2.10054
1.71886
1.36603
1.05771
0.800646
0.596007
0.438893
0.321858
0.236349
0.174289
0.127825
0.0905063
0.0566341
0.0211101
3.64383
3.49309
3.23208
2.89077
2.50215
2.1003
1.71327
1.36233
1.06007
0.810664
0.613477
0.462544
0.349923
0.26685
0.205211
0.156956
0.115415
0.0744759
0.028453
3.77482
3.56389
3.25272
2.87529
2.46631
2.05838
1.67633
1.33727
1.05001
0.815799
0.632124
0.491995
0.387081
0.308496
0.248162
0.197799
0.150487
0.0996025
0.0387514
3.81659
3.54444
3.1885
2.78517
2.36948
1.97035
1.60771
1.29338
1.0319
0.821496
0.657929
0.533382
0.439348
0.366949
0.308247
0.254671
0.199029
0.134109
0.0527338
3.77893
3.44981
3.05607
2.6389
2.23131
1.85597
1.52624
1.2479
1.02112
0.841228
0.702629
0.596893
0.515524
0.449707
0.391675
0.332442
0.264504
0.180013
0.0710221
3.7194
3.32508
2.89761
2.47724
2.09003
1.74972
1.46197
1.22639
1.03904
0.892712
0.78089
0.694651
0.62559
0.564871
0.504828
0.435847
0.35007
0.239025
0.0940961
3.59694
3.1389
2.69547
2.29304
1.94574
1.65653
1.42269
1.23814
1.09555
0.985788
0.90208
0.835239
0.777107
0.718793
0.65271
0.568496
0.457999
0.312279
0.122295
3.22816
2.76081
2.35321
2.01715
1.75119
1.54599
1.39049
1.27426
1.18798
1.12182
1.06987
1.02331
0.974684
0.915338
0.838019
0.731826
0.58868
0.399637
0.155606
2.87604
2.42513
2.07959
1.83027
1.65663
1.53842
1.45876
1.40541
1.36869
1.33898
1.31163
1.27821
1.23182
1.1638
1.06711
0.930266
0.745342
0.503513
0.195347
2.45022
2.06031
1.82719
1.69986
1.63849
1.61655
1.61539
1.62369
1.6331
1.63514
1.62681
1.60037
1.54947
1.46546
1.34155
1.16588
0.930596
0.626882
0.243958
1.73382
1.54703
1.51812
1.56875
1.65344
1.74802
1.83724
1.91339
1.9711
2.00434
2.01203
1.98807
1.92684
1.82025
1.662
1.44043
1.14765
0.774357
0.306069
1.03283
1.15517
1.36828
1.60307
1.827
2.02597
2.19236
2.32321
2.41698
2.4706
2.48436
2.45443
2.37562
2.24051
2.04301
1.77162
1.41684
0.966328
0.395855
0.351787
0.853248
1.32848
1.74937
2.1091
2.40675
2.64442
2.82382
2.94774
3.01684
3.03224
2.99361
2.89615
2.73354
2.49955
2.18245
1.76815
1.2361
0.541528
-0.167605
0.706079
1.42243
2.01071
2.49247
2.87768
3.17824
3.39938
3.54856
3.63107
3.64838
3.60525
3.49744
3.3204
3.067
2.72404
2.26729
1.6581
0.811907
-0.415151
0.727948
1.63032
2.35524
2.94111
3.40198
3.7579
4.0164
4.19002
4.29004
4.31848
4.28742
4.1943
4.0378
3.80935
3.4925
3.04434
2.39135
1.37778
-0.357774
0.893999
1.91096
2.73738
3.40809
3.93291
4.33761
4.63159
4.83338
4.96252
5.0233
5.03844
5.01097
4.94723
4.83896
4.66725
4.36162
3.79081
2.68284
-0.06865
1.1463
2.21424
3.11055
3.84726
4.42395
4.87008
5.19843
5.43474
5.61143
5.73858
5.8553
5.98167
6.14446
6.34692
6.58492
6.76655
6.69114
5.91987
0.279598
1.4011
2.49066
3.43775
4.22358
4.83868
5.31486
5.67432
5.94915
6.19542
6.43321
6.72849
7.15362
7.80514
8.79025
10.3543
12.8599
17.0794
24.6075
)
;

boundaryField
{
    up
    {
        type            calculated;
        value           nonuniform List<scalar> 
84
(
-24.6075
-5.91988
-2.68285
-1.37779
-0.81191
-0.541526
-0.39585
-0.306063
-0.243953
-0.195345
-0.155606
-0.122297
-0.094099
-0.0710247
-0.0527354
-0.0387519
-0.0284526
-0.0211092
-0.0160057
-0.0124288
-0.00991857
-0.00827741
-0.00816689
-0.00642486
-0.0246948
-0.0300638
-0.0364427
-0.0438695
-0.0537298
-0.068269
-0.0913942
-0.128822
-0.181393
-0.46815
-0.323948
-0.000133856
-0.0253794
-0.0183737
-0.0161925
-0.00989048
-0.0079656
-0.00539556
0.00537818
0.0078903
0.00993216
0.0161448
0.018341
0.0253066
0.00054004
0.318851
0.471703
0.181928
0.12916
0.0915937
0.0683958
0.0538172
0.0439369
0.0365029
0.0301145
0.0248112
0.00641222
0.00816794
0.00827867
0.0099196
0.0124299
0.0160068
0.0211101
0.028453
0.0387514
0.0527338
0.0710221
0.0940961
0.122295
0.155606
0.195347
0.243958
0.306069
0.395855
0.541528
0.811907
1.37778
2.68284
5.91987
24.6075
)
;
    }
    low
    {
        type            calculated;
        value           nonuniform List<scalar> 
84
(
-0.251278
0.112118
0.426755
0.488689
0.212903
-0.359976
-1.09885
-1.84257
-2.57446
-2.97822
-3.32007
-3.67552
-3.7618
-3.80097
-3.8272
-3.76526
-3.61574
-3.44338
-3.29261
-2.97698
-2.62087
-2.24143
-1.80716
-1.31176
-0.864438
-0.286497
0.282772
0.858008
1.38854
1.94518
2.36111
2.72663
3.04966
3.2397
3.32888
3.3812
3.16674
2.74434
2.25098
1.67807
1.0499
0.401743
-0.401556
-1.04972
-1.67787
-2.25082
-2.74421
-3.16668
-3.38112
-3.32932
-3.23942
-3.04979
-2.72671
-2.36121
-1.94529
-1.38865
-0.858136
-0.282884
0.286233
0.864604
1.31156
1.80725
2.24144
2.62088
2.97697
3.29262
3.44338
3.61575
3.76527
3.8272
3.80098
3.76181
3.67551
3.32008
2.97825
2.57448
1.84259
1.09887
0.359987
-0.212897
-0.488691
-0.426764
-0.112124
0.251279
)
;
    }
    left
    {
        type            calculated;
        value           nonuniform List<scalar> 
19
(
-0.250355
-1.35176
-2.46777
-3.45137
-4.27389
-4.9194
-5.42136
-5.80521
-6.10261
-6.38176
-6.66276
-7.01775
-7.53876
-8.35077
-9.58563
-11.5838
-14.8472
-20.4543
-21.3391
)
;
    }
    right
    {
        type            calculated;
        value           nonuniform List<scalar> 
19
(
0.250358
1.35176
2.46776
3.45136
4.27388
4.91939
5.42136
5.80522
6.10262
6.38178
6.66278
7.01776
7.53876
8.35074
9.58559
11.5838
14.8472
20.4543
21.3391
)
;
    }
    frontAndBackPlanes
    {
        type            empty;
    }
}


// ************************************************************************* //
