/*--------------------------------*- C++ -*----------------------------------*\
  =========                 |
  \\      /  F ield         | OpenFOAM: The Open Source CFD Toolbox
   \\    /   O peration     | Website:  https://openfoam.org
    \\  /    A nd           | Version:  7
     \\/     M anipulation  |
\*---------------------------------------------------------------------------*/
FoamFile
{
    version     2.0;
    format      ascii;
    class       volScalarField;
    location    "0.379";
    object      gradTx;
}
// * * * * * * * * * * * * * * * * * * * * * * * * * * * * * * * * * * * * * //

dimensions      [0 -1 0 1 0 0 0];

internalField   nonuniform List<scalar> 
1596
(
-0.137037
-0.68993
-1.24364
-1.75725
-2.23227
-2.67073
-3.09235
-3.50944
-3.93748
-4.40725
-4.92496
-5.52752
-6.2608
-7.19596
-8.42044
-10.1636
-12.7849
-17.0635
-24.6093
0.0304159
-0.573994
-1.1167
-1.59695
-2.0294
-2.41872
-2.78234
-3.12609
-3.46116
-3.8025
-4.1489
-4.51859
-4.91526
-5.34639
-5.79784
-6.24782
-6.59288
-6.62611
-5.91153
0.167667
-0.469678
-0.993506
-1.43649
-1.82339
-2.1628
-2.46949
-2.74705
-3.00263
-3.24355
-3.4659
-3.67799
-3.87301
-4.04419
-4.17
-4.21593
-4.09778
-3.6714
-2.65823
0.189348
-0.415785
-0.894842
-1.29039
-1.6283
-1.9187
-2.17304
-2.39412
-2.58627
-2.75277
-2.88999
-3.00102
-3.07808
-3.11227
-3.08628
-2.97207
-2.7143
-2.22472
-1.33581
0.0553313
-0.437128
-0.838506
-1.17345
-1.45845
-1.70116
-1.90862
-2.08288
-2.22622
-2.33947
-2.42042
-2.46928
-2.48003
-2.44507
-2.35279
-2.18321
-1.9027
-1.45938
-0.755443
-0.22334
-0.542456
-0.836954
-1.09809
-1.32581
-1.52142
-1.68654
-1.82177
-1.9275
-2.00288
-2.04699
-2.05837
-2.03296
-1.96499
-1.84735
-1.66618
-1.40184
-1.02394
-0.475847
-0.594066
-0.722635
-0.894174
-1.0716
-1.23787
-1.38595
-1.51154
-1.61291
-1.6885
-1.73605
-1.75529
-1.74377
-1.69889
-1.61632
-1.49202
-1.31635
-1.07811
-0.759369
-0.327173
-0.982016
-0.943582
-0.995025
-1.08675
-1.19032
-1.29103
-1.37919
-1.4502
-1.50049
-1.52651
-1.52801
-1.50191
-1.44645
-1.35837
-1.23551
-1.0711
-0.858957
-0.588441
-0.240289
-1.38236
-1.22507
-1.16967
-1.17562
-1.21285
-1.26228
-1.31039
-1.34966
-1.37457
-1.38028
-1.36589
-1.32787
-1.26474
-1.17387
-1.05408
-0.900532
-0.709884
-0.47576
-0.186658
-1.61982
-1.41807
-1.29906
-1.24324
-1.22803
-1.23496
-1.24948
-1.26224
-1.26636
-1.25605
-1.22969
-1.18351
-1.1161
-1.02526
-0.910449
-0.768248
-0.597044
-0.393192
-0.149838
-1.81036
-1.58971
-1.43268
-1.33159
-1.27283
-1.24155
-1.22442
-1.21158
-1.1954
-1.16954
-1.13157
-1.07757
-1.006
-0.914905
-0.803997
-0.670827
-0.514784
-0.333929
-0.124315
-2.00168
-1.77967
-1.59962
-1.46374
-1.36664
-1.29847
-1.24869
-1.20815
-1.16928
-1.1255
-1.07373
-1.00989
-0.932182
-0.838706
-0.729193
-0.601778
-0.456368
-0.292028
-0.106522
-2.04516
-1.85349
-1.67829
-1.53187
-1.41614
-1.32636
-1.25539
-1.1957
-1.14054
-1.08362
-1.02167
-0.950688
-0.868764
-0.774115
-0.666535
-0.544642
-0.408697
-0.258447
-0.0927093
-2.04628
-1.8879
-1.72881
-1.58384
-1.45979
-1.35643
-1.27001
-1.19514
-1.12629
-1.05788
-0.986707
-0.908984
-0.822768
-0.726389
-0.619679
-0.50162
-0.372702
-0.233124
-0.082413
-2.02942
-1.90134
-1.76219
-1.6256
-1.50035
-1.38946
-1.29218
-1.20535
-1.12495
-1.04634
-0.966656
-0.882396
-0.791668
-0.692905
-0.585979
-0.470155
-0.346095
-0.214306
-0.074767
-1.96605
-1.86999
-1.75462
-1.63303
-1.51449
-1.40389
-1.30264
-1.20958
-1.12219
-1.03687
-0.95131
-0.862387
-0.768335
-0.667724
-0.560502
-0.446215
-0.325739
-0.199871
-0.068914
-1.85593
-1.78971
-1.69982
-1.59784
-1.49252
-1.38948
-1.29142
-1.19862
-1.10984
-1.0225
-0.93485
-0.844211
-0.748983
-0.647872
-0.540915
-0.427951
-0.310165
-0.188757
-0.0644021
-1.73073
-1.68337
-1.61563
-1.53374
-1.44451
-1.35322
-1.26309
-1.17531
-1.0896
-1.00418
-0.917837
-0.828274
-0.734026
-0.633856
-0.527791
-0.415884
-0.299686
-0.180997
-0.0611245
-1.62596
-1.59416
-1.54389
-1.47881
-1.40379
-1.32343
-1.24111
-1.15867
-1.07659
-0.993789
-0.90953
-0.821817
-0.729224
-0.630406
-0.525125
-0.413341
-0.296797
-0.178028
-0.0594227
-1.4536
-1.44141
-1.41034
-1.36487
-1.30871
-1.24548
-1.17815
-1.10857
-1.03752
-0.964314
-0.888475
-0.808224
-0.722139
-0.628704
-0.527244
-0.417251
-0.30024
-0.179426
-0.0590834
-1.26709
-1.27058
-1.25692
-1.22996
-1.19268
-1.14783
-1.09778
-1.04416
-0.987742
-0.927973
-0.864409
-0.795347
-0.719306
-0.634559
-0.539827
-0.433601
-0.316104
-0.190038
-0.0617891
-1.07588
-1.09007
-1.09127
-1.08148
-1.06261
-1.03662
-1.00527
-0.969812
-0.930866
-0.88779
-0.839957
-0.785581
-0.72306
-0.650551
-0.566303
-0.467605
-0.352093
-0.218798
-0.0722398
-0.866947
-0.887239
-0.900889
-0.907536
-0.907665
-0.902194
-0.892184
-0.878383
-0.861079
-0.83934
-0.812018
-0.777041
-0.732517
-0.676678
-0.607892
-0.523088
-0.417403
-0.283176
-0.11076
-0.633584
-0.62932
-0.620018
-0.605947
-0.588942
-0.571323
-0.555642
-0.543649
-0.536119
-0.532177
-0.529367
-0.524091
-0.512643
-0.491886
-0.459512
-0.412998
-0.348093
-0.254942
-0.114312
-0.425057
-0.481074
-0.550256
-0.62604
-0.703579
-0.778903
-0.849514
-0.913358
-0.96884
-1.01404
-1.04593
-1.06167
-1.05868
-1.0366
-0.99664
-0.940629
-0.867773
-0.771914
-0.635422
-0.146368
-0.178922
-0.223918
-0.277128
-0.335438
-0.396512
-0.459343
-0.523121
-0.587313
-0.650539
-0.709035
-0.75856
-0.793392
-0.810096
-0.808042
-0.791171
-0.763701
-0.73091
-0.69465
0.133642
0.0924344
0.0349935
-0.0344079
-0.111872
-0.194358
-0.280193
-0.368482
-0.458864
-0.55043
-0.639753
-0.72187
-0.789361
-0.835999
-0.858675
-0.86062
-0.847374
-0.826243
-0.800978
0.415588
0.361069
0.286947
0.198459
0.100266
-0.00396339
-0.11209
-0.223292
-0.33764
-0.455087
-0.573286
-0.687384
-0.788819
-0.868188
-0.918441
-0.940147
-0.939241
-0.925232
-0.904148
0.674467
0.60064
0.505835
0.396676
0.278341
0.154846
0.0283651
-0.100656
-0.233062
-0.370107
-0.511236
-0.652975
-0.78689
-0.900941
-0.982876
-1.02798
-1.04022
-1.03125
-1.01104
0.948908
0.852499
0.735247
0.60446
0.465747
0.323453
0.179709
0.0346013
-0.113444
-0.267016
-0.427691
-0.594583
-0.761298
-0.915047
-1.03831
-1.11815
-1.15168
-1.1502
-1.12921
1.16465
1.04146
0.900496
0.749456
0.594214
0.438919
0.285142
0.132264
-0.0221158
-0.181885
-0.350779
-0.531382
-0.721615
-0.911678
-1.08181
-1.21009
-1.28002
-1.29435
-1.27083
1.37561
1.2284
1.0642
0.89373
0.723407
0.557015
0.395494
0.237649
0.0806128
-0.0801964
-0.249924
-0.434378
-0.637109
-0.855657
-1.07483
-1.2695
-1.40635
-1.466
-1.45537
1.58157
1.40349
1.21421
1.02502
0.841694
0.667008
0.501005
0.341922
0.186782
0.0310367
-0.130569
-0.305298
-0.501161
-0.724959
-0.973851
-1.23419
-1.4677
-1.6278
-1.66683
1.73173
1.5067
1.27882
1.05817
0.848739
0.651652
0.465715
0.288591
0.117264
-0.0523295
-0.224669
-0.406368
-0.606362
-0.837123
-1.10982
-1.4349
-1.80106
-2.17603
-2.49589
1.84351
1.59355
1.35857
1.14545
0.954463
0.784085
0.631311
0.493232
0.366964
0.249746
0.139521
0.0336195
-0.0710545
-0.179885
-0.301782
-0.454529
-0.658785
-0.939273
-1.31111
1.94162
1.67861
1.4482
1.2487
1.07552
0.924573
0.791473
0.6729
0.566058
0.468555
0.379252
0.297144
0.222004
0.154182
0.0947504
0.0435761
-0.000760101
-0.0453339
-0.103881
1.87673
1.57472
1.32107
1.10635
0.922525
0.763755
0.624817
0.501956
0.392245
0.293239
0.203859
0.123188
0.050984
-0.012379
-0.0655682
-0.107181
-0.134866
-0.146477
-0.140985
1.67938
1.39636
1.16407
0.971074
0.808632
0.670412
0.551218
0.44731
0.355927
0.274867
0.203048
0.139584
0.083972
0.0360005
-0.00423901
-0.0370175
-0.0625699
-0.0814236
-0.0943869
1.41926
1.17555
0.976714
0.812979
0.676544
0.561565
0.463389
0.378615
0.304783
0.239932
0.182954
0.13293
0.0891164
0.050962
0.0181076
-0.0100293
-0.0339155
-0.0539633
-0.0707061
1.08339
0.892216
0.738473
0.613483
0.510507
0.424551
0.351797
0.289453
0.235533
0.188456
0.147249
0.111116
0.0793456
0.0513939
0.0268921
0.00538193
-0.0134493
-0.0297675
-0.0438362
0.689002
0.561084
0.461222
0.3816
0.316854
0.263291
0.21826
0.179864
0.146782
0.117969
0.0927537
0.0705959
0.0509926
0.0335591
0.0180329
0.00412513
-0.00834332
-0.0194068
-0.0291507
0.266485
0.215884
0.177661
0.147567
0.12316
0.102913
0.0858061
0.0711243
0.0583784
0.0471832
0.037283
0.0284731
0.0205588
0.0133874
0.00684734
0.000819828
-0.00477662
-0.0099605
-0.0147566
-0.266357
-0.215613
-0.177304
-0.147164
-0.122736
-0.102488
-0.0853926
-0.0707331
-0.0580169
-0.0468573
-0.036997
-0.0282299
-0.0203608
-0.0132365
-0.00674461
-0.000766242
0.00478052
0.00991498
0.0146624
-0.688886
-0.560852
-0.460921
-0.381262
-0.316503
-0.262945
-0.217933
-0.179564
-0.146518
-0.117746
-0.0925751
-0.0704647
-0.0509106
-0.0335272
-0.0180515
-0.00419402
0.00822477
0.0192403
0.0289388
-1.08328
-0.892003
-0.738189
-0.613155
-0.510156
-0.424194
-0.351447
-0.289119
-0.235224
-0.188177
-0.147004
-0.110908
-0.0791746
-0.051259
-0.0267908
-0.00531067
0.0134951
0.029793
0.0438465
-1.41919
-1.17542
-0.976546
-0.812787
-0.676344
-0.561369
-0.463209
-0.378459
-0.30466
-0.239847
-0.182911
-0.132932
-0.0891623
-0.0510494
-0.0182313
0.0098759
0.0337402
0.053774
0.0705101
-1.67935
-1.3963
-1.16398
-0.970971
-0.808519
-0.6703
-0.551117
-0.44723
-0.355877
-0.274854
-0.203078
-0.139661
-0.084097
-0.0361705
0.00403146
0.0367845
0.0623283
0.0811933
0.0941901
-1.87676
-1.57475
-1.32108
-1.10634
-0.922513
-0.763744
-0.624819
-0.501984
-0.392311
-0.293356
-0.204039
-0.123442
-0.0513208
0.0119531
0.0650574
0.106605
0.134273
0.145942
0.140599
-1.94165
-1.67851
-1.4479
-1.24816
-1.07472
-0.923522
-0.79017
-0.671355
-0.564281
-0.466555
-0.377036
-0.29472
-0.219374
-0.151347
-0.0917321
-0.0404552
0.00377182
0.0477785
0.10499
-1.84389
-1.59453
-1.36019
-1.14771
-0.957367
-0.787631
-0.635495
-0.498055
-0.372435
-0.255884
-0.146368
-0.0412489
0.0625118
0.170203
0.290613
0.441375
0.643126
0.920816
1.29016
-1.73162
-1.50637
-1.2782
-1.05724
-0.847492
-0.650083
-0.463834
-0.286418
-0.114822
0.055009
0.227545
0.409385
0.609451
0.840217
1.11291
1.43816
1.805
2.18153
2.50419
-1.5817
-1.40381
-1.21468
-1.02561
-0.842383
-0.667776
-0.501841
-0.34282
-0.187744
-0.0320732
0.129438
0.304047
0.499778
0.723486
0.972431
1.23312
1.46733
1.62836
1.66804
-1.3757
-1.2286
-1.0645
-0.894101
-0.723834
-0.557486
-0.396003
-0.238195
-0.0812024
0.0795535
0.249218
0.43361
0.636314
0.854934
1.07434
1.26946
1.40685
1.46697
1.4566
-1.16473
-1.04165
-0.900782
-0.74982
-0.594636
-0.439387
-0.285646
-0.132801
0.0215484
0.181287
0.350158
0.530765
0.721064
0.911297
1.08172
1.21037
1.28064
1.29518
1.27174
-0.948987
-0.852681
-0.735524
-0.604817
-0.466167
-0.323921
-0.180212
-0.0351301
0.112897
0.266463
0.427152
0.594098
0.760934
0.914883
1.03841
1.11851
1.15225
1.15089
1.12995
-0.674534
-0.600803
-0.506087
-0.397004
-0.278729
-0.155279
-0.0288269
0.100178
0.232581
0.369641
0.510812
0.652636
0.786691
0.900931
0.983077
1.02837
1.04075
1.03186
1.01171
-0.415656
-0.361232
-0.287199
-0.198789
-0.100657
0.00352879
0.11163
0.222824
0.337182
0.454662
0.572926
0.687128
0.788708
0.868249
0.918676
0.940531
0.939736
0.925806
0.904791
-0.133697
-0.0925826
-0.0352298
0.0340955
0.111501
0.193946
0.279761
0.36805
0.458455
0.55007
0.639471
0.721699
0.789328
0.83612
0.858943
0.861015
0.847874
0.826834
0.801663
0.146246
0.17855
0.223271
0.276202
0.334251
0.395097
0.457745
0.521394
0.585519
0.648745
0.707305
0.756957
0.791965
0.808872
0.807032
0.790388
0.76318
0.730747
0.695057
0.425148
0.481416
0.550929
0.627097
0.705046
0.78078
0.851775
0.915958
0.971721
1.01713
1.04917
1.06501
1.06205
1.03995
0.999952
0.943879
0.870945
0.774982
0.638327
0.6335
0.629
0.619447
0.60513
0.587907
0.570111
0.554302
0.542235
0.534684
0.530769
0.528026
0.522847
0.51152
0.490896
0.45866
0.412287
0.347529
0.254542
0.114128
0.867007
0.887356
0.90107
0.907774
0.90795
0.902511
0.892516
0.878714
0.861394
0.839626
0.812266
0.777248
0.732681
0.6768
0.607974
0.523132
0.417411
0.283159
0.110743
1.0759
1.0901
1.0913
1.08152
1.06266
1.03668
1.00532
0.969867
0.930916
0.887835
0.839994
0.785609
0.723078
0.650558
0.5663
0.467593
0.352075
0.218781
0.0722336
1.26711
1.27061
1.25695
1.23
1.19272
1.14787
1.09782
1.0442
0.987779
0.928005
0.864434
0.795364
0.719315
0.634561
0.539822
0.433592
0.316094
0.19003
0.061787
1.45362
1.44143
1.41037
1.3649
1.30874
1.24552
1.17819
1.1086
1.03754
0.964336
0.888491
0.808233
0.722143
0.628703
0.527239
0.417244
0.300234
0.179422
0.0590823
1.62598
1.59419
1.54392
1.47884
1.40382
1.32346
1.24114
1.1587
1.07661
0.993804
0.90954
0.821822
0.729226
0.630404
0.525121
0.413336
0.296793
0.178025
0.0594221
1.73075
1.68339
1.61566
1.53377
1.44453
1.35324
1.26311
1.17533
1.08961
1.00419
0.917842
0.828276
0.734025
0.633853
0.527787
0.41588
0.299683
0.180995
0.0611241
1.85594
1.78972
1.69984
1.59785
1.49254
1.3895
1.29143
1.19863
1.10985
1.0225
0.934852
0.844211
0.74898
0.647869
0.540911
0.427948
0.310163
0.188755
0.0644019
1.96607
1.87001
1.75464
1.63304
1.51451
1.4039
1.30265
1.20959
1.12219
1.03687
0.951311
0.862386
0.768332
0.667721
0.560499
0.446213
0.325738
0.19987
0.0689139
2.02943
1.90135
1.76221
1.62561
1.50036
1.38947
1.29219
1.20536
1.12495
1.04634
0.966654
0.882394
0.791665
0.692903
0.585977
0.470153
0.346094
0.214305
0.074767
2.04629
1.88791
1.72882
1.58385
1.4598
1.35644
1.27002
1.19514
1.12629
1.05788
0.986706
0.908982
0.822766
0.726387
0.619677
0.501619
0.372701
0.233124
0.0824132
2.04517
1.85351
1.67831
1.53188
1.41615
1.32637
1.2554
1.19571
1.14054
1.08362
1.02167
0.950688
0.868764
0.774115
0.666535
0.544643
0.408698
0.258447
0.0927097
2.00168
1.77967
1.59962
1.46374
1.36664
1.29847
1.24869
1.20815
1.16928
1.12549
1.07372
1.00989
0.932179
0.838704
0.729192
0.601778
0.456368
0.292029
0.106523
1.81037
1.58972
1.43269
1.3316
1.27283
1.24155
1.22442
1.21158
1.1954
1.16954
1.13157
1.07757
1.006
0.914905
0.803998
0.670828
0.514785
0.33393
0.124315
1.61984
1.41808
1.29907
1.24325
1.22803
1.23497
1.24948
1.26224
1.26636
1.25605
1.22969
1.18351
1.1161
1.02526
0.910451
0.76825
0.597046
0.393194
0.149839
1.38238
1.22508
1.16968
1.17562
1.21286
1.26228
1.31039
1.34966
1.37457
1.38028
1.36589
1.32787
1.26475
1.17387
1.05408
0.900535
0.709887
0.475762
0.186659
0.982029
0.94359
0.99503
1.08675
1.19032
1.29103
1.37919
1.4502
1.50049
1.52651
1.52801
1.50191
1.44645
1.35837
1.23551
1.0711
0.858958
0.588442
0.240289
0.594077
0.722641
0.894178
1.0716
1.23787
1.38595
1.51154
1.61291
1.6885
1.73605
1.75529
1.74377
1.69889
1.61633
1.49202
1.31635
1.07811
0.759369
0.327173
0.223347
0.542461
0.836957
1.0981
1.32581
1.52142
1.68654
1.82176
1.9275
2.00288
2.04698
2.05837
2.03296
1.96499
1.84735
1.66618
1.40184
1.02394
0.475847
-0.0553272
0.437131
0.838508
1.17345
1.45845
1.70116
1.90862
2.08288
2.22622
2.33947
2.42042
2.46928
2.48003
2.44507
2.35279
2.18321
1.9027
1.45937
0.755442
-0.189347
0.415786
0.894843
1.29039
1.6283
1.9187
2.17304
2.39411
2.58627
2.75276
2.88999
3.00102
3.07807
3.11227
3.08628
2.97207
2.7143
2.22472
1.33581
-0.167668
0.469678
0.993506
1.43649
1.82339
2.1628
2.46949
2.74705
3.00263
3.24354
3.4659
3.67799
3.873
4.04418
4.17
4.21592
4.09778
3.67139
2.65823
-0.0304164
0.573994
1.1167
1.59695
2.0294
2.41872
2.78234
3.12609
3.46116
3.8025
4.1489
4.51859
4.91525
5.34639
5.79783
6.24781
6.59288
6.62611
5.91153
0.137037
0.68993
1.24364
1.75725
2.23227
2.67073
3.09235
3.50944
3.93748
4.40724
4.92496
5.52752
6.2608
7.19595
8.42044
10.1636
12.7849
17.0635
24.6093
)
;

boundaryField
{
    up
    {
        type            calculated;
        value           nonuniform List<scalar> 
84
(
-24.6093
-5.91153
-2.65823
-1.33581
-0.755443
-0.475847
-0.327173
-0.240289
-0.186658
-0.149838
-0.124315
-0.106522
-0.0927093
-0.082413
-0.074767
-0.068914
-0.0644021
-0.0611245
-0.0594227
-0.0590834
-0.0617891
-0.0722398
-0.11076
-0.114312
-0.548057
-0.657481
-0.767619
-0.870747
-0.975634
-1.08968
-1.22237
-1.38212
-1.5538
-2.5002
-1.36577
-0.106876
-0.141131
-0.0943847
-0.0706951
-0.0438376
-0.029155
-0.0147645
0.0146703
0.0289433
0.0438481
0.0704991
0.0941878
0.140742
0.107949
1.34407
2.51018
1.55485
1.38318
1.22322
1.09041
0.976296
0.871399
0.76833
0.658163
0.550731
0.114128
0.110743
0.0722336
0.061787
0.0590823
0.0594221
0.0611241
0.0644019
0.0689139
0.074767
0.0824132
0.0927097
0.106523
0.124315
0.149839
0.186659
0.240289
0.327173
0.475847
0.755442
1.33581
2.65823
5.91153
24.6093
)
;
    }
    low
    {
        type            calculated;
        value           nonuniform List<scalar> 
84
(
-0.123839
0.0498339
0.199389
0.224215
0.0774503
-0.227461
-0.628156
-1.03935
-1.44821
-1.6726
-1.85492
-2.03477
-2.05388
-2.03962
-2.01284
-1.93619
-1.81538
-1.68787
-1.57723
-1.3943
-1.20379
-1.01333
-0.807547
-0.582527
-0.385899
-0.132341
0.117604
0.375056
0.620964
0.892889
1.11545
1.33233
1.54849
1.71364
1.83825
1.95246
1.90603
1.71422
1.45234
1.11095
0.707821
0.274501
-0.274373
-0.707701
-1.11083
-1.45225
-1.71417
-1.90603
-1.95246
-1.83856
-1.71354
-1.5486
-1.33241
-1.11553
-0.892966
-0.621032
-0.375126
-0.11766
0.132223
0.385988
0.582449
0.807601
1.01336
1.20381
1.39432
1.57725
1.68788
1.81539
1.9362
2.01285
2.03963
2.05389
2.03476
1.85493
1.67261
1.44823
1.03937
0.628168
0.227469
-0.077446
-0.224215
-0.199391
-0.0498352
0.123839
)
;
    }
    left
    {
        type            calculated;
        value           nonuniform List<scalar> 
19
(
-0.121348
-0.661502
-1.22574
-1.75634
-2.25116
-2.70967
-3.15347
-3.59706
-4.05601
-4.56997
-5.14452
-5.82226
-6.66464
-7.76915
-9.24706
-11.4226
-14.7949
-20.4519
-21.3458
)
;
    }
    right
    {
        type            calculated;
        value           nonuniform List<scalar> 
19
(
0.121348
0.661503
1.22574
1.75634
2.25116
2.70967
3.15347
3.59706
4.05601
4.56997
5.14452
5.82225
6.66464
7.76915
9.24705
11.4226
14.7949
20.4519
21.3458
)
;
    }
    frontAndBackPlanes
    {
        type            empty;
    }
}


// ************************************************************************* //
