/*--------------------------------*- C++ -*----------------------------------*\
  =========                 |
  \\      /  F ield         | OpenFOAM: The Open Source CFD Toolbox
   \\    /   O peration     | Website:  https://openfoam.org
    \\  /    A nd           | Version:  7
     \\/     M anipulation  |
\*---------------------------------------------------------------------------*/
FoamFile
{
    version     2.0;
    format      ascii;
    class       volScalarField;
    location    "0.11";
    object      gradTz;
}
// * * * * * * * * * * * * * * * * * * * * * * * * * * * * * * * * * * * * * //

dimensions      [0 -1 0 1 0 0 0];

internalField   nonuniform List<scalar> 
1596
(
-3.22663e-16
-1.54411e-16
1.59629e-16
5.94301e-18
-2.97053e-16
0
-1.34463e-16
-1.3265e-16
-1.24827e-17
-7.18463e-17
-4.13058e-19
-7.21445e-17
3.22636e-16
-7.21197e-17
3.35363e-16
2.90663e-16
1.73243e-16
2.19778e-16
0
3.19551e-16
0
4.33116e-16
-4.88725e-18
-1.25963e-16
1.24298e-16
2.65851e-16
1.21159e-17
1.24065e-16
-6.05849e-17
1.21492e-16
-1.18367e-18
-1.6947e-16
-1.06876e-16
-2.70765e-16
-2.6552e-16
-2.42452e-16
1.38697e-16
0
-1.5282e-16
0
-2.74283e-16
7.68032e-18
2.36837e-16
-7.34236e-17
8.9868e-18
-1.5677e-18
-1.29096e-18
-1.1631e-18
4.00124e-17
0
8.78093e-17
2.46184e-16
-2.44904e-17
2.03974e-17
4.75969e-17
7.67413e-17
0
2.45115e-16
-6.81867e-17
6.79377e-17
0
-6.34126e-17
-6.74431e-17
1.0407e-16
-8.29598e-17
0
0
-3.98385e-17
2.09949e-17
0
-7.09143e-17
-8.70852e-17
6.20156e-17
-6.82967e-17
-3.48489e-18
0
4.33998e-17
1.06287e-16
-8.827e-17
0
-2.36193e-17
-7.33288e-17
0
1.04423e-16
-9.96906e-18
-9.05112e-18
-1.61682e-17
5.15634e-17
6.65914e-17
7.61898e-18
7.84267e-18
-6.70027e-17
3.32335e-18
3.13857e-17
-1.40564e-17
-1.12702e-17
-1.44834e-16
1.29423e-16
-1.04113e-16
-3.78779e-19
-8.06661e-17
2.18963e-18
-2.1969e-18
-5.67474e-17
0
-1.31835e-17
-6.16087e-17
-5.99143e-17
4.54276e-17
5.4992e-17
-7.29526e-19
-3.30907e-17
-3.18341e-17
2.47795e-17
9.41873e-17
-1.46589e-16
1.51681e-16
7.90993e-17
0
6.28039e-17
3.35679e-17
-1.57006e-17
7.12181e-17
-1.2758e-17
-5.71673e-17
3.42126e-19
-3.15605e-17
-4.55861e-17
-3.31283e-17
3.00122e-17
3.3382e-17
-4.58209e-19
-1.0083e-17
1.44976e-17
2.35799e-16
-2.54789e-16
0
0
-7.19689e-17
0
0
0
3.79441e-17
0
0
2.95878e-17
6.58649e-19
1.20592e-17
-2.66245e-17
0
1.41614e-17
6.05573e-18
0
-1.46669e-16
2.7652e-16
0
0
7.4118e-17
0
-2.26567e-17
2.26338e-17
-3.86216e-17
1.48104e-17
-1.49188e-17
0
2.11884e-17
2.55152e-17
0
-1.46062e-17
-1.44475e-17
-5.36809e-18
3.90714e-16
-1.77753e-16
0
-9.98872e-17
9.87693e-17
0
5.65264e-17
0
0
0
1.22436e-17
-1.23022e-17
0
-1.66385e-17
-4.40603e-18
0
3.56184e-18
7.71747e-18
0
-9.92928e-17
0
0
1.00872e-16
-1.79859e-16
1.59934e-17
6.45106e-18
-1.96898e-17
3.96138e-18
1.46476e-18
-1.25639e-17
-1.75034e-17
0
1.26252e-17
-2.87988e-18
2.9231e-18
9.50451e-18
-6.23537e-18
-2.63401e-18
7.24488e-17
-1.36341e-17
7.01256e-17
2.16379e-16
-1.98254e-17
-8.0163e-17
0
0
0
2.64276e-17
8.98236e-18
3.06212e-17
-7.27596e-18
-1.23994e-17
-6.24281e-18
-3.95245e-18
1.81802e-18
-4.15818e-18
2.46304e-18
-8.65622e-17
8.52837e-17
-1.5183e-16
-2.14322e-16
1.89881e-16
6.24381e-17
-1.09303e-16
8.34533e-17
-6.32628e-17
1.67756e-17
1.02977e-17
-8.54678e-18
3.97099e-18
-3.93568e-18
1.21294e-17
0
-9.69114e-19
7.60776e-18
-1.1576e-18
-5.92374e-16
2.62603e-16
1.73796e-19
-4.47146e-17
1.06226e-17
6.08288e-17
-1.1203e-16
-3.91528e-17
2.90389e-17
-2.12883e-17
-1.56545e-17
0
-1.43798e-17
-4.03426e-18
-6.27427e-18
-3.61381e-18
2.77505e-19
-3.97314e-18
3.04899e-19
9.67793e-17
-8.14634e-17
-2.88691e-22
-5.421e-17
-1.19357e-16
1.0865e-16
6.04067e-19
3.81544e-17
-2.82732e-17
4.05386e-17
8.85433e-18
6.32997e-18
1.57498e-17
0
1.08181e-17
4.82978e-18
0
1.91242e-18
2.09607e-19
0
7.90289e-17
5.33904e-17
-1.16202e-16
1.15243e-16
-1.61376e-16
1.04326e-16
3.11584e-17
-8.21886e-18
-4.15079e-17
5.73923e-18
-5.71091e-18
-1.3609e-17
4.55293e-18
-2.36718e-18
-4.41061e-18
1.64358e-18
-1.03859e-18
5.4143e-19
-8.99505e-17
2.78661e-16
-2.10217e-16
9.96148e-17
0
0
-1.7303e-17
3.92379e-17
-2.08333e-17
3.73226e-17
0
0
8.68995e-18
-6.87378e-18
-3.88889e-18
1.22584e-18
-1.30283e-18
7.14897e-19
0
1.2092e-17
8.42157e-17
-5.9412e-17
-4.83147e-17
-6.608e-17
-1.30561e-17
2.77471e-17
0
-1.90481e-17
-1.24324e-17
1.04536e-17
-7.11631e-18
4.80861e-18
0
1.58452e-18
2.46424e-18
0
0
0
-1.18018e-17
1.16142e-16
3.47395e-17
-1.46981e-16
3.49789e-17
2.71986e-17
0
0
1.73529e-17
-9.33183e-18
-1.01109e-17
6.88277e-18
-4.65029e-18
0
-8.04956e-19
5.64114e-19
0
-4.39099e-19
-1.56476e-19
-6.73053e-17
1.97815e-16
-2.25936e-16
-7.63206e-17
4.17644e-17
-2.45424e-17
1.79031e-17
0
-8.8759e-18
6.54802e-18
0
0
1.53464e-18
-1.5364e-18
3.25143e-19
-5.2904e-19
5.85635e-19
1.21643e-19
1.19435e-19
3.70248e-17
-3.10633e-17
1.41876e-16
-8.99526e-17
-3.04135e-17
6.11616e-18
3.86471e-17
1.14748e-17
8.49291e-18
0
3.04391e-18
-2.75713e-18
1.8071e-18
-1.27785e-18
1.16612e-18
-1.7925e-18
-4.49603e-19
3.71832e-19
8.68522e-20
9.45199e-17
-9.81622e-17
0
6.65081e-17
-3.67999e-17
-2.15575e-17
1.03288e-17
-3.66903e-17
0
-6.05208e-19
-3.97849e-18
-2.17551e-18
2.44074e-18
-3.09305e-19
-1.12704e-18
7.06355e-19
0
1.8465e-19
-8.43327e-20
1.73365e-16
-2.77217e-17
1.02976e-16
-7.98055e-17
3.31212e-17
-2.88651e-18
-3.32557e-17
-7.98004e-18
1.32383e-17
-8.63265e-19
-4.70541e-18
3.54842e-18
-1.36962e-18
-1.29954e-18
0
0
0
-1.85925e-19
6.44448e-21
-1.46336e-16
1.40359e-16
6.79075e-20
1.67169e-17
1.26066e-17
-2.46575e-17
2.60319e-17
-1.77676e-17
1.28028e-17
-2.94541e-18
5.38579e-18
1.38923e-18
-5.00363e-19
2.71954e-20
-9.04171e-20
-1.68826e-19
0
0
0
0
0
5.61726e-17
-3.51029e-17
-7.55977e-17
0
0
-5.06427e-18
-6.58944e-18
4.49438e-18
0
-1.75207e-18
1.0901e-18
-2.77412e-18
3.02266e-18
-7.3719e-19
7.78522e-19
7.33652e-20
0
-2.82505e-17
2.85982e-17
0
-1.80648e-17
1.7769e-17
2.45238e-17
0
5.11263e-18
4.30765e-18
-2.16105e-17
0
-2.07744e-18
1.30606e-18
7.18371e-19
-4.40657e-19
5.61786e-19
0
-1.64776e-19
0
-1.45588e-17
-1.34333e-17
7.92632e-19
1.85612e-17
-4.38817e-17
0
-8.38698e-18
0
1.60296e-17
5.11804e-18
0
8.18549e-18
-7.38586e-18
9.78584e-19
-8.16873e-19
4.96359e-19
1.08084e-18
3.33218e-19
-2.64348e-19
0
2.90393e-17
-2.22621e-17
2.70808e-17
2.74029e-17
0
1.6591e-17
-1.46932e-17
-8.79668e-18
1.0245e-17
-1.50638e-17
-5.50467e-18
0
0
6.26316e-19
0
0
1.27678e-19
0
-1.33842e-16
1.03827e-16
0
2.5011e-18
-1.52721e-17
-7.43003e-19
1.13491e-17
5.82826e-18
-8.84305e-18
-1.54146e-17
1.95173e-17
-5.49121e-18
0
-1.57238e-18
0
0
0
-5.00756e-19
4.02359e-19
-3.90706e-17
3.43249e-17
8.27044e-17
-7.81471e-17
2.18877e-17
1.91907e-18
-1.14851e-17
8.48867e-18
1.22443e-17
7.62877e-18
-1.481e-17
0
4.67026e-18
-2.34397e-19
-1.79784e-18
-2.93284e-18
2.30872e-18
-2.52408e-19
5.31913e-19
-1.36652e-16
1.74515e-16
-1.70374e-16
2.68764e-17
1.99904e-17
-1.80004e-17
1.40799e-17
-9.24266e-18
0
-6.0217e-18
7.49436e-18
3.15826e-18
4.42836e-18
4.14583e-18
-5.91703e-18
-3.12871e-19
0
-2.47798e-19
8.56656e-20
-1.47689e-16
-4.01772e-17
-6.35792e-17
3.53037e-17
-4.84122e-17
3.74922e-17
-2.11422e-17
1.51213e-17
-1.80123e-18
-1.69232e-18
-8.775e-18
5.68306e-18
-1.76814e-18
5.99284e-18
-6.43337e-18
3.86743e-19
5.5057e-19
0
-1.61677e-19
1.59684e-16
-4.37173e-17
0
0
-4.96669e-17
9.33946e-17
-2.02856e-17
-3.16087e-18
2.3778e-17
-7.52655e-19
0
0
-3.36256e-18
0
-6.07468e-18
1.35992e-17
-9.0532e-18
0
7.44923e-20
5.3056e-17
9.42528e-17
0
-3.57696e-17
-2.51811e-17
-1.91609e-17
-2.13725e-17
7.5694e-18
-1.99145e-17
-9.28874e-18
0
0
5.85364e-18
0
0
-9.08785e-18
1.5263e-17
0
0
3.64509e-16
-5.07154e-17
-2.04829e-16
-9.85104e-17
1.34755e-16
3.83197e-17
2.07233e-17
0
-6.33982e-18
5.39065e-18
1.35112e-17
-4.14662e-18
-5.13661e-18
7.64806e-18
-8.13519e-18
-2.09569e-18
0
0
0
2.91867e-17
-2.16023e-16
2.10586e-16
-1.87327e-17
-1.32295e-16
2.00069e-16
-9.68057e-17
0
0
3.88797e-17
-3.0911e-17
0
-7.6135e-18
1.36137e-17
-1.25297e-18
3.66285e-18
1.05347e-18
1.66446e-20
2.14168e-19
0
0
0
1.61109e-16
-1.08772e-16
1.00313e-16
-1.533e-16
4.17272e-17
0
-1.26584e-17
1.84809e-17
-1.88886e-17
-3.27855e-18
1.39982e-19
-2.03408e-18
-2.38655e-19
-1.61539e-18
-4.67957e-19
-2.46856e-19
2.40439e-16
-4.19776e-16
1.94553e-16
0
4.45459e-17
-6.11794e-17
5.46705e-17
-4.31912e-17
0
-1.74806e-17
2.45886e-17
0
0
1.29681e-19
0
-2.32268e-18
1.56451e-18
2.30488e-19
4.01784e-19
2.42387e-16
0
-8.53421e-17
9.50974e-17
-5.38311e-17
1.1518e-16
-5.28691e-17
-3.69219e-17
3.73075e-17
-3.52095e-18
0
0
1.97052e-18
-3.07496e-18
-2.12959e-18
3.98162e-18
-8.5765e-19
4.15196e-19
0
1.37326e-16
9.97795e-17
-7.35856e-18
-9.11289e-17
-8.53848e-18
-5.73419e-17
8.69622e-18
4.5589e-17
-2.18348e-18
3.58707e-18
0
0
-2.01866e-18
0
2.26537e-18
-2.42341e-18
0
3.04694e-19
-8.33023e-20
-7.2827e-17
-5.01479e-17
4.70301e-17
-5.02821e-18
-2.15665e-18
5.52702e-18
0
-1.32133e-18
1.83686e-17
-1.54601e-17
0
4.59469e-18
-1.02567e-18
-3.92681e-18
-3.48069e-19
-2.67156e-19
0
-2.39226e-19
0
2.88176e-17
-5.38384e-17
2.9479e-19
2.17579e-17
1.81939e-17
-1.79757e-17
-1.15577e-17
1.30414e-17
-4.06497e-18
3.20845e-18
-2.82929e-18
2.91655e-18
0
6.85871e-21
-2.56601e-19
9.17795e-19
-3.09841e-21
0
0
2.88187e-17
-2.87107e-17
-2.16421e-17
1.92351e-17
3.20571e-17
-3.22463e-17
-5.77914e-18
5.79402e-18
-4.10022e-18
4.14286e-18
-2.82947e-18
5.25134e-18
-1.47321e-18
-1.0072e-18
-2.9604e-19
1.01032e-19
2.31344e-19
6.05172e-20
-4.53229e-20
0
-6.70172e-18
3.75375e-17
-4.08697e-17
3.19143e-17
-2.84025e-17
0
1.93049e-17
-1.73448e-17
0
5.58007e-18
-7.02331e-18
-3.74755e-18
3.92767e-18
6.85868e-19
0
0
-2.39315e-19
8.66172e-20
1.14552e-16
-2.07125e-16
2.02825e-16
-1.70264e-16
6.55709e-17
-5.00777e-17
4.77792e-17
5.16696e-18
-1.80088e-17
1.60325e-17
0
-1.01152e-17
9.23795e-18
-1.63503e-18
-6.71808e-19
1.00049e-18
7.25229e-19
2.32329e-19
-8.36919e-20
2.72716e-16
0
-9.68181e-17
7.53769e-17
8.44069e-18
-5.9917e-17
1.0318e-16
-8.65607e-17
3.31316e-17
-1.26258e-17
1.29236e-17
2.40981e-18
3.82202e-18
1.59253e-18
-1.2245e-18
-1.89026e-19
-1.55766e-18
0
1.48262e-19
2.10517e-16
-2.36992e-16
0
1.94688e-17
7.76678e-17
-7.51886e-17
1.17045e-17
9.73494e-18
4.09626e-18
6.5967e-18
0
0
-6.56349e-18
1.17527e-17
-4.19325e-18
-1.43e-18
1.56561e-18
1.21762e-19
-2.77896e-19
2.88311e-17
2.08469e-16
-2.24133e-17
-1.41977e-16
1.2506e-16
1.37171e-17
-1.1455e-17
-9.50814e-18
2.80874e-17
-3.47241e-17
1.84923e-17
-1.89e-17
2.47863e-18
-3.54328e-18
5.5991e-18
-3.77303e-18
0
0
2.3321e-19
0
5.09197e-17
-1.41438e-16
1.62319e-16
-1.16534e-16
1.16257e-16
0
3.27066e-17
-3.28565e-17
-2.13444e-17
3.09453e-17
0
1.07697e-17
-1.36304e-17
-1.93904e-18
0
-1.90007e-19
-3.21777e-19
-3.82428e-20
-5.04921e-16
2.34923e-16
0
-1.34749e-16
1.34735e-16
7.2315e-17
-4.72066e-17
1.67965e-17
0
-6.32231e-19
3.67168e-18
-4.14333e-18
-5.13335e-18
7.64287e-18
-8.12691e-18
0
1.39279e-18
-1.88921e-19
-2.02423e-19
3.05627e-16
-2.95855e-16
0
3.5173e-17
2.96524e-17
-2.57202e-17
0
-1.76029e-17
-1.30015e-17
0
-1.28661e-18
0
5.86022e-18
0
0
1.79823e-18
6.44498e-18
-8.54013e-18
0
-1.10877e-20
4.37403e-17
-3.77018e-17
2.63275e-17
-1.36043e-16
4.96921e-17
0
3.16446e-18
8.70486e-18
0
-7.32851e-18
1.72347e-17
-1.81061e-17
2.39983e-18
0
-5.28643e-19
0
0
0
1.61281e-21
0
3.48459e-17
0
-4.34809e-17
4.41722e-17
0
1.16417e-17
-8.02936e-18
2.67184e-17
-1.23713e-17
3.4421e-18
-4.83938e-18
3.83141e-18
-6.44876e-18
-9.512e-19
0
-3.67076e-19
0
1.1586e-16
-1.9669e-16
0
-2.64851e-17
2.14918e-17
0
0
-2.06672e-17
0
-6.02959e-18
-7.50535e-18
-3.16361e-18
4.43693e-18
0
1.49066e-18
0
0
7.41385e-19
-7.51006e-19
0
1.61098e-16
-1.27974e-16
2.45192e-17
-1.99015e-17
-6.76062e-18
1.83639e-17
1.76763e-17
-1.76892e-17
5.56148e-18
9.81632e-19
-3.10039e-18
1.21078e-17
-3.64282e-18
-6.36785e-18
1.9567e-18
-3.62449e-19
2.23643e-19
-5.08951e-20
-2.85416e-16
1.03902e-16
0
0
7.76885e-18
-7.90004e-18
3.85051e-18
1.32553e-18
1.50896e-17
6.1927e-18
-5.67427e-18
-5.63455e-19
-2.04059e-18
1.57558e-18
0
4.77229e-19
3.32211e-19
1.38504e-19
4.6002e-20
0
8.48969e-17
-7.38551e-17
2.25993e-17
1.92797e-17
-3.56466e-18
-9.35056e-18
-6.79699e-18
-1.84247e-17
5.94962e-18
-2.30403e-18
4.07425e-18
1.9082e-18
-1.71584e-18
1.82126e-18
7.79288e-19
-1.10724e-18
-1.27929e-19
0
-1.66637e-17
-6.86256e-17
2.23702e-17
1.85676e-17
-5.50488e-17
3.70556e-17
1.38186e-17
-1.41248e-17
8.35179e-18
-5.64648e-18
0
0
-2.26967e-18
3.77663e-18
-1.48225e-18
1.00302e-18
-1.10794e-18
1.49516e-19
-2.64774e-19
3.04144e-17
2.65445e-17
-2.19667e-17
1.34557e-17
-1.79234e-17
-2.08238e-17
0
0
0
0
0
0
1.16628e-18
-2.38288e-18
2.52015e-18
-5.87864e-19
7.43197e-19
2.91136e-19
-2.42981e-19
6.46124e-17
-9.55979e-17
1.18547e-16
-4.38272e-17
6.19869e-17
-3.34548e-17
5.80471e-17
-2.91139e-17
-1.07868e-17
1.10344e-17
0
1.75116e-18
-1.1394e-18
2.07403e-18
-9.3162e-19
-8.44736e-19
-1.31676e-18
1.13003e-19
2.01166e-19
1.01431e-16
2.62236e-17
0
-3.33874e-17
-2.1584e-17
4.60204e-17
1.7893e-18
-1.34237e-17
7.11076e-18
-3.81942e-18
0
-1.38624e-18
0
-7.65193e-19
5.44354e-19
-4.06703e-19
-1.24769e-19
7.1758e-20
0
1.40449e-16
-2.77212e-17
1.03046e-16
-7.99706e-17
-1.34771e-17
4.34505e-17
-2.58438e-17
1.88241e-18
1.2682e-18
-3.85288e-18
3.42622e-18
0
0
1.0413e-18
-2.49337e-19
1.28108e-19
4.4776e-19
-1.5217e-19
0
1.87423e-20
0
-2.37843e-17
1.22984e-16
-8.05104e-17
-6.85286e-17
3.69025e-17
-2.82209e-17
2.47646e-17
9.65344e-18
-5.93705e-18
2.06417e-18
-1.65631e-18
3.8208e-19
1.78771e-18
-2.03514e-20
-4.64212e-19
4.36818e-19
-9.32761e-20
3.32372e-16
-1.0384e-16
4.04125e-17
-1.29752e-16
3.04134e-17
-4.06149e-17
2.3091e-17
0
0
-6.74352e-19
-1.10839e-18
-3.0615e-19
0
-1.83921e-18
-1.16615e-18
7.29891e-19
-4.85095e-20
1.20899e-19
1.99939e-19
0
-9.89479e-17
1.50752e-16
2.3634e-17
-1.08507e-16
2.45424e-17
-3.1536e-17
8.81234e-18
2.21646e-17
0
0
3.27907e-19
2.33976e-18
0
-1.40908e-18
-5.34414e-19
8.41112e-20
-2.04679e-19
-2.67935e-19
0
-5.81619e-17
2.19419e-17
1.01826e-16
6.18604e-17
-1.08688e-16
4.63284e-17
-2.4699e-17
1.39401e-17
-1.46489e-17
0
0
0
-3.1308e-18
4.85855e-19
-8.08932e-19
0
-4.10895e-20
1.98295e-19
-2.46046e-16
2.28821e-16
2.1521e-16
-2.58847e-16
1.02959e-16
-9.39885e-17
0
2.68104e-17
-3.47159e-17
1.78562e-17
-1.12805e-17
7.80329e-18
5.37447e-18
3.23794e-18
2.19158e-18
0
0
0
0
2.81993e-16
-1.51324e-16
0
0
-3.95455e-17
8.33969e-17
-5.25854e-17
-2.90344e-17
2.87071e-17
1.67352e-17
2.42372e-17
-8.09666e-18
3.11454e-18
1.89977e-18
1.2196e-18
1.02203e-18
1.58194e-18
-7.33822e-20
7.47464e-20
-2.81441e-16
2.49636e-16
1.18381e-16
-6.36763e-17
1.14914e-16
-7.26997e-17
-4.86971e-17
-3.62687e-17
0
-3.53128e-17
3.02827e-18
9.93557e-18
-6.43861e-18
-4.55308e-18
-1.51847e-18
-1.35254e-18
-1.08991e-18
0
0
-9.68104e-17
0
6.69872e-17
6.26352e-20
0
0
5.02326e-17
3.74242e-17
0
1.98293e-17
0
-1.48949e-17
-3.71533e-18
6.30318e-18
0
3.76672e-18
-5.0446e-19
5.14617e-19
0
2.10883e-16
0
1.24667e-16
-2.22953e-16
1.86069e-16
1.29365e-16
-7.36903e-18
0
4.18421e-18
2.54151e-17
0
-1.7993e-17
1.78999e-17
-1.51534e-17
-3.1546e-18
-2.94768e-18
-9.72716e-19
-1.97452e-19
-9.0883e-19
-1.87196e-16
2.67214e-16
-6.97126e-17
-1.68877e-16
-8.96919e-17
-7.01378e-17
-1.07954e-16
-3.62342e-17
5.23113e-18
1.03171e-17
-1.02978e-17
2.77673e-17
-1.17973e-17
2.1612e-17
-3.98468e-18
0
5.43908e-18
-3.53218e-18
8.70348e-19
4.33691e-16
-1.35163e-17
-2.9218e-16
2.16381e-16
-1.81989e-16
1.43687e-16
-7.62394e-18
-4.32543e-17
3.37229e-17
1.13289e-17
-2.3435e-18
-2.40261e-17
6.11024e-18
8.46213e-18
-2.1535e-18
2.17806e-18
-5.63357e-18
-1.61029e-18
-2.05513e-18
2.12904e-16
8.3446e-17
1.37465e-16
-1.11052e-16
-8.03361e-17
8.36803e-18
-5.00046e-17
1.18201e-16
6.13709e-18
4.47279e-17
2.43146e-17
-2.07006e-17
0
-1.26255e-17
0
0
1.13844e-17
4.58505e-18
2.34706e-18
1.94818e-16
0
1.34241e-16
1.10335e-16
-8.91502e-17
7.11092e-17
0
-4.50451e-17
-5.85238e-17
-4.64636e-17
-2.45299e-17
2.09347e-17
0
0
0
0
-1.0727e-17
-1.02861e-17
0
-3.81366e-16
0
-1.16935e-17
-1.06038e-17
1.3757e-16
-6.70168e-17
-2.86415e-17
-2.90729e-17
6.10805e-17
0
1.48104e-17
-1.49029e-18
1.58395e-17
0
0
2.28439e-17
-1.75418e-18
1.23875e-17
-5.91258e-18
2.65076e-16
7.01954e-17
-6.94708e-17
-5.66977e-17
-1.75487e-16
1.12287e-16
1.25137e-16
-6.21877e-18
-4.33791e-17
4.54271e-17
9.00578e-18
-4.86218e-17
-3.70738e-17
-2.74733e-17
-2.99891e-17
-2.64471e-17
2.67127e-17
-1.22031e-18
6.05572e-18
-7.95567e-17
3.39588e-17
-1.59465e-16
2.43094e-17
-2.4221e-17
0
-6.33484e-17
-8.72619e-18
-5.85122e-17
9.97498e-18
5.71668e-17
3.84841e-17
-1.03979e-17
-5.84692e-19
2.82185e-17
0
-5.89734e-17
-2.39117e-17
-4.8451e-19
1.67374e-16
-4.1615e-18
2.50894e-16
-1.13457e-16
3.78777e-19
2.73123e-18
7.9492e-17
-1.15507e-17
5.67472e-17
-5.28418e-17
-5.02346e-17
0
5.99135e-17
4.46704e-17
7.04518e-19
-1.03853e-18
3.34156e-17
2.42934e-17
0
-1.17732e-16
0
-2.21808e-17
1.09685e-16
2.56055e-18
2.36508e-17
-7.68676e-17
7.10708e-17
8.20368e-17
7.93268e-17
7.76357e-17
0
-5.82049e-17
0
3.56459e-18
-3.70215e-18
0
-3.90576e-19
1.98938e-17
8.50436e-17
7.27292e-18
-5.7127e-17
1.80684e-16
-5.64832e-17
0
0
-1.00296e-16
-7.94852e-17
-7.685e-17
-1.48857e-16
-2.09948e-17
0
0
0
-7.9883e-18
8.45362e-18
5.66039e-17
-2.02093e-17
7.71014e-18
0
-1.32267e-16
-1.1368e-16
1.23794e-16
-1.2372e-16
-1.74179e-16
2.04535e-16
6.25124e-17
0
9.14094e-17
1.12859e-16
-2.43228e-17
1.35668e-16
-2.2471e-17
2.33869e-17
9.38774e-17
-5.37941e-17
0
-1.6114e-16
0
-1.50761e-16
1.46335e-16
0
2.49739e-16
1.14689e-16
-2.49604e-16
2.07802e-16
-8.33358e-19
-6.12052e-17
-1.0927e-16
0
1.63973e-16
-2.70765e-16
2.91985e-16
-3.72449e-16
0
0
1.61248e-16
-1.83459e-18
-4.46313e-18
-3.00207e-16
3.06241e-16
-1.45876e-16
1.45281e-16
1.433e-16
-1.19621e-16
0
0
2.45609e-16
-2.4984e-16
-2.61323e-16
2.6074e-16
-2.55327e-16
2.77256e-16
-4.35427e-16
0
)
;

boundaryField
{
    up
    {
        type            calculated;
        value           nonuniform List<scalar> 
84
(
0
0
0
0
-1.40564e-17
2.47795e-17
-1.0083e-17
6.05573e-18
-5.36809e-18
0
-2.63401e-18
2.46304e-18
-1.1576e-18
3.04899e-19
2.09607e-19
5.4143e-19
0
0
-1.56476e-19
1.19435e-19
8.68522e-20
-8.43327e-20
6.44448e-21
0
3.0929e-20
1.97177e-20
-2.4167e-19
0
4.02359e-19
5.90001e-19
8.56656e-20
-1.61677e-19
7.44923e-20
0
-1.96784e-20
2.15503e-19
-2.4246e-19
3.98076e-19
0
-8.23089e-20
0
0
-4.52104e-20
8.66172e-20
-8.36919e-20
1.48262e-19
-2.77896e-19
2.3321e-19
-3.82428e-20
-2.02423e-19
0
0
0
-7.51006e-19
-1.09268e-19
4.6002e-20
0
-2.64774e-19
-2.42981e-19
1.70301e-19
0
0
-9.32761e-20
1.99939e-19
-2.67935e-19
1.98295e-19
0
7.47464e-20
0
0
-9.0883e-19
8.70348e-19
-2.05513e-18
2.34706e-18
0
-5.91258e-18
6.05572e-18
-4.8451e-19
0
1.98938e-17
-2.02093e-17
0
0
0
)
;
    }
    low
    {
        type            calculated;
        value           nonuniform List<scalar> 
84
(
-3.23074e-16
3.19551e-16
-1.52073e-16
2.45705e-16
4.37876e-17
-1.13813e-17
9.50924e-17
1.53405e-17
0
3.91683e-16
-9.92928e-17
7.18477e-17
-8.65622e-17
-5.92547e-16
9.67793e-17
0
-8.99505e-17
1.2092e-17
-1.18018e-17
-6.73053e-17
3.70248e-17
9.45199e-17
1.72484e-16
-1.46336e-16
0
-2.82505e-17
-1.45588e-17
0
-1.33842e-16
-3.90706e-17
-1.36153e-16
-1.47351e-16
1.59526e-16
5.3056e-17
3.64706e-16
2.91867e-17
0
2.40439e-16
2.43206e-16
1.37757e-16
-7.30515e-17
2.88176e-17
2.88187e-17
0
1.14552e-16
2.73535e-16
2.10517e-16
2.94708e-17
0
-5.05118e-16
3.05627e-16
-1.10877e-20
1.61281e-21
1.1586e-16
0
-2.8444e-16
0
-1.66637e-17
3.04144e-17
6.4013e-17
1.00433e-16
1.39568e-16
1.87423e-20
3.31748e-16
0
0
-2.46046e-16
2.81841e-16
-2.81409e-16
-9.68104e-17
2.11056e-16
-1.87196e-16
4.34893e-16
2.13682e-16
1.94818e-16
-3.81366e-16
2.64233e-16
-7.86516e-17
1.67374e-16
-1.17345e-16
8.50436e-17
8.45785e-18
-1.6114e-16
1.61454e-16
)
;
    }
    left
    {
        type            calculated;
        value           nonuniform List<scalar> 
19
(
-3.22663e-16
-1.54591e-16
1.59629e-16
6.00536e-18
-2.97256e-16
0
-1.34463e-16
-1.3265e-16
-1.30821e-17
-7.18463e-17
-4.13058e-19
-7.21445e-17
3.2578e-16
-7.21197e-17
3.35363e-16
2.90663e-16
1.73243e-16
2.55093e-16
0
)
;
    }
    right
    {
        type            calculated;
        value           nonuniform List<scalar> 
19
(
1.61248e-16
-1.6545e-18
-4.46313e-18
-3.0027e-16
3.06444e-16
-1.45876e-16
1.45281e-16
1.433e-16
-1.19021e-16
0
0
2.47918e-16
-2.52984e-16
-2.61323e-16
2.6074e-16
-2.55327e-16
2.77256e-16
-4.70742e-16
0
)
;
    }
    frontAndBackPlanes
    {
        type            empty;
    }
}


// ************************************************************************* //
