/*--------------------------------*- C++ -*----------------------------------*\
  =========                 |
  \\      /  F ield         | OpenFOAM: The Open Source CFD Toolbox
   \\    /   O peration     | Website:  https://openfoam.org
    \\  /    A nd           | Version:  7
     \\/     M anipulation  |
\*---------------------------------------------------------------------------*/
FoamFile
{
    version     2.0;
    format      ascii;
    class       volScalarField;
    location    "0.03";
    object      gradTy;
}
// * * * * * * * * * * * * * * * * * * * * * * * * * * * * * * * * * * * * * //

dimensions      [0 -1 0 1 0 0 0];

internalField   nonuniform List<scalar> 
1596
(
-1.93952
-3.37313
-4.20744
-4.71953
-5.01664
-5.30203
-5.54965
-5.85437
-6.2005
-6.54578
-7.02433
-7.52111
-8.17444
-9.1268
-10.8372
-13.8336
-19.8405
-31.5514
-74.3613
-5.55609
-6.20564
-6.02213
-5.58847
-5.17399
-4.98692
-4.95193
-5.07674
-5.29891
-5.53877
-5.89889
-6.28106
-6.78464
-7.48121
-8.6614
-10.4679
-13.5774
-18.5037
-32.8306
-9.04049
-8.41665
-7.15577
-5.86069
-4.8341
-4.23402
-3.94205
-3.89288
-3.98633
-4.12375
-4.36791
-4.63568
-4.99242
-5.47569
-6.29308
-7.50763
-9.55595
-12.6825
-19.5502
-11.7719
-9.97788
-7.82889
-5.85436
-4.34814
-3.41286
-2.90573
-2.70602
-2.68619
-2.73779
-2.88342
-3.05522
-3.28923
-3.60217
-4.13539
-4.92358
-6.27147
-8.33442
-12.0886
-13.4946
-11.0021
-8.2835
-5.84459
-3.98923
-2.79253
-2.10978
-1.78511
-1.67214
-1.65629
-1.72521
-1.82316
-1.96382
-2.15108
-2.4731
-2.95179
-3.79897
-5.13859
-7.37984
-14.3018
-11.6242
-8.65793
-5.95344
-3.85938
-2.46083
-1.63218
-1.20222
-1.01292
-0.944413
-0.95703
-1.00195
-1.07729
-1.17937
-1.35699
-1.62318
-2.11603
-2.9369
-4.29825
-14.4499
-11.9412
-8.97913
-6.17112
-3.92843
-2.37564
-1.42298
-0.901187
-0.647253
-0.536408
-0.50891
-0.517979
-0.551304
-0.600882
-0.6896
-0.823529
-1.08438
-1.54756
-2.34322
-14.1907
-12.0103
-9.213
-6.42415
-4.10922
-2.44554
-1.38939
-0.786957
-0.476815
-0.33051
-0.274232
-0.259892
-0.268055
-0.288087
-0.327731
-0.388287
-0.512898
-0.750737
-1.18453
-13.7232
-11.9368
-9.38232
-6.68445
-4.3477
-2.60395
-1.45889
-0.782847
-0.42102
-0.242711
-0.164201
-0.134094
-0.127607
-0.132087
-0.147182
-0.171491
-0.225005
-0.335669
-0.553118
-13.1238
-11.6711
-9.38199
-6.83138
-4.53147
-2.7554
-1.5526
-0.821487
-0.418503
-0.214003
-0.118661
-0.0778417
-0.0629126
-0.0595689
-0.0633751
-0.0716194
-0.0920791
-0.138559
-0.238241
-12.6265
-11.3593
-9.27809
-6.87516
-4.64018
-2.86625
-1.63406
-0.867274
-0.434965
-0.210837
-0.103204
-0.0550702
-0.0351837
-0.0279328
-0.0268508
-0.0286607
-0.0354573
-0.0530651
-0.0947906
-12.1628
-11.0682
-9.14895
-6.87005
-4.70081
-2.94297
-1.69754
-0.908266
-0.455539
-0.217058
-0.100511
-0.0472815
-0.0243492
-0.0150764
-0.0119247
-0.0113417
-0.0130514
-0.0189911
-0.0349222
-11.672
-10.7211
-8.93683
-6.76952
-4.67361
-2.95267
-1.71746
-0.925318
-0.465783
-0.221173
-0.100428
-0.0446825
-0.0202781
-0.0100997
-0.00614071
-0.00474296
-0.00474952
-0.0064422
-0.0119742
-11.3072
-10.3991
-8.68832
-6.59971
-4.57028
-2.89735
-1.69085
-0.91363
-0.46066
-0.218475
-0.0984717
-0.0428445
-0.0183695
-0.00807255
-0.00392847
-0.00232057
-0.00183363
-0.00214118
-0.00386833
-11.0221
-10.1254
-8.43701
-6.39056
-4.41329
-2.7914
-1.62555
-0.87655
-0.44091
-0.208375
-0.0933812
-0.0401632
-0.0167882
-0.00696295
-0.00298577
-0.00141627
-0.000836712
-0.0007484
-0.00120929
-10.7763
-9.88372
-8.18516
-6.1512
-4.21252
-2.64291
-1.52712
-0.81741
-0.4082
-0.191469
-0.0851078
-0.0362282
-0.0149108
-0.00601186
-0.00242821
-0.00101839
-0.000479
-0.000307795
-0.0003885
-10.6027
-9.67468
-7.93018
-5.88199
-3.97106
-2.45622
-1.39979
-0.739497
-0.364697
-0.168985
-0.074215
-0.0311942
-0.012656
-0.00500686
-0.00196041
-0.000774516
-0.000321444
-0.000159375
-0.000142274
-10.5077
-9.51108
-7.68363
-5.59534
-3.70229
-2.24385
-1.25363
-0.649859
-0.314781
-0.143369
-0.0619348
-0.0256121
-0.0102209
-0.00397148
-0.00152093
-0.000581263
-0.000226791
-9.74702e-05
-6.45495e-05
-10.425
-9.39858
-7.47247
-5.32237
-3.43486
-2.02892
-1.10517
-0.559097
-0.26459
-0.117861
-0.0498463
-0.0201929
-0.0078969
-0.00300646
-0.00112668
-0.000419695
-0.000157867
-6.31113e-05
-3.50278e-05
-10.3412
-9.30438
-7.27176
-5.04733
-3.16104
-1.80955
-0.955515
-0.469113
-0.215755
-0.0935352
-0.0385516
-0.0152361
-0.00581785
-0.00216375
-0.000792139
-0.000287928
-0.000105264
-4.03099e-05
-2.0437e-05
-10.3298
-9.24943
-7.08393
-4.76909
-2.8814
-1.58831
-0.807864
-0.382607
-0.170079
-0.0714086
-0.0285581
-0.0109691
-0.00407633
-0.001477
-0.000527172
-0.000186838
-6.65252e-05
-2.46593e-05
-1.18749e-05
-10.3529
-9.23883
-6.92156
-4.50101
-2.60802
-1.37473
-0.668732
-0.303457
-0.129588
-0.0524153
-0.0202485
-0.00753027
-0.00271497
-0.000955997
-0.00033203
-0.00011461
-3.97497e-05
-1.43121e-05
-6.64262e-06
-10.3693
-9.26115
-6.7939
-4.25888
-2.35494
-1.17833
-0.543452
-0.234188
-0.0952816
-0.0368628
-0.0136753
-0.00490165
-0.00170869
-0.000583278
-0.000196821
-6.61209e-05
-2.23457e-05
-7.83059e-06
-3.51843e-06
-10.3564
-9.29561
-6.70049
-4.05378
-2.13355
-1.00589
-0.434709
-0.175239
-0.0668148
-0.0243242
-0.00853243
-0.0029076
-0.000968307
-0.00031707
-0.000102936
-3.33663e-05
-1.09054e-05
-3.70827e-06
-1.56216e-06
-10.3213
-9.39345
-6.78278
-4.07077
-2.10819
-0.970839
-0.407712
-0.15928
-0.0589196
-0.0209221
-0.00721722
-0.00244715
-0.000820863
-0.000274136
-9.17438e-05
-3.09969e-05
-1.06636e-05
-3.8738e-06
-1.64336e-06
-10.2616
-9.50946
-6.97853
-4.24906
-2.22588
-1.03178
-0.433421
-0.168135
-0.0613317
-0.0213779
-0.00723129
-0.00241598
-0.000807047
-0.000272593
-9.39113e-05
-3.32493e-05
-1.22046e-05
-4.82574e-06
-2.25873e-06
-10.2281
-9.58406
-7.17203
-4.47617
-2.40892
-1.14624
-0.492412
-0.19396
-0.0710973
-0.0245815
-0.00812793
-0.00262205
-0.000840732
-0.000274191
-9.30323e-05
-3.34626e-05
-1.30055e-05
-5.71859e-06
-3.06675e-06
-10.2435
-9.62273
-7.35047
-4.73926
-2.6553
-1.32085
-0.593751
-0.244119
-0.0928008
-0.0329086
-0.0109644
-0.00347755
-0.001062
-0.000319083
-9.75002e-05
-3.18283e-05
-1.19751e-05
-5.84744e-06
-3.88115e-06
-10.3033
-9.66372
-7.53807
-5.04378
-2.96566
-1.55968
-0.744576
-0.325768
-0.131739
-0.0495519
-0.0173848
-0.00572715
-0.00177043
-0.000514069
-0.000139808
-3.5472e-05
-8.84679e-06
-3.80217e-06
-4.0502e-06
-10.4201
-9.72674
-7.74167
-5.37993
-3.32638
-1.85549
-0.945228
-0.443263
-0.192779
-0.0782032
-0.0296486
-0.0105631
-0.0035235
-0.00109326
-0.000307485
-7.1729e-05
-7.88793e-06
3.23042e-06
-8.34761e-07
-10.6133
-9.85186
-7.99397
-5.76094
-3.73879
-2.20834
-1.1992
-0.60281
-0.282472
-0.124125
-0.051278
-0.0200499
-0.00740772
-0.00257946
-0.000831981
-0.000233868
-3.75613e-05
1.56456e-05
1.44841e-05
-10.7936
-10.0261
-8.30035
-6.19264
-4.20636
-2.62238
-1.51341
-0.813476
-0.410037
-0.195045
-0.0878497
-0.0377753
-0.0155245
-0.00611469
-0.00229738
-0.000809005
-0.00022511
-1.09966e-06
5.65819e-05
-11.0297
-10.2668
-8.6565
-6.66219
-4.71575
-3.08947
-1.88726
-1.08097
-0.584411
-0.300187
-0.147085
-0.0693871
-0.0316133
-0.0139978
-0.00604125
-0.00256422
-0.00100754
-0.000273693
0.000124881
-11.37
-10.6005
-9.08024
-7.18285
-5.27773
-3.62093
-2.33487
-1.42256
-0.824345
-0.457455
-0.244374
-0.126976
-0.0645541
-0.0324402
-0.0162928
-0.00838123
-0.00444676
-0.00243088
-0.00121412
-11.773
-10.9739
-9.49514
-7.66051
-5.79053
-4.11956
-2.77376
-1.77606
-1.08794
-0.641499
-0.366123
-0.204152
-0.111922
-0.0609101
-0.0332879
-0.0186964
-0.0110617
-0.00718037
-0.00513861
-12.2711
-11.3691
-9.85519
-8.02191
-6.15491
-4.46909
-3.08549
-2.03462
-1.28856
-0.788176
-0.468356
-0.272687
-0.156572
-0.0894737
-0.0515019
-0.0304946
-0.0191194
-0.0133559
-0.0108192
-12.8835
-11.8243
-10.2243
-8.34427
-6.44539
-4.72848
-3.30879
-2.21807
-1.43221
-0.895615
-0.545762
-0.326814
-0.193638
-0.114609
-0.0686739
-0.0425595
-0.0280887
-0.0206062
-0.0172317
-13.4383
-12.2406
-10.5576
-8.62843
-6.69673
-4.95149
-3.50201
-2.37924
-1.56106
-0.994415
-0.61886
-0.37942
-0.230783
-0.140644
-0.0871082
-0.05604
-0.0385561
-0.0294673
-0.0254535
-13.8647
-12.5851
-10.8446
-8.87725
-6.91794
-5.14821
-3.67314
-2.52299
-1.67721
-1.08469
-0.686764
-0.429239
-0.266749
-0.166501
-0.105964
-0.0702921
-0.0500188
-0.0394852
-0.0349662
-14.2029
-12.8606
-11.0743
-9.07549
-7.09343
-5.3041
-3.80914
-2.63802
-1.77109
-1.15857
-0.74318
-0.471343
-0.297741
-0.189281
-0.123001
-0.0835312
-0.0609759
-0.0493039
-0.0444578
-14.4531
-13.0606
-11.2362
-9.21201
-7.21263
-5.40956
-3.90142
-2.71665
-1.83591
-1.2102
-0.783142
-0.501616
-0.320396
-0.206241
-0.13595
-0.0938208
-0.0696829
-0.0572499
-0.0522266
-14.6349
-13.1769
-11.318
-9.27569
-7.26655
-5.45733
-3.94397
-2.75375
-1.86722
-1.2357
-0.803287
-0.517174
-0.332257
-0.215283
-0.142984
-0.0995159
-0.0745912
-0.0618028
-0.0567366
-14.635
-13.1771
-11.3182
-9.27595
-7.26683
-5.45761
-3.94423
-2.75396
-1.86739
-1.23583
-0.803387
-0.517247
-0.332309
-0.215321
-0.143012
-0.0995369
-0.0746084
-0.0618182
-0.0567519
-14.4532
-13.0609
-11.2367
-9.21271
-7.21342
-5.41035
-3.90216
-2.71728
-1.83642
-1.21059
-0.783434
-0.501828
-0.320548
-0.206349
-0.136029
-0.0938809
-0.0697318
-0.0572938
-0.0522703
-14.203
-12.8611
-11.0751
-9.07662
-7.0947
-5.30538
-3.81032
-2.63902
-1.77189
-1.15918
-0.743633
-0.471669
-0.297973
-0.189445
-0.123119
-0.0836191
-0.0610463
-0.0493662
-0.044519
-13.8648
-12.5858
-10.8457
-8.87874
-6.91963
-5.14991
-3.67468
-2.5243
-1.67825
-1.08547
-0.687338
-0.429646
-0.267033
-0.166699
-0.106103
-0.0703933
-0.0500977
-0.0395532
-0.0350318
-13.4385
-12.2413
-10.559
-8.63026
-6.69879
-4.95355
-3.50388
-2.3808
-1.56229
-0.995333
-0.619518
-0.379878
-0.231096
-0.140856
-0.0872534
-0.0561427
-0.0386337
-0.0295322
-0.0255146
-12.8837
-11.8252
-10.2259
-8.34639
-6.44778
-4.73086
-3.31092
-2.21983
-1.43357
-0.896609
-0.546459
-0.327287
-0.193952
-0.114816
-0.0688111
-0.0426532
-0.0281568
-0.0206614
-0.0172828
-12.2713
-11.3702
-9.85713
-8.02456
-6.15789
-4.47202
-3.08809
-2.03672
-1.29015
-0.789309
-0.469128
-0.273195
-0.156899
-0.0896818
-0.0516355
-0.0305827
-0.0191811
-0.0134041
-0.0108635
-11.7732
-10.9746
-9.49676
-7.66314
-5.7938
-4.12299
-2.77691
-1.77865
-1.08991
-0.642884
-0.367044
-0.204737
-0.112281
-0.0611256
-0.0334157
-0.0187726
-0.0111099
-0.00721679
-0.00517696
-11.3702
-10.6019
-9.08307
-7.18684
-5.28228
-3.62535
-2.33867
-1.42553
-0.826473
-0.458882
-0.24528
-0.12753
-0.0648838
-0.0326337
-0.0164066
-0.00845025
-0.00449259
-0.00246565
-0.00124002
-11.0298
-10.2678
-8.65874
-6.66545
-4.7194
-3.0929
-1.89006
-1.08302
-0.585774
-0.301029
-0.147573
-0.0696565
-0.0317565
-0.0140719
-0.00607896
-0.00258383
-0.00101847
-0.000279432
0.000128561
-10.7936
-10.027
-8.30255
-6.19577
-4.20975
-2.62541
-1.51575
-0.815077
-0.411031
-0.195614
-0.0881536
-0.0379292
-0.015599
-0.00614954
-0.00231335
-0.000816325
-0.000227778
-3.87217e-07
5.94285e-05
-10.6133
-9.85275
-7.99609
-5.7639
-3.74186
-2.21095
-1.20109
-0.604019
-0.283168
-0.124493
-0.0514588
-0.0201333
-0.00744415
-0.00259459
-0.000838044
-0.000236214
-3.78318e-05
1.71133e-05
1.57572e-05
-10.4201
-9.72758
-7.74371
-5.3827
-3.32912
-1.85768
-0.946716
-0.444149
-0.193253
-0.078434
-0.0297524
-0.0106066
-0.00354045
-0.00109938
-0.000309509
-7.22833e-05
-7.7037e-06
3.99543e-06
-5.13082e-07
-10.3033
-9.66447
-7.53997
-5.04629
-2.96803
-1.56146
-0.745707
-0.326394
-0.132048
-0.0496909
-0.017442
-0.00574878
-0.00177788
-0.00051633
-0.000140363
-3.55171e-05
-8.69767e-06
-3.53983e-06
-4.06307e-06
-10.2434
-9.62343
-7.35222
-4.74148
-2.65728
-1.32224
-0.594574
-0.244542
-0.0929949
-0.0329891
-0.0109947
-0.0034879
-0.00106513
-0.000319871
-9.76288e-05
-3.18066e-05
-1.19252e-05
-5.79941e-06
-3.95147e-06
-10.2281
-9.5847
-7.17357
-4.47803
-2.41049
-1.14728
-0.492989
-0.194238
-0.0712159
-0.0246272
-0.00814392
-0.00262709
-0.000842144
-0.000274531
-9.3102e-05
-3.34787e-05
-1.30164e-05
-5.73524e-06
-3.11922e-06
-10.2616
-9.50999
-6.97978
-4.25051
-2.22704
-1.03251
-0.433808
-0.168311
-0.0614032
-0.0214041
-0.00724003
-0.00241867
-0.000807824
-0.000272821
-9.39915e-05
-3.32886e-05
-1.22309e-05
-4.8475e-06
-2.28343e-06
-10.3213
-9.3936
-6.78313
-4.07117
-2.10849
-0.971012
-0.407795
-0.159314
-0.0589318
-0.020926
-0.00721834
-0.00244749
-0.000820997
-0.000274208
-9.17885e-05
-3.10253e-05
-1.0682e-05
-3.88596e-06
-1.65036e-06
-10.3564
-9.29546
-6.70019
-4.05341
-2.1332
-1.00563
-0.43455
-0.175154
-0.0667733
-0.0243057
-0.00852469
-0.00290454
-0.000967147
-0.000316646
-0.000102785
-3.33135e-05
-1.08874e-05
-3.70202e-06
-1.55916e-06
-10.3693
-9.26116
-6.79393
-4.25891
-2.35496
-1.17834
-0.543456
-0.23419
-0.0952832
-0.0368637
-0.0136757
-0.00490186
-0.00170877
-0.000583302
-0.000196827
-6.61211e-05
-2.23451e-05
-7.82995e-06
-3.5177e-06
-10.3529
-9.23882
-6.92156
-4.50101
-2.60802
-1.37473
-0.66873
-0.303457
-0.129589
-0.0524157
-0.0202488
-0.00753045
-0.00271505
-0.000956029
-0.000332041
-0.000114613
-3.97499e-05
-1.43117e-05
-6.64184e-06
-10.3298
-9.24942
-7.08394
-4.76909
-2.8814
-1.58831
-0.807862
-0.382606
-0.170079
-0.0714088
-0.0285584
-0.0109693
-0.00407645
-0.00147706
-0.000527202
-0.000186851
-6.653e-05
-2.46608e-05
-1.18751e-05
-10.3412
-9.30438
-7.27176
-5.04734
-3.16105
-1.80955
-0.955513
-0.469111
-0.215754
-0.093535
-0.0385517
-0.0152363
-0.00581804
-0.00216387
-0.000792205
-0.000287961
-0.000105276
-4.03144e-05
-2.04394e-05
-10.425
-9.39858
-7.47247
-5.32238
-3.43487
-2.02892
-1.10517
-0.559096
-0.264589
-0.117861
-0.0498464
-0.0201932
-0.00789717
-0.00300665
-0.00112679
-0.000419753
-0.000157885
-6.31161e-05
-3.50345e-05
-10.5077
-9.51108
-7.68363
-5.59534
-3.7023
-2.24385
-1.25363
-0.649857
-0.31478
-0.143368
-0.0619348
-0.0256124
-0.0102212
-0.00397177
-0.00152111
-0.000581344
-0.000226789
-9.74603e-05
-6.45699e-05
-10.6027
-9.67467
-7.93018
-5.88199
-3.97107
-2.45623
-1.39979
-0.739495
-0.364695
-0.168984
-0.0742152
-0.0311948
-0.0126566
-0.00500727
-0.00196066
-0.000774579
-0.000321325
-0.000159308
-0.000142361
-10.7763
-9.88371
-8.18516
-6.15121
-4.21253
-2.64292
-1.52712
-0.817409
-0.408198
-0.191468
-0.0851081
-0.0362288
-0.0149114
-0.00601237
-0.00242849
-0.00101828
-0.000478483
-0.000307601
-0.000388886
-11.022
-10.1254
-8.43701
-6.39056
-4.4133
-2.79141
-1.62555
-0.87655
-0.44091
-0.208375
-0.093382
-0.040164
-0.016789
-0.0069636
-0.00298599
-0.00141557
-0.00083514
-0.000748079
-0.00121078
-11.3072
-10.3991
-8.68832
-6.59972
-4.57029
-2.89736
-1.69086
-0.913632
-0.460661
-0.218476
-0.0984731
-0.0428457
-0.0183706
-0.00807342
-0.00392837
-0.00231834
-0.00182978
-0.0021412
-0.00387305
-11.6719
-10.7211
-8.93683
-6.76953
-4.67362
-2.95268
-1.71747
-0.925322
-0.465787
-0.221176
-0.10043
-0.0446841
-0.0202796
-0.0101008
-0.00613961
-0.00473745
-0.00474186
-0.00644436
-0.0119864
-12.1628
-11.0682
-9.14895
-6.87005
-4.70081
-2.94298
-1.69755
-0.908273
-0.455545
-0.217062
-0.100514
-0.0472837
-0.0243516
-0.0150777
-0.0119211
-0.0113307
-0.0130394
-0.0189996
-0.0349477
-12.6264
-11.3593
-9.27809
-6.87516
-4.64018
-2.86626
-1.63407
-0.867285
-0.434973
-0.210842
-0.103208
-0.0550737
-0.0351871
-0.027933
-0.0268425
-0.0286431
-0.0354447
-0.0530858
-0.0948312
-13.1238
-11.6711
-9.38201
-6.83139
-4.53148
-2.75541
-1.55261
-0.821498
-0.418511
-0.214008
-0.118665
-0.0778462
-0.0629155
-0.0595647
-0.0633594
-0.0715987
-0.0920765
-0.138594
-0.238284
-13.7232
-11.9368
-9.38233
-6.68446
-4.34771
-2.60396
-1.4589
-0.782856
-0.421026
-0.242715
-0.164205
-0.134097
-0.127606
-0.132073
-0.147159
-0.171478
-0.225028
-0.335707
-0.553127
-14.1907
-12.0103
-9.213
-6.42416
-4.10922
-2.44554
-1.38939
-0.786962
-0.476819
-0.330513
-0.274234
-0.25989
-0.268042
-0.288061
-0.327706
-0.388299
-0.512957
-0.750751
-1.18445
-14.4499
-11.9412
-8.97913
-6.17113
-3.92844
-2.37564
-1.42298
-0.901187
-0.647253
-0.536408
-0.508906
-0.517965
-0.551276
-0.600847
-0.689588
-0.823578
-1.08446
-1.54751
-2.34306
-14.3018
-11.6242
-8.65794
-5.95344
-3.85939
-2.46083
-1.63218
-1.20222
-1.01291
-0.944406
-0.957015
-1.00192
-1.07725
-1.17934
-1.35701
-1.62326
-2.11609
-2.93679
-4.29805
-13.4946
-11.0021
-8.2835
-5.84459
-3.98923
-2.79252
-2.10978
-1.7851
-1.67213
-1.65627
-1.72519
-1.82312
-1.96378
-2.15108
-2.47315
-2.95187
-3.79898
-5.13848
-7.37974
-11.7719
-9.97789
-7.82889
-5.85436
-4.34814
-3.41286
-2.90572
-2.706
-2.68617
-2.73777
-2.88339
-3.05519
-3.28922
-3.6022
-4.13547
-4.92362
-6.27141
-8.33437
-12.0887
-9.04052
-8.41667
-7.15578
-5.86069
-4.83409
-4.23401
-3.94204
-3.89287
-3.98631
-4.12373
-4.36789
-4.63567
-4.99244
-5.47574
-6.29314
-7.50762
-9.55585
-12.6826
-19.5504
-5.55611
-6.20566
-6.02213
-5.58848
-5.17399
-4.98691
-4.95192
-5.07673
-5.2989
-5.53877
-5.89889
-6.28108
-6.78468
-7.48126
-8.66141
-10.4678
-13.5773
-18.5037
-32.8307
-1.93952
-3.37314
-4.20744
-4.71954
-5.01664
-5.30203
-5.54965
-5.85437
-6.2005
-6.54578
-7.02434
-7.52113
-8.17447
-9.12683
-10.8372
-13.8336
-19.8405
-31.5513
-74.3613
)
;

boundaryField
{
    up
    {
        type            calculated;
        value           nonuniform List<scalar> 
84
(
-67.4685
-36.4116
-21.6008
-13.3753
-8.2017
-4.80136
-2.62888
-1.33279
-0.623009
-0.268245
-0.106467
-0.0390564
-0.0133133
-0.00426007
-0.00130853
-0.000405695
-0.000139422
-5.85129e-05
-2.98653e-05
-1.67938e-05
-9.54063e-06
-5.2497e-06
-2.72858e-06
-1.1107e-06
-1.1215e-06
-1.74278e-06
-2.5556e-06
-3.67833e-06
-5.04348e-06
-4.80959e-06
7.99028e-06
7.84631e-05
0.00027575
-0.000877533
-0.00471834
-0.0102154
-0.0163573
-0.0244539
-0.0338966
-0.0433735
-0.051158
-0.0557015
-0.055717
-0.0512024
-0.0434353
-0.0339626
-0.0245149
-0.0164079
-0.0102595
-0.00475943
-0.000902038
0.000285603
8.32326e-05
8.69071e-06
-5.21719e-06
-5.46497e-06
-3.92098e-06
-2.66873e-06
-1.78426e-06
-1.1299e-06
-1.10803e-06
-2.72777e-06
-5.24869e-06
-9.54021e-06
-1.67953e-05
-2.98718e-05
-5.8539e-05
-0.000139541
-0.000406209
-0.00131043
-0.0042659
-0.0133279
-0.0390855
-0.106509
-0.268281
-0.62299
-1.33267
-2.62867
-4.80117
-8.20169
-13.3755
-21.6011
-36.4116
-67.4684
)
;
    }
    low
    {
        type            calculated;
        value           nonuniform List<scalar> 
84
(
-2.11165
-5.91506
-9.71958
-12.7581
-14.6789
-15.5377
-15.6094
-15.2115
-14.55
-13.7498
-13.1706
-12.633
-12.0305
-11.6171
-11.3137
-11.0304
-10.8288
-10.7496
-10.6594
-10.5161
-10.4642
-10.4548
-10.4138
-10.3358
-10.1482
-9.97724
-9.91103
-9.99422
-10.1591
-10.4047
-10.7043
-10.9326
-11.2174
-11.6138
-12.0583
-12.6236
-13.3377
-13.9467
-14.3967
-14.7557
-15.0243
-15.2418
-15.2419
-15.0243
-14.7557
-14.3968
-13.9467
-13.3377
-12.6237
-12.0581
-11.6139
-11.2172
-10.9324
-10.7041
-10.4045
-10.1588
-9.99399
-9.91083
-9.97712
-10.1482
-10.3359
-10.4137
-10.4548
-10.4642
-10.5161
-10.6594
-10.7496
-10.8288
-11.0304
-11.3137
-11.6171
-12.0305
-12.633
-13.1706
-13.7498
-14.55
-15.2115
-15.6094
-15.5377
-14.6789
-12.7581
-9.71962
-5.91507
-2.11165
)
;
    }
    left
    {
        type            calculated;
        value           nonuniform List<scalar> 
19
(
-1.92661
-3.3787
-4.27702
-4.85163
-5.19689
-5.51811
-5.79147
-6.12201
-6.49175
-6.86494
-7.3788
-7.90814
-8.60986
-9.65601
-11.5565
-14.9659
-21.8949
-35.5662
-69.8215
)
;
    }
    right
    {
        type            calculated;
        value           nonuniform List<scalar> 
19
(
-1.92661
-3.3787
-4.27702
-4.85163
-5.19689
-5.51811
-5.79147
-6.12201
-6.49175
-6.86495
-7.37881
-7.90816
-8.6099
-9.65604
-11.5565
-14.9658
-21.8948
-35.5661
-69.8216
)
;
    }
    frontAndBackPlanes
    {
        type            empty;
    }
}


// ************************************************************************* //
