/*--------------------------------*- C++ -*----------------------------------*\
  =========                 |
  \\      /  F ield         | OpenFOAM: The Open Source CFD Toolbox
   \\    /   O peration     | Website:  https://openfoam.org
    \\  /    A nd           | Version:  7
     \\/     M anipulation  |
\*---------------------------------------------------------------------------*/
FoamFile
{
    version     2.0;
    format      ascii;
    class       volScalarField;
    location    "0.03";
    object      gradTz;
}
// * * * * * * * * * * * * * * * * * * * * * * * * * * * * * * * * * * * * * //

dimensions      [0 -1 0 1 0 0 0];

internalField   nonuniform List<scalar> 
1596
(
-6.44779e-16
-2.85159e-16
3.20104e-16
3.33191e-17
-5.46076e-16
0
-2.22623e-16
-2.2086e-16
-4.69984e-17
-1.3201e-16
4.5416e-20
-1.34563e-16
6.45271e-16
-1.38947e-16
6.24954e-16
5.54101e-16
3.33887e-16
4.43748e-16
0
6.12512e-16
0
6.91917e-16
-1.71727e-17
-1.58758e-16
1.59807e-16
4.13822e-16
4.40285e-17
1.82657e-16
-9.14429e-17
1.85012e-16
4.19369e-19
-2.52377e-16
-1.61113e-16
-4.99685e-16
-5.03605e-16
-4.71606e-16
2.81934e-16
0
-2.61779e-16
0
-3.79835e-16
2.50922e-17
2.53916e-16
-1.18981e-16
2.53475e-17
-8.67025e-19
-3.11161e-19
4.56557e-20
3.32025e-17
0
1.30305e-16
3.33604e-16
-3.3654e-17
3.27367e-17
7.23947e-17
1.45057e-16
0
4.6421e-16
-9.11253e-17
9.07925e-17
0
-7.15383e-17
-8.12124e-17
9.59625e-17
-5.24218e-17
0
0
-5.98882e-17
1.76162e-17
0
-8.59655e-17
-8.43334e-17
6.67373e-17
-1.05959e-16
-5.08156e-18
0
8.67995e-17
1.58674e-16
-8.99342e-17
0
-1.41808e-17
-5.01348e-17
0
6.34347e-17
-4.83189e-18
-4.61421e-18
-2.62082e-17
2.38956e-17
3.53793e-17
5.53612e-18
2.48685e-17
-7.17582e-17
3.21109e-18
3.46815e-17
-1.92635e-17
-2.25404e-17
-2.08743e-16
1.40451e-16
-8.29432e-17
-7.54086e-19
-3.24622e-17
7.32042e-19
-7.34472e-19
-1.47718e-17
0
-1.46756e-17
-2.96936e-17
-3.1252e-17
1.67753e-17
3.61742e-17
-4.06057e-19
-2.08175e-17
-3.51769e-17
3.05106e-17
1.88375e-16
-2.19961e-16
1.68306e-16
5.71829e-17
0
2.63814e-17
9.6832e-18
-3.85907e-18
1.77287e-17
-2.5078e-18
-1.55852e-17
-2.42265e-20
-6.00028e-18
-1.67513e-17
-8.60547e-18
9.51988e-18
2.10007e-17
-3.2098e-19
-1.07074e-17
5.41253e-17
3.70437e-16
-2.97674e-16
0
0
-2.81649e-17
0
0
0
3.88756e-18
0
0
6.17067e-18
-7.35658e-20
5.43821e-18
-8.82982e-18
0
4.69354e-18
2.95343e-18
0
-2.05794e-16
3.60459e-16
0
0
2.90059e-17
0
-3.10905e-18
3.10591e-18
-3.95698e-18
1.0742e-18
-1.08206e-18
0
1.48773e-18
3.83365e-18
0
-2.00712e-18
-4.76015e-18
-2.73256e-18
7.34523e-16
-3.09362e-16
0
-8.19343e-17
8.10174e-17
0
1.65974e-17
0
0
0
5.69092e-19
-5.71821e-19
0
-1.24975e-18
-2.26137e-19
0
1.17587e-18
8.23701e-19
0
-1.86617e-16
0
0
8.64043e-17
-1.33675e-16
2.24548e-17
8.68438e-18
-3.02169e-18
1.58946e-18
2.90009e-19
-6.82554e-19
-4.73194e-19
0
2.59916e-19
-9.16136e-20
9.29886e-20
7.13192e-19
-7.19686e-19
-2.45694e-19
8.65316e-17
-4.87708e-17
9.17978e-17
2.05417e-16
-3.79368e-17
-5.04726e-17
0
0
0
1.7869e-18
2.97207e-19
6.87087e-19
-1.53344e-19
-2.55266e-19
-6.59627e-20
-7.06667e-20
3.65207e-20
-1.1564e-19
2.21786e-19
-1.39545e-16
1.43285e-16
-2.23829e-16
-2.04723e-16
1.56531e-16
2.75674e-17
-4.09048e-17
2.00483e-17
-9.31817e-18
2.2505e-18
6.26553e-19
-2.3481e-19
2.10147e-20
-3.57142e-20
1.33736e-19
0
-1.28191e-20
1.51635e-19
-2.67573e-20
-1.1154e-15
4.48351e-16
-3.13773e-19
-3.36896e-17
2.25357e-17
2.71189e-17
-4.47446e-17
-8.63347e-18
3.91179e-18
-1.68373e-18
-7.03146e-19
0
-2.09595e-19
-4.50755e-20
-3.14957e-20
-1.37937e-20
5.28454e-22
-4.10034e-20
1.72002e-20
1.81698e-16
-1.2958e-16
-1.03885e-18
-5.46445e-17
-7.99982e-17
6.50524e-17
5.83617e-19
8.41331e-18
-3.80865e-18
3.19165e-18
4.49783e-19
2.3247e-19
2.15162e-19
0
4.8738e-20
1.57782e-20
0
1.09334e-20
5.52599e-21
0
1.25707e-16
5.17373e-17
-1.32908e-16
7.5972e-17
-8.56324e-17
4.025e-17
5.52839e-18
-3.02781e-18
-3.91163e-18
2.07112e-19
-2.0609e-19
-1.82661e-19
3.24955e-20
-1.14288e-20
-1.29929e-20
2.5048e-21
-1.46005e-21
2.5043e-21
-1.67389e-16
3.96323e-16
-3.1065e-16
9.2829e-17
0
0
-3.74502e-18
1.04153e-17
-2.11025e-18
3.24011e-18
0
0
1.07577e-19
-5.70708e-20
-1.33055e-20
3.74772e-21
-2.07904e-21
1.06667e-21
0
4.56779e-17
1.57309e-16
-7.33065e-17
-4.69607e-17
-3.7084e-17
5.57002e-18
1.21301e-17
0
-1.755e-18
-3.11108e-19
3.68481e-19
-1.40391e-19
5.21797e-20
0
6.49887e-21
5.31303e-21
0
0
0
-4.53811e-17
1.29463e-16
2.32805e-18
-1.46007e-16
2.05709e-17
1.16415e-17
0
0
1.41804e-18
-8.64517e-19
-3.56401e-19
1.35784e-19
-5.04617e-20
0
-1.93592e-21
1.20849e-21
0
-2.36363e-22
-7.09156e-23
-9.99231e-17
3.01363e-16
-2.79225e-16
-5.40131e-17
3.35491e-17
-8.63333e-18
3.9523e-18
0
-6.99616e-19
3.50962e-19
0
0
1.04978e-20
-1.05099e-20
6.50681e-22
-1.21099e-21
3.98458e-22
1.00074e-22
5.42926e-23
6.76161e-17
-4.46813e-17
1.42225e-16
-8.47633e-17
-1.47932e-17
4.16638e-18
1.02329e-17
1.29132e-18
6.69427e-19
0
5.64914e-20
-5.12886e-20
1.8401e-20
-7.02388e-21
2.02536e-21
-1.91455e-21
-2.65738e-22
1.62541e-22
2.23914e-23
1.48124e-16
-1.66527e-16
0
3.97231e-17
-2.51879e-17
-6.65985e-18
7.59434e-19
-4.91719e-18
0
-2.61236e-20
-1.05708e-19
-2.42434e-20
1.28434e-20
-2.64973e-21
-1.95748e-21
6.64864e-22
0
4.51108e-23
-2.17419e-23
3.4048e-16
-3.80333e-17
8.81884e-17
-6.62002e-17
1.05128e-17
-6.54963e-18
-6.66032e-18
-5.27666e-19
7.20369e-19
-6.74363e-20
-5.26656e-20
3.18597e-20
-8.02835e-21
-2.75102e-21
0
0
0
-4.50799e-23
1.22464e-24
-2.40727e-16
2.18641e-16
-6.46543e-19
9.64408e-18
4.76227e-18
-4.5855e-18
3.4957e-18
-1.32328e-18
5.23658e-19
-4.18465e-20
6.97394e-20
6.10214e-21
-1.24923e-21
4.30513e-23
2.48612e-23
-6.47841e-23
0
0
0
0
0
3.9122e-17
-4.14884e-17
-3.32972e-17
0
0
-2.60814e-19
-1.97135e-19
6.17682e-20
0
-7.69591e-21
2.54715e-21
-2.82918e-21
2.70568e-21
-2.38677e-22
2.52164e-22
1.21073e-23
0
-4.53411e-17
4.58991e-17
0
-1.06478e-17
7.75965e-18
6.63394e-18
0
2.63305e-19
4.77488e-20
-3.79312e-19
0
-6.99569e-21
2.32099e-21
8.08727e-22
-2.83078e-22
2.09255e-22
0
-2.91563e-23
0
-2.35499e-17
-1.5352e-17
9.40827e-19
1.09403e-17
-1.56074e-17
0
-9.64261e-19
0
4.52112e-19
6.73993e-20
0
2.47195e-20
-1.53145e-20
2.17647e-21
6.18554e-23
4.14449e-22
3.37295e-22
6.29567e-23
-5.00986e-23
0
4.05699e-17
-1.86946e-17
2.13819e-17
1.03348e-17
0
1.78578e-18
-1.29279e-18
-2.62797e-19
1.27548e-19
-1.72505e-19
-2.08501e-20
0
0
2.9013e-22
0
0
2.15308e-23
0
-2.21186e-16
1.77593e-16
0
4.82495e-18
-4.12981e-18
-1.63835e-19
2.02383e-18
2.02883e-19
-7.27085e-19
-4.28775e-19
2.22564e-19
-5.78999e-20
0
-1.87122e-21
0
0
0
-8.21112e-23
6.52618e-23
-7.21805e-17
5.01689e-17
8.45649e-17
-6.97454e-17
1.28751e-17
2.01209e-18
-2.01353e-18
8.36445e-19
6.50508e-19
1.96117e-19
-3.50918e-19
0
1.27894e-20
-8.21541e-21
-2.18302e-21
-3.21925e-23
-7.13635e-23
-6.67762e-23
4.11281e-24
-2.79749e-16
2.4314e-16
-2.23995e-16
2.38971e-17
1.16436e-17
-8.72214e-18
4.74478e-18
-1.51977e-18
0
-3.55794e-19
1.60425e-19
5.78694e-20
4.34376e-20
9.75559e-21
-1.17485e-20
-9.11061e-22
0
7.01113e-23
-5.91715e-23
-3.01424e-16
-6.16319e-17
-6.9344e-17
4.43581e-17
-3.22547e-17
1.66521e-17
-7.72201e-18
2.85265e-18
-5.75811e-19
-4.03209e-19
-2.83993e-19
2.32173e-19
6.47374e-21
3.1373e-20
-3.36792e-20
-1.93315e-21
7.0955e-22
0
2.29005e-22
3.25906e-16
-7.01467e-17
0
0
-3.42172e-17
5.62513e-17
-9.22748e-18
-6.42281e-19
3.40152e-18
-2.18794e-19
0
0
-5.91403e-20
0
-3.94589e-20
5.97291e-20
-3.13887e-20
0
-1.8849e-22
1.00075e-16
1.52616e-16
0
-3.92392e-17
-1.63568e-17
-4.16601e-18
-9.91855e-18
1.93693e-18
-4.07557e-18
-8.2349e-19
0
0
2.67788e-19
0
0
-7.97663e-20
1.54405e-19
0
0
6.91202e-16
-1.32153e-16
-3.09894e-16
-9.71929e-17
1.36952e-16
2.52228e-17
9.61727e-18
0
-1.37515e-18
8.17095e-19
1.65297e-18
-4.21334e-19
-2.34986e-19
2.5311e-19
-2.69232e-19
-3.32005e-20
0
0
0
5.52354e-17
-3.37014e-16
3.22627e-16
-2.19841e-17
-1.1195e-16
1.49711e-16
-6.18967e-17
0
0
7.24869e-18
-5.05114e-18
0
-4.24871e-19
8.2929e-19
-2.60919e-20
1.30817e-19
2.88102e-20
8.66283e-22
4.18586e-21
0
0
0
1.75253e-16
-1.21146e-16
6.65583e-17
-9.40074e-17
2.09347e-17
0
-2.8263e-18
2.5788e-18
-2.63568e-18
-2.52494e-19
3.58022e-20
-8.56397e-20
-6.05029e-21
-5.46317e-20
-1.52551e-20
-7.30347e-21
4.33037e-16
-7.08415e-16
3.04571e-16
0
3.75938e-17
-5.35657e-17
2.92211e-17
-2.25723e-17
0
-3.55379e-18
5.19381e-18
0
0
3.8281e-20
0
-1.0549e-19
6.6884e-20
3.778e-21
1.26188e-20
4.86301e-16
0
-1.14133e-16
1.25975e-16
-4.71704e-17
9.27097e-17
-3.71078e-17
-1.50993e-17
1.5257e-17
-9.24944e-19
0
0
2.16771e-19
-2.34439e-19
-1.27378e-19
2.21784e-19
-4.3661e-20
1.64028e-20
0
2.73901e-16
1.57429e-16
-3.23462e-17
-1.21906e-16
-8.46543e-18
-4.13241e-17
1.34974e-17
2.52719e-17
-7.94565e-19
9.42312e-19
0
0
-2.22068e-19
0
1.52466e-19
-1.63102e-19
0
1.59775e-20
-4.16565e-21
-1.449e-16
-7.92737e-17
7.47156e-17
-6.14964e-18
-2.16963e-18
4.43162e-18
0
-6.43703e-19
6.08495e-18
-5.09643e-18
0
6.47925e-19
-2.63019e-19
-4.29668e-19
-2.76201e-20
-1.8141e-20
0
-1.27259e-20
0
5.1922e-17
-9.14645e-17
5.8332e-18
2.94031e-17
1.68437e-17
-1.62446e-17
-6.55919e-18
7.29115e-18
-1.3448e-18
1.11022e-18
-5.34947e-19
5.51446e-19
0
6.7536e-22
-1.8246e-20
6.74526e-20
-1.9348e-22
0
0
5.19241e-17
-5.17295e-17
-2.92372e-17
2.63084e-17
2.93314e-17
-2.95046e-17
-3.27991e-18
3.29161e-18
-1.35802e-18
1.37141e-18
-5.35027e-19
8.89e-19
-2.43313e-19
-1.1343e-19
-2.2424e-20
9.75647e-21
1.54586e-20
3.59241e-21
-2.64885e-21
0
-1.13052e-17
5.00629e-17
-5.54877e-17
2.9105e-17
-2.6315e-17
0
8.33259e-18
-7.63605e-18
0
1.03423e-18
-1.26194e-18
-4.1019e-19
4.29906e-19
5.1495e-20
0
0
-1.2739e-20
4.47426e-21
2.06236e-16
-3.51449e-16
2.97817e-16
-2.10852e-16
7.43229e-17
-3.55985e-17
3.48044e-17
2.42319e-18
-5.83056e-18
5.10168e-18
0
-1.36082e-18
1.24014e-18
-1.39401e-19
-5.04393e-20
5.75037e-20
3.68014e-20
1.23671e-20
-4.32315e-21
5.43905e-16
0
-1.30791e-16
1.02239e-16
8.36978e-18
-4.26909e-17
6.47689e-17
-4.15794e-17
1.38533e-17
-2.85373e-18
2.92104e-18
3.50792e-19
3.82717e-19
1.35778e-19
-7.37775e-20
-1.59471e-20
-7.92271e-20
0
5.58082e-21
3.76218e-16
-4.23712e-16
0
2.34489e-17
6.9429e-17
-6.41561e-17
6.76965e-18
4.22211e-18
1.38361e-18
1.53317e-18
0
0
-5.95031e-19
8.89098e-19
-2.74889e-19
-6.12127e-20
6.70176e-20
4.25464e-21
-1.00877e-20
1.04384e-16
3.75049e-16
-3.18465e-17
-1.52831e-16
1.36499e-16
1.03537e-17
-6.62534e-18
-4.12375e-18
7.607e-18
-9.15795e-18
2.58278e-18
-2.63972e-18
1.27227e-19
-3.03372e-19
2.3686e-19
-1.59906e-19
0
0
5.10655e-21
0
8.45863e-17
-1.81017e-16
2.10814e-16
-9.71586e-17
9.69272e-17
0
1.14314e-17
-1.14838e-17
-3.78493e-18
5.06229e-18
0
6.68696e-19
-8.31474e-19
-8.17622e-20
0
-4.21677e-21
-4.18069e-21
-2.1684e-21
-9.56255e-16
4.13306e-16
0
-1.3701e-16
1.36996e-16
4.41139e-17
-2.80641e-17
5.51908e-18
0
-9.44465e-20
1.34695e-19
-4.21884e-19
-2.35478e-19
2.53653e-19
-2.69718e-19
0
1.69242e-20
2.31756e-21
-2.92291e-21
5.50765e-16
-5.07368e-16
0
3.63763e-17
2.31616e-17
-1.64325e-17
0
-5.78405e-18
-2.34686e-18
0
-3.57477e-19
0
2.68821e-19
0
0
1.57918e-20
3.93147e-20
-6.09436e-20
0
-5.14642e-19
7.01932e-17
-4.74851e-17
1.82739e-17
-1.05712e-16
3.21113e-17
0
6.44014e-19
1.49667e-18
0
-5.49214e-19
5.17705e-19
-5.43879e-19
2.47465e-20
0
-1.05224e-20
0
0
0
-4.75065e-19
0
4.38881e-17
0
-2.4859e-17
2.52542e-17
0
1.97788e-18
-7.72061e-19
1.85474e-18
-6.99946e-19
6.32766e-20
-4.76556e-20
9.16887e-21
-3.3929e-20
-3.0908e-21
0
2.90356e-22
0
1.89473e-16
-3.25984e-16
0
-2.16074e-17
1.18931e-17
0
0
-3.11884e-18
0
-3.57072e-19
-1.61105e-19
-5.8157e-20
4.36925e-20
0
1.3289e-21
0
0
-4.57747e-22
3.13886e-22
0
2.17307e-16
-1.67474e-16
2.00035e-17
-1.1013e-17
-1.81613e-18
3.8631e-18
2.0347e-18
-9.20404e-19
2.7436e-19
6.7405e-20
-1.77339e-20
5.86249e-20
-1.23287e-20
-5.16e-21
5.69419e-22
1.32882e-23
-6.97852e-23
-1.15991e-23
-5.24334e-16
1.78797e-16
0
0
2.89034e-18
-2.93915e-18
9.38436e-20
-3.59117e-19
5.59516e-19
1.07303e-19
-7.90105e-20
-1.0965e-20
-3.80636e-21
1.87789e-21
0
8.52041e-23
-1.21796e-23
2.31221e-23
1.0484e-23
0
1.14796e-16
-7.56471e-17
1.89841e-17
7.06285e-18
-1.14963e-18
-1.308e-18
-5.09772e-19
-6.34716e-19
8.67774e-20
9.32913e-22
2.89162e-20
3.55942e-21
-1.07045e-21
1.13622e-21
2.11082e-22
-2.64973e-22
-2.13567e-23
0
-3.32148e-17
-9.8639e-17
2.16338e-17
1.09481e-17
-1.80041e-17
9.62184e-18
1.16286e-18
-1.18862e-18
2.49845e-19
-8.2356e-20
0
0
-3.09602e-21
4.30918e-21
-1.12894e-21
3.13451e-22
-3.39755e-22
2.91717e-23
-5.11082e-23
5.52962e-17
3.6444e-17
-2.0163e-17
4.18684e-18
-1.02049e-17
-3.91445e-18
0
0
0
0
0
0
2.37465e-21
-2.15838e-21
2.28272e-21
-1.85393e-22
2.64353e-22
5.10097e-23
-4.01314e-23
1.29225e-16
-1.10092e-16
1.31389e-16
-1.83918e-17
2.87729e-17
-5.03986e-18
6.99815e-18
-2.21531e-18
-2.40874e-19
2.46403e-19
0
7.68622e-21
-2.31991e-21
2.04111e-21
-1.45478e-21
-5.92184e-22
-3.6565e-22
4.13271e-23
2.86212e-23
2.0876e-16
3.59777e-17
0
-1.99209e-17
-6.21055e-18
1.04636e-17
-7.23857e-19
-1.07726e-18
3.52935e-19
-8.11299e-20
0
-6.08452e-21
0
-1.19763e-21
5.40757e-22
-2.04097e-22
-4.23815e-23
9.67829e-24
0
2.80662e-16
-3.80324e-17
8.94182e-17
-6.73386e-17
-5.81345e-18
9.34632e-18
-5.28372e-18
3.7379e-19
1.79571e-19
-1.11329e-19
6.91432e-20
0
0
2.32141e-21
-3.20859e-23
1.38378e-23
1.44354e-22
-3.6119e-23
0
-2.78984e-19
0
-2.38892e-17
8.01201e-17
-4.72288e-17
-1.81408e-17
9.2372e-18
-2.43963e-18
1.84866e-18
3.18238e-19
-1.06049e-19
2.65517e-20
-1.30936e-20
2.45466e-21
3.45633e-21
-1.85562e-22
-2.18067e-22
1.27085e-22
-2.40642e-23
6.11403e-16
-1.7799e-16
2.95469e-17
-1.14026e-16
1.47932e-17
-1.22722e-17
7.82301e-18
0
0
-4.03818e-20
-8.22947e-20
-1.07095e-20
0
-5.94637e-21
-2.02544e-21
6.87017e-22
-2.47034e-23
8.03757e-23
6.10723e-23
0
-1.47716e-16
1.5612e-16
-4.78996e-18
-7.28e-17
8.6333e-18
-6.21546e-18
3.46926e-18
2.65247e-18
0
0
7.94702e-21
2.93716e-20
0
-4.06255e-21
-8.82958e-22
1.50139e-22
-5.87008e-23
-1.08455e-22
0
-6.95637e-17
6.32511e-17
1.07849e-16
3.07787e-17
-4.86193e-17
1.611e-17
-3.3805e-18
2.2402e-18
-9.03355e-19
0
0
0
-1.84485e-20
7.05993e-23
-1.94568e-21
0
-2.33338e-23
9.467e-23
-4.34011e-16
3.80278e-16
2.32359e-16
-2.70546e-16
6.03737e-17
-4.98519e-17
0
4.09636e-18
-4.66525e-18
1.5567e-18
-4.46975e-19
1.73434e-19
6.5695e-20
1.90798e-20
6.98909e-21
0
0
0
0
5.51475e-16
-2.36751e-16
0
0
-2.77998e-17
3.54992e-17
-2.13485e-17
-4.84593e-18
4.79131e-18
1.15477e-18
1.00261e-18
-1.79954e-19
3.94337e-20
5.54863e-21
3.72866e-21
1.31852e-21
2.40884e-21
-8.03609e-23
8.18548e-23
-5.29025e-16
4.21089e-16
1.35401e-16
-8.08246e-17
7.4753e-17
-4.51657e-17
-1.64879e-17
-7.84026e-18
0
-2.52483e-18
4.56148e-19
2.4803e-19
-8.49276e-20
-3.2499e-20
-5.04996e-21
-1.32583e-21
-1.34236e-21
0
0
-1.81372e-16
0
8.72718e-17
9.52943e-19
0
0
1.70078e-17
8.09004e-18
0
1.55373e-18
0
-3.50062e-19
-2.05402e-20
4.91635e-20
0
1.48985e-20
-1.50608e-21
1.5364e-21
0
4.21766e-16
0
1.4706e-16
-2.33516e-16
1.5338e-16
6.27927e-17
-8.55642e-18
0
1.11209e-18
2.81192e-18
0
-4.12769e-19
2.67399e-19
-1.43676e-19
-2.16907e-20
-1.07421e-20
-4.78236e-21
-1.83637e-21
-2.38267e-20
-3.2876e-16
4.56854e-16
-9.13739e-17
-1.70855e-16
-6.68902e-17
-3.65072e-17
-3.67793e-17
-6.47142e-18
2.35203e-18
6.27746e-19
-6.26567e-19
6.7184e-19
-1.85936e-19
2.2725e-19
-3.61353e-20
0
9.80167e-20
-9.75535e-20
2.09188e-20
8.67382e-16
-4.29908e-17
-4.05375e-16
2.05418e-16
-1.4004e-16
7.755e-17
-8.22476e-18
-8.47119e-18
3.9157e-18
6.41582e-19
-3.4421e-19
-6.60714e-19
9.55134e-20
2.2762e-19
-3.46046e-20
3.49993e-20
-1.01521e-19
-1.98391e-19
-2.04425e-19
4.25807e-16
1.33733e-16
1.7829e-16
-1.07001e-16
-4.84267e-17
1.51603e-17
-1.2684e-17
2.61121e-17
1.53525e-18
3.34635e-18
1.10532e-18
-7.61725e-19
0
-2.59805e-19
0
0
8.20999e-19
2.51835e-19
2.21465e-19
3.64405e-16
0
1.66587e-16
1.0631e-16
-5.74017e-17
3.27707e-17
0
-8.07917e-18
-6.59587e-18
-3.44355e-18
-1.1151e-18
7.70338e-19
0
0
0
0
-7.88005e-19
-1.99645e-18
0
-7.11373e-16
0
-3.47555e-17
-3.35516e-17
8.92334e-17
-1.91824e-17
-4.3648e-18
-5.52976e-18
6.48989e-18
0
1.07413e-18
-7.24797e-20
2.27799e-18
0
0
4.25084e-18
-3.51031e-19
2.4153e-18
-2.88341e-18
4.76744e-16
9.5396e-17
-9.44113e-17
-5.66288e-17
-1.06028e-16
4.76362e-17
3.19968e-17
-2.67754e-18
-5.29008e-18
7.31254e-18
1.10999e-18
-8.15597e-18
-4.44385e-18
-6.67218e-18
-7.97026e-18
-4.99413e-18
1.07097e-17
-4.17051e-19
2.95322e-18
-1.32353e-16
4.45886e-17
-1.82586e-16
1.65326e-17
-1.64725e-17
0
-1.64242e-17
-6.53233e-18
-1.5231e-17
7.2735e-18
1.55851e-17
6.9349e-18
-2.5212e-18
-6.26395e-18
7.1639e-18
0
-3.13295e-17
-1.90286e-17
-3.39375e-19
3.04083e-16
-5.3172e-18
2.75363e-16
-9.0936e-17
7.54086e-19
1.35453e-18
3.42133e-17
-1.34642e-17
1.47716e-17
-1.40131e-17
-1.40244e-17
0
3.12524e-17
1.64157e-17
3.92151e-19
-6.12757e-19
2.10344e-17
1.92887e-17
0
-2.05944e-16
0
-1.42171e-17
9.47387e-17
5.27504e-18
1.41997e-17
-3.30837e-17
2.92769e-17
5.30077e-17
5.29736e-17
5.40256e-17
0
-3.03612e-17
0
2.95783e-18
-3.07197e-18
0
-5.18941e-19
3.29297e-17
1.69995e-16
3.39628e-17
-5.16746e-17
1.85862e-16
-5.08666e-17
0
0
-9.34665e-17
-5.1359e-17
-5.13196e-17
-1.29837e-16
-1.76162e-17
0
0
0
-1.03434e-17
1.09459e-17
9.62691e-17
-3.35567e-17
4.09337e-17
0
-1.69231e-16
-1.06833e-16
1.43167e-16
-1.57837e-16
-2.11773e-16
2.07144e-16
9.31939e-17
0
9.1908e-17
1.57154e-16
-3.1335e-17
1.99043e-16
-3.32892e-17
3.46459e-17
1.6845e-16
-9.15623e-17
0
-3.13798e-16
0
-2.62783e-16
2.46531e-16
0
3.41092e-16
1.47108e-16
-3.65753e-16
3.52827e-16
-6.03483e-21
-9.23792e-17
-1.52157e-16
0
3.25691e-16
-4.99683e-16
5.52364e-16
-7.07595e-16
0
0
3.2195e-16
-1.14569e-17
-2.55376e-17
-5.51903e-16
5.88098e-16
-2.66767e-16
2.65679e-16
2.63509e-16
-1.73595e-16
0
0
4.99737e-16
-5.08346e-16
-4.69682e-16
4.81183e-16
-4.84271e-16
5.4053e-16
-8.70591e-16
0
)
;

boundaryField
{
    up
    {
        type            calculated;
        value           nonuniform List<scalar> 
84
(
0
0
0
0
-1.92635e-17
3.05106e-17
-1.07074e-17
2.95343e-18
-2.73256e-18
0
-2.45694e-19
2.21786e-19
-2.67573e-20
1.72002e-20
5.52599e-21
2.5043e-21
0
0
-7.09156e-23
5.42926e-23
2.23914e-23
-2.17419e-23
1.22464e-24
0
8.13471e-24
8.12883e-24
-4.20453e-23
0
6.52618e-23
-5.85113e-23
-5.91715e-23
2.29005e-22
-1.8849e-22
0
2.67282e-21
3.73881e-21
-6.65573e-21
1.18785e-20
0
-3.76422e-21
0
0
-2.55308e-21
4.47426e-21
-4.32315e-21
5.58082e-21
-1.00877e-20
5.10655e-21
-2.1684e-21
-2.92291e-21
0
0
0
3.13886e-22
6.25149e-23
1.0484e-23
0
-5.11082e-23
-4.01314e-23
2.05221e-23
0
0
-2.40642e-23
6.10723e-23
-1.08455e-22
9.467e-23
0
8.18548e-23
0
0
-2.38267e-20
2.09188e-20
-2.04425e-19
2.21465e-19
0
-2.88341e-18
2.95322e-18
-3.39375e-19
0
3.29297e-17
-3.35567e-17
0
0
0
)
;
    }
    low
    {
        type            calculated;
        value           nonuniform List<scalar> 
84
(
-6.47798e-16
6.12512e-16
-2.56418e-16
4.6795e-16
8.89913e-17
-2.31086e-17
1.92682e-16
5.80008e-17
0
7.39561e-16
-1.86617e-16
8.25071e-17
-1.39545e-16
-1.11814e-15
1.81698e-16
0
-1.67389e-16
4.56779e-17
-4.53811e-17
-9.99231e-17
6.76161e-17
1.48124e-16
3.40841e-16
-2.40727e-16
0
-4.53411e-17
-2.35499e-17
0
-2.21186e-16
-7.21805e-17
-2.80519e-16
-3.0262e-16
3.27537e-16
1.00075e-16
6.9364e-16
5.52354e-17
0
4.33037e-16
4.9039e-16
2.75981e-16
-1.4596e-16
5.1922e-17
5.19241e-17
0
2.06236e-16
5.47992e-16
3.76218e-16
1.08088e-16
0
-9.5869e-16
5.50765e-16
-5.14642e-19
-4.75065e-19
1.89473e-16
0
-5.23191e-16
0
-3.32148e-17
5.52962e-17
1.2857e-16
2.086e-16
2.81023e-16
-2.78984e-19
6.12565e-16
0
0
-4.34011e-16
5.53524e-16
-5.31334e-16
-1.81372e-16
4.24514e-16
-3.2876e-16
8.7543e-16
4.30306e-16
3.64405e-16
-7.11373e-16
4.72869e-16
-1.28046e-16
3.04083e-16
-2.03753e-16
1.69995e-16
4.62945e-17
-3.13798e-16
3.23459e-16
)
;
    }
    left
    {
        type            calculated;
        value           nonuniform List<scalar> 
19
(
-6.44779e-16
-2.85051e-16
3.20104e-16
3.57416e-17
-5.49259e-16
0
-2.22623e-16
-2.2086e-16
-5.11713e-17
-1.3201e-16
4.5416e-20
-1.34563e-16
6.55079e-16
-1.38947e-16
6.24954e-16
5.54101e-16
3.33887e-16
5.12358e-16
0
)
;
    }
    right
    {
        type            calculated;
        value           nonuniform List<scalar> 
19
(
3.2195e-16
-1.15653e-17
-2.55376e-17
-5.54325e-16
5.91281e-16
-2.66767e-16
2.65679e-16
2.63509e-16
-1.69422e-16
0
0
5.09001e-16
-5.18154e-16
-4.69682e-16
4.81183e-16
-4.84271e-16
5.4053e-16
-9.39202e-16
0
)
;
    }
    frontAndBackPlanes
    {
        type            empty;
    }
}


// ************************************************************************* //
