/*--------------------------------*- C++ -*----------------------------------*\
  =========                 |
  \\      /  F ield         | OpenFOAM: The Open Source CFD Toolbox
   \\    /   O peration     | Website:  https://openfoam.org
    \\  /    A nd           | Version:  7
     \\/     M anipulation  |
\*---------------------------------------------------------------------------*/
FoamFile
{
    version     2.0;
    format      ascii;
    class       volScalarField;
    location    "0.425";
    object      T;
}
// * * * * * * * * * * * * * * * * * * * * * * * * * * * * * * * * * * * * * //

dimensions      [0 0 0 1 0 0 0];

internalField   nonuniform List<scalar> 
1596
(
4.98971
4.96006
4.92924
4.89921
4.87025
4.8418
4.81316
4.78298
4.7503
4.7129
4.6691
4.6166
4.54985
4.46075
4.33636
4.1473
3.83845
3.2995
2.30951
4.95545
4.86294
4.77421
4.69016
4.61001
4.53201
4.45423
4.37386
4.28858
4.19444
4.08821
3.96602
3.82005
3.64027
3.41373
3.11483
2.70316
2.10865
1.19851
4.91486
4.75914
4.61669
4.48463
4.36019
4.24033
4.12212
4.00194
3.87677
3.74211
3.59435
3.42943
3.23998
3.01726
2.75126
2.42347
2.00756
1.46212
0.709471
4.87474
4.65982
4.46898
4.29494
4.13272
3.9781
3.82737
3.67647
3.52206
3.35959
3.1856
2.99633
2.78552
2.54622
2.27133
1.94808
1.55987
1.0828
0.471684
4.84146
4.5754
4.34242
4.13212
3.93782
3.75438
3.57754
3.403
3.22731
3.04603
2.85597
2.65377
2.43419
2.19179
1.92158
1.61475
1.2608
0.845923
0.34348
4.81916
4.51302
4.24478
4.00348
3.78176
3.57404
3.37576
3.18252
2.99082
2.79644
2.59637
2.38761
2.16565
1.92616
1.66553
1.37749
1.05521
0.690676
0.267723
4.80846
4.47469
4.1785
3.91109
3.66574
3.43704
3.22042
3.01157
2.80702
2.60272
2.39582
2.18355
1.96193
1.72733
1.477
1.20626
0.910512
0.585002
0.219594
4.80697
4.45758
4.14088
3.85212
3.58639
3.33917
3.10626
2.88359
2.66786
2.45518
2.24284
2.02821
1.80764
1.57795
1.33691
1.0808
0.806363
0.510728
0.187269
4.81234
4.45765
4.12745
3.82186
3.53869
3.27488
3.02704
2.79155
2.56539
2.34488
2.12746
1.91057
1.6908
1.4652
1.23183
0.987575
0.729942
0.457159
0.16467
4.81956
4.46642
4.12885
3.81095
3.51342
3.23503
2.97354
2.72605
2.48995
2.26186
2.03939
1.82005
1.60059
1.3782
1.15105
0.916376
0.672134
0.417162
0.14818
4.8256
4.47702
4.1365
3.81031
3.5015
3.21072
2.93704
2.67847
2.43298
2.1976
1.97012
1.7482
1.52867
1.30881
1.08681
0.860098
0.626844
0.3862
0.135657
4.83302
4.49098
4.15018
3.81846
3.5007
3.19924
2.91452
2.64554
2.39099
2.14837
1.91577
1.69098
1.47092
1.25291
1.03511
0.814989
0.590809
0.361826
0.125958
4.84017
4.50578
4.16651
3.8313
3.50649
3.19587
2.90118
2.62249
2.35924
2.10951
1.87173
1.64387
1.42297
1.20635
0.992078
0.77761
0.561168
0.341982
0.118192
4.84499
4.51748
4.18063
3.8435
3.5133
3.19502
2.89154
2.60398
2.3326
2.0761
1.83332
1.60247
1.38068
1.1653
0.954291
0.745006
0.53556
0.325051
0.11169
4.84922
4.52751
4.1931
3.85478
3.52023
3.1953
2.88392
2.58814
2.30907
2.04607
1.79843
1.56463
1.34196
1.12777
0.919894
0.715541
0.512647
0.310101
0.10606
4.85333
4.53682
4.20456
3.86525
3.52688
3.19594
2.87721
2.57366
2.28718
2.01783
1.7654
1.52867
1.30513
1.09213
0.887367
0.687879
0.491351
0.296387
0.101002
4.85644
4.5443
4.21385
3.8736
3.5317
3.19518
2.86955
2.55858
2.26495
1.9894
1.73225
1.49266
1.2683
1.0566
0.855119
0.660658
0.470607
0.283206
0.0962413
4.85886
4.55023
4.22117
3.87984
3.53451
3.19262
2.86032
2.54211
2.24144
1.95972
1.69784
1.45536
1.23022
1.01992
0.821932
0.632809
0.449572
0.270009
0.0915719
4.86249
4.5576
4.22969
3.88702
3.53804
3.1906
2.85143
2.52576
2.21775
1.92952
1.66252
1.41679
1.19058
0.981563
0.78713
0.603623
0.427642
0.256399
0.0868522
4.86663
4.56607
4.23938
3.89522
3.54237
3.18912
2.84279
2.5093
2.19351
1.89824
1.62559
1.37607
1.14834
0.940297
0.749387
0.5718
0.403723
0.241668
0.0818546
4.86979
4.57338
4.24796
3.9023
3.54549
3.18629
2.8326
2.491
2.16705
1.86429
1.58543
1.33155
1.10177
0.894296
0.706773
0.535408
0.376116
0.224672
0.0762117
4.87281
4.58019
4.25589
3.90859
3.54766
3.18228
2.82091
2.47077
2.13812
1.82721
1.5414
1.28236
1.04972
0.842096
0.657454
0.492268
0.342537
0.203606
0.0692933
4.87606
4.5871
4.26364
3.91441
3.54903
3.17708
2.80757
2.44834
2.10629
1.78638
1.49265
1.22741
0.990826
0.78197
0.599208
0.439491
0.299437
0.174915
0.0593916
4.87933
4.59369
4.27058
3.9189
3.54854
3.16952
2.79133
2.42236
2.07013
1.74026
1.43752
1.16487
0.923092
0.711686
0.529374
0.373562
0.241788
0.131661
0.0398595
4.8843
4.60625
4.28883
3.94086
3.57216
3.19271
2.81205
2.43874
2.08056
1.7436
1.43326
1.15329
0.905182
0.689007
0.503852
0.347267
0.217075
0.111744
0.030006
4.88964
4.6218
4.3143
3.97561
3.61509
3.24223
2.86613
2.49502
2.13654
1.79687
1.48177
1.19568
0.940952
0.718459
0.527783
0.366545
0.232136
0.122297
0.0346688
4.89203
4.62992
4.32893
3.99718
3.64354
3.27697
2.90601
2.53838
2.18128
1.84069
1.52245
1.23146
0.970875
0.74246
0.546531
0.380972
0.242946
0.129626
0.0378332
4.89146
4.63028
4.33211
4.00472
3.65649
3.29577
2.93042
2.56744
2.21342
1.87383
1.55429
1.25989
0.994398
0.760559
0.559678
0.390202
0.249297
0.133702
0.0395746
4.88881
4.62477
4.32651
4.00152
3.65766
3.30258
2.94335
2.58616
2.23678
1.89999
1.58091
1.28449
1.01488
0.775753
0.569669
0.396084
0.252532
0.135451
0.0403238
4.88419
4.61458
4.31441
3.99075
3.65085
3.30158
2.94917
2.59892
2.2557
1.92345
1.60657
1.30956
1.03656
0.791946
0.57972
0.400892
0.254038
0.135629
0.0403708
4.87826
4.60182
4.29903
3.97641
3.64058
3.29762
2.95285
2.61066
2.27503
1.94901
1.63614
1.34017
1.06477
0.814515
0.594643
0.408196
0.255852
0.135091
0.0399593
4.87293
4.58979
4.28443
3.96308
3.63175
3.2957
2.9594
2.62632
2.29963
1.98152
1.67466
1.38188
1.10589
0.850686
0.621924
0.424473
0.262104
0.13534
0.0391936
4.86741
4.57762
4.27011
3.95071
3.62474
3.29661
2.96991
2.64731
2.33121
2.02312
1.72495
1.43862
1.16566
0.908712
0.672452
0.461993
0.283532
0.142291
0.0382891
4.86162
4.56556
4.25675
3.94042
3.62102
3.3021
2.98637
2.67577
2.37211
2.07635
1.78992
1.51414
1.2496
0.997478
0.760445
0.541565
0.346013
0.180938
0.0510072
4.85485
4.55095
4.23919
3.92415
3.60939
3.2976
2.99073
2.69011
2.39709
2.11227
1.83685
1.57195
1.31783
1.075
0.844679
0.627371
0.424484
0.239463
0.0753082
4.84471
4.52676
4.20597
3.88594
3.56928
3.25785
2.95295
2.65537
2.36608
2.0854
1.81436
1.55399
1.30455
1.06662
0.841509
0.629529
0.431419
0.248727
0.0813072
4.83196
4.49618
4.16306
3.83475
3.51279
3.19824
2.89176
2.59369
2.30466
2.02475
1.7549
1.49613
1.24876
1.0136
0.792366
0.585907
0.395717
0.224152
0.0716312
4.82058
4.46912
4.1253
3.78991
3.46353
3.14649
2.83895
2.54083
2.25254
1.97398
1.70603
1.44974
1.20549
0.974213
0.757764
0.557112
0.373819
0.210228
0.0666703
4.81169
4.44753
4.0949
3.75366
3.42363
3.10459
2.79625
2.49827
2.21083
1.93369
1.66771
1.41392
1.17269
0.944987
0.73269
0.536753
0.35871
0.200857
0.0634548
4.80466
4.43054
4.07107
3.72533
3.39255
3.07206
2.76326
2.46553
2.17894
1.90312
1.63889
1.38723
1.14852
0.923691
0.714618
0.522225
0.348021
0.194282
0.0612296
4.79954
4.41824
4.05396
3.70515
3.37056
3.04919
2.74018
2.44276
2.15688
1.8821
1.61919
1.3691
1.13219
0.909367
0.7025
0.512497
0.340857
0.189862
0.0597297
4.79586
4.4103
4.0435
3.69324
3.35791
3.03627
2.72735
2.43028
2.14494
1.87085
1.60876
1.35963
1.12376
0.902068
0.696409
0.507675
0.337355
0.187733
0.0590238
4.79587
4.41031
4.04352
3.69326
3.35793
3.0363
2.72738
2.4303
2.14496
1.87087
1.60878
1.35964
1.12378
0.90208
0.696419
0.507683
0.33736
0.187736
0.0590248
4.79956
4.41828
4.05402
3.70522
3.37063
3.04926
2.74025
2.44284
2.15695
1.88217
1.61924
1.36916
1.13224
0.909407
0.702534
0.512524
0.340876
0.189874
0.0597338
4.80469
4.4306
4.07116
3.72544
3.39266
3.07218
2.76337
2.46564
2.17904
1.90322
1.63898
1.38731
1.14859
0.923748
0.714664
0.522261
0.348047
0.194297
0.0612346
4.81173
4.44761
4.09502
3.7538
3.42378
3.10474
2.7964
2.49841
2.21096
1.93381
1.66782
1.41401
1.17277
0.945052
0.732742
0.536792
0.358736
0.200873
0.0634596
4.82062
4.46922
4.12544
3.79008
3.46371
3.14667
2.83912
2.541
2.2527
1.97412
1.70616
1.44985
1.20558
0.974282
0.757816
0.557148
0.373842
0.21024
0.0666734
4.83201
4.4963
4.16322
3.83494
3.51299
3.19844
2.89196
2.59388
2.30484
2.02491
1.75503
1.49623
1.24884
1.01366
0.792398
0.58592
0.395717
0.224145
0.0716258
4.84476
4.52688
4.20614
3.88614
3.5695
3.25808
2.95317
2.65558
2.36627
2.08556
1.81449
1.55408
1.3046
1.06662
0.841469
0.629457
0.431331
0.248649
0.0812703
4.85491
4.55113
4.23948
3.92453
3.60986
3.29813
2.99131
2.69074
2.39775
2.11296
1.83757
1.57268
1.31857
1.07576
0.845448
0.628131
0.42519
0.240018
0.0755573
4.86169
4.56577
4.25709
3.94089
3.62161
3.30278
2.98714
2.67663
2.37304
2.07734
1.79096
1.51522
1.25071
0.99859
0.761524
0.542552
0.346823
0.18148
0.0512073
4.86747
4.5778
4.2704
3.95112
3.62524
3.2972
2.97058
2.64804
2.33201
2.02396
1.72582
1.4395
1.16653
0.909537
0.673186
0.462582
0.283931
0.142489
0.0383253
4.87298
4.58995
4.2847
3.96345
3.63221
3.29625
2.96002
2.62701
2.30036
1.98229
1.67544
1.38265
1.10662
0.851344
0.622468
0.424874
0.262354
0.135461
0.0392252
4.8783
4.60196
4.29928
3.97675
3.64101
3.29813
2.95343
2.6113
2.27571
1.94971
1.63683
1.34084
1.06539
0.81505
0.595067
0.408499
0.256042
0.13519
0.0399882
4.88422
4.6147
4.31463
3.99106
3.65124
3.30205
2.94971
2.5995
2.25631
1.92408
1.60719
1.31015
1.03709
0.792395
0.58007
0.401142
0.2542
0.135717
0.0403984
4.88884
4.62488
4.3267
4.0018
3.65802
3.30301
2.94384
2.58669
2.23734
1.90057
1.58147
1.28502
1.01535
0.77614
0.569972
0.396304
0.252679
0.135535
0.0403513
4.89148
4.63037
4.33228
4.00496
3.65682
3.29616
2.93086
2.56793
2.21393
1.87435
1.55479
1.26035
0.994808
0.760902
0.559949
0.390404
0.249437
0.133786
0.0396037
4.89205
4.63
4.32908
3.99739
3.64383
3.27732
2.90641
2.53882
2.18174
1.84116
1.5229
1.23188
0.971242
0.74277
0.546782
0.381165
0.243085
0.129714
0.0378663
4.88966
4.62187
4.31443
3.9758
3.61534
3.24254
2.86648
2.49541
2.13695
1.79729
1.48217
1.19605
0.941285
0.718746
0.528022
0.366737
0.232283
0.122395
0.0347097
4.8843
4.60626
4.28886
3.9409
3.57221
3.19278
2.81213
2.43882
2.08064
1.74366
1.43332
1.15333
0.905199
0.689004
0.503834
0.347238
0.217042
0.111715
0.0299932
4.87932
4.59367
4.27054
3.91883
3.54846
3.16943
2.79122
2.42224
2.07001
1.74013
1.43739
1.16474
0.922957
0.711556
0.529253
0.373454
0.241701
0.1316
0.0398344
4.87606
4.58709
4.26362
3.91439
3.549
3.17705
2.80754
2.44831
2.10626
1.78635
1.49263
1.22739
0.990812
0.781962
0.599206
0.439494
0.299443
0.174922
0.0593944
4.8728
4.58018
4.25587
3.90858
3.54764
3.18225
2.82088
2.47075
2.1381
1.82719
1.54138
1.28235
1.04971
0.84209
0.657453
0.492269
0.342541
0.203609
0.0692942
4.86979
4.57337
4.24795
3.90228
3.54547
3.18627
2.83258
2.49098
2.16703
1.86427
1.58542
1.33154
1.10176
0.894292
0.706772
0.535409
0.376117
0.224673
0.076212
4.86663
4.56606
4.23937
3.89521
3.54236
3.18911
2.84278
2.50928
2.19349
1.89823
1.62558
1.37606
1.14834
0.940295
0.749386
0.5718
0.403723
0.241669
0.0818546
4.86249
4.5576
4.22968
3.88701
3.53803
3.19059
2.85142
2.52575
2.21774
1.92951
1.66251
1.41678
1.19058
0.981561
0.787129
0.603623
0.427642
0.256399
0.0868521
4.85885
4.55022
4.22116
3.87984
3.5345
3.19261
2.86031
2.5421
2.24143
1.95972
1.69783
1.45535
1.23022
1.01992
0.821932
0.632809
0.449572
0.270009
0.0915717
4.85644
4.54429
4.21385
3.8736
3.5317
3.19518
2.86955
2.55857
2.26495
1.98939
1.73225
1.49265
1.2683
1.0566
0.855118
0.660658
0.470606
0.283205
0.0962411
4.85333
4.53682
4.20456
3.86525
3.52687
3.19593
2.87721
2.57365
2.28718
2.01783
1.7654
1.52867
1.30513
1.09213
0.887367
0.687879
0.491351
0.296387
0.101001
4.84922
4.52751
4.1931
3.85478
3.52023
3.1953
2.88392
2.58814
2.30907
2.04607
1.79843
1.56463
1.34196
1.12777
0.919894
0.715541
0.512647
0.3101
0.10606
4.84499
4.51748
4.18063
3.8435
3.5133
3.19502
2.89154
2.60398
2.3326
2.0761
1.83332
1.60247
1.38068
1.1653
0.954291
0.745006
0.53556
0.325051
0.11169
4.84017
4.50578
4.16651
3.8313
3.50649
3.19587
2.90118
2.62249
2.35924
2.10951
1.87173
1.64387
1.42297
1.20635
0.992078
0.77761
0.561169
0.341982
0.118192
4.83302
4.49098
4.15018
3.81846
3.5007
3.19924
2.91452
2.64554
2.39099
2.14837
1.91577
1.69098
1.47092
1.25291
1.03511
0.814989
0.590809
0.361826
0.125959
4.8256
4.47702
4.1365
3.81031
3.5015
3.21072
2.93704
2.67847
2.43298
2.1976
1.97012
1.7482
1.52867
1.30881
1.08681
0.860099
0.626845
0.386201
0.135658
4.81956
4.46642
4.12885
3.81095
3.51342
3.23503
2.97354
2.72605
2.48995
2.26186
2.03939
1.82005
1.60059
1.3782
1.15105
0.916377
0.672135
0.417163
0.148181
4.81234
4.45765
4.12744
3.82186
3.53869
3.27488
3.02704
2.79155
2.56539
2.34488
2.12746
1.91057
1.6908
1.4652
1.23183
0.987576
0.729943
0.45716
0.16467
4.80697
4.45758
4.14088
3.85211
3.58639
3.33916
3.10625
2.88359
2.66786
2.45517
2.24284
2.02821
1.80764
1.57795
1.33691
1.0808
0.806364
0.510729
0.18727
4.80846
4.47469
4.1785
3.91109
3.66574
3.43704
3.22042
3.01157
2.80702
2.60271
2.39582
2.18355
1.96193
1.72733
1.477
1.20626
0.910512
0.585002
0.219594
4.81916
4.51302
4.24478
4.00348
3.78175
3.57404
3.37575
3.18251
2.99082
2.79644
2.59637
2.38761
2.16565
1.92616
1.66553
1.37749
1.05521
0.690676
0.267723
4.84146
4.5754
4.34242
4.13212
3.93782
3.75438
3.57754
3.403
3.2273
3.04603
2.85596
2.65377
2.43419
2.19179
1.92158
1.61475
1.26079
0.845923
0.34348
4.87474
4.65982
4.46898
4.29494
4.13272
3.9781
3.82737
3.67646
3.52206
3.35959
3.18559
2.99633
2.78552
2.54622
2.27133
1.94808
1.55987
1.0828
0.471684
4.91486
4.75914
4.61668
4.48463
4.36019
4.24033
4.12212
4.00193
3.87677
3.7421
3.59434
3.42942
3.23998
3.01725
2.75126
2.42347
2.00756
1.46212
0.709471
4.95545
4.86295
4.77421
4.69016
4.61001
4.53201
4.45423
4.37386
4.28858
4.19444
4.08821
3.96602
3.82005
3.64027
3.41373
3.11483
2.70316
2.10865
1.19851
4.98971
4.96006
4.92924
4.89921
4.87025
4.8418
4.81316
4.78298
4.7503
4.7129
4.6691
4.6166
4.54985
4.46075
4.33636
4.1473
3.83845
3.2995
2.30951
)
;

boundaryField
{
    up
    {
        type            fixedValue;
        value           uniform 0;
    }
    low
    {
        type            fixedValue;
        value           uniform 5;
    }
    left
    {
        type            fixedValue;
        value           uniform 5;
    }
    right
    {
        type            fixedValue;
        value           uniform 5;
    }
    frontAndBackPlanes
    {
        type            empty;
    }
}


// ************************************************************************* //
