/*--------------------------------*- C++ -*----------------------------------*\
  =========                 |
  \\      /  F ield         | OpenFOAM: The Open Source CFD Toolbox
   \\    /   O peration     | Website:  https://openfoam.org
    \\  /    A nd           | Version:  7
     \\/     M anipulation  |
\*---------------------------------------------------------------------------*/
FoamFile
{
    version     2.0;
    format      ascii;
    class       volScalarField;
    location    "0.081";
    object      gradTy;
}
// * * * * * * * * * * * * * * * * * * * * * * * * * * * * * * * * * * * * * //

dimensions      [0 -1 0 1 0 0 0];

internalField   nonuniform List<scalar> 
1596
(
-0.796645
-1.45674
-1.95538
-2.3801
-2.72526
-3.05
-3.32531
-3.61013
-3.9152
-4.24204
-4.71245
-5.30252
-6.16561
-7.46895
-9.6247
-13.1171
-19.5276
-31.4838
-74.3528
-2.39
-2.87767
-3.12041
-3.26557
-3.34112
-3.42553
-3.50292
-3.62913
-3.81454
-4.04826
-4.4345
-4.94247
-5.67945
-6.72367
-8.29702
-10.4966
-13.8618
-18.8644
-33.082
-4.17235
-4.23666
-4.13792
-3.98273
-3.7942
-3.64891
-3.53569
-3.50378
-3.55891
-3.68217
-3.95787
-4.34735
-4.92702
-5.73479
-6.91406
-8.47229
-10.7117
-13.818
-20.4423
-5.90421
-5.45821
-4.99881
-4.55146
-4.11822
-3.76165
-3.47228
-3.29004
-3.21596
-3.22609
-3.38488
-3.64981
-4.07409
-4.6744
-5.54945
-6.67409
-8.23622
-10.3025
-13.8083
-7.3414
-6.47513
-5.70652
-5.00581
-4.3608
-3.81853
-3.37235
-3.05272
-2.8575
-2.76047
-2.80745
-2.95586
-3.24061
-3.66672
-4.30512
-5.12279
-6.24787
-7.69831
-9.81283
-8.32462
-7.24355
-6.26957
-5.37848
-4.56518
-3.86809
-3.28727
-2.84603
-2.54131
-2.34713
-2.29279
-2.33809
-2.50292
-2.78514
-3.23593
-3.82431
-4.64322
-5.69344
-7.10413
-8.82817
-7.74731
-6.69177
-5.68683
-4.75533
-3.938
-3.24645
-2.70094
-2.30003
-2.02024
-1.87717
-1.83423
-1.89892
-2.06398
-2.36475
-2.77526
-3.36439
-4.12938
-5.12461
-8.93164
-7.99424
-6.9671
-5.92577
-4.92899
-4.02881
-3.25247
-2.62183
-2.13959
-1.78663
-1.56829
-1.45202
-1.43542
-1.5072
-1.68925
-1.96043
-2.37094
-2.91926
-3.63252
-8.76585
-8.05423
-7.1314
-6.11476
-5.09671
-4.14573
-3.30661
-2.60714
-2.05625
-1.64056
-1.3587
-1.18202
-1.10064
-1.09993
-1.19037
-1.3542
-1.62603
-2.00597
-2.51029
-8.41781
-7.91602
-7.13451
-6.19187
-5.19717
-4.23335
-3.36092
-2.61617
-2.01547
-1.55204
-1.22127
-0.998211
-0.867969
-0.813453
-0.83595
-0.919717
-1.08652
-1.3372
-1.68306
-8.08448
-7.70806
-7.04837
-6.19138
-5.24201
-4.28953
-3.40534
-2.63415
-1.99966
-1.50169
-1.13489
-0.877683
-0.712186
-0.619627
-0.59434
-0.621452
-0.712377
-0.867306
-1.09411
-7.74543
-7.48779
-6.93058
-6.15348
-5.25461
-4.32461
-3.44109
-2.65583
-1.99901
-1.47642
-1.08359
-0.801767
-0.611506
-0.492956
-0.435475
-0.424336
-0.46305
-0.550327
-0.690977
-7.37324
-7.2154
-6.74831
-6.04651
-5.20208
-4.30542
-3.43642
-2.65197
-1.98712
-1.45243
-1.04524
-0.749068
-0.544047
-0.409838
-0.332591
-0.297492
-0.302495
-0.344667
-0.42618
-7.07886
-6.96149
-6.55235
-5.90718
-5.10853
-4.2448
-3.39548
-2.62043
-1.95758
-1.42067
-1.00873
-0.706845
-0.495252
-0.353482
-0.265798
-0.217281
-0.202255
-0.216326
-0.259506
-6.83394
-6.74358
-6.36697
-5.75732
-4.99087
-4.15384
-3.32409
-2.56259
-1.90838
-1.37671
-0.967652
-0.667074
-0.455418
-0.312245
-0.220819
-0.166212
-0.140591
-0.138509
-0.158407
-6.61047
-6.54995
-6.19339
-5.60277
-4.85503
-4.03668
-3.22409
-2.47819
-1.83753
-1.31729
-0.917614
-0.62436
-0.418046
-0.278298
-0.187966
-0.132265
-0.102262
-0.0919146
-0.098678
-6.42738
-6.38292
-6.03447
-5.44846
-4.70626
-3.89748
-3.09814
-2.36837
-1.74491
-1.24132
-0.856643
-0.575931
-0.379493
-0.247003
-0.161266
-0.107823
-0.0773692
-0.0636661
-0.0636788
-6.28633
-6.25049
-5.89952
-5.30495
-4.55545
-3.74618
-2.95454
-2.23957
-1.63513
-1.1518
-0.78629
-0.52209
-0.338927
-0.21646
-0.13767
-0.0885914
-0.0600101
-0.0458039
-0.0428027
-6.14198
-6.14877
-5.79958
-5.18908
-4.42108
-3.60053
-2.80887
-2.10454
-1.51803
-1.0559
-0.711382
-0.465738
-0.297684
-0.186737
-0.116136
-0.0725036
-0.0469872
-0.0337729
-0.0297764
-5.98124
-6.05104
-5.71461
-5.08794
-4.29537
-3.45635
-2.65932
-1.96302
-1.39423
-0.954594
-0.632922
-0.407633
-0.256137
-0.157754
-0.0960833
-0.0584585
-0.0365778
-0.0250812
-0.0211116
-5.85117
-5.97289
-5.65078
-5.00631
-4.18352
-3.31919
-2.51139
-1.8201
-1.26818
-0.851555
-0.553732
-0.349789
-0.215567
-0.130165
-0.0776348
-0.0461254
-0.0280149
-0.01849
-0.0150034
-5.73294
-5.91376
-5.60917
-4.94703
-4.09067
-3.19585
-2.37248
-1.68284
-1.14598
-0.751636
-0.477416
-0.294691
-0.177547
-0.104847
-0.0611535
-0.0354895
-0.020976
-0.0133875
-0.0105273
-5.60961
-5.86407
-5.5855
-4.90969
-4.01988
-3.09195
-2.24941
-1.55801
-1.03349
-0.65943
-0.407259
-0.244503
-0.143379
-0.0824924
-0.0469257
-0.0265751
-0.0153016
-0.00944518
-0.00716373
-5.48237
-5.8157
-5.56932
-4.88409
-3.96297
-3.00161
-2.13851
-1.44327
-0.929054
-0.573584
-0.34192
-0.197964
-0.111922
-0.0621231
-0.0341379
-0.0187423
-0.0104872
-0.00622711
-0.00425573
-5.3649
-5.78111
-5.59694
-4.94345
-4.02857
-3.05606
-2.17589
-1.46424
-0.938169
-0.576085
-0.341301
-0.196634
-0.11079
-0.0614752
-0.0339067
-0.0188467
-0.0107764
-0.00655094
-0.00430383
-5.26883
-5.74985
-5.63063
-5.03053
-4.14755
-3.18249
-2.29093
-1.55717
-1.00643
-0.622625
-0.370976
-0.214711
-0.121418
-0.0675842
-0.0373704
-0.0208538
-0.0120156
-0.00745027
-0.00515604
-5.25075
-5.74999
-5.67022
-5.11695
-4.27166
-3.32484
-2.43063
-1.67872
-1.10229
-0.692401
-0.418386
-0.245233
-0.140197
-0.0787166
-0.0437633
-0.0244758
-0.0141159
-0.00880429
-0.00619984
-5.32377
-5.79269
-5.71914
-5.19741
-4.38961
-3.46947
-2.58299
-1.82055
-1.22155
-0.784637
-0.484767
-0.290359
-0.169393
-0.0967963
-0.0544631
-0.0305615
-0.0174879
-0.0107514
-0.00747994
-5.47275
-5.88281
-5.79008
-5.28565
-4.51237
-3.62369
-2.7528
-1.98668
-1.36866
-0.904615
-0.575933
-0.355885
-0.214291
-0.126274
-0.0729178
-0.0415383
-0.0236452
-0.0141286
-0.00941319
-5.68834
-6.01082
-5.88116
-5.38429
-4.64287
-3.78864
-2.93961
-2.17642
-1.54402
-1.05449
-0.695704
-0.446771
-0.280345
-0.172537
-0.103961
-0.0613182
-0.0353522
-0.0206355
-0.0129307
-5.96319
-6.1806
-6.0074
-5.51253
-4.79917
-3.97854
-3.15345
-2.39673
-1.75317
-1.23965
-0.850013
-0.569617
-0.374658
-0.242934
-0.154833
-0.0965165
-0.0579008
-0.0338565
-0.0201113
-6.23453
-6.37197
-6.16296
-5.67069
-4.98387
-4.19624
-3.39656
-2.64952
-1.99834
-1.46337
-1.04354
-0.730515
-0.504576
-0.345974
-0.235122
-0.157498
-0.101241
-0.0615617
-0.0357647
-6.53414
-6.59662
-6.3523
-5.85991
-5.19613
-4.43961
-3.66624
-2.93228
-2.27814
-1.72604
-1.27878
-0.933991
-0.676393
-0.489707
-0.355144
-0.257875
-0.182381
-0.121714
-0.0709242
-6.88575
-6.87153
-6.59069
-6.09573
-5.45249
-4.72648
-3.98136
-3.26496
-2.61373
-2.05017
-1.58005
-1.20578
-0.916893
-0.701699
-0.544238
-0.431463
-0.345406
-0.275642
-0.211848
-7.26854
-7.17406
-6.84114
-6.32471
-5.68367
-4.97395
-4.24825
-3.54702
-2.90189
-2.3334
-1.84915
-1.45343
-1.13957
-0.899607
-0.72183
-0.596866
-0.510161
-0.451296
-0.40763
-7.70308
-7.49901
-7.09006
-6.52933
-5.86821
-5.155
-4.43358
-3.73885
-3.09817
-2.52925
-2.04063
-1.63622
-1.31134
-1.05932
-0.87092
-0.737644
-0.648709
-0.596592
-0.573104
-8.19209
-7.85789
-7.36445
-6.75115
-6.05966
-5.33105
-4.60285
-3.90573
-3.26397
-2.69326
-2.20214
-1.79415
-1.4653
-1.20945
-1.01806
-0.88194
-0.790052
-0.733142
-0.701237
-8.62418
-8.17788
-7.61016
-6.9487
-6.22779
-5.48271
-4.74632
-4.04568
-3.40255
-2.83088
-2.33869
-1.92923
-1.59876
-1.34144
-1.14923
-1.01298
-0.921904
-0.866652
-0.837146
-8.95539
-8.43904
-7.81899
-7.12123
-6.37699
-5.61823
-4.87462
-4.17063
-3.52615
-2.95374
-2.46105
-2.05102
-1.72011
-1.46268
-1.2711
-1.13619
-1.04739
-0.995143
-0.969172
-9.21438
-8.64605
-7.98627
-7.26036
-6.49765
-5.72779
-4.97816
-4.27133
-3.62577
-3.053
-2.56036
-2.15052
-1.82004
-1.56337
-1.37319
-1.24023
-1.15409
-1.10504
-1.08264
-9.40343
-8.7958
-8.10542
-7.35818
-6.58171
-5.80371
-5.04975
-4.34101
-3.69491
-3.12222
-2.63007
-2.22089
-1.89128
-1.63576
-1.44715
-1.31607
-1.23223
-1.18572
-1.16595
-9.53621
-8.88361
-8.1685
-7.40704
-6.62243
-5.84008
-5.08411
-4.37477
-3.72887
-3.15672
-2.66531
-2.25693
-1.92821
-1.67368
-1.48627
-1.35659
-1.27441
-1.22977
-1.21203
-9.53626
-8.88369
-8.16861
-7.40717
-6.62257
-5.84024
-5.08427
-4.37493
-3.72903
-3.15688
-2.66546
-2.25708
-1.92835
-1.67381
-1.4864
-1.35672
-1.27454
-1.2299
-1.21217
-9.40349
-8.79596
-8.10567
-7.3585
-6.58208
-5.80413
-5.05019
-4.34146
-3.69537
-3.12268
-2.63051
-2.22131
-1.89169
-1.63615
-1.44753
-1.31645
-1.23263
-1.18613
-1.1664
-9.21447
-8.6463
-7.98666
-7.26086
-6.49824
-5.72846
-4.97887
-4.27207
-3.62652
-3.05373
-2.56106
-2.15119
-1.82068
-1.56399
-1.3738
-1.24083
-1.1547
-1.10568
-1.08332
-8.95551
-8.43936
-7.81949
-7.12188
-6.37777
-5.6191
-4.87556
-4.17161
-3.52713
-2.9547
-2.46197
-2.05189
-1.72094
-1.46347
-1.27186
-1.13693
-1.04814
-0.995918
-0.969993
-8.62431
-8.17825
-7.61074
-6.94947
-6.22872
-5.48377
-4.74747
-4.04687
-3.40375
-2.83205
-2.33981
-1.93027
-1.59974
-1.34236
-1.1501
-1.01383
-0.922741
-0.867509
-0.838047
-8.19224
-7.8583
-7.3651
-6.75201
-6.06071
-5.33226
-4.60417
-3.9071
-3.26535
-2.69459
-2.2034
-1.79532
-1.46638
-1.21044
-1.01898
-0.882813
-0.790899
-0.733986
-0.702102
-7.70326
-7.4995
-7.09087
-6.53046
-5.86961
-5.15663
-4.43537
-3.74072
-3.10003
-2.53104
-2.04231
-1.63778
-1.31275
-1.06061
-0.872114
-0.738753
-0.649751
-0.597566
-0.573998
-7.26864
-7.17419
-6.84147
-6.32533
-5.68463
-4.97523
-4.24978
-3.54872
-2.90364
-2.33511
-1.85074
-1.45483
-1.14078
-0.900596
-0.722628
-0.597513
-0.510767
-0.45205
-0.408798
-6.88582
-6.87198
-6.59162
-6.09721
-5.45451
-4.72897
-3.98418
-3.26794
-2.61671
-2.05301
-1.58265
-1.20809
-0.918896
-0.703429
-0.545761
-0.432873
-0.346823
-0.277202
-0.213657
-6.53415
-6.59679
-6.35284
-5.86093
-5.19762
-4.44149
-3.66838
-2.93451
-2.28031
-1.72803
-1.28053
-0.935458
-0.677597
-0.490693
-0.355977
-0.258626
-0.183085
-0.122345
-0.0713836
-6.2345
-6.37209
-6.16345
-5.67165
-4.98532
-4.19806
-3.3986
-2.65159
-2.00031
-1.46511
-1.04501
-0.731702
-0.505512
-0.346713
-0.235724
-0.158014
-0.101688
-0.0619074
-0.0359596
-5.96313
-6.18065
-6.00781
-5.51342
-4.80052
-3.98025
-3.15533
-2.39861
-1.75489
-1.24112
-0.851208
-0.570545
-0.37536
-0.243466
-0.155246
-0.0968468
-0.0581618
-0.0340387
-0.0201929
-5.68827
-6.01082
-5.88151
-5.38511
-4.64414
-3.79023
-2.94133
-2.17809
-1.5455
-1.05572
-0.69666
-0.447484
-0.280864
-0.172914
-0.104239
-0.0615239
-0.0354993
-0.0207276
-0.0129636
-5.47266
-5.88278
-5.79037
-5.28638
-4.51353
-3.62513
-2.75433
-1.98813
-1.36991
-0.905615
-0.576685
-0.356427
-0.21467
-0.126539
-0.0731018
-0.0416646
-0.0237268
-0.0141743
-0.00942618
-5.32368
-5.79264
-5.71938
-5.19807
-4.39064
-3.47074
-2.58431
-1.82177
-1.22257
-0.785432
-0.485347
-0.290764
-0.169668
-0.0969799
-0.0545843
-0.0306389
-0.0175337
-0.010775
-0.0074866
-5.25067
-5.74995
-5.67044
-5.11753
-4.27256
-3.32592
-2.43173
-1.67972
-1.10311
-0.693021
-0.418828
-0.245534
-0.140396
-0.0788458
-0.0438448
-0.0245251
-0.0141435
-0.00881865
-0.00620611
-5.26875
-5.74981
-5.6308
-5.03098
-4.14825
-3.18332
-2.29176
-1.55791
-1.00703
-0.623072
-0.371291
-0.214922
-0.121555
-0.0676711
-0.0374233
-0.0208845
-0.0120324
-0.00745971
-0.00516281
-5.36496
-5.78117
-5.59705
-4.94364
-4.02883
-3.05635
-2.17618
-1.4645
-0.938385
-0.576254
-0.341425
-0.196722
-0.11085
-0.0615152
-0.0339322
-0.0188625
-0.0107862
-0.00655729
-0.00430626
-5.48243
-5.81574
-5.56927
-4.88394
-3.96275
-3.00135
-2.13825
-1.44305
-0.92887
-0.573443
-0.341817
-0.197893
-0.111873
-0.0620906
-0.0341163
-0.0187279
-0.0104778
-0.00622069
-0.00424889
-5.60966
-5.8641
-5.58551
-4.90968
-4.01987
-3.09194
-2.24942
-1.55803
-1.03352
-0.659449
-0.407274
-0.244512
-0.143384
-0.0824943
-0.0469259
-0.0265743
-0.0153006
-0.00944429
-0.0071621
-5.73297
-5.91378
-5.60916
-4.947
-4.09064
-3.19583
-2.37247
-1.68285
-1.14598
-0.751645
-0.477423
-0.294696
-0.17755
-0.104849
-0.0611538
-0.0354893
-0.0209758
-0.0133874
-0.0105269
-5.8512
-5.97291
-5.65078
-5.00629
-4.18349
-3.31918
-2.51138
-1.82011
-1.26819
-0.851559
-0.553736
-0.349792
-0.21557
-0.130167
-0.0776357
-0.046126
-0.0280157
-0.0184912
-0.0150042
-5.98126
-6.05105
-5.71461
-5.08792
-4.29535
-3.45634
-2.65932
-1.96302
-1.39423
-0.954594
-0.632922
-0.407634
-0.256139
-0.157755
-0.0960845
-0.0584598
-0.0365798
-0.0250842
-0.0211144
-6.14199
-6.14878
-5.79958
-5.18907
-4.42108
-3.60053
-2.80887
-2.10454
-1.51803
-1.05589
-0.71138
-0.465737
-0.297684
-0.186738
-0.116137
-0.0725056
-0.0469909
-0.0337789
-0.0297824
-6.28634
-6.25049
-5.89951
-5.30495
-4.55545
-3.74618
-2.95454
-2.23956
-1.63512
-1.1518
-0.786285
-0.522087
-0.338925
-0.21646
-0.137671
-0.0885944
-0.0600166
-0.0458146
-0.0428135
-6.42738
-6.38292
-6.03446
-5.44846
-4.70627
-3.89749
-3.09814
-2.36836
-1.7449
-1.24131
-0.856636
-0.575926
-0.379489
-0.247001
-0.161266
-0.107828
-0.0773802
-0.0636842
-0.0636965
-6.61046
-6.54994
-6.19339
-5.60278
-4.85505
-4.03669
-3.22409
-2.47818
-1.83752
-1.31728
-0.917604
-0.624352
-0.41804
-0.278295
-0.187966
-0.132272
-0.10228
-0.0919428
-0.0987039
-6.83393
-6.74357
-6.36697
-5.75734
-4.99088
-4.15385
-3.32409
-2.56258
-1.90837
-1.3767
-0.967639
-0.667062
-0.455409
-0.312239
-0.220819
-0.166223
-0.140617
-0.138548
-0.158439
-7.07884
-6.96148
-6.55236
-5.9072
-5.10855
-4.24482
-3.39549
-2.62042
-1.95757
-1.42066
-1.00871
-0.70683
-0.495239
-0.353474
-0.265799
-0.217298
-0.202291
-0.216374
-0.25954
-7.37322
-7.21539
-6.74832
-6.04653
-5.2021
-4.30544
-3.43642
-2.65196
-1.9871
-1.45241
-1.04522
-0.749048
-0.544031
-0.409829
-0.332595
-0.297515
-0.302539
-0.344717
-0.426203
-7.7454
-7.48778
-6.93059
-6.1535
-5.25463
-4.32462
-3.44109
-2.65581
-1.99899
-1.4764
-1.08356
-0.801743
-0.611487
-0.492948
-0.435484
-0.424364
-0.463092
-0.550362
-0.690975
-8.08445
-7.70805
-7.04839
-6.19141
-5.24203
-4.28954
-3.40534
-2.63414
-1.99964
-1.50167
-1.13486
-0.877659
-0.712169
-0.619624
-0.594355
-0.621481
-0.712404
-0.867306
-1.09407
-8.41779
-7.91602
-7.13454
-6.19189
-5.19718
-4.23335
-3.36091
-2.61616
-2.01545
-1.55202
-1.22124
-0.998189
-0.867957
-0.813457
-0.835969
-0.919737
-1.08652
-1.33715
-1.68298
-8.76584
-8.05426
-7.13143
-6.11478
-5.09671
-4.14573
-3.3066
-2.60712
-2.05622
-1.64053
-1.35868
-1.18201
-1.10064
-1.09994
-1.19039
-1.3542
-1.62598
-2.00586
-2.51018
-8.93164
-7.99428
-6.96712
-5.92578
-4.92898
-4.0288
-3.25245
-2.62181
-2.13957
-1.78661
-1.56828
-1.45202
-1.43543
-1.50722
-1.68926
-1.9604
-2.37085
-2.91912
-3.63242
-8.82819
-7.74734
-6.69178
-5.68683
-4.75532
-3.93799
-3.24643
-2.70093
-2.30002
-2.02023
-1.87717
-1.83425
-1.89895
-2.06401
-2.36475
-2.77522
-3.36428
-4.12923
-5.12456
-8.32465
-7.24358
-6.26958
-5.37849
-4.56518
-3.86809
-3.28727
-2.84603
-2.54131
-2.34714
-2.29281
-2.33813
-2.50296
-2.78517
-3.23592
-3.82425
-4.64311
-5.69334
-7.10415
-7.34143
-6.47514
-5.70653
-5.00582
-4.36081
-3.81854
-3.37236
-3.05273
-2.85752
-2.7605
-2.80749
-2.95591
-3.24065
-3.66674
-4.3051
-5.12272
-6.2478
-7.69828
-9.8129
-5.90422
-5.4582
-4.99881
-4.55147
-4.11824
-3.76167
-3.4723
-3.29007
-3.21599
-3.22613
-3.38493
-3.64986
-4.07413
-4.67441
-5.54942
-6.67403
-8.23619
-10.3025
-13.8084
-4.17235
-4.23663
-4.13792
-3.98274
-3.79421
-3.64893
-3.53571
-3.50381
-3.55894
-3.68222
-3.95792
-4.3474
-4.92705
-5.73478
-6.91402
-8.47224
-10.7116
-13.8181
-20.4423
-2.39
-2.87764
-3.12038
-3.26556
-3.34112
-3.42554
-3.50294
-3.62916
-3.81458
-4.04831
-4.43454
-4.94251
-5.67946
-6.72365
-8.29697
-10.4966
-13.8618
-18.8644
-33.082
-0.79665
-1.45673
-1.95536
-2.38008
-2.72525
-3.05
-3.32532
-3.61014
-3.91522
-4.24207
-4.71249
-5.30254
-6.16562
-7.46893
-9.62465
-13.1171
-19.5276
-31.4838
-74.3528
)
;

boundaryField
{
    up
    {
        type            calculated;
        value           nonuniform List<scalar> 
84
(
-67.391
-36.4951
-22.2898
-14.9402
-10.5813
-7.65864
-5.53338
-3.9316
-2.72302
-1.82903
-1.18955
-0.75015
-0.460899
-0.278572
-0.168064
-0.103039
-0.065256
-0.0430301
-0.0294209
-0.0205643
-0.0144481
-0.0100367
-0.00670388
-0.00361841
-0.0034865
-0.004599
-0.00556542
-0.00665775
-0.00817762
-0.0108237
-0.0161069
-0.0269882
-0.0532912
-0.197016
-0.404985
-0.570027
-0.691041
-0.828233
-0.961925
-1.07705
-1.16159
-1.20866
-1.20881
-1.16205
-1.07776
-0.96277
-0.829159
-0.691919
-0.570846
-0.406243
-0.199087
-0.0537297
-0.0271137
-0.0161384
-0.010826
-0.00817349
-0.00665534
-0.00556721
-0.00460624
-0.0034888
-0.0036103
-0.00670138
-0.0100358
-0.0144485
-0.0205665
-0.0294259
-0.0430395
-0.0652711
-0.10306
-0.168088
-0.278591
-0.460901
-0.750121
-1.18948
-1.82893
-2.72293
-3.93156
-5.53342
-7.65876
-10.5814
-14.9404
-22.2898
-36.4951
-67.3909
)
;
    }
    low
    {
        type            calculated;
        value           nonuniform List<scalar> 
84
(
-0.857394
-2.50674
-4.41642
-6.29811
-7.86255
-8.91445
-9.41266
-9.45703
-9.17944
-8.70385
-8.31323
-7.92303
-7.47689
-7.14717
-6.88517
-6.63115
-6.42001
-6.27348
-6.10808
-5.89342
-5.71781
-5.55927
-5.38532
-5.20878
-5.01065
-4.87275
-4.85615
-4.9809
-5.19987
-5.50078
-5.85014
-6.16828
-6.51649
-6.92022
-7.34304
-7.82972
-8.38989
-8.86216
-9.21322
-9.48863
-9.69137
-9.84773
-9.84777
-9.69139
-9.48867
-9.21327
-8.86223
-8.38998
-7.82984
-7.34297
-6.92029
-6.5164
-6.16821
-5.85006
-5.50071
-5.19979
-4.98085
-4.85611
-4.87272
-5.01065
-5.20889
-5.38531
-5.5593
-5.71782
-5.89342
-6.10809
-6.27349
-6.42001
-6.63114
-6.88516
-7.14715
-7.47687
-7.923
-8.3132
-8.70382
-9.1794
-9.45702
-9.41266
-8.91447
-7.86258
-6.29815
-4.41646
-2.50676
-0.857406
)
;
    }
    left
    {
        type            calculated;
        value           nonuniform List<scalar> 
19
(
-0.783834
-1.43637
-1.95016
-2.39531
-2.7614
-3.10476
-3.39603
-3.69688
-4.01742
-4.36579
-4.86835
-5.50381
-6.44634
-7.89609
-10.3144
-14.2966
-21.6816
-35.6044
-69.8738
)
;
    }
    right
    {
        type            calculated;
        value           nonuniform List<scalar> 
19
(
-0.78384
-1.43636
-1.95015
-2.3953
-2.76139
-3.10476
-3.39603
-3.69689
-4.01744
-4.36582
-4.86837
-5.50383
-6.44633
-7.89604
-10.3143
-14.2965
-21.6816
-35.6045
-69.8738
)
;
    }
    frontAndBackPlanes
    {
        type            empty;
    }
}


// ************************************************************************* //
