/*--------------------------------*- C++ -*----------------------------------*\
  =========                 |
  \\      /  F ield         | OpenFOAM: The Open Source CFD Toolbox
   \\    /   O peration     | Website:  https://openfoam.org
    \\  /    A nd           | Version:  7
     \\/     M anipulation  |
\*---------------------------------------------------------------------------*/
FoamFile
{
    version     2.0;
    format      ascii;
    class       volScalarField;
    location    "0.02";
    object      gradTz;
}
// * * * * * * * * * * * * * * * * * * * * * * * * * * * * * * * * * * * * * //

dimensions      [0 -1 0 1 0 0 0];

internalField   nonuniform List<scalar> 
1596
(
-1.12774e-15
-4.70118e-16
5.58827e-16
8.06551e-17
-9.16715e-16
0
-3.54896e-16
-3.52691e-16
-1.01653e-16
-2.21197e-16
2.77858e-19
-2.25865e-16
1.12922e-15
-2.3578e-16
1.03294e-15
9.27348e-16
5.61588e-16
7.8601e-16
0
1.03992e-15
0
1.04381e-15
-2.93146e-17
-2.04287e-16
2.1906e-16
6.37142e-16
9.11489e-17
2.70797e-16
-1.35978e-16
2.75498e-16
1.32545e-18
-3.65851e-16
-2.31617e-16
-8.1931e-16
-8.39009e-16
-8.01033e-16
4.99279e-16
0
-4.11098e-16
0
-5.19972e-16
4.07016e-17
3.04371e-16
-1.78478e-16
3.95082e-17
-6.79737e-19
-1.35799e-19
2.92788e-19
3.4849e-17
0
1.88759e-16
4.5008e-16
-4.46974e-17
4.72089e-17
1.00279e-16
2.38815e-16
0
7.86125e-16
-1.23846e-16
1.23394e-16
0
-8.73924e-17
-1.00853e-16
1.11345e-16
-5.00314e-17
0
0
-7.9725e-17
1.85425e-17
0
-1.07827e-16
-8.98773e-17
7.41193e-17
-1.49059e-16
-6.77466e-18
0
1.51899e-16
2.37073e-16
-1.05797e-16
0
-1.20829e-17
-4.78782e-17
0
5.93582e-17
-3.95179e-18
-3.86881e-18
-3.0849e-17
1.8803e-17
2.89021e-17
4.99311e-18
3.39938e-17
-7.942e-17
3.27512e-18
3.86532e-17
-2.48764e-17
-3.94458e-17
-3.05943e-16
1.73214e-16
-8.71977e-17
-9.41709e-19
-2.27691e-17
4.76642e-19
-4.78225e-19
-9.01141e-18
0
-1.38563e-17
-2.37486e-17
-2.52947e-17
1.10979e-17
3.09074e-17
-3.07324e-19
-1.66334e-17
-3.92054e-17
3.72022e-17
3.29655e-16
-3.33002e-16
2.17067e-16
5.52757e-17
0
1.87364e-17
5.87002e-18
-2.13008e-18
1.05971e-17
-1.31079e-18
-9.76174e-18
-2.23463e-20
-3.06503e-18
-1.10602e-17
-4.63998e-18
5.41912e-18
1.67798e-17
-2.7439e-19
-1.17852e-17
1.13275e-16
5.75791e-16
-3.9354e-16
0
0
-2.08641e-17
0
0
0
1.50087e-18
0
0
3.28201e-18
-4.21279e-20
3.30625e-18
-5.10097e-18
0
2.71053e-18
2.15515e-18
0
-3.01213e-16
5.0763e-16
0
0
2.14871e-17
0
-1.368e-18
1.36662e-18
-1.52767e-18
3.60432e-19
-3.63068e-19
0
4.90879e-19
1.62804e-18
0
-7.55903e-19
-2.74315e-18
-2.02307e-18
1.24858e-15
-5.05149e-16
0
-9.01162e-17
8.91077e-17
0
1.07991e-17
0
0
0
1.54551e-19
-1.55292e-19
0
-4.23557e-19
-6.31777e-20
0
5.12583e-19
2.82245e-19
0
-3.16385e-16
0
0
9.64189e-17
-1.40324e-16
2.52305e-17
8.56519e-18
-1.48601e-18
9.31236e-19
1.49748e-19
-2.06236e-19
-1.03595e-19
0
5.29434e-20
-2.03397e-20
2.0645e-20
2.07091e-19
-2.51834e-19
-8.62721e-20
1.037e-16
-1.01864e-16
1.27129e-16
2.39574e-16
-5.19248e-17
-4.77613e-17
0
0
0
5.95673e-19
7.41454e-20
1.37532e-19
-3.08731e-20
-5.19962e-20
-1.03739e-20
-1.24102e-20
6.47155e-21
-2.31762e-20
7.76636e-20
-2.17398e-16
2.33135e-16
-3.33075e-16
-2.39021e-16
1.68982e-16
2.17174e-17
-3.02401e-17
1.20977e-17
-4.54341e-18
9.91188e-19
2.07292e-19
-5.20087e-20
2.58778e-22
-5.1379e-21
2.11097e-20
0
-1.90628e-21
2.7518e-20
-5.59735e-21
-1.89435e-15
7.22451e-16
-9.66992e-19
-3.43503e-17
3.28731e-17
2.1325e-17
-3.33143e-17
-4.77468e-18
1.74097e-18
-6.00038e-19
-2.00027e-19
0
-3.77201e-20
-7.51513e-21
-3.69797e-21
-1.40433e-21
3.77752e-23
-5.83579e-21
4.02418e-21
3.07789e-16
-2.00207e-16
-2.27856e-18
-6.50653e-17
-7.68597e-17
5.91791e-17
5.62893e-19
4.65292e-18
-1.69506e-18
1.13075e-18
1.319e-19
6.22008e-20
3.86737e-20
0
5.62653e-21
1.55236e-21
0
1.22763e-21
9.81399e-22
0
1.94224e-16
5.99851e-17
-1.71219e-16
7.23646e-17
-7.37097e-17
2.92766e-17
2.801e-18
-1.77322e-18
-1.51302e-18
5.45427e-20
-5.42735e-20
-3.26507e-20
4.61988e-21
-1.34938e-21
-1.29865e-21
1.89682e-22
-1.00855e-22
2.98819e-22
-2.82232e-16
5.77424e-16
-4.61868e-16
1.05771e-16
0
0
-2.07814e-18
6.33139e-18
-8.35983e-19
1.20853e-18
0
0
1.87452e-20
-8.70217e-21
-1.46486e-21
4.00421e-22
-1.59299e-22
7.33282e-23
0
9.57625e-17
2.65546e-16
-9.79189e-17
-5.46106e-17
-3.26135e-17
9.37844e-18
9.30283e-18
0
-6.67016e-19
-4.16752e-21
9.32561e-20
-2.84929e-20
8.51591e-21
0
7.45625e-22
5.06186e-22
0
0
0
-9.50731e-17
1.54582e-16
-2.68597e-17
-1.74476e-16
1.8386e-17
8.80473e-18
0
0
5.13453e-19
-3.3165e-19
-9.01989e-20
2.75578e-20
-8.23553e-21
0
-1.90147e-22
1.19193e-22
0
-1.31763e-23
-3.55624e-24
-1.48367e-16
4.61159e-16
-3.76918e-16
-5.40581e-17
3.56779e-17
-5.99559e-18
2.20046e-18
0
-2.47475e-19
1.05131e-19
0
0
1.47653e-21
-1.47823e-21
5.99297e-23
-1.11996e-22
2.50475e-23
6.01708e-24
2.69034e-24
1.12631e-16
-6.5062e-17
1.71426e-16
-9.9013e-17
-1.21312e-17
3.32044e-18
6.42851e-18
5.38327e-19
2.36796e-19
0
1.15053e-20
-1.05601e-20
3.02801e-21
-9.18016e-22
1.76144e-22
-1.41738e-22
-1.55915e-23
8.63182e-24
9.6193e-25
2.27518e-16
-2.67311e-16
0
3.67397e-17
-2.47719e-17
-4.3834e-18
2.13917e-19
-2.26394e-18
0
-6.9371e-21
-2.50571e-20
-4.037e-21
1.65617e-21
-3.58634e-22
-1.7024e-22
4.70996e-23
0
2.00468e-24
-9.34026e-25
5.89989e-16
-5.34342e-17
9.73403e-17
-7.21505e-17
7.25987e-18
-5.84628e-18
-3.7092e-18
-1.83795e-19
2.36693e-19
-2.27172e-20
-9.17001e-21
5.23022e-21
-1.10642e-21
-2.62107e-22
0
0
0
-1.99894e-24
4.99593e-26
-3.78581e-16
3.33391e-16
-1.38864e-18
8.43608e-18
3.45153e-18
-2.45956e-18
1.67015e-18
-4.96671e-19
1.53451e-19
-8.1376e-21
1.30219e-20
7.73478e-22
-1.2984e-22
1.98015e-25
4.40449e-24
-3.49311e-24
0
0
0
0
0
3.82374e-17
-4.73073e-17
-2.6031e-17
0
0
-7.87562e-20
-4.96905e-20
1.1565e-20
0
-9.75497e-22
2.59221e-22
-2.23336e-22
2.04388e-22
-1.24529e-23
1.2965e-23
4.65895e-25
0
-7.00014e-17
7.08629e-17
0
-9.25312e-18
5.50307e-18
4.06572e-18
0
7.95083e-20
8.74338e-21
-7.7725e-20
0
-7.88103e-22
2.18371e-22
6.63295e-23
-1.91378e-23
1.20784e-23
0
-1.19675e-24
0
-3.65178e-17
-1.80865e-17
1.2195e-18
9.50735e-18
-1.05792e-17
0
-3.90996e-19
0
1.03032e-19
1.17938e-20
0
2.57941e-21
-1.49653e-21
1.99545e-22
1.41023e-23
3.13659e-23
2.00457e-23
2.76021e-24
-2.21183e-24
0
5.70977e-17
-2.0117e-17
2.2473e-17
7.16857e-18
0
7.12937e-19
-4.79581e-19
-6.04302e-20
2.08272e-20
-2.71233e-20
-2.04496e-21
0
0
1.90681e-23
0
0
1.76194e-24
0
-3.48774e-16
2.85329e-16
0
6.01805e-18
-1.70839e-18
-9.23921e-20
1.02173e-18
3.05893e-20
-2.44903e-19
-1.00615e-19
3.55921e-20
-8.17869e-21
0
-6.14421e-23
0
0
0
-7.73301e-24
6.46553e-24
-1.21042e-16
7.33327e-17
1.02586e-16
-7.87712e-17
1.12859e-17
2.02178e-18
-1.00585e-18
3.22922e-19
1.91662e-19
4.27006e-20
-7.28861e-20
0
8.50966e-22
-7.58767e-22
-8.77863e-23
7.21557e-23
-3.89465e-23
-1.10453e-23
9.09264e-24
-4.95264e-16
3.50771e-16
-3.12974e-16
2.67167e-17
1.06382e-17
-7.35067e-18
3.25365e-18
-7.26106e-19
0
-1.0705e-19
3.11238e-20
1.00667e-20
5.42723e-21
4.12644e-22
-4.24567e-22
3.33013e-23
0
3.2425e-24
-1.11648e-24
-5.32614e-16
-9.33511e-17
-8.75546e-17
5.97421e-17
-3.09391e-17
1.30566e-17
-5.55013e-18
1.48643e-18
-2.96606e-19
-1.81856e-19
-6.4714e-20
5.63003e-20
2.90211e-21
2.41687e-21
-2.59453e-21
-1.83459e-22
-5.49371e-23
0
2.68008e-23
5.75872e-16
-1.0923e-16
0
0
-3.3757e-17
5.14997e-17
-7.3005e-18
-3.40311e-19
1.53482e-18
-1.22993e-19
0
0
-9.68807e-21
0
-3.16223e-21
2.91351e-21
-8.86766e-22
0
-2.98118e-23
1.70084e-16
2.38887e-16
0
-4.92604e-17
-1.55368e-17
5.6357e-19
-7.78026e-18
1.13723e-18
-2.17631e-18
-2.43591e-19
0
0
6.84883e-20
0
0
-7.67929e-21
1.75443e-20
0
0
1.17953e-15
-2.51047e-16
-4.6831e-16
-1.15636e-16
1.65548e-16
2.38251e-17
7.54393e-18
0
-7.37609e-19
3.93432e-19
6.66484e-19
-1.56666e-19
-6.0099e-20
5.48304e-20
-5.83227e-20
-4.99013e-21
0
0
0
9.40399e-17
-5.17859e-16
4.90844e-16
-2.86169e-17
-1.21838e-16
1.53487e-16
-5.77263e-17
0
0
3.56174e-18
-2.34517e-18
0
-1.15776e-19
2.35368e-19
-3.86353e-21
2.78495e-20
5.3759e-21
1.85109e-22
6.47738e-22
0
0
0
2.19274e-16
-1.53508e-16
6.3052e-17
-8.5741e-17
1.70248e-17
0
-1.4928e-18
1.08419e-18
-1.10811e-18
-7.90572e-20
1.24102e-20
-1.96857e-20
-1.25528e-21
-1.08353e-20
-2.82112e-21
-1.29896e-21
7.18825e-16
-1.13719e-15
4.68375e-16
0
4.06279e-17
-5.91148e-17
2.44758e-17
-1.86904e-17
0
-1.78966e-18
2.66662e-18
0
0
1.41457e-20
0
-2.34785e-20
1.44466e-20
4.30781e-22
2.30138e-21
8.52313e-16
0
-1.60406e-16
1.76075e-16
-5.20009e-17
9.80084e-17
-3.60807e-17
-1.09128e-17
1.10267e-17
-5.22783e-19
0
0
7.73617e-20
-6.96952e-20
-3.25117e-20
5.45236e-20
-1.00529e-20
3.27878e-21
0
4.78691e-16
2.42963e-16
-6.6049e-17
-1.7128e-16
-9.95597e-18
-4.07161e-17
1.65066e-17
2.15095e-17
-5.3269e-19
5.326e-19
0
0
-7.92519e-20
0
4.06507e-20
-4.34866e-20
0
3.55485e-21
-9.07261e-22
-2.52936e-16
-1.22455e-16
1.15733e-16
-8.17027e-18
-2.57092e-18
4.60689e-18
0
-5.05331e-19
3.90389e-18
-3.26197e-18
0
2.62649e-19
-1.28644e-19
-1.51092e-19
-7.95123e-21
-4.71717e-21
0
-2.84893e-21
0
8.61672e-17
-1.47236e-16
1.32198e-17
4.1534e-17
1.91182e-17
-1.819e-17
-5.6446e-18
6.22409e-18
-8.61354e-19
7.26989e-19
-2.53536e-19
2.61356e-19
0
2.20859e-22
-4.83806e-21
1.84606e-20
-4.70986e-23
0
0
8.61708e-17
-8.58479e-17
-4.12922e-17
3.74162e-17
3.30751e-17
-3.32704e-17
-2.82264e-18
2.83422e-18
-8.70335e-19
8.78671e-19
-2.53585e-19
3.99515e-19
-1.05343e-19
-4.03151e-20
-6.24705e-21
3.0771e-21
3.95232e-21
8.42551e-22
-6.13787e-22
0
-1.80805e-17
7.01888e-17
-7.85958e-17
3.27675e-17
-2.98844e-17
0
6.17213e-18
-5.71268e-18
0
4.86307e-19
-5.84306e-19
-1.44264e-19
1.51198e-19
1.45224e-20
0
0
-2.85262e-21
9.81146e-22
3.42151e-16
-5.65521e-16
4.42242e-16
-2.84291e-16
9.4865e-17
-3.48153e-17
3.44819e-17
1.86829e-18
-3.70439e-18
3.21298e-18
0
-5.42139e-19
4.9323e-19
-4.31959e-20
-1.42247e-20
1.40493e-20
8.27739e-21
2.76935e-21
-9.4801e-22
9.50547e-16
0
-1.84864e-16
1.44798e-16
9.84434e-18
-4.1848e-17
5.95575e-17
-3.30218e-17
1.01199e-17
-1.50694e-18
1.54249e-18
1.45396e-19
1.31776e-19
4.20733e-20
-1.91911e-20
-4.45174e-21
-1.80569e-20
0
1.08403e-21
6.21938e-16
-7.00617e-16
0
3.09115e-17
7.74931e-17
-6.98106e-17
5.88696e-18
3.13958e-18
8.96778e-19
8.22416e-19
0
0
-1.95865e-19
2.69316e-19
-7.67898e-20
-1.32283e-20
1.44828e-20
8.07627e-22
-1.93813e-21
2.20514e-16
6.22339e-16
-4.62816e-17
-1.90105e-16
1.71134e-16
1.04459e-17
-5.76146e-18
-3.06644e-18
4.47299e-18
-5.30802e-18
1.0863e-18
-1.11024e-18
3.06398e-20
-9.73139e-20
5.38855e-20
-3.61516e-20
0
0
8.17893e-22
0
1.34292e-16
-2.48895e-16
2.92288e-16
-1.049e-16
1.0465e-16
0
7.73548e-18
-7.77093e-18
-1.81863e-18
2.35135e-18
0
1.92174e-19
-2.36111e-19
-1.8805e-20
0
-6.99802e-22
-5.26013e-22
-4.05318e-22
-1.63018e-15
6.78042e-16
0
-1.65662e-16
1.65645e-16
4.01934e-17
-2.52655e-17
3.62404e-18
0
-4.22344e-20
7.16838e-21
-1.57017e-19
-6.02999e-20
5.50208e-20
-5.85054e-20
0
2.19382e-21
5.93222e-22
-4.02353e-22
9.15019e-16
-8.20984e-16
0
4.42166e-17
2.40972e-17
-1.52806e-17
0
-3.79803e-18
-1.15595e-18
0
-1.6278e-19
0
6.88381e-20
0
0
1.69326e-21
2.66693e-21
-5.23193e-21
0
-1.36538e-18
1.09311e-16
-6.44797e-17
1.74138e-17
-1.11497e-16
3.05106e-17
0
3.41464e-19
7.12333e-19
0
-1.78831e-19
1.10089e-19
-1.15655e-19
2.98246e-21
0
-1.38456e-21
0
0
0
-1.33271e-18
0
5.95953e-17
0
-2.22501e-17
2.26038e-17
0
9.66184e-19
-2.91768e-19
6.15725e-19
-2.07078e-19
1.10197e-20
-5.95943e-21
-2.73813e-22
-2.60897e-21
-1.02012e-22
0
4.39047e-23
0
2.98185e-16
-5.17025e-16
0
-2.29872e-17
1.03373e-17
0
0
-1.45591e-18
0
-1.07533e-19
-3.12861e-20
-1.01282e-20
5.46384e-21
0
-1.79865e-23
0
0
-4.46782e-23
1.03067e-23
0
3.0701e-16
-2.32628e-16
2.12809e-17
-9.57239e-18
-1.12748e-18
2.15413e-18
8.45625e-19
-2.70094e-19
7.95752e-20
1.57211e-20
-1.86558e-21
5.88728e-21
-8.95681e-22
-2.25123e-23
-3.45654e-23
1.3186e-25
-3.06942e-24
-1.93553e-24
-8.79281e-16
2.88395e-16
0
0
2.0828e-18
-2.11798e-18
-6.19297e-20
-2.1478e-19
1.32522e-19
1.99063e-20
-1.4349e-20
-1.45485e-21
-2.52582e-22
6.10921e-23
0
5.19611e-24
-1.20859e-25
2.13748e-24
1.74945e-24
0
1.59852e-16
-9.11047e-17
2.0432e-17
4.89019e-18
-7.65741e-19
-5.84937e-19
-1.73513e-19
-1.55667e-19
1.49561e-20
8.27874e-22
3.7575e-21
2.36195e-22
-6.59156e-23
6.99654e-23
1.54335e-23
-1.88189e-23
-1.97428e-24
0
-5.71875e-17
-1.41675e-16
2.45643e-17
9.51569e-18
-1.18861e-17
5.78582e-18
4.22327e-19
-4.31683e-19
5.74756e-20
-1.41941e-20
0
0
-2.67943e-22
3.61901e-22
-8.60083e-23
1.9074e-23
-2.11805e-23
1.41163e-24
-2.40758e-24
9.12818e-17
5.06337e-17
-2.22695e-17
2.56842e-18
-8.76638e-18
-1.98724e-18
0
0
0
0
0
0
2.36919e-22
-1.70583e-22
1.8041e-22
-1.01487e-23
1.47303e-23
2.11602e-24
-1.58185e-24
2.26143e-16
-1.41043e-16
1.64767e-16
-1.39864e-17
2.30378e-17
-2.45893e-18
3.1574e-18
-8.12335e-19
-5.55791e-20
5.68549e-20
0
9.73993e-22
-2.31458e-22
1.58857e-22
-1.23322e-22
-3.95438e-23
-1.79035e-23
2.02824e-24
1.0351e-24
3.70851e-16
5.0546e-17
0
-1.78547e-17
-4.03316e-18
6.22361e-18
-5.23362e-19
-4.17585e-19
1.10341e-19
-1.79106e-20
0
-7.71026e-22
0
-1.04661e-22
4.04819e-23
-1.19904e-23
-2.14609e-24
3.38932e-25
0
4.90771e-16
-5.34326e-17
9.97023e-17
-7.3794e-17
-4.5093e-18
5.36567e-18
-2.99988e-18
1.65657e-19
7.69717e-20
-2.71608e-20
1.50698e-20
0
0
2.23986e-22
4.87721e-24
2.4934e-25
7.14401e-24
-1.57633e-24
0
-9.13506e-19
0
-2.84092e-17
7.70342e-17
-4.31179e-17
-1.1295e-17
5.55245e-18
-9.29663e-19
6.71433e-19
8.09131e-20
-2.13709e-20
5.03985e-21
-1.96923e-21
2.94792e-22
3.15605e-22
-1.60412e-23
-1.25279e-23
5.96655e-24
-1.0376e-24
1.02734e-15
-2.87639e-16
2.92233e-17
-1.2861e-16
1.21312e-17
-8.09567e-18
5.2844e-18
0
0
-1.16719e-20
-2.43438e-20
-2.24626e-21
0
-6.38593e-22
-1.76145e-22
4.86665e-23
-1.41602e-24
4.65243e-24
2.76027e-24
0
-2.20209e-16
1.91037e-16
-2.07134e-17
-7.07597e-17
5.99556e-18
-3.32735e-18
2.14306e-18
1.13683e-18
0
0
1.55644e-21
5.13936e-21
0
-4.14931e-22
-7.74473e-23
1.23674e-23
-2.28865e-24
-5.29185e-24
0
-9.17362e-17
1.11492e-16
1.33102e-16
2.54479e-17
-3.88428e-17
1.11933e-17
-1.52697e-18
1.0743e-18
-2.85621e-19
0
0
0
-2.42983e-21
-3.78737e-23
-1.91169e-22
0
-1.29872e-24
4.87721e-24
-7.12405e-16
6.04123e-16
2.90372e-16
-3.32346e-16
5.41371e-17
-4.25634e-17
0
1.93672e-18
-2.13158e-18
5.86377e-19
-1.18631e-19
3.69347e-20
1.12486e-20
2.51299e-21
7.45711e-22
0
0
0
0
9.54381e-16
-3.62417e-16
0
0
-2.71228e-17
2.69911e-17
-1.59219e-17
-2.38347e-18
2.3566e-18
3.82437e-19
2.71456e-19
-3.83234e-20
7.08132e-21
2.00666e-22
3.98531e-22
6.50096e-23
1.81884e-22
-5.25904e-24
5.35681e-24
-8.98889e-16
6.74161e-16
1.74431e-16
-1.09818e-16
7.06353e-17
-4.18023e-17
-1.10957e-17
-4.27421e-18
0
-8.64553e-19
1.7921e-19
5.59432e-20
-1.50485e-20
-4.62172e-21
-5.45531e-22
-3.43279e-23
-8.80581e-23
0
0
-3.06898e-16
0
1.2024e-16
1.76769e-18
0
0
1.14455e-17
4.41038e-18
0
5.47061e-19
0
-7.78397e-20
-4.85982e-22
7.01785e-21
0
1.56254e-21
-1.3299e-22
1.35667e-22
0
7.3809e-16
0
1.93061e-16
-2.8897e-16
1.65272e-16
5.12695e-17
-8.54367e-18
0
5.70316e-19
1.17959e-18
0
-9.0636e-20
5.07559e-20
-2.19586e-20
-2.90746e-21
-1.1109e-21
-5.17606e-22
-2.59321e-22
-5.12157e-21
-5.38178e-16
7.36947e-16
-1.26437e-16
-2.04611e-16
-6.76847e-17
-3.06441e-17
-2.5179e-17
-3.36395e-18
1.52328e-18
2.07686e-19
-2.07296e-19
1.47076e-19
-3.32256e-20
3.51822e-20
-5.19202e-21
0
1.65217e-20
-1.92976e-20
4.51817e-21
1.51792e-15
-8.27517e-17
-5.83526e-16
2.39577e-16
-1.48543e-16
6.891e-17
-8.24109e-18
-4.55166e-18
1.66501e-18
2.04349e-19
-1.30155e-19
-1.52593e-19
1.71485e-20
4.87677e-20
-5.99925e-21
6.06768e-21
-1.71125e-20
-5.84003e-20
-7.35154e-20
7.45163e-16
2.07907e-16
2.46188e-16
-1.26139e-16
-4.51946e-17
1.82471e-17
-7.84231e-18
1.50124e-17
8.26948e-19
1.163e-18
2.9651e-19
-1.91266e-19
0
-5.28719e-20
0
0
2.34814e-19
6.58147e-20
7.8607e-20
6.16798e-16
0
2.26364e-16
1.25325e-16
-5.52181e-17
2.64938e-17
0
-4.1657e-18
-2.65443e-18
-1.16886e-18
-2.99135e-19
1.93429e-19
0
0
0
0
-2.26938e-19
-8.94175e-19
0
-1.2029e-15
0
-5.84275e-17
-5.63095e-17
8.55816e-17
-1.0884e-17
-1.19716e-18
-2.68637e-18
2.44374e-18
0
3.60393e-19
-1.66441e-20
1.0043e-18
0
0
1.8859e-18
-1.5572e-19
1.08021e-18
-2.10443e-18
7.91772e-16
1.37821e-16
-1.36398e-16
-6.72096e-17
-1.00146e-16
3.71534e-17
1.84725e-17
-1.59111e-18
-2.13964e-18
3.57387e-18
4.74522e-19
-4.06815e-18
-1.86144e-18
-3.60195e-18
-4.34876e-18
-2.23157e-18
6.73051e-18
-2.39563e-19
2.15538e-18
-2.10578e-16
6.33066e-17
-2.38456e-16
1.63324e-17
-1.6273e-17
0
-9.36894e-18
-5.02523e-18
-9.29152e-18
5.48994e-18
9.76145e-18
3.5479e-18
-1.39701e-18
-5.44754e-18
3.81734e-18
0
-2.32942e-17
-1.74358e-17
-2.90128e-19
5.07476e-16
-7.38223e-18
3.45489e-16
-9.25843e-17
9.4171e-19
1.06032e-18
2.5676e-17
-1.28904e-17
9.01125e-18
-8.72886e-18
-8.87944e-18
0
2.52949e-17
1.08383e-17
2.96825e-19
-4.77007e-19
1.68133e-17
1.76546e-17
0
-3.36653e-16
0
-1.54401e-17
1.01168e-16
6.58856e-18
1.20989e-17
-2.48283e-17
2.22381e-17
5.11873e-17
5.1528e-17
5.28853e-17
0
-2.45735e-17
0
2.80083e-18
-2.90891e-18
0
-6.49883e-19
4.85362e-17
2.94089e-16
7.23036e-17
-5.1951e-17
2.13582e-16
-5.383e-17
0
0
-1.09502e-16
-4.95952e-17
-4.99191e-17
-1.45643e-16
-1.85425e-17
0
0
0
-1.27627e-17
1.35061e-17
1.44704e-16
-4.95349e-17
9.7364e-17
0
-2.19584e-16
-1.15427e-16
1.77645e-16
-2.1737e-16
-2.85866e-16
2.52271e-16
1.38421e-16
0
1.09174e-16
2.21501e-16
-4.06929e-17
2.81676e-16
-4.57822e-17
4.76481e-17
2.65819e-16
-1.37719e-16
0
-5.38172e-16
0
-4.19527e-16
3.89634e-16
0
4.87632e-16
2.05026e-16
-5.41609e-16
5.619e-16
2.04851e-19
-1.3737e-16
-2.14459e-16
0
5.57486e-16
-8.19305e-16
9.17777e-16
-1.17732e-15
0
0
5.62784e-16
-3.02016e-17
-6.19634e-17
-9.2433e-16
1.0066e-15
-4.46299e-16
4.4448e-16
4.41578e-16
-2.50808e-16
0
0
8.83751e-16
-8.98976e-16
-7.61349e-16
7.88972e-16
-8.06797e-16
9.20182e-16
-1.52285e-15
0
)
;

boundaryField
{
    up
    {
        type            calculated;
        value           nonuniform List<scalar> 
84
(
0
0
0
0
-2.48764e-17
3.72022e-17
-1.17852e-17
2.15515e-18
-2.02307e-18
0
-8.62721e-20
7.76636e-20
-5.59735e-21
4.02418e-21
9.81399e-22
2.98819e-22
0
0
-3.55624e-24
2.69034e-24
9.6193e-25
-9.34026e-25
4.99593e-26
0
3.55351e-25
4.20799e-25
-1.70767e-24
0
6.46553e-24
-9.88646e-25
-1.11648e-24
2.68008e-23
-2.98118e-23
0
5.32958e-22
5.4017e-22
-1.13402e-21
2.08877e-21
0
-7.65736e-22
0
0
-5.75856e-22
9.81146e-22
-9.4801e-22
1.08403e-21
-1.93813e-21
8.17893e-22
-4.05318e-22
-4.02353e-22
0
0
0
1.03067e-23
1.17756e-23
1.74945e-24
0
-2.40758e-24
-1.58185e-24
6.8564e-25
0
0
-1.0376e-24
2.76027e-24
-5.29185e-24
4.87721e-24
0
5.35681e-24
0
0
-5.12157e-21
4.51817e-21
-7.35154e-20
7.8607e-20
0
-2.10443e-18
2.15538e-18
-2.90128e-19
0
4.85362e-17
-4.95349e-17
0
0
0
)
;
    }
    low
    {
        type            calculated;
        value           nonuniform List<scalar> 
84
(
-1.13717e-15
1.03992e-15
-3.94771e-16
7.9668e-16
1.57737e-16
-4.09048e-17
3.40555e-16
1.23109e-16
0
1.26225e-15
-3.16385e-16
9.22305e-17
-2.17398e-16
-1.90318e-15
3.07789e-16
0
-2.82232e-16
9.57625e-17
-9.50731e-17
-1.48367e-16
1.12631e-16
2.27518e-16
5.98009e-16
-3.78581e-16
0
-7.00014e-17
-3.65178e-17
0
-3.48774e-16
-1.21042e-16
-5.0122e-16
-5.38795e-16
5.82417e-16
1.70084e-16
1.18699e-15
9.40399e-17
0
7.18825e-16
8.62753e-16
4.8396e-16
-2.55604e-16
8.61672e-17
8.61708e-17
0
3.42151e-16
9.60983e-16
6.21938e-16
2.30321e-16
0
-1.63764e-15
9.15019e-16
-1.36538e-18
-1.33271e-18
2.98185e-16
0
-8.8268e-16
0
-5.71875e-17
9.12818e-17
2.28968e-16
3.78618e-16
4.98788e-16
-9.13506e-19
1.03532e-15
0
0
-7.12405e-16
9.62263e-16
-9.07082e-16
-3.06898e-16
7.46918e-16
-5.38178e-16
1.54086e-15
7.57648e-16
6.16798e-16
-1.2029e-15
7.81939e-16
-1.99679e-16
5.07476e-16
-3.30815e-16
2.94089e-16
1.13691e-16
-5.38172e-16
5.675e-16
)
;
    }
    left
    {
        type            calculated;
        value           nonuniform List<scalar> 
19
(
-1.12774e-15
-4.67362e-16
5.58827e-16
9.0094e-17
-9.27752e-16
0
-3.54896e-16
-3.52691e-16
-1.14548e-16
-2.21197e-16
2.77858e-19
-2.25865e-16
1.15636e-15
-2.3578e-16
1.03294e-15
9.27348e-16
5.61588e-16
9.03704e-16
0
)
;
    }
    right
    {
        type            calculated;
        value           nonuniform List<scalar> 
19
(
5.62784e-16
-3.29583e-17
-6.19634e-17
-9.33768e-16
1.01764e-15
-4.46299e-16
4.4448e-16
4.41578e-16
-2.37913e-16
0
0
9.10723e-16
-9.26111e-16
-7.61349e-16
7.88972e-16
-8.06797e-16
9.20182e-16
-1.64054e-15
0
)
;
    }
    frontAndBackPlanes
    {
        type            empty;
    }
}


// ************************************************************************* //
