/*--------------------------------*- C++ -*----------------------------------*\
  =========                 |
  \\      /  F ield         | OpenFOAM: The Open Source CFD Toolbox
   \\    /   O peration     | Website:  https://openfoam.org
    \\  /    A nd           | Version:  7
     \\/     M anipulation  |
\*---------------------------------------------------------------------------*/
FoamFile
{
    version     2.0;
    format      ascii;
    class       volScalarField;
    location    "0.16";
    object      gradTz;
}
// * * * * * * * * * * * * * * * * * * * * * * * * * * * * * * * * * * * * * //

dimensions      [0 -1 0 1 0 0 0];

internalField   nonuniform List<scalar> 
1596
(
-6.45402e-16
-3.11643e-16
3.19039e-16
9.08309e-18
-6.01554e-16
0
-2.77101e-16
-2.73284e-16
-2.13817e-17
-1.45723e-16
-1.10789e-18
-1.45597e-16
6.45271e-16
-1.44691e-16
6.74734e-16
5.83333e-16
3.47272e-16
4.3936e-16
0
6.4236e-16
0
8.90023e-16
-7.87272e-18
-2.66663e-16
2.63753e-16
5.52358e-16
2.0599e-17
2.5997e-16
-1.26038e-16
2.52067e-16
-3.20582e-18
-3.50639e-16
-2.19996e-16
-5.45206e-16
-5.33078e-16
-4.85724e-16
2.77044e-16
0
-3.11486e-16
0
-5.73121e-16
1.24558e-17
5.11958e-16
-1.50258e-16
1.47634e-17
-3.49311e-18
-3.25023e-18
-3.24908e-18
8.98401e-17
0
1.81796e-16
5.13188e-16
-5.07962e-17
4.15016e-17
9.7285e-17
1.54002e-16
0
4.93847e-16
-1.4345e-16
1.42926e-16
0
-1.35797e-16
-1.42422e-16
2.31896e-16
-1.94657e-16
0
0
-7.98329e-17
4.70117e-17
0
-1.497e-16
-1.87772e-16
1.31588e-16
-1.39365e-16
-7.14573e-18
0
8.67995e-17
2.22268e-16
-1.93352e-16
0
-5.47982e-17
-1.68279e-16
0
2.46301e-16
-2.40883e-17
-2.18354e-17
-2.86482e-17
1.25321e-16
1.5741e-16
1.70205e-17
1.09537e-17
-1.42235e-16
7.11944e-18
6.62166e-17
-2.89934e-17
-2.25404e-17
-3.0412e-16
2.81435e-16
-2.36771e-16
-6.52637e-19
-1.98072e-16
5.50523e-18
-5.52351e-18
-1.49167e-16
0
-2.38954e-17
-1.48854e-16
-1.41951e-16
1.11956e-16
1.24326e-16
-1.67639e-18
-7.46861e-17
-6.71626e-17
5.17548e-17
1.88375e-16
-3.08328e-16
3.33438e-16
1.81299e-16
0
1.53025e-16
8.63385e-17
-4.10926e-17
1.8834e-16
-3.46757e-17
-1.50326e-16
1.16228e-18
-8.64098e-17
-1.12428e-16
-8.51412e-17
7.44798e-17
7.53435e-17
-1.01867e-18
-2.1361e-17
2.37248e-17
4.926e-16
-5.57203e-16
0
0
-1.82155e-16
0
0
0
1.12654e-16
0
0
8.00122e-17
2.45969e-18
2.6445e-17
-6.55419e-17
0
3.48678e-17
1.41736e-17
0
-3.1294e-16
5.96649e-16
0
0
1.87594e-16
0
-6.52597e-17
6.51938e-17
-1.14665e-16
4.61575e-17
-4.64951e-17
0
6.6643e-17
7.10984e-17
0
-4.08742e-17
-3.56035e-17
-1.24652e-17
7.91273e-16
-3.6519e-16
0
-2.32196e-16
2.29598e-16
0
1.5179e-16
0
0
0
4.05841e-17
-4.07786e-17
0
-5.18398e-17
-1.43611e-17
0
6.93806e-18
2.25366e-17
0
-2.00948e-16
0
0
2.33129e-16
-4.26007e-16
2.93965e-17
1.13769e-17
-5.81418e-17
8.65146e-18
3.49042e-18
-4.18696e-17
-6.35341e-17
0
4.73173e-17
-1.00281e-17
1.01786e-17
2.91805e-17
-1.79193e-17
-7.93997e-18
1.56673e-16
-2.28399e-17
1.50935e-16
4.91158e-16
-3.54011e-17
-1.94345e-16
0
0
0
8.66032e-17
3.24414e-17
1.14604e-16
-2.75163e-17
-4.64708e-17
-2.57441e-17
-1.4994e-17
6.77271e-18
-1.50266e-17
7.49474e-18
-1.79928e-16
1.76712e-16
-3.20737e-16
-4.85615e-16
4.40157e-16
1.59849e-16
-2.88272e-16
2.35903e-16
-1.92669e-16
5.06797e-17
3.53799e-17
-3.12764e-17
1.75748e-17
-1.66405e-17
4.98614e-17
0
-3.86656e-18
2.92145e-17
-4.38735e-18
-1.19836e-15
5.40546e-16
4.09917e-19
-1.04897e-16
1.87798e-17
1.55201e-16
-2.90533e-16
-1.10996e-16
8.89704e-17
-7.08864e-17
-5.68071e-17
0
-5.97829e-17
-1.74149e-17
-2.95437e-17
-1.74107e-17
1.3601e-18
-1.69348e-17
7.54636e-19
1.95835e-16
-1.69579e-16
2.04805e-19
-1.21353e-16
-2.84859e-16
2.6402e-16
1.4523e-18
1.08165e-16
-8.66244e-17
1.35172e-16
3.11426e-17
2.39539e-17
6.79275e-17
0
5.2759e-17
2.40926e-17
0
8.76974e-18
5.85979e-19
0
1.64512e-16
1.20012e-16
-2.55181e-16
2.75533e-16
-3.99856e-16
2.71041e-16
9.16088e-17
-1.85641e-17
-1.35233e-16
2.18988e-17
-2.17907e-17
-5.99845e-17
2.21681e-17
-1.14958e-17
-2.30148e-17
9.35632e-18
-5.88325e-18
2.62168e-18
-1.82271e-16
5.91057e-16
-4.43067e-16
2.25275e-16
0
0
-4.91551e-17
1.07921e-16
-6.69357e-17
1.22997e-16
0
0
3.92665e-17
-3.30038e-17
-2.13106e-17
6.76452e-18
-7.34501e-18
3.96885e-18
0
1.976e-17
1.70534e-16
-1.28718e-16
-1.08571e-16
-1.61745e-16
-4.22363e-17
7.03941e-17
0
-6.20156e-17
-4.57683e-17
3.96786e-17
-2.98378e-17
2.23464e-17
0
8.3663e-18
1.47557e-17
0
0
0
-1.91121e-17
2.53835e-16
8.65926e-17
-3.29564e-16
8.47131e-17
6.91418e-17
0
0
5.75635e-17
-3.04236e-17
-3.83779e-17
2.88586e-17
-2.16106e-17
0
-4.82139e-18
3.68412e-18
0
-3.13833e-18
-1.11406e-18
-1.41391e-16
4.15064e-16
-4.89109e-16
-1.80154e-16
9.65377e-17
-6.42168e-17
5.03707e-17
0
-2.94587e-17
2.31433e-17
0
0
7.80506e-18
-7.81405e-18
2.03166e-18
-3.04534e-18
4.2681e-18
7.18341e-19
8.41016e-19
7.51663e-17
-6.54536e-17
3.16897e-16
-2.02808e-16
-7.54749e-17
1.26693e-17
1.06346e-16
3.59231e-17
2.81876e-17
0
1.30085e-17
-1.18879e-17
8.65907e-18
-6.77209e-18
7.52595e-18
-1.24494e-17
-3.3141e-18
2.83705e-18
7.1334e-19
1.96621e-16
-2.01686e-16
0
1.60233e-16
-8.6564e-17
-5.74024e-17
3.34962e-17
-1.12102e-16
0
-2.03846e-18
-1.60027e-17
-1.01081e-17
1.30585e-17
-1.31475e-18
-7.2737e-18
5.03386e-18
0
1.60011e-18
-6.92647e-19
3.47744e-16
-5.85898e-17
2.3368e-16
-1.82103e-16
8.7704e-17
1.27652e-18
-9.44797e-17
-2.72905e-17
4.7214e-17
-2.61012e-18
-2.19099e-17
1.74716e-17
-7.21928e-18
-8.19503e-18
0
0
0
-1.61343e-18
5.81578e-20
-3.01612e-16
2.916e-16
2.07868e-19
3.96808e-17
3.20608e-17
-7.01492e-17
7.85081e-17
-5.91401e-17
4.67247e-17
-1.30361e-17
2.42918e-17
7.50633e-18
-2.97342e-18
1.41978e-19
-8.00508e-19
-1.41519e-18
0
0
0
0
0
1.30113e-16
-7.18917e-17
-1.86858e-16
0
0
-1.71702e-17
-2.49815e-17
1.91226e-17
0
-9.46685e-18
6.63949e-18
-1.96881e-17
2.20739e-17
-6.35432e-18
6.72367e-18
6.9184e-19
0
-5.83521e-17
5.90703e-17
0
-4.25102e-17
4.26541e-17
6.46897e-17
0
1.73341e-17
1.86806e-17
-8.79036e-17
0
-1.10235e-17
7.80547e-18
4.91545e-18
-3.35264e-18
4.64078e-18
0
-1.54119e-18
0
-3.00386e-17
-2.88658e-17
1.70585e-18
4.36781e-17
-1.10671e-16
0
-2.48908e-17
0
5.89999e-17
2.13998e-17
0
4.36896e-17
-4.2785e-17
5.02554e-18
-7.07041e-18
2.93578e-18
9.00735e-18
3.09384e-18
-2.45431e-18
0
6.10603e-17
-5.02898e-17
6.18179e-17
6.87031e-17
0
4.99858e-17
-4.58719e-17
-3.19988e-17
4.29688e-17
-6.39431e-17
-2.74883e-17
0
0
4.50711e-18
0
0
1.11786e-18
0
-2.75692e-16
2.12722e-16
0
4.26207e-18
-3.92928e-17
-2.04129e-18
3.21579e-17
1.99028e-17
-2.72288e-17
-5.81842e-17
8.37102e-17
-2.31651e-17
0
-8.85633e-18
0
0
0
-4.35951e-18
3.49529e-18
-7.91613e-17
7.19517e-17
1.83149e-16
-1.76301e-16
5.19579e-17
3.72212e-18
-3.2614e-17
2.6261e-17
4.15347e-17
2.90392e-17
-5.69635e-17
0
2.38399e-17
1.28653e-18
-1.01401e-17
-1.96058e-17
1.58596e-17
-2.17807e-18
4.30644e-18
-2.72201e-16
3.70034e-16
-3.64299e-16
6.09135e-17
4.86292e-17
-4.51187e-17
3.67909e-17
-2.68385e-17
0
-2.03034e-17
2.91642e-17
1.25029e-17
1.89863e-17
2.11103e-17
-3.09388e-17
-1.05439e-18
0
-1.85672e-18
6.33234e-19
-2.94268e-16
-8.39057e-17
-1.4022e-16
7.6088e-17
-1.14692e-16
9.46029e-17
-5.49988e-17
4.32187e-17
-4.0302e-18
-3.9249e-18
-3.21604e-17
1.9819e-17
-8.65956e-18
2.74271e-17
-2.94433e-17
2.7617e-18
2.84045e-18
0
-1.13661e-18
3.18168e-16
-9.08403e-17
0
0
-1.17808e-16
2.25725e-16
-5.10587e-17
-8.94026e-18
7.0766e-17
-1.98489e-18
0
0
-1.3232e-17
0
-2.65932e-17
6.22837e-17
-4.24405e-17
0
4.8233e-19
1.0727e-16
1.95601e-16
0
-7.8934e-17
-6.01889e-17
-4.99318e-17
-5.34613e-17
2.06606e-17
-5.62356e-17
-2.87648e-17
0
0
1.98988e-17
0
0
-3.76954e-17
6.26183e-17
0
0
7.36526e-16
-9.46667e-17
-4.302e-16
-2.21132e-16
3.01114e-16
9.11442e-17
5.18374e-17
0
-1.7606e-17
1.60424e-17
4.02478e-17
-1.26954e-17
-1.74614e-17
2.66883e-17
-2.83881e-17
-8.07591e-18
0
0
0
5.89801e-17
-4.51389e-16
4.41343e-16
-4.08774e-17
-3.03305e-16
4.675e-16
-2.30958e-16
0
0
1.09148e-16
-8.84023e-17
0
-2.45687e-17
4.33242e-17
-4.46869e-18
1.22452e-17
3.63901e-18
4.8062e-20
7.68962e-19
0
0
0
3.55574e-16
-2.39201e-16
2.37312e-16
-3.66829e-16
1.02471e-16
0
-3.43645e-17
5.2991e-17
-5.41599e-17
-1.00897e-17
1.27205e-19
-6.64632e-18
-8.79035e-19
-5.30956e-18
-1.51584e-18
-8.14074e-19
4.90081e-16
-8.65283e-16
4.05863e-16
0
1.01652e-16
-1.38959e-16
1.32603e-16
-1.05032e-16
0
-4.74863e-17
6.66125e-17
0
0
1.28553e-19
0
-7.23782e-18
4.91551e-18
8.15896e-19
1.31116e-18
4.84487e-16
0
-1.82233e-16
2.03336e-16
-1.21994e-16
2.64212e-16
-1.23361e-16
-9.21214e-17
9.30835e-17
-9.20343e-18
0
0
5.60421e-18
-9.13834e-18
-6.39711e-18
1.20542e-17
-2.60667e-18
1.30036e-18
0
2.74789e-16
2.07641e-16
-1.08193e-17
-1.9442e-16
-1.89973e-17
-1.33018e-16
1.68109e-17
1.09271e-16
-5.48368e-18
9.37625e-18
0
0
-5.74114e-18
0
6.6542e-18
-7.1184e-18
0
9.06648e-19
-2.49681e-19
-1.45792e-16
-1.04284e-16
9.77214e-17
-1.08558e-17
-4.77873e-18
1.26227e-17
0
-3.20346e-18
4.65818e-17
-3.92231e-17
0
1.26523e-17
-2.60917e-18
-1.10387e-17
-9.9931e-19
-7.74881e-19
0
-7.10222e-19
0
5.86834e-17
-1.10706e-16
-5.28128e-19
4.63014e-17
4.07753e-17
-4.04148e-17
-2.75323e-17
3.11245e-17
-1.029e-17
8.07892e-18
-7.5695e-18
7.80297e-18
0
1.93532e-20
-7.38102e-19
2.64453e-18
-9.01016e-21
0
0
5.86854e-17
-5.84655e-17
-4.60571e-17
4.08603e-17
7.19543e-17
-7.23791e-17
-1.37667e-17
1.38005e-17
-1.03779e-17
1.04865e-17
-7.56987e-18
1.4198e-17
-3.98265e-18
-2.81451e-18
-8.50696e-19
2.84973e-19
6.70028e-19
1.7651e-19
-1.32311e-19
0
-1.37947e-17
8.00561e-17
-8.69432e-17
7.17117e-17
-6.36794e-17
0
4.75358e-17
-4.26011e-17
0
1.49968e-17
-1.89412e-17
-1.05342e-17
1.10406e-17
1.9899e-18
0
0
-7.10408e-19
2.57727e-19
2.3337e-16
-4.26188e-16
4.2688e-16
-3.67469e-16
1.43204e-16
-1.16355e-16
1.10661e-16
1.26449e-17
-4.59278e-17
4.09737e-17
0
-2.81826e-17
2.57094e-17
-4.74851e-18
-1.9491e-18
2.99213e-18
2.188e-18
6.8967e-19
-2.49023e-19
5.45719e-16
0
-2.0642e-16
1.60572e-16
1.87792e-17
-1.39514e-16
2.44428e-16
-2.12016e-16
8.24036e-17
-3.36719e-17
3.44662e-17
6.68365e-18
1.10912e-17
4.6251e-18
-3.70905e-18
-5.27788e-19
-4.71817e-18
0
4.66869e-19
4.29668e-16
-4.83673e-16
0
4.22143e-17
1.75928e-16
-1.71432e-16
2.81165e-17
2.42681e-17
1.04698e-17
1.77389e-17
0
0
-1.92091e-17
3.52589e-17
-1.27585e-17
-4.49188e-18
4.91785e-18
3.89236e-19
-8.81671e-19
4.85364e-17
4.251e-16
-4.75057e-17
-3.13816e-16
2.75898e-16
3.18032e-17
-2.75171e-17
-2.37027e-17
7.45766e-17
-9.24157e-17
5.3015e-17
-5.41838e-17
7.88792e-18
-1.05635e-17
1.81278e-17
-1.21532e-17
0
0
8.17878e-19
0
1.05255e-16
-3.04986e-16
3.49211e-16
-2.67771e-16
2.67133e-16
0
8.46999e-17
-8.5088e-17
-6.02708e-17
8.84833e-17
0
3.42746e-17
-4.33661e-17
-6.33406e-18
0
-6.71273e-19
-1.24256e-18
-7.72831e-20
-1.02038e-15
4.81012e-16
0
-3.01079e-16
3.01049e-16
1.74066e-16
-1.14073e-16
4.41089e-17
0
-1.84357e-18
1.23537e-17
-1.26814e-17
-1.74438e-17
2.66591e-17
-2.83475e-17
0
5.55548e-18
-1.01367e-18
-7.74363e-19
6.23043e-16
-6.08309e-16
0
7.82698e-17
6.88063e-17
-6.14596e-17
0
-4.62265e-17
-3.72539e-17
0
-2.66869e-18
0
1.99138e-17
0
0
7.59872e-18
2.80233e-17
-3.66194e-17
0
3.92478e-20
9.08861e-17
-8.13041e-17
6.19e-17
-3.16758e-16
1.18768e-16
0
8.94837e-18
2.50644e-17
0
-2.36841e-17
6.30259e-17
-6.62123e-17
1.00786e-17
0
-1.63637e-18
0
0
0
5.18493e-20
0
7.51454e-17
0
-1.0564e-16
1.07319e-16
0
3.36703e-17
-2.53259e-17
8.86041e-17
-4.20389e-17
1.36205e-17
-2.07376e-17
1.83364e-17
-2.94936e-17
-4.55421e-18
0
-2.42183e-18
0
2.3953e-16
-4.05786e-16
0
-6.05445e-17
5.19695e-17
0
0
-6.0773e-17
0
-2.03235e-17
-2.91957e-17
-1.25185e-17
1.9013e-17
0
8.39494e-18
0
0
5.13352e-18
-5.47801e-18
0
3.42535e-16
-2.7327e-16
5.60504e-17
-4.8124e-17
-1.8192e-17
5.11197e-17
5.37547e-17
-6.03775e-17
1.92585e-17
2.37204e-18
-1.4511e-17
5.82104e-17
-1.7897e-17
-3.6954e-17
1.21766e-17
-2.74978e-18
1.67389e-18
-4.4951e-19
-5.78841e-16
2.12774e-16
0
0
1.97771e-17
-2.01111e-17
1.22724e-17
6.44103e-18
5.32656e-17
2.48254e-17
-2.3762e-17
-1.63905e-18
-1.11238e-17
8.86841e-18
0
3.5783e-18
2.52038e-18
1.21197e-18
4.06294e-19
0
1.79588e-16
-1.6247e-16
5.10494e-17
4.85712e-17
-9.19813e-18
-2.71788e-17
-2.1671e-17
-6.59033e-17
2.41836e-17
-1.23061e-17
1.85987e-17
1.04021e-17
-1.13163e-17
1.20115e-17
6.47751e-18
-8.75433e-18
-1.11944e-18
0
-3.32805e-17
-1.43776e-16
4.93662e-17
4.36914e-17
-1.40997e-16
9.82751e-17
4.32168e-17
-4.41742e-17
3.03738e-17
-2.29514e-17
0
0
-1.40135e-17
2.43376e-17
-1.02327e-17
8.35501e-18
-9.19201e-18
1.38769e-18
-2.45762e-18
6.16803e-17
5.59115e-17
-4.88065e-17
3.43844e-17
-4.24441e-17
-5.75527e-17
0
0
0
0
0
0
7.11057e-18
-1.68832e-17
1.78558e-17
-5.04952e-18
6.27413e-18
2.73228e-18
-2.29689e-18
1.29225e-16
-2.06873e-16
2.57805e-16
-1.08964e-16
1.52137e-16
-9.73927e-17
1.75951e-16
-9.43587e-17
-4.31031e-17
4.40925e-17
0
9.46172e-18
-6.94666e-18
1.48951e-17
-5.74295e-18
-6.30082e-18
-1.16488e-17
9.30856e-19
1.92523e-18
2.01904e-16
5.54237e-17
0
-7.91253e-17
-5.72567e-17
1.27058e-16
9.10003e-18
-4.43883e-17
2.51496e-17
-1.57344e-17
0
-7.49002e-18
0
-5.10459e-18
3.92336e-18
-3.27257e-18
-1.05032e-18
6.88616e-19
0
2.80903e-16
-5.85889e-17
2.33658e-16
-1.82198e-16
-3.38751e-17
1.22158e-16
-7.31145e-17
4.53621e-18
3.44052e-18
-1.53863e-17
1.44376e-17
0
0
6.48728e-18
-2.00306e-18
1.19057e-18
3.80088e-18
-1.31852e-18
0
5.55602e-20
0
-5.27113e-17
2.92205e-16
-1.94585e-16
-1.87366e-16
1.01707e-16
-9.24821e-17
8.35976e-17
3.71765e-17
-2.55594e-17
9.69157e-18
-8.25566e-18
1.68484e-18
1.13872e-17
1.54153e-19
-3.73204e-18
3.65328e-18
-7.68301e-19
6.74705e-16
-2.13179e-16
9.40921e-17
-2.95562e-16
7.54746e-17
-1.09605e-16
6.0489e-17
0
0
-2.14628e-18
-3.17364e-18
-9.26563e-19
0
-1.06542e-17
-7.5262e-18
5.20164e-18
-3.71596e-19
7.96784e-19
1.5793e-18
0
-2.07754e-16
3.35346e-16
6.43768e-17
-2.58177e-16
6.42167e-17
-9.07898e-17
2.00176e-17
6.91117e-17
0
0
1.18535e-18
1.06937e-17
0
-8.17508e-18
-3.4538e-18
5.19279e-19
-1.61315e-18
-1.97038e-18
0
-1.26654e-16
3.72867e-17
2.2604e-16
1.53943e-16
-2.76405e-16
1.22029e-16
-7.53362e-17
4.13146e-17
-5.06072e-17
0
0
0
-1.61194e-17
3.40788e-18
-4.8451e-18
0
-2.84626e-19
1.40369e-18
-5.03418e-16
4.72936e-16
4.76632e-16
-5.76178e-16
2.50149e-16
-2.3199e-16
0
8.03884e-17
-1.07186e-16
5.88692e-17
-4.20501e-17
3.20734e-17
2.4408e-17
1.6671e-17
1.24177e-17
0
0
0
0
5.66356e-16
-3.15789e-16
0
0
-9.33606e-17
2.12884e-16
-1.3535e-16
-8.59873e-17
8.5018e-17
5.68512e-17
8.97722e-17
-3.32793e-17
1.39456e-17
9.71403e-18
6.72981e-18
5.69959e-18
9.00471e-18
-4.33725e-19
4.41787e-19
-5.69628e-16
5.14765e-16
2.59968e-16
-1.37406e-16
2.75157e-16
-1.75438e-16
-1.28773e-16
-1.02914e-16
0
-1.20189e-16
7.92041e-18
3.97417e-17
-2.86712e-17
-2.21683e-17
-7.98455e-18
-7.88131e-18
-6.34196e-18
0
0
-1.95965e-16
0
1.44049e-16
-6.00863e-20
0
0
1.32834e-16
1.06192e-16
0
6.62137e-17
0
-6.01643e-17
-1.6482e-17
2.86203e-17
0
1.81069e-17
-2.50952e-18
2.56005e-18
0
4.21766e-16
0
2.72913e-16
-4.9784e-16
4.30955e-16
3.25461e-16
-1.37699e-17
0
1.00068e-17
8.07531e-17
0
-7.06805e-17
7.54028e-17
-6.624e-17
-1.42454e-17
-1.43742e-17
-4.46734e-18
-8.43739e-19
-3.34693e-18
-3.83519e-16
5.50072e-16
-1.49873e-16
-3.78651e-16
-2.10712e-16
-1.74238e-16
-2.86448e-16
-1.06667e-16
1.16122e-17
3.54465e-17
-3.53799e-17
1.06178e-16
-4.65854e-17
9.03153e-17
-1.6847e-17
0
2.08001e-17
-1.27613e-17
3.29882e-18
8.67382e-16
-2.29241e-17
-6.23802e-16
4.91161e-16
-4.28548e-16
3.57907e-16
-1.49604e-17
-1.23809e-16
1.03429e-16
3.85219e-17
-6.07056e-18
-8.92356e-17
2.45081e-17
2.95645e-17
-8.28908e-18
8.38362e-18
-2.15438e-17
-3.71269e-18
-6.11954e-18
4.25807e-16
1.73763e-16
2.96612e-16
-2.51419e-16
-1.95995e-16
1.43652e-17
-1.38199e-16
3.31584e-16
1.43859e-17
1.4264e-16
8.14753e-17
-7.12457e-17
0
-4.73172e-17
0
0
3.5175e-17
1.49024e-17
7.07227e-18
3.94788e-16
0
2.91935e-16
2.49797e-16
-2.13668e-16
1.79521e-16
0
-1.28864e-16
-1.74887e-16
-1.47129e-16
-8.21964e-17
7.20513e-17
0
0
0
0
-3.30484e-17
-2.73999e-17
0
-7.73253e-16
0
-1.91691e-17
-1.70884e-17
3.27627e-16
-1.74665e-16
-7.82469e-17
-7.89176e-17
1.80598e-16
0
4.61571e-17
-4.76112e-18
4.47365e-17
0
0
6.12455e-17
-4.62286e-18
3.29457e-17
-1.38386e-17
5.41024e-16
1.50304e-16
-1.48753e-16
-1.26922e-16
-4.21102e-16
2.81326e-16
3.29911e-16
-1.25968e-17
-1.25505e-16
1.27506e-16
2.61821e-17
-1.36359e-16
-1.08414e-16
-7.16589e-17
-7.68573e-17
-7.07418e-17
6.39872e-17
-2.97875e-18
1.41737e-17
-1.64515e-16
7.28308e-17
-3.47344e-16
5.67266e-17
-5.65202e-17
0
-1.65507e-16
-1.65668e-17
-1.53806e-16
1.87976e-17
1.50325e-16
1.06807e-16
-2.73363e-17
6.08776e-18
7.27526e-17
0
-1.36592e-16
-5.23971e-17
-1.07715e-18
3.40127e-16
-8.90916e-18
5.46794e-16
-2.55321e-16
6.52636e-19
6.52066e-18
1.93732e-16
-2.08709e-17
1.49166e-16
-1.39378e-16
-1.31694e-16
0
1.41951e-16
1.1017e-16
1.61894e-18
-2.36771e-18
7.54136e-17
5.32479e-17
0
-2.40644e-16
0
-5.22209e-17
2.44762e-16
4.39525e-18
5.48714e-17
-1.87336e-16
1.75548e-16
1.92554e-16
1.85218e-16
1.79453e-16
0
-1.37902e-16
0
7.7953e-18
-8.09611e-18
0
-8.07726e-19
4.03249e-17
1.6983e-16
1.13281e-17
-1.25583e-16
3.91716e-16
-1.24401e-16
0
0
-2.24026e-16
-1.86566e-16
-1.79434e-16
-3.34813e-16
-4.70115e-17
0
0
0
-1.65876e-17
1.75539e-17
1.14509e-16
-4.09503e-17
1.18743e-17
0
-2.78898e-16
-2.4874e-16
2.6476e-16
-2.63526e-16
-3.74769e-16
4.51482e-16
1.30677e-16
0
2.00866e-16
2.36284e-16
-5.10031e-17
2.80225e-16
-4.61327e-17
4.80129e-17
1.89189e-16
-1.08819e-16
0
-3.23271e-16
0
-3.06546e-16
2.992e-16
0
5.27546e-16
2.45448e-16
-5.23324e-16
4.25694e-16
-2.28774e-18
-1.27329e-16
-2.28772e-16
0
3.27356e-16
-5.45205e-16
5.8631e-16
-7.47479e-16
0
0
3.22572e-16
-2.7727e-18
-6.7958e-18
-6.07546e-16
6.15966e-16
-2.95893e-16
2.94687e-16
2.90526e-16
-2.50667e-16
0
0
4.90217e-16
-4.98662e-16
-5.28101e-16
5.2502e-16
-5.12613e-16
5.55366e-16
-8.70864e-16
0
)
;

boundaryField
{
    up
    {
        type            calculated;
        value           nonuniform List<scalar> 
84
(
0
0
0
0
-2.89934e-17
5.17548e-17
-2.1361e-17
1.41736e-17
-1.24652e-17
0
-7.93997e-18
7.49474e-18
-4.38735e-18
7.54636e-19
5.85979e-19
2.62168e-18
0
0
-1.11406e-18
8.41016e-19
7.1334e-19
-6.92647e-19
5.81578e-20
0
2.68406e-19
1.49955e-19
-2.29099e-18
0
3.49529e-18
4.61642e-18
6.33234e-19
-1.13661e-18
4.8233e-19
0
-2.20781e-19
7.85645e-19
-8.06755e-19
1.30476e-18
0
-2.48228e-19
0
0
-1.32239e-19
2.57727e-19
-2.49023e-19
4.66869e-19
-8.81671e-19
8.17878e-19
-7.72831e-20
-7.74363e-19
0
0
0
-5.47801e-18
-7.60019e-19
4.06294e-19
0
-2.45762e-18
-2.29689e-18
1.65759e-18
0
0
-7.68301e-19
1.5793e-18
-1.97038e-18
1.40369e-18
0
4.41787e-19
0
0
-3.34693e-18
3.29882e-18
-6.11954e-18
7.07227e-18
0
-1.38386e-17
1.41737e-17
-1.07715e-18
0
4.03249e-17
-4.09503e-17
0
0
0
)
;
    }
    low
    {
        type            calculated;
        value           nonuniform List<scalar> 
84
(
-6.46014e-16
6.4236e-16
-3.10364e-16
4.94747e-16
8.74009e-17
-2.27158e-17
1.8983e-16
2.51014e-17
0
7.92869e-16
-2.00948e-16
1.55745e-16
-1.79928e-16
-1.1985e-15
1.95835e-16
0
-1.82271e-16
1.976e-17
-1.91121e-17
-1.41391e-16
7.51663e-17
1.96621e-16
3.46183e-16
-3.01612e-16
0
-5.83521e-17
-3.00386e-17
0
-2.75692e-16
-7.91613e-17
-2.71257e-16
-2.93568e-16
3.17755e-16
1.0727e-16
7.36713e-16
5.89801e-17
0
4.90081e-16
4.85795e-16
2.75488e-16
-1.4616e-16
5.86834e-17
5.86854e-17
0
2.3337e-16
5.47027e-16
4.29668e-16
4.94963e-17
0
-1.02057e-15
6.23043e-16
3.92478e-20
5.18493e-20
2.3953e-16
0
-5.77193e-16
0
-3.32805e-17
6.16803e-17
1.28227e-16
2.00191e-16
2.79342e-16
5.55602e-20
6.73494e-16
0
0
-5.03418e-16
5.65887e-16
-5.69372e-16
-1.95965e-16
4.21907e-16
-3.83519e-16
8.69237e-16
4.27065e-16
3.94788e-16
-7.73253e-16
5.39647e-16
-1.6306e-16
3.40127e-16
-2.40042e-16
1.6983e-16
1.29962e-17
-3.23271e-16
3.22879e-16
)
;
    }
    left
    {
        type            calculated;
        value           nonuniform List<scalar> 
19
(
-6.45402e-16
-3.11946e-16
3.19039e-16
9.11854e-18
-6.01804e-16
0
-2.77101e-16
-2.73284e-16
-2.2401e-17
-1.45723e-16
-1.10789e-18
-1.45597e-16
6.51655e-16
-1.44691e-16
6.74734e-16
5.83333e-16
3.47272e-16
5.10149e-16
0
)
;
    }
    right
    {
        type            calculated;
        value           nonuniform List<scalar> 
19
(
3.22572e-16
-2.46935e-18
-6.7958e-18
-6.07581e-16
6.16215e-16
-2.95893e-16
2.94687e-16
2.90526e-16
-2.49648e-16
0
0
4.94801e-16
-5.05045e-16
-5.28101e-16
5.2502e-16
-5.12613e-16
5.55366e-16
-9.41653e-16
0
)
;
    }
    frontAndBackPlanes
    {
        type            empty;
    }
}


// ************************************************************************* //
