/*--------------------------------*- C++ -*----------------------------------*\
  =========                 |
  \\      /  F ield         | OpenFOAM: The Open Source CFD Toolbox
   \\    /   O peration     | Website:  https://openfoam.org
    \\  /    A nd           | Version:  7
     \\/     M anipulation  |
\*---------------------------------------------------------------------------*/
FoamFile
{
    version     2.0;
    format      ascii;
    class       volScalarField;
    location    "0.29";
    object      gradTz;
}
// * * * * * * * * * * * * * * * * * * * * * * * * * * * * * * * * * * * * * //

dimensions      [0 -1 0 1 0 0 0];

internalField   nonuniform List<scalar> 
1596
(
-4.84111e-16
-2.35781e-16
2.39096e-16
4.76383e-18
-4.56711e-16
0
-2.13998e-16
-2.11004e-16
-1.33711e-17
-1.10818e-16
-1.05659e-18
-1.10138e-16
4.83954e-16
-1.08815e-16
5.08698e-16
4.38781e-16
2.60939e-16
3.29408e-16
0
4.84176e-16
0
6.85134e-16
-4.44493e-18
-2.1102e-16
2.09307e-16
4.2986e-16
1.26867e-17
2.0395e-16
-9.81558e-17
1.95764e-16
-3.07337e-18
-2.71384e-16
-1.69367e-16
-4.11334e-16
-4.01111e-16
-3.64797e-16
2.0756e-16
0
-2.38028e-16
0
-4.48262e-16
7.06304e-18
4.1335e-16
-1.14946e-16
8.26712e-18
-2.88938e-18
-2.98416e-18
-3.21052e-18
7.50768e-17
0
1.40794e-16
3.99759e-16
-3.93661e-17
3.15915e-17
7.43488e-17
1.15819e-16
0
3.73146e-16
-1.13058e-16
1.12645e-16
0
-1.0863e-16
-1.12043e-16
1.92603e-16
-1.69497e-16
0
0
-5.92734e-17
3.91787e-17
0
-1.17972e-16
-1.50804e-16
1.04074e-16
-1.06357e-16
-5.47601e-18
0
6.50996e-17
1.74744e-16
-1.58897e-16
0
-4.7277e-17
-1.43584e-16
0
2.15482e-16
-2.15274e-17
-1.94856e-17
-1.73826e-17
1.12615e-16
1.37836e-16
1.41249e-17
4.13744e-18
-1.12539e-16
5.67841e-18
5.20698e-17
-2.23325e-17
-1.69053e-17
-2.39964e-16
2.29641e-16
-2.02142e-16
-3.92828e-19
-1.80755e-16
5.10684e-18
-5.12379e-18
-1.4399e-16
0
-1.43122e-17
-1.33052e-16
-1.24563e-16
1.01826e-16
1.04338e-16
-1.42734e-18
-6.25357e-17
-5.28137e-17
4.0328e-17
1.41281e-16
-2.4483e-16
2.76862e-16
1.55744e-16
0
1.38583e-16
8.2167e-17
-3.96558e-17
1.82798e-16
-3.44708e-17
-1.45072e-16
1.35563e-18
-8.64919e-17
-1.02321e-16
-8.04634e-17
6.81443e-17
6.30861e-17
-8.40552e-19
-1.6856e-17
1.29475e-17
3.884e-16
-4.61345e-16
0
0
-1.73256e-16
0
0
0
1.21678e-16
0
0
7.91997e-17
3.05708e-18
2.07292e-17
-5.95014e-17
0
3.16726e-17
1.22767e-17
0
-2.53302e-16
4.88421e-16
0
0
1.7843e-16
0
-6.93247e-17
6.92546e-17
-1.23851e-16
5.18946e-17
-5.22742e-17
0
7.55357e-17
7.23347e-17
0
-4.17861e-17
-3.23674e-17
-1.07114e-17
6.03095e-16
-2.83376e-16
0
-2.06343e-16
2.04034e-16
0
1.54878e-16
0
0
0
4.84229e-17
-4.8655e-17
0
-5.82651e-17
-1.67799e-17
0
4.01668e-18
2.39713e-17
0
-1.53074e-16
0
0
2.0691e-16
-3.8793e-16
1.84207e-17
7.17567e-18
-6.46935e-17
6.79849e-18
2.17874e-18
-5.11008e-17
-8.30429e-17
0
6.28368e-17
-1.24307e-17
1.26173e-17
3.2447e-17
-1.87685e-17
-8.69841e-18
1.29331e-16
-1.26452e-17
1.24097e-16
4.2915e-16
-2.12702e-17
-1.82095e-16
0
0
0
1.05323e-16
4.27287e-17
1.5456e-16
-3.73434e-17
-6.17127e-17
-3.72444e-17
-2.0066e-17
8.91805e-18
-1.93452e-17
8.28757e-18
-1.41822e-16
1.38896e-16
-2.57892e-16
-4.23942e-16
3.94586e-16
1.59188e-16
-2.95956e-16
2.58897e-16
-2.26158e-16
5.88816e-17
4.58419e-17
-4.15787e-17
2.77731e-17
-2.47357e-17
7.20694e-17
0
-5.41381e-18
3.97588e-17
-5.89889e-18
-9.12337e-16
4.20809e-16
3.55409e-19
-9.53983e-17
1.11771e-17
1.54753e-16
-2.94939e-16
-1.23475e-16
1.06669e-16
-9.16442e-17
-7.89583e-17
0
-9.08268e-17
-2.71063e-17
-4.88676e-17
-2.90787e-17
2.29177e-18
-2.53072e-17
4.81836e-19
1.49113e-16
-1.33777e-16
2.98441e-19
-1.04593e-16
-2.64511e-16
2.50249e-16
8.93865e-19
1.20327e-16
-1.03856e-16
1.76084e-16
4.17722e-17
3.4802e-17
1.08674e-16
0
9.09588e-17
4.18018e-17
0
1.39325e-17
4.09798e-19
0
1.29779e-16
1.03802e-16
-2.14875e-16
2.5641e-16
-3.87725e-16
2.76774e-16
1.06812e-16
-1.45447e-17
-1.74113e-16
3.26347e-17
-3.24737e-17
-1.00046e-16
4.02338e-17
-1.98677e-17
-4.21515e-17
1.84286e-17
-1.14095e-17
4.37895e-18
-1.38915e-16
4.76639e-16
-3.54624e-16
1.95851e-16
0
0
-5.54548e-17
1.17497e-16
-8.5883e-17
1.62105e-16
0
0
6.78948e-17
-5.96343e-17
-4.29023e-17
1.35027e-17
-1.43282e-17
7.50429e-18
0
1.05355e-17
1.29901e-16
-1.06364e-16
-9.39169e-17
-1.54122e-16
-5.19409e-17
6.98114e-17
0
-8.09673e-17
-6.69326e-17
6.05341e-17
-5.00569e-17
4.10748e-17
0
1.63101e-17
3.25115e-17
0
0
0
-1.00671e-17
2.10943e-16
8.2252e-17
-2.82906e-16
7.92167e-17
6.86153e-17
0
0
7.66907e-17
-3.98815e-17
-5.85496e-17
4.84142e-17
-3.97224e-17
0
-1.08931e-17
9.48807e-18
0
-7.93403e-18
-2.762e-18
-1.12226e-16
3.29334e-16
-4.02015e-16
-1.63441e-16
8.53275e-17
-6.51682e-17
5.54301e-17
0
-3.89132e-17
3.28836e-17
0
0
1.58855e-17
-1.59038e-17
4.87047e-18
-6.31222e-18
1.1457e-17
1.30421e-18
2.04943e-18
5.73348e-17
-5.20418e-17
2.6932e-16
-1.74098e-16
-7.17825e-17
8.66868e-18
1.13561e-16
4.40737e-17
3.72341e-17
0
2.24556e-17
-2.08515e-17
1.68259e-17
-1.44166e-17
1.90158e-17
-3.29126e-17
-8.91841e-18
7.79847e-18
2.09492e-18
1.54087e-16
-1.55889e-16
0
1.47353e-16
-7.73465e-17
-5.89697e-17
4.20429e-17
-1.33655e-16
0
-2.30777e-18
-2.56531e-17
-1.88878e-17
2.80364e-17
-2.06829e-18
-1.83785e-17
1.3715e-17
0
5.05422e-18
-2.03415e-18
2.61654e-16
-4.66348e-17
2.0076e-16
-1.57407e-16
8.87963e-17
1.12181e-17
-1.02937e-16
-3.6207e-17
6.56802e-17
-2.61928e-18
-3.99548e-17
3.40818e-17
-1.50445e-17
-2.02431e-17
0
0
0
-5.10285e-18
1.90423e-19
-2.33744e-16
2.2792e-16
1.55868e-19
3.55468e-17
3.09405e-17
-7.59696e-17
9.03811e-17
-7.53874e-17
6.50527e-17
-2.22104e-17
4.23982e-17
1.53946e-17
-6.60123e-18
3.48099e-19
-2.48514e-18
-4.37051e-18
0
0
0
0
0
1.13658e-16
-5.40788e-17
-1.74324e-16
0
0
-2.18594e-17
-3.5923e-17
3.0435e-17
0
-1.94154e-17
1.5305e-17
-5.18555e-17
5.98479e-17
-1.98787e-17
2.11924e-17
2.33746e-18
0
-4.5299e-17
4.58565e-17
0
-3.76465e-17
3.82432e-17
6.42615e-17
0
2.20681e-17
3.0057e-17
-1.33431e-16
0
-2.13676e-17
1.69142e-17
1.23658e-17
-9.30714e-18
1.37231e-17
0
-5.12708e-18
0
-2.32917e-17
-2.33216e-17
1.38172e-18
3.86808e-17
-1.0496e-16
0
-2.76425e-17
0
8.06066e-17
3.31e-17
0
8.46917e-17
-8.97981e-17
8.84694e-18
-2.0747e-17
5.5158e-18
2.62958e-17
1.01026e-17
-8.00022e-18
0
4.82796e-17
-4.28057e-17
5.31998e-17
6.47921e-17
0
5.63754e-17
-5.35379e-17
-4.31237e-17
6.61063e-17
-9.93747e-17
-4.95612e-17
0
0
1.13603e-17
0
0
3.31775e-18
0
-2.13486e-16
1.63766e-16
0
2.35754e-18
-3.79438e-17
-2.11079e-18
3.42519e-17
2.51556e-17
-3.09707e-17
-8.12489e-17
1.31197e-16
-3.5415e-17
0
-1.75954e-17
0
0
0
-1.27946e-17
1.02138e-17
-6.02312e-17
5.67616e-17
1.53144e-16
-1.50187e-16
4.64978e-17
2.47489e-18
-3.48076e-17
3.04009e-17
5.23939e-17
4.0741e-17
-8.06136e-17
0
4.33755e-17
6.69929e-18
-2.01393e-17
-4.50063e-17
3.72042e-17
-6.18131e-18
1.16147e-17
-2.03221e-16
2.95914e-16
-2.93889e-16
5.22431e-17
4.49137e-17
-4.29623e-17
3.63625e-17
-2.93507e-17
0
-2.54777e-17
4.16687e-17
1.81028e-17
2.95025e-17
3.82135e-17
-5.744e-17
-7.92133e-19
0
-4.66659e-18
1.55643e-18
-2.19737e-16
-6.60157e-17
-1.17017e-16
6.19741e-17
-1.02982e-16
9.05373e-17
-5.42432e-17
4.65995e-17
-3.02247e-18
-3.02617e-18
-4.34449e-17
2.54534e-17
-1.48856e-17
4.50855e-17
-4.83998e-17
6.29614e-18
5.20056e-18
0
-2.68227e-18
2.37584e-16
-7.11514e-17
0
0
-1.06118e-16
2.07114e-16
-4.87582e-17
-9.53972e-18
7.9165e-17
-2.02379e-18
0
0
-1.89909e-17
0
-4.19005e-17
1.02316e-16
-7.12171e-17
0
1.05539e-18
8.14761e-17
1.53008e-16
0
-6.59732e-17
-5.4601e-17
-4.89603e-17
-5.06425e-17
2.12789e-17
-5.97786e-17
-3.31187e-17
0
0
2.48026e-17
0
0
-5.63344e-17
9.2742e-17
0
0
5.59091e-16
-6.48622e-17
-3.41077e-16
-1.88114e-16
2.54964e-16
8.21628e-17
4.91042e-17
0
-1.83376e-17
1.79857e-17
4.44488e-17
-1.43953e-17
-2.17645e-17
3.3835e-17
-3.599e-17
-1.12602e-17
0
0
0
4.47726e-17
-3.55771e-16
3.48993e-16
-3.37085e-17
-2.63116e-16
4.1328e-16
-2.08271e-16
0
0
1.13958e-16
-9.38686e-17
0
-2.88215e-17
5.00855e-17
-5.72143e-18
1.4717e-17
4.5116e-18
4.70835e-20
9.89205e-19
0
0
0
2.96397e-16
-1.98656e-16
2.11478e-16
-3.30341e-16
9.44839e-17
0
-3.45448e-17
5.56761e-17
-5.69043e-17
-1.12895e-17
-2.66352e-19
-7.80655e-18
-1.17287e-18
-6.21829e-18
-1.73817e-18
-9.52578e-19
3.75464e-16
-6.71074e-16
3.188e-16
0
8.72125e-17
-1.1876e-16
1.20335e-16
-9.54815e-17
0
-4.72241e-17
6.62157e-17
0
0
-2.00017e-19
0
-7.98485e-18
5.46972e-18
1.02558e-18
1.51643e-18
3.6312e-16
0
-1.46387e-16
1.6354e-16
-1.0372e-16
2.27097e-16
-1.07646e-16
-8.50891e-17
8.59777e-17
-8.79311e-18
0
0
5.69632e-18
-9.69089e-18
-6.7923e-18
1.28945e-17
-2.79159e-18
1.43562e-18
0
2.06203e-16
1.62348e-16
-4.90401e-18
-1.55821e-16
-1.58555e-17
-1.15061e-16
1.20046e-17
9.718e-17
-5.05369e-18
8.95822e-18
0
0
-5.8355e-18
0
6.88206e-18
-7.36216e-18
0
9.43672e-19
-2.61984e-19
-1.09456e-16
-8.14157e-17
7.62249e-17
-8.79279e-18
-3.95925e-18
1.07523e-17
0
-2.86349e-18
4.31711e-17
-3.63572e-17
0
1.24395e-17
-2.4192e-18
-1.10062e-17
-1.00855e-18
-7.87252e-19
0
-7.37336e-19
0
4.48439e-17
-8.54344e-17
-1.2921e-18
3.69457e-17
3.41111e-17
-3.39043e-17
-2.4246e-17
2.74532e-17
-9.50022e-18
7.42644e-18
-7.27354e-18
7.49788e-18
0
1.92773e-20
-7.42482e-19
2.6717e-18
-9.1506e-21
0
0
4.48454e-17
-4.46774e-17
-3.67523e-17
3.25475e-17
6.02712e-17
-6.0627e-17
-1.21234e-17
1.2152e-17
-9.58042e-18
9.68104e-18
-7.27378e-18
1.37429e-17
-3.85435e-18
-2.7856e-18
-8.57419e-19
2.83758e-19
6.78716e-19
1.79603e-19
-1.34706e-19
0
-1.06629e-17
6.40493e-17
-6.93987e-17
6.01918e-17
-5.33365e-17
0
4.30569e-17
-3.84995e-17
0
1.44971e-17
-1.83651e-17
-1.05025e-17
1.10073e-17
2.03345e-18
0
0
-7.37434e-19
2.6806e-19
1.78518e-16
-3.29416e-16
3.37573e-16
-2.97782e-16
1.17322e-16
-1.00762e-16
9.55718e-17
1.14665e-17
-4.29117e-17
3.8354e-17
0
-2.81437e-17
2.56183e-17
-4.89795e-18
-1.99176e-18
3.1506e-18
2.31868e-18
7.15907e-19
-2.59007e-19
4.09534e-16
0
-1.65551e-16
1.28629e-16
1.56731e-17
-1.21493e-16
2.16122e-16
-1.9285e-16
7.58777e-17
-3.27787e-17
3.35519e-17
6.67253e-18
1.15577e-17
4.77066e-18
-3.9885e-18
-5.13639e-19
-5.02864e-18
0
5.18229e-19
3.29669e-16
-3.71083e-16
0
3.44583e-17
1.50013e-16
-1.47094e-16
2.53479e-17
2.26071e-17
9.89489e-18
1.76103e-17
0
0
-2.01169e-17
3.78804e-17
-1.38744e-17
-4.99698e-18
5.47086e-18
4.39601e-19
-9.87221e-19
2.84082e-17
3.25958e-16
-3.80037e-17
-2.61953e-16
2.29906e-16
2.77552e-17
-2.48076e-17
-2.20804e-17
7.35812e-17
-9.12875e-17
5.56912e-17
-5.6919e-17
9.04837e-18
-1.13552e-17
2.10248e-17
-1.39942e-17
0
0
1.0258e-18
0
8.19665e-17
-2.48631e-16
2.8398e-16
-2.32832e-16
2.32278e-16
0
8.23808e-17
-8.27583e-17
-6.31963e-17
9.39346e-17
0
3.9671e-17
-5.01193e-17
-7.43739e-18
0
-8.49696e-19
-1.72686e-18
-1.13755e-20
-7.74662e-16
3.70705e-16
0
-2.54915e-16
2.5489e-16
1.58793e-16
-1.04439e-16
4.37477e-17
0
-2.00432e-18
1.53146e-17
-1.43749e-17
-2.17347e-17
3.37832e-17
-3.59227e-17
0
8.00721e-18
-1.83799e-18
-1.06825e-18
4.77736e-16
-4.7098e-16
0
6.59876e-17
6.05658e-17
-5.56869e-17
0
-4.5848e-17
-4.01625e-17
0
-1.51794e-18
0
2.48122e-17
0
0
1.15989e-17
4.38206e-17
-5.65637e-17
0
7.09063e-20
7.11856e-17
-6.62664e-17
5.51757e-17
-2.79941e-16
1.0775e-16
0
9.54626e-18
2.71245e-17
0
-2.84385e-17
8.45783e-17
-8.88544e-17
1.53304e-17
0
-1.54671e-18
0
0
0
6.71782e-20
0
6.12467e-17
0
-9.73526e-17
9.89003e-17
0
3.66891e-17
-2.99181e-17
1.09609e-16
-5.31058e-17
1.97132e-17
-3.22089e-17
3.12382e-17
-4.84551e-17
-7.80285e-18
0
-5.44698e-18
0
1.86369e-16
-3.15001e-16
0
-5.23048e-17
4.75155e-17
0
0
-6.72424e-17
0
-2.54953e-17
-4.16991e-17
-1.81182e-17
2.95304e-17
0
1.66233e-17
0
0
1.19959e-17
-1.33814e-17
0
2.74499e-16
-2.19964e-16
4.84223e-17
-4.39996e-17
-1.84748e-17
5.35963e-17
6.13e-17
-7.66421e-17
2.47973e-17
1.38349e-18
-2.4443e-17
1.00674e-16
-3.13943e-17
-7.52666e-17
2.62919e-17
-7.05551e-18
4.20381e-18
-1.32783e-18
-4.40847e-16
1.6375e-16
0
0
1.89854e-17
-1.9306e-17
1.44599e-17
1.00583e-17
6.96091e-17
3.6541e-17
-3.65663e-17
-1.13222e-18
-2.15966e-17
1.761e-17
0
9.20227e-18
6.46689e-18
3.59491e-18
1.20017e-18
0
1.42937e-16
-1.34638e-16
4.34503e-17
4.6031e-17
-8.93417e-18
-2.96067e-17
-2.57757e-17
-8.73824e-17
3.61602e-17
-2.3268e-17
3.09893e-17
2.01955e-17
-2.61904e-17
2.77995e-17
1.8453e-17
-2.37275e-17
-3.32043e-18
0
-2.49122e-17
-1.13259e-16
4.10029e-17
3.86907e-17
-1.35873e-16
9.80388e-17
5.05913e-17
-5.17121e-17
4.09249e-17
-3.43178e-17
0
0
-3.10677e-17
5.62558e-17
-2.51232e-17
2.4379e-17
-2.65933e-17
4.50339e-18
-8.00703e-18
4.69561e-17
4.42823e-17
-4.083e-17
3.30327e-17
-3.78613e-17
-5.97918e-17
0
0
0
0
0
0
1.60381e-17
-4.34568e-17
4.59603e-17
-1.54666e-17
1.90404e-17
9.12774e-18
-7.75678e-18
9.69186e-17
-1.68627e-16
2.11189e-16
-1.02229e-16
1.40968e-16
-1.07266e-16
2.02054e-16
-1.15701e-16
-6.51144e-17
6.66091e-17
0
1.94031e-17
-1.56684e-17
3.97864e-17
-1.28094e-17
-1.72142e-17
-3.75181e-17
2.77663e-18
6.62558e-18
1.5063e-16
4.41148e-17
0
-7.08717e-17
-5.76378e-17
1.3334e-16
1.49325e-17
-5.64061e-17
3.40325e-17
-2.51014e-17
0
-1.53598e-17
0
-1.31434e-17
1.08115e-17
-9.91735e-18
-3.30479e-18
2.37253e-18
0
2.1067e-16
-4.66342e-17
2.00674e-16
-1.57354e-16
-3.24747e-17
1.31743e-16
-7.89922e-17
3.66108e-18
3.07297e-18
-2.46212e-17
2.38967e-17
0
0
1.58279e-17
-5.99109e-18
3.9859e-18
1.19478e-17
-4.15511e-18
0
4.16249e-20
0
-4.41942e-17
2.64728e-16
-1.79812e-16
-1.97707e-16
1.08613e-16
-1.18492e-16
1.10736e-16
5.67309e-17
-4.41497e-17
1.83003e-17
-1.65182e-17
2.72888e-18
2.8512e-17
1.24417e-18
-1.12404e-17
1.11251e-17
-2.26637e-18
5.14852e-16
-1.6472e-16
8.34885e-17
-2.56462e-16
7.1782e-17
-1.15417e-16
6.13989e-17
0
0
-2.35968e-18
-3.14029e-18
-9.24058e-19
0
-2.45647e-17
-1.90161e-17
1.41718e-17
-1.04558e-18
1.77418e-18
4.43759e-18
0
-1.64867e-16
2.84226e-16
6.67905e-17
-2.36479e-16
6.51679e-17
-1.03056e-16
1.53723e-17
8.57287e-17
0
0
1.6191e-18
1.97376e-17
0
-1.82332e-17
-8.47175e-18
1.24163e-18
-4.53348e-18
-5.08719e-18
0
-1.05077e-16
2.07572e-17
1.91968e-16
1.4861e-16
-2.74512e-16
1.25999e-16
-9.16463e-17
4.86413e-17
-7.02097e-17
0
0
0
-3.21947e-17
9.17032e-18
-1.09466e-17
0
-6.88494e-19
3.46255e-18
-3.88245e-16
3.69263e-16
4.0411e-16
-4.91302e-16
2.36144e-16
-2.23249e-16
0
9.61495e-17
-1.3262e-16
7.82359e-17
-6.25408e-17
5.21581e-17
4.31758e-17
3.32964e-17
2.65803e-17
0
0
0
0
4.26979e-16
-2.49575e-16
0
0
-8.55119e-17
2.13167e-16
-1.36881e-16
-1.01389e-16
1.00246e-16
7.72355e-17
1.31947e-16
-5.41191e-17
2.31036e-17
1.78958e-17
1.34332e-17
1.0891e-17
1.77358e-17
-8.75811e-19
8.92092e-19
-4.33846e-16
4.01226e-16
2.18905e-16
-1.13207e-16
2.56414e-16
-1.65014e-16
-1.33897e-16
-1.15255e-16
0
-1.61225e-16
7.09131e-18
6.08871e-17
-4.88126e-17
-4.02338e-17
-1.49057e-17
-1.59539e-17
-1.27276e-17
0
0
-1.49244e-16
0
1.1834e-16
-2.14175e-19
0
0
1.38119e-16
1.18926e-16
0
8.69323e-17
0
-9.25593e-17
-2.61014e-17
4.6645e-17
0
3.02314e-17
-4.28867e-18
4.37502e-18
0
3.16324e-16
0
2.29198e-16
-4.28179e-16
3.86242e-16
3.19344e-16
-8.85089e-18
0
8.05248e-18
9.96172e-17
0
-1.02484e-16
1.16385e-16
-1.03879e-16
-2.27351e-17
-2.43472e-17
-7.10392e-18
-1.25657e-18
-4.37513e-18
-2.96825e-16
4.28307e-16
-1.23105e-16
-3.26551e-16
-1.91741e-16
-1.68437e-16
-2.95335e-16
-1.2142e-16
8.65968e-18
4.59282e-17
-4.58419e-17
1.48709e-16
-6.57885e-17
1.33593e-16
-2.50427e-17
0
2.81031e-17
-1.64234e-17
4.44013e-18
6.50536e-16
-1.29248e-17
-5.07696e-16
4.29152e-16
-3.89634e-16
3.44865e-16
-9.80526e-18
-1.35005e-16
1.19458e-16
4.86072e-17
-5.86599e-18
-1.20679e-16
3.54167e-17
3.63025e-17
-1.12335e-17
1.13617e-17
-2.91079e-17
-2.59937e-18
-6.625e-18
3.19355e-16
1.37201e-16
2.44326e-16
-2.17844e-16
-1.83786e-16
8.55216e-18
-1.45445e-16
3.53292e-16
1.07435e-17
1.67634e-16
9.89168e-17
-8.80192e-17
0
-6.28368e-17
0
0
3.93348e-17
1.74673e-17
7.74672e-18
3.0111e-16
0
2.41533e-16
2.16438e-16
-1.94971e-16
1.73246e-16
0
-1.38744e-16
-1.93674e-16
-1.71084e-16
-9.97924e-17
8.90144e-17
0
0
0
0
-3.68622e-17
-2.67828e-17
0
-5.90037e-16
0
-1.06359e-17
-9.3909e-18
2.96108e-16
-1.70288e-16
-7.88352e-17
-7.91009e-17
1.95776e-16
0
5.18943e-17
-5.53886e-18
4.59172e-17
0
0
6.0176e-17
-4.46834e-18
3.21512e-17
-1.19865e-17
4.15854e-16
1.2179e-16
-1.20533e-16
-1.08069e-16
-3.81484e-16
2.64915e-16
3.23236e-16
-7.67025e-18
-1.3298e-16
1.30587e-16
2.76219e-17
-1.3944e-16
-1.1512e-16
-6.86054e-17
-7.24513e-17
-6.93509e-17
5.66414e-17
-2.68178e-18
1.22768e-17
-1.28304e-16
5.89277e-17
-2.84952e-16
4.97029e-17
-4.9522e-17
0
-1.60213e-16
-9.84522e-18
-1.48468e-16
1.11666e-17
1.45071e-16
1.08211e-16
-2.6352e-17
1.2214e-17
6.89607e-17
0
-1.1726e-16
-4.26723e-17
-8.88801e-19
2.59556e-16
-7.1731e-18
4.47874e-16
-2.14947e-16
3.92827e-19
5.79262e-18
1.74747e-16
-1.22199e-17
1.43989e-16
-1.34891e-16
-1.26749e-16
0
1.24563e-16
1.00267e-16
1.37843e-18
-2.00128e-18
6.31398e-17
4.33761e-17
0
-1.84777e-16
0
-4.61253e-17
2.0451e-16
2.65674e-18
4.73401e-17
-1.68978e-16
1.60173e-16
1.67736e-16
1.60572e-16
1.54105e-16
0
-1.2101e-16
0
6.33934e-18
-6.58397e-18
0
-6.23642e-19
3.05863e-17
1.27141e-16
6.00679e-18
-1.0325e-16
3.17256e-16
-1.02235e-16
0
0
-1.86522e-16
-1.62519e-16
-1.55558e-16
-2.80585e-16
-3.91786e-17
0
0
0
-1.28589e-17
1.36079e-17
8.67136e-17
-3.10511e-17
6.19899e-18
0
-2.19999e-16
-2.03032e-16
2.11601e-16
-2.09901e-16
-3.01402e-16
3.71802e-16
1.02276e-16
0
1.64637e-16
1.85001e-16
-3.99467e-17
2.16435e-16
-3.54077e-17
3.68507e-17
1.42807e-16
-8.24e-17
0
-2.43175e-16
0
-2.33597e-16
2.29225e-16
0
4.16955e-16
1.96447e-16
-4.1077e-16
3.26723e-16
-2.22596e-18
-9.91609e-17
-1.79119e-16
0
2.45002e-16
-4.11334e-16
4.41227e-16
-5.62235e-16
0
0
2.41989e-16
-1.42983e-18
-3.52389e-18
-4.60939e-16
4.64538e-16
-2.25013e-16
2.24095e-16
2.20836e-16
-1.966e-16
0
0
3.66961e-16
-3.73283e-16
-3.99795e-16
3.96105e-16
-3.85712e-16
4.17049e-16
-6.53153e-16
0
)
;

boundaryField
{
    up
    {
        type            calculated;
        value           nonuniform List<scalar> 
84
(
0
0
0
0
-2.23325e-17
4.0328e-17
-1.6856e-17
1.22767e-17
-1.07114e-17
0
-8.69841e-18
8.28757e-18
-5.89889e-18
4.81836e-19
4.09798e-19
4.37895e-18
0
0
-2.762e-18
2.04943e-18
2.09492e-18
-2.03415e-18
1.90423e-19
0
8.38524e-19
3.74739e-19
-7.6447e-18
0
1.02138e-17
1.20887e-17
1.55643e-18
-2.68227e-18
1.05539e-18
0
-5.19416e-19
1.02619e-18
-9.52501e-19
1.51491e-18
0
-2.61722e-19
0
0
-1.34799e-19
2.6806e-19
-2.59007e-19
5.18229e-19
-9.87221e-19
1.0258e-18
-1.13755e-20
-1.06825e-18
0
0
0
-1.33814e-17
-1.80212e-18
1.20017e-18
0
-8.00703e-18
-7.75678e-18
5.78997e-18
0
0
-2.26637e-18
4.43759e-18
-5.08719e-18
3.46255e-18
0
8.92092e-19
0
0
-4.37513e-18
4.44013e-18
-6.625e-18
7.74672e-18
0
-1.19865e-17
1.22768e-17
-8.88801e-19
0
3.05863e-17
-3.10511e-17
0
0
0
)
;
    }
    low
    {
        type            calculated;
        value           nonuniform List<scalar> 
84
(
-4.84419e-16
4.84176e-16
-2.37468e-16
3.73602e-16
6.54094e-17
-1.6997e-17
1.42053e-16
1.36865e-17
0
6.03949e-16
-1.53074e-16
1.28879e-16
-1.41822e-16
-9.12308e-16
1.49113e-16
0
-1.38915e-16
1.05355e-17
-1.00671e-17
-1.12226e-16
5.73348e-17
1.54087e-16
2.6077e-16
-2.33744e-16
0
-4.5299e-17
-2.32917e-17
0
-2.13486e-16
-6.02312e-17
-2.02629e-16
-2.19257e-16
2.37245e-16
8.14761e-17
5.59078e-16
4.47726e-17
0
3.75464e-16
3.63827e-16
2.06595e-16
-1.09668e-16
4.48439e-17
4.48454e-17
0
1.78518e-16
4.1024e-16
3.29669e-16
2.88593e-17
0
-7.74648e-16
4.77736e-16
7.09063e-20
6.71782e-20
1.86369e-16
0
-4.39938e-16
0
-2.49122e-17
4.69561e-17
9.63848e-17
1.49688e-16
2.09786e-16
4.16249e-20
5.14106e-16
0
0
-3.88245e-16
4.26582e-16
-4.3357e-16
-1.49244e-16
3.16296e-16
-2.96825e-16
6.51438e-16
3.2001e-16
3.0111e-16
-5.90037e-16
4.15115e-16
-1.27532e-16
2.59556e-16
-1.84467e-16
1.27141e-16
6.75928e-18
-2.43175e-16
2.42143e-16
)
;
    }
    left
    {
        type            calculated;
        value           nonuniform List<scalar> 
19
(
-4.84111e-16
-2.3595e-16
2.39096e-16
4.76021e-18
-4.56824e-16
0
-2.13998e-16
-2.11004e-16
-1.40488e-17
-1.10818e-16
-1.05659e-18
-1.10138e-16
4.88871e-16
-1.08815e-16
5.08698e-16
4.38781e-16
2.60939e-16
3.82602e-16
0
)
;
    }
    right
    {
        type            calculated;
        value           nonuniform List<scalar> 
19
(
2.41989e-16
-1.26103e-18
-3.52389e-18
-4.60936e-16
4.64651e-16
-2.25013e-16
2.24095e-16
2.20836e-16
-1.95922e-16
0
0
3.70451e-16
-3.78201e-16
-3.99795e-16
3.96105e-16
-3.85712e-16
4.17049e-16
-7.06348e-16
0
)
;
    }
    frontAndBackPlanes
    {
        type            empty;
    }
}


// ************************************************************************* //
