/*--------------------------------*- C++ -*----------------------------------*\
  =========                 |
  \\      /  F ield         | OpenFOAM: The Open Source CFD Toolbox
   \\    /   O peration     | Website:  https://openfoam.org
    \\  /    A nd           | Version:  7
     \\/     M anipulation  |
\*---------------------------------------------------------------------------*/
FoamFile
{
    version     2.0;
    format      ascii;
    class       volScalarField;
    location    "0.121";
    object      gradTx;
}
// * * * * * * * * * * * * * * * * * * * * * * * * * * * * * * * * * * * * * //

dimensions      [0 -1 0 1 0 0 0];

internalField   nonuniform List<scalar> 
1596
(
-0.208386
-1.04427
-1.85654
-2.56297
-3.14964
-3.60953
-3.96631
-4.23647
-4.44391
-4.63046
-4.8111
-5.03512
-5.35663
-5.84784
-6.58894
-7.76371
-9.64411
-12.8094
-18.4556
0.0510547
-0.854674
-1.65093
-2.31951
-2.86945
-3.30047
-3.63449
-3.88097
-4.05906
-4.19291
-4.28999
-4.37952
-4.47647
-4.60081
-4.75484
-4.93531
-5.07312
-5.01767
-4.43981
0.266403
-0.667187
-1.42572
-2.04232
-2.54305
-2.93524
-3.2381
-3.45856
-3.61038
-3.70808
-3.75481
-3.76754
-3.74852
-3.70245
-3.62309
-3.49614
-3.26861
-2.84189
-2.01187
0.309011
-0.544133
-1.2176
-1.75876
-2.19631
-2.54077
-2.80707
-3.00076
-3.13116
-3.20661
-3.22858
-3.20608
-3.1372
-3.02098
-2.85097
-2.6148
-2.28021
-1.79191
-1.03291
0.124233
-0.528569
-1.06373
-1.50326
-1.86332
-2.15137
-2.37628
-2.54192
-2.6538
-2.71582
-2.72904
-2.697
-2.61655
-2.48433
-2.29504
-2.0388
-1.69741
-1.2418
-0.608395
-0.263417
-0.638943
-0.994609
-1.30956
-1.57877
-1.80159
-1.97957
-2.11397
-2.20683
-2.25863
-2.27014
-2.24112
-2.168
-2.04611
-1.87084
-1.63347
-1.32347
-0.925394
-0.405576
-0.771861
-0.864607
-1.02492
-1.20126
-1.36934
-1.51864
-1.64347
-1.74163
-1.81193
-1.85205
-1.8622
-1.83948
-1.78007
-1.67843
-1.5301
-1.32653
-1.06071
-0.723383
-0.29637
-1.29536
-1.15725
-1.13702
-1.17608
-1.24039
-1.31191
-1.37922
-1.43658
-1.47996
-1.50484
-1.51041
-1.49209
-1.4457
-1.36522
-1.24602
-1.07945
-0.8597
-0.579875
-0.229148
-1.8305
-1.54047
-1.36775
-1.27404
-1.22944
-1.2141
-1.21403
-1.2208
-1.22814
-1.22974
-1.22335
-1.20318
-1.16449
-1.10085
-1.00722
-0.874812
-0.697849
-0.469822
-0.182731
-2.14865
-1.81278
-1.55599
-1.37118
-1.24281
-1.15566
-1.09706
-1.05784
-1.03078
-1.0087
-0.988137
-0.962791
-0.927521
-0.875858
-0.802579
-0.699157
-0.55974
-0.377828
-0.146454
-2.41169
-2.06331
-1.76003
-1.51038
-1.31309
-1.16102
-1.04583
-0.959693
-0.89565
-0.846371
-0.807461
-0.772336
-0.735453
-0.690339
-0.6316
-0.551117
-0.442913
-0.300383
-0.116821
-2.68711
-2.34553
-2.01535
-1.71608
-1.45803
-1.24325
-1.06959
-0.932449
-0.826353
-0.744497
-0.681863
-0.631606
-0.587655
-0.543375
-0.49311
-0.429126
-0.345369
-0.235216
-0.0919843
-2.77835
-2.48426
-2.16591
-1.85319
-1.56532
-1.31239
-1.09848
-0.923232
-0.783702
-0.674519
-0.590872
-0.526126
-0.474038
-0.428017
-0.382348
-0.329845
-0.264656
-0.180481
-0.0709348
-2.82249
-2.57706
-2.28387
-1.97351
-1.67042
-1.39133
-1.14608
-0.938895
-0.769889
-0.635605
-0.531919
-0.452583
-0.391299
-0.341502
-0.297403
-0.25228
-0.20053
-0.136302
-0.0536827
-2.8502
-2.64731
-2.38235
-2.08235
-1.77324
-1.47642
-1.20662
-0.972545
-0.777596
-0.620474
-0.49808
-0.404644
-0.333872
-0.279163
-0.234607
-0.193792
-0.151338
-0.101853
-0.0399788
-2.8185
-2.66134
-2.42984
-2.14923
-1.8452
-1.54186
-1.25759
-1.00506
-0.790836
-0.615885
-0.478412
-0.373278
-0.294336
-0.234994
-0.189244
-0.150892
-0.114759
-0.0758828
-0.029473
-2.72016
-2.60793
-2.41391
-2.16033
-1.87156
-1.57285
-1.28491
-1.02354
-0.798106
-0.611764
-0.464143
-0.350883
-0.26614
-0.203427
-0.156712
-0.119984
-0.0882456
-0.0569112
-0.021711
-2.59443
-2.51246
-2.35244
-2.12788
-1.85971
-1.5727
-1.28883
-1.02609
-0.796129
-0.604041
-0.450809
-0.332882
-0.244802
-0.180246
-0.133222
-0.0978682
-0.0693521
-0.0433942
-0.0161578
-2.49129
-2.43329
-2.29869
-2.09669
-1.84515
-1.56803
-1.2881
-1.02498
-0.792152
-0.596259
-0.43935
-0.318495
-0.228476
-0.163046
-0.116186
-0.0820968
-0.0560368
-0.0339384
-0.012285
-2.27555
-2.25217
-2.15088
-1.98086
-1.75752
-1.50303
-1.23985
-0.988254
-0.762963
-0.571877
-0.418078
-0.299407
-0.211121
-0.147288
-0.102079
-0.0699037
-0.0462057
-0.0271599
-0.00956123
-2.02154
-2.0262
-1.95636
-1.81878
-1.62655
-1.3997
-1.15962
-0.926375
-0.715184
-0.534739
-0.388878
-0.276164
-0.192393
-0.132078
-0.089723
-0.0600531
-0.0387573
-0.0222574
-0.00764506
-1.74368
-1.76627
-1.72303
-1.61646
-1.45672
-1.26119
-1.04948
-0.840604
-0.649508
-0.485129
-0.351724
-0.24849
-0.171806
-0.116767
-0.0783744
-0.0518064
-0.03308
-0.0188481
-0.00639365
-1.42169
-1.45268
-1.43188
-1.35683
-1.23373
-1.07622
-0.901065
-0.725063
-0.562046
-0.42062
-0.30517
-0.21554
-0.148834
-0.100966
-0.0676943
-0.0448945
-0.0290786
-0.0171694
-0.00632891
-1.04553
-1.0333
-0.985518
-0.904478
-0.798078
-0.677234
-0.553203
-0.43557
-0.331375
-0.244199
-0.175055
-0.122681
-0.0844609
-0.0574663
-0.0389656
-0.0265171
-0.0180597
-0.0116221
-0.00499318
-0.69923
-0.769518
-0.824223
-0.846009
-0.827449
-0.770207
-0.683264
-0.579041
-0.470634
-0.368417
-0.279174
-0.206116
-0.149001
-0.106195
-0.0753365
-0.0539752
-0.0396728
-0.030209
-0.0230865
-0.233765
-0.260204
-0.290226
-0.314678
-0.327196
-0.324531
-0.307011
-0.277368
-0.240393
-0.200927
-0.162846
-0.129107
-0.100509
-0.0772318
-0.058903
-0.0452248
-0.0355519
-0.0293843
-0.0258533
0.233737
0.205178
0.157948
0.100142
0.040659
-0.0126177
-0.0543244
-0.0820283
-0.0964831
-0.100314
-0.0966532
-0.0889106
-0.0789546
-0.0681893
-0.0574708
-0.04788
-0.0400226
-0.034505
-0.0311571
0.695947
0.657534
0.588622
0.497722
0.395407
0.292541
0.198357
0.118978
0.0568459
0.011354
-0.0196843
-0.0396276
-0.0508618
-0.0554058
-0.0547404
-0.0509171
-0.045696
-0.0410078
-0.0376316
1.10537
1.04745
0.953353
0.832531
0.695974
0.555505
0.421907
0.303007
0.203078
0.122913
0.0612475
0.015109
-0.0178614
-0.0396084
-0.0513547
-0.0552873
-0.0537639
-0.0501145
-0.0464602
1.51694
1.43148
1.30722
1.15401
0.983425
0.807965
0.639138
0.485478
0.352157
0.240707
0.15043
0.078557
0.0227138
-0.0188313
-0.0464631
-0.0615458
-0.0659248
-0.0639654
-0.0596342
1.81082
1.6952
1.54472
1.36866
1.17812
0.98445
0.797972
0.62628
0.474259
0.343504
0.233666
0.142169
0.0666502
0.00554953
-0.0403905
-0.0707473
-0.0848834
-0.0864694
-0.0808744
2.07047
1.92982
1.75413
1.55643
1.34821
1.13973
0.939912
0.755107
0.58952
0.444441
0.319581
0.212262
0.119683
0.0396123
-0.0270323
-0.07851
-0.110114
-0.121595
-0.117187
2.29457
2.12088
1.91901
1.70223
1.48091
1.26336
1.0566
0.865298
0.692707
0.539603
0.405699
0.288299
0.184091
0.0894999
0.00401826
-0.071886
-0.130643
-0.165564
-0.170084
2.41621
2.19416
1.95543
1.71208
1.47265
1.24329
1.029
0.832816
0.656818
0.501076
0.364766
0.245053
0.138084
0.0387804
-0.0563239
-0.151089
-0.2417
-0.321239
-0.375628
2.46798
2.22937
1.99213
1.76365
1.54685
1.34311
1.15355
0.978721
0.819244
0.675084
0.546031
0.431014
0.328123
0.234501
0.146831
0.0592123
-0.0328205
-0.133792
-0.244084
2.48998
2.24691
2.01967
1.80691
1.60676
1.41832
1.24143
1.07628
0.923525
0.783432
0.65627
0.541982
0.439651
0.348273
0.266855
0.193604
0.12671
0.0634698
-0.000190243
2.31284
2.03687
1.79242
1.57224
1.37211
1.18975
1.02377
0.873213
0.737473
0.615611
0.506803
0.410129
0.324067
0.247336
0.179039
0.118297
0.0647763
0.0187853
-0.0197963
1.99727
1.75261
1.53842
1.3476
1.17587
1.02066
0.880229
0.753267
0.638935
0.536195
0.444236
0.362237
0.288931
0.223266
0.16447
0.111699
0.0644008
0.0225148
-0.0143019
1.63629
1.43544
1.25823
1.10055
0.959308
0.83233
0.717989
0.614992
0.522454
0.43936
0.364957
0.298493
0.238894
0.185274
0.136998
0.093365
0.0539406
0.0187243
-0.012517
1.21857
1.06597
0.932406
0.814524
0.709678
0.615927
0.531826
0.456242
0.388401
0.32746
0.272823
0.223905
0.179903
0.140167
0.104258
0.0716839
0.0421702
0.015775
-0.00763389
0.761564
0.660052
0.574269
0.500121
0.434987
0.37719
0.325588
0.279346
0.237905
0.200692
0.167309
0.137373
0.110378
0.0859182
0.0637271
0.0435057
0.0251016
0.00857983
-0.0061096
0.290717
0.248908
0.215047
0.18628
0.161196
0.139033
0.119328
0.101763
0.0861181
0.0721696
0.0597501
0.0486922
0.0387836
0.0298456
0.0217492
0.0143566
0.00758587
0.00143904
-0.00411014
-0.290578
-0.248589
-0.214601
-0.185749
-0.160613
-0.138424
-0.118717
-0.101166
-0.0855498
-0.0716405
-0.0592683
-0.0482633
-0.0384122
-0.0295351
-0.0215019
-0.0141743
-0.00746964
-0.00138839
0.00409667
-0.761431
-0.659764
-0.573871
-0.499649
-0.434471
-0.376654
-0.325052
-0.278826
-0.237413
-0.200237
-0.1669
-0.137014
-0.110073
-0.0856708
-0.0635393
-0.0433793
-0.0250375
-0.0085775
0.00605204
-1.21843
-1.06568
-0.93201
-0.814052
-0.709157
-0.615383
-0.531279
-0.455709
-0.387894
-0.32699
-0.272396
-0.223525
-0.179573
-0.139889
-0.104033
-0.0715103
-0.0420469
-0.0156994
0.00766495
-1.63618
-1.43522
-1.25794
-1.1002
-0.958926
-0.831934
-0.717595
-0.614612
-0.522099
-0.439038
-0.364672
-0.298249
-0.238692
-0.185114
-0.136881
-0.0932899
-0.0539054
-0.0187267
0.0124799
-1.99719
-1.75245
-1.5382
-1.34733
-1.17558
-1.02036
-0.879922
-0.752974
-0.638664
-0.535952
-0.444027
-0.362062
-0.288792
-0.223162
-0.164399
-0.111659
-0.0643888
-0.0225252
0.0142759
-2.31282
-2.03679
-1.79229
-1.57208
-1.37192
-1.18955
-1.02359
-0.873044
-0.73733
-0.615498
-0.506722
-0.41008
-0.32405
-0.24735
-0.17908
-0.11836
-0.0648526
-0.0188596
0.0197396
-2.48995
-2.24665
-2.01915
-1.80613
-1.60576
-1.41714
-1.24013
-1.07492
-0.922151
-0.782083
-0.654974
-0.540753
-0.438493
-0.347182
-0.265825
-0.19264
-0.125847
-0.0627991
0.000505174
-2.46838
-2.23045
-1.9939
-1.76605
-1.54979
-1.34647
-1.15721
-0.982551
-0.823135
-0.678946
-0.5498
-0.43466
-0.331646
-0.23794
-0.150255
-0.0627237
0.0291386
0.129931
0.240202
-2.416
-2.19363
-1.95458
-1.71096
-1.47131
-1.24181
-1.02743
-0.831226
-0.655247
-0.499554
-0.363315
-0.243684
-0.136802
-0.037583
0.0574605
0.152224
0.24297
0.32288
0.377949
-2.2947
-2.1212
-1.9195
-1.70286
-1.48165
-1.26418
-1.05746
-0.866167
-0.693553
-0.540403
-0.406436
-0.288967
-0.184686
-0.0900117
-0.00442035
0.0716467
0.130628
0.165807
0.170522
-2.07055
-1.93002
-1.75445
-1.55685
-1.34871
-1.14029
-0.94051
-0.755712
-0.590107
-0.444987
-0.320073
-0.212689
-0.120037
-0.0398782
0.0268805
0.0785051
0.110269
0.121871
0.117508
-1.8109
-1.6954
-1.54505
-1.3691
-1.17865
-0.985039
-0.798587
-0.626886
-0.474828
-0.344015
-0.234107
-0.142531
-0.0669287
-0.00573544
0.0403088
0.0707778
0.0850145
0.0866604
0.0810661
-1.51702
-1.4317
-1.30758
-1.15448
-0.983987
-0.808579
-0.639764
-0.486078
-0.352702
-0.241178
-0.150818
-0.0788597
-0.0229313
0.0186998
0.046417
0.0615786
0.0660178
0.0640896
0.0597563
-1.10545
-1.04766
-0.953706
-0.832999
-0.696524
-0.556095
-0.422493
-0.303553
-0.203557
-0.123311
-0.0615598
-0.0153396
0.0177072
0.0395254
0.0513354
0.0553204
0.0538324
0.0501996
0.0465434
-0.696039
-0.657773
-0.589005
-0.49822
-0.395977
-0.293134
-0.198925
-0.119485
-0.0572699
-0.0116878
0.0194368
0.0394572
0.0507583
0.0553591
0.0547399
0.0509508
0.0457504
0.0410714
0.0376939
-0.23382
-0.205414
-0.158328
-0.100631
-0.0412046
0.0120699
0.0538216
0.0816017
0.0961464
0.100066
0.0964844
0.0888071
0.0789031
0.0681783
0.0574893
0.0479181
0.0400712
0.0345581
0.0312099
0.233563
0.259605
0.289255
0.313429
0.325807
0.323141
0.305736
0.276281
0.239524
0.200269
0.162373
0.128783
0.1003
0.0771075
0.0588367
0.0451963
0.0355468
0.0293961
0.0258852
0.699358
0.770002
0.825098
0.847228
0.828904
0.771765
0.684797
0.580446
0.471848
0.369416
0.279963
0.206721
0.149454
0.106532
0.0755876
0.0541667
0.0398243
0.0303345
0.0231926
1.04537
1.03276
0.984634
0.90334
0.796811
0.675958
0.552018
0.434537
0.33052
0.243524
0.174542
0.122304
0.0841916
0.0572802
0.0388407
0.0264361
0.0180097
0.0115943
0.00498337
1.42176
1.45283
1.4321
1.35709
1.234
1.07647
0.90127
0.725219
0.562153
0.420687
0.305206
0.215556
0.148839
0.100966
0.0676922
0.0448926
0.0290774
0.0171692
0.00632968
1.74369
1.76628
1.72303
1.61647
1.45672
1.26118
1.04947
0.840587
0.649488
0.48511
0.351707
0.248476
0.171797
0.116762
0.0783717
0.0518059
0.0330808
0.0188495
0.00639459
2.02154
2.02621
1.95636
1.81878
1.62655
1.39969
1.15961
0.92636
0.715168
0.534725
0.388866
0.276156
0.192388
0.132076
0.0897238
0.0600553
0.0387599
0.0222595
0.00764583
2.27555
2.25217
2.15088
1.98086
1.75752
1.50303
1.23984
0.988241
0.76295
0.571866
0.41807
0.299403
0.211119
0.147289
0.102082
0.0699076
0.0462096
0.0271625
0.00956203
2.49129
2.4333
2.2987
2.0967
1.84516
1.56803
1.2881
1.02497
0.792143
0.596251
0.439345
0.318493
0.228477
0.16305
0.116191
0.0821021
0.0560415
0.0339415
0.0122858
2.59444
2.51247
2.35245
2.12789
1.85971
1.5727
1.28883
1.02608
0.796122
0.604035
0.450806
0.332882
0.244804
0.180251
0.133228
0.0978745
0.0693573
0.0433972
0.0161585
2.72017
2.60794
2.41392
2.16033
1.87157
1.57285
1.28491
1.02354
0.798101
0.611761
0.464142
0.350885
0.266145
0.203433
0.156719
0.11999
0.0882504
0.0569136
0.0217113
2.81851
2.66135
2.42985
2.14923
1.8452
1.54186
1.25759
1.00506
0.790834
0.615884
0.478413
0.373282
0.294342
0.235001
0.189251
0.150897
0.114762
0.0758834
0.0294726
2.8502
2.64732
2.38236
2.08236
1.77325
1.47642
1.20661
0.972544
0.777595
0.620474
0.498083
0.404648
0.333877
0.279168
0.234611
0.193794
0.151337
0.101851
0.0399776
2.82249
2.57707
2.28388
1.97351
1.67042
1.39133
1.14608
0.938896
0.76989
0.635606
0.531922
0.452587
0.391302
0.341503
0.297402
0.252276
0.200524
0.136296
0.0536807
2.77835
2.48427
2.16593
1.8532
1.56533
1.31239
1.09848
0.923234
0.783704
0.674522
0.590875
0.526128
0.474037
0.428013
0.38234
0.329834
0.264644
0.180472
0.0709326
2.6871
2.34552
2.01535
1.71608
1.45803
1.24325
1.06959
0.932447
0.826352
0.744496
0.68186
0.631601
0.587647
0.543362
0.493093
0.429106
0.345352
0.235205
0.0919826
2.41171
2.06333
1.76004
1.51039
1.31309
1.16102
1.04583
0.959694
0.89565
0.846369
0.807455
0.772325
0.735436
0.690317
0.631575
0.551093
0.442894
0.300374
0.116821
2.14867
1.8128
1.556
1.37118
1.24281
1.15566
1.09706
1.05784
1.03078
1.00869
0.988124
0.962772
0.927496
0.87583
0.80255
0.699133
0.559725
0.377823
0.146456
1.83052
1.54048
1.36776
1.27404
1.22944
1.2141
1.21403
1.22079
1.22814
1.22973
1.22333
1.20315
1.16446
1.10082
1.0072
0.874795
0.697842
0.469824
0.182735
1.29537
1.15725
1.13702
1.17608
1.24039
1.31191
1.37922
1.43657
1.47995
1.50482
1.51038
1.49206
1.44567
1.3652
1.24601
1.07944
0.859704
0.579884
0.229152
0.771872
0.864614
1.02493
1.20127
1.36934
1.51864
1.64347
1.74162
1.81191
1.85203
1.86217
1.83946
1.78005
1.67842
1.5301
1.32654
1.06072
0.723397
0.296373
0.263425
0.638953
0.994621
1.30957
1.57878
1.80159
1.97957
2.11396
2.20682
2.25861
2.27012
2.24111
2.16799
2.04611
1.87085
1.63349
1.32349
0.925408
0.405577
-0.124228
0.528579
1.06374
1.50327
1.86333
2.15137
2.37628
2.54191
2.65379
2.71581
2.72903
2.697
2.61656
2.48435
2.29507
2.03883
1.69744
1.24181
0.608392
-0.30901
0.544142
1.21761
1.75876
2.19631
2.54077
2.80706
3.00075
3.13115
3.2066
3.22858
3.20609
3.13722
3.021
2.851
2.61483
2.28022
1.79191
1.03291
-0.266405
0.66719
1.42572
2.04231
2.54304
2.93524
3.2381
3.45855
3.61038
3.70808
3.75482
3.76756
3.74855
3.70248
3.62311
3.49615
3.26861
2.84188
2.01186
-0.0510541
0.854671
1.65092
2.3195
2.86944
3.30046
3.63448
3.88097
4.05907
4.19292
4.29001
4.37954
4.47649
4.60082
4.75484
4.9353
5.0731
5.01765
4.43981
0.208389
1.04427
1.85654
2.56296
3.14963
3.60953
3.96631
4.23647
4.44392
4.63047
4.81111
5.03514
5.35664
5.84783
6.58892
7.76369
9.64409
12.8094
18.4556
)
;

boundaryField
{
    up
    {
        type            calculated;
        value           nonuniform List<scalar> 
84
(
-18.4556
-4.43981
-2.01187
-1.03291
-0.608395
-0.405576
-0.29637
-0.229148
-0.182731
-0.146454
-0.116821
-0.0919843
-0.0709348
-0.0536827
-0.0399788
-0.029473
-0.021711
-0.0161578
-0.012285
-0.00956123
-0.00764506
-0.00639365
-0.00632891
-0.00499318
-0.0192416
-0.0234199
-0.0283825
-0.0341592
-0.0418193
-0.0530827
-0.0709288
-0.0996956
-0.139977
-0.358641
-0.247423
-0.000384436
-0.0195054
-0.0141143
-0.0124068
-0.0075861
-0.00608793
-0.00410378
0.00409037
0.00603066
0.00761743
0.0123704
0.0140893
0.0194497
0.000693217
0.243529
0.361341
0.140384
0.0999541
0.0710825
0.053181
0.0418873
0.0342118
0.0284294
0.0234593
0.0193325
0.00498337
0.00632968
0.00639459
0.00764583
0.00956203
0.0122858
0.0161585
0.0217113
0.0294726
0.0399776
0.0536807
0.0709326
0.0919826
0.116821
0.146456
0.182735
0.229152
0.296373
0.405577
0.608392
1.03291
2.01186
4.43981
18.4556
)
;
    }
    low
    {
        type            calculated;
        value           nonuniform List<scalar> 
84
(
-0.187289
0.0834332
0.317806
0.363827
0.158009
-0.269534
-0.821148
-1.37658
-1.9233
-2.22497
-2.48031
-2.74569
-2.80986
-2.83873
-2.85784
-2.81104
-2.69884
-2.5696
-2.45652
-2.22051
-1.95446
-1.67118
-1.34718
-0.977757
-0.644328
-0.213579
0.210685
0.639461
1.03504
1.45027
1.76079
2.03391
2.27553
2.41802
2.48528
2.52503
2.36543
2.0503
1.68197
1.25402
0.784652
0.300262
-0.300123
-0.784516
-1.25388
-1.68185
-2.0502
-2.36538
-2.52498
-2.48562
-2.41782
-2.27562
-2.03397
-1.76087
-1.45036
-1.03512
-0.639557
-0.210769
0.213382
0.644452
0.977609
1.34724
1.67118
1.95447
2.22051
2.45653
2.5696
2.69884
2.81105
2.85784
2.83873
2.80987
2.74568
2.48032
2.22499
1.92332
1.37659
0.821159
0.269543
-0.158004
-0.363829
-0.317813
-0.0834377
0.18729
)
;
    }
    left
    {
        type            calculated;
        value           nonuniform List<scalar> 
19
(
-0.186561
-1.00739
-1.83931
-2.57292
-3.18694
-3.66954
-4.04562
-4.3341
-4.55855
-4.76986
-4.98305
-5.25201
-5.64558
-6.25725
-7.18572
-8.68612
-11.1348
-15.3407
-16.0044
)
;
    }
    right
    {
        type            calculated;
        value           nonuniform List<scalar> 
19
(
0.186564
1.0074
1.83931
2.57291
3.18693
3.66953
4.04562
4.33411
4.55855
4.76987
4.98306
5.25202
5.64557
6.25723
7.18569
8.68609
11.1348
15.3407
16.0044
)
;
    }
    frontAndBackPlanes
    {
        type            empty;
    }
}


// ************************************************************************* //
