/*--------------------------------*- C++ -*----------------------------------*\
  =========                 |
  \\      /  F ield         | OpenFOAM: The Open Source CFD Toolbox
   \\    /   O peration     | Website:  https://openfoam.org
    \\  /    A nd           | Version:  7
     \\/     M anipulation  |
\*---------------------------------------------------------------------------*/
FoamFile
{
    version     2.0;
    format      ascii;
    class       volScalarField;
    location    "0.129";
    object      T;
}
// * * * * * * * * * * * * * * * * * * * * * * * * * * * * * * * * * * * * * //

dimensions      [0 0 0 1 0 0 0];

internalField   nonuniform List<scalar> 
1596
(
3.98327
3.93559
3.8878
3.8444
3.80703
3.77575
3.75003
3.72827
3.70922
3.69002
3.66846
3.64145
3.60289
3.54493
3.45615
3.31234
3.06943
2.63982
1.84783
3.92809
3.78062
3.64456
3.52477
3.42275
3.33768
3.26774
3.20936
3.15925
3.11178
3.06212
3.00423
2.92831
2.82298
2.67502
2.4617
2.14977
1.68368
0.958942
3.8641
3.61833
3.40212
3.21576
3.05848
2.92801
2.82114
2.73303
2.65897
2.59204
2.52611
2.45393
2.36492
2.2475
2.08948
1.87243
1.57312
1.15799
0.566301
3.80301
3.46794
3.18125
2.93747
2.73303
2.56407
2.4262
2.31371
2.22104
2.14067
2.06593
1.98923
1.90028
1.78821
1.64224
1.44753
1.18745
0.841182
0.373005
3.75495
3.34587
2.99947
2.70655
2.46145
2.25915
2.09439
1.96095
1.85276
1.76211
1.68219
1.60538
1.522
1.42206
1.29597
1.13133
0.915422
0.634268
0.265747
3.7255
3.26169
2.86698
2.53237
2.25173
2.01965
1.83048
1.67779
1.5553
1.4553
1.371
1.29491
1.21798
1.13103
1.02536
0.890239
0.715202
0.489798
0.19908
3.71411
3.2158
2.78453
2.4153
2.10347
1.84424
1.63215
1.4609
1.32419
1.21447
1.12502
1.04854
0.97654
0.900545
0.812555
0.703026
0.562861
0.383431
0.153545
3.71579
3.20113
2.74479
2.34799
2.00922
1.72529
1.49153
1.30212
1.15098
1.03078
0.934923
0.856296
0.786885
0.718814
0.64466
0.555804
0.444101
0.301932
0.120142
3.72617
3.20943
2.73822
2.32057
1.95906
1.65291
1.39881
1.19175
1.02608
0.894757
0.791355
0.708906
0.639789
0.576616
0.512459
0.439473
0.350269
0.237911
0.0944612
3.73763
3.22708
2.74931
2.31739
1.93792
1.61284
1.34058
1.11723
0.937712
0.79541
0.684054
0.59682
0.526395
0.46578
0.408471
0.347293
0.275526
0.186812
0.0741027
3.74597
3.2439
2.76502
2.32458
1.93211
1.59204
1.30464
1.06721
0.875421
0.723101
0.60419
0.511997
0.439446
0.379848
0.327053
0.27448
0.216022
0.145875
0.0577573
3.75506
3.26212
2.78448
2.33882
1.93673
1.58471
1.28471
1.03523
0.832735
0.671517
0.545731
0.448794
0.373788
0.314245
0.264293
0.21784
0.169326
0.113485
0.0447327
3.76274
3.2783
2.80273
2.3538
1.9446
1.58323
1.27309
1.01376
0.802437
0.633842
0.502319
0.401362
0.324142
0.264333
0.216257
0.174215
0.13311
0.0881735
0.0344744
3.76626
3.2873
2.81346
2.36246
1.94827
1.58011
1.26248
0.99585
0.777998
0.604004
0.468353
0.364573
0.285873
0.226008
0.179432
0.140753
0.105259
0.0686244
0.0265051
3.76836
3.29165
2.81786
2.36462
1.94635
1.57304
1.24994
0.978155
0.755867
0.578379
0.440233
0.334928
0.255659
0.196202
0.151096
0.115174
0.0840366
0.0537322
0.0204218
3.76992
3.29312
2.81734
2.3608
1.93842
1.56076
1.23359
0.958364
0.733462
0.55424
0.415174
0.309656
0.230804
0.172369
0.128927
0.095481
0.067874
0.0424664
0.0158387
3.76977
3.29053
2.81086
2.34978
1.92295
1.54144
1.21135
0.934247
0.708484
0.529276
0.390889
0.286512
0.209131
0.152435
0.111008
0.0799862
0.0554127
0.0339074
0.0123976
3.76856
3.28481
2.7994
2.33243
1.90047
1.51521
1.18294
0.905197
0.680066
0.502423
0.366167
0.264182
0.189261
0.134999
0.0959749
0.0674369
0.0456022
0.0273162
0.00979789
3.76955
3.28119
2.78856
2.31399
1.87552
1.48569
1.15108
0.873082
0.649345
0.474219
0.341074
0.242369
0.170632
0.119322
0.0829938
0.0569936
0.037694
0.0221416
0.00780572
3.77183
3.27972
2.7792
2.29569
1.84935
1.45398
1.11662
0.83847
0.616616
0.444717
0.315452
0.220738
0.152767
0.104828
0.0714338
0.0480241
0.0311217
0.0179623
0.00624034
3.77316
3.27755
2.76909
2.27607
1.82117
1.41975
1.07947
0.801398
0.581942
0.413937
0.289241
0.199135
0.135417
0.0911805
0.0608994
0.0401113
0.0254965
0.014482
0.00497252
3.77506
3.27645
2.76023
2.25746
1.79346
1.38546
1.04191
0.763809
0.546878
0.383039
0.263234
0.178029
0.11879
0.0783888
0.0512576
0.0330365
0.0205725
0.0114946
0.00391121
3.7783
3.27804
2.75472
2.2423
1.76892
1.35383
1.0065
0.727964
0.513276
0.353435
0.23842
0.158047
0.103213
0.0665571
0.0424538
0.0266397
0.0161331
0.00878815
0.00295223
3.78255
3.2823
2.75304
2.23167
1.74913
1.32682
0.975328
0.695843
0.48285
0.326475
0.215766
0.139797
0.0890022
0.0557768
0.034421
0.0207409
0.0119094
0.00602185
0.00178883
3.79086
3.30067
2.77616
2.25521
1.77008
1.34357
0.987455
0.703757
0.487382
0.32855
0.216218
0.13928
0.0879857
0.0545653
0.0331916
0.019575
0.0108508
0.00515069
0.00132421
3.80076
3.32797
2.81742
2.30568
1.82454
1.39717
1.03648
0.745887
0.521649
0.355079
0.235821
0.153143
0.0973861
0.0606938
0.0370505
0.0219283
0.0122249
0.0058739
0.00156407
3.80628
3.34669
2.84921
2.34815
1.87377
1.44866
1.08612
0.790575
0.559525
0.385475
0.258979
0.169915
0.108926
0.0682321
0.041733
0.0246917
0.0137554
0.00662012
0.00178286
3.80748
3.35622
2.87024
2.38086
1.91585
1.49633
1.13514
0.837181
0.600965
0.420175
0.286436
0.190455
0.123415
0.0778306
0.0476856
0.0281279
0.015573
0.00744265
0.00199408
3.80615
3.35984
2.88419
2.40724
1.95369
1.54246
1.18537
0.887296
0.64748
0.460704
0.319733
0.216262
0.142212
0.0906037
0.0557194
0.0327535
0.0179646
0.00847769
0.00223723
3.80276
3.35959
2.89402
2.43034
1.98991
1.58911
1.23833
0.942103
0.700146
0.508197
0.360142
0.248727
0.166727
0.107835
0.0668481
0.0392428
0.0213002
0.00989014
0.00255661
3.79869
3.35892
2.90397
2.45439
2.0282
1.63922
1.29629
1.00336
0.760444
0.564072
0.409168
0.28951
0.198733
0.131264
0.0825693
0.0486609
0.0261638
0.0119101
0.00300521
3.79704
3.36266
2.91922
2.48424
2.07275
1.6962
1.36188
1.07314
0.830093
0.629942
0.468524
0.340557
0.240459
0.163315
0.105241
0.0629283
0.0337285
0.0149652
0.00362484
3.79639
3.3688
2.93782
2.51813
2.12203
1.75873
1.43407
1.15069
0.908767
0.705986
0.538992
0.403353
0.294165
0.207022
0.138486
0.0857462
0.0469773
0.0205974
0.0044759
3.79643
3.37696
2.95945
2.55585
2.17589
1.82674
1.51283
1.23614
0.996788
0.792866
0.621714
0.4797
0.362553
0.266289
0.187666
0.123912
0.073411
0.0353959
0.00889086
3.79596
3.38317
2.97715
2.58765
2.2222
1.88618
1.5828
1.31336
1.07783
0.874505
0.701234
0.555018
0.432165
0.32912
0.242789
0.170157
0.109063
0.0583486
0.0171826
3.79166
3.37803
2.9764
2.59445
2.23793
1.9108
1.61524
1.3519
1.12045
0.919108
0.745906
0.598115
0.472366
0.365437
0.274545
0.196798
0.129969
0.0725149
0.0228837
3.78462
3.36544
2.96374
2.58512
2.23374
1.91238
1.62237
1.36376
1.13586
0.936721
0.764352
0.616131
0.488837
0.379477
0.28558
0.204573
0.134624
0.0746325
0.0233419
3.77949
3.35656
2.95532
2.5797
2.23267
1.91608
1.6306
1.37579
1.15071
0.953257
0.781452
0.63277
0.504129
0.392729
0.296353
0.212648
0.140018
0.0776004
0.0242824
3.77674
3.35188
2.95132
2.57811
2.2344
1.92139
1.63925
1.38722
1.16414
0.967806
0.796252
0.647032
0.51717
0.404016
0.305546
0.219574
0.14468
0.0801973
0.0251286
3.77489
3.3488
2.94888
2.5775
2.23625
1.92589
1.64621
1.39619
1.17455
0.978995
0.807571
0.657896
0.527069
0.412554
0.312472
0.224765
0.148151
0.082116
0.0257545
3.77348
3.34633
2.94674
2.5766
2.23704
1.92849
1.6505
1.40188
1.18123
0.986226
0.81491
0.664944
0.533482
0.418062
0.316909
0.228052
0.150308
0.0832783
0.0261255
3.77163
3.34334
2.9439
2.57454
2.23606
1.92865
1.65172
1.40398
1.184
0.989401
0.818252
0.668235
0.53653
0.420717
0.319074
0.229675
0.151387
0.0838692
0.0263205
3.77164
3.34336
2.94393
2.57457
2.2361
1.92869
1.65176
1.40402
1.18403
0.989435
0.818285
0.668265
0.536556
0.42074
0.319092
0.22969
0.151398
0.0838756
0.0263227
3.7735
3.34638
2.94682
2.57669
2.23715
1.92861
1.65062
1.40199
1.18135
0.986332
0.815008
0.665034
0.533562
0.418132
0.316967
0.228098
0.150341
0.0832985
0.0261326
3.77492
3.34889
2.949
2.57765
2.23642
1.92607
1.64639
1.39638
1.17473
0.979165
0.807729
0.65804
0.527197
0.412664
0.312564
0.224838
0.148203
0.0821474
0.0257653
3.77678
3.35199
2.95149
2.57832
2.23462
1.92163
1.6395
1.38747
1.16438
0.968034
0.796463
0.647225
0.517341
0.404163
0.305668
0.219669
0.144749
0.0802388
0.0251428
3.77954
3.35671
2.95552
2.57995
2.23295
1.91639
1.63091
1.3761
1.15101
0.953539
0.781713
0.633007
0.504338
0.392909
0.296501
0.212764
0.140101
0.0776504
0.0242995
3.78469
3.36561
2.96399
2.58541
2.23407
1.91273
1.62273
1.36412
1.13621
0.937049
0.764654
0.616402
0.489076
0.37968
0.285746
0.204701
0.134715
0.074686
0.0233598
3.79173
3.37822
2.97668
2.59479
2.23831
1.91121
1.61565
1.35231
1.12084
0.919478
0.746244
0.598416
0.472627
0.365655
0.274718
0.196927
0.130055
0.0725633
0.0228992
3.79605
3.38344
2.97758
2.5882
2.22285
1.88689
1.58355
1.31412
1.07857
0.875213
0.701896
0.555626
0.432716
0.329613
0.243224
0.170532
0.109369
0.0585627
0.0172695
3.79654
3.37728
2.95996
2.55651
2.17667
1.82759
1.51372
1.23703
0.997654
0.793685
0.622471
0.480387
0.363166
0.266827
0.188126
0.12429
0.0736948
0.0355734
0.0089527
3.79648
3.36908
2.93827
2.51872
2.12272
1.75948
1.43484
1.15146
0.909495
0.706659
0.539597
0.403884
0.294621
0.207403
0.138789
0.0859704
0.0471214
0.0206679
0.0044902
3.79712
3.36292
2.91965
2.4848
2.07341
1.69691
1.36261
1.07384
0.830754
0.630539
0.469048
0.341004
0.240828
0.163609
0.105462
0.0630804
0.0338187
0.0150064
0.00363415
3.79876
3.35917
2.90437
2.45492
2.02882
1.63989
1.29696
1.00401
0.761039
0.564598
0.409617
0.289881
0.19903
0.131492
0.082733
0.0487686
0.0262256
0.0119384
0.00301179
3.80283
3.35982
2.89439
2.43083
1.99049
1.58972
1.23895
0.94269
0.700675
0.508655
0.360524
0.249035
0.166965
0.108011
0.0669709
0.0393214
0.0213448
0.00991068
0.00256151
3.80621
3.36004
2.88453
2.40769
1.95422
1.54303
1.18593
0.887819
0.647943
0.461097
0.320054
0.216514
0.142402
0.090741
0.0558127
0.0328122
0.0179978
0.00849321
0.00224106
3.80753
3.3564
2.87054
2.38126
1.91633
1.49683
1.13564
0.837637
0.601363
0.420507
0.286702
0.19066
0.123566
0.0779378
0.0477574
0.0281728
0.0155986
0.00745493
0.00199729
3.80632
3.34684
2.84948
2.34851
1.87418
1.4491
1.08655
0.790965
0.559862
0.385752
0.259198
0.170082
0.109047
0.0683172
0.0417898
0.0247275
0.0137763
0.00663055
0.00178583
3.80079
3.3281
2.81764
2.30598
1.82489
1.39754
1.03684
0.746214
0.52193
0.355309
0.236001
0.153279
0.097485
0.060763
0.0370969
0.0219581
0.0122428
0.00588338
0.00156709
3.79087
3.3007
2.77622
2.25529
1.77018
1.34368
0.987562
0.703857
0.48747
0.328624
0.216278
0.139327
0.0880201
0.0545894
0.0332073
0.0195843
0.0108553
0.00515186
0.00132376
3.78253
3.28227
2.75299
2.2316
1.74906
1.32675
0.97526
0.695783
0.482801
0.326437
0.215738
0.139776
0.0889871
0.0557657
0.0344127
0.0207345
0.0119044
0.0060181
0.00178681
3.77829
3.27803
2.75471
2.2423
1.76891
1.35383
1.0065
0.727969
0.513284
0.353444
0.238428
0.158054
0.103219
0.0665612
0.0424566
0.0266415
0.0161342
0.00878852
0.00295215
3.77506
3.27644
2.76023
2.25745
1.79346
1.38546
1.04191
0.763813
0.546883
0.383045
0.263239
0.178034
0.118793
0.0783914
0.0512595
0.0330378
0.0205734
0.011495
0.00391127
3.77316
3.27754
2.76908
2.27607
1.82117
1.41975
1.07947
0.801401
0.581946
0.413941
0.289245
0.199138
0.13542
0.0911825
0.060901
0.0401126
0.0254975
0.0144826
0.00497268
3.77183
3.27971
2.7792
2.29568
1.84935
1.45399
1.11662
0.838473
0.616619
0.44472
0.315454
0.22074
0.152769
0.10483
0.0714355
0.0480257
0.031123
0.0179632
0.00624059
3.76955
3.28119
2.78856
2.31399
1.87552
1.48569
1.15108
0.873084
0.649347
0.474221
0.341076
0.24237
0.170633
0.119324
0.0829959
0.0569957
0.0376958
0.0221428
0.00780606
3.76856
3.28481
2.79939
2.33243
1.90047
1.51521
1.18294
0.905199
0.680067
0.502424
0.366168
0.264184
0.189263
0.135002
0.0959777
0.0674397
0.0456046
0.0273177
0.0097983
3.76977
3.29053
2.81086
2.34978
1.92295
1.54145
1.21135
0.934247
0.708484
0.529276
0.39089
0.286514
0.209133
0.152438
0.111011
0.0799896
0.0554155
0.0339091
0.012398
3.76992
3.29312
2.81734
2.3608
1.93842
1.56076
1.23359
0.958364
0.733462
0.55424
0.415175
0.309658
0.230807
0.172373
0.128931
0.0954849
0.0678771
0.0424682
0.0158391
3.76836
3.29165
2.81786
2.36462
1.94635
1.57304
1.24994
0.978155
0.755867
0.57838
0.440234
0.334931
0.255663
0.196207
0.151101
0.115179
0.0840396
0.0537337
0.0204221
3.76626
3.2873
2.81346
2.36247
1.94827
1.58011
1.26248
0.99585
0.777998
0.604005
0.468355
0.364576
0.285878
0.226012
0.179437
0.140756
0.105261
0.0686253
0.0265051
3.76274
3.2783
2.80273
2.3538
1.9446
1.58323
1.27309
1.01376
0.802438
0.633843
0.502322
0.401366
0.324147
0.264337
0.216261
0.174217
0.133111
0.0881734
0.0344742
3.75506
3.26213
2.78448
2.33883
1.93674
1.58471
1.2847
1.03523
0.832735
0.671519
0.545733
0.448798
0.373791
0.314248
0.264295
0.217841
0.169325
0.113483
0.0447322
3.74597
3.2439
2.76502
2.32458
1.93211
1.59204
1.30464
1.06721
0.875421
0.723102
0.604192
0.512
0.439448
0.379848
0.327053
0.274478
0.216019
0.145873
0.0577568
3.73764
3.22708
2.74931
2.31739
1.93792
1.61284
1.34058
1.11722
0.937712
0.79541
0.684055
0.59682
0.526394
0.465778
0.408466
0.347288
0.275521
0.186809
0.0741024
3.72617
3.20944
2.73822
2.32056
1.95906
1.65291
1.39881
1.19175
1.02607
0.894755
0.791354
0.708903
0.639785
0.57661
0.512452
0.439465
0.350263
0.237908
0.0944614
3.71579
3.20113
2.74478
2.34799
2.00922
1.72529
1.49152
1.30212
1.15097
1.03077
0.934919
0.85629
0.786877
0.718805
0.64465
0.555796
0.444095
0.30193
0.120143
3.71411
3.2158
2.78453
2.4153
2.10347
1.84424
1.63214
1.46089
1.32419
1.21446
1.12501
1.04853
0.976529
0.900535
0.812545
0.703018
0.562857
0.38343
0.153546
3.7255
3.26168
2.86698
2.53237
2.25172
2.01965
1.83047
1.67779
1.55529
1.4553
1.37099
1.2949
1.21796
1.13102
1.02535
0.890233
0.7152
0.489799
0.199081
3.75495
3.34587
2.99947
2.70654
2.46144
2.25914
2.09438
1.96094
1.85275
1.7621
1.68218
1.60537
1.52199
1.42205
1.29596
1.13133
0.915423
0.63427
0.265748
3.80301
3.46793
3.18124
2.93747
2.73302
2.56406
2.4262
2.31371
2.22104
2.14066
2.06592
1.98922
1.90027
1.7882
1.64224
1.44753
1.18745
0.841184
0.373005
3.8641
3.61833
3.40212
3.21576
3.05848
2.928
2.82113
2.73302
2.65897
2.59204
2.5261
2.45392
2.36492
2.2475
2.08948
1.87243
1.57312
1.15799
0.566301
3.92809
3.78062
3.64456
3.52477
3.42275
3.33768
3.26773
3.20936
3.15924
3.11177
3.06211
3.00423
2.9283
2.82298
2.67502
2.4617
2.14977
1.68368
0.958941
3.98327
3.93559
3.8878
3.8444
3.80703
3.77575
3.75003
3.72827
3.70922
3.69002
3.66846
3.64145
3.60289
3.54493
3.45615
3.31234
3.06943
2.63982
1.84783
)
;

boundaryField
{
    up
    {
        type            fixedValue;
        value           uniform 0;
    }
    low
    {
        type            fixedValue;
        value           uniform 4;
    }
    left
    {
        type            fixedValue;
        value           uniform 4;
    }
    right
    {
        type            fixedValue;
        value           uniform 4;
    }
    frontAndBackPlanes
    {
        type            empty;
    }
}


// ************************************************************************* //
