/*--------------------------------*- C++ -*----------------------------------*\
  =========                 |
  \\      /  F ield         | OpenFOAM: The Open Source CFD Toolbox
   \\    /   O peration     | Website:  https://openfoam.org
    \\  /    A nd           | Version:  7
     \\/     M anipulation  |
\*---------------------------------------------------------------------------*/
FoamFile
{
    version     2.0;
    format      ascii;
    class       volScalarField;
    location    "0.23";
    object      gradTy;
}
// * * * * * * * * * * * * * * * * * * * * * * * * * * * * * * * * * * * * * //

dimensions      [0 -1 0 1 0 0 0];

internalField   nonuniform List<scalar> 
1596
(
-0.185117
-0.343755
-0.473606
-0.598167
-0.717479
-0.847133
-0.980499
-1.13539
-1.31882
-1.53592
-1.83438
-2.2142
-2.74091
-3.49181
-4.65954
-6.48102
-9.73491
-15.7368
-37.175
-0.563732
-0.694823
-0.783571
-0.865265
-0.944132
-1.03761
-1.14034
-1.26875
-1.42962
-1.62431
-1.89268
-2.23041
-2.68134
-3.28052
-4.12677
-5.26994
-6.96978
-9.46831
-16.5595
-1.0085
-1.05196
-1.07712
-1.10722
-1.14181
-1.19589
-1.26334
-1.35854
-1.48652
-1.64607
-1.86995
-2.14962
-2.51537
-2.98324
-3.6131
-4.41235
-5.5221
-7.04384
-10.309
-1.47427
-1.39955
-1.34921
-1.32284
-1.31108
-1.32384
-1.35352
-1.4118
-1.50189
-1.62094
-1.79566
-2.01534
-2.30131
-2.65993
-3.12911
-3.69986
-4.45504
-5.43603
-7.11633
-1.90339
-1.7179
-1.5944
-1.51255
-1.4553
-1.42693
-1.41861
-1.43913
-1.49025
-1.56824
-1.69483
-1.8589
-2.07589
-2.34741
-2.69863
-3.11526
-3.64928
-4.31503
-5.28594
-2.24391
-1.98797
-1.8075
-1.6776
-1.57909
-1.51213
-1.46763
-1.45175
-1.46531
-1.50436
-1.58645
-1.70128
-1.86022
-2.06274
-2.32621
-2.63572
-3.02554
-3.49767
-4.11813
-2.46781
-2.19487
-1.98314
-1.81835
-1.68616
-1.58542
-1.50827
-1.45891
-1.43779
-1.44123
-1.48333
-1.55522
-1.66543
-1.81257
-2.00898
-2.24098
-2.53193
-2.87842
-3.30624
-2.57506
-2.32947
-2.11457
-1.93185
-1.77645
-1.64891
-1.54418
-1.46549
-1.41349
-1.38523
-1.39201
-1.42668
-1.49571
-1.59751
-1.74107
-1.91452
-2.13415
-2.3945
-2.70527
-2.58762
-2.40206
-2.208
-2.02384
-1.856
-1.70905
-1.58195
-1.4781
-1.39895
-1.34257
-1.31816
-1.32035
-1.35409
-1.41795
-1.51855
-1.64589
-1.81141
-2.0091
-2.24184
-2.52406
-2.40306
-2.24569
-2.07599
-1.90834
-1.75185
-1.60986
-1.48697
-1.38589
-1.30602
-1.25515
-1.2296
-1.23336
-1.2653
-1.33047
-1.42062
-1.54394
-1.69466
-1.87263
-2.44397
-2.36883
-2.24832
-2.10036
-1.94123
-1.78284
-1.63221
-1.49557
-1.37716
-1.27792
-1.2048
-1.1557
-1.13402
-1.13901
-1.17461
-1.23412
-1.32341
-1.43722
-1.57405
-2.34426
-2.31619
-2.23141
-2.10764
-1.96152
-1.80628
-1.6516
-1.50533
-1.37329
-1.25797
-1.16603
-1.09677
-1.05328
-1.03526
-1.04588
-1.07971
-1.14099
-1.22506
-1.32986
-2.22019
-2.23415
-2.18429
-2.08671
-1.95751
-1.81044
-1.65678
-1.50578
-1.36467
-1.23739
-1.13067
-1.04509
-0.983673
-0.946583
-0.936514
-0.949156
-0.987622
-1.0479
-1.12775
-2.10986
-2.14777
-2.12532
-2.05149
-1.93951
-1.80263
-1.65274
-1.50011
-1.35312
-1.21697
-1.09872
-0.999981
-0.923932
-0.871148
-0.844046
-0.839212
-0.858993
-0.89995
-0.959889
-2.0076
-2.06443
-2.06296
-2.009
-1.91277
-1.78632
-1.64148
-1.48912
-1.33849
-1.19585
-1.06864
-0.95941
-0.871525
-0.805957
-0.764953
-0.74583
-0.750395
-0.77572
-0.819752
-1.90716
-1.98215
-1.99838
-1.96114
-1.87879
-1.76227
-1.62297
-1.47211
-1.31952
-1.17232
-1.03839
-0.921013
-0.823797
-0.748057
-0.695944
-0.665356
-0.657725
-0.670559
-0.701982
-1.81602
-1.90354
-1.93412
-1.91075
-1.84019
-1.73245
-1.59847
-1.4496
-1.29612
-1.14581
-1.00694
-0.883402
-0.779033
-0.695419
-0.634646
-0.595064
-0.577833
-0.580823
-0.602327
-1.73603
-1.8323
-1.87417
-1.86206
-1.80117
-1.70066
-1.57114
-1.42404
-1.27001
-1.11738
-0.974743
-0.846514
-0.73669
-0.647056
-0.579619
-0.533071
-0.508368
-0.503667
-0.517408
-1.65553
-1.76757
-1.82141
-1.8195
-1.76682
-1.6721
-1.54588
-1.39976
-1.24481
-1.08988
-0.943912
-0.81174
-0.697486
-0.603058
-0.530347
-0.478279
-0.447647
-0.436861
-0.444491
-1.57229
-1.70245
-1.76998
-1.77855
-1.73363
-1.64404
-1.52053
-1.37503
-1.21907
-1.0621
-0.913339
-0.77803
-0.66037
-0.562301
-0.485541
-0.42914
-0.393783
-0.378159
-0.381024
-1.50082
-1.64342
-1.72375
-1.74251
-1.70479
-1.61956
-1.49796
-1.35243
-1.19508
-1.03593
-0.884555
-0.74655
-0.626154
-0.52526
-0.445311
-0.385311
-0.345828
-0.325931
-0.324831
-1.43728
-1.59156
-1.68375
-1.71228
-1.68137
-1.59997
-1.47969
-1.33358
-1.17443
-1.01291
-0.858925
-0.718451
-0.595748
-0.492605
-0.410079
-0.346864
-0.303201
-0.278562
-0.273324
-1.37847
-1.54585
-1.6499
-1.68794
-1.66354
-1.58562
-1.46629
-1.3193
-1.15812
-0.994114
-0.837546
-0.694749
-0.570034
-0.465102
-0.380566
-0.31449
-0.266187
-0.234734
-0.222591
-1.32598
-1.50649
-1.62159
-1.66767
-1.6481
-1.5718
-1.45181
-1.30248
-1.13817
-0.971078
-0.811399
-0.666224
-0.539775
-0.433748
-0.348224
-0.28071
-0.228533
-0.188019
-0.156397
-1.28338
-1.47607
-1.60425
-1.66292
-1.65523
-1.58927
-1.47808
-1.33547
-1.17578
-1.0115
-0.852184
-0.705785
-0.576487
-0.466856
-0.377256
-0.306038
-0.24953
-0.202869
-0.158849
-1.25376
-1.45372
-1.58948
-1.65691
-1.65882
-1.60257
-1.50055
-1.36582
-1.21212
-1.05178
-0.893648
-0.746029
-0.613284
-0.498696
-0.403442
-0.327433
-0.267814
-0.221408
-0.183303
-1.25279
-1.45388
-1.59237
-1.66462
-1.67313
-1.62492
-1.5315
-1.40526
-1.25908
-1.10459
-0.950039
-0.803197
-0.668321
-0.549117
-0.447768
-0.365529
-0.300772
-0.251178
-0.212417
-1.28378
-1.47954
-1.61453
-1.68588
-1.6962
-1.65241
-1.5653
-1.44652
-1.30804
-1.16055
-1.01144
-0.867533
-0.732397
-0.609618
-0.502102
-0.412607
-0.341085
-0.286345
-0.244425
-1.34329
-1.53001
-1.6563
-1.72182
-1.72978
-1.68722
-1.60431
-1.49196
-1.36117
-1.22167
-1.07979
-0.941195
-0.808213
-0.683547
-0.570142
-0.472205
-0.391773
-0.329554
-0.282216
-1.42952
-1.60082
-1.71355
-1.76931
-1.77178
-1.72806
-1.64783
-1.54124
-1.41828
-1.28782
-1.15512
-1.02475
-0.897433
-0.774134
-0.656566
-0.549629
-0.457684
-0.384727
-0.329121
-1.54104
-1.69085
-1.78699
-1.83045
-1.8253
-1.7787
-1.69993
-1.59833
-1.48301
-1.36206
-1.23993
-1.1205
-1.00302
-0.886187
-0.768775
-0.654335
-0.548252
-0.459315
-0.390403
-1.66153
-1.79284
-1.87191
-1.90183
-1.88785
-1.83739
-1.75936
-1.66226
-1.55432
-1.44306
-1.33237
-1.2262
-1.12319
-1.02033
-0.9123
-0.798284
-0.679786
-0.568281
-0.475917
-1.79885
-1.90926
-1.9691
-1.98374
-1.95965
-1.90434
-1.82626
-1.73294
-1.63169
-1.52946
-1.42978
-1.33735
-1.25159
-1.17
-1.08473
-0.990109
-0.876877
-0.747836
-0.607854
-1.95907
-2.0443
-2.0827
-2.0811
-2.04677
-1.98707
-1.90963
-1.82094
-1.72725
-1.63476
-1.54686
-1.46883
-1.40211
-1.34748
-1.30006
-1.25589
-1.20046
-1.12578
-1.02225
-2.13688
-2.19309
-2.20473
-2.18163
-2.1317
-2.0621
-1.97925
-1.88867
-1.7954
-1.70422
-1.61826
-1.5417
-1.47676
-1.4261
-1.39019
-1.37177
-1.36662
-1.37106
-1.377
-2.33758
-2.35444
-2.33347
-2.28525
-2.21708
-2.13533
-2.04508
-1.95103
-1.85725
-1.76726
-1.68417
-1.61065
-1.54858
-1.4995
-1.4645
-1.44496
-1.44182
-1.45664
-1.49115
-2.55885
-2.52759
-2.4722
-2.39941
-2.31424
-2.22147
-2.12487
-2.02822
-1.93478
-1.84726
-1.76833
-1.69976
-1.64272
-1.59767
-1.56449
-1.54184
-1.52825
-1.52123
-1.51844
-2.76178
-2.68502
-2.5974
-2.50152
-2.40014
-2.29637
-2.19291
-2.09252
-1.99769
-1.91042
-1.83269
-1.7657
-1.71004
-1.66564
-1.63201
-1.6078
-1.59157
-1.58147
-1.57567
-2.92687
-2.81716
-2.70445
-2.58999
-2.47536
-2.36255
-2.2534
-2.14983
-2.0537
-1.96647
-1.88959
-1.82392
-1.76967
-1.72659
-1.69407
-1.6708
-1.65537
-1.64607
-1.64114
-3.05872
-2.92302
-2.79052
-2.66141
-2.53637
-2.41644
-2.30277
-2.19664
-2.09942
-2.01214
-1.93589
-1.87129
-1.81833
-1.77663
-1.74549
-1.72363
-1.70959
-1.70172
-1.69827
-3.15456
-2.99928
-2.85186
-2.71198
-2.57945
-2.45449
-2.33768
-2.2298
-2.13184
-2.04458
-1.96884
-1.9051
-1.85321
-1.8127
-1.7828
-1.76218
-1.74931
-1.74253
-1.74003
-3.21638
-3.04266
-2.88461
-2.73815
-2.60144
-2.47383
-2.35543
-2.2467
-2.14844
-2.06125
-1.98586
-1.92266
-1.87144
-1.83171
-1.80268
-1.78306
-1.7713
-1.76575
-1.7646
-3.21639
-3.04269
-2.88464
-2.73819
-2.60148
-2.47387
-2.35547
-2.24674
-2.14848
-2.0613
-1.9859
-1.92271
-1.87149
-1.83177
-1.80274
-1.78312
-1.77136
-1.76581
-1.76467
-3.15459
-2.99934
-2.85195
-2.71208
-2.57955
-2.4546
-2.3378
-2.22992
-2.13197
-2.04471
-1.96898
-1.90525
-1.85336
-1.81286
-1.78297
-1.76236
-1.74951
-1.74275
-1.74027
-3.05876
-2.92311
-2.79065
-2.66156
-2.53653
-2.41661
-2.30296
-2.19684
-2.09963
-2.01236
-1.93611
-1.87152
-1.81857
-1.77689
-1.74576
-1.72392
-1.7099
-1.70205
-1.69863
-2.92692
-2.81728
-2.70462
-2.59018
-2.47558
-2.36278
-2.25364
-2.15008
-2.05397
-1.96675
-1.88988
-1.82422
-1.76998
-1.72691
-1.6944
-1.67116
-1.65574
-1.64646
-1.64155
-2.76184
-2.68515
-2.59759
-2.50174
-2.40038
-2.29663
-2.1932
-2.09282
-1.998
-1.91075
-1.83303
-1.76606
-1.7104
-1.66602
-1.6324
-1.60821
-1.59199
-1.5819
-1.57612
-2.55891
-2.52774
-2.47239
-2.39965
-2.31452
-2.22176
-2.12519
-2.02856
-1.93514
-1.84763
-1.76872
-1.70016
-1.64313
-1.59808
-1.5649
-1.54225
-1.52864
-1.52161
-1.51879
-2.33765
-2.35461
-2.33372
-2.28557
-2.21745
-2.13576
-2.04556
-1.95155
-1.85783
-1.76789
-1.68485
-1.61139
-1.54938
-1.50036
-1.46543
-1.4459
-1.4427
-1.45731
-1.49144
-2.13692
-2.19312
-2.20477
-2.18168
-2.13177
-2.06218
-1.97934
-1.88876
-1.79548
-1.70428
-1.61828
-1.54166
-1.47663
-1.42584
-1.38981
-1.37128
-1.3662
-1.37101
-1.37783
-1.95909
-2.04439
-2.08286
-2.08136
-2.04712
-1.98752
-1.91017
-1.82158
-1.72798
-1.63557
-1.54774
-1.46979
-1.40317
-1.34868
-1.30151
-1.25774
-1.2029
-1.12898
-1.02631
-1.79886
-1.90928
-1.96915
-1.98385
-1.95982
-1.90459
-1.82657
-1.73332
-1.63214
-1.52996
-1.43034
-1.33796
-1.25229
-1.17082
-1.08573
-0.991308
-0.878226
-0.74917
-0.608857
-1.66154
-1.79284
-1.87195
-1.90191
-1.88801
-1.83762
-1.75967
-1.66264
-1.55477
-1.44357
-1.33294
-1.22685
-1.12392
-1.02115
-0.913219
-0.799259
-0.680728
-0.569087
-0.476552
-1.54103
-1.69083
-1.787
-1.83051
-1.82542
-1.7789
-1.70021
-1.59868
-1.48343
-1.36255
-1.24048
-1.12111
-1.00369
-0.886912
-0.769527
-0.655066
-0.548906
-0.459862
-0.39085
-1.42952
-1.6008
-1.71355
-1.76935
-1.77189
-1.72824
-1.64809
-1.54157
-1.41868
-1.28828
-1.15563
-1.02531
-0.898026
-0.774747
-0.657167
-0.550183
-0.458165
-0.385131
-0.329464
-1.34327
-1.52998
-1.65628
-1.72184
-1.72987
-1.68737
-1.60453
-1.49226
-1.36153
-1.22209
-1.08025
-0.94169
-0.808725
-0.684055
-0.570622
-0.472635
-0.392144
-0.32987
-0.282495
-1.28377
-1.47951
-1.6145
-1.68589
-1.69626
-1.65255
-1.5655
-1.44679
-1.30836
-1.16092
-1.01185
-0.867962
-0.732831
-0.610036
-0.502488
-0.412948
-0.341381
-0.286604
-0.244665
-1.25278
-1.45385
-1.59235
-1.66462
-1.67318
-1.62503
-1.53168
-1.4055
-1.25937
-1.10491
-0.950395
-0.803565
-0.668685
-0.549462
-0.448081
-0.365807
-0.301016
-0.251402
-0.212639
-1.25374
-1.45368
-1.58944
-1.65689
-1.65884
-1.60263
-1.50066
-1.36597
-1.21231
-1.05201
-0.893892
-0.746278
-0.613526
-0.49892
-0.40364
-0.327606
-0.26797
-0.221566
-0.183503
-1.2834
-1.47608
-1.60426
-1.66295
-1.65529
-1.58934
-1.47818
-1.33561
-1.17594
-1.01169
-0.852385
-0.705998
-0.576703
-0.467069
-0.37746
-0.306232
-0.24971
-0.20303
-0.158977
-1.326
-1.50651
-1.62161
-1.66767
-1.64808
-1.57176
-1.45175
-1.3024
-1.13808
-0.97098
-0.811299
-0.666128
-0.539685
-0.433666
-0.348148
-0.280639
-0.228463
-0.187944
-0.156305
-1.37849
-1.54586
-1.64991
-1.68795
-1.66354
-1.58562
-1.46629
-1.31929
-1.15811
-0.99411
-0.837544
-0.694749
-0.570037
-0.465106
-0.380572
-0.314499
-0.266197
-0.234747
-0.222603
-1.4373
-1.59157
-1.68376
-1.71229
-1.68137
-1.59996
-1.47968
-1.33357
-1.17442
-1.0129
-0.858917
-0.718445
-0.595746
-0.492606
-0.410082
-0.346869
-0.303208
-0.27857
-0.273332
-1.50083
-1.64343
-1.72375
-1.74251
-1.70479
-1.61956
-1.49795
-1.35242
-1.19507
-1.03593
-0.884549
-0.746547
-0.626153
-0.525261
-0.445314
-0.385316
-0.345834
-0.325937
-0.324837
-1.5723
-1.70246
-1.76999
-1.77855
-1.73363
-1.64404
-1.52052
-1.37502
-1.21907
-1.0621
-0.913336
-0.778028
-0.660369
-0.562303
-0.485544
-0.429144
-0.393787
-0.378163
-0.381028
-1.65554
-1.76757
-1.82141
-1.81949
-1.76681
-1.6721
-1.54587
-1.39976
-1.2448
-1.08988
-0.943909
-0.811739
-0.697486
-0.60306
-0.530349
-0.478282
-0.44765
-0.436864
-0.444494
-1.73603
-1.8323
-1.87417
-1.86205
-1.80116
-1.70066
-1.57113
-1.42403
-1.27001
-1.11737
-0.974742
-0.846514
-0.73669
-0.647057
-0.579621
-0.533073
-0.508369
-0.503668
-0.517409
-1.81602
-1.90354
-1.93412
-1.91075
-1.84019
-1.73245
-1.59846
-1.44959
-1.29612
-1.14581
-1.00694
-0.883402
-0.779033
-0.69542
-0.634647
-0.595064
-0.577834
-0.580824
-0.602327
-1.90716
-1.98215
-1.99838
-1.96114
-1.87879
-1.76226
-1.62297
-1.47211
-1.31952
-1.17232
-1.03839
-0.921013
-0.823797
-0.748057
-0.695944
-0.665356
-0.657724
-0.670558
-0.701981
-2.00759
-2.06443
-2.06295
-2.009
-1.91277
-1.78632
-1.64148
-1.48912
-1.33849
-1.19585
-1.06864
-0.95941
-0.871525
-0.805957
-0.764953
-0.745829
-0.750393
-0.775717
-0.819749
-2.10986
-2.14777
-2.12532
-2.05149
-1.93951
-1.80263
-1.65274
-1.50011
-1.35312
-1.21697
-1.09872
-0.99998
-0.923932
-0.871147
-0.844044
-0.839209
-0.858989
-0.899945
-0.959885
-2.22019
-2.23415
-2.18428
-2.08671
-1.95751
-1.81044
-1.65678
-1.50578
-1.36467
-1.23739
-1.13067
-1.04509
-0.983673
-0.946582
-0.936512
-0.949153
-0.987617
-1.04789
-1.12775
-2.34425
-2.31618
-2.23141
-2.10764
-1.96153
-1.80628
-1.6516
-1.50533
-1.37329
-1.25797
-1.16603
-1.09677
-1.05328
-1.03526
-1.04588
-1.07971
-1.14098
-1.22505
-1.32985
-2.44396
-2.36883
-2.24832
-2.10036
-1.94124
-1.78285
-1.63221
-1.49557
-1.37717
-1.27792
-1.2048
-1.1557
-1.13402
-1.13901
-1.17461
-1.23411
-1.3234
-1.43721
-1.57405
-2.52405
-2.40306
-2.2457
-2.076
-1.90834
-1.75186
-1.60987
-1.48697
-1.38589
-1.30602
-1.25515
-1.2296
-1.23336
-1.2653
-1.33046
-1.42062
-1.54393
-1.69465
-1.87263
-2.58762
-2.40207
-2.20801
-2.02384
-1.856
-1.70905
-1.58195
-1.4781
-1.39895
-1.34257
-1.31816
-1.32035
-1.35409
-1.41795
-1.51855
-1.64589
-1.8114
-2.00909
-2.24184
-2.57506
-2.32948
-2.11457
-1.93186
-1.77645
-1.64891
-1.54418
-1.46549
-1.41349
-1.38523
-1.39201
-1.42668
-1.49571
-1.59751
-1.74106
-1.91452
-2.13415
-2.3945
-2.70528
-2.46782
-2.19488
-1.98314
-1.81835
-1.68616
-1.58542
-1.50828
-1.45892
-1.43779
-1.44123
-1.48333
-1.55522
-1.66543
-1.81257
-2.00898
-2.24098
-2.53193
-2.87842
-3.30624
-2.24392
-1.98798
-1.80751
-1.6776
-1.57909
-1.51213
-1.46764
-1.45175
-1.46531
-1.50436
-1.58645
-1.70128
-1.86022
-2.06274
-2.3262
-2.63571
-3.02554
-3.49767
-4.11813
-1.9034
-1.7179
-1.59441
-1.51255
-1.4553
-1.42693
-1.41861
-1.43913
-1.49025
-1.56824
-1.69483
-1.8589
-2.07588
-2.34741
-2.69863
-3.11526
-3.64928
-4.31503
-5.28594
-1.47428
-1.39955
-1.34922
-1.32285
-1.31108
-1.32385
-1.35353
-1.41181
-1.5019
-1.62094
-1.79566
-2.01533
-2.3013
-2.65993
-3.12911
-3.69985
-4.45504
-5.43604
-7.11633
-1.00851
-1.05197
-1.07712
-1.10722
-1.14181
-1.19589
-1.26335
-1.35855
-1.48652
-1.64607
-1.86995
-2.14962
-2.51537
-2.98324
-3.61309
-4.41235
-5.5221
-7.04384
-10.309
-0.563736
-0.694823
-0.783572
-0.865265
-0.944133
-1.03761
-1.14034
-1.26876
-1.42962
-1.62431
-1.89268
-2.23041
-2.68133
-3.28052
-4.12677
-5.26994
-6.96978
-9.46831
-16.5595
-0.185118
-0.343755
-0.473606
-0.598167
-0.717479
-0.847134
-0.9805
-1.13539
-1.31882
-1.53592
-1.83438
-2.2142
-2.74091
-3.4918
-4.65954
-6.48102
-9.73491
-15.7368
-37.175
)
;

boundaryField
{
    up
    {
        type            calculated;
        value           nonuniform List<scalar> 
84
(
-33.6879
-18.2453
-11.1968
-7.63575
-5.62044
-4.35023
-3.47609
-2.83414
-2.34148
-1.95087
-1.63558
-1.37809
-1.16555
-0.989264
-0.842364
-0.719219
-0.615311
-0.527038
-0.451478
-0.385992
-0.328233
-0.275185
-0.220372
-0.140332
-0.135793
-0.172255
-0.201343
-0.232249
-0.268232
-0.312448
-0.369034
-0.443285
-0.557193
-1.01274
-1.41621
-1.51567
-1.51625
-1.57305
-1.63921
-1.69724
-1.73957
-1.76493
-1.765
-1.73982
-1.69762
-1.63963
-1.57351
-1.5166
-1.51562
-1.41711
-1.01748
-0.558129
-0.443844
-0.369451
-0.312776
-0.268503
-0.232486
-0.201567
-0.17252
-0.135958
-0.140232
-0.220383
-0.275193
-0.328238
-0.385996
-0.45148
-0.527039
-0.615311
-0.719217
-0.842361
-0.989261
-1.16555
-1.37809
-1.63558
-1.95088
-2.34148
-2.83415
-3.4761
-4.35024
-5.62044
-7.63575
-11.1968
-18.2453
-33.6879
)
;
    }
    low
    {
        type            calculated;
        value           nonuniform List<scalar> 
84
(
-0.198634
-0.588997
-1.06345
-1.56697
-2.03185
-2.39647
-2.62624
-2.72322
-2.70671
-2.60546
-2.50545
-2.38635
-2.2358
-2.11083
-2.00008
-1.88808
-1.78685
-1.70383
-1.61715
-1.51995
-1.43772
-1.36587
-1.29697
-1.23502
-1.17584
-1.13905
-1.13952
-1.18223
-1.25691
-1.36232
-1.49087
-1.62273
-1.77329
-1.94901
-2.13974
-2.3577
-2.60304
-2.82145
-2.99595
-3.13578
-3.23805
-3.30872
-3.30873
-3.23806
-3.1358
-2.99597
-2.82148
-2.60308
-2.35774
-2.13972
-1.94904
-1.77327
-1.62272
-1.49086
-1.36232
-1.2569
-1.18223
-1.13952
-1.13906
-1.17585
-1.23506
-1.29697
-1.36588
-1.43773
-1.51995
-1.61716
-1.70384
-1.78685
-1.88808
-2.00008
-2.11082
-2.2358
-2.38634
-2.50543
-2.60546
-2.70671
-2.72322
-2.62625
-2.39649
-2.03187
-1.56698
-1.06346
-0.589002
-0.198636
)
;
    }
    left
    {
        type            calculated;
        value           nonuniform List<scalar> 
19
(
-0.181573
-0.337279
-0.469618
-0.598232
-0.722436
-0.857299
-0.996499
-1.15876
-1.35138
-1.58223
-1.90129
-2.31078
-2.88512
-3.71686
-5.02214
-7.0914
-10.8311
-17.8107
-34.9411
)
;
    }
    right
    {
        type            calculated;
        value           nonuniform List<scalar> 
19
(
-0.181575
-0.337279
-0.469619
-0.598232
-0.722436
-0.8573
-0.996499
-1.15876
-1.35138
-1.58223
-1.90129
-2.31077
-2.88512
-3.71685
-5.02213
-7.0914
-10.8311
-17.8107
-34.9411
)
;
    }
    frontAndBackPlanes
    {
        type            empty;
    }
}


// ************************************************************************* //
