/*--------------------------------*- C++ -*----------------------------------*\
  =========                 |
  \\      /  F ield         | OpenFOAM: The Open Source CFD Toolbox
   \\    /   O peration     | Website:  https://openfoam.org
    \\  /    A nd           | Version:  7
     \\/     M anipulation  |
\*---------------------------------------------------------------------------*/
FoamFile
{
    version     2.0;
    format      ascii;
    class       volScalarField;
    location    "0.23";
    object      gradTz;
}
// * * * * * * * * * * * * * * * * * * * * * * * * * * * * * * * * * * * * * //

dimensions      [0 -1 0 1 0 0 0];

internalField   nonuniform List<scalar> 
1596
(
-3.22728e-16
-1.56761e-16
1.59438e-16
3.6022e-18
-3.03317e-16
0
-1.41379e-16
-1.39413e-16
-9.46453e-18
-7.35624e-17
-6.56914e-19
-7.32329e-17
3.22636e-16
-7.24843e-17
3.38602e-16
2.92267e-16
1.73864e-16
2.19627e-16
0
3.22279e-16
0
4.53069e-16
-3.26757e-18
-1.38378e-16
1.37127e-16
2.83322e-16
9.03236e-18
1.341e-16
-6.46876e-17
1.29125e-16
-1.90833e-18
-1.79203e-16
-1.12023e-16
-2.73737e-16
-2.67149e-16
-2.43099e-16
1.38417e-16
0
-1.57751e-16
0
-2.94968e-16
5.18695e-18
2.69364e-16
-7.61884e-17
6.12549e-18
-1.86704e-18
-1.8711e-18
-1.97381e-18
4.8435e-17
0
9.29522e-17
2.63467e-16
-2.59863e-17
2.0968e-17
4.92886e-17
7.71506e-17
0
2.48177e-16
-7.42062e-17
7.39353e-17
0
-7.09936e-17
-7.36395e-17
1.24452e-16
-1.07972e-16
0
0
-3.9691e-17
2.52971e-17
0
-7.74793e-17
-9.84808e-17
6.82827e-17
-7.05378e-17
-3.6273e-18
0
4.33998e-17
1.14728e-16
-1.02897e-16
0
-3.01859e-17
-9.20097e-17
0
1.3707e-16
-1.3606e-17
-1.23236e-17
-1.25379e-17
7.10816e-17
8.76845e-17
9.1333e-18
3.63681e-18
-7.38278e-17
3.71624e-18
3.4224e-17
-1.47706e-17
-1.12702e-17
-1.57378e-16
1.49043e-16
-1.29319e-16
-2.8293e-19
-1.13382e-16
3.19051e-18
-3.20111e-18
-8.89079e-17
0
-1.04296e-17
-8.41147e-17
-7.91902e-17
6.40436e-17
6.72364e-17
-9.15846e-19
-4.03286e-17
-3.47129e-17
2.65795e-17
9.41873e-17
-1.60135e-16
1.78533e-16
9.94618e-17
0
8.7137e-17
5.08956e-17
-2.44675e-17
1.12686e-16
-2.10989e-17
-8.96202e-17
7.93011e-19
-5.28567e-17
-6.43424e-17
-5.00289e-17
4.27843e-17
4.06836e-17
-5.44499e-19
-1.10677e-17
9.74489e-18
2.54618e-16
-2.97652e-16
0
0
-1.07098e-16
0
0
0
7.25954e-17
0
0
4.85617e-17
1.75876e-18
1.37049e-17
-3.74467e-17
0
1.99287e-17
7.8366e-18
0
-1.64543e-16
3.16148e-16
0
0
1.10296e-16
0
-4.14937e-17
4.14517e-17
-7.38916e-17
3.06125e-17
-3.08364e-17
0
4.44764e-17
4.3992e-17
0
-2.53755e-17
-2.03609e-17
-6.85426e-18
3.99778e-16
-1.86669e-16
0
-1.29984e-16
1.28529e-16
0
9.34855e-17
0
0
0
2.80379e-17
-2.81723e-17
0
-3.43931e-17
-9.79258e-18
0
3.01431e-18
1.43849e-17
0
-1.0148e-16
0
0
1.30283e-16
-2.42265e-16
1.317e-17
5.03772e-18
-3.8047e-17
4.46756e-18
1.6649e-18
-2.9306e-17
-4.67154e-17
0
3.52623e-17
-7.12794e-18
7.23492e-18
1.92156e-17
-1.13158e-17
-5.17389e-18
8.33702e-17
-9.51568e-18
8.00978e-17
2.71392e-16
-1.54833e-17
-1.12588e-16
0
0
0
6.03565e-17
2.39386e-17
8.60835e-17
-2.07704e-17
-3.46315e-17
-2.03698e-17
-1.12444e-17
5.02259e-18
-1.09664e-17
4.9154e-18
-9.28845e-17
9.10477e-17
-1.67739e-16
-2.68106e-16
2.47291e-16
9.64401e-17
-1.77589e-16
1.52214e-16
-1.30349e-16
3.40417e-17
2.56968e-17
-2.32343e-17
1.47288e-17
-1.34072e-17
3.94166e-17
0
-2.99366e-18
2.21628e-17
-3.30081e-18
-6.04954e-16
2.76819e-16
2.23351e-19
-5.94861e-17
8.16131e-18
9.3621e-17
-1.77367e-16
-7.21236e-17
6.08973e-17
-5.11688e-17
-4.31903e-17
0
-4.86347e-17
-1.44322e-17
-2.5612e-17
-1.52224e-17
1.19672e-18
-1.37143e-17
3.62361e-19
9.88727e-17
-8.76005e-17
1.69306e-19
-6.64075e-17
-1.63729e-16
1.53834e-16
7.15365e-19
7.02844e-17
-5.92915e-17
9.79734e-17
2.31169e-17
1.87704e-17
5.71426e-17
0
4.7016e-17
2.1611e-17
0
7.41448e-18
3.0187e-19
0
8.49826e-17
6.58341e-17
-1.37533e-16
1.58582e-16
-2.3649e-16
1.65965e-16
6.13523e-17
-9.65853e-18
-9.70391e-17
1.74143e-17
-1.73284e-17
-5.17802e-17
2.03237e-17
-1.02517e-17
-2.13968e-17
9.15887e-18
-5.70623e-18
2.29515e-18
-9.20925e-17
3.09772e-16
-2.31071e-16
1.24035e-16
0
0
-3.21665e-17
6.89547e-17
-4.78138e-17
8.94717e-17
0
0
3.46934e-17
-3.01276e-17
-2.10202e-17
6.64691e-18
-7.14258e-18
3.78597e-18
0
8.04038e-18
8.61281e-17
-6.85545e-17
-5.95574e-17
-9.46026e-17
-2.94184e-17
4.22799e-17
0
-4.479e-17
-3.57736e-17
3.18909e-17
-2.56298e-17
2.0485e-17
0
8.06562e-18
1.54837e-17
0
0
0
-7.71454e-18
1.35786e-16
5.06788e-17
-1.80036e-16
4.89869e-17
4.15573e-17
0
0
4.21406e-17
-2.20189e-17
-3.08454e-17
2.47887e-17
-1.98106e-17
0
-5.13134e-18
4.27208e-18
0
-3.63594e-18
-1.2757e-18
-7.33891e-17
2.15363e-16
-2.59775e-16
-1.02135e-16
5.38135e-17
-3.9239e-17
3.2485e-17
0
-2.14705e-17
1.77059e-17
0
0
7.66345e-18
-7.67228e-18
2.24752e-18
-3.07369e-18
5.13019e-18
6.78013e-19
9.52416e-19
3.80067e-17
-3.40209e-17
1.72129e-16
-1.10903e-16
-4.42092e-17
6.08998e-18
6.72883e-17
2.49528e-17
2.05441e-17
0
1.1377e-17
-1.05028e-17
8.2174e-18
-6.85531e-18
8.61099e-18
-1.47507e-17
-3.99435e-18
3.47478e-18
9.15213e-19
1.01223e-16
-1.02883e-16
0
9.17927e-17
-4.8665e-17
-3.54013e-17
2.36743e-17
-7.64141e-17
0
-1.37845e-18
-1.33269e-17
-9.34464e-18
1.32992e-17
-1.08884e-18
-8.32238e-18
6.08704e-18
0
2.15523e-18
-8.88664e-19
1.74247e-16
-3.04849e-17
1.2797e-16
-1.00132e-16
5.36353e-17
4.80089e-18
-6.07184e-17
-2.00367e-17
3.5786e-17
-1.62949e-18
-1.99979e-17
1.66835e-17
-7.21784e-18
-9.23104e-18
0
0
0
-2.17514e-18
8.03543e-20
-1.54146e-16
1.49883e-16
1.10404e-19
2.23675e-17
1.89963e-17
-4.49472e-17
5.24329e-17
-4.23324e-17
3.55491e-17
-1.13815e-17
2.15479e-17
7.46248e-18
-3.12911e-18
1.5423e-19
-1.06885e-18
-1.87523e-18
0
0
0
0
0
7.21078e-17
-3.61119e-17
-1.08286e-16
0
0
-1.23135e-17
-1.94469e-17
1.59936e-17
0
-9.41155e-18
7.15951e-18
-2.33416e-17
2.67005e-17
-8.50943e-18
9.046e-18
9.78596e-19
0
-2.98591e-17
3.02266e-17
0
-2.37877e-17
2.40899e-17
3.91433e-17
0
1.24311e-17
1.57545e-17
-7.12004e-17
0
-1.05934e-17
8.10725e-18
5.65083e-18
-4.12994e-18
5.98442e-18
0
-2.15816e-18
0
-1.5359e-17
-1.51768e-17
8.98332e-19
2.44412e-17
-6.48991e-17
0
-1.6272e-17
0
4.44968e-17
1.75796e-17
0
4.20235e-17
-4.34831e-17
4.55579e-18
-9.11157e-18
2.81516e-18
1.15377e-17
4.28153e-18
-3.39292e-18
0
3.16358e-17
-2.73911e-17
3.39215e-17
4.01397e-17
0
3.30274e-17
-3.10406e-17
-2.39179e-17
3.52294e-17
-5.28073e-17
-2.51802e-17
0
0
5.21606e-18
0
0
1.4526e-18
0
-1.40835e-16
1.08242e-16
0
1.77375e-18
-2.33398e-17
-1.2705e-18
2.04314e-17
1.42384e-17
-1.81357e-17
-4.46108e-17
6.95778e-17
-1.89485e-17
0
-8.70011e-18
0
0
0
-5.624e-18
4.49649e-18
-3.99633e-17
3.72192e-17
9.85428e-17
-9.60693e-17
2.92882e-17
1.73405e-18
-2.07503e-17
1.76774e-17
2.96813e-17
2.23557e-17
-4.4128e-17
0
2.20257e-17
2.71898e-18
-9.96143e-18
-2.13287e-17
1.75201e-17
-2.75094e-18
5.24646e-18
-1.35687e-16
1.93159e-16
-1.91296e-16
3.33436e-17
2.79989e-17
-2.6525e-17
2.21976e-17
-1.73718e-17
0
-1.4467e-17
2.27491e-17
9.84975e-18
1.57174e-17
1.94464e-17
-2.90033e-17
-5.89039e-19
0
-2.15374e-18
7.23738e-19
-1.46706e-16
-4.33211e-17
-7.53354e-17
4.0213e-17
-6.47795e-17
5.58255e-17
-3.31343e-17
2.76982e-17
-2.05007e-18
-2.03748e-18
-2.41384e-17
1.43688e-17
-7.70353e-18
2.36247e-17
-2.53614e-17
3.0045e-18
2.63805e-18
0
-1.26226e-18
1.58622e-16
-4.67577e-17
0
0
-6.66864e-17
1.29409e-16
-3.00882e-17
-5.69078e-18
4.65526e-17
-1.21829e-18
0
0
-1.03664e-17
0
-2.22454e-17
5.36352e-17
-3.70929e-17
0
5.08278e-19
5.40886e-17
1.00594e-16
0
-4.24577e-17
-3.42442e-17
-2.99903e-17
-3.13446e-17
1.28365e-17
-3.5719e-17
-1.93283e-17
0
0
1.41433e-17
0
0
-3.04035e-17
5.01839e-17
0
0
3.71231e-16
-4.46156e-17
-2.23263e-16
-1.20399e-16
1.63421e-16
5.16422e-17
3.03925e-17
0
-1.10334e-17
1.05684e-17
2.62951e-17
-8.44674e-18
-1.24109e-17
1.921e-17
-2.04335e-17
-6.20771e-18
0
0
0
2.97285e-17
-2.33347e-16
2.28659e-16
-2.17954e-17
-1.67431e-16
2.61456e-16
-1.30961e-16
0
0
6.85898e-17
-5.62118e-17
0
-1.67666e-17
2.92734e-17
-3.24216e-18
8.50597e-18
2.5826e-18
2.92561e-20
5.59801e-19
0
0
0
1.91027e-16
-1.28183e-16
1.33545e-16
-2.07952e-16
5.90592e-17
0
-2.10531e-17
3.35047e-17
-3.42438e-17
-6.66599e-18
-7.70192e-20
-4.54478e-18
-6.55645e-19
-3.62668e-18
-1.0212e-18
-5.5594e-19
2.48584e-16
-4.42558e-16
2.09392e-16
0
5.57479e-17
-7.59953e-17
7.56337e-17
-5.99871e-17
0
-2.89199e-17
4.05442e-17
0
0
-5.17813e-20
0
-4.74914e-18
3.24421e-18
5.85153e-19
8.88397e-19
2.42133e-16
0
-9.55007e-17
1.06652e-16
-6.65102e-17
1.45158e-16
-6.85008e-17
-5.32626e-17
5.38189e-17
-5.45463e-18
0
0
3.47399e-18
-5.83189e-18
-4.09008e-18
7.74649e-18
-1.67694e-18
8.54035e-19
0
1.37445e-16
1.06825e-16
-3.95072e-18
-1.01752e-16
-1.02263e-17
-7.34522e-17
8.13497e-18
6.15423e-17
-3.16937e-18
5.55706e-18
0
0
-3.55887e-18
0
4.18076e-18
-4.47241e-18
0
5.72501e-19
-1.58515e-19
-7.29469e-17
-5.36034e-17
5.02001e-17
-5.72421e-18
-2.56077e-18
6.89685e-18
0
-1.81209e-18
2.70407e-17
-2.27724e-17
0
7.66825e-18
-1.51535e-18
-6.75946e-18
-6.17607e-19
-4.81251e-19
0
-4.47703e-19
0
2.97221e-17
-5.64533e-17
-6.73827e-19
2.41662e-17
2.20018e-17
-2.18506e-17
-1.54103e-17
1.74406e-17
-5.95935e-18
4.66436e-18
-4.51351e-18
4.65271e-18
0
1.18492e-20
-4.5541e-19
1.636e-18
-5.59626e-21
0
0
2.97231e-17
-2.96117e-17
-2.40394e-17
2.13007e-17
3.88612e-17
-3.90906e-17
-7.70542e-18
7.72381e-18
-6.00983e-18
6.07288e-18
-4.51368e-18
8.51139e-18
-2.38723e-18
-1.71509e-18
-5.25409e-19
1.74434e-19
4.15363e-19
1.09786e-19
-8.23295e-20
0
-7.04157e-18
4.18572e-17
-4.5384e-17
3.87791e-17
-3.43848e-17
0
2.71424e-17
-2.42861e-17
0
8.97724e-18
-1.13623e-17
-6.45028e-18
6.7603e-18
1.24e-18
0
0
-4.47782e-19
1.62674e-19
1.1827e-16
-2.17532e-16
2.21347e-16
-1.93806e-16
7.61088e-17
-6.43059e-17
6.10411e-17
7.21846e-18
-2.68007e-17
2.39408e-17
0
-1.72553e-17
1.57197e-17
-2.97521e-18
-1.21458e-18
1.90301e-18
1.398e-18
4.3471e-19
-1.5718e-19
2.7297e-16
0
-1.08058e-16
8.39936e-17
1.01087e-17
-7.73614e-17
1.37002e-16
-1.21251e-16
4.75426e-17
-2.02168e-17
2.06937e-17
4.08936e-18
6.98933e-18
2.89788e-18
-2.39093e-18
-3.18531e-19
-3.02584e-18
0
3.07758e-19
2.18159e-16
-2.4557e-16
0
2.23659e-17
9.60554e-17
-9.40081e-17
1.59574e-17
1.4095e-17
6.15008e-18
1.0779e-17
0
0
-1.2151e-17
2.26935e-17
-8.28169e-18
-2.96408e-18
3.24518e-18
2.59573e-19
-5.84585e-19
2.07032e-17
2.15733e-16
-2.48096e-17
-1.68758e-16
1.48187e-16
1.76436e-17
-1.56173e-17
-1.37666e-17
4.50885e-17
-5.59266e-17
3.35158e-17
-3.42547e-17
5.30569e-18
-6.79648e-18
1.22934e-17
-8.20297e-18
0
0
5.85244e-19
0
5.3972e-17
-1.61319e-16
1.84403e-16
-1.48051e-16
1.47698e-16
0
5.06357e-17
-5.08678e-17
-3.79938e-17
5.62553e-17
0
2.31749e-17
-2.9296e-17
-4.33032e-18
0
-4.83306e-19
-9.53443e-19
-2.27341e-20
-5.14346e-16
2.44913e-16
0
-1.63393e-16
1.63377e-16
9.94388e-17
-6.53329e-17
2.67015e-17
0
-1.19074e-18
8.74119e-18
-8.43563e-18
-1.23953e-17
1.91833e-17
-2.03982e-17
0
4.36931e-18
-9.38628e-19
-5.91041e-19
3.16152e-16
-3.10686e-16
0
4.23462e-17
3.83399e-17
-3.49417e-17
0
-2.79834e-17
-2.38916e-17
0
-1.17397e-18
0
1.41504e-17
0
0
6.2171e-18
2.33218e-17
-3.02146e-17
0
3.84022e-20
4.67805e-17
-4.29885e-17
3.47885e-17
-1.7697e-16
6.75592e-17
0
5.69507e-18
1.61189e-17
0
-1.63822e-17
4.71198e-17
-4.95021e-17
8.22373e-18
0
-9.90554e-19
0
0
0
3.90595e-20
0
3.97321e-17
0
-6.07371e-17
6.17026e-17
0
2.17384e-17
-1.73013e-17
6.25093e-17
-3.01011e-17
1.07273e-17
-1.71616e-17
1.61999e-17
-2.53947e-17
-4.03786e-18
0
-2.59959e-18
0
1.22748e-16
-2.07625e-16
0
-3.33083e-17
2.97209e-17
0
0
-3.96517e-17
0
-1.44783e-17
-2.27682e-17
-9.85934e-18
1.57345e-17
0
8.23339e-18
0
0
5.66168e-18
-6.23204e-18
0
1.79068e-16
-1.43287e-16
3.08359e-17
-2.75218e-17
-1.11829e-17
3.21241e-17
3.58104e-17
-4.33365e-17
1.39619e-17
1.10087e-18
-1.27054e-17
5.18896e-17
-1.61193e-17
-3.69548e-17
1.26887e-17
-3.23309e-18
1.94058e-18
-5.82813e-19
-2.92409e-16
1.08242e-16
0
0
1.16951e-17
-1.18927e-17
8.36354e-18
5.37616e-18
3.90102e-17
1.97522e-17
-1.9484e-17
-8.56532e-19
-1.07404e-17
8.70872e-18
0
4.20808e-18
2.96336e-18
1.57423e-18
5.26781e-19
0
9.34594e-17
-8.68939e-17
2.7804e-17
2.84711e-17
-5.4832e-18
-1.7537e-17
-1.48608e-17
-4.87213e-17
1.94306e-17
-1.16632e-17
1.61143e-17
1.00436e-17
-1.23478e-17
1.31065e-17
8.17465e-18
-1.0675e-17
-1.45404e-18
0
-1.66194e-17
-7.43031e-17
2.64454e-17
2.44478e-17
-8.35872e-17
5.96548e-17
2.9287e-17
-2.99358e-17
2.26999e-17
-1.84406e-17
0
0
-1.48049e-17
2.64673e-17
-1.16111e-17
1.06984e-17
-1.17061e-17
1.91324e-18
-3.39635e-18
3.11506e-17
2.90006e-17
-2.62698e-17
2.03383e-17
-2.38631e-17
-3.59134e-17
0
0
0
0
0
0
7.57405e-18
-1.97471e-17
2.08847e-17
-6.6756e-18
8.23473e-18
3.83704e-18
-3.24886e-18
6.46124e-17
-1.09394e-16
1.36788e-16
-6.33899e-17
8.77533e-17
-6.31861e-17
1.1745e-16
-6.58828e-17
-3.4732e-17
3.55292e-17
0
9.40595e-18
-7.39946e-18
1.78281e-17
-6.08505e-18
-7.67282e-18
-1.5913e-17
1.20648e-18
2.7571e-18
1.00598e-16
2.88375e-17
0
-4.45877e-17
-3.49176e-17
7.97023e-17
7.82906e-18
-3.16905e-17
1.87558e-17
-1.31162e-17
0
-7.44587e-18
0
-5.92956e-18
4.78286e-18
-4.26925e-18
-1.40726e-18
9.8704e-19
0
1.40449e-16
-3.04845e-17
1.2792e-16
-1.00114e-16
-1.99652e-17
7.79579e-17
-4.67518e-17
2.42314e-18
1.98651e-18
-1.279e-17
1.23201e-17
0
0
7.24489e-18
-2.59109e-18
1.67172e-18
5.09481e-18
-1.77345e-18
0
2.92118e-20
0
-2.83935e-17
1.65724e-16
-1.11809e-16
-1.17687e-16
6.4363e-17
-6.62096e-17
6.12026e-17
2.99507e-17
-2.23885e-17
9.03012e-18
-8.00601e-18
1.42525e-18
1.29408e-17
4.4093e-19
-4.84985e-18
4.79773e-18
-9.88597e-19
3.41221e-16
-1.08713e-16
5.26148e-17
-1.62799e-16
4.4209e-17
-6.86244e-17
3.69685e-17
0
0
-1.41531e-18
-1.93732e-18
-5.71775e-19
0
-1.14136e-17
-8.6112e-18
6.28986e-18
-4.6157e-19
8.51425e-19
1.96641e-18
0
-1.07813e-16
1.81767e-16
3.99929e-17
-1.47284e-16
3.92388e-17
-5.97289e-17
1.03625e-17
4.82473e-17
0
0
8.87951e-19
9.79747e-18
0
-8.60026e-18
-3.88735e-18
5.72421e-19
-2.00817e-18
-2.31781e-18
0
-6.76558e-17
1.56135e-17
1.22595e-16
9.09033e-17
-1.66228e-16
7.53117e-17
-5.18695e-17
2.78303e-17
-3.80965e-17
0
0
0
-1.56954e-17
4.08147e-18
-5.15652e-18
0
-3.20381e-19
1.6017e-18
-2.56322e-16
2.42742e-16
2.58179e-16
-3.13282e-16
1.45427e-16
-1.36569e-16
0
5.47096e-17
-7.46229e-17
4.29962e-17
-3.32583e-17
2.70196e-17
2.18452e-17
1.62325e-17
1.27295e-17
0
0
0
0
2.84135e-16
-1.63356e-16
0
0
-5.31801e-17
1.28637e-16
-8.23212e-17
-5.79785e-17
5.7325e-17
4.22224e-17
7.04983e-17
-2.80355e-17
1.20309e-17
9.03588e-18
6.61272e-18
5.47135e-18
8.81456e-18
-4.32549e-19
4.4059e-19
-2.87645e-16
2.63864e-16
1.40113e-16
-7.30171e-17
1.58515e-16
-1.01687e-16
-7.98303e-17
-6.70961e-17
0
-8.87576e-17
4.53796e-18
3.2305e-17
-2.50651e-17
-2.03237e-17
-7.51064e-18
-7.85487e-18
-6.29041e-18
0
0
-9.89553e-17
0
7.63909e-17
-1.00986e-19
0
0
8.23475e-17
6.92337e-17
0
4.81963e-17
0
-4.90893e-17
-1.38361e-17
2.44919e-17
0
1.58229e-17
-2.2317e-18
2.27664e-18
0
2.10883e-16
0
1.46824e-16
-2.72036e-16
2.42037e-16
1.94243e-16
-6.25155e-18
0
5.34473e-18
5.64531e-17
0
-5.56181e-17
6.19986e-17
-5.52114e-17
-1.20412e-17
-1.26846e-17
-3.77787e-18
-6.82094e-19
-2.46967e-18
-1.95664e-16
2.81733e-16
-7.94732e-17
-2.07365e-16
-1.19562e-16
-1.02973e-16
-1.77007e-16
-7.06158e-17
5.8957e-18
2.57452e-17
-2.56968e-17
8.16669e-17
-3.61527e-17
7.24567e-17
-1.35736e-17
0
1.57032e-17
-9.31115e-18
2.48353e-18
4.33691e-16
-9.64878e-18
-3.28886e-16
2.71393e-16
-2.4324e-16
2.11344e-16
-6.96892e-18
-7.97692e-17
6.94346e-17
2.75368e-17
-3.59109e-18
-6.70637e-17
1.9302e-17
2.09008e-17
-6.27071e-18
6.34223e-18
-1.62647e-17
-1.82978e-18
-3.95495e-18
2.12904e-16
8.98156e-17
1.57638e-16
-1.38289e-16
-1.13725e-16
6.16798e-18
-8.69164e-17
2.10372e-16
7.3787e-18
9.7202e-17
5.69053e-17
-5.04292e-17
0
-3.52622e-17
0
0
2.32556e-17
1.01823e-17
4.60793e-18
1.99552e-16
0
1.55739e-16
1.37396e-16
-1.21876e-16
1.06328e-16
0
-8.24553e-17
-1.14326e-16
-9.95829e-17
-5.7409e-17
5.09994e-17
0
0
0
0
-2.18102e-17
-1.64841e-17
0
-3.90986e-16
0
-7.91091e-18
-6.99048e-18
1.85744e-16
-1.04507e-16
-4.79723e-17
-4.82074e-17
1.16526e-16
0
3.06123e-17
-3.2221e-18
2.78628e-17
0
0
3.6981e-17
-2.75974e-18
1.97981e-17
-7.65137e-18
2.74905e-16
7.91225e-17
-7.83058e-17
-6.90547e-17
-2.39326e-16
1.64277e-16
1.98254e-16
-5.68775e-18
-7.97375e-17
7.92109e-17
1.6614e-17
-8.46598e-17
-6.91162e-17
-4.24932e-17
-4.50812e-17
-4.26485e-17
3.59185e-17
-1.69207e-18
7.83662e-18
-8.44096e-17
3.83196e-17
-1.84531e-16
3.15369e-17
-3.14222e-17
0
-9.86827e-17
-7.28674e-18
-9.16728e-17
8.23942e-18
8.96198e-17
6.58843e-17
-1.62882e-17
6.39425e-18
4.28383e-17
0
-7.50457e-17
-2.77515e-17
-5.75754e-19
1.72056e-16
-4.67392e-18
2.90266e-16
-1.38189e-16
2.8293e-19
3.66404e-18
1.10098e-16
-9.01753e-18
8.89076e-17
-8.32457e-17
-7.83637e-17
0
7.919e-17
6.30508e-17
8.84462e-19
-1.28694e-18
4.07192e-17
2.8207e-17
0
-1.2224e-16
0
-2.91912e-17
1.31777e-16
1.9083e-18
3.02262e-17
-1.06463e-16
1.00592e-16
1.06847e-16
1.02439e-16
9.86005e-17
0
-7.69317e-17
0
4.1244e-18
-4.28356e-18
0
-4.12176e-19
2.03231e-17
8.48121e-17
4.53401e-18
-6.68787e-17
2.06525e-16
-6.62564e-17
0
0
-1.20441e-16
-1.03524e-16
-9.92403e-17
-1.8084e-16
-2.52971e-17
0
0
0
-8.48811e-18
8.98255e-18
5.76443e-17
-2.06338e-17
4.70831e-18
0
-1.44387e-16
-1.3187e-16
1.38326e-16
-1.37364e-16
-1.96673e-16
2.4088e-16
6.7299e-17
0
1.06831e-16
1.21729e-16
-2.62843e-17
1.43014e-16
-2.34423e-17
2.43977e-17
9.50233e-17
-5.47776e-17
0
-1.61966e-16
0
-1.54961e-16
1.5181e-16
0
2.73515e-16
1.28377e-16
-2.70041e-16
2.16279e-16
-1.37521e-18
-6.535e-17
-1.17859e-16
0
1.63445e-16
-2.73737e-16
2.93855e-16
-3.74503e-16
0
0
1.61313e-16
-1.08853e-18
-2.67894e-18
-3.06192e-16
3.09159e-16
-1.49366e-16
1.48757e-16
1.46615e-16
-1.29283e-16
0
0
2.44783e-16
-2.49e-16
-2.6578e-16
2.63602e-16
-2.56893e-16
2.7793e-16
-4.35435e-16
0
)
;

boundaryField
{
    up
    {
        type            calculated;
        value           nonuniform List<scalar> 
84
(
0
0
0
0
-1.47706e-17
2.65795e-17
-1.10677e-17
7.8366e-18
-6.85426e-18
0
-5.17389e-18
4.9154e-18
-3.30081e-18
3.62361e-19
3.0187e-19
2.29515e-18
0
0
-1.2757e-18
9.52416e-19
9.15213e-19
-8.88664e-19
8.03543e-20
0
3.59395e-19
1.74069e-19
-3.21846e-18
0
4.49649e-18
5.50916e-18
7.23738e-19
-1.26226e-18
5.08278e-19
0
-2.4937e-19
5.77955e-19
-5.54319e-19
8.86454e-19
0
-1.58134e-19
0
0
-8.23601e-20
1.62674e-19
-1.5718e-19
3.07758e-19
-5.84585e-19
5.85244e-19
-2.27341e-20
-5.91041e-19
0
0
0
-6.23204e-18
-8.45735e-19
5.26781e-19
0
-3.39635e-18
-3.24886e-18
2.39889e-18
0
0
-9.88597e-19
1.96641e-18
-2.31781e-18
1.6017e-18
0
4.4059e-19
0
0
-2.46967e-18
2.48353e-18
-3.95495e-18
4.60793e-18
0
-7.65137e-18
7.83662e-18
-5.75754e-19
0
2.03231e-17
-2.06338e-17
0
0
0
)
;
    }
    low
    {
        type            calculated;
        value           nonuniform List<scalar> 
84
(
-3.22965e-16
3.22279e-16
-1.57317e-16
2.48529e-16
4.36375e-17
-1.13404e-17
9.47758e-17
1.03074e-17
0
4.00434e-16
-1.0148e-16
8.301e-17
-9.28845e-17
-6.04963e-16
9.88727e-17
0
-9.20925e-17
8.04038e-18
-7.71454e-18
-7.33891e-17
3.80067e-17
1.01223e-16
1.73585e-16
-1.54146e-16
0
-2.98591e-17
-1.5359e-17
0
-1.40835e-16
-3.99633e-17
-1.35262e-16
-1.46373e-16
1.584e-16
5.40886e-17
3.71255e-16
2.97285e-17
0
2.48584e-16
2.42664e-16
1.37735e-16
-7.31018e-17
2.97221e-17
2.97231e-17
0
1.1827e-16
2.735e-16
2.18159e-16
2.10635e-17
0
-5.1437e-16
3.16152e-16
3.84022e-20
3.90595e-20
1.22748e-16
0
-2.91726e-16
0
-1.66194e-17
3.11506e-17
6.42055e-17
9.98853e-17
1.39787e-16
2.92118e-20
3.40676e-16
0
0
-2.56322e-16
2.83871e-16
-2.87472e-16
-9.89553e-17
2.10891e-16
-1.95664e-16
4.34411e-16
2.13412e-16
1.99552e-16
-3.90986e-16
2.74342e-16
-8.38211e-17
1.72056e-16
-1.22002e-16
8.48121e-17
5.14214e-18
-1.61966e-16
1.61432e-16
)
;
    }
    left
    {
        type            calculated;
        value           nonuniform List<scalar> 
19
(
-3.22728e-16
-1.56887e-16
1.59438e-16
3.6034e-18
-3.03405e-16
0
-1.41379e-16
-1.39413e-16
-9.931e-18
-7.35624e-17
-6.56914e-19
-7.32329e-17
3.25884e-16
-7.24843e-17
3.38602e-16
2.92267e-16
1.73864e-16
2.55069e-16
0
)
;
    }
    right
    {
        type            calculated;
        value           nonuniform List<scalar> 
19
(
1.61313e-16
-9.62405e-19
-2.67894e-18
-3.06193e-16
3.09246e-16
-1.49366e-16
1.48757e-16
1.46615e-16
-1.28816e-16
0
0
2.47095e-16
-2.52248e-16
-2.6578e-16
2.63602e-16
-2.56893e-16
2.7793e-16
-4.70877e-16
0
)
;
    }
    frontAndBackPlanes
    {
        type            empty;
    }
}


// ************************************************************************* //
