/*--------------------------------*- C++ -*----------------------------------*\
  =========                 |
  \\      /  F ield         | OpenFOAM: The Open Source CFD Toolbox
   \\    /   O peration     | Website:  https://openfoam.org
    \\  /    A nd           | Version:  7
     \\/     M anipulation  |
\*---------------------------------------------------------------------------*/
FoamFile
{
    version     2.0;
    format      ascii;
    class       volScalarField;
    location    "0.23";
    object      T;
}
// * * * * * * * * * * * * * * * * * * * * * * * * * * * * * * * * * * * * * //

dimensions      [0 0 0 1 0 0 0];

internalField   nonuniform List<scalar> 
1596
(
1.99441
1.97839
1.96206
1.94669
1.93266
1.91981
1.9079
1.89629
1.88452
1.8715
1.85639
1.83803
1.81388
1.78049
1.7325
1.65807
1.53518
1.31984
0.923838
1.97584
1.926
1.87917
1.8364
1.79776
1.76264
1.73025
1.69927
1.66852
1.63596
1.59985
1.55807
1.50684
1.44152
1.35649
1.24116
1.07929
0.842972
0.479429
1.9539
1.87015
1.79513
1.72809
1.66815
1.61415
1.56481
1.51836
1.4732
1.42693
1.37744
1.32232
1.25772
1.17927
1.08226
0.958708
0.797812
0.58303
0.283599
1.93229
1.81684
1.71642
1.62806
1.5498
1.47988
1.41661
1.35799
1.30218
1.24663
1.18918
1.12739
1.05769
0.976247
0.879309
0.760993
0.614179
0.429145
0.188003
1.9144
1.77161
1.64898
1.54199
1.44785
1.36433
1.28946
1.22107
1.15722
1.09535
1.03333
0.968773
0.898417
0.818929
0.727227
0.618837
0.488878
0.331467
0.13596
1.90243
1.73818
1.59684
1.47367
1.36556
1.27008
1.18512
1.10846
1.03811
0.97157
0.90674
0.841327
0.772309
0.696704
0.611865
0.51419
0.400094
0.265786
0.104631
1.89666
1.71757
1.56125
1.42418
1.30364
1.19734
1.10319
1.01903
0.942902
0.872366
0.80539
0.739744
0.672594
0.601189
0.523139
0.435364
0.335012
0.219407
0.0841235
1.89575
1.70815
1.54069
1.39204
1.26047
1.14422
1.04145
0.95014
0.868443
0.794029
0.724932
0.658981
0.593477
0.525825
0.453776
0.374564
0.285737
0.185202
0.0697515
1.89842
1.70771
1.53275
1.37477
1.23353
1.1081
0.997082
0.898769
0.811475
0.733017
0.661513
0.594851
0.53044
0.465787
0.398721
0.326657
0.247365
0.159036
0.0591319
1.90198
1.71168
1.5324
1.36742
1.21808
1.08443
0.965732
0.860674
0.767834
0.685214
0.611042
0.543275
0.479412
0.417038
0.35402
0.287885
0.216516
0.138236
0.050886
1.90482
1.71639
1.53506
1.36524
1.20946
1.0688
0.943224
0.831921
0.733794
0.647077
0.570135
0.50101
0.437289
0.376619
0.316894
0.25571
0.19101
0.121165
0.0442239
1.90832
1.72266
1.5406
1.36734
1.20638
1.05967
0.9279
0.810787
0.707611
0.616863
0.537072
0.466374
0.40244
0.342972
0.285878
0.228798
0.169703
0.106964
0.0387388
1.91162
1.72914
1.54717
1.3715
1.20637
1.05449
0.917219
0.794815
0.686939
0.592362
0.509786
0.437453
0.373111
0.31451
0.259564
0.20594
0.151617
0.0949419
0.0341309
1.91359
1.73373
1.55221
1.3749
1.20651
1.05037
0.908406
0.781385
0.669349
0.571345
0.486255
0.412426
0.34768
0.289808
0.236727
0.186121
0.135965
0.0845729
0.0301846
1.91523
1.73728
1.55606
1.3774
1.20629
1.04651
0.900487
0.76943
0.653735
0.552716
0.465422
0.390298
0.325233
0.268047
0.216656
0.168748
0.122287
0.0755476
0.0267734
1.9168
1.74032
1.55912
1.37909
1.20549
1.04244
0.892804
0.758169
0.639253
0.535607
0.446431
0.370254
0.305011
0.248544
0.198754
0.153325
0.110202
0.0676138
0.0237982
1.91783
1.74231
1.56082
1.37935
1.20335
1.03731
0.884427
0.746639
0.624939
0.519084
0.428398
0.351471
0.28627
0.230638
0.182454
0.139386
0.0993542
0.0605418
0.0211707
1.91851
1.74347
1.56137
1.37829
1.1999
1.031
0.875115
0.734499
0.61038
0.502689
0.410844
0.333469
0.268542
0.213891
0.167361
0.126597
0.089486
0.0541611
0.018824
1.91997
1.74555
1.56266
1.37771
1.19673
1.02483
0.865917
0.722525
0.596107
0.486745
0.393919
0.316264
0.251745
0.198156
0.153294
0.114772
0.0804342
0.0483586
0.0167131
1.92181
1.74845
1.5648
1.37784
1.19405
1.01901
0.856963
0.71077
0.582095
0.47115
0.37746
0.299643
0.235627
0.183155
0.139969
0.103642
0.0719778
0.0429867
0.0147852
1.9232
1.75095
1.56666
1.37773
1.19113
1.01291
0.847744
0.698803
0.567965
0.455561
0.36114
0.283283
0.219865
0.168562
0.127055
0.092891
0.0638421
0.0378593
0.012976
1.92464
1.75353
1.56869
1.37783
1.18843
1.00702
0.838709
0.687018
0.554032
0.440201
0.34508
0.267208
0.204387
0.154217
0.114316
0.082219
0.055708
0.032721
0.0111942
1.92635
1.75657
1.5713
1.37859
1.18641
1.00179
0.830306
0.675822
0.540637
0.425314
0.32942
0.25144
0.189105
0.139924
0.10145
0.0712107
0.0470614
0.0270584
0.00919276
1.9282
1.75992
1.5743
1.37983
1.18493
0.99717
0.822552
0.665274
0.527842
0.410927
0.314115
0.235845
0.173784
0.125354
0.08802
0.0592885
0.0371097
0.019818
0.00597765
1.93119
1.7673
1.58476
1.3921
1.19786
1.00973
0.833944
0.674899
0.535319
0.416079
0.316968
0.236613
0.172817
0.123084
0.0849037
0.0557563
0.0335975
0.0168729
0.00446849
1.93451
1.77691
1.60024
1.41262
1.22227
1.03663
0.861846
0.702359
0.561067
0.439128
0.336659
0.252678
0.18535
0.132465
0.0916763
0.0604925
0.0367698
0.0187894
0.00520712
1.9362
1.78278
1.6107
1.42765
1.24134
1.05884
0.886008
0.727157
0.585196
0.461431
0.356232
0.268973
0.198205
0.142082
0.0985231
0.0651353
0.0397318
0.0204613
0.00579266
1.93628
1.78474
1.61583
1.4367
1.25448
1.07569
0.905734
0.748623
0.60711
0.482514
0.375355
0.285296
0.211276
0.151877
0.105394
0.0696406
0.0424581
0.0218911
0.00624257
1.93533
1.78396
1.61715
1.44146
1.2634
1.0888
0.92248
0.768025
0.627911
0.503351
0.394915
0.302478
0.225325
0.162498
0.112784
0.0743493
0.0451708
0.0232217
0.00662324
1.93347
1.78121
1.61592
1.44354
1.2698
1.09982
0.937771
0.786717
0.648789
0.525011
0.41592
0.321503
0.241312
0.17482
0.121389
0.0797192
0.0481162
0.0245691
0.0069769
1.93114
1.77772
1.61392
1.44494
1.27576
1.11076
0.95344
0.806337
0.671198
0.548819
0.439639
0.343664
0.26058
0.190178
0.132381
0.0865859
0.0517315
0.0260854
0.00733805
1.92944
1.77533
1.61327
1.44787
1.28344
1.12365
0.971336
0.828533
0.696619
0.576156
0.467451
0.370457
0.284841
0.210504
0.147737
0.0966229
0.0570448
0.0281082
0.00771077
1.9279
1.77348
1.61351
1.45205
1.2927
1.13843
0.9915
0.853442
0.725306
0.607436
0.500022
0.402931
0.315715
0.238148
0.170517
0.113205
0.066938
0.0321768
0.00812412
1.92648
1.7722
1.61481
1.45773
1.30386
1.15552
1.01438
0.881557
0.757808
0.643308
0.538174
0.442242
0.354961
0.275898
0.205017
0.142378
0.0886722
0.0451063
0.0122345
1.92478
1.77008
1.61454
1.46103
1.3118
1.16857
1.03254
0.904446
0.784821
0.673698
0.571157
0.477048
0.390833
0.312004
0.240253
0.175075
0.116307
0.064414
0.0197924
1.92158
1.7636
1.60711
1.45436
1.30701
1.16629
1.033
0.907585
0.790352
0.681198
0.58014
0.487021
0.401333
0.322636
0.250703
0.185013
0.125249
0.0713969
0.0230432
1.91729
1.7543
1.59525
1.44163
1.29454
1.15476
1.02276
0.898702
0.782726
0.674587
0.574243
0.481527
0.395958
0.317184
0.245138
0.179499
0.120225
0.0676048
0.0214362
1.91377
1.74671
1.58562
1.43133
1.28449
1.1455
1.01456
0.891639
0.776719
0.669463
0.569797
0.477559
0.392304
0.313745
0.241916
0.176585
0.1178
0.0659305
0.0208084
1.91134
1.74128
1.57862
1.42379
1.27709
1.13867
1.00851
0.88642
0.772289
0.665706
0.566574
0.47474
0.389776
0.311439
0.239821
0.174741
0.116297
0.0649139
0.0204486
1.90952
1.73721
1.57337
1.41812
1.27151
1.13351
1.00392
0.882447
0.768904
0.662829
0.56411
0.472597
0.387876
0.309727
0.238286
0.173402
0.115211
0.0641825
0.0201951
1.90819
1.73423
1.56954
1.414
1.26747
1.12975
1.00057
0.879529
0.7664
0.660686
0.562264
0.470988
0.386449
0.308445
0.237137
0.172399
0.114395
0.0636292
0.0200007
1.90704
1.73199
1.56685
1.41121
1.2648
1.12731
0.99841
0.877661
0.764808
0.659337
0.561122
0.470018
0.385617
0.307727
0.236523
0.171885
0.113992
0.0633649
0.0199128
1.90704
1.732
1.56686
1.41123
1.26481
1.12733
0.998424
0.877675
0.764822
0.659351
0.561134
0.470029
0.385628
0.307736
0.23653
0.171891
0.113996
0.0633674
0.0199137
1.90819
1.73426
1.56957
1.41404
1.26751
1.1298
1.00061
0.879573
0.766443
0.660727
0.562303
0.471024
0.386481
0.308473
0.237161
0.172419
0.114409
0.0636377
0.0200036
1.90953
1.73725
1.57342
1.41818
1.27158
1.13357
1.00399
0.882516
0.768972
0.662894
0.564171
0.472654
0.387927
0.309772
0.238323
0.173432
0.115232
0.0641952
0.0201995
1.91136
1.74133
1.57868
1.42387
1.27717
1.13876
1.0086
0.886512
0.772379
0.665793
0.566655
0.474814
0.389842
0.311496
0.23987
0.174779
0.116324
0.0649302
0.0204541
1.91379
1.74676
1.58569
1.43142
1.28459
1.14561
1.01468
0.891753
0.77683
0.66957
0.569896
0.47765
0.392385
0.313814
0.241973
0.17663
0.117832
0.0659494
0.0208147
1.91732
1.75436
1.59534
1.44174
1.29466
1.15489
1.02289
0.898833
0.782854
0.674709
0.574357
0.48163
0.396049
0.31726
0.2452
0.179546
0.120257
0.0676227
0.0214416
1.9216
1.76366
1.60721
1.45448
1.30714
1.16643
1.03315
0.907733
0.790496
0.681333
0.580265
0.487131
0.401426
0.322711
0.250757
0.185047
0.125265
0.0714015
0.0230427
1.92481
1.77018
1.6147
1.46123
1.31205
1.16885
1.03284
0.904766
0.785151
0.674032
0.571491
0.477377
0.391154
0.312315
0.240551
0.175352
0.116551
0.0645955
0.0198702
1.92652
1.77231
1.61499
1.45797
1.30417
1.15586
1.01476
0.881961
0.758228
0.643737
0.538604
0.442666
0.355375
0.276293
0.205383
0.142699
0.0889261
0.0452713
0.0122939
1.92793
1.77358
1.61367
1.45226
1.29296
1.13873
0.991832
0.853793
0.725667
0.607799
0.500379
0.403275
0.316038
0.23844
0.170766
0.113399
0.0670671
0.0322409
0.00813677
1.92946
1.77542
1.61342
1.44807
1.2837
1.12393
0.97165
0.828862
0.696955
0.576488
0.467772
0.370758
0.285113
0.210739
0.147925
0.0967581
0.057128
0.0281483
0.00772099
1.93117
1.77781
1.61406
1.44513
1.276
1.11103
0.953735
0.806644
0.671508
0.549122
0.439926
0.343927
0.26081
0.19037
0.132528
0.0866881
0.0517939
0.0261167
0.00734682
1.9335
1.78128
1.61605
1.44372
1.27002
1.10007
0.938045
0.787002
0.649074
0.525286
0.416176
0.321734
0.241509
0.174979
0.121509
0.0798017
0.0481673
0.0245957
0.00698467
1.93535
1.78403
1.61726
1.44163
1.2636
1.08903
0.922732
0.768286
0.62817
0.503599
0.395143
0.302679
0.225494
0.162633
0.112884
0.0744189
0.0452146
0.0232451
0.00663035
1.9363
1.7848
1.61594
1.43684
1.25466
1.0759
0.905963
0.748859
0.607343
0.482735
0.375556
0.285471
0.211422
0.151992
0.10548
0.069701
0.042497
0.0219125
0.00624938
1.93621
1.78283
1.61079
1.42778
1.2415
1.05903
0.886213
0.727369
0.585403
0.461627
0.356409
0.269126
0.198332
0.142182
0.0985987
0.0651893
0.0397677
0.0204819
0.00579964
1.93452
1.77696
1.60032
1.41274
1.22241
1.0368
0.862027
0.702545
0.56125
0.4393
0.336814
0.252812
0.185461
0.132553
0.0917441
0.0605422
0.036804
0.0188102
0.00521485
1.93119
1.7673
1.58478
1.39213
1.1979
1.00978
0.833997
0.674954
0.535374
0.41613
0.317013
0.23665
0.172847
0.123106
0.0849174
0.0557633
0.0335995
0.0168718
0.00446699
1.92819
1.75991
1.57428
1.3798
1.1849
0.997136
0.822516
0.665238
0.527808
0.410896
0.314087
0.23582
0.173762
0.125335
0.0880029
0.0592736
0.0370973
0.0198088
0.00597329
1.92635
1.75657
1.57129
1.37859
1.1864
1.00178
0.830302
0.67582
0.540637
0.425315
0.329423
0.251445
0.189109
0.139929
0.101454
0.0712145
0.0470643
0.0270602
0.00919322
1.92464
1.75352
1.56869
1.37783
1.18843
1.00701
0.838707
0.687017
0.554033
0.440203
0.345083
0.267212
0.204391
0.15422
0.11432
0.0822218
0.05571
0.0327221
0.0111946
1.9232
1.75095
1.56666
1.37772
1.19113
1.01291
0.847743
0.698803
0.567966
0.455564
0.361142
0.283286
0.219868
0.168565
0.127058
0.0928931
0.0638436
0.0378601
0.0129762
1.92181
1.74845
1.56479
1.37783
1.19405
1.01901
0.856963
0.710771
0.582097
0.471153
0.377463
0.299646
0.23563
0.183157
0.139971
0.103644
0.0719788
0.0429873
0.0147853
1.91997
1.74555
1.56266
1.37771
1.19672
1.02483
0.865918
0.722526
0.596109
0.486747
0.393921
0.316266
0.251747
0.198157
0.153295
0.114773
0.080435
0.048359
0.0167133
1.91851
1.74346
1.56137
1.37829
1.1999
1.031
0.875116
0.7345
0.610382
0.502691
0.410846
0.333471
0.268543
0.213892
0.167362
0.126598
0.0894865
0.0541613
0.0188241
1.91783
1.74231
1.56082
1.37935
1.20335
1.03731
0.884428
0.746641
0.624941
0.519086
0.4284
0.351472
0.286271
0.230639
0.182454
0.139386
0.0993545
0.0605419
0.0211707
1.9168
1.74032
1.55912
1.3791
1.20549
1.04244
0.892805
0.75817
0.639254
0.535608
0.446432
0.370254
0.305012
0.248545
0.198755
0.153325
0.110202
0.0676138
0.0237982
1.91523
1.73728
1.55607
1.3774
1.20629
1.04651
0.900488
0.769431
0.653736
0.552717
0.465422
0.390299
0.325233
0.268047
0.216656
0.168748
0.122287
0.0755474
0.0267734
1.91359
1.73374
1.55222
1.3749
1.20651
1.05037
0.908407
0.781386
0.669349
0.571346
0.486255
0.412426
0.34768
0.289807
0.236727
0.186121
0.135965
0.0845726
0.0301845
1.91162
1.72914
1.54717
1.3715
1.20637
1.05449
0.917219
0.794815
0.686939
0.592362
0.509786
0.437453
0.373111
0.314509
0.259563
0.205939
0.151616
0.0949416
0.0341309
1.90832
1.72266
1.5406
1.36735
1.20639
1.05967
0.9279
0.810787
0.707611
0.616863
0.537071
0.466373
0.402439
0.342971
0.285877
0.228797
0.169702
0.106963
0.0387388
1.90482
1.71639
1.53506
1.36524
1.20946
1.0688
0.943224
0.83192
0.733794
0.647076
0.570134
0.501009
0.437287
0.376618
0.316893
0.255709
0.191009
0.121165
0.044224
1.90198
1.71168
1.5324
1.36742
1.21808
1.08443
0.965731
0.860673
0.767833
0.685213
0.61104
0.543273
0.47941
0.417036
0.354019
0.287884
0.216515
0.138236
0.0508862
1.89843
1.70771
1.53275
1.37477
1.23353
1.1081
0.997081
0.898767
0.811473
0.733015
0.661511
0.594849
0.530438
0.465786
0.39872
0.326656
0.247364
0.159036
0.0591321
1.89575
1.70815
1.54069
1.39204
1.26047
1.14422
1.04144
0.950138
0.868441
0.794027
0.72493
0.658979
0.593475
0.525823
0.453775
0.374563
0.285737
0.185202
0.0697518
1.89666
1.71756
1.56125
1.42418
1.30363
1.19734
1.10319
1.01903
0.942899
0.872364
0.805388
0.739742
0.672592
0.601188
0.523138
0.435364
0.335012
0.219407
0.0841238
1.90243
1.73818
1.59684
1.47367
1.36555
1.27008
1.18512
1.10846
1.03811
0.971568
0.906738
0.841325
0.772307
0.696703
0.611865
0.51419
0.400094
0.265786
0.104631
1.9144
1.7716
1.64897
1.54199
1.44785
1.36433
1.28945
1.22106
1.15721
1.09535
1.03332
0.968771
0.898415
0.818928
0.727227
0.618837
0.488879
0.331467
0.13596
1.93229
1.81684
1.71642
1.62805
1.54979
1.47987
1.41661
1.35799
1.30218
1.24663
1.18918
1.12739
1.05768
0.976247
0.879309
0.760994
0.61418
0.429145
0.188003
1.9539
1.87015
1.79513
1.72808
1.66815
1.61415
1.5648
1.51835
1.4732
1.42692
1.37744
1.32232
1.25771
1.17927
1.08226
0.958708
0.797813
0.58303
0.283599
1.97584
1.926
1.87917
1.8364
1.79776
1.76264
1.73025
1.69927
1.66852
1.63596
1.59985
1.55807
1.50684
1.44152
1.35649
1.24116
1.07929
0.842971
0.479429
1.99441
1.97839
1.96206
1.94669
1.93266
1.91981
1.9079
1.89629
1.88452
1.8715
1.85639
1.83803
1.81388
1.78049
1.7325
1.65807
1.53518
1.31984
0.923838
)
;

boundaryField
{
    up
    {
        type            fixedValue;
        value           uniform 0;
    }
    low
    {
        type            fixedValue;
        value           uniform 2;
    }
    left
    {
        type            fixedValue;
        value           uniform 2;
    }
    right
    {
        type            fixedValue;
        value           uniform 2;
    }
    frontAndBackPlanes
    {
        type            empty;
    }
}


// ************************************************************************* //
