/*--------------------------------*- C++ -*----------------------------------*\
  =========                 |
  \\      /  F ield         | OpenFOAM: The Open Source CFD Toolbox
   \\    /   O peration     | Website:  https://openfoam.org
    \\  /    A nd           | Version:  7
     \\/     M anipulation  |
\*---------------------------------------------------------------------------*/
FoamFile
{
    version     2.0;
    format      ascii;
    class       volScalarField;
    location    "0.036";
    object      gradTx;
}
// * * * * * * * * * * * * * * * * * * * * * * * * * * * * * * * * * * * * * //

dimensions      [0 -1 0 1 0 0 0];

internalField   nonuniform List<scalar> 
1596
(
-0.575858
-2.86357
-4.90474
-6.40425
-7.36555
-7.88063
-8.11776
-8.18471
-8.1555
-8.09267
-7.98144
-7.8561
-7.75151
-7.74056
-7.93065
-8.57757
-10.0278
-12.9188
-18.4534
0.224259
-2.10473
-4.02546
-5.41734
-6.32256
-6.82498
-7.06863
-7.14505
-7.12992
-7.07247
-6.97243
-6.85229
-6.70179
-6.52094
-6.29985
-6.05323
-5.75484
-5.32455
-4.49484
0.895369
-1.21468
-2.86587
-4.05551
-4.84011
-5.29136
-5.52071
-5.60426
-5.60825
-5.57371
-5.50999
-5.4339
-5.32851
-5.17396
-4.934
-4.57281
-4.03687
-3.26739
-2.1257
1.06473
-0.518655
-1.7624
-2.67847
-3.30114
-3.67694
-3.87936
-3.96568
-3.9877
-3.978
-3.95162
-3.9219
-3.8773
-3.79803
-3.64733
-3.37371
-2.91298
-2.20732
-1.17412
0.655078
-0.227829
-0.989592
-1.59251
-2.0287
-2.31104
-2.4747
-2.55502
-2.58704
-2.59409
-2.59229
-2.59212
-2.58905
-2.57013
-2.50888
-2.35748
-2.05424
-1.53635
-0.734889
-0.177318
-0.377685
-0.657371
-0.936892
-1.17272
-1.34571
-1.45739
-1.51997
-1.55113
-1.56431
-1.57268
-1.58379
-1.59769
-1.6082
-1.60044
-1.53908
-1.37449
-1.04589
-0.485781
-1.1922
-0.863544
-0.721143
-0.692484
-0.723333
-0.773876
-0.820326
-0.853259
-0.873505
-0.884296
-0.893095
-0.904216
-0.919236
-0.936241
-0.948827
-0.935063
-0.860901
-0.676202
-0.318731
-2.17448
-1.50663
-1.0396
-0.74377
-0.58007
-0.503697
-0.476157
-0.470562
-0.472722
-0.47583
-0.480439
-0.487302
-0.49743
-0.5106
-0.524988
-0.528938
-0.502265
-0.409444
-0.200099
-3.13848
-2.29431
-1.58327
-1.04649
-0.684352
-0.464863
-0.345816
-0.287548
-0.262064
-0.251817
-0.249259
-0.250781
-0.25536
-0.262623
-0.272367
-0.279188
-0.272666
-0.230871
-0.118082
-3.71051
-2.86299
-2.04525
-1.36158
-0.856914
-0.522784
-0.323819
-0.215941
-0.162601
-0.138116
-0.12812
-0.125019
-0.125494
-0.12827
-0.133195
-0.137948
-0.1378
-0.120845
-0.0648848
-4.19254
-3.36549
-2.49196
-1.70364
-1.082
-0.645071
-0.369375
-0.211108
-0.128071
-0.0877511
-0.0696499
-0.0622474
-0.0598122
-0.0598376
-0.0615837
-0.0639102
-0.0648634
-0.0586808
-0.033076
-4.71256
-3.90863
-2.98788
-2.10305
-1.36646
-0.823378
-0.46497
-0.250358
-0.133019
-0.0738135
-0.046046
-0.0338978
-0.0289577
-0.0272587
-0.0272332
-0.0279483
-0.0285367
-0.0264564
-0.0156044
-4.93182
-4.2127
-3.30585
-2.38393
-1.5826
-0.970148
-0.552501
-0.294846
-0.149927
-0.0748405
-0.0387023
-0.0224336
-0.0154974
-0.0127108
-0.0117942
-0.0116853
-0.0118221
-0.0111172
-0.00681988
-5.08036
-4.43489
-3.55025
-2.60706
-1.75913
-1.09392
-0.629772
-0.337582
-0.170109
-0.0817782
-0.0385612
-0.0187851
-0.0102055
-0.00664679
-0.00526329
-0.00478516
-0.00466578
-0.00438113
-0.00276976
-5.21357
-4.62278
-3.75252
-2.7895
-1.90227
-1.19396
-0.692576
-0.373132
-0.188039
-0.0894211
-0.0407345
-0.0182581
-0.00843157
-0.00432395
-0.00267627
-0.00203832
-0.001807
-0.00164189
-0.00105147
-5.2542
-4.7253
-3.87435
-2.90129
-1.98913
-1.25354
-0.729229
-0.393555
-0.198305
-0.0939176
-0.042246
-0.0183253
-0.00784584
-0.00346151
-0.00169609
-0.00100138
-0.000733886
-0.000605286
-0.000378957
-5.1823
-4.71928
-3.89609
-2.92623
-2.00691
-1.26323
-0.733233
-0.394589
-0.19813
-0.0933816
-0.0416891
-0.0178202
-0.00739132
-0.00304166
-0.00129606
-0.000611249
-0.00034645
-0.000235602
-0.000134456
-5.06465
-4.64482
-3.845
-2.88312
-1.96796
-1.23058
-0.708892
-0.37846
-0.188498
-0.0881012
-0.038982
-0.0164791
-0.00672
-0.00267892
-0.00106899
-0.000442496
-0.000202325
-0.000107244
-5.05955e-05
-4.99713
-4.60986
-3.81246
-2.84054
-1.91925
-1.18529
-0.673595
-0.354636
-0.174196
-0.080307
-0.0350559
-0.0146149
-0.00586742
-0.00229105
-0.000883816
-0.000343045
-0.00013858
-6.01006e-05
-2.2354e-05
-4.70902
-4.40151
-3.64608
-2.69889
-1.80176
-1.09581
-0.612231
-0.316689
-0.152843
-0.0692578
-0.0297335
-0.0121964
-0.0048175
-0.00184839
-0.000697699
-0.000261931
-9.96351e-05
-3.86714e-05
-1.20286e-05
-4.32069
-4.09394
-3.39728
-2.49511
-1.64178
-0.98011
-0.536326
-0.271494
-0.128237
-0.0568984
-0.0239396
-0.00963194
-0.00373442
-0.00140674
-0.000520887
-0.000191112
-7.03514e-05
-2.58601e-05
-7.32952e-06
-3.84784
-3.69163
-3.06812
-2.23456
-1.44749
-0.846643
-0.452694
-0.223649
-0.103084
-0.0446537
-0.0183596
-0.0072262
-0.00274365
-0.00101301
-0.000367837
-0.00013226
-4.75874e-05
-1.69896e-05
-4.62199e-06
-3.23217
-3.13814
-2.61561
-1.89305
-1.20992
-0.69477
-0.36358
-0.175503
-0.0789918
-0.0334189
-0.013429
-0.0051709
-0.00192286
-0.000696144
-0.000248136
-8.76669e-05
-3.10445e-05
-1.09735e-05
-3.02577e-06
-2.43395
-2.30234
-1.86601
-1.31119
-0.813357
-0.453455
-0.230528
-0.108122
-0.047267
-0.0194011
-0.00754992
-0.00280803
-0.00100523
-0.000348935
-0.000118697
-3.98628e-05
-1.3496e-05
-4.77694e-06
-1.53023e-06
-1.63951
-1.68281
-1.47234
-1.10505
-0.724867
-0.423953
-0.225043
-0.109999
-0.0501694
-0.0215692
-0.00883221
-0.00348126
-0.00133035
-0.000496841
-0.000182949
-6.71079e-05
-2.50454e-05
-1.02478e-05
-5.32671e-06
-0.539305
-0.546297
-0.502146
-0.409964
-0.29682
-0.19228
-0.112806
-0.0606303
-0.0302318
-0.0141282
-0.00625153
-0.00265104
-0.00108555
-0.000432978
-0.000169545
-6.57143e-05
-2.57377e-05
-1.12161e-05
-6.67469e-06
0.586801
0.556057
0.419042
0.249413
0.113461
0.0331761
-0.00185265
-0.0112095
-0.0101475
-0.00666277
-0.00371548
-0.00187694
-0.000884398
-0.000397358
-0.000172573
-7.29674e-05
-3.04446e-05
-1.38812e-05
-8.74931e-06
1.67426
1.60642
1.30968
0.910903
0.546612
0.285684
0.130574
0.0518267
0.0173054
0.00432272
0.000337421
-0.000507665
-0.000471641
-0.000296428
-0.000160533
-7.94892e-05
-3.62702e-05
-1.67545e-05
-1.06868e-05
2.582
2.45768
2.03907
1.47694
0.942206
0.534674
0.272374
0.125336
0.0522444
0.0196283
0.00655486
0.00183243
0.000334387
-5.54488e-05
-0.000109339
-8.19464e-05
-4.49852e-05
-2.03563e-05
-1.1367e-05
3.41648
3.20433
2.67273
1.98192
1.31447
0.785957
0.42731
0.212791
0.0977052
0.0415168
0.0163976
0.00598355
0.00197311
0.000534744
6.81436e-05
-5.42183e-05
-5.46661e-05
-2.60385e-05
-8.01398e-06
3.92544
3.64128
3.05507
2.31434
1.58929
0.995353
0.57275
0.304931
0.151342
0.0704487
0.0310291
0.012985
0.00516294
0.00190723
0.000604882
0.000106377
-3.64014e-05
-3.3648e-05
3.71119e-06
4.31272
3.97394
3.35067
2.58419
1.82885
1.19333
0.722512
0.408548
0.217422
0.109675
0.0530023
0.0247453
0.0112452
0.0049549
0.00206574
0.000721177
0.00015497
-9.977e-06
1.26252e-05
4.59421
4.19399
3.54717
2.77888
2.02125
1.37008
0.870214
0.52096
0.296205
0.161163
0.0848857
0.0437429
0.022299
0.0112972
0.00566594
0.00265791
0.00107724
0.000326665
0.000166472
4.66594
4.19407
3.53019
2.7802
2.05084
1.41972
0.92546
0.570043
0.333418
0.186002
0.0996824
0.0516297
0.0259701
0.0126205
0.00575286
0.00201424
-0.000120058
-0.00139214
-0.00192537
4.61094
4.12594
3.50062
2.81485
2.14622
1.55364
1.07057
0.704245
0.444177
0.269763
0.158758
0.091142
0.0513359
0.0284735
0.0155261
0.00799931
0.00335158
7.6163e-05
-0.00253815
4.51514
4.02721
3.43778
2.80367
2.18406
1.62687
1.16149
0.79703
0.527887
0.33888
0.212075
0.130262
0.078953
0.0474718
0.0284222
0.0168163
0.0095462
0.00467582
0.000996399
4.09675
3.56628
2.98754
2.40134
1.85094
1.36953
0.974927
0.66959
0.445544
0.288409
0.182651
0.113931
0.0703295
0.0431351
0.0263061
0.0157465
0.00887861
0.00413749
0.00057238
3.47601
3.01519
2.52312
2.0317
1.57369
1.17374
0.844789
0.588294
0.397957
0.262523
0.169805
0.108385
0.0685684
0.0431378
0.0269839
0.0165483
0.00953862
0.00453619
0.000658208
2.81081
2.43709
2.03874
1.64349
1.27689
0.957326
0.694109
0.487964
0.333911
0.22325
0.146622
0.0951765
0.0613121
0.0393024
0.0250421
0.0156149
0.00911703
0.00435792
0.000586115
2.07437
1.79351
1.49857
1.20884
0.941572
0.709024
0.517244
0.366486
0.253166
0.171128
0.11379
0.0748772
0.0489444
0.031852
0.0206024
0.0130317
0.00771345
0.00375001
0.00056822
1.289
1.10447
0.918609
0.739703
0.576299
0.434764
0.318183
0.226443
0.157297
0.107029
0.0717082
0.0475839
0.0313846
0.0206117
0.0134464
0.00856219
0.00508018
0.00244614
0.000305013
0.490132
0.414194
0.341669
0.273472
0.211969
0.159152
0.115945
0.0821478
0.0568134
0.0384902
0.0256774
0.0169662
0.0111419
0.00728355
0.00472426
0.00298057
0.00173282
0.000780002
-5.7611e-06
-0.489895
-0.413655
-0.34095
-0.272684
-0.211197
-0.158455
-0.115354
-0.0816708
-0.0564435
-0.0382128
-0.0254743
-0.0168199
-0.0110379
-0.00721026
-0.00467313
-0.00294584
-0.0017108
-0.000768469
7.9757e-06
-1.28878
-1.10398
-0.917972
-0.739014
-0.575634
-0.434172
-0.317687
-0.226049
-0.156995
-0.106806
-0.0715473
-0.0474697
-0.0313045
-0.0205562
-0.0134083
-0.00853703
-0.00506502
-0.00243928
-0.000305577
-2.07413
-1.79303
-1.49795
-1.20818
-0.940944
-0.708474
-0.516792
-0.366132
-0.252901
-0.170936
-0.113654
-0.0747829
-0.0488797
-0.0318079
-0.0205725
-0.0130117
-0.00770059
-0.00374253
-0.000565038
-2.81061
-2.43672
-2.03829
-1.64304
-1.27648
-0.956997
-0.69386
-0.487785
-0.333789
-0.223171
-0.146572
-0.0951458
-0.0612938
-0.0392918
-0.0250361
-0.0156119
-0.0091158
-0.00435787
-0.00058683
-3.47585
-3.0149
-2.52279
-2.03141
-1.57347
-1.17359
-0.844699
-0.588253
-0.397947
-0.26253
-0.16982
-0.108401
-0.0685834
-0.0431503
-0.0269937
-0.0165556
-0.00954357
-0.004539
-0.000658859
-4.09666
-3.56611
-2.98737
-2.40124
-1.85092
-1.36958
-0.975027
-0.669713
-0.445667
-0.288519
-0.18274
-0.114
-0.0703803
-0.0431711
-0.026331
-0.0157633
-0.00888915
-0.00414297
-0.000573468
-4.51501
-4.0267
-3.43699
-2.80274
-2.18313
-1.62605
-1.16083
-0.796537
-0.527546
-0.338658
-0.211938
-0.13018
-0.0789054
-0.0474443
-0.0284054
-0.0168047
-0.00953677
-0.00466785
-0.000991081
-4.61157
-4.12775
-3.50353
-2.81854
-2.15022
-1.55752
-1.074
-0.707056
-0.446333
-0.271327
-0.15984
-0.0918649
-0.0518059
-0.0287746
-0.0157192
-0.00812613
-0.00343862
-0.000138439
0.00249822
-4.66554
-4.19326
-3.52925
-2.77936
-2.0502
-1.41928
-0.925165
-0.569834
-0.333254
-0.185865
-0.0995642
-0.0515306
-0.0258901
-0.0125581
-0.00570511
-0.00197687
0.000153158
0.00142728
0.00196471
-4.5944
-4.19461
-3.54828
-2.78035
-2.02288
-1.37164
-0.871533
-0.521972
-0.29692
-0.161636
-0.0851829
-0.0439243
-0.0224082
-0.0113632
-0.00570673
-0.00268298
-0.00109093
-0.000331261
-0.000171191
-4.31283
-3.97437
-3.35152
-2.58538
-1.83017
-1.19457
-0.723531
-0.409291
-0.217916
-0.10998
-0.053181
-0.0248463
-0.0113016
-0.00498644
-0.00208347
-0.00073074
-0.000159775
7.74248e-06
-1.44252e-05
-3.92558
-3.64174
-3.05595
-2.31553
-1.59057
-0.996494
-0.573631
-0.305534
-0.151716
-0.0706628
-0.0311447
-0.013045
-0.00519338
-0.00192241
-0.000612043
-0.000109015
3.57723e-05
3.27131e-05
-4.89726e-06
-3.41664
-3.20483
-2.67363
-1.9831
-1.31567
-0.786967
-0.428042
-0.213258
-0.0979738
-0.0416585
-0.0164675
-0.00601631
-0.00198776
-0.000540859
-7.01473e-05
5.43147e-05
5.54386e-05
2.60846e-05
7.542e-06
-2.58216
-2.45818
-2.03994
-1.47801
-0.943229
-0.535484
-0.272922
-0.125661
-0.0524176
-0.0197123
-0.00659248
-0.00184804
-0.000340258
5.37049e-05
0.00010933
8.26449e-05
4.57244e-05
2.05591e-05
1.12568e-05
-1.67446
-1.60698
-1.31054
-0.91187
-0.547464
-0.286304
-0.13096
-0.0520371
-0.0174078
-0.00436757
-0.000355177
0.00050151
0.000470015
0.00029642
0.000161031
8.00659e-05
3.66955e-05
1.68832e-05
1.06972e-05
-0.586998
-0.556606
-0.419816
-0.250192
-0.114079
-0.0335827
0.00162395
0.0110973
0.010099
0.00664455
0.00370978
0.0018758
0.000884647
0.000397884
0.000173047
7.33088e-05
3.06362e-05
1.39371e-05
8.78046e-06
0.538833
0.545089
0.50066
0.40866
0.295911
0.191748
0.112536
0.06051
0.030184
0.0141115
0.00624662
0.00265007
0.00108565
0.000433246
0.000169757
6.58364e-05
2.57869e-05
1.12241e-05
6.68945e-06
1.63973
1.68356
1.47339
1.10607
0.725663
0.424475
0.225346
0.110159
0.0502482
0.0216062
0.00884907
0.00348878
0.00133365
0.000498266
0.000183553
6.73555e-05
2.51422e-05
1.0288e-05
5.35318e-06
2.43355
2.30122
1.86457
1.30988
0.812388
0.452848
0.230192
0.107955
0.0471902
0.0193682
0.00753659
0.00280283
0.00100326
0.000348185
0.000118403
3.97408e-05
1.34416e-05
4.75355e-06
1.52459e-06
3.23231
3.1384
2.61592
1.89333
1.21011
0.694883
0.363639
0.175531
0.0790046
0.0334242
0.0134312
0.00517171
0.00192315
0.000696234
0.000248159
8.76694e-05
3.10426e-05
1.09723e-05
3.02545e-06
3.84782
3.6916
3.06811
2.23456
1.44748
0.846639
0.452691
0.223647
0.103083
0.0446534
0.0183596
0.00722624
0.0027437
0.00101304
0.000367852
0.000132266
4.75896e-05
1.69906e-05
4.62226e-06
4.32067
4.09392
3.39727
2.49511
1.64177
0.980109
0.536324
0.271493
0.128236
0.0568981
0.0239396
0.00963204
0.00373452
0.00140681
0.000520925
0.000191129
7.03578e-05
2.58633e-05
7.3307e-06
4.70899
4.40149
3.64607
2.69889
1.80176
1.09581
0.612229
0.316687
0.152842
0.0692574
0.0297335
0.0121965
0.00481765
0.00184849
0.000697757
0.000261953
9.96404e-05
3.8676e-05
1.20316e-05
4.99712
4.60986
3.81246
2.84054
1.91925
1.18529
0.673595
0.354635
0.174196
0.0803068
0.0350561
0.0146151
0.00586762
0.00229118
0.000883878
0.000343053
0.000138568
6.01073e-05
2.23632e-05
5.06464
4.64482
3.845
2.88312
1.96796
1.23059
0.708893
0.37846
0.188498
0.0881013
0.0389823
0.0164794
0.00672024
0.00267905
0.00106901
0.000442431
0.000202262
0.000107266
5.06285e-05
5.18229
4.71927
3.89609
2.92623
2.00691
1.26323
0.733234
0.394589
0.19813
0.093382
0.0416895
0.0178206
0.00739153
0.00304169
0.00129591
0.000610994
0.000346291
0.000235709
0.000134568
5.25421
4.7253
3.87436
2.9013
1.98913
1.25355
0.729233
0.393557
0.198307
0.0939185
0.0422466
0.0183256
0.00784588
0.00346125
0.00169554
0.00100076
0.000733647
0.000605709
0.000379281
5.21357
4.62278
3.75252
2.78951
1.90228
1.19396
0.69258
0.373135
0.188041
0.0894224
0.0407352
0.0182582
0.00843123
0.0043231
0.00267503
0.00203723
0.00180698
0.00164319
0.00105224
5.08037
4.4349
3.55026
2.60707
1.75914
1.09392
0.629778
0.337587
0.170112
0.0817798
0.0385617
0.0187848
0.0102044
0.00664496
0.0052612
0.00478398
0.00466692
0.00438426
0.00277121
4.93184
4.21272
3.30587
2.38395
1.58261
0.970159
0.55251
0.294852
0.149931
0.0748419
0.0387022
0.0224324
0.0154952
0.0127079
0.011792
0.0116856
0.0118262
0.011123
0.00682186
4.71255
3.90863
2.98788
2.10305
1.36646
0.823383
0.464975
0.250361
0.133021
0.0738135
0.0460446
0.0338953
0.0289545
0.0272559
0.0272331
0.027953
0.0285456
0.0264642
0.0156058
4.19257
3.36552
2.49199
1.70367
1.08202
0.645082
0.369382
0.211111
0.128072
0.08775
0.0696474
0.0622441
0.0598094
0.0598377
0.0615897
0.0639224
0.0648763
0.0586859
0.0330745
3.71055
2.86303
2.04528
1.3616
0.85693
0.522793
0.323822
0.215941
0.162599
0.138113
0.128117
0.125016
0.125495
0.128277
0.13321
0.137966
0.137809
0.120839
0.0648781
3.13851
2.29435
1.58329
1.04651
0.684362
0.464865
0.345814
0.287544
0.262059
0.251812
0.249256
0.250781
0.255367
0.262639
0.272388
0.279202
0.27266
0.230845
0.118071
2.17451
1.50665
1.03961
0.743777
0.58007
0.503692
0.476149
0.470553
0.472715
0.475825
0.480438
0.487307
0.497444
0.51062
0.525002
0.528932
0.502231
0.409403
0.200089
1.19222
0.86356
0.721151
0.692484
0.723326
0.773866
0.820315
0.853249
0.873498
0.884292
0.893098
0.904224
0.919249
0.936249
0.948815
0.935023
0.860846
0.676167
0.318733
0.177337
0.377691
0.657369
0.936884
1.1727
1.3457
1.45738
1.51996
1.55112
1.56431
1.57268
1.5838
1.59769
1.60818
1.6004
1.53901
1.37444
1.04589
0.485798
-0.655065
0.227827
0.989581
1.59249
2.02869
2.31102
2.47468
2.55501
2.58703
2.59408
2.59228
2.59211
2.58903
2.57009
2.50881
2.35743
2.05424
1.53641
0.734913
-1.06473
0.518648
1.76239
2.67845
3.30112
3.67692
3.87934
3.96567
3.98769
3.97799
3.95161
3.92188
3.87726
3.79797
3.64728
3.37371
2.91305
2.20739
1.17413
-0.895375
1.21467
2.86586
4.05549
4.84009
5.29135
5.5207
5.60425
5.60824
5.57369
5.50997
5.43388
5.32847
5.17394
4.93402
4.57288
4.03695
3.26742
2.12569
-0.224264
2.10472
4.02546
5.41734
6.32255
6.82497
7.06862
7.14505
7.12991
7.07246
6.97242
6.85228
6.70179
6.52096
6.2999
6.05329
5.75486
5.32451
4.49482
0.575857
2.86357
4.90474
6.40425
7.36555
7.88063
8.11776
8.18471
8.15549
8.09267
7.98144
7.85611
7.75154
7.74059
7.93067
8.57755
10.0277
12.9187
18.4534
)
;

boundaryField
{
    up
    {
        type            calculated;
        value           nonuniform List<scalar> 
84
(
-18.4534
-4.49484
-2.1257
-1.17412
-0.734889
-0.485781
-0.318731
-0.200099
-0.118082
-0.0648848
-0.033076
-0.0156044
-0.00681988
-0.00276976
-0.00105147
-0.000378957
-0.000134456
-5.05955e-05
-2.2354e-05
-1.20286e-05
-7.32952e-06
-4.62199e-06
-3.02577e-06
-1.53023e-06
-3.7341e-06
-5.1937e-06
-7.3819e-06
-1.00767e-05
-1.27961e-05
-1.25648e-05
3.75715e-06
8.43082e-05
0.000487185
-0.00134123
-0.00226942
0.00102881
0.000615698
0.000694057
0.000614629
0.000585736
0.000316052
-5.20088e-07
2.77274e-06
-0.000316527
-0.000582535
-0.000615248
-0.000694635
-0.000616701
-0.00102352
0.00223522
0.00138092
-0.000499751
-8.92539e-05
-4.74697e-06
1.28159e-05
1.31838e-05
1.03341e-05
7.51538e-06
5.24211e-06
3.75694e-06
1.52459e-06
3.02545e-06
4.62226e-06
7.3307e-06
1.20316e-05
2.23632e-05
5.06285e-05
0.000134568
0.000379281
0.00105224
0.00277121
0.00682186
0.0156058
0.0330745
0.0648781
0.118071
0.200089
0.318733
0.485798
0.734913
1.17413
2.12569
4.49482
18.4534
)
;
    }
    low
    {
        type            calculated;
        value           nonuniform List<scalar> 
84
(
-0.508799
0.334648
1.05504
1.21871
0.741161
-0.191589
-1.29954
-2.3447
-3.33521
-3.88573
-4.36637
-4.8841
-5.06761
-5.20033
-5.32982
-5.35354
-5.26523
-5.1512
-5.07653
-4.75259
-4.33836
-3.84599
-3.20748
-2.39501
-1.58818
-0.516163
0.558729
1.61047
2.51691
3.38131
3.93182
4.34403
4.65192
4.75014
4.71031
4.63506
4.23504
3.60256
2.91463
2.1523
1.33867
0.510236
-0.509997
-1.33844
-2.15205
-2.9144
-3.60236
-4.2349
-4.63487
-4.71081
-4.74969
-4.652
-4.34405
-3.93188
-3.3814
-2.51702
-1.61065
-0.558919
0.515692
1.58838
2.39465
3.20759
3.84597
4.33834
4.75257
5.07653
5.1512
5.26522
5.35354
5.32982
5.20034
5.06763
4.88409
4.36639
3.88577
3.33525
2.34473
1.29957
0.191611
-0.741147
-1.2187
-1.05505
-0.334652
0.508798
)
;
    }
    left
    {
        type            calculated;
        value           nonuniform List<scalar> 
19
(
-0.543647
-2.8468
-4.98666
-6.58124
-7.61273
-8.16898
-8.42893
-8.51103
-8.48861
-8.4371
-8.33569
-8.21829
-8.13757
-8.19214
-8.51503
-9.44666
-11.4507
-15.3944
-15.9761
)
;
    }
    right
    {
        type            calculated;
        value           nonuniform List<scalar> 
19
(
0.543646
2.8468
4.98666
6.58124
7.61273
8.16898
8.42893
8.51103
8.48861
8.4371
8.33569
8.2183
8.1376
8.19217
8.51504
9.44662
11.4506
15.3944
15.9761
)
;
    }
    frontAndBackPlanes
    {
        type            empty;
    }
}


// ************************************************************************* //
