/*--------------------------------*- C++ -*----------------------------------*\
  =========                 |
  \\      /  F ield         | OpenFOAM: The Open Source CFD Toolbox
   \\    /   O peration     | Website:  https://openfoam.org
    \\  /    A nd           | Version:  7
     \\/     M anipulation  |
\*---------------------------------------------------------------------------*/
FoamFile
{
    version     2.0;
    format      ascii;
    class       volScalarField;
    location    "0.27";
    object      gradTz;
}
// * * * * * * * * * * * * * * * * * * * * * * * * * * * * * * * * * * * * * //

dimensions      [0 -1 0 1 0 0 0];

internalField   nonuniform List<scalar> 
1596
(
-9.68212e-16
-4.71205e-16
4.78226e-16
9.88346e-18
-9.12458e-16
0
-4.26925e-16
-4.20964e-16
-2.71983e-17
-2.21373e-16
-2.07359e-18
-2.20117e-16
9.67907e-16
-2.17582e-16
1.01696e-15
8.77354e-16
5.218e-16
6.58833e-16
0
9.67929e-16
0
1.36718e-15
-9.14295e-18
-4.20119e-16
4.16598e-16
8.57012e-16
2.58506e-17
4.06349e-16
-1.95691e-16
3.90383e-16
-6.02961e-18
-5.41348e-16
-3.38003e-16
-8.2227e-16
-8.02011e-16
-7.29514e-16
4.15156e-16
0
-4.7527e-16
0
-8.9328e-16
1.45247e-17
8.21501e-16
-2.29533e-16
1.70545e-17
-5.7276e-18
-5.86785e-18
-6.28059e-18
1.48808e-16
0
2.80836e-16
7.97012e-16
-7.85199e-17
6.31069e-17
1.4847e-16
2.31588e-16
0
7.45798e-16
-2.25134e-16
2.24312e-16
0
-2.16065e-16
-2.23216e-16
3.81899e-16
-3.34773e-16
0
0
-1.18707e-16
7.76732e-17
0
-2.34979e-16
-2.99908e-16
2.07241e-16
-2.12413e-16
-1.09329e-17
0
1.30199e-16
3.4798e-16
-3.15213e-16
0
-9.34294e-17
-2.84046e-16
0
4.25433e-16
-4.24269e-17
-3.84113e-17
-3.55819e-17
2.2188e-16
2.72157e-16
2.80147e-17
9.01164e-18
-2.2409e-16
1.12996e-17
1.03737e-16
-4.45684e-17
-3.38107e-17
-4.77716e-16
4.55839e-16
-3.99633e-16
-8.03339e-19
-3.55441e-16
1.00323e-17
-1.00656e-17
-2.81966e-16
0
-2.94039e-17
-2.62259e-16
-2.45906e-16
2.00431e-16
2.06745e-16
-2.82497e-18
-1.2394e-16
-1.05219e-16
8.04045e-17
2.82562e-16
-4.86993e-16
5.48518e-16
3.0776e-16
0
2.72695e-16
1.61019e-16
-7.76307e-17
3.57801e-16
-6.73408e-17
-2.84144e-16
2.61595e-18
-1.68911e-16
-2.01395e-16
-1.57885e-16
1.3407e-16
1.25031e-16
-1.66796e-18
-3.35724e-17
2.68623e-17
7.73064e-16
-9.14108e-16
0
0
-3.39242e-16
0
0
0
2.36024e-16
0
0
1.54811e-16
5.87396e-18
4.13853e-17
-1.17142e-16
0
6.23511e-17
2.42635e-17
0
-5.02828e-16
9.68599e-16
0
0
3.49372e-16
0
-1.34562e-16
1.34426e-16
-2.40239e-16
1.00359e-16
-1.01093e-16
0
1.46021e-16
1.4108e-16
0
-8.1466e-17
-6.37145e-17
-2.11843e-17
1.20418e-15
-5.64772e-16
0
-4.06047e-16
4.01503e-16
0
3.01187e-16
0
0
0
9.31594e-17
-9.36059e-17
0
-1.12711e-16
-3.23593e-17
0
8.34047e-18
4.65826e-17
0
-3.05642e-16
0
0
4.07067e-16
-7.61441e-16
3.76205e-17
1.45411e-17
-1.24916e-16
1.35363e-17
4.58345e-18
-9.8021e-17
-1.58476e-16
0
1.19869e-16
-2.38573e-17
2.42153e-17
6.28258e-17
-3.65194e-17
-1.68626e-17
2.56129e-16
-2.62567e-17
2.45854e-16
8.45242e-16
-4.36953e-17
-3.56378e-16
0
0
0
2.01944e-16
8.14338e-17
2.94131e-16
-7.10431e-17
-1.17725e-16
-7.05483e-17
-3.82682e-17
1.70317e-17
-3.70118e-17
1.60534e-17
-2.82164e-16
2.76409e-16
-5.12062e-16
-8.34963e-16
7.75113e-16
3.09736e-16
-5.74318e-16
4.9959e-16
-4.34069e-16
1.13105e-16
8.73371e-17
-7.91872e-17
5.21383e-17
-4.67336e-17
1.3651e-16
0
-1.02876e-17
7.57159e-17
-1.12458e-17
-1.82177e-15
8.38308e-16
6.97043e-19
-1.87121e-16
2.29811e-17
3.00947e-16
-5.72589e-16
-2.37767e-16
2.04118e-16
-1.74314e-16
-1.49367e-16
0
-1.70922e-16
-5.09395e-17
-9.14633e-17
-5.44181e-17
4.28581e-18
-4.78209e-17
1.00652e-18
2.97751e-16
-2.66147e-16
5.71914e-19
-2.0622e-16
-5.17708e-16
4.88825e-16
1.92605e-18
2.31704e-16
-1.98735e-16
3.34557e-16
7.92808e-17
6.55769e-17
2.03432e-16
0
1.69571e-16
7.79512e-17
0
2.61963e-17
8.52311e-19
0
2.58193e-16
2.04598e-16
-4.2465e-16
5.01725e-16
-7.55654e-16
5.36813e-16
2.04671e-16
-2.90838e-17
-3.30889e-16
6.12921e-17
-6.09896e-17
-1.86405e-16
7.44755e-17
-3.70169e-17
-7.81921e-17
3.399e-17
-2.10838e-17
8.19888e-18
-2.77375e-16
9.46195e-16
-7.04508e-16
3.85881e-16
0
0
-1.06542e-16
2.26488e-16
-1.63121e-16
3.07145e-16
0
0
1.26033e-16
-1.10377e-16
-7.87595e-17
2.48255e-17
-2.64494e-17
1.39022e-17
0
2.19691e-17
2.59385e-16
-2.1064e-16
-1.85105e-16
-3.00933e-16
-9.91527e-17
1.35787e-16
0
-1.53493e-16
-1.25696e-16
1.13215e-16
-9.28972e-17
7.56941e-17
0
3.00165e-17
5.92156e-17
0
0
0
-2.10169e-17
4.17622e-16
1.6082e-16
-5.58218e-16
1.55025e-16
1.33466e-16
0
0
1.45108e-16
-7.55565e-17
-1.09503e-16
8.98485e-17
-7.32019e-17
0
-1.97745e-17
1.70043e-17
0
-1.43032e-17
-4.99085e-18
-2.23205e-16
6.54997e-16
-7.968e-16
-3.20826e-16
1.67945e-16
-1.26572e-16
1.06829e-16
0
-7.37238e-17
6.18693e-17
0
0
2.90026e-17
-2.9036e-17
8.78956e-18
-1.15715e-17
2.05145e-17
2.44123e-18
3.70983e-18
1.14482e-16
-1.03498e-16
5.32129e-16
-3.43663e-16
-1.40339e-16
1.76486e-17
2.19578e-16
8.4126e-17
7.05426e-17
0
4.15445e-17
-3.85117e-17
3.08169e-17
-2.62153e-17
3.41314e-17
-5.89269e-17
-1.59714e-17
1.39476e-17
3.72673e-18
3.06872e-16
-3.10876e-16
0
2.89034e-16
-1.52156e-16
-1.1445e-16
8.01437e-17
-2.55835e-16
0
-4.48706e-18
-4.77997e-17
-3.47189e-17
5.09484e-17
-3.8702e-18
-3.29874e-17
2.44887e-17
0
8.93036e-18
-3.61862e-18
5.23145e-16
-9.27473e-17
3.96409e-16
-3.10626e-16
1.72667e-16
2.00058e-17
-1.98827e-16
-6.86874e-17
1.24054e-16
-5.15326e-18
-7.3709e-17
6.24829e-17
-2.74301e-17
-3.64038e-17
0
0
0
-9.01536e-18
3.35513e-19
-4.66038e-16
4.54061e-16
3.19887e-19
6.9937e-17
6.04486e-17
-1.46882e-16
1.73782e-16
-1.43632e-16
1.23014e-16
-4.12519e-17
7.85612e-17
2.81631e-17
-1.20046e-17
6.19262e-19
-4.40242e-18
-7.73495e-18
0
0
0
0
0
2.24142e-16
-1.08236e-16
-3.41738e-16
0
0
-4.16974e-17
-6.77573e-17
5.69471e-17
0
-3.55188e-17
2.77275e-17
-9.29792e-17
1.07048e-16
-3.51637e-17
3.74567e-17
4.11017e-18
0
-9.0306e-17
9.14175e-17
0
-7.41604e-17
7.52761e-17
1.25291e-16
0
4.20956e-17
5.62038e-17
-2.50746e-16
0
-3.93539e-17
3.08649e-17
2.22664e-17
-1.66255e-17
2.44012e-17
0
-9.02927e-18
0
-4.64387e-17
-4.63251e-17
2.74384e-18
7.61979e-17
-2.05511e-16
0
-5.33894e-17
0
1.52932e-16
6.21285e-17
0
1.56034e-16
-1.64332e-16
1.64793e-17
-3.6976e-17
1.02615e-17
4.68444e-17
1.78263e-17
-1.41195e-17
0
9.60873e-17
-8.46245e-17
1.05068e-16
1.26936e-16
0
1.08741e-16
-1.02975e-16
-8.19298e-17
1.24228e-16
-1.86604e-16
-9.19234e-17
0
0
2.04927e-17
0
0
5.90832e-18
0
-4.25697e-16
3.26732e-16
0
4.89286e-18
-7.41922e-17
-4.10232e-18
6.64043e-17
4.80652e-17
-5.97475e-17
-1.53956e-16
2.46244e-16
-6.66421e-17
0
-3.24007e-17
0
0
0
-2.28107e-17
1.82175e-17
-1.20299e-16
1.1299e-16
3.03234e-16
-2.96885e-16
9.15218e-17
5.0246e-18
-6.74705e-17
5.8525e-17
1.00143e-16
7.71949e-17
-1.52647e-16
0
8.04615e-17
1.1736e-17
-3.70897e-17
-8.19235e-17
6.76048e-17
-1.10598e-17
2.08656e-17
-4.06619e-16
5.88296e-16
-5.83806e-16
1.03209e-16
8.8149e-17
-8.40918e-17
7.09515e-17
-5.67854e-17
0
-4.8735e-17
7.88475e-17
3.42262e-17
5.54579e-17
7.09341e-17
-1.06393e-16
-1.66227e-18
0
-8.43337e-18
2.81873e-18
-4.39659e-16
-1.31441e-16
-2.31735e-16
1.23003e-16
-2.02626e-16
1.77155e-16
-1.05862e-16
9.02618e-17
-6.08666e-18
-6.08264e-18
-8.26141e-17
4.86169e-17
-2.77618e-17
8.43696e-17
-9.05717e-17
1.14867e-17
9.64549e-18
0
-4.87356e-18
4.75367e-16
-1.41724e-16
0
0
-2.08745e-16
4.06765e-16
-9.54292e-17
-1.84979e-17
1.52901e-16
-3.93141e-18
0
0
-3.59399e-17
0
-7.86959e-17
1.91494e-16
-1.33053e-16
0
1.92991e-18
1.62757e-16
3.04809e-16
0
-1.30642e-16
-1.0735e-16
-9.56364e-17
-9.92065e-17
4.13904e-17
-1.15974e-16
-6.38415e-17
0
0
4.75116e-17
0
0
-1.06289e-16
1.75106e-16
0
0
1.1169e-15
-1.30897e-16
-6.78635e-16
-3.71946e-16
5.04324e-16
1.6164e-16
9.61931e-17
0
-3.5647e-17
3.47308e-17
8.6012e-17
-2.7793e-17
-4.16918e-17
6.47412e-17
-6.88648e-17
-2.13706e-17
0
0
0
8.94429e-17
-7.08278e-16
6.94578e-16
-6.68419e-17
-5.19431e-16
8.14566e-16
-4.09811e-16
0
0
2.21573e-16
-1.82259e-16
0
-5.55236e-17
9.66144e-17
-1.0943e-17
2.83032e-17
8.65341e-18
9.2478e-20
1.89129e-18
0
0
0
5.87222e-16
-3.93705e-16
4.16641e-16
-6.50263e-16
1.85629e-16
0
-6.74048e-17
1.08268e-16
-1.10656e-16
-2.18392e-17
-4.40665e-19
-1.50437e-17
-2.23467e-18
-1.199e-17
-3.35856e-18
-1.83715e-18
7.49472e-16
-1.33808e-15
6.34951e-16
0
1.72408e-16
-2.3484e-16
2.36794e-16
-1.87868e-16
0
-9.22825e-17
1.29386e-16
0
0
-3.25697e-19
0
-1.54818e-17
1.05969e-17
1.96549e-18
2.92775e-18
7.26285e-16
0
-2.91021e-16
3.2509e-16
-2.0523e-16
4.48964e-16
-2.12557e-16
-1.67273e-16
1.69019e-16
-1.72452e-17
0
0
1.11214e-17
-1.88501e-17
-1.32155e-17
2.50719e-17
-5.42794e-18
2.78378e-18
0
4.12386e-16
3.23523e-16
-1.03755e-17
-3.09867e-16
-3.14234e-17
-2.27409e-16
2.41195e-17
1.91655e-16
-9.94118e-18
1.7569e-17
0
0
-1.13932e-17
0
1.34237e-17
-1.43601e-17
0
1.84008e-18
-5.1046e-19
-2.18892e-16
-1.62272e-16
1.51938e-16
-1.74711e-17
-7.85324e-18
2.12791e-17
0
-5.64666e-18
8.48976e-17
-7.14976e-17
0
2.43602e-17
-4.75756e-18
-2.15322e-17
-1.97168e-18
-1.53834e-18
0
-1.43809e-18
0
8.95438e-17
-1.70452e-16
-2.42888e-18
7.3507e-17
6.76105e-17
-6.71858e-17
-4.78681e-17
5.41932e-17
-1.86907e-17
1.46157e-17
-1.42693e-17
1.47094e-17
0
3.77244e-20
-1.45225e-18
5.22313e-18
-1.78836e-20
0
0
8.95469e-17
-8.92113e-17
-7.31221e-17
6.47658e-17
1.1945e-16
-1.20155e-16
-2.39348e-17
2.39915e-17
-1.88486e-17
1.90465e-17
-1.42698e-17
2.69471e-17
-7.55771e-18
-5.45363e-18
-1.67657e-18
5.55311e-19
1.32669e-18
3.50964e-19
-2.6322e-19
0
-2.12701e-17
1.274e-16
-1.38066e-16
1.19264e-16
-1.057e-16
0
8.48172e-17
-7.58539e-17
0
2.84233e-17
-3.59982e-17
-2.0547e-17
2.15346e-17
3.97053e-18
0
0
-1.4383e-18
5.22742e-19
3.56417e-16
-6.57099e-16
6.72059e-16
-5.91633e-16
2.32889e-16
-1.99135e-16
1.88916e-16
2.25768e-17
-8.43166e-17
7.53498e-17
0
-5.50277e-17
5.01018e-17
-9.55261e-18
-3.88914e-18
6.13547e-18
4.51321e-18
1.39632e-18
-5.05088e-19
8.19024e-16
0
-3.29166e-16
2.55785e-16
3.1062e-17
-2.39941e-16
4.26309e-16
-3.79565e-16
1.49204e-16
-6.41839e-17
6.56978e-17
1.30443e-17
2.25107e-17
9.30435e-18
-7.75011e-18
-1.0078e-18
-9.78236e-18
0
1.0044e-18
6.57971e-16
-7.40631e-16
0
6.84069e-17
2.9669e-16
-2.90767e-16
4.98991e-17
4.43869e-17
1.94137e-17
3.44045e-17
0
0
-3.91697e-17
7.35871e-17
-2.69257e-17
-9.68133e-18
1.05994e-17
8.50628e-19
-1.91181e-18
5.83128e-17
6.50584e-16
-7.55604e-17
-5.18923e-16
4.55501e-16
5.4783e-17
-4.88354e-17
-4.33528e-17
1.43786e-16
-1.78378e-16
1.08299e-16
-1.10686e-16
1.74713e-17
-2.20517e-17
4.05665e-17
-2.70206e-17
0
0
1.96573e-18
0
1.63361e-16
-4.93485e-16
5.63773e-16
-4.59552e-16
4.58457e-16
0
1.61095e-16
-1.61833e-16
-1.22839e-16
1.82391e-16
0
7.65135e-17
-9.66822e-17
-1.43327e-17
0
-1.62687e-18
-3.2789e-18
-3.73051e-20
-1.54753e-15
7.3951e-16
0
-5.04231e-16
5.0418e-16
3.12077e-16
-2.05198e-16
8.53719e-17
0
-3.88282e-18
2.93416e-17
-2.77545e-17
-4.1636e-17
6.46447e-17
-6.87387e-17
0
1.51536e-17
-3.4163e-18
-2.02949e-18
9.53472e-16
-9.39138e-16
0
1.30564e-16
1.19382e-16
-1.09501e-16
0
-8.94705e-17
-7.78204e-17
0
-3.19266e-18
0
4.75315e-17
0
0
2.1842e-17
8.23593e-17
-1.06417e-16
0
1.34133e-19
1.41792e-16
-1.31513e-16
1.08634e-16
-5.51577e-16
2.11819e-16
0
1.8511e-17
5.25433e-17
0
-5.46221e-17
1.60966e-16
-1.69104e-16
2.88742e-17
0
-3.07136e-18
0
0
0
1.29444e-19
0
1.21551e-16
0
-1.91111e-16
1.94149e-16
0
7.10036e-17
-5.75172e-17
2.09918e-16
-1.01537e-16
3.72721e-17
-6.05477e-17
5.82922e-17
-9.06795e-17
-1.45516e-17
0
-9.93503e-18
0
3.71455e-16
-6.27967e-16
0
-1.03266e-16
9.33418e-17
0
0
-1.29959e-16
0
-4.877e-17
-7.89074e-17
-3.42565e-17
5.55126e-17
0
3.06277e-17
0
0
2.18136e-17
-2.4244e-17
0
5.45626e-16
-4.37049e-16
9.56004e-17
-8.64351e-17
-3.5963e-17
1.04045e-16
1.18163e-16
-1.46415e-16
4.73178e-17
2.95449e-18
-4.56355e-17
1.87511e-16
-5.84135e-17
-1.38338e-16
4.80972e-17
-1.27245e-17
7.5975e-18
-2.36644e-18
-8.80419e-16
3.26709e-16
0
0
3.71363e-17
-3.77634e-17
2.77937e-17
1.89265e-17
1.32648e-16
6.89455e-17
-6.8713e-17
-2.38479e-18
-3.98262e-17
3.2429e-17
0
1.65846e-17
1.16629e-17
6.40221e-18
2.13893e-18
0
2.84304e-16
-2.66813e-16
8.58992e-17
9.01387e-17
-1.74572e-17
-5.72849e-17
-4.95016e-17
-1.66266e-16
6.81033e-17
-4.29983e-17
5.78404e-17
3.72424e-17
-4.75925e-17
5.05165e-17
3.29655e-17
-4.257e-17
-5.91339e-18
0
-4.98342e-17
-2.25486e-16
8.12408e-17
7.62177e-17
-2.6566e-16
1.91098e-16
9.72556e-17
-9.94102e-17
7.77538e-17
-6.46334e-17
0
0
-5.66082e-17
1.02143e-16
-4.53951e-17
4.34317e-17
-4.74184e-17
7.95202e-18
-1.41321e-17
9.37808e-17
8.81176e-17
-8.08406e-17
6.45984e-17
-7.45281e-17
-1.16121e-16
0
0
0
0
0
0
2.91395e-17
-7.81396e-17
8.26411e-17
-2.7425e-17
3.37783e-17
1.60689e-17
-1.36414e-17
1.93837e-16
-3.34646e-16
4.18925e-16
-2.00306e-16
2.76512e-16
-2.07161e-16
3.88773e-16
-2.21344e-16
-1.22324e-16
1.25132e-16
0
3.54968e-17
-2.84677e-17
7.12491e-17
-2.33157e-17
-3.07864e-17
-6.61979e-17
4.93187e-18
1.16307e-17
3.01413e-16
8.77355e-17
0
-1.39427e-16
-1.12187e-16
2.58553e-16
2.79325e-17
-1.07479e-16
6.45033e-17
-4.68682e-17
0
-2.80997e-17
0
-2.35712e-17
1.92876e-17
-1.75639e-17
-5.8358e-18
4.16456e-18
0
4.21342e-16
-9.27461e-17
3.9624e-16
-3.10529e-16
-6.34642e-17
2.54692e-16
-1.52734e-16
7.31954e-18
6.11286e-18
-4.58734e-17
4.44444e-17
0
0
2.84931e-17
-1.06243e-17
7.0115e-18
2.11083e-17
-7.34366e-18
0
8.50405e-20
0
-8.7458e-17
5.19994e-16
-3.52509e-16
-3.82807e-16
2.10018e-16
-2.25361e-16
2.09959e-16
1.06187e-16
-8.17102e-17
3.36173e-17
-3.01941e-17
5.09583e-18
5.12058e-17
2.09951e-18
-1.99201e-17
1.97178e-17
-4.02997e-18
1.02795e-15
-3.28485e-16
1.64301e-16
-5.05742e-16
1.40338e-16
-2.23356e-16
1.1925e-16
0
0
-4.59019e-18
-6.15113e-18
-1.81245e-18
0
-4.43923e-17
-3.41319e-17
2.53045e-17
-1.86491e-18
3.24166e-18
7.9255e-18
0
-3.27899e-16
5.61659e-16
1.29534e-16
-4.63744e-16
1.26572e-16
-1.97972e-16
3.09134e-17
1.63317e-16
0
0
3.06301e-18
3.63127e-17
0
-3.31024e-17
-1.5267e-17
2.23974e-18
-8.09571e-18
-9.15689e-18
0
-2.08038e-16
4.31028e-17
3.79161e-16
2.89912e-16
-5.33939e-16
2.44164e-16
-1.74855e-16
9.30904e-17
-1.32384e-16
0
0
0
-5.89772e-17
1.63847e-17
-1.98715e-17
0
-1.24664e-18
6.25934e-18
-7.74282e-16
7.35501e-16
7.9825e-16
-9.69945e-16
4.6153e-16
-4.35478e-16
0
1.83721e-16
-2.5261e-16
1.48028e-16
-1.17292e-16
9.71317e-17
7.99044e-17
6.09955e-17
4.8471e-17
0
0
0
0
8.53503e-16
-4.96473e-16
0
0
-1.67592e-16
4.1418e-16
-2.65697e-16
-1.94014e-16
1.91827e-16
1.4595e-16
2.47811e-16
-1.00784e-16
4.31394e-17
3.31362e-17
2.46978e-17
2.01505e-17
3.27121e-17
-1.61277e-18
1.64276e-18
-8.66287e-16
7.99244e-16
4.32615e-16
-2.2423e-16
5.01671e-16
-3.22551e-16
-2.59282e-16
-2.21694e-16
0
-3.05371e-16
1.40463e-17
1.14208e-16
-9.07346e-17
-7.44756e-17
-2.75896e-17
-2.9346e-17
-2.34392e-17
0
0
-2.98009e-16
0
2.34449e-16
-3.89882e-19
0
0
2.67458e-16
2.28757e-16
0
1.64984e-16
0
-1.73615e-16
-4.89955e-17
8.73224e-17
0
5.65706e-17
-8.01351e-18
8.17486e-18
0
6.32649e-16
0
4.53068e-16
-8.44372e-16
7.5868e-16
6.21993e-16
-1.80004e-17
0
1.612e-17
1.90269e-16
0
-1.93558e-16
2.187e-16
-1.95131e-16
-4.26735e-17
-4.55006e-17
-1.33535e-17
-2.37567e-18
-8.36121e-18
-5.91675e-16
8.5323e-16
-2.43897e-16
-6.43906e-16
-3.76104e-16
-3.28546e-16
-5.72929e-16
-2.33612e-16
1.74641e-17
8.75014e-17
-8.7337e-17
2.8182e-16
-1.24742e-16
2.52421e-16
-4.73135e-17
0
5.35549e-17
-3.14227e-17
8.4638e-18
1.30107e-15
-2.67658e-17
-1.0069e-15
8.45247e-16
-7.64621e-16
6.73266e-16
-2.00221e-17
-2.60968e-16
2.29903e-16
9.29019e-17
-1.14442e-17
-2.29478e-16
6.69914e-17
6.97564e-17
-2.14006e-17
2.16447e-17
-5.54699e-17
-5.29911e-18
-1.2856e-17
6.38711e-16
2.72938e-16
4.84007e-16
-4.29584e-16
-3.59817e-16
1.74847e-17
-2.82044e-16
6.84439e-16
2.17466e-17
3.22513e-16
1.89937e-16
-1.68846e-16
0
-1.19869e-16
0
0
7.61275e-17
3.36754e-17
1.50177e-17
6.01173e-16
0
4.78441e-16
4.26811e-16
-3.82871e-16
3.38442e-16
0
-2.68685e-16
-3.74441e-16
-3.29521e-16
-1.91618e-16
1.70755e-16
0
0
0
0
-7.13568e-17
-5.24076e-17
0
-1.17799e-15
0
-2.19657e-17
-1.93918e-17
5.82076e-16
-3.32779e-16
-1.53726e-16
-1.54309e-16
3.79446e-16
0
1.00359e-16
-1.06649e-17
8.95032e-17
0
0
1.17701e-16
-8.75189e-18
6.2921e-17
-2.369e-17
8.29676e-16
2.41786e-16
-2.3929e-16
-2.13529e-16
-7.50006e-16
5.19173e-16
6.31635e-16
-1.58923e-17
-2.58277e-16
2.54477e-16
5.37066e-17
-2.7182e-16
-2.23729e-16
-1.34477e-16
-1.42193e-16
-1.35672e-16
1.11743e-16
-5.28341e-18
2.42636e-17
-2.5563e-16
1.17025e-16
-5.65246e-16
9.80362e-17
-9.76796e-17
0
-3.13459e-16
-2.03563e-17
-2.90735e-16
2.30545e-17
2.84143e-16
2.11107e-16
-5.16239e-17
2.29315e-17
1.35281e-16
0
-2.31914e-16
-8.47681e-17
-1.7637e-18
5.18273e-16
-1.42539e-17
8.88652e-16
-4.25557e-16
8.03338e-19
1.14173e-17
3.44082e-16
-2.52157e-17
2.81965e-16
-2.64121e-16
-2.4831e-16
0
2.45905e-16
1.97352e-16
2.72816e-18
-3.96329e-18
1.25139e-16
8.61645e-17
0
-3.68748e-16
0
-9.09124e-17
4.05145e-16
5.42805e-18
9.35542e-17
-3.32722e-16
3.15119e-16
3.31299e-16
3.17286e-16
3.04755e-16
0
-2.38893e-16
0
1.25944e-17
-1.30804e-17
0
-1.24434e-18
6.11173e-17
2.54325e-16
1.24591e-17
-2.04847e-16
6.3033e-16
-2.02873e-16
0
0
-3.69778e-16
-3.20995e-16
-3.07379e-16
-5.55985e-16
-7.76731e-17
0
0
0
-2.56483e-17
2.71424e-17
1.73293e-16
-6.20476e-17
1.28829e-17
0
-4.38089e-16
-4.03141e-16
4.20907e-16
-4.17655e-16
-5.99248e-16
7.37769e-16
2.03818e-16
0
3.26839e-16
3.68675e-16
-7.96071e-17
4.31818e-16
-7.06816e-17
7.35623e-17
2.85465e-16
-1.64673e-16
0
-4.86224e-16
0
-4.6655e-16
4.57609e-16
0
8.30193e-16
3.90738e-16
-8.18375e-16
6.52173e-16
-4.36057e-18
-1.97694e-16
-3.56953e-16
0
4.90096e-16
-8.22269e-16
8.82213e-16
-1.12421e-15
0
0
4.83968e-16
-2.97272e-18
-7.32386e-18
-9.20959e-16
9.28632e-16
-4.4949e-16
4.47658e-16
4.41167e-16
-3.91719e-16
0
0
7.3404e-16
-7.46685e-16
-7.98974e-16
7.91827e-16
-7.71221e-16
8.34014e-16
-1.30631e-15
0
)
;

boundaryField
{
    up
    {
        type            calculated;
        value           nonuniform List<scalar> 
84
(
0
0
0
0
-4.45684e-17
8.04045e-17
-3.35724e-17
2.42635e-17
-2.11843e-17
0
-1.68626e-17
1.60534e-17
-1.12458e-17
1.00652e-18
8.52311e-19
8.19888e-18
0
0
-4.99085e-18
3.70983e-18
3.72673e-18
-3.61862e-18
3.35513e-19
0
1.48388e-18
6.78728e-19
-1.34648e-17
0
1.82175e-17
2.17701e-17
2.81873e-18
-4.87356e-18
1.92991e-18
0
-9.50202e-19
1.95939e-18
-1.83554e-18
2.92386e-18
0
-5.09756e-19
0
0
-2.63381e-19
5.22742e-19
-5.05088e-19
1.0044e-18
-1.91181e-18
1.96573e-18
-3.73051e-20
-2.02949e-18
0
0
0
-2.4244e-17
-3.2715e-18
2.13893e-18
0
-1.41321e-17
-1.36414e-17
1.01519e-17
0
0
-4.02997e-18
7.9255e-18
-9.15689e-18
6.25934e-18
0
1.64276e-18
0
0
-8.36121e-18
8.4638e-18
-1.2856e-17
1.50177e-17
0
-2.369e-17
2.42636e-17
-1.7637e-18
0
6.11173e-17
-6.20476e-17
0
0
0
)
;
    }
    low
    {
        type            calculated;
        value           nonuniform List<scalar> 
84
(
-9.68854e-16
9.67929e-16
-4.74099e-16
7.46751e-16
1.30846e-16
-3.40019e-17
2.8417e-16
2.84022e-17
0
1.20596e-15
-3.05642e-16
2.55173e-16
-2.82164e-16
-1.82173e-15
2.97751e-16
0
-2.77375e-16
2.19691e-17
-2.10169e-17
-2.23205e-16
1.14482e-16
3.06872e-16
5.21312e-16
-4.66038e-16
0
-9.0306e-17
-4.64387e-17
0
-4.25697e-16
-1.20299e-16
-4.05409e-16
-4.38685e-16
4.74692e-16
1.62757e-16
1.11691e-15
8.94429e-17
0
7.49472e-16
7.27749e-16
4.13195e-16
-2.19327e-16
8.95438e-17
8.95469e-17
0
3.56417e-16
8.20486e-16
6.57971e-16
5.9266e-17
0
-1.54754e-15
9.53472e-16
1.34133e-19
1.29444e-19
3.71455e-16
0
-8.78534e-16
0
-4.98342e-17
9.37808e-17
1.92725e-16
2.99454e-16
4.19509e-16
8.50405e-20
1.02642e-15
0
0
-7.74282e-16
8.52705e-16
-8.6574e-16
-2.98009e-16
6.32615e-16
-5.91675e-16
1.30298e-15
6.40085e-16
6.01173e-16
-1.17799e-15
8.28136e-16
-2.54021e-16
5.18273e-16
-3.68101e-16
2.54325e-16
1.40546e-17
-4.86224e-16
4.84289e-16
)
;
    }
    left
    {
        type            calculated;
        value           nonuniform List<scalar> 
19
(
-9.68212e-16
-4.71555e-16
4.78226e-16
9.87843e-18
-9.12692e-16
0
-4.26925e-16
-4.20964e-16
-2.85649e-17
-2.21373e-16
-2.07359e-18
-2.20117e-16
9.77716e-16
-2.17582e-16
1.01696e-15
8.77354e-16
5.218e-16
7.65205e-16
0
)
;
    }
    right
    {
        type            calculated;
        value           nonuniform List<scalar> 
19
(
4.83968e-16
-2.62335e-18
-7.32386e-18
-9.20954e-16
9.28867e-16
-4.4949e-16
4.47658e-16
4.41167e-16
-3.90353e-16
0
0
7.41006e-16
-7.56495e-16
-7.98974e-16
7.91827e-16
-7.71221e-16
8.34014e-16
-1.41268e-15
0
)
;
    }
    frontAndBackPlanes
    {
        type            empty;
    }
}


// ************************************************************************* //
