/*--------------------------------*- C++ -*----------------------------------*\
  =========                 |
  \\      /  F ield         | OpenFOAM: The Open Source CFD Toolbox
   \\    /   O peration     | Website:  https://openfoam.org
    \\  /    A nd           | Version:  7
     \\/     M anipulation  |
\*---------------------------------------------------------------------------*/
FoamFile
{
    version     2.0;
    format      ascii;
    class       volScalarField;
    location    "0.07";
    object      gradTz;
}
// * * * * * * * * * * * * * * * * * * * * * * * * * * * * * * * * * * * * * //

dimensions      [0 -1 0 1 0 0 0];

internalField   nonuniform List<scalar> 
1596
(
-1.613e-16
-7.59337e-17
7.98979e-17
4.20707e-18
-1.45397e-16
0
-6.39523e-17
-6.31545e-17
-7.70762e-18
-3.5112e-17
-1.11666e-19
-3.54967e-17
1.61318e-16
-3.58246e-17
1.65607e-16
1.44229e-16
8.6165e-17
1.10015e-16
0
1.58325e-16
0
2.06212e-16
-3.16018e-18
-5.68358e-17
5.5962e-17
1.24609e-16
7.48775e-18
5.73441e-17
-2.82969e-17
5.69592e-17
-3.02984e-19
-7.95447e-17
-5.05228e-17
-1.33481e-16
-1.31644e-16
-1.20748e-16
6.95405e-17
0
-7.38771e-17
0
-1.26665e-16
4.89444e-18
1.02912e-16
-3.51381e-17
5.51435e-18
-6.20301e-19
-4.10693e-19
-2.88761e-19
1.6286e-17
0
4.11719e-17
1.13697e-16
-1.13948e-17
9.83081e-18
2.27214e-17
3.8067e-17
0
1.21011e-16
-3.11568e-17
3.1043e-17
0
-2.79737e-17
-3.03593e-17
4.30279e-17
-3.12641e-17
0
0
-1.93108e-17
8.57967e-18
0
-3.19892e-17
-3.76575e-17
2.75643e-17
-3.27161e-17
-1.65216e-18
0
2.16999e-17
4.93765e-17
-3.76909e-17
0
-9.01576e-18
-2.85993e-17
0
3.89807e-17
-3.54835e-18
-3.24412e-18
-8.67946e-18
1.82095e-17
2.46046e-17
3.08922e-18
5.4127e-18
-2.9754e-17
1.44868e-18
1.40731e-17
-6.58283e-18
-5.63511e-18
-6.6762e-17
5.6e-17
-4.17313e-17
-2.15599e-19
-2.7899e-17
7.22399e-19
-7.24797e-19
-1.73388e-17
0
-6.58056e-18
-2.19859e-17
-2.2045e-17
1.55248e-17
2.18129e-17
-2.8025e-19
-1.31106e-17
-1.42742e-17
1.13342e-17
4.70936e-17
-6.78119e-17
6.50989e-17
3.1176e-17
0
2.19991e-17
1.06756e-17
-4.8227e-18
2.15216e-17
-3.65861e-18
-1.75412e-17
5.37722e-20
-8.98145e-18
-1.55592e-17
-1.0482e-17
1.00701e-17
1.3226e-17
-1.86256e-19
-4.48257e-18
9.1267e-18
1.10328e-16
-1.10619e-16
0
0
-2.4074e-17
0
0
0
9.27876e-18
0
0
8.61204e-18
7.35258e-20
4.68962e-18
-9.05091e-18
0
4.81203e-18
2.24914e-18
0
-6.6554e-17
1.23139e-16
0
0
2.47929e-17
0
-5.92897e-18
5.92298e-18
-9.44443e-18
3.30874e-18
-3.33294e-18
0
4.68967e-18
7.0068e-18
0
-3.97649e-18
-4.90167e-18
-2.01884e-18
1.91931e-16
-8.55057e-17
0
-3.95049e-17
3.90628e-17
0
1.73679e-17
0
0
0
2.45173e-18
-2.46348e-18
0
-3.74636e-18
-9.101e-19
0
1.41829e-18
1.95642e-18
0
-4.8811e-17
0
0
4.03962e-17
-6.92657e-17
8.14507e-18
3.42072e-18
-5.11327e-18
1.50808e-18
4.35146e-19
-2.55867e-18
-3.01555e-18
0
2.02788e-18
-5.28502e-19
5.36434e-19
2.2034e-18
-1.62105e-18
-6.34498e-19
3.20889e-17
-8.36532e-18
3.14157e-17
8.92474e-17
-1.07198e-17
-2.97401e-17
0
0
0
5.63731e-18
1.59438e-18
5.01861e-18
-1.16734e-18
-1.99161e-18
-8.43232e-19
-6.21786e-19
2.96222e-19
-7.27296e-19
5.85148e-19
-4.08924e-17
4.05567e-17
-7.003e-17
-8.86359e-17
7.57221e-17
2.12111e-17
-3.54221e-17
2.40693e-17
-1.60295e-17
4.25012e-18
2.08363e-18
-1.46847e-18
4.81661e-19
-5.10363e-19
1.65375e-18
0
-1.40198e-19
1.20004e-18
-1.87432e-19
-2.91337e-16
1.25873e-16
4.82528e-20
-1.74801e-17
5.86256e-18
2.07874e-17
-3.7264e-17
-1.12261e-17
7.31027e-18
-4.64501e-18
-2.93069e-18
0
-2.02982e-18
-5.27736e-19
-6.82286e-19
-3.71758e-19
2.65898e-20
-5.20511e-19
7.54735e-20
4.75702e-17
-3.83663e-17
-8.25336e-20
-2.28068e-17
-4.53549e-17
4.01174e-17
2.37279e-19
1.09398e-17
-7.11752e-18
8.85136e-18
1.73059e-18
1.1124e-18
2.14222e-18
0
1.12337e-18
4.71539e-19
0
2.16529e-19
4.1865e-20
0
3.72197e-17
2.22769e-17
-5.03748e-17
4.36364e-17
-5.7757e-17
3.45437e-17
8.44069e-18
-2.98637e-18
-9.48743e-18
1.00661e-18
-1.00164e-18
-1.82749e-18
5.12059e-19
-2.49539e-19
-4.06294e-19
1.28241e-19
-8.04973e-20
5.59944e-20
-4.41071e-17
1.27483e-16
-9.71219e-17
4.11363e-17
0
0
-4.95002e-18
1.18298e-17
-4.8786e-18
8.38323e-18
0
0
1.13499e-18
-8.00695e-19
-3.54822e-19
1.08584e-19
-1.03234e-19
5.687e-20
0
7.61461e-18
4.13424e-17
-2.62687e-17
-2.01736e-17
-2.40388e-17
-2.4189e-18
9.51061e-18
0
-4.36014e-18
-2.25442e-18
1.85562e-18
-1.07304e-18
6.10677e-19
0
1.53777e-19
1.95327e-19
0
0
0
-7.50239e-18
5.04244e-17
1.16975e-17
-6.14973e-17
1.28931e-17
9.2822e-18
0
0
3.84882e-18
-2.13359e-18
-1.79479e-18
1.03783e-18
-5.90571e-19
0
-6.55778e-20
4.28489e-20
0
-2.44045e-20
-8.50882e-21
-3.11637e-17
9.1913e-17
-9.97985e-17
-2.93405e-17
1.65845e-17
-7.95193e-18
5.15505e-18
0
-1.95517e-18
1.30453e-18
0
0
1.69865e-19
-1.7006e-19
2.51014e-20
-4.37359e-20
3.3539e-20
8.14185e-21
6.55186e-21
1.80802e-17
-1.42874e-17
5.94976e-17
-3.71426e-17
-1.06903e-17
2.56625e-18
1.15383e-17
2.76523e-18
1.87081e-18
0
4.47753e-19
-4.03144e-19
2.22682e-19
-1.32675e-19
8.67433e-20
-1.15587e-19
-2.49523e-20
1.90936e-20
3.89324e-21
4.4385e-17
-4.70232e-17
0
2.45366e-17
-1.40808e-17
-6.75282e-18
2.3022e-18
-9.19988e-18
0
-1.16732e-19
-6.4265e-19
-2.78304e-19
2.498e-19
-4.01138e-20
-8.38359e-20
4.39002e-20
0
7.88343e-21
-3.7803e-21
8.62776e-17
-1.26475e-17
4.17533e-17
-3.20746e-17
1.03999e-17
-2.55315e-18
-9.28101e-18
-1.65012e-18
2.57365e-18
-1.9664e-19
-5.92358e-19
4.14649e-19
-1.428e-19
-1.01106e-19
0
0
0
-7.91939e-21
2.56265e-22
-6.96602e-17
6.59356e-17
-1.46496e-20
6.22426e-18
4.19409e-18
-6.79757e-18
6.53412e-18
-3.79418e-18
2.3315e-18
-3.9602e-19
7.05737e-19
1.33501e-19
-4.07158e-20
2.66322e-21
-3.26988e-21
-7.8907e-21
0
0
0
0
0
2.18331e-17
-1.62283e-17
-2.6251e-17
0
0
-1.0155e-18
-1.11505e-18
6.18143e-19
0
-1.68369e-19
8.66244e-20
-1.70242e-19
1.7783e-19
-3.24105e-20
3.43963e-20
2.73176e-21
0
-1.3387e-17
1.35517e-17
0
-6.80127e-18
6.35732e-18
7.57922e-18
0
1.0252e-18
5.64288e-19
-3.1938e-18
0
-1.9377e-19
9.99199e-20
4.58488e-20
-2.36524e-20
2.56772e-20
0
-6.15242e-21
0
-6.91194e-18
-5.93115e-18
3.49959e-19
6.98813e-18
-1.46206e-17
0
-2.10166e-18
0
2.76762e-18
7.12405e-19
0
7.5044e-19
-5.94463e-19
8.72941e-20
-2.90803e-20
3.27144e-20
4.67383e-20
1.23911e-20
-9.80573e-21
0
1.3341e-17
-9.04465e-18
1.08167e-17
9.24568e-18
0
4.06467e-18
-3.39587e-18
-1.54723e-18
1.41384e-18
-2.03444e-18
-5.57028e-19
0
0
3.35004e-20
0
0
4.63616e-21
0
-6.3784e-17
4.99112e-17
0
1.41061e-18
-4.89877e-18
-2.15816e-19
3.12732e-18
1.12997e-18
-2.05551e-18
-2.58819e-18
2.60444e-18
-7.40182e-19
0
-1.26069e-19
0
0
0
-1.79791e-20
1.43837e-20
-1.91377e-17
1.58874e-17
3.49828e-17
-3.19995e-17
8.17242e-18
8.97846e-19
-3.15259e-18
2.00834e-18
2.46672e-18
1.2623e-18
-2.40484e-18
0
4.50388e-19
-9.98103e-20
-1.43556e-19
-1.66346e-19
1.23066e-19
-8.25372e-21
1.99052e-20
-6.8756e-17
7.95049e-17
-7.65296e-17
1.09706e-17
7.29066e-18
-6.25033e-18
4.51342e-18
-2.47581e-18
0
-1.24087e-18
1.19063e-18
4.86036e-19
5.8777e-19
3.9944e-19
-5.45209e-19
-4.25619e-20
0
-1.05973e-20
3.45216e-21
-7.42622e-17
-1.87614e-17
-2.7214e-17
1.56876e-17
-1.83827e-17
1.28349e-17
-6.87653e-18
4.17278e-18
-6.46464e-19
-5.6605e-19
-1.55506e-18
1.08725e-18
-1.68251e-19
7.00676e-19
-7.52183e-19
1.00656e-20
5.14483e-20
0
-7.27843e-21
8.02937e-17
-2.0619e-17
0
0
-1.89277e-17
3.44662e-17
-6.98585e-18
-8.90561e-19
6.12707e-18
-2.3936e-19
0
0
-5.19266e-19
0
-7.63425e-19
1.5764e-18
-1.00543e-18
0
3.89323e-21
2.61044e-17
4.4553e-17
0
-1.53372e-17
-9.4743e-18
-6.08008e-18
-7.42866e-18
2.26534e-18
-5.61997e-18
-2.19629e-18
0
0
1.15958e-18
0
0
-1.24448e-18
2.13887e-18
0
0
1.79548e-16
-2.77132e-17
-9.5097e-17
-4.11076e-17
5.66483e-17
1.45071e-17
7.20301e-18
0
-1.82956e-18
1.39779e-18
3.40632e-18
-9.9677e-19
-1.01754e-18
1.42062e-18
-1.5111e-18
-3.26685e-19
0
0
0
1.43728e-17
-1.01098e-16
9.80961e-17
-8.17377e-18
-5.32339e-17
7.80089e-17
-3.64e-17
0
0
1.08858e-17
-8.36942e-18
0
-1.61576e-18
2.95487e-18
-2.17472e-19
7.13489e-19
1.93151e-19
3.84027e-21
3.65465e-20
0
0
0
6.89746e-17
-4.68435e-17
3.81335e-17
-5.71293e-17
1.48415e-17
0
-3.72795e-18
4.87818e-18
-4.98579e-18
-7.54957e-19
6.157e-20
-4.1225e-19
-4.05318e-20
-3.1754e-19
-9.29673e-20
-4.77345e-20
1.1685e-16
-2.00515e-16
9.11887e-17
0
1.79641e-17
-2.48846e-17
1.97843e-17
-1.55481e-17
0
-5.06284e-18
7.1784e-18
0
0
5.85628e-20
0
-4.95518e-19
3.29062e-19
3.93722e-20
7.89602e-20
1.213e-16
0
-3.8477e-17
4.27766e-17
-2.19215e-17
4.59163e-17
-2.04309e-17
-1.25813e-17
1.27127e-17
-1.08826e-18
0
0
5.05921e-19
-7.26799e-19
-4.8439e-19
8.92042e-19
-1.89638e-19
8.691e-20
0
6.8611e-17
4.68847e-17
-5.07916e-18
-4.11024e-17
-3.58558e-18
-2.23207e-17
4.39104e-18
1.66939e-17
-7.27759e-19
1.1087e-18
0
0
-5.18282e-19
0
5.3295e-19
-5.70129e-19
0
6.90085e-20
-1.86426e-20
-3.63615e-17
-2.35785e-17
2.21406e-17
-2.22093e-18
-9.0951e-19
2.20942e-18
0
-4.71002e-19
5.9905e-18
-5.03645e-18
0
1.2494e-18
-3.2799e-19
-1.01634e-18
-8.51838e-20
-6.36827e-20
0
-5.43817e-20
0
1.40113e-17
-2.57756e-17
5.55699e-19
9.84176e-18
7.51758e-18
-7.38501e-18
-4.2615e-18
4.79178e-18
-1.32661e-18
1.05812e-18
-8.18509e-19
8.43753e-19
0
1.74759e-21
-6.19444e-20
2.21969e-19
-7.30519e-22
0
0
1.40118e-17
-1.39593e-17
-9.78862e-18
8.72643e-18
1.32089e-17
-1.32869e-17
-2.13088e-18
2.13686e-18
-1.33846e-18
1.35222e-18
-8.18578e-19
1.48336e-18
-4.15821e-19
-2.62925e-19
-7.20149e-20
2.57455e-20
5.51327e-20
1.41556e-20
-1.05763e-20
0
-3.20395e-18
1.69233e-17
-1.85056e-17
1.31367e-17
-1.17359e-17
0
6.68252e-18
-6.03238e-18
0
1.60465e-18
-2.00566e-18
-9.70029e-19
1.01665e-18
1.65222e-19
0
0
-5.44113e-20
1.95905e-20
5.56788e-17
-9.91141e-17
9.35726e-17
-7.53232e-17
2.84145e-17
-1.94311e-17
1.86478e-17
1.82176e-18
-5.83299e-18
5.172e-18
0
-2.70946e-18
2.47546e-18
-3.99448e-19
-1.61835e-19
2.27566e-19
1.61478e-19
5.2823e-20
-1.89289e-20
1.36252e-16
0
-4.376e-17
3.4107e-17
3.54464e-18
-2.32383e-17
3.87944e-17
-3.05728e-17
1.1352e-17
-3.76105e-18
3.84977e-18
6.55276e-19
9.5412e-19
3.89067e-19
-2.76732e-19
-4.78957e-20
-3.45552e-19
0
3.07236e-20
1.02099e-16
-1.14952e-16
0
8.5602e-18
3.17482e-17
-3.03904e-17
4.31776e-18
3.35595e-18
1.33618e-18
1.96667e-18
0
0
-1.60436e-18
2.75075e-18
-9.53142e-19
-3.00873e-19
3.29405e-19
2.46738e-20
-5.69537e-20
1.77253e-17
1.01271e-16
-1.02516e-17
-6.06298e-17
5.35827e-17
5.38914e-18
-4.22571e-18
-3.27777e-18
8.6379e-18
-1.06186e-17
4.88237e-18
-4.99001e-18
5.28555e-19
-8.48864e-19
1.14442e-18
-7.74724e-19
0
0
4.12134e-20
0
2.42277e-17
-6.2973e-17
7.25347e-17
-4.67201e-17
4.66089e-17
0
1.06363e-17
-1.06851e-17
-5.90495e-18
8.3812e-18
0
2.34326e-18
-2.95958e-18
-3.93142e-19
0
-3.3355e-20
-4.91628e-20
-1.04929e-20
-2.48648e-16
1.13426e-16
0
-5.66522e-17
5.66466e-17
2.68455e-17
-1.74097e-17
5.36563e-18
0
-1.66698e-19
7.39473e-19
-9.965e-19
-1.01756e-18
1.42062e-18
-1.51059e-18
0
2.04399e-19
-1.26079e-20
-3.15372e-20
1.48516e-16
-1.41899e-16
0
1.48649e-17
1.16971e-17
-9.66441e-18
0
-5.62323e-18
-3.57195e-18
0
-4.66067e-19
0
1.16165e-18
0
0
2.41052e-19
8.14712e-19
-1.1088e-18
0
-3.51962e-20
2.06306e-17
-1.67415e-17
1.01315e-17
-5.34185e-17
1.86673e-17
0
8.91921e-19
2.36842e-18
0
-1.61904e-18
3.03738e-18
-3.19094e-18
3.28234e-19
0
-9.89536e-20
0
0
0
-2.53215e-20
0
1.54733e-17
0
-1.58521e-17
1.61041e-17
0
3.14065e-18
-1.86776e-18
5.69475e-18
-2.51788e-18
5.3018e-19
-6.43036e-19
4.05871e-19
-7.55174e-19
-1.02369e-19
0
-2.02492e-20
0
5.49739e-17
-9.36399e-17
0
-1.06174e-17
7.8315e-18
0
0
-5.40624e-18
0
-1.24322e-18
-1.19325e-18
-4.87284e-19
5.89561e-19
0
1.18939e-19
0
0
3.65001e-20
-3.29892e-20
0
7.293e-17
-5.75146e-17
9.82928e-18
-7.25201e-18
-2.05052e-18
5.23966e-18
4.33071e-18
-3.53402e-18
1.08885e-18
2.57938e-19
-3.52961e-19
1.31434e-18
-3.73667e-19
-4.8243e-19
1.28392e-19
-1.59577e-20
9.57931e-21
-1.71022e-21
-1.39571e-16
5.00034e-17
0
0
2.57493e-18
-2.61841e-18
8.20884e-19
1.30611e-22
2.81105e-18
9.28901e-19
-7.91254e-19
-1.06828e-19
-1.75137e-19
1.26518e-19
0
2.25763e-20
1.46264e-20
5.01852e-21
1.54579e-21
0
3.86369e-17
-3.14303e-17
9.18239e-18
6.44985e-18
-1.14772e-18
-2.44446e-18
-1.51235e-18
-3.3482e-18
8.63104e-19
-1.93012e-19
4.84437e-19
1.63774e-19
-1.05521e-19
1.12004e-19
3.19074e-20
-4.86569e-20
-4.63535e-21
0
-8.34327e-18
-3.17257e-17
9.44428e-18
6.99115e-18
-1.78907e-17
1.13388e-17
3.17218e-18
-3.24245e-18
1.46955e-18
-8.19128e-19
0
0
-1.62462e-19
2.53001e-19
-8.77309e-20
4.33499e-20
-4.76934e-20
5.50283e-21
-9.80277e-21
1.48604e-17
1.21535e-17
-9.16232e-18
4.36901e-18
-6.68055e-18
-5.9121e-18
0
0
0
0
0
0
8.9629e-20
-1.41754e-19
1.49921e-19
-2.52812e-20
3.32753e-20
1.08356e-20
-8.98771e-21
3.23062e-17
-4.18457e-17
5.14383e-17
-1.50562e-17
2.18002e-17
-8.79124e-18
1.42967e-17
-6.37939e-18
-1.67244e-18
1.71083e-18
0
1.68258e-19
-8.75629e-20
1.25539e-19
-6.81008e-20
-4.70277e-20
-5.57246e-20
5.32694e-21
7.30015e-21
5.10975e-17
1.1964e-17
0
-1.24954e-17
-6.68158e-18
1.33419e-17
-5.33937e-20
-2.91388e-18
1.36787e-18
-5.79175e-19
0
-1.33195e-19
0
-5.39788e-20
3.36378e-20
-2.0717e-20
-5.78355e-21
2.57858e-21
0
7.02165e-17
-1.26473e-17
4.18703e-17
-3.22529e-17
-4.60839e-18
1.23504e-17
-7.24011e-18
5.92536e-19
3.41881e-19
-6.35262e-19
5.08765e-19
0
0
8.24581e-20
-1.20741e-20
4.77701e-21
2.03595e-20
-6.4679e-21
0
-4.34725e-21
0
-1.00395e-17
4.64177e-17
-2.95804e-17
-2.05497e-17
1.09383e-17
-6.29995e-18
5.28809e-18
1.66413e-18
-8.61413e-19
2.64677e-19
-1.90051e-19
4.61059e-20
1.3653e-19
-5.07316e-21
-2.33601e-20
1.96786e-20
-4.17257e-21
1.62443e-16
-4.98437e-17
1.57717e-17
-5.26552e-17
1.06903e-17
-1.2575e-17
7.44426e-18
0
0
-1.44885e-19
-2.66774e-19
-6.25053e-20
0
-1.64371e-19
-8.67401e-20
4.53597e-20
-2.55266e-21
7.32869e-21
9.46932e-21
0
-4.58693e-17
6.37328e-17
6.64172e-18
-4.11855e-17
7.95193e-18
-8.78817e-18
3.21228e-18
5.42727e-18
0
0
5.68262e-20
3.0871e-19
0
-1.22262e-19
-3.87719e-20
6.53842e-21
-9.73144e-21
-1.39788e-20
0
-2.54934e-17
1.29643e-17
4.3307e-17
2.18402e-17
-3.71909e-17
1.4944e-17
-6.27742e-18
3.70554e-18
-3.03132e-18
0
0
0
-3.32872e-19
2.9895e-20
-6.59034e-20
0
-2.35637e-21
1.09078e-20
-1.18917e-16
1.08901e-16
9.19296e-17
-1.09676e-16
3.78851e-17
-3.37299e-17
0
7.0151e-18
-8.70922e-18
4.01325e-18
-2.06158e-18
1.21199e-18
7.03455e-19
3.44263e-19
1.95093e-19
0
0
0
0
1.40128e-16
-7.09623e-17
0
0
-1.52526e-17
2.83599e-17
-1.76547e-17
-7.76274e-18
7.67523e-18
3.56222e-18
4.4713e-18
-1.25756e-18
4.05255e-19
1.86059e-19
1.08041e-19
8.07929e-20
1.23471e-19
-5.28077e-21
5.37894e-21
-1.38316e-16
1.19281e-16
5.13197e-17
-2.83525e-17
4.33871e-17
-2.71188e-17
-1.56464e-17
-1.03846e-17
0
-7.50002e-18
8.68357e-19
1.58373e-18
-8.59116e-19
-5.12094e-19
-1.41128e-19
-1.00893e-19
-8.14244e-20
0
0
-4.75575e-17
0
3.00173e-17
1.04358e-19
0
0
1.61398e-17
1.07154e-17
0
4.33267e-18
0
-2.32804e-18
-4.50682e-19
7.5264e-19
0
3.89789e-19
-4.87487e-20
4.97302e-20
0
1.05441e-16
0
5.44008e-17
-9.43475e-17
7.42727e-17
4.52031e-17
-3.61341e-18
0
1.37869e-18
6.01703e-18
0
-2.83604e-18
2.49655e-18
-1.92133e-18
-3.70993e-19
-2.97631e-19
-1.08208e-19
-2.54012e-20
-1.53883e-19
-9.03765e-17
1.28104e-16
-3.12688e-17
-7.09565e-17
-3.49726e-17
-2.49863e-17
-3.44603e-17
-9.71846e-18
1.96955e-18
2.08756e-18
-2.08364e-18
4.51078e-18
-1.7535e-18
2.88792e-18
-5.16796e-19
0
8.52907e-19
-6.178e-19
1.41439e-19
2.16845e-16
-8.09422e-18
-1.3262e-16
8.9248e-17
-7.08819e-17
5.10593e-17
-3.55363e-18
-1.19675e-17
8.19489e-18
2.28024e-18
-6.85228e-19
-4.06213e-18
8.95526e-19
1.5004e-18
-3.28984e-19
3.32736e-19
-8.83404e-19
-4.8931e-19
-5.0472e-19
1.06452e-16
3.93304e-17
6.13653e-17
-4.58959e-17
-2.94096e-17
4.67806e-18
-1.4702e-17
3.37218e-17
1.99818e-18
9.88089e-18
4.82048e-18
-3.88263e-18
0
-2.02816e-18
0
0
2.61016e-18
9.67532e-19
5.66142e-19
9.56003e-17
0
5.91054e-17
4.55997e-17
-3.33104e-17
2.44207e-17
0
-1.22859e-17
-1.44848e-17
-1.03242e-17
-4.86315e-18
3.92653e-18
0
0
0
0
-2.47194e-18
-3.05223e-18
0
-1.86974e-16
0
-7.18685e-18
-6.69041e-18
5.1717e-17
-2.11339e-17
-8.12436e-18
-8.38838e-18
1.51495e-17
0
3.30882e-18
-3.13441e-19
4.23725e-18
0
0
6.69997e-18
-5.28358e-19
3.68394e-18
-2.19589e-18
1.28649e-16
3.15964e-17
-3.12703e-17
-2.37401e-17
-6.47884e-17
3.82436e-17
3.83784e-17
-2.46933e-18
-1.11478e-17
1.23163e-17
2.28815e-18
-1.32582e-17
-9.3656e-18
-8.47917e-18
-9.53805e-18
-7.78659e-18
9.52236e-18
-4.19971e-19
2.24906e-18
-3.78265e-17
1.51877e-17
-6.92405e-17
9.33312e-18
-9.29916e-18
0
-1.96332e-17
-3.95302e-18
-1.7878e-17
4.52762e-18
1.75412e-17
1.06997e-17
-3.17187e-18
-1.87628e-18
8.87947e-18
0
-2.23625e-17
-9.98954e-18
-1.96941e-19
8.15845e-17
-1.85809e-18
1.08433e-16
-4.60231e-17
2.15598e-19
9.9302e-19
2.7788e-17
-5.80645e-18
1.73388e-17
-1.6098e-17
-1.55019e-17
0
2.20446e-17
1.52465e-17
2.70635e-19
-4.0457e-19
1.32409e-17
1.01438e-17
0
-5.68423e-17
0
-8.35366e-18
4.52085e-17
1.47395e-18
9.0278e-18
-2.68706e-17
2.43177e-17
3.09766e-17
3.02493e-17
3.00825e-17
0
-2.14159e-17
0
1.49821e-18
-1.55603e-18
0
-1.8196e-19
9.65392e-18
4.25987e-17
4.95585e-18
-2.40802e-17
7.80447e-17
-2.36958e-17
0
0
-4.13958e-17
-3.00131e-17
-2.93048e-17
-6.06791e-17
-8.57957e-18
0
0
0
-3.69653e-18
3.91186e-18
2.75915e-17
-9.81356e-18
5.37127e-18
0
-6.00636e-17
-4.82129e-17
5.4813e-17
-5.54085e-17
-7.67904e-17
8.62156e-17
2.90128e-17
0
3.87492e-17
5.19682e-17
-1.11131e-17
6.37384e-17
-1.06475e-17
1.10814e-17
4.61507e-17
-2.62253e-17
0
-8.0123e-17
0
-7.31635e-17
7.03493e-17
0
1.1358e-16
5.11119e-17
-1.15233e-16
9.9745e-17
-2.16233e-19
-2.85866e-17
-5.03159e-17
0
8.21371e-17
-1.33481e-16
1.4471e-16
-1.84776e-16
0
0
8.05922e-17
-1.32481e-18
-3.17317e-18
-1.47058e-16
1.51622e-16
-7.12418e-17
7.09514e-17
7.00662e-17
-5.5237e-17
0
0
1.23268e-16
-1.25392e-16
-1.27994e-16
1.28539e-16
-1.26591e-16
1.38128e-16
-2.17707e-16
0
)
;

boundaryField
{
    up
    {
        type            calculated;
        value           nonuniform List<scalar> 
84
(
0
0
0
0
-6.58283e-18
1.13342e-17
-4.48257e-18
2.24914e-18
-2.01884e-18
0
-6.34498e-19
5.85148e-19
-1.87432e-19
7.54735e-20
4.1865e-20
5.59944e-20
0
0
-8.50882e-21
6.55186e-21
3.89324e-21
-3.7803e-21
2.56265e-22
0
1.32565e-21
9.41803e-22
-8.76449e-21
0
1.43837e-20
2.37127e-20
3.45216e-21
-7.27843e-21
3.89323e-21
0
5.77404e-21
3.58137e-20
-4.61321e-20
7.7519e-20
0
-1.81538e-20
0
0
-1.04953e-20
1.95905e-20
-1.89289e-20
3.07236e-20
-5.69537e-20
4.12134e-20
-1.04929e-20
-3.15372e-20
0
0
0
-3.29892e-20
-5.61634e-21
1.54579e-21
0
-9.80277e-21
-8.98771e-21
5.97648e-21
0
0
-4.17257e-21
9.46932e-21
-1.39788e-20
1.09078e-20
0
5.37894e-21
0
0
-1.53883e-19
1.41439e-19
-5.0472e-19
5.66142e-19
0
-2.19589e-18
2.24906e-18
-1.96941e-19
0
9.65392e-18
-9.81356e-18
0
0
0
)
;
    }
    low
    {
        type            calculated;
        value           nonuniform List<scalar> 
84
(
-1.61604e-16
1.58325e-16
-7.33292e-17
1.21432e-16
2.19685e-17
-5.70988e-18
4.76871e-17
9.66876e-18
0
1.92561e-16
-4.8811e-17
3.16593e-17
-4.08924e-17
-2.9153e-16
4.75702e-17
0
-4.41071e-17
7.61461e-18
-7.50239e-18
-3.11637e-17
1.80802e-17
4.4385e-17
8.58296e-17
-6.96602e-17
0
-1.3387e-17
-6.91194e-18
0
-6.3784e-17
-1.91377e-17
-6.85331e-17
-7.41433e-17
8.02849e-17
2.61044e-17
1.79745e-16
1.43728e-17
0
1.1685e-16
1.21844e-16
6.88933e-17
-3.65072e-17
1.40113e-17
1.40118e-17
0
5.56788e-17
1.36796e-16
1.02099e-16
1.81765e-17
0
-2.48843e-16
1.48516e-16
-3.51962e-20
-2.53215e-20
5.49739e-17
0
-1.39016e-16
0
-8.34327e-18
1.48604e-17
3.19596e-17
5.05578e-17
6.97685e-17
-4.34725e-21
1.62181e-16
0
0
-1.18917e-16
1.4015e-16
-1.38403e-16
-4.75575e-17
1.05634e-16
-9.03765e-17
2.17705e-16
1.06976e-16
9.56003e-17
-1.86974e-16
1.28107e-16
-3.72331e-17
8.15845e-17
-5.65736e-17
4.25987e-17
5.91918e-18
-8.0123e-17
8.07442e-17
)
;
    }
    left
    {
        type            calculated;
        value           nonuniform List<scalar> 
19
(
-1.613e-16
-7.60348e-17
7.98979e-17
4.30599e-18
-1.45597e-16
0
-6.39523e-17
-6.31545e-17
-8.11966e-18
-3.5112e-17
-1.11666e-19
-3.54967e-17
1.62922e-16
-3.58246e-17
1.65607e-16
1.44229e-16
8.6165e-17
1.27585e-16
0
)
;
    }
    right
    {
        type            calculated;
        value           nonuniform List<scalar> 
19
(
8.05922e-17
-1.2237e-18
-3.17317e-18
-1.47157e-16
1.51822e-16
-7.12418e-17
7.09514e-17
7.00662e-17
-5.48249e-17
0
0
1.24522e-16
-1.26996e-16
-1.27994e-16
1.28539e-16
-1.26591e-16
1.38128e-16
-2.35277e-16
0
)
;
    }
    frontAndBackPlanes
    {
        type            empty;
    }
}


// ************************************************************************* //
