/*--------------------------------*- C++ -*----------------------------------*\
  =========                 |
  \\      /  F ield         | OpenFOAM: The Open Source CFD Toolbox
   \\    /   O peration     | Website:  https://openfoam.org
    \\  /    A nd           | Version:  7
     \\/     M anipulation  |
\*---------------------------------------------------------------------------*/
FoamFile
{
    version     2.0;
    format      ascii;
    class       volScalarField;
    location    "0.1";
    object      T;
}
// * * * * * * * * * * * * * * * * * * * * * * * * * * * * * * * * * * * * * //

dimensions      [0 0 0 1 0 0 0];

internalField   nonuniform List<scalar> 
1596
(
5.96937
5.88238
5.79596
5.71889
5.65452
5.603
5.56324
5.53223
5.50766
5.48465
5.45965
5.42758
5.3786
5.30016
5.17433
4.96405
4.60293
3.95985
2.77192
5.86893
5.60092
5.35605
5.14453
4.96975
4.83029
4.72233
4.63903
4.57412
4.51784
4.46215
4.39709
4.30657
4.17196
3.97162
3.66949
3.21441
2.52271
1.43846
5.75405
5.31028
4.92359
4.59651
4.32855
4.11548
3.95071
3.82471
3.72838
3.64942
3.57745
3.50041
3.40091
3.2597
3.05623
2.7602
2.33455
1.72759
0.848308
5.64705
5.04716
4.53834
4.11342
3.76705
3.49208
3.27951
3.11792
2.99632
2.90112
2.82083
2.7427
2.64987
2.52431
2.3476
2.09457
1.73747
1.24279
0.555984
5.56616
4.84105
4.23153
3.72468
3.31171
2.98342
2.72908
2.53608
2.39222
2.28329
2.19728
2.12138
2.03984
1.93631
1.79442
1.59295
1.30982
0.92114
0.391762
5.52003
4.7066
4.01844
3.44381
2.97353
2.59786
2.30531
2.08274
1.91725
1.79437
1.70182
1.62693
1.55513
1.4717
1.36212
1.20818
0.991427
0.693025
0.287921
5.50581
4.641
3.89599
3.26672
2.74705
2.32853
2.00008
1.74864
1.56107
1.42282
1.32149
1.24452
1.17837
1.10974
1.02571
0.910537
0.748399
0.523373
0.215799
5.51333
4.62855
3.84714
3.17593
2.61453
2.15756
1.79543
1.51586
1.30586
1.15098
1.0387
0.956547
0.891733
0.832108
0.766141
0.680183
0.56057
0.393445
0.16239
5.53427
4.65288
3.85228
3.15072
2.55499
2.06403
1.67073
1.3642
1.13196
0.959834
0.835203
0.745578
0.678669
0.62318
0.568691
0.503356
0.415418
0.292797
0.121447
5.55555
4.68978
3.88333
3.16241
2.54054
2.0214
1.60096
1.27013
1.01733
0.828784
0.691827
0.593908
0.523013
0.468424
0.420574
0.369122
0.304002
0.214816
0.0896077
5.57036
4.72223
3.91803
3.187
2.54732
2.00683
1.5646
1.21355
0.943224
0.740371
0.592376
0.486616
0.411204
0.355787
0.311409
0.268943
0.219784
0.155122
0.0649513
5.58554
4.7544
3.9551
3.21873
2.56657
2.00974
1.55007
1.1824
0.897463
0.682549
0.525142
0.41253
0.332827
0.275851
0.23304
0.196172
0.157826
0.110603
0.046281
5.59765
4.78091
3.98664
3.24734
2.58646
2.01754
1.5446
1.16415
0.867901
0.643688
0.479065
0.361215
0.278171
0.219793
0.177741
0.144428
0.113345
0.078264
0.0325175
5.60224
4.79364
4.00278
3.26189
2.59549
2.01867
1.53697
1.14807
0.844448
0.614293
0.445202
0.324237
0.239325
0.180311
0.138971
0.108167
0.0820605
0.0553538
0.0226546
5.60404
4.79714
4.00599
3.26257
2.59188
2.00985
1.52283
1.12916
0.821706
0.588768
0.417871
0.295916
0.210701
0.152023
0.111726
0.0829822
0.0604434
0.0395158
0.0157968
5.6046
4.79458
3.9989
3.25061
2.57536
1.98949
1.49964
1.10424
0.796061
0.56324
0.393043
0.272129
0.188147
0.130842
0.0921027
0.0653395
0.0455687
0.0287226
0.011139
5.60196
4.7841
3.97995
3.22434
2.54387
1.95518
1.46471
1.07046
0.764623
0.534801
0.367792
0.249928
0.168698
0.113811
0.0772282
0.0525743
0.0351675
0.0213481
0.00800626
5.59729
4.76734
3.95099
3.18541
2.49859
1.90751
1.41811
1.02743
0.72663
0.502393
0.340814
0.227797
0.150661
0.099118
0.0652391
0.042881
0.027642
0.0162044
0.00588371
5.5963
4.75342
3.92162
3.14266
2.44703
1.85244
1.36424
0.978224
0.68403
0.467063
0.312453
0.205543
0.133448
0.0858903
0.0550894
0.0351533
0.0219576
0.0124892
0.00440933
5.59752
4.74263
3.89345
3.09826
2.39135
1.79185
1.30463
0.923949
0.637555
0.429209
0.282811
0.183012
0.116686
0.0735904
0.0461279
0.0286924
0.0174491
0.00967807
0.00334143
5.59724
4.73046
3.86323
3.05036
2.33082
1.72571
1.23963
0.86512
0.587724
0.389249
0.252152
0.160295
0.100302
0.0620006
0.0380311
0.0231148
0.0137316
0.00745685
0.00253162
5.59825
4.72043
3.83506
3.00357
2.27016
1.65851
1.17316
0.804945
0.536998
0.348955
0.221661
0.138108
0.0846568
0.0512288
0.0307368
0.0182578
0.0106028
0.00564622
0.00189324
5.60205
4.71591
3.81338
2.96303
2.21478
1.59541
1.10979
0.747165
0.488233
0.31036
0.192684
0.117266
0.0701826
0.0414475
0.0242521
0.0140313
0.00792704
0.00411295
0.00135894
5.60818
4.71749
3.80019
2.932
2.16884
1.54089
1.05375
0.695384
0.44423
0.275461
0.166523
0.0985333
0.0572645
0.0327962
0.0185689
0.0103425
0.00556257
0.0026878
0.000785167
5.62226
4.74609
3.83291
2.96139
2.19092
1.55475
1.06055
0.6972
0.443165
0.273146
0.163987
0.0962928
0.0554961
0.0314914
0.017638
0.00967343
0.00505965
0.00230695
0.000580306
5.63978
4.79281
3.9005
3.03959
2.26974
1.6264
1.12046
0.743878
0.477371
0.296918
0.179745
0.106313
0.0616364
0.0351384
0.0197563
0.0108858
0.00573752
0.00265357
0.000691666
5.65002
4.82693
3.95648
3.1108
2.34732
1.70178
1.18727
0.798674
0.519386
0.327269
0.200505
0.119805
0.0699755
0.0400426
0.0225111
0.0123703
0.00650303
0.00301009
0.000793397
5.65304
4.84714
3.99821
3.1717
2.42048
1.77857
1.25991
0.861766
0.570342
0.365867
0.228073
0.138412
0.0818247
0.0471289
0.0264742
0.0144315
0.00749067
0.00342098
0.000891684
5.65209
4.85887
4.03114
3.22671
2.4924
1.85902
1.34023
0.935055
0.63237
0.415038
0.264797
0.164309
0.0990173
0.0577903
0.0325867
0.0176243
0.00898032
0.0040012
0.00101204
5.64801
4.86536
4.05932
3.27932
2.56541
1.94445
1.42902
1.0193
0.706553
0.476302
0.312553
0.199527
0.123504
0.0736898
0.0420872
0.0227342
0.0113843
0.00492252
0.00119375
5.64323
4.87216
4.08907
3.3351
2.64374
2.03775
1.52821
1.11599
0.794382
0.551416
0.373429
0.2464
0.157681
0.0970479
0.0567853
0.0310018
0.0153755
0.00645232
0.00149474
5.64311
4.8872
4.12835
3.40099
2.73288
2.14293
1.64068
1.22733
0.897849
0.642494
0.449847
0.307692
0.204561
0.130916
0.0794621
0.0445858
0.0222493
0.00908536
0.0019805
5.64493
4.90643
4.17303
3.47315
2.82938
2.2571
1.76417
1.35185
1.0164
0.749976
0.543249
0.385794
0.267371
0.179176
0.114331
0.0674838
0.0350672
0.0143705
0.00274723
5.64798
4.92873
4.22193
3.5505
2.93231
2.37945
1.89812
1.48934
1.15037
0.874927
0.655554
0.483581
0.350037
0.246909
0.16767
0.106975
0.0613239
0.0285542
0.00681124
5.65005
4.94712
4.26328
3.61706
3.02237
2.4884
2.01971
1.61685
1.27757
0.996659
0.768102
0.584674
0.438586
0.322659
0.23075
0.157359
0.0984705
0.0515368
0.0147875
5.64539
4.94562
4.27264
3.6412
3.06204
2.54199
2.08412
1.68826
1.3521
1.07077
0.838916
0.650052
0.497088
0.373452
0.273483
0.191859
0.124508
0.0684928
0.0213255
5.63586
4.93066
4.26062
3.63685
3.06736
2.55708
2.10775
1.71846
1.38655
1.10711
0.875025
0.684139
0.527704
0.399529
0.294382
0.207302
0.134638
0.073909
0.0229221
5.62923
4.92094
4.25406
3.63693
3.07552
2.57328
2.13094
1.74698
1.41848
1.14049
0.908063
0.715331
0.555829
0.42369
0.314037
0.222196
0.144804
0.0796772
0.0247962
5.62622
4.91715
4.25326
3.64135
3.08607
2.58986
2.15271
1.77264
1.44655
1.16944
0.936489
0.742048
0.579866
0.444325
0.330831
0.234937
0.153513
0.0846314
0.0264225
5.6243
4.91499
4.25348
3.64552
3.09483
2.60309
2.1698
1.79262
1.4683
1.19182
0.958442
0.762667
0.598404
0.460221
0.343747
0.244708
0.160164
0.0883962
0.0276583
5.62271
4.91283
4.25278
3.64747
3.09992
2.6113
2.18071
1.80558
1.48256
1.20658
0.972981
0.776357
0.610723
0.470775
0.352295
0.251138
0.1645
0.090819
0.0284448
5.62003
4.90886
4.24951
3.64584
3.10028
2.61363
2.18477
1.81099
1.4889
1.2134
0.979875
0.782966
0.616749
0.475991
0.356556
0.254368
0.166695
0.0920558
0.0288531
5.62004
4.90889
4.24955
3.64589
3.10034
2.61369
2.18483
1.81105
1.48895
1.21346
0.979923
0.78301
0.616787
0.476024
0.356583
0.254389
0.16671
0.0920647
0.0288562
5.62275
4.91292
4.25291
3.64762
3.1001
2.61149
2.1809
1.80576
1.48273
1.20674
0.973128
0.776489
0.610838
0.470874
0.352376
0.251202
0.164546
0.0908467
0.0284545
5.62435
4.91513
4.25369
3.64577
3.09511
2.60339
2.1701
1.79291
1.46858
1.19208
0.958678
0.762878
0.598588
0.460378
0.343875
0.244808
0.160236
0.0884393
0.0276732
5.62629
4.91734
4.25354
3.64169
3.08646
2.59026
2.15312
1.77303
1.44692
1.16978
0.936804
0.742328
0.580109
0.444531
0.331
0.235068
0.153607
0.0846877
0.0264419
5.62932
4.92118
4.25441
3.63736
3.076
2.57378
2.13145
1.74747
1.41894
1.14092
0.908449
0.715672
0.556124
0.423938
0.314239
0.222353
0.144915
0.079744
0.0248192
5.63597
4.93094
4.26103
3.63735
3.06792
2.55767
2.10835
1.71903
1.38709
1.10761
0.875469
0.684528
0.528038
0.399807
0.294607
0.207474
0.134758
0.0739801
0.022946
5.64551
4.94594
4.27311
3.64178
3.06268
2.54267
2.0848
1.68892
1.35272
1.07133
0.839412
0.650482
0.497452
0.37375
0.273718
0.192034
0.124627
0.0685613
0.0213484
5.65021
4.94758
4.264
3.61799
3.02345
2.48957
2.0209
1.61801
1.27866
0.997665
0.769002
0.585464
0.439268
0.32324
0.231239
0.157763
0.0987876
0.051753
0.0148735
5.64817
4.92928
4.22279
3.5516
2.93357
2.38081
1.89949
1.49067
1.1516
0.876042
0.656534
0.484425
0.350752
0.247505
0.168158
0.107361
0.0616061
0.0287278
0.00687101
5.6451
4.90691
4.17379
3.47414
2.8305
2.25829
1.76536
1.35297
1.01741
0.750868
0.544008
0.386424
0.267883
0.179584
0.114644
0.0677089
0.0352094
0.0144392
0.00276099
5.64326
4.88766
4.12909
3.40194
2.73395
2.14406
1.64178
1.22835
0.898753
0.643265
0.450482
0.308202
0.204961
0.13122
0.0796832
0.0447341
0.0223351
0.0091226
0.00198761
5.64337
4.87259
4.08976
3.33599
2.64476
2.0388
1.52922
1.1169
0.795175
0.552073
0.373955
0.246808
0.15799
0.0972727
0.056941
0.0311008
0.0154298
0.00647484
0.00149869
5.64814
4.86576
4.05997
3.28015
2.56636
1.94542
1.42994
1.02011
0.707239
0.476855
0.312983
0.199849
0.123739
0.0738544
0.0421963
0.0228003
0.0114191
0.00493655
0.00119609
5.6522
4.85923
4.03173
3.22748
2.49326
1.85989
1.34104
0.935763
0.632953
0.415495
0.265142
0.164561
0.0991941
0.0579097
0.0326627
0.0176686
0.00900294
0.0040102
0.00101356
5.65313
4.84745
3.99874
3.17239
2.42125
1.77933
1.26061
0.862367
0.570827
0.366238
0.228346
0.138605
0.0819568
0.0472152
0.0265274
0.0144618
0.00750592
0.00342717
0.000892868
5.6501
4.8272
3.95695
3.1114
2.34798
1.70243
1.18786
0.799172
0.519781
0.327566
0.20072
0.119953
0.0700747
0.0401061
0.0225495
0.012392
0.00651421
0.00301499
0.000794563
5.63984
4.79304
3.90089
3.04009
2.27029
1.62695
1.12095
0.744283
0.477689
0.297155
0.179914
0.106429
0.061713
0.0351869
0.0197856
0.0109027
0.00574668
0.00265802
0.000692982
5.62226
4.74615
3.83301
2.96152
2.19107
1.55491
1.06069
0.697321
0.443263
0.273221
0.164043
0.0963316
0.0555222
0.0315078
0.0176477
0.00967856
0.00506189
0.00230741
0.00057995
5.60816
4.71743
3.8001
2.93189
2.16872
1.54078
1.05365
0.695305
0.444169
0.275416
0.166491
0.098511
0.0572491
0.0327855
0.0185614
0.0103372
0.00555893
0.00268534
0.000783903
5.60205
4.7159
3.81337
2.96302
2.21478
1.59542
1.1098
0.747175
0.488243
0.310369
0.192691
0.11727
0.070185
0.0414487
0.0242524
0.0140313
0.00792686
0.00411271
0.00135872
5.59825
4.72042
3.83505
3.00356
2.27016
1.65851
1.17317
0.804952
0.537005
0.34896
0.221665
0.138111
0.0846582
0.0512295
0.0307371
0.0182579
0.0106029
0.00564626
0.00189321
5.59724
4.73045
3.86323
3.05036
2.33081
1.72572
1.23964
0.865125
0.587728
0.389252
0.252155
0.160297
0.100303
0.0620013
0.0380318
0.0231155
0.0137322
0.00745726
0.00253173
5.59752
4.74263
3.89345
3.09826
2.39135
1.79185
1.30463
0.923951
0.637558
0.429211
0.282813
0.183014
0.116688
0.0735916
0.0461292
0.0286937
0.0174504
0.00967896
0.0033417
5.5963
4.75342
3.92161
3.14266
2.44703
1.85244
1.36424
0.978225
0.684031
0.467064
0.312454
0.205545
0.133449
0.0858922
0.0550915
0.0351556
0.0219597
0.0124908
0.00440978
5.59729
4.76733
3.95099
3.18541
2.49859
1.90751
1.41811
1.02743
0.72663
0.502393
0.340814
0.227798
0.150663
0.0991208
0.0652424
0.0428845
0.0276453
0.0162067
0.00588438
5.60196
4.7841
3.97995
3.22435
2.54387
1.95518
1.46471
1.07046
0.764621
0.534801
0.367793
0.24993
0.168701
0.113815
0.0772331
0.0525796
0.0351722
0.0213513
0.00800714
5.6046
4.79459
3.9989
3.25062
2.57536
1.98949
1.49964
1.10424
0.796059
0.56324
0.393044
0.272132
0.188152
0.130848
0.0921097
0.0653467
0.045575
0.0287266
0.01114
5.60404
4.79715
4.006
3.26257
2.59188
2.00985
1.52283
1.12916
0.821704
0.588768
0.417873
0.29592
0.210707
0.152031
0.111735
0.0829913
0.0604509
0.0395202
0.0157977
5.60224
4.79364
4.00279
3.26189
2.59549
2.01867
1.53697
1.14807
0.844447
0.614294
0.445205
0.324243
0.239334
0.180321
0.138982
0.108177
0.0820683
0.0553578
0.0226551
5.59766
4.78091
3.98665
3.24734
2.58646
2.01754
1.5446
1.16414
0.867901
0.643689
0.47907
0.361223
0.278181
0.219805
0.177753
0.144438
0.113352
0.0782664
0.0325172
5.58554
4.7544
3.9551
3.21873
2.56657
2.00974
1.55006
1.1824
0.897464
0.682552
0.525148
0.412539
0.332838
0.275863
0.233051
0.196179
0.157829
0.110603
0.0462799
5.57036
4.72223
3.91803
3.18701
2.54732
2.00683
1.56459
1.21355
0.943226
0.740376
0.592384
0.486626
0.411215
0.355796
0.311415
0.268945
0.219782
0.155118
0.0649494
5.55556
4.68978
3.88333
3.16241
2.54054
2.0214
1.60096
1.27013
1.01733
0.828789
0.691834
0.593916
0.52302
0.468428
0.420573
0.369116
0.303993
0.214809
0.0896057
5.53427
4.65288
3.85228
3.15072
2.55499
2.06403
1.67073
1.3642
1.13196
0.959837
0.835207
0.745581
0.67867
0.623176
0.568681
0.503342
0.415403
0.292788
0.121445
5.51333
4.62855
3.84713
3.17592
2.61453
2.15756
1.79543
1.51586
1.30586
1.15098
1.0387
0.956544
0.891725
0.832094
0.766123
0.680162
0.560553
0.393436
0.16239
5.50581
4.641
3.89599
3.26672
2.74705
2.32853
2.00007
1.74864
1.56106
1.42282
1.32148
1.24451
1.17836
1.10971
1.02568
0.910513
0.748382
0.523367
0.215801
5.52003
4.70659
4.01843
3.4438
2.97353
2.59785
2.30531
2.08274
1.91725
1.79436
1.70181
1.62691
1.55511
1.47167
1.3621
1.20816
0.991416
0.693024
0.287924
5.56616
4.84104
4.23153
3.72468
3.31171
2.98342
2.72907
2.53607
2.39221
2.28328
2.19726
2.12136
2.03981
1.93628
1.7944
1.59294
1.30982
0.921144
0.391766
5.64705
5.04716
4.53834
4.11342
3.76705
3.49208
3.27951
3.11791
2.99631
2.9011
2.82081
2.74267
2.64984
2.52429
2.34758
2.09456
1.73747
1.2428
0.555986
5.75405
5.31028
4.9236
4.59651
4.32855
4.11548
3.95071
3.8247
3.72837
3.6494
3.57743
3.50039
3.40089
3.25969
3.05623
2.76021
2.33456
1.7276
0.848308
5.86892
5.60092
5.35606
5.14453
4.96975
4.83029
4.72233
4.63902
4.57411
4.51783
4.46214
4.39708
4.30657
4.17196
3.97162
3.66949
3.21442
2.52271
1.43846
5.96937
5.88238
5.79596
5.71889
5.65452
5.603
5.56324
5.53223
5.50766
5.48465
5.45964
5.42758
5.3786
5.30016
5.17434
4.96406
4.60294
3.95984
2.77192
)
;

boundaryField
{
    up
    {
        type            fixedValue;
        value           uniform 0;
    }
    low
    {
        type            fixedValue;
        value           uniform 6;
    }
    left
    {
        type            fixedValue;
        value           uniform 6;
    }
    right
    {
        type            fixedValue;
        value           uniform 6;
    }
    frontAndBackPlanes
    {
        type            empty;
    }
}


// ************************************************************************* //
