/*--------------------------------*- C++ -*----------------------------------*\
  =========                 |
  \\      /  F ield         | OpenFOAM: The Open Source CFD Toolbox
   \\    /   O peration     | Website:  https://openfoam.org
    \\  /    A nd           | Version:  7
     \\/     M anipulation  |
\*---------------------------------------------------------------------------*/
FoamFile
{
    version     2.0;
    format      ascii;
    class       volScalarField;
    location    "0.01";
    object      gradTz;
}
// * * * * * * * * * * * * * * * * * * * * * * * * * * * * * * * * * * * * * //

dimensions      [0 -1 0 1 0 0 0];

internalField   nonuniform List<scalar> 
1596
(
-1.60781e-16
-5.43792e-17
7.68778e-17
1.96595e-17
-1.19883e-16
0
-4.03731e-17
-4.01423e-17
-2.16577e-17
-2.80001e-17
8.8593e-20
-2.86927e-17
1.61318e-16
-3.05097e-17
1.24673e-16
1.14225e-16
6.89582e-17
1.1832e-16
0
1.34426e-16
0
1.00726e-16
-2.75683e-18
-1.0381e-17
1.77024e-17
6.65487e-17
1.61361e-17
2.50464e-17
-1.26235e-17
2.56412e-17
2.30443e-19
-3.22318e-17
-1.98103e-17
-9.66834e-17
-1.01895e-16
-1.02046e-16
7.23035e-17
0
-4.06276e-17
0
-3.87788e-17
3.35424e-18
1.75343e-17
-1.61509e-17
3.2281e-18
-2.41892e-20
4.27582e-21
3.83822e-20
1.48881e-18
0
1.66404e-17
3.36394e-17
-3.03544e-18
3.68831e-18
7.11864e-18
2.70364e-17
0
1.02864e-16
-9.44299e-18
9.40851e-18
0
-5.21678e-18
-6.01457e-18
6.21061e-18
-1.86676e-18
0
0
-5.2479e-18
7.94423e-19
0
-6.7027e-18
-3.803e-18
3.25988e-18
-1.1001e-17
-4.2699e-19
0
2.16999e-17
2.25799e-17
-5.5664e-18
0
-3.34677e-19
-1.78559e-18
0
2.13846e-18
-1.07182e-19
-1.07603e-19
-1.46057e-18
4.71521e-19
7.66602e-19
1.49418e-19
1.88233e-18
-3.46448e-18
1.13914e-19
1.63908e-18
-1.54803e-18
-5.63511e-18
-2.81829e-17
1.07209e-17
-3.85941e-18
-4.77227e-20
-4.40987e-19
8.29451e-21
-8.32204e-21
-1.46629e-19
0
-4.2763e-19
-6.11573e-19
-6.61014e-19
1.97167e-19
8.4238e-19
-6.23698e-21
-3.48996e-19
-1.6625e-18
2.09237e-18
4.70936e-17
-3.27684e-17
1.48025e-17
1.8449e-18
0
3.66755e-19
9.02031e-20
-2.69018e-20
1.66889e-19
-1.57646e-20
-1.62947e-19
-4.18958e-22
-3.55293e-20
-1.95985e-19
-5.58081e-20
6.53114e-20
3.52068e-19
-7.00831e-21
-5.22168e-19
2.19093e-17
6.11631e-17
-2.80156e-17
0
0
-4.58746e-19
0
0
0
1.08752e-20
0
0
4.03189e-20
-3.9931e-22
4.52463e-20
-6.25823e-20
0
2.98919e-20
4.38492e-20
0
-2.76265e-17
4.25467e-17
0
0
4.72445e-19
0
-1.20375e-20
1.20254e-20
-1.10694e-20
2.05794e-21
-2.07299e-21
0
2.78449e-21
1.33321e-20
0
-3.8657e-21
-3.02399e-20
-4.193e-20
1.66683e-16
-6.06675e-17
0
-4.32053e-18
4.27217e-18
0
1.82911e-19
0
0
0
6.10629e-22
-6.13556e-22
0
-2.48806e-21
-2.71101e-22
0
3.03337e-21
1.13325e-21
0
-4.15875e-17
0
0
4.7333e-18
-6.20555e-18
1.0675e-18
2.66943e-19
-1.5819e-20
1.18327e-20
1.5821e-21
-9.80068e-22
-2.87456e-22
0
1.42596e-22
-6.04664e-23
6.13739e-23
6.93927e-22
-1.02894e-21
-4.98161e-22
-7.69585e-19
-1.91168e-17
9.94325e-18
1.27837e-17
-3.33015e-18
-1.66264e-18
0
0
0
3.25264e-21
2.60274e-22
3.14697e-22
-7.61579e-23
-1.40045e-22
-1.93474e-23
-2.48531e-23
1.22398e-23
-3.63145e-23
4.51869e-22
-2.28695e-17
2.94625e-17
-3.16272e-17
-1.27807e-17
7.73316e-18
5.28038e-19
-6.68124e-19
1.84626e-19
-4.78769e-20
8.35903e-21
1.13281e-21
-1.45946e-22
-1.36154e-23
-7.76064e-24
3.90044e-23
0
-2.10889e-24
3.60821e-23
-1.41889e-23
-2.51497e-16
8.37279e-17
-1.75419e-19
-1.37313e-18
2.37579e-18
5.16629e-19
-7.32634e-19
-5.96351e-20
1.50107e-20
-3.59356e-21
-8.38619e-22
0
-7.838e-23
-1.43065e-23
-4.13291e-24
-1.34489e-24
1.46227e-25
-4.98122e-24
1.13738e-23
4.0346e-17
-2.05785e-17
-3.26585e-19
-3.58799e-18
-2.73959e-18
1.91552e-18
1.51384e-20
5.81144e-20
-1.46149e-20
6.71106e-21
5.7253e-22
2.41328e-22
8.07811e-23
0
6.13897e-24
1.42327e-24
0
7.64695e-25
1.81129e-24
0
1.99635e-17
3.07856e-18
-1.15548e-17
2.5415e-18
-2.1701e-18
6.16808e-19
3.08465e-20
-2.28683e-20
-1.06421e-20
2.06355e-22
-2.05337e-22
-6.74787e-23
6.81323e-24
-1.5028e-24
-1.17712e-24
1.15317e-25
-4.25865e-26
3.26316e-25
-3.6458e-17
5.21276e-17
-4.35734e-17
5.32354e-18
0
0
-2.73187e-20
9.63266e-20
-6.10702e-21
8.08609e-21
0
0
3.74291e-23
-1.44733e-23
-1.49705e-24
3.9662e-25
-9.8592e-26
2.83452e-26
0
1.75989e-17
3.42967e-17
-7.03904e-18
-2.85607e-18
-9.91692e-19
4.89618e-19
2.13444e-19
0
-4.57133e-21
1.06599e-21
3.28627e-22
-7.14837e-23
1.53844e-23
0
7.9751e-25
4.26797e-25
0
0
0
-1.72617e-17
4.32522e-18
-7.2329e-18
-1.00487e-17
5.68444e-19
1.96379e-19
0
0
3.2703e-21
-2.31075e-21
-3.17854e-22
6.91378e-23
-1.48779e-23
0
-1.65545e-25
1.066e-25
0
-5.04623e-27
-1.13174e-27
-1.37098e-17
4.85597e-17
-2.86596e-17
-2.1588e-18
1.58297e-18
-1.16266e-19
2.87594e-20
0
-1.50806e-21
4.86023e-22
0
0
2.18034e-24
-2.18285e-24
4.75791e-26
-8.75404e-26
1.14153e-26
2.5264e-27
8.32721e-28
1.39878e-17
-5.7731e-18
1.01047e-17
-5.4987e-18
-3.24806e-19
7.46504e-20
1.08649e-19
4.35456e-21
1.44299e-21
0
2.99785e-23
-2.80194e-23
5.70416e-24
-1.22303e-24
1.28071e-25
-8.18486e-26
-6.26172e-27
3.09571e-27
2.48876e-28
2.35216e-17
-3.07145e-17
0
1.28282e-18
-9.58939e-19
-7.81734e-20
-1.98367e-22
-2.23418e-20
0
-2.62221e-23
-8.36566e-23
-7.65834e-24
2.16299e-24
-4.82179e-25
-1.23779e-25
2.54996e-26
0
5.58312e-28
-2.41656e-28
8.20877e-17
-4.35313e-18
4.86426e-18
-3.53727e-18
1.50395e-19
-1.58534e-19
-5.19736e-20
-1.16277e-21
1.3897e-21
-1.2543e-22
-1.92634e-23
1.02362e-23
-1.63305e-24
-2.21114e-25
0
0
0
-5.5517e-28
1.23383e-29
-4.13669e-17
3.39831e-17
-1.43297e-19
2.62191e-19
7.59954e-20
-3.26381e-20
1.87908e-20
-3.72476e-21
7.65784e-22
-2.0788e-23
3.11172e-23
1.02038e-24
-1.26093e-25
-6.52826e-27
4.83852e-27
-1.29976e-27
0
0
0
0
0
1.52342e-18
-2.31357e-18
-6.8374e-19
0
0
-4.03078e-22
-1.90216e-22
2.84938e-23
0
-1.28689e-24
2.45273e-25
-1.4769e-25
1.26786e-25
-4.51524e-27
4.55113e-27
1.15158e-28
0
-7.31418e-18
7.4042e-18
0
-2.80149e-19
1.10465e-19
6.80704e-20
0
4.06927e-22
2.61118e-23
-2.24514e-22
0
-9.41349e-25
2.04203e-25
4.66904e-26
-1.00739e-26
5.29586e-27
0
-3.59409e-28
0
-3.85184e-18
-5.49952e-19
8.53781e-20
2.87846e-19
-2.03244e-19
0
-3.06685e-21
0
3.21039e-22
2.56986e-23
0
2.73776e-24
-1.51286e-24
1.86283e-25
1.69042e-26
2.19535e-26
1.00176e-26
1.04395e-27
-8.69986e-28
0
4.62848e-18
-9.52443e-19
1.02855e-18
1.36672e-19
0
5.49808e-21
-3.30576e-21
-1.86312e-22
3.6898e-23
-4.50682e-23
-1.57066e-24
0
0
1.40873e-26
0
0
1.96142e-27
0
-3.83966e-17
3.28048e-17
0
3.06339e-19
5.58389e-20
-1.29199e-21
1.14218e-20
-2.03682e-22
-1.33476e-21
-3.25485e-22
6.10301e-23
-1.01455e-23
0
3.33156e-26
0
0
0
-1.03804e-26
9.16414e-27
-1.53635e-17
6.55375e-18
6.14204e-18
-4.11774e-18
3.33632e-19
7.09784e-20
-1.09585e-20
2.25598e-21
8.46696e-22
1.13861e-22
-1.76636e-22
0
-2.85968e-27
-1.24267e-25
1.13333e-26
-3.48196e-26
5.25198e-26
-1.2869e-26
3.25629e-26
-7.28368e-17
3.10768e-17
-2.58462e-17
1.29968e-18
3.47543e-19
-2.09634e-19
6.1614e-20
-6.81071e-21
0
-4.55742e-22
6.38363e-23
1.56084e-23
3.64297e-24
-4.56769e-25
5.81667e-25
1.77083e-25
0
-1.80399e-26
2.45285e-26
-7.79096e-17
-9.13702e-18
-5.67542e-18
4.33959e-18
-1.08979e-18
3.1081e-19
-1.14357e-19
1.70563e-20
-2.81253e-21
-1.402e-21
-1.68563e-22
1.58194e-22
7.1586e-24
-9.39594e-25
1.00866e-24
1.67273e-25
-2.26688e-25
0
-1.33704e-26
8.42373e-17
-1.1489e-17
0
0
-1.27185e-18
1.66024e-18
-1.75999e-19
-3.85885e-21
1.32478e-20
-1.37962e-21
0
0
-1.22255e-23
0
1.96231e-24
-7.00942e-24
4.72592e-24
0
-1.71223e-26
2.25319e-17
2.54804e-17
0
-3.0509e-18
-5.39193e-19
3.58557e-19
-1.77845e-19
1.53218e-20
-2.527e-20
-4.08136e-23
0
0
2.14737e-22
0
0
1.43388e-24
7.55678e-24
0
0
1.59047e-16
-3.98035e-17
-4.61565e-17
-6.45407e-18
9.54528e-18
7.90996e-19
1.72443e-19
0
-8.34979e-21
4.10301e-21
4.5083e-21
-9.31083e-22
-1.88433e-22
1.31634e-22
-1.40018e-22
-6.19156e-24
0
0
0
1.25232e-17
-5.3209e-17
4.92167e-17
-1.92227e-18
-5.52469e-18
6.23841e-18
-1.88406e-18
0
0
3.39138e-20
-2.04675e-20
0
-4.03288e-22
8.78071e-22
-2.83027e-24
6.3604e-23
9.89956e-24
3.80292e-25
8.54345e-25
0
0
0
1.35923e-17
-9.77497e-18
2.11187e-18
-2.68426e-18
4.16822e-19
0
-1.58488e-20
7.78406e-21
-7.95577e-21
-3.40771e-22
5.54474e-23
-5.07387e-23
-2.91982e-24
-2.15138e-23
-4.7511e-24
-2.05801e-24
9.00546e-17
-1.31501e-16
4.81972e-17
0
1.80553e-18
-2.747e-18
6.31689e-19
-4.72512e-19
0
-1.76257e-20
2.71146e-20
0
0
6.95624e-23
0
-5.53303e-23
3.23858e-23
3.88199e-26
3.79787e-24
1.22203e-16
0
-1.31426e-17
1.42339e-17
-2.40815e-18
4.20169e-18
-1.26968e-18
-2.09892e-19
2.12084e-19
-6.20055e-21
0
0
4.05856e-22
-2.69378e-22
-9.64583e-23
1.52141e-22
-2.46887e-23
6.22442e-24
0
6.81652e-17
2.52168e-17
-1.04984e-17
-1.40211e-17
-5.24613e-19
-1.47051e-18
7.88073e-19
5.72065e-19
-8.68466e-21
6.31698e-21
0
0
-4.15773e-22
0
1.28479e-22
-1.37442e-22
0
7.86756e-24
-1.94015e-24
-3.59134e-17
-1.27386e-17
1.2123e-17
-5.74767e-19
-1.37735e-19
1.83804e-19
0
-1.12055e-20
5.9303e-20
-4.93618e-20
0
1.72871e-21
-1.05653e-21
-7.74557e-22
-2.83382e-23
-1.39496e-23
0
-6.36596e-24
0
1.0787e-17
-1.71361e-17
2.33827e-18
3.444e-18
9.41539e-19
-8.70364e-19
-1.53222e-19
1.66348e-19
-1.30453e-20
1.14315e-20
-2.20042e-21
2.26829e-21
0
9.84691e-25
-1.47945e-23
6.02626e-23
-1.22042e-25
0
0
1.07875e-17
-1.07471e-17
-3.42244e-18
3.15327e-18
1.60662e-18
-1.6161e-18
-7.66243e-20
7.70167e-20
-1.31951e-20
1.3315e-20
-2.20101e-21
3.19142e-21
-7.59705e-22
-2.1001e-22
-2.10348e-23
1.23827e-23
1.13004e-23
2.02524e-24
-1.43719e-24
0
-2.04341e-18
5.71432e-18
-6.55956e-18
1.5864e-18
-1.47316e-18
0
1.23993e-19
-1.16803e-19
0
4.16794e-21
-4.88134e-21
-7.39734e-22
7.75288e-22
5.02267e-23
0
0
-6.37663e-24
2.10072e-24
4.27941e-17
-6.57772e-17
4.19272e-17
-2.12621e-17
6.13823e-18
-1.23918e-18
1.25838e-18
4.00836e-20
-5.53648e-20
4.72852e-20
0
-3.47088e-21
3.15147e-21
-1.77657e-22
-4.9197e-23
3.79863e-23
1.91486e-23
6.19049e-24
-2.02978e-24
1.35349e-16
0
-1.53535e-17
1.2076e-17
5.18834e-19
-1.49668e-18
1.89132e-18
-7.76946e-19
1.98263e-19
-1.60464e-20
1.64249e-20
9.89023e-22
6.54269e-22
1.73039e-22
-5.89781e-23
-1.42924e-23
-4.32228e-23
0
1.94759e-24
7.70921e-17
-8.68996e-17
0
2.13528e-18
3.68458e-18
-3.14989e-18
1.61828e-19
6.30969e-20
1.37829e-20
8.9403e-21
0
0
-9.12476e-22
1.10241e-21
-2.70999e-22
-2.96774e-23
3.24918e-23
1.41493e-24
-3.44118e-24
4.37163e-17
7.78978e-17
-4.08015e-18
-1.16353e-17
1.06596e-17
3.92312e-19
-1.58378e-19
-6.16269e-20
5.86649e-20
-6.78213e-20
7.80408e-21
-7.97613e-21
7.19813e-23
-4.30621e-22
1.36142e-22
-9.02243e-23
0
0
1.12067e-24
0
1.48835e-17
-1.94016e-17
2.32433e-17
-4.67998e-18
4.66884e-18
0
1.33467e-19
-1.34079e-19
-1.67311e-20
2.05329e-20
0
7.32824e-22
-8.81488e-22
-4.85118e-23
0
-1.04972e-24
-4.22515e-25
-6.5937e-25
-2.18819e-16
8.24246e-17
0
-9.55734e-18
9.55638e-18
1.252e-18
-7.71593e-19
5.8906e-20
0
-3.45655e-22
-4.07963e-22
-9.34666e-22
-1.89503e-22
1.32478e-22
-1.40868e-22
0
1.97579e-24
1.24192e-24
-4.33346e-25
1.14799e-16
-9.62778e-17
0
2.55212e-18
9.87984e-19
-4.91591e-19
0
-6.1734e-20
-1.12074e-20
0
-1.21563e-21
0
2.16336e-22
0
0
4.94823e-25
-3.5853e-24
1.93169e-24
0
-3.77475e-19
1.15e-17
-4.83187e-18
5.30796e-19
-4.89431e-18
1.06194e-18
0
3.87623e-21
6.32678e-21
0
-8.38711e-22
2.3952e-22
-2.51629e-22
1.2901e-24
0
-8.9764e-25
0
0
0
-3.9265e-19
0
4.46586e-18
0
-6.957e-19
7.0676e-19
0
9.59896e-21
-1.85917e-21
3.23328e-21
-8.59559e-22
1.70691e-23
-3.94274e-24
-2.2295e-24
1.13764e-24
4.11441e-25
0
-1.01574e-26
0
3.26234e-17
-5.78384e-17
0
-1.01665e-18
3.04704e-19
0
0
-1.35829e-20
0
-4.58398e-22
-6.42109e-23
-1.56881e-23
3.61486e-24
0
-8.70032e-26
0
0
9.0354e-26
-1.20413e-25
0
2.59572e-17
-1.89551e-17
9.41188e-19
-2.82158e-19
-1.83387e-20
2.96301e-20
6.63177e-21
-1.18834e-21
3.45673e-22
3.87636e-23
-1.14537e-24
3.51509e-24
-5.63266e-26
1.42702e-25
1.57533e-26
-1.51698e-26
2.26147e-26
-5.32897e-27
-1.14182e-16
3.33724e-17
0
0
4.53169e-20
-4.60822e-20
-2.23899e-21
-2.39992e-21
3.18055e-22
4.1832e-23
-3.15727e-23
-1.20466e-24
-9.89704e-26
-2.54956e-26
0
1.12637e-26
1.39042e-26
3.47704e-27
4.81664e-27
0
1.28418e-17
-5.55096e-18
9.6765e-19
9.75519e-20
-1.45841e-20
-5.35982e-21
-1.00085e-21
-5.27148e-22
2.91708e-23
1.74168e-24
4.5969e-24
9.25495e-26
-5.74367e-26
6.09656e-26
1.074e-26
-2.04783e-26
-3.21156e-27
0
-7.34952e-18
-1.22739e-17
1.2452e-18
2.88178e-19
-2.20958e-19
9.37424e-20
2.8548e-21
-2.91804e-21
1.77222e-22
-2.76845e-23
0
0
-2.3826e-25
3.11738e-25
-6.5805e-26
1.12219e-26
-1.33632e-26
9.57567e-28
-1.46039e-27
1.09118e-17
3.97966e-18
-1.07919e-18
3.69538e-20
-2.61673e-19
-2.33161e-20
0
0
0
0
0
0
2.25125e-25
-1.18649e-25
1.25484e-25
-4.44645e-27
6.25551e-27
8.51265e-28
-5.71914e-28
3.23062e-17
-9.6935e-18
1.08728e-17
-3.47823e-19
6.27913e-19
-2.83582e-20
3.2547e-20
-5.83162e-21
-1.9071e-22
1.95088e-22
0
1.28184e-24
-2.19935e-25
1.02688e-25
-8.70785e-26
-2.00389e-26
-6.11911e-27
6.49208e-28
2.70719e-28
5.50518e-17
4.11775e-18
0
-5.82109e-19
-7.53086e-20
1.02369e-19
-8.94046e-21
-3.27742e-21
5.99866e-22
-5.42032e-23
0
-1.01472e-24
0
-7.84306e-26
2.43088e-26
-5.02498e-27
-7.09544e-28
7.56644e-29
0
6.9944e-17
-4.35291e-18
5.09479e-18
-3.63156e-18
-1.10596e-19
7.88e-20
-4.38121e-20
1.38957e-21
6.29714e-22
-9.40182e-23
4.4927e-23
0
0
1.91254e-25
1.04663e-26
4.57436e-29
2.29228e-27
-4.21864e-28
0
-3.02975e-19
0
-1.61111e-18
2.87016e-18
-1.4608e-18
-1.86434e-19
8.58193e-20
-6.64265e-21
4.50049e-21
2.96882e-22
-5.47796e-23
1.22277e-23
-3.26271e-24
3.27978e-25
2.48829e-25
-1.05871e-26
-5.11648e-27
1.78761e-27
-2.68996e-28
1.33542e-16
-3.36088e-17
1.03841e-18
-6.69162e-18
3.24807e-19
-1.46734e-19
9.73094e-20
0
0
-4.92008e-23
-1.05553e-22
-5.60542e-24
0
-6.29991e-25
-1.2775e-25
2.62623e-26
-5.67969e-28
1.84565e-27
7.64346e-28
0
-2.0675e-17
1.15632e-17
-2.71277e-18
-2.66759e-18
1.16268e-19
-4.13151e-20
3.11134e-20
9.65516e-21
0
0
3.56088e-24
1.05327e-23
0
-3.76575e-25
-5.79982e-26
8.04968e-27
-2.94461e-28
-1.62263e-27
0
-6.51485e-18
1.2882e-17
8.15797e-18
6.87389e-19
-1.01276e-18
2.19316e-19
-1.40422e-20
1.07561e-20
-1.43012e-21
0
0
0
-3.20189e-24
-9.4126e-26
-1.66636e-25
0
-4.93016e-28
1.62883e-27
-8.65483e-17
6.75571e-17
1.836e-17
-2.03015e-17
1.69755e-18
-1.22445e-18
0
1.9118e-20
-2.0241e-20
4.02259e-21
-4.48555e-22
9.94689e-23
2.18149e-23
3.31147e-24
7.24204e-25
0
0
0
0
1.32479e-16
-3.63494e-17
0
0
-9.84418e-19
6.13729e-19
-3.51839e-19
-2.5053e-20
2.47706e-20
2.05237e-21
1.05761e-21
-1.03209e-22
1.48891e-23
-1.34247e-24
3.96075e-25
-3.02062e-26
1.07991e-25
-2.3249e-27
2.36812e-27
-1.20299e-16
7.68967e-17
1.17716e-17
-8.23863e-18
2.44072e-18
-1.39604e-18
-1.96961e-19
-5.21822e-20
0
-4.9101e-21
1.17142e-21
1.64093e-22
-3.07141e-23
-6.83546e-24
-5.52517e-25
1.00233e-25
-3.78072e-26
0
0
-4.00912e-17
0
9.28665e-18
1.69341e-19
0
0
2.03171e-19
5.38446e-20
0
3.21716e-21
0
-2.24749e-22
1.2285e-23
1.04141e-23
0
1.51136e-24
-7.785e-26
7.94174e-26
0
1.05441e-16
0
1.35963e-17
-1.81476e-17
7.52752e-18
1.31873e-18
-2.8023e-19
0
5.72552e-21
9.42025e-21
0
-2.58047e-22
1.18768e-22
-3.63581e-23
-3.9558e-24
-1.07945e-24
-4.95612e-25
-3.25867e-25
-1.35718e-23
-6.50223e-17
8.56686e-17
-9.86813e-18
-1.14242e-17
-2.63367e-18
-8.20837e-19
-4.60012e-19
-3.86494e-20
2.26376e-20
1.13489e-21
-1.13276e-21
4.13015e-22
-6.78601e-23
5.99596e-23
-7.79486e-24
0
2.47085e-23
-2.77158e-23
1.23928e-23
2.16845e-16
-1.20608e-17
-5.10268e-17
1.27839e-17
-6.69366e-18
2.16928e-18
-2.70236e-19
-5.45667e-20
1.3495e-20
1.05972e-21
-7.99406e-22
-4.74681e-22
3.47844e-23
1.37058e-22
-1.22656e-23
1.24055e-23
-2.5592e-23
-1.6371e-22
-4.45844e-22
1.06452e-16
2.17293e-17
1.91149e-17
-6.82135e-18
-1.53558e-18
8.53212e-19
-1.23641e-19
2.08586e-19
1.00587e-20
7.00539e-21
1.12996e-21
-6.85739e-22
0
-1.4214e-22
0
0
7.46505e-22
1.59169e-22
4.69778e-22
8.0689e-17
0
1.69899e-17
6.77732e-18
-1.97051e-18
6.67465e-19
0
-4.71395e-20
-1.95451e-20
-6.68057e-21
-1.13996e-21
6.93493e-22
0
0
0
0
-7.31136e-22
-6.07129e-21
0
-1.56947e-16
0
-5.83073e-18
-5.46812e-18
3.03033e-18
-5.95944e-20
3.34007e-20
-2.6587e-20
1.55336e-20
0
2.05868e-21
-1.76246e-23
8.84414e-21
0
0
1.48741e-20
-1.0345e-21
7.3107e-21
-4.29486e-20
9.81018e-17
1.23202e-17
-1.2193e-17
-3.60714e-18
-3.62734e-18
9.25437e-19
2.54571e-19
-2.18099e-20
-1.59701e-20
3.93947e-20
4.03458e-21
-4.57513e-20
-1.54083e-20
-4.46624e-20
-5.32518e-20
-1.7879e-20
8.79093e-20
-2.59321e-21
4.39884e-20
-2.26861e-17
5.49054e-18
-1.70521e-17
6.55963e-19
-6.53577e-19
0
-1.25032e-19
-1.04975e-19
-1.51188e-19
1.11522e-19
1.62944e-19
4.13592e-20
-1.8034e-20
-1.27161e-19
4.48991e-20
0
-4.37945e-19
-4.86286e-19
-7.4226e-21
6.42252e-17
-6.15538e-19
2.22672e-17
-3.73969e-18
4.77227e-20
2.56492e-20
6.01243e-19
-4.00421e-19
1.46628e-19
-1.45778e-19
-1.50742e-19
0
6.60954e-19
1.91952e-19
6.0228e-21
-1.00059e-20
3.53257e-19
4.91756e-19
0
-4.01304e-17
0
-1.11835e-18
4.58166e-18
3.26775e-19
3.35118e-19
-5.81393e-19
5.39984e-19
1.93052e-18
1.95439e-18
2.02113e-18
0
-6.42105e-19
0
8.77769e-20
-9.11641e-20
0
-3.63382e-20
4.10361e-18
3.91315e-17
1.20446e-17
-1.01264e-18
1.09338e-17
-2.2713e-18
0
0
-6.16085e-18
-1.87048e-18
-1.89337e-18
-7.59827e-18
-7.94413e-19
0
0
0
-6.78805e-19
7.18346e-19
1.2569e-17
-4.19234e-18
2.31648e-17
0
-1.42198e-17
-5.11289e-18
1.07874e-17
-1.76988e-17
-2.20716e-17
1.51931e-17
1.28087e-17
0
6.22302e-18
1.84773e-17
-2.68615e-18
2.32767e-17
-3.27198e-18
3.40534e-18
2.68044e-17
-1.19814e-17
0
-7.14764e-17
0
-4.67672e-17
4.34406e-17
0
4.26481e-17
1.68741e-17
-5.00678e-17
6.17763e-17
5.12382e-20
-1.27527e-17
-1.78898e-17
0
7.17706e-17
-9.66827e-17
1.10376e-16
-1.41163e-16
0
0
8.0074e-17
-9.30105e-18
-1.36375e-17
-1.20362e-16
1.36055e-16
-5.65081e-17
5.62778e-17
5.59307e-17
-1.8463e-17
0
0
1.29739e-16
-1.31974e-16
-8.83601e-17
9.31033e-17
-9.79824e-17
1.18144e-16
-2.17013e-16
0
)
;

boundaryField
{
    up
    {
        type            calculated;
        value           nonuniform List<scalar> 
84
(
0
0
0
0
-1.54803e-18
2.09237e-18
-5.22168e-19
4.38492e-20
-4.193e-20
0
-4.98161e-22
4.51869e-22
-1.41889e-23
1.13738e-23
1.81129e-24
3.26316e-25
0
0
-1.13174e-27
8.32721e-28
2.48876e-28
-2.41656e-28
1.23383e-29
0
7.99775e-29
7.44903e-29
-9.18995e-28
0
9.16414e-27
9.9785e-27
2.45285e-26
-1.33704e-26
-1.71223e-26
0
8.60758e-25
6.23087e-25
-1.65389e-24
3.1828e-24
0
-1.40173e-24
0
0
-1.27073e-24
2.10072e-24
-2.02978e-24
1.94759e-24
-3.44118e-24
1.12067e-24
-6.5937e-25
-4.33346e-25
0
0
0
-1.20413e-25
3.02877e-26
4.81664e-27
0
-1.46039e-27
-5.71914e-28
2.22866e-28
0
0
-2.68996e-28
7.64346e-28
-1.62263e-27
1.62883e-27
0
2.36812e-27
0
0
-1.35718e-23
1.23928e-23
-4.45844e-22
4.69778e-22
0
-4.29486e-20
4.39884e-20
-7.4226e-21
0
4.10361e-18
-4.19234e-18
0
0
0
)
;
    }
    low
    {
        type            calculated;
        value           nonuniform List<scalar> 
84
(
-1.66092e-16
1.34426e-16
-3.32435e-17
1.06953e-16
2.37617e-17
-6.12806e-18
5.07377e-17
2.52217e-17
0
1.71769e-16
-4.15875e-17
-5.27674e-18
-2.28695e-17
-2.55517e-16
4.0346e-17
0
-3.6458e-17
1.75989e-17
-1.72617e-17
-1.37098e-17
1.39878e-17
2.35216e-17
8.90231e-17
-4.13669e-17
0
-7.31418e-18
-3.85184e-18
0
-3.83966e-17
-1.53635e-17
-7.73592e-17
-8.19116e-17
8.78492e-17
2.25319e-17
1.62219e-16
1.25232e-17
0
9.00546e-17
1.25626e-16
6.98712e-17
-3.6768e-17
1.0787e-17
1.07875e-17
0
4.27941e-17
1.3877e-16
7.70921e-17
4.71139e-17
0
-2.21988e-16
1.14799e-16
-3.77475e-19
-3.9265e-19
3.26234e-17
0
-1.19578e-16
0
-7.34952e-18
1.09118e-17
3.60244e-17
6.25533e-17
7.68789e-17
-3.02975e-19
1.39294e-16
0
0
-8.65483e-17
1.36768e-16
-1.24442e-16
-4.00912e-17
1.09462e-16
-6.50223e-17
2.2586e-16
1.11214e-16
8.0689e-17
-1.56947e-16
9.47894e-17
-1.90421e-17
6.42252e-17
-3.80685e-17
3.91315e-17
3.05487e-17
-7.14764e-17
8.27295e-17
)
;
    }
    left
    {
        type            calculated;
        value           nonuniform List<scalar> 
19
(
-1.60781e-16
-5.10141e-17
7.68778e-17
2.49165e-17
-1.25404e-16
0
-4.03731e-17
-4.01423e-17
-2.75357e-17
-2.80001e-17
8.8593e-20
-2.86927e-17
1.72774e-16
-3.05097e-17
1.24673e-16
1.14225e-16
6.89582e-17
1.3565e-16
0
)
;
    }
    right
    {
        type            calculated;
        value           nonuniform List<scalar> 
19
(
8.0074e-17
-1.26662e-17
-1.36375e-17
-1.25619e-16
1.41576e-16
-5.65081e-17
5.62778e-17
5.59307e-17
-1.25849e-17
0
0
1.41435e-16
-1.4343e-16
-8.83601e-17
9.31033e-17
-9.79824e-17
1.18144e-16
-2.34341e-16
0
)
;
    }
    frontAndBackPlanes
    {
        type            empty;
    }
}


// ************************************************************************* //
