/*--------------------------------*- C++ -*----------------------------------*\
  =========                 |
  \\      /  F ield         | OpenFOAM: The Open Source CFD Toolbox
   \\    /   O peration     | Website:  https://openfoam.org
    \\  /    A nd           | Version:  7
     \\/     M anipulation  |
\*---------------------------------------------------------------------------*/
FoamFile
{
    version     2.0;
    format      ascii;
    class       volScalarField;
    location    "0.21";
    object      gradTz;
}
// * * * * * * * * * * * * * * * * * * * * * * * * * * * * * * * * * * * * * //

dimensions      [0 -1 0 1 0 0 0];

internalField   nonuniform List<scalar> 
1596
(
-6.45444e-16
-3.13117e-16
3.18912e-16
7.6086e-18
-6.05539e-16
0
-2.81537e-16
-2.77629e-16
-1.94561e-17
-1.46823e-16
-1.26892e-18
-1.4628e-16
6.45271e-16
-1.4491e-16
6.76687e-16
5.84284e-16
3.47634e-16
4.39275e-16
0
6.44083e-16
0
9.02656e-16
-6.82454e-18
-2.74575e-16
2.71978e-16
5.63558e-16
1.86123e-17
2.66423e-16
-1.28658e-16
2.56923e-16
-3.68351e-18
-3.56748e-16
-2.23187e-16
-5.46998e-16
-5.34044e-16
-4.86101e-16
2.76878e-16
0
-3.14628e-16
0
-5.86291e-16
1.08268e-17
5.32901e-16
-1.51938e-16
1.28147e-17
-3.68089e-18
-3.63336e-18
-3.79307e-18
9.53388e-17
0
1.85027e-16
5.24003e-16
-5.17229e-17
4.18451e-17
9.83063e-17
1.54239e-16
0
4.95807e-16
-1.47326e-16
1.46788e-16
0
-1.40644e-16
-1.46254e-16
2.45189e-16
-2.11251e-16
0
0
-7.95165e-17
4.98147e-17
0
-1.53834e-16
-1.94989e-16
1.35504e-16
-1.40717e-16
-7.23177e-18
0
8.67995e-17
2.27849e-16
-2.03019e-16
0
-5.91384e-17
-1.80557e-16
0
2.67997e-16
-2.65196e-17
-2.40251e-17
-2.59178e-17
1.38432e-16
1.71416e-16
1.79967e-17
8.0929e-18
-1.465e-16
7.36563e-18
6.79743e-17
-2.94261e-17
-2.25404e-17
-3.12385e-16
2.94378e-16
-2.53709e-16
-5.85382e-19
-2.20292e-16
6.1846e-18
-6.20513e-18
-1.71342e-16
0
-2.16132e-17
-1.63942e-16
-1.54762e-16
1.24504e-16
1.32267e-16
-1.79784e-18
-7.93613e-17
-6.89454e-17
5.28619e-17
1.88375e-16
-3.17536e-16
3.51676e-16
1.94959e-16
0
1.69491e-16
9.82792e-17
-4.71519e-17
2.16992e-16
-4.04872e-17
-1.72722e-16
1.48754e-18
-1.01324e-16
-1.25073e-16
-9.67129e-17
8.31022e-17
8.00598e-17
-1.07382e-18
-2.1971e-17
2.04677e-17
5.05417e-16
-5.86542e-16
0
0
-2.06771e-16
0
0
0
1.37614e-16
0
0
9.32431e-17
3.26955e-18
2.72522e-17
-7.28184e-17
0
3.87494e-17
1.53446e-17
0
-3.25324e-16
6.24021e-16
0
0
2.12945e-16
0
-7.88329e-17
7.87532e-17
-1.40071e-16
5.7694e-17
-5.8116e-17
0
8.37234e-17
8.41283e-17
0
-4.84915e-17
-3.95849e-17
-1.3437e-17
7.97602e-16
-3.71416e-16
0
-2.53428e-16
2.50592e-16
0
1.78587e-16
0
0
0
5.238e-17
-5.26311e-17
0
-6.48219e-17
-1.83525e-17
0
6.28839e-18
2.73292e-17
0
-2.02481e-16
0
0
2.54039e-16
-4.70589e-16
2.70972e-17
1.03508e-17
-7.17641e-17
8.88108e-18
3.43565e-18
-5.45502e-17
-8.61015e-17
0
6.4857e-17
-1.32437e-17
1.34425e-17
3.62712e-17
-2.15473e-17
-9.78718e-18
1.64339e-16
-1.99425e-17
1.5798e-16
5.30399e-16
-3.20586e-17
-2.17754e-16
0
0
0
1.12382e-16
4.40621e-17
1.57924e-16
-3.80716e-17
-6.36968e-17
-3.69996e-17
-2.06597e-17
9.24998e-18
-2.02617e-17
9.28542e-18
-1.84372e-16
1.80801e-16
-3.31955e-16
-5.24037e-16
4.81424e-16
1.84823e-16
-3.38803e-16
2.87545e-16
-2.43827e-16
6.37763e-17
4.73864e-17
-4.27094e-17
2.63971e-17
-2.42542e-17
7.16032e-17
0
-5.46413e-18
4.06166e-17
-6.06001e-18
-1.20716e-15
5.50513e-16
4.37635e-19
-1.15556e-16
1.6922e-17
1.79373e-16
-3.38913e-16
-1.35948e-16
1.13524e-16
-9.43401e-17
-7.87984e-17
0
-8.76403e-17
-2.59199e-17
-4.56064e-17
-2.70733e-17
2.12584e-18
-2.47923e-17
7.4612e-19
1.97292e-16
-1.73864e-16
3.10454e-19
-1.30049e-16
-3.17055e-16
2.96974e-16
1.47461e-18
1.32482e-16
-1.10531e-16
1.8041e-16
4.2402e-17
3.40201e-17
1.02159e-16
0
8.31984e-17
3.82169e-17
0
1.32853e-17
6.1336e-19
0
1.68669e-16
1.2886e-16
-2.70289e-16
3.0699e-16
-4.54978e-16
3.16828e-16
1.1482e-16
-1.922e-17
-1.78963e-16
3.14333e-17
-3.12782e-17
-9.19696e-17
3.56581e-17
-1.81325e-17
-3.75302e-17
1.58964e-17
-9.92856e-18
4.0824e-18
-1.83739e-16
6.12785e-16
-4.57617e-16
2.42599e-16
0
0
-6.04928e-17
1.30372e-16
-8.8208e-17
1.64398e-16
0
0
6.12796e-17
-5.2885e-17
-3.63268e-17
1.15049e-17
-1.24146e-17
6.61281e-18
0
1.69479e-17
1.71852e-16
-1.35117e-16
-1.16572e-16
-1.82494e-16
-5.46564e-17
8.10726e-17
0
-8.24099e-17
-6.47299e-17
5.73314e-17
-4.5434e-17
3.58326e-17
0
1.40042e-17
2.64019e-17
0
0
0
-1.62913e-17
2.67414e-16
9.78422e-17
-3.52819e-16
9.47761e-17
7.96807e-17
0
0
7.73006e-17
-4.04873e-17
-5.54519e-17
4.3943e-17
-3.46528e-17
0
-8.71304e-18
7.10855e-18
0
-6.07871e-18
-2.13956e-18
-1.45533e-16
4.27089e-16
-5.12442e-16
-1.98507e-16
1.05005e-16
-7.49952e-17
6.13357e-17
0
-3.94416e-17
3.21688e-17
0
0
1.32004e-17
-1.32157e-17
3.78158e-18
-5.29108e-18
8.49451e-18
1.19364e-18
1.60163e-18
7.58209e-17
-6.74488e-17
3.37858e-16
-2.17357e-16
-8.53287e-17
1.23704e-17
1.27635e-16
4.63577e-17
3.77396e-17
0
2.00789e-17
-1.84896e-17
1.42487e-17
-1.17289e-17
1.43698e-17
-2.44642e-17
-6.61242e-18
5.73555e-18
1.49608e-18
2.01118e-16
-2.04838e-16
0
1.78068e-16
-9.48164e-17
-6.75439e-17
4.38433e-17
-1.42579e-16
0
-2.59845e-18
-2.37871e-17
-1.63004e-17
2.27259e-17
-1.95156e-18
-1.38882e-17
1.00495e-17
0
3.484e-18
-1.45268e-18
3.48326e-16
-6.04304e-17
2.50798e-16
-1.96061e-16
1.0257e-16
7.46286e-18
-1.14852e-16
-3.68012e-17
6.52607e-17
-3.12742e-18
-3.5029e-17
2.89261e-17
-1.23926e-17
-1.54566e-17
0
0
0
-3.51552e-18
1.29215e-19
-3.06784e-16
2.9792e-16
2.21813e-19
4.35672e-17
3.65915e-17
-8.51065e-17
9.83794e-17
-7.82317e-17
6.48459e-17
-2.0145e-17
3.79991e-17
1.28531e-17
-5.32803e-18
2.57364e-19
-1.73339e-18
-3.04111e-18
0
0
0
0
0
1.40978e-16
-7.22171e-17
-2.09652e-16
0
0
-2.27673e-17
-3.5307e-17
2.86101e-17
0
-1.62101e-17
1.21199e-17
-3.87538e-17
4.41402e-17
-1.37774e-17
1.46284e-17
1.56677e-18
0
-5.94114e-17
6.01426e-17
0
-4.6414e-17
4.69235e-17
7.50846e-17
0
2.29847e-17
2.81408e-17
-1.2827e-16
0
-1.84116e-17
1.38613e-17
9.44768e-18
-6.80567e-18
9.77291e-18
0
-3.46371e-18
0
-3.05655e-17
-3.00189e-17
1.77616e-18
4.76892e-17
-1.2535e-16
0
-3.07037e-17
0
8.14313e-17
3.15867e-17
0
7.30443e-17
-7.46994e-17
8.04106e-18
-1.49097e-17
4.92794e-18
1.88849e-17
6.89201e-18
-5.4632e-18
0
6.27748e-17
-5.37587e-17
6.64664e-17
7.75921e-17
0
6.21762e-17
-5.8141e-17
-4.3861e-17
6.33588e-17
-9.48329e-17
-4.42448e-17
0
0
8.72563e-18
0
0
2.37303e-18
0
-2.80325e-16
2.15639e-16
0
3.71971e-18
-4.49599e-17
-2.42256e-18
3.87881e-17
2.63604e-17
-3.41058e-17
-8.13801e-17
1.24798e-16
-3.41169e-17
0
-1.50748e-17
0
0
0
-9.20371e-18
7.36353e-18
-7.97542e-17
7.38776e-17
1.93907e-16
-1.88518e-16
5.7055e-17
3.5365e-18
-3.93819e-17
3.315e-17
5.49624e-17
4.0756e-17
-8.03473e-17
0
3.86585e-17
4.19919e-18
-1.72617e-17
-3.61894e-17
2.96342e-17
-4.52607e-18
8.69565e-18
-2.7156e-16
3.82618e-16
-3.78433e-16
6.53618e-17
5.42814e-17
-5.11912e-17
4.26067e-17
-3.28493e-17
0
-2.68095e-17
4.13639e-17
1.78752e-17
2.82309e-17
3.41587e-17
-5.07563e-17
-1.18451e-18
0
-3.60682e-18
1.21617e-18
-2.93607e-16
-8.60215e-17
-1.48277e-16
7.94358e-17
-1.26119e-16
1.07661e-16
-6.36158e-17
5.24847e-17
-4.10766e-18
-4.06618e-18
-4.42529e-17
2.65407e-17
-1.3638e-17
4.20875e-17
-4.51813e-17
5.10786e-18
4.62616e-18
0
-2.13361e-18
3.17453e-16
-9.29063e-17
0
0
-1.29764e-16
2.51127e-16
-5.80439e-17
-1.07999e-17
8.77356e-17
-2.32679e-18
0
0
-1.8838e-17
0
-3.9878e-17
9.55618e-17
-6.58827e-17
0
8.68732e-19
1.07971e-16
1.99915e-16
0
-8.35451e-17
-6.65657e-17
-5.76356e-17
-6.05414e-17
2.44892e-17
-6.78277e-17
-3.62784e-17
0
0
2.62419e-17
0
0
-5.49298e-17
9.07851e-17
0
0
7.4111e-16
-9.04724e-17
-4.42806e-16
-2.36289e-16
3.20943e-16
1.00481e-16
5.87024e-17
0
-2.10162e-17
1.99104e-17
4.9663e-17
-1.58912e-17
-2.30275e-17
3.55582e-17
-3.7823e-17
-1.13305e-17
0
0
0
5.93486e-17
-4.63215e-16
4.53686e-16
-4.29747e-17
-3.27646e-16
5.10212e-16
-2.54812e-16
0
0
1.30621e-16
-1.06784e-16
0
-3.13946e-17
5.49325e-17
-5.99368e-18
1.58727e-17
4.79725e-18
5.63307e-20
1.03419e-18
0
0
0
3.76054e-16
-2.52478e-16
2.60312e-16
-4.04728e-16
1.14546e-16
0
-4.03223e-17
6.37622e-17
-6.51687e-17
-1.25696e-17
-7.64043e-20
-8.50981e-18
-1.20451e-18
-6.79463e-18
-1.91945e-18
-1.04176e-18
4.95578e-16
-8.80667e-16
4.15886e-16
0
1.09285e-16
-1.4906e-16
1.4705e-16
-1.166e-16
0
-5.5489e-17
7.77947e-17
0
0
-4.00232e-20
0
-8.97787e-18
6.12504e-18
1.08489e-18
1.66767e-18
4.84316e-16
0
-1.89052e-16
2.11089e-16
-1.30563e-16
2.845e-16
-1.3396e-16
-1.03303e-16
1.04382e-16
-1.05287e-17
0
0
6.64675e-18
-1.10883e-17
-7.77632e-18
1.47119e-17
-3.1844e-18
1.61442e-18
0
2.74868e-16
2.12326e-16
-8.54432e-18
-2.015e-16
-2.01301e-17
-1.43838e-16
1.63928e-17
1.2003e-16
-6.15004e-18
1.07264e-17
0
0
-6.80915e-18
0
7.98037e-18
-8.53709e-18
0
1.0919e-18
-3.01958e-19
-1.45871e-16
-1.06567e-16
9.98144e-17
-1.13182e-17
-5.04659e-18
1.35366e-17
0
-3.53198e-18
5.24316e-17
-4.41544e-17
0
1.47446e-17
-2.93814e-18
-1.29716e-17
-1.18324e-18
-9.2115e-19
0
-8.54205e-19
0
5.92783e-17
-1.12427e-16
-1.16879e-18
4.78896e-17
4.32988e-17
-4.29836e-17
-3.01018e-17
3.40598e-17
-1.15621e-17
9.05531e-18
-8.70737e-18
8.97593e-18
0
2.2744e-20
-8.73e-19
3.13398e-18
-1.07128e-20
0
0
5.92803e-17
-5.90582e-17
-4.7638e-17
4.22218e-17
7.64633e-17
-7.69147e-17
-1.50515e-17
1.50876e-17
-1.16602e-17
1.17824e-17
-8.70773e-18
1.64031e-17
-4.60077e-18
-3.295e-18
-1.00684e-18
3.34836e-19
7.95404e-19
2.10104e-19
-1.57547e-19
0
-1.40198e-17
8.29139e-17
-8.99306e-17
7.62771e-17
-6.7655e-17
0
5.28021e-17
-4.72612e-17
0
1.73029e-17
-2.18902e-17
-1.23784e-17
1.29733e-17
2.37119e-18
0
0
-8.54372e-19
3.10294e-19
2.3584e-16
-4.33107e-16
4.39208e-16
-3.83169e-16
1.50232e-16
-1.25907e-16
1.19562e-16
1.40384e-17
-5.19012e-17
4.63504e-17
0
-3.30997e-17
3.01643e-17
-5.68062e-18
-2.32257e-18
3.62286e-18
2.65902e-18
8.29431e-19
-2.99815e-19
5.4589e-16
0
-2.1396e-16
1.66342e-16
1.98988e-17
-1.51334e-16
2.67406e-16
-2.35691e-16
9.22517e-17
-3.89156e-17
3.98335e-17
7.84411e-18
1.33221e-17
5.53298e-18
-4.53689e-18
-6.13654e-19
-5.75011e-18
0
5.81302e-19
4.34826e-16
-4.89464e-16
0
4.41693e-17
1.88469e-16
-1.84282e-16
3.10536e-17
2.72982e-17
1.18878e-17
2.06841e-17
0
0
-2.31449e-17
4.30616e-17
-1.56869e-17
-5.5964e-18
6.12712e-18
4.89011e-19
-1.10273e-18
4.30178e-17
4.30029e-16
-4.91401e-17
-3.32148e-16
2.91733e-16
3.44992e-17
-3.03916e-17
-2.66623e-17
8.6591e-17
-1.07389e-16
6.37851e-17
-6.51913e-17
9.96905e-18
-1.2894e-17
2.30632e-17
-1.54063e-17
0
0
1.0853e-18
0
1.07334e-16
-3.1862e-16
3.64346e-16
-2.89619e-16
2.8893e-16
0
9.7433e-17
-9.78795e-17
-7.23107e-17
1.0687e-16
0
4.348e-17
-5.49773e-17
-8.10865e-18
0
-8.95015e-19
-1.74123e-18
-5.58347e-20
-1.0268e-15
4.87819e-16
0
-3.20893e-16
3.20861e-16
1.93138e-16
-1.26828e-16
5.12253e-17
0
-2.25395e-18
1.62303e-17
-1.5871e-17
-2.29998e-17
3.55111e-17
-3.77601e-17
0
7.93605e-18
-1.64949e-18
-1.08054e-18
6.30195e-16
-6.18397e-16
0
8.32183e-17
7.48625e-17
-6.79348e-17
0
-5.36845e-17
-4.5274e-17
0
-2.45666e-18
0
2.62565e-17
0
0
1.11968e-17
4.18548e-17
-5.43224e-17
0
6.87749e-20
9.2952e-17
-8.49101e-17
6.78023e-17
-3.45343e-16
1.31325e-16
0
1.08084e-17
3.05283e-17
0
-3.05582e-17
8.6475e-17
-9.0847e-17
1.48179e-17
0
-1.92049e-18
0
0
0
7.27731e-20
0
7.84782e-17
0
-1.17791e-16
1.19664e-16
0
4.11281e-17
-3.23467e-17
1.1608e-16
-5.57277e-17
1.94689e-17
-3.08271e-17
2.87119e-17
-4.52444e-17
-7.14987e-18
0
-4.42464e-18
0
2.44146e-16
-4.13108e-16
0
-6.52241e-17
5.7711e-17
0
0
-7.48511e-17
0
-2.68317e-17
-4.14007e-17
-1.78937e-17
2.82635e-17
0
1.42739e-17
0
0
9.5835e-18
-1.0481e-17
0
3.546e-16
-2.83558e-16
6.03826e-17
-5.34407e-17
-2.13793e-17
6.11271e-17
6.73022e-17
-8.01737e-17
2.57755e-17
2.29545e-18
-2.25527e-17
9.17474e-17
-2.84445e-17
-6.38021e-17
2.17221e-17
-5.39719e-18
3.2502e-18
-9.52965e-19
-5.83473e-16
2.1565e-16
0
0
2.25467e-17
-2.29275e-17
1.56461e-17
9.66331e-18
7.1865e-17
3.57567e-17
-3.50391e-17
-1.74219e-18
-1.86708e-17
1.50909e-17
0
7.02091e-18
4.94692e-18
2.57196e-18
8.61346e-19
0
1.85268e-16
-1.71221e-16
5.45694e-17
5.49962e-17
-1.05529e-17
-3.31842e-17
-2.77582e-17
-8.95607e-17
3.50916e-17
-2.03558e-17
2.86426e-17
1.74595e-17
-2.09183e-17
2.22035e-17
1.34337e-17
-1.76727e-17
-2.37559e-18
0
-3.32485e-17
-1.47521e-16
5.20927e-17
4.77025e-17
-1.61062e-16
1.14359e-16
5.48312e-17
-5.60459e-17
4.16288e-17
-3.33037e-17
0
0
-2.52314e-17
4.48298e-17
-1.94943e-17
1.75123e-17
-1.91876e-17
3.0829e-18
-5.46913e-18
6.21623e-17
5.75317e-17
-5.16918e-17
3.92082e-17
-4.65108e-17
-6.84345e-17
0
0
0
0
0
0
1.28684e-17
-3.29107e-17
3.48066e-17
-1.08457e-17
1.33953e-17
6.15429e-18
-5.20218e-18
1.29225e-16
-2.16087e-16
2.69999e-16
-1.22627e-16
1.7007e-16
-1.19354e-16
2.20478e-16
-1.22481e-16
-6.26019e-17
6.40389e-17
0
1.62007e-17
-1.25718e-17
2.95371e-17
-1.03602e-17
-1.26731e-17
-2.56517e-17
1.96737e-18
4.4018e-18
2.01355e-16
5.71648e-17
0
-8.68476e-17
-6.68397e-17
1.51624e-16
1.39665e-17
-5.85889e-17
3.43558e-17
-2.34405e-17
0
-1.28247e-17
0
-9.87054e-18
7.88326e-18
-6.94002e-18
-2.27514e-18
1.57561e-18
0
2.809e-16
-6.04295e-17
2.50712e-16
-1.96049e-16
-3.84928e-17
1.47685e-16
-8.85505e-17
4.80345e-18
3.87921e-18
-2.28328e-17
2.1892e-17
0
0
1.21533e-17
-4.22092e-18
2.67973e-18
8.23959e-18
-2.86794e-18
0
5.86993e-20
0
-5.58487e-17
3.22206e-16
-2.16735e-16
-2.2365e-16
1.22088e-16
-1.22221e-16
1.12414e-16
5.38575e-17
-3.95148e-17
1.57278e-17
-1.38248e-17
2.54376e-18
2.16228e-17
6.38256e-19
-7.89168e-18
7.79809e-18
-1.61493e-18
6.8067e-16
-2.16456e-16
1.02613e-16
-3.18556e-16
8.53283e-17
-1.30427e-16
7.06545e-17
0
0
-2.67841e-18
-3.72428e-18
-1.09881e-18
0
-1.93011e-17
-1.43702e-17
1.03844e-17
-7.58969e-19
1.45182e-18
3.23594e-18
0
-2.13803e-16
3.56913e-16
7.62068e-17
-2.85845e-16
7.4995e-17
-1.12241e-16
2.06865e-17
8.94635e-17
0
0
1.6247e-18
1.71201e-17
0
-1.46257e-17
-6.51984e-18
9.63279e-19
-3.30442e-18
-3.86341e-18
0
-1.33269e-16
3.26994e-17
2.40635e-16
1.7503e-16
-3.18682e-16
1.43543e-16
-9.64537e-17
5.20078e-17
-6.94625e-17
0
0
0
-2.71284e-17
6.75007e-18
-8.75581e-18
0
-5.39274e-19
2.68829e-18
-5.10486e-16
4.82541e-16
5.06889e-16
-6.14548e-16
2.80936e-16
-2.63057e-16
0
1.01991e-16
-1.38403e-16
7.88936e-17
-6.00248e-17
4.81306e-17
3.8442e-17
2.80567e-17
2.17881e-17
0
0
0
0
5.67824e-16
-3.24135e-16
0
0
-1.03197e-16
2.46294e-16
-1.5738e-16
-1.08317e-16
1.07096e-16
7.72317e-17
1.27473e-16
-4.99402e-17
2.13994e-17
1.58278e-17
1.14457e-17
9.54056e-18
1.52988e-17
-7.48145e-19
7.62053e-19
-5.73949e-16
5.2466e-16
2.75359e-16
-1.43973e-16
3.06798e-16
-1.96534e-16
-1.51986e-16
-1.26333e-16
0
-1.62704e-16
8.85411e-18
5.80933e-17
-4.43755e-17
-3.56582e-17
-1.31339e-17
-1.35768e-17
-1.08881e-17
0
0
-1.97451e-16
0
1.50687e-16
-1.68405e-19
0
0
1.56779e-16
1.30358e-16
0
8.86362e-17
0
-8.82311e-17
-2.47896e-17
4.36915e-17
0
2.81418e-17
-3.95629e-18
4.03595e-18
0
4.21766e-16
0
2.88658e-16
-5.32902e-16
4.7121e-16
3.73062e-16
-1.28146e-17
0
1.05973e-17
1.0481e-16
0
-1.00904e-16
1.11456e-16
-9.90568e-17
-2.1553e-17
-2.25121e-17
-6.76821e-18
-1.23381e-18
-4.55299e-18
-3.89462e-16
5.60267e-16
-1.5677e-16
-4.06061e-16
-2.32241e-16
-1.98214e-16
-3.37489e-16
-1.32687e-16
1.1822e-17
4.74756e-17
-4.73864e-17
1.48945e-16
-6.58812e-17
1.31158e-16
-2.45552e-17
0
2.88106e-17
-1.72042e-17
4.55876e-18
8.67382e-16
-2.01671e-17
-6.49674e-16
5.30403e-16
-4.72559e-16
4.07056e-16
-1.42442e-17
-1.50884e-16
1.30246e-16
5.09934e-17
-6.91815e-18
-1.2296e-16
3.505e-17
3.88964e-17
-1.15002e-17
1.16314e-17
-2.98408e-17
-3.70976e-18
-7.49448e-18
4.25807e-16
1.78234e-16
3.10832e-16
-2.70629e-16
-2.19947e-16
1.27872e-17
-1.65271e-16
3.99309e-16
1.48039e-17
1.81929e-16
1.06025e-16
-9.37308e-17
0
-6.48568e-17
0
0
4.38607e-17
1.9072e-17
8.71674e-18
3.98086e-16
0
3.06903e-16
2.68882e-16
-2.36705e-16
2.04786e-16
0
-1.56291e-16
-2.15852e-16
-1.8669e-16
-1.06963e-16
9.47906e-17
0
0
0
0
-4.11502e-17
-3.17079e-17
0
-7.79927e-16
0
-1.65754e-17
-1.46666e-17
3.61279e-16
-2.01045e-16
-9.1859e-17
-9.23785e-17
2.20741e-16
0
5.76936e-17
-6.04092e-18
5.32186e-17
0
0
7.10823e-17
-5.31737e-18
3.80919e-17
-1.49819e-17
5.47773e-16
1.56417e-16
-1.54802e-16
-1.35503e-16
-4.65377e-16
3.17635e-16
3.81152e-16
-1.17702e-17
-1.51567e-16
1.51335e-16
3.16053e-17
-1.61784e-16
-1.31353e-16
-8.19906e-17
-8.71807e-17
-8.2003e-17
7.01062e-17
-3.29444e-18
1.53447e-17
-1.67828e-16
7.57741e-17
-3.64159e-16
6.16341e-17
-6.14099e-17
0
-1.90072e-16
-1.51274e-17
-1.7667e-16
1.71063e-17
1.72721e-16
1.26075e-16
-3.13968e-17
1.12241e-17
8.27762e-17
0
-1.47136e-16
-5.4835e-17
-1.13546e-18
3.4322e-16
-9.24953e-18
5.7297e-16
-2.71689e-16
5.85382e-19
7.14721e-18
2.14295e-16
-1.8754e-17
1.71341e-16
-1.6037e-16
-1.51087e-16
0
1.54762e-16
1.22562e-16
1.73623e-18
-2.52902e-18
8.01309e-17
5.57332e-17
0
-2.43622e-16
0
-5.69823e-17
2.5937e-16
3.94523e-18
5.92174e-17
-2.0722e-16
1.95465e-16
2.09036e-16
2.00553e-16
1.93307e-16
0
-1.50348e-16
0
8.15124e-18
-8.46579e-18
0
-8.20855e-19
4.05794e-17
1.69671e-16
9.56221e-18
-1.31952e-16
4.08392e-16
-1.30737e-16
0
0
-2.37201e-16
-2.02535e-16
-1.94291e-16
-3.55809e-16
-4.98146e-17
0
0
0
-1.68941e-17
1.78782e-17
1.15127e-16
-4.12018e-17
9.95328e-18
0
-2.86632e-16
-2.6047e-16
2.7407e-16
-2.723e-16
-3.89313e-16
4.75163e-16
1.33753e-16
0
2.10883e-16
2.41919e-16
-5.22344e-17
2.84794e-16
-4.6726e-17
4.86304e-17
1.89868e-16
-1.09402e-16
0
-3.23789e-16
0
-3.09195e-16
3.02667e-16
0
5.42811e-16
2.54302e-16
-5.36461e-16
4.31085e-16
-2.64873e-18
-1.29975e-16
-2.34227e-16
0
3.26993e-16
-5.46998e-16
5.8742e-16
-7.48689e-16
0
0
3.22614e-16
-2.30515e-18
-5.66863e-18
-6.1134e-16
6.17811e-16
-2.9812e-16
2.96904e-16
2.92647e-16
-2.56863e-16
0
0
4.89704e-16
-4.98141e-16
-5.3083e-16
5.26747e-16
-5.13542e-16
5.55758e-16
-8.70868e-16
0
)
;

boundaryField
{
    up
    {
        type            calculated;
        value           nonuniform List<scalar> 
84
(
0
0
0
0
-2.94261e-17
5.28619e-17
-2.1971e-17
1.53446e-17
-1.3437e-17
0
-9.78718e-18
9.28542e-18
-6.06001e-18
7.4612e-19
6.1336e-19
4.0824e-18
0
0
-2.13956e-18
1.60163e-18
1.49608e-18
-1.45268e-18
1.29215e-19
0
5.82095e-19
2.91942e-19
-5.16412e-18
0
7.36353e-18
9.17046e-18
1.21617e-18
-2.13361e-18
8.68732e-19
0
-4.23459e-19
1.06532e-18
-1.03735e-18
1.66307e-18
0
-3.01022e-19
0
0
-1.57578e-19
3.10294e-19
-2.99815e-19
5.81302e-19
-1.10273e-18
1.0853e-18
-5.58347e-20
-1.08054e-18
0
0
0
-1.0481e-17
-1.42826e-18
8.61346e-19
0
-5.46913e-18
-5.20218e-18
3.82157e-18
0
0
-1.61493e-18
3.23594e-18
-3.86341e-18
2.68829e-18
0
7.62053e-19
0
0
-4.55299e-18
4.55876e-18
-7.49448e-18
8.71674e-18
0
-1.49819e-17
1.53447e-17
-1.13546e-18
0
4.05794e-17
-4.12018e-17
0
0
0
)
;
    }
    low
    {
        type            calculated;
        value           nonuniform List<scalar> 
84
(
-6.45948e-16
6.44083e-16
-3.13704e-16
4.96553e-16
8.73032e-17
-2.26887e-17
1.89616e-16
2.1652e-17
0
7.98982e-16
-2.02481e-16
1.6357e-16
-1.84372e-16
-1.2072e-15
1.97292e-16
0
-1.83739e-16
1.69479e-17
-1.62913e-17
-1.45533e-16
7.58209e-17
2.01118e-16
3.46942e-16
-3.06784e-16
0
-5.94114e-17
-3.05655e-17
0
-2.80325e-16
-7.97542e-17
-2.70686e-16
-2.92929e-16
3.17013e-16
1.07971e-16
7.41189e-16
5.93486e-17
0
4.95578e-16
4.85433e-16
2.75474e-16
-1.46194e-16
5.92783e-17
5.92803e-17
0
2.3584e-16
5.47006e-16
4.34826e-16
4.37924e-17
0
-1.02688e-15
6.30195e-16
6.87749e-20
7.27731e-20
2.44146e-16
0
-5.8204e-16
0
-3.32485e-17
6.21623e-17
1.28367e-16
1.9986e-16
2.79516e-16
5.86993e-20
6.79544e-16
0
0
-5.10486e-16
5.67302e-16
-5.73617e-16
-1.97451e-16
4.21809e-16
-3.89462e-16
8.6892e-16
4.26882e-16
3.98086e-16
-7.79927e-16
5.46589e-16
-1.66586e-16
3.4322e-16
-2.43118e-16
1.69671e-16
1.08766e-17
-3.23789e-16
3.22866e-16
)
;
    }
    left
    {
        type            calculated;
        value           nonuniform List<scalar> 
19
(
-6.45444e-16
-3.13382e-16
3.18912e-16
7.61619e-18
-6.05728e-16
0
-2.81537e-16
-2.77629e-16
-2.04052e-17
-1.46823e-16
-1.26892e-18
-1.4628e-16
6.51741e-16
-1.4491e-16
6.76687e-16
5.84284e-16
3.47634e-16
5.1014e-16
0
)
;
    }
    right
    {
        type            calculated;
        value           nonuniform List<scalar> 
19
(
3.22614e-16
-2.04095e-18
-5.66863e-18
-6.11348e-16
6.18e-16
-2.9812e-16
2.96904e-16
2.92647e-16
-2.55914e-16
0
0
4.94316e-16
-5.0461e-16
-5.3083e-16
5.26747e-16
-5.13542e-16
5.55758e-16
-9.41733e-16
0
)
;
    }
    frontAndBackPlanes
    {
        type            empty;
    }
}


// ************************************************************************* //
