/*--------------------------------*- C++ -*----------------------------------*\
  =========                 |
  \\      /  F ield         | OpenFOAM: The Open Source CFD Toolbox
   \\    /   O peration     | Website:  https://openfoam.org
    \\  /    A nd           | Version:  7
     \\/     M anipulation  |
\*---------------------------------------------------------------------------*/
FoamFile
{
    version     2.0;
    format      ascii;
    class       volScalarField;
    location    "0.21";
    object      T;
}
// * * * * * * * * * * * * * * * * * * * * * * * * * * * * * * * * * * * * * //

dimensions      [0 0 0 1 0 0 0];

internalField   nonuniform List<scalar> 
1596
(
3.98815
3.95424
3.91976
3.8875
3.8583
3.83191
3.80784
3.7848
3.76182
3.73664
3.7075
3.67198
3.62487
3.55914
3.464
3.31572
3.07027
2.63969
1.84769
3.94884
3.84341
3.74462
3.65492
3.57459
3.50249
3.43705
3.37551
3.31543
3.25253
3.18316
3.10283
3.00363
2.87608
2.70864
2.48
2.1576
1.6857
0.95887
3.90248
3.72545
3.56732
3.42681
3.30228
3.19143
3.09165
2.99931
2.91105
2.82177
2.72701
2.62162
2.49747
2.34545
2.1558
1.91227
1.59309
1.16517
0.567104
3.85693
3.61315
3.40166
3.21657
3.05398
2.91038
2.78232
2.66561
2.55639
2.44928
2.3396
2.22212
2.08919
1.93275
1.74483
1.5133
1.22366
0.856361
0.375677
3.81941
3.51823
3.2602
3.03619
2.84058
2.66889
2.51706
2.3806
2.2554
2.13602
2.01784
1.8957
1.76257
1.61129
1.43523
1.22497
0.970436
0.659627
0.271225
3.7945
3.44852
3.15139
2.89358
2.66886
2.47236
2.2997
2.14628
2.00791
1.87926
1.75577
1.63243
1.50273
1.36018
1.19897
1.01142
0.789935
0.526626
0.208086
3.78268
3.40595
3.07766
2.79089
2.54025
2.32118
2.1294
1.96043
1.8101
1.67327
1.5455
1.42192
1.29639
1.1629
1.01615
0.849474
0.656689
0.432059
0.166499
3.78108
3.38697
3.03566
2.7248
2.45119
2.21135
2.00154
1.8176
1.65562
1.51065
1.37843
1.25421
1.13214
1.00656
0.872446
0.723744
0.555064
0.361766
0.137126
3.78692
3.38675
3.02006
2.68993
2.39623
2.13723
1.91018
1.71154
1.53777
1.38422
1.24683
1.12098
1.00107
0.881657
0.757903
0.624135
0.475392
0.307572
0.115234
3.79451
3.39558
3.02019
2.67571
2.36525
2.08919
1.84613
1.63338
1.44795
1.28558
1.14244
1.01407
0.895083
0.780229
0.664771
0.543286
0.411059
0.264238
0.0981062
3.80049
3.40571
3.02636
2.67205
2.34841
2.05791
1.80061
1.5749
1.37842
1.20743
1.05836
0.926944
0.808001
0.696435
0.5876
0.476251
0.357826
0.228577
0.0842012
3.80777
3.41888
3.03823
2.67702
2.34284
2.03998
1.76999
1.53232
1.32541
1.14603
0.99094
0.856085
0.73646
0.627112
0.523462
0.420401
0.313461
0.198927
0.0727316
3.81453
3.43224
3.05189
2.68586
2.34326
2.02994
1.7488
1.50039
1.28391
1.09668
0.935827
0.797486
0.676826
0.569012
0.469516
0.373327
0.276044
0.173948
0.0631205
3.81846
3.44145
3.06202
2.6927
2.34359
2.02173
1.73122
1.4736
1.24881
1.05472
0.888784
0.747354
0.625742
0.519211
0.423273
0.332994
0.244016
0.15261
0.0549512
3.82163
3.44827
3.06932
2.69725
2.34269
2.01362
1.71512
1.44959
1.21767
1.01772
0.847492
0.703513
0.581217
0.475938
0.383206
0.298141
0.216417
0.134281
0.0479716
3.82463
3.45388
3.07468
2.6997
2.3401
2.00458
1.69906
1.42667
1.18865
0.983771
0.810059
0.664157
0.541576
0.437685
0.348007
0.267691
0.192424
0.118425
0.0419756
3.82648
3.45717
3.07696
2.69878
2.33429
1.99286
1.6811
1.4028
1.15969
0.950889
0.774594
0.627522
0.505211
0.403023
0.316445
0.240634
0.171272
0.104549
0.0367752
3.82761
3.45865
3.07666
2.69483
2.32534
1.97824
1.66076
1.37728
1.12993
0.918085
0.740056
0.592555
0.471096
0.370987
0.287651
0.216227
0.152382
0.0922697
0.0322217
3.83037
3.46206
3.07782
2.69169
2.31666
1.96353
1.64024
1.3517
1.10042
0.885965
0.70668
0.559211
0.43898
0.341193
0.261176
0.194024
0.13537
0.0813195
0.0282076
3.83398
3.46721
3.08071
2.68989
2.30881
1.94923
1.61987
1.32624
1.07115
0.854349
0.674145
0.527051
0.408341
0.313071
0.236437
0.173476
0.119778
0.0713891
0.0246179
3.83668
3.4716
3.08309
2.68759
2.30035
1.93421
1.59877
1.30014
1.04148
0.822653
0.641885
0.495507
0.378597
0.28602
0.212827
0.154
0.105102
0.0621318
0.0213284
3.83953
3.47625
3.08594
2.68586
2.29244
1.91965
1.57805
1.2744
1.01221
0.791463
0.610261
0.464721
0.349686
0.259801
0.189955
0.135091
0.0908047
0.0531164
0.0181811
3.84301
3.48206
3.09024
2.68575
2.28619
1.90671
1.55885
1.25007
0.98425
0.761467
0.579717
0.434883
0.32156
0.234147
0.167352
0.116084
0.0760558
0.0435166
0.0147778
3.84684
3.4887
3.0957
2.68705
2.28155
1.89552
1.54147
1.22756
0.957996
0.732978
0.550402
0.405936
0.293945
0.208579
0.144334
0.0960465
0.0595782
0.0316454
0.00953351
3.85316
3.50412
3.1173
2.71207
2.3075
1.92035
1.56364
1.24603
0.972196
0.742747
0.555943
0.407751
0.292739
0.205151
0.139483
0.0904922
0.0540233
0.0269617
0.00711636
3.86025
3.52454
3.14992
2.75493
2.35794
1.97525
1.6198
1.3005
1.02251
0.7871
0.593258
0.437733
0.315765
0.222101
0.151497
0.0987194
0.0594057
0.0301338
0.00830775
3.8639
3.5372
3.1724
2.78695
2.39816
2.02153
1.66949
1.35078
1.07071
0.831002
0.631231
0.4689
0.34001
0.239981
0.164027
0.107062
0.0646138
0.0329991
0.00927863
3.86419
3.5418
3.18403
2.80707
2.4269
2.0578
1.71128
1.39554
1.1157
0.873641
0.66936
0.501021
0.365423
0.258807
0.177079
0.115508
0.06964
0.0355768
0.0100609
3.86233
3.5408
3.188
2.81878
2.44758
2.08721
1.74797
1.43719
1.15956
0.916851
0.709324
0.535673
0.393449
0.279811
0.19159
0.124692
0.0748877
0.0381165
0.010766
3.8586
3.53581
3.18696
2.82531
2.4636
2.11302
1.78247
1.47826
1.20445
0.962571
0.752953
0.57466
0.425861
0.304612
0.208849
0.135464
0.0808107
0.0408281
0.0114676
3.85396
3.52951
3.18459
2.83079
2.47914
2.13915
1.81831
1.52183
1.25308
1.01323
0.802575
0.620354
0.465134
0.335672
0.231015
0.14936
0.088213
0.0439905
0.0122278
3.85072
3.52569
3.1853
2.83978
2.49859
2.16965
1.85909
1.57105
1.30822
1.0714
0.860735
0.675522
0.514438
0.376567
0.261737
0.169458
0.0989794
0.0482226
0.0130557
3.84792
3.52318
3.18809
2.85157
2.52149
2.20427
1.90473
1.62603
1.37022
1.13774
0.928618
0.742108
0.576802
0.431685
0.306697
0.201987
0.118397
0.0563335
0.0140025
3.84542
3.52198
3.19321
2.86659
2.54842
2.24368
1.95599
1.68761
1.44004
1.21343
1.00775
0.822297
0.655582
0.506319
0.37397
0.258192
0.159857
0.0808039
0.0217223
3.8424
3.51913
3.1952
2.8768
2.56883
2.275
1.99788
1.739
1.49936
1.27889
1.0775
0.894615
0.728824
0.578787
0.443537
0.321766
0.212859
0.117396
0.0358848
3.83629
3.50729
3.18241
2.86648
2.56317
2.27513
2.00408
1.75093
1.51623
1.29964
1.10098
0.919657
0.754367
0.603922
0.467541
0.343913
0.232157
0.131999
0.0424827
3.82797
3.48965
3.16046
2.84364
2.54165
2.25622
1.98836
1.7384
1.50655
1.29217
1.09496
0.914321
0.749006
0.598005
0.460863
0.336657
0.22504
0.126333
0.039989
3.82125
3.47553
3.143
2.82559
2.52478
2.24154
1.97629
1.72896
1.49945
1.28691
1.091
0.911126
0.746112
0.595096
0.457832
0.333591
0.222224
0.124236
0.0391686
3.81675
3.46574
3.13072
2.81283
2.51285
2.23119
1.96787
1.72247
1.49467
1.2835
1.08856
0.90928
0.744538
0.593562
0.456245
0.331969
0.220709
0.1231
0.0387528
3.81343
3.45849
3.12163
2.80337
2.50399
2.2235
1.96158
1.71758
1.49104
1.28088
1.08666
0.907844
0.743329
0.592411
0.455075
0.330786
0.219605
0.122275
0.0384596
3.81099
3.45316
3.11497
2.79645
2.49749
2.21781
1.95686
1.71383
1.48816
1.2787
1.08501
0.906531
0.742201
0.591351
0.454032
0.329763
0.218673
0.121585
0.03821
3.8088
3.44898
3.11006
2.79152
2.49294
2.21383
1.95354
1.71115
1.48606
1.27708
1.08375
0.905551
0.741405
0.59067
0.453427
0.329222
0.218211
0.121259
0.0381016
3.8088
3.44899
3.11008
2.79155
2.49296
2.21386
1.95357
1.71118
1.48609
1.2771
1.08378
0.905575
0.741427
0.590689
0.453443
0.329234
0.21822
0.121265
0.0381035
3.81101
3.45321
3.11503
2.79652
2.49757
2.21789
1.95695
1.71392
1.48825
1.27879
1.08509
0.906607
0.74227
0.591411
0.454083
0.329804
0.218702
0.121603
0.0382163
3.81345
3.45856
3.12173
2.80349
2.50412
2.22364
1.96173
1.71773
1.49118
1.28101
1.08679
0.907964
0.743438
0.592505
0.455155
0.330849
0.21965
0.122302
0.038469
3.81679
3.46583
3.13086
2.81299
2.51302
2.23138
1.96807
1.72266
1.49486
1.28368
1.08873
0.90944
0.744681
0.593686
0.456348
0.332051
0.220767
0.123135
0.0387648
3.82129
3.47564
3.14316
2.82579
2.525
2.24177
1.97653
1.72921
1.49968
1.28714
1.09122
0.911321
0.746286
0.595246
0.457957
0.333689
0.222294
0.124277
0.0391826
3.82802
3.48978
3.16065
2.84387
2.54191
2.25649
1.98864
1.73868
1.50683
1.29243
1.09521
0.914544
0.749203
0.598173
0.461
0.336761
0.225112
0.126374
0.0400019
3.83634
3.50743
3.18262
2.86674
2.56346
2.27544
2.0044
1.75125
1.51654
1.29993
1.10125
0.919898
0.754573
0.60409
0.467668
0.343998
0.232204
0.132018
0.0424856
3.84247
3.51934
3.19553
2.87723
2.56934
2.27558
1.99851
1.73966
1.50004
1.27957
1.07818
0.895277
0.729465
0.579401
0.444118
0.322302
0.213323
0.117739
0.0360307
3.8455
3.52222
3.1936
2.86711
2.54905
2.2444
1.95677
1.68844
1.44089
1.2143
1.00861
0.823132
0.656387
0.507079
0.374667
0.258797
0.160333
0.0811116
0.0218324
3.84799
3.52339
3.18843
2.85202
2.52204
2.2049
1.90541
1.62675
1.37095
1.13847
0.929325
0.742782
0.577428
0.432245
0.307171
0.202353
0.11864
0.0564538
0.0140264
3.85078
3.52589
3.18562
2.84021
2.49911
2.17025
1.85973
1.57173
1.3089
1.07206
0.861369
0.67611
0.514964
0.377016
0.262094
0.169713
0.0991357
0.0482975
0.0130746
3.85402
3.52968
3.18489
2.8312
2.47964
2.13971
1.81892
1.52246
1.2537
1.01384
0.803141
0.620866
0.465577
0.336036
0.231292
0.149551
0.0883293
0.0440484
0.0122438
3.85865
3.53597
3.18723
2.82568
2.46406
2.11354
1.78303
1.47884
1.20502
0.963118
0.753456
0.575105
0.426238
0.304912
0.209073
0.135617
0.0809048
0.0408764
0.0114815
3.86237
3.54094
3.18824
2.81912
2.44801
2.0877
1.74849
1.43773
1.16008
0.917342
0.709768
0.536059
0.39377
0.280063
0.191777
0.12482
0.0749673
0.0381585
0.0107785
3.86422
3.54192
3.18425
2.80738
2.42728
2.05823
1.71175
1.39602
1.11617
0.874077
0.66975
0.501356
0.365698
0.259022
0.177238
0.115617
0.0697097
0.0356146
0.0100727
3.86393
3.53731
3.17259
2.78722
2.39851
2.02193
1.66991
1.3512
1.07112
0.831384
0.631572
0.469191
0.340248
0.240166
0.164164
0.107159
0.064677
0.0330348
0.00929049
3.86027
3.52463
3.15008
2.75517
2.35824
1.97559
1.62017
1.30087
1.02287
0.787434
0.593554
0.437986
0.315971
0.222263
0.151619
0.0988072
0.0594651
0.0301692
0.00832065
3.85317
3.50414
3.11734
2.71213
2.30758
1.92045
1.56375
1.24614
0.972306
0.742849
0.556033
0.407826
0.292798
0.205194
0.139511
0.090508
0.0540292
0.0269612
0.00711411
3.84683
3.48868
3.09565
2.687
2.28149
1.89545
1.5414
1.22749
0.957932
0.732921
0.550352
0.405893
0.293908
0.208547
0.144306
0.0960228
0.0595585
0.0316307
0.00952629
3.843
3.48206
3.09023
2.68574
2.28618
1.9067
1.55884
1.25007
0.984252
0.761472
0.579724
0.434892
0.32157
0.234157
0.16736
0.116091
0.0760611
0.0435197
0.0147786
3.83952
3.47625
3.08593
2.68585
2.29243
1.91965
1.57805
1.2744
1.01222
0.791469
0.610268
0.464729
0.349694
0.259809
0.189962
0.135096
0.0908083
0.0531184
0.0181816
3.83668
3.4716
3.08308
2.68758
2.30035
1.93421
1.59877
1.30014
1.04148
0.822658
0.641891
0.495514
0.378603
0.286026
0.212832
0.154004
0.105105
0.0621333
0.0213288
3.83398
3.4672
3.0807
2.68988
2.3088
1.94923
1.61987
1.32624
1.07115
0.854354
0.674151
0.527057
0.408346
0.313075
0.236441
0.173479
0.11978
0.0713902
0.0246182
3.83037
3.46206
3.07782
2.69169
2.31666
1.96353
1.64024
1.35171
1.10042
0.885969
0.706684
0.559215
0.438984
0.341197
0.261179
0.194026
0.135371
0.0813203
0.0282079
3.82761
3.45864
3.07666
2.69483
2.32534
1.97824
1.66077
1.37729
1.12993
0.918088
0.740059
0.592558
0.471099
0.370989
0.287653
0.216229
0.152383
0.0922703
0.0322219
3.82648
3.45717
3.07696
2.69878
2.33429
1.99286
1.68111
1.40281
1.15969
0.950892
0.774597
0.627524
0.505213
0.403025
0.316447
0.240635
0.171273
0.104549
0.0367753
3.82463
3.45388
3.07468
2.6997
2.3401
2.00459
1.69906
1.42667
1.18865
0.983773
0.810061
0.664158
0.541578
0.437686
0.348008
0.267692
0.192425
0.118425
0.0419756
3.82163
3.44827
3.06932
2.69725
2.34269
2.01362
1.71512
1.44959
1.21767
1.01772
0.847493
0.703514
0.581218
0.475939
0.383206
0.298141
0.216417
0.134281
0.0479715
3.81846
3.44145
3.06202
2.69271
2.34359
2.02173
1.73123
1.4736
1.24881
1.05472
0.888785
0.747354
0.625742
0.519211
0.423272
0.332993
0.244016
0.15261
0.0549511
3.81453
3.43224
3.05189
2.68586
2.34326
2.02994
1.7488
1.50039
1.28391
1.09668
0.935826
0.797485
0.676825
0.56901
0.469514
0.373326
0.276043
0.173947
0.0631204
3.80777
3.41888
3.03824
2.67703
2.34284
2.03998
1.76999
1.53232
1.32541
1.14603
0.990939
0.856084
0.736458
0.62711
0.52346
0.420399
0.313459
0.198926
0.0727315
3.80049
3.40571
3.02637
2.67205
2.34841
2.05791
1.80061
1.5749
1.37842
1.20742
1.05835
0.926941
0.807998
0.696432
0.587597
0.476249
0.357824
0.228576
0.0842014
3.79451
3.39558
3.02019
2.67571
2.36525
2.08919
1.84612
1.63338
1.44794
1.28557
1.14243
1.01406
0.89508
0.780225
0.664767
0.543283
0.411058
0.264238
0.0981065
3.78692
3.38675
3.02006
2.68993
2.39622
2.13723
1.91017
1.71154
1.53776
1.38422
1.24683
1.12098
1.00106
0.881653
0.7579
0.624133
0.475391
0.307572
0.115234
3.78108
3.38697
3.03565
2.7248
2.45119
2.21135
2.00153
1.8176
1.65561
1.51065
1.37843
1.2542
1.13214
1.00656
0.872443
0.723742
0.555064
0.361766
0.137127
3.78268
3.40595
3.07765
2.79088
2.54024
2.32118
2.1294
1.96042
1.8101
1.67326
1.54549
1.42191
1.29638
1.1629
1.01615
0.849473
0.656689
0.432059
0.1665
3.7945
3.44851
3.15138
2.89358
2.66886
2.47235
2.29969
2.14628
2.00791
1.87925
1.75576
1.63243
1.50272
1.36017
1.19897
1.01142
0.789936
0.526627
0.208087
3.81941
3.51823
3.2602
3.03619
2.84058
2.66889
2.51706
2.3806
2.25539
2.13602
2.01784
1.8957
1.76257
1.61129
1.43522
1.22498
0.970437
0.659628
0.271225
3.85693
3.61315
3.40166
3.21656
3.05398
2.91038
2.78232
2.66561
2.55639
2.44927
2.3396
2.22211
2.08919
1.93275
1.74483
1.5133
1.22367
0.856361
0.375677
3.90248
3.72545
3.56732
3.4268
3.30228
3.19143
3.09165
2.99931
2.91105
2.82176
2.72701
2.62162
2.49747
2.34545
2.1558
1.91227
1.59309
1.16517
0.567103
3.94884
3.84341
3.74462
3.65492
3.57459
3.50249
3.43705
3.37551
3.31543
3.25253
3.18316
3.10283
3.00363
2.87608
2.70864
2.48
2.1576
1.6857
0.958869
3.98815
3.95424
3.91976
3.8875
3.8583
3.83191
3.80784
3.7848
3.76182
3.73664
3.7075
3.67198
3.62488
3.55914
3.464
3.31572
3.07027
2.63969
1.84769
)
;

boundaryField
{
    up
    {
        type            fixedValue;
        value           uniform 0;
    }
    low
    {
        type            fixedValue;
        value           uniform 4;
    }
    left
    {
        type            fixedValue;
        value           uniform 4;
    }
    right
    {
        type            fixedValue;
        value           uniform 4;
    }
    frontAndBackPlanes
    {
        type            empty;
    }
}


// ************************************************************************* //
