/*--------------------------------*- C++ -*----------------------------------*\
  =========                 |
  \\      /  F ield         | OpenFOAM: The Open Source CFD Toolbox
   \\    /   O peration     | Website:  https://openfoam.org
    \\  /    A nd           | Version:  7
     \\/     M anipulation  |
\*---------------------------------------------------------------------------*/
FoamFile
{
    version     2.0;
    format      ascii;
    class       volScalarField;
    location    "0.156";
    object      gradTy;
}
// * * * * * * * * * * * * * * * * * * * * * * * * * * * * * * * * * * * * * //

dimensions      [0 -1 0 1 0 0 0];

internalField   nonuniform List<scalar> 
1596
(
-0.600077
-1.10915
-1.51543
-1.89065
-2.23141
-2.58363
-2.92309
-3.30086
-3.7333
-4.23156
-4.9261
-5.81134
-7.06061
-8.8721
-11.7354
-16.2448
-24.3524
-39.3444
-92.9383
-1.821
-2.22896
-2.483
-2.69436
-2.87592
-3.08226
-3.29588
-3.56603
-3.91062
-4.33168
-4.94092
-5.72218
-6.79287
-8.24262
-10.3243
-13.1595
-17.4018
-23.6513
-41.3897
-3.24024
-3.35355
-3.38478
-3.40815
-3.42421
-3.48188
-3.56368
-3.71427
-3.94822
-4.26143
-4.74767
-5.38033
-6.24196
-7.37322
-8.92882
-10.9214
-13.7077
-17.5343
-25.7259
-4.70297
-4.43051
-4.20675
-4.03287
-3.88395
-3.79443
-3.74424
-3.77085
-3.88485
-4.07815
-4.42856
-4.90431
-5.56476
-6.42575
-7.58695
-9.01882
-10.9328
-13.4242
-17.6723
-6.02069
-5.39781
-4.93513
-4.57501
-4.27131
-4.04224
-3.8657
-3.77101
-3.76545
-3.83893
-4.05543
-4.38276
-4.86458
-5.50473
-6.37108
-7.42074
-8.78869
-10.5025
-12.9914
-7.03351
-6.19874
-5.55745
-5.04255
-4.60447
-4.24994
-3.9578
-3.74989
-3.63143
-3.59209
-3.68379
-3.8771
-4.20457
-4.66457
-5.3055
-6.08355
-7.09004
-8.32268
-9.94256
-7.66647
-6.79237
-6.06007
-5.43851
-4.89571
-4.43583
-4.04303
-3.73381
-3.51291
-3.37121
-3.35026
-3.42513
-3.62005
-3.93123
-4.3942
-4.96927
-5.7208
-6.6345
-7.77168
-7.93567
-7.15796
-6.42496
-5.75402
-5.14346
-4.60383
-4.12917
-3.73376
-3.42359
-3.19204
-3.07202
-3.04384
-3.12531
-3.31206
-3.6305
-4.04677
-4.60731
-5.29448
-6.13049
-7.92269
-7.33512
-6.67433
-6.00632
-5.36342
-4.76906
-4.23038
-3.76299
-3.37585
-3.06585
-2.8593
-2.74171
-2.72595
-2.80776
-3.0066
-3.29443
-3.70488
-4.22066
-4.84785
-7.69295
-7.30104
-6.75696
-6.13974
-5.50398
-4.88676
-4.30875
-3.78986
-3.34329
-2.9703
-2.69271
-2.50088
-2.40415
-2.39865
-2.49858
-2.68127
-2.97109
-3.35286
-3.8261
-7.43051
-7.17038
-6.73783
-6.19012
-5.58521
-4.96794
-4.36983
-3.81617
-3.32506
-2.90252
-2.56778
-2.31552
-2.15266
-2.07581
-2.095
-2.19197
-2.38394
-2.6581
-3.01133
-7.12536
-6.9967
-6.66736
-6.19246
-5.62906
-5.02529
-4.42009
-3.84386
-3.31957
-2.85802
-2.47736
-2.17607
-1.95952
-1.82479
-1.77859
-1.8061
-1.91894
-2.1064
-2.36438
-6.76097
-6.74718
-6.51528
-6.11564
-5.60256
-5.02548
-4.42738
-3.843
-3.29946
-2.81183
-2.39843
-2.06083
-1.80368
-1.62452
-1.52758
-1.50067
-1.55122
-1.67029
-1.85357
-6.4492
-6.4955
-6.33589
-6.00056
-5.53522
-4.98802
-4.40329
-3.81899
-3.26541
-2.76117
-2.32536
-1.96197
-1.67539
-1.46353
-1.32871
-1.26061
-1.26342
-1.32951
-1.45463
-6.16967
-6.26237
-6.15456
-5.86911
-5.44385
-4.92421
-4.35433
-3.77421
-3.21649
-2.70254
-2.25238
-1.87181
-1.56514
-1.33054
-1.16879
-1.07081
-1.03833
-1.0646
-1.14554
-5.90044
-6.04001
-5.97435
-5.72764
-5.33419
-4.8377
-4.28171
-3.70761
-3.14972
-2.63139
-2.17354
-1.78314
-1.46447
-1.2157
-1.03642
-0.918226
-0.860982
-0.858519
-0.906904
-5.66171
-5.83388
-5.80122
-5.5838
-5.2138
-4.7345
-4.18933
-3.62093
-3.06487
-2.54589
-2.08554
-1.69139
-1.36752
-1.11189
-0.922952
-0.792647
-0.719343
-0.697204
-0.722421
-5.45712
-5.65329
-5.64573
-5.44942
-5.09493
-4.62593
-4.08676
-3.52152
-2.96702
-2.44906
-1.98943
-1.59588
-1.27198
-1.01518
-0.822814
-0.686797
-0.604276
-0.569543
-0.578859
-5.24852
-5.4944
-5.51632
-5.33829
-4.99375
-4.52853
-3.98946
-3.42283
-2.86712
-2.34925
-1.89104
-1.50008
-1.17912
-0.924819
-0.733281
-0.596088
-0.509287
-0.467134
-0.465886
-5.0271
-5.33415
-5.39391
-5.23647
-4.90037
-4.43562
-3.893
-3.32197
-2.76327
-2.24505
-1.78909
-1.40259
-1.0872
-0.838487
-0.651212
-0.516382
-0.429028
-0.383293
-0.375419
-4.83713
-5.19022
-5.28755
-5.15129
-4.82214
-4.35467
-3.80467
-3.22571
-2.66139
-2.14144
-1.68751
-1.30622
-0.997886
-0.756741
-0.576017
-0.445905
-0.360418
-0.313555
-0.301658
-4.66561
-5.06454
-5.19888
-5.08424
-4.76161
-4.28954
-3.72941
-3.13954
-2.56707
-2.0436
-1.59076
-1.21453
-0.913727
-0.681086
-0.508167
-0.384079
-0.301659
-0.254675
-0.239967
-4.50164
-4.95234
-5.12578
-5.03398
-4.7184
-4.24122
-3.66957
-3.06694
-2.48441
-1.95584
-1.50288
-1.13098
-0.837401
-0.613365
-0.448725
-0.331265
-0.252224
-0.204448
-0.185756
-4.3498
-4.85233
-5.06368
-4.99231
-4.68117
-4.19578
-3.60997
-2.99216
-2.39785
-1.86347
-1.40989
-1.0427
-0.757209
-0.543098
-0.388359
-0.279612
-0.205637
-0.156584
-0.12522
-4.22221
-4.77367
-5.03327
-5.00276
-4.72351
-4.25886
-3.68448
-3.0696
-2.47226
-1.93185
-1.46946
-1.09337
-0.7989
-0.576891
-0.415379
-0.301677
-0.22315
-0.168666
-0.126833
-4.1292
-4.71244
-5.00652
-5.01303
-4.7695
-4.33472
-3.78183
-3.1786
-2.58359
-2.03843
-1.56538
-1.17573
-0.86639
-0.629859
-0.45524
-0.331325
-0.245649
-0.187998
-0.148315
-4.12066
-4.70926
-5.01796
-5.04768
-4.83183
-4.42488
-3.89522
-3.30789
-2.72014
-2.1741
-1.69332
-1.29087
-0.96545
-0.711477
-0.519932
-0.381423
-0.284468
-0.219266
-0.175602
-4.207
-4.77355
-5.07231
-5.10537
-4.90343
-4.51675
-4.0083
-3.43888
-2.86281
-2.3212
-1.83762
-1.42617
-1.08664
-0.815039
-0.604357
-0.44781
-0.335765
-0.259486
-0.208457
-4.37591
-4.90402
-5.17311
-5.19259
-4.99228
-4.61855
-4.12869
-3.57823
-3.01737
-2.48505
-2.00375
-1.58786
-1.23734
-0.948993
-0.717273
-0.538521
-0.406111
-0.313824
-0.251322
-4.61987
-5.08688
-5.30985
-5.30334
-5.09591
-4.72988
-4.25693
-3.72672
-3.18463
-2.66666
-2.19345
-1.77919
-1.42322
-1.12186
-0.869462
-0.664955
-0.505593
-0.390208
-0.31038
-4.93221
-5.3192
-5.48714
-5.44748
-5.22716
-4.86473
-4.40661
-3.89654
-3.37488
-2.87452
-2.4139
-2.00717
-1.65272
-1.34537
-1.07681
-0.845884
-0.652333
-0.502978
-0.395851
-5.25924
-5.57853
-5.69256
-5.61789
-5.38245
-5.02187
-4.57781
-4.08823
-3.58858
-3.10861
-2.66469
-2.27155
-1.92744
-1.62605
-1.35426
-1.10633
-0.877383
-0.680026
-0.52676
-5.62483
-5.87248
-5.92888
-5.81603
-5.56289
-5.20226
-4.77115
-4.30188
-3.82496
-3.36704
-2.9424
-2.56707
-2.2409
-1.95928
-1.70592
-1.46913
-1.22837
-0.985378
-0.743457
-6.04679
-6.21388
-6.20911
-6.05704
-5.7866
-5.42744
-5.01142
-4.56539
-4.11486
-3.68302
-3.28253
-2.93005
-2.62883
-2.38016
-2.17255
-1.99732
-1.82495
-1.64091
-1.4264
-6.50663
-6.5854
-6.50564
-6.29946
-5.99621
-5.62307
-5.20661
-4.76928
-4.33196
-3.91326
-3.52474
-3.18035
-2.8852
-2.64425
-2.45557
-2.32144
-2.2281
-2.16534
-2.11344
-7.01998
-6.98251
-6.81065
-6.53776
-6.19022
-5.79193
-5.36443
-4.92683
-4.49645
-4.08798
-3.71261
-3.38068
-3.09698
-2.86492
-2.68474
-2.55737
-2.47946
-2.45051
-2.46823
-7.58262
-7.40791
-7.14023
-6.80123
-6.41008
-5.98568
-5.5453
-5.10499
-4.67943
-4.28078
-3.91924
-3.60289
-3.33535
-3.11814
-2.94987
-2.82667
-2.7417
-2.68753
-2.65532
-8.0852
-7.78724
-7.43372
-7.03484
-6.60349
-6.15395
-5.70012
-5.25514
-4.83142
-4.43905
-4.08661
-3.78069
-3.52368
-3.31599
-3.15554
-3.03797
-2.95658
-2.90456
-2.87393
-8.47999
-8.09886
-7.68204
-7.23716
-6.77434
-6.30499
-5.84062
-5.39212
-4.97009
-4.58299
-4.2382
-3.94119
-3.69351
-3.49496
-3.34317
-3.23352
-3.15942
-3.11409
-3.08963
-8.78962
-8.34559
-7.88054
-7.40046
-6.9135
-6.42899
-5.95653
-5.50536
-5.08467
-4.70169
-4.36293
-4.07302
-3.83297
-3.6421
-3.49786
-3.39536
-3.32808
-3.28919
-3.27089
-9.01367
-8.52292
-8.02178
-7.51597
-7.01179
-6.51669
-6.03871
-5.58583
-5.16623
-4.78628
-4.45192
-4.16721
-3.93278
-3.74765
-3.6091
-3.51201
-3.44978
-3.41546
-3.40117
-9.16344
-8.62514
-8.09713
-7.57521
-7.0613
-6.56061
-6.07995
-5.62642
-5.20767
-4.82956
-4.49775
-4.21601
-3.9848
-3.803
-3.66788
-3.57426
-3.51561
-3.48496
-3.47444
-9.16348
-8.62522
-8.09723
-7.57532
-7.06142
-6.56073
-6.08008
-5.62656
-5.20781
-4.82971
-4.4979
-4.21616
-3.98496
-3.80317
-3.66806
-3.57445
-3.51581
-3.48517
-3.47466
-9.01373
-8.52308
-8.022
-7.51624
-7.0121
-6.51702
-6.03907
-5.5862
-5.16663
-4.78669
-4.45235
-4.16766
-3.93325
-3.74815
-3.60963
-3.51257
-3.45039
-3.41611
-3.40189
-8.78971
-8.34583
-7.88088
-7.40088
-6.91399
-6.42952
-5.9571
-5.50597
-5.08531
-4.70235
-4.36363
-4.07375
-3.83373
-3.6429
-3.4987
-3.39626
-3.32904
-3.29022
-3.27199
-8.48011
-8.09917
-7.68248
-7.2377
-6.77496
-6.30568
-5.84136
-5.39291
-4.97092
-4.58386
-4.2391
-3.94212
-3.69448
-3.49597
-3.34423
-3.23464
-3.1606
-3.11534
-3.09096
-8.08534
-7.78759
-7.43423
-7.03547
-6.60422
-6.15476
-5.701
-5.25609
-4.83242
-4.44009
-4.08769
-3.78181
-3.52484
-3.31719
-3.15678
-3.03927
-2.95794
-2.906
-2.87544
-7.58278
-7.4083
-7.14079
-6.80192
-6.41089
-5.98659
-5.54629
-5.10605
-4.68055
-4.28195
-3.92045
-3.60413
-3.33663
-3.11946
-2.95122
-2.82804
-2.7431
-2.68895
-2.65676
-7.02016
-6.98296
-6.81135
-6.53868
-6.19133
-5.79322
-5.36588
-4.92841
-4.49815
-4.08978
-3.71451
-3.38267
-3.09907
-2.8671
-2.68702
-2.55969
-2.48173
-2.45253
-2.46973
-6.50675
-6.58548
-6.50579
-6.29972
-5.99659
-5.62358
-5.20726
-4.77003
-4.33277
-3.9141
-3.52555
-3.18108
-2.88579
-2.64465
-2.45578
-2.32153
-2.22835
-2.16631
-2.11597
-6.04684
-6.21418
-6.2097
-6.05796
-5.78789
-5.42909
-5.01341
-4.56768
-4.1174
-3.68572
-3.28536
-2.93295
-2.63181
-2.38326
-2.17591
-2.00117
-1.8296
-1.64664
-1.4334
-5.62484
-5.87254
-5.92912
-5.81651
-5.56366
-5.20332
-4.77249
-4.30345
-3.8267
-3.36889
-2.94432
-2.56901
-2.24286
-1.96132
-1.70811
-1.47151
-1.23087
-0.987769
-0.74527
-5.25923
-5.57855
-5.69274
-5.61831
-5.38317
-5.02289
-4.57911
-4.08976
-3.59027
-3.1104
-2.66653
-2.27339
-1.92928
-1.62791
-1.35614
-1.10818
-0.8791
-0.681455
-0.52784
-4.93218
-5.31917
-5.48724
-5.44782
-5.22779
-4.86566
-4.40781
-3.89796
-3.37645
-2.87616
-2.41557
-2.00881
-1.65432
-1.34692
-1.07828
-0.847231
-0.653488
-0.503904
-0.396555
-4.61983
-5.08682
-5.30991
-5.30362
-5.09646
-4.73073
-4.25804
-3.72803
-3.18607
-2.66816
-2.19493
-1.78063
-1.42458
-1.12312
-0.870597
-0.665936
-0.5064
-0.390846
-0.310875
-4.37585
-4.90393
-5.17311
-5.19279
-4.99276
-4.6193
-4.12969
-3.57941
-3.01866
-2.48637
-2.00505
-1.58908
-1.23847
-0.950001
-0.718146
-0.539248
-0.406695
-0.314287
-0.25169
-4.20695
-4.77345
-5.07229
-5.10554
-4.90384
-4.51742
-4.00919
-3.43994
-2.86395
-2.32236
-1.83873
-1.4272
-1.08756
-0.815839
-0.60503
-0.448359
-0.336204
-0.259837
-0.208748
-4.12061
-4.70916
-5.01793
-5.04781
-4.83219
-4.42546
-3.89601
-3.30881
-2.72113
-2.17509
-1.69425
-1.29172
-0.966198
-0.712115
-0.520458
-0.381848
-0.284809
-0.219548
-0.17585
-4.12914
-4.71233
-5.00646
-5.01309
-4.76973
-4.33513
-3.7824
-3.17926
-2.58431
-2.03914
-1.56605
-1.17634
-0.866917
-0.6303
-0.455598
-0.331611
-0.245879
-0.188197
-0.148524
-4.22228
-4.77371
-5.03333
-5.00287
-4.72369
-4.25911
-3.68479
-3.06996
-2.47265
-1.93225
-1.46985
-1.09374
-0.799242
-0.577199
-0.415649
-0.301914
-0.223355
-0.168837
-0.126953
-4.34988
-4.85239
-5.0637
-4.99227
-4.68106
-4.1956
-3.60973
-2.9919
-2.39758
-1.86321
-1.40965
-1.0425
-0.757039
-0.542963
-0.388252
-0.279527
-0.205567
-0.156518
-0.125134
-4.50169
-4.95238
-5.12581
-5.03399
-4.7184
-4.24121
-3.66956
-3.06692
-2.48441
-1.95584
-1.50289
-1.13099
-0.837418
-0.613383
-0.448743
-0.331283
-0.252241
-0.204464
-0.185766
-4.66564
-5.06457
-5.19889
-5.08423
-4.76159
-4.28951
-3.72938
-3.13951
-2.56705
-2.04359
-1.59075
-1.21453
-0.913733
-0.681094
-0.508177
-0.38409
-0.30167
-0.254686
-0.239976
-4.83716
-5.19024
-5.28756
-5.15128
-4.82212
-4.35465
-3.80465
-3.22569
-2.66138
-2.14143
-1.68751
-1.30622
-0.99789
-0.756746
-0.576024
-0.445913
-0.360427
-0.313565
-0.301667
-5.02711
-5.33416
-5.39391
-5.23646
-4.90035
-4.4356
-3.89299
-3.32196
-2.76326
-2.24505
-1.78909
-1.40259
-1.0872
-0.83849
-0.651217
-0.516388
-0.429037
-0.383304
-0.375429
-5.24853
-5.49441
-5.51632
-5.33828
-4.99373
-4.52852
-3.98945
-3.42282
-2.86712
-2.34925
-1.89103
-1.50008
-1.17912
-0.92482
-0.733284
-0.596094
-0.509296
-0.467146
-0.465896
-5.45713
-5.6533
-5.64573
-5.44941
-5.09492
-4.62592
-4.08675
-3.52151
-2.96701
-2.44905
-1.98943
-1.59588
-1.27198
-1.01518
-0.822816
-0.686803
-0.604286
-0.569556
-0.578871
-5.66172
-5.83388
-5.80121
-5.58379
-5.21379
-4.7345
-4.18933
-3.62093
-3.06487
-2.54589
-2.08553
-1.69138
-1.36751
-1.11188
-0.922954
-0.792653
-0.719354
-0.697217
-0.722432
-5.90044
-6.04001
-5.97435
-5.72764
-5.33419
-4.8377
-4.28171
-3.70761
-3.14972
-2.63138
-2.17353
-1.78313
-1.46446
-1.2157
-1.03642
-0.918233
-0.860992
-0.85853
-0.906912
-6.16966
-6.26236
-6.15455
-5.86911
-5.44385
-4.92421
-4.35434
-3.77421
-3.21649
-2.70253
-2.25237
-1.8718
-1.56514
-1.33054
-1.1688
-1.07082
-1.03834
-1.06461
-1.14554
-6.44919
-6.49548
-6.33589
-6.00056
-5.53523
-4.98802
-4.4033
-3.81899
-3.2654
-2.76116
-2.32535
-1.96196
-1.67538
-1.46353
-1.32872
-1.26061
-1.26342
-1.32951
-1.45463
-6.76096
-6.74717
-6.51528
-6.11565
-5.60257
-5.02549
-4.42739
-3.843
-3.29945
-2.81182
-2.39842
-2.06083
-1.80367
-1.62452
-1.52758
-1.50067
-1.55121
-1.67027
-1.85355
-7.12533
-6.99669
-6.66736
-6.19247
-5.62907
-5.0253
-4.42009
-3.84386
-3.31956
-2.85801
-2.47735
-2.17607
-1.95952
-1.82479
-1.77859
-1.80609
-1.91893
-2.10638
-2.36436
-7.43048
-7.17038
-6.73784
-6.19014
-5.58522
-4.96794
-4.36984
-3.81617
-3.32505
-2.90252
-2.56777
-2.31552
-2.15266
-2.07581
-2.095
-2.19196
-2.38392
-2.65806
-3.0113
-7.69293
-7.30105
-6.75697
-6.13976
-5.50399
-4.88677
-4.30875
-3.78986
-3.34328
-2.9703
-2.69271
-2.50088
-2.40415
-2.39864
-2.49857
-2.68125
-2.97105
-3.35281
-3.82608
-7.92268
-7.33514
-6.67435
-6.00633
-5.36342
-4.76906
-4.23038
-3.76299
-3.37585
-3.06585
-2.8593
-2.74171
-2.72595
-2.80775
-3.00659
-3.29441
-3.70484
-4.22062
-4.84784
-7.93568
-7.15798
-6.42498
-5.75403
-5.14346
-4.60384
-4.12917
-3.73376
-3.4236
-3.19204
-3.07203
-3.04385
-3.12531
-3.31205
-3.63048
-4.04674
-4.60727
-5.29445
-6.1305
-7.66649
-6.7924
-6.06009
-5.43852
-4.89571
-4.43584
-4.04304
-3.73381
-3.51292
-3.37122
-3.35026
-3.42514
-3.62004
-3.93122
-4.39418
-4.96925
-5.72077
-6.63449
-7.7717
-7.03354
-6.19876
-5.55746
-5.04256
-4.60447
-4.24995
-3.95781
-3.7499
-3.63144
-3.5921
-3.6838
-3.87711
-4.20457
-4.66456
-5.30548
-6.08353
-7.09002
-8.32268
-9.94259
-6.02072
-5.39783
-4.93514
-4.57502
-4.27133
-4.04226
-3.86571
-3.77103
-3.76547
-3.83895
-4.05544
-4.38276
-4.86458
-5.50471
-6.37106
-7.42072
-8.78868
-10.5025
-12.9915
-4.703
-4.43052
-4.20676
-4.03288
-3.88397
-3.79445
-3.74426
-3.77087
-3.88487
-4.07816
-4.42857
-4.90431
-5.56475
-6.42573
-7.58693
-9.01881
-10.9328
-13.4242
-17.6723
-3.24025
-3.35355
-3.38478
-3.40816
-3.42422
-3.48189
-3.5637
-3.71428
-3.94824
-4.26144
-4.74767
-5.38032
-6.24195
-7.3732
-8.9288
-10.9214
-13.7078
-17.5343
-25.726
-1.82101
-2.22896
-2.48299
-2.69436
-2.87593
-3.08226
-3.29589
-3.56605
-3.91064
-4.33168
-4.94093
-5.72218
-6.79286
-8.2426
-10.3243
-13.1595
-17.4018
-23.6514
-41.3897
-0.600081
-1.10915
-1.51542
-1.89064
-2.23141
-2.58363
-2.92309
-3.30087
-3.73331
-4.23157
-4.9261
-5.81134
-7.0606
-8.87208
-11.7354
-16.2448
-24.3524
-39.3444
-92.9383
)
;

boundaryField
{
    up
    {
        type            calculated;
        value           nonuniform List<scalar> 
84
(
-84.2239
-45.6158
-27.9669
-19.0009
-13.8635
-10.5605
-8.23181
-6.48264
-5.11927
-4.03531
-3.1703
-2.48284
-1.9402
-1.51639
-1.18835
-0.935719
-0.741158
-0.590501
-0.472623
-0.378888
-0.302977
-0.239676
-0.18226
-0.111304
-0.107041
-0.137266
-0.163508
-0.194047
-0.233329
-0.287
-0.363364
-0.474046
-0.657924
-1.39164
-2.15363
-2.49437
-2.64262
-2.86289
-3.08161
-3.26583
-3.39808
-3.47333
-3.47355
-3.39882
-3.26697
-3.08298
-2.86445
-2.64409
-2.49538
-2.15634
-1.39972
-0.659637
-0.474981
-0.363994
-0.287452
-0.233669
-0.19432
-0.163746
-0.137524
-0.107183
-0.111203
-0.182264
-0.239682
-0.302984
-0.378896
-0.472632
-0.590511
-0.741166
-0.935724
-1.18835
-1.51638
-1.94019
-2.48282
-3.17029
-4.03531
-5.11928
-6.48267
-8.23185
-10.5605
-13.8636
-19.0009
-27.9669
-45.6158
-84.2239
)
;
    }
    low
    {
        type            calculated;
        value           nonuniform List<scalar> 
84
(
-0.644559
-1.90511
-3.42123
-5.00471
-6.43381
-7.51803
-8.16339
-8.39522
-8.28958
-7.94418
-7.62342
-7.26322
-6.82269
-6.47065
-6.16878
-5.86648
-5.59804
-5.38458
-5.15572
-4.88807
-4.66108
-4.45945
-4.25912
-4.07315
-3.88808
-3.76896
-3.76464
-3.8909
-4.11218
-4.42149
-4.79188
-5.15743
-5.56603
-6.03653
-6.53568
-7.10022
-7.73267
-8.27765
-8.696
-9.02511
-9.26487
-9.43848
-9.43851
-9.2649
-9.02515
-8.69607
-8.27772
-7.73276
-7.10033
-6.53563
-6.0366
-5.56597
-5.15739
-4.79183
-4.42145
-4.11214
-3.89088
-3.76463
-3.76897
-3.88811
-4.07326
-4.25913
-4.45948
-4.6611
-4.88808
-5.15573
-5.38459
-5.59805
-5.86648
-6.16877
-6.47064
-6.82267
-7.26318
-7.62338
-7.94414
-8.28955
-8.39522
-8.16342
-7.51807
-6.43385
-5.00475
-3.42126
-1.90513
-0.644566
)
;
    }
    left
    {
        type            calculated;
        value           nonuniform List<scalar> 
19
(
-0.588999
-1.08943
-1.50454
-1.89332
-2.24959
-2.61728
-2.97257
-3.36894
-3.82299
-4.35321
-5.09587
-6.05069
-7.41441
-9.42415
-12.6288
-17.7573
-27.0814
-44.5216
-87.3507
)
;
    }
    right
    {
        type            calculated;
        value           nonuniform List<scalar> 
19
(
-0.589003
-1.08943
-1.50454
-1.89332
-2.24959
-2.61728
-2.97257
-3.36894
-3.82299
-4.35322
-5.09587
-6.05068
-7.41439
-9.42412
-12.6288
-17.7573
-27.0814
-44.5216
-87.3507
)
;
    }
    frontAndBackPlanes
    {
        type            empty;
    }
}


// ************************************************************************* //
