/*--------------------------------*- C++ -*----------------------------------*\
  =========                 |
  \\      /  F ield         | OpenFOAM: The Open Source CFD Toolbox
   \\    /   O peration     | Website:  https://openfoam.org
    \\  /    A nd           | Version:  7
     \\/     M anipulation  |
\*---------------------------------------------------------------------------*/
FoamFile
{
    version     2.0;
    format      ascii;
    class       volScalarField;
    location    "0.156";
    object      T;
}
// * * * * * * * * * * * * * * * * * * * * * * * * * * * * * * * * * * * * * //

dimensions      [0 0 0 1 0 0 0];

internalField   nonuniform List<scalar> 
1596
(
4.98183
4.92998
4.8777
4.82965
4.78744
4.751
4.7197
4.69176
4.66579
4.63854
4.60748
4.56905
4.51613
4.43933
4.32475
4.14242
3.83729
3.2997
2.30971
4.92176
4.76097
4.61171
4.47867
4.36304
4.2637
4.17857
4.10376
4.03564
3.96794
3.8952
3.81065
3.70299
3.55901
3.36312
3.08776
2.69181
2.1058
1.19864
4.85152
4.5826
4.34459
4.13691
3.95815
3.80554
3.67554
3.56288
3.46251
3.36678
3.26888
3.16077
3.03046
2.86474
2.64966
2.36346
1.978
1.4517
0.70836
4.78352
4.4151
4.09816
3.82552
3.59256
3.39474
3.22729
3.08406
2.95914
2.84432
2.73231
2.61475
2.48004
2.316
2.11061
1.84682
1.5051
1.06028
0.46783
4.72881
4.27644
3.89163
3.56276
3.28279
3.04586
2.84625
2.67733
2.53273
2.4041
2.28407
2.1643
2.0339
1.88175
1.69731
1.46668
1.17544
0.807349
0.335363
4.69395
4.17781
3.73703
3.35984
3.03849
2.76665
2.53815
2.3462
2.18424
2.04403
1.91826
1.79877
1.67535
1.53777
1.3765
1.17964
0.935663
0.633008
0.253999
4.67895
4.12089
3.63663
3.21864
2.86064
2.55689
2.3014
2.08755
1.90886
1.7573
1.62571
1.50616
1.38906
1.26484
1.12469
0.95801
0.754915
0.506218
0.199215
4.67888
4.09902
3.58383
3.13264
2.74255
2.40952
2.12844
1.89322
1.69768
1.53411
1.39559
1.2744
1.16145
1.04778
0.925068
0.783623
0.614551
0.409877
0.159545
4.68917
4.10394
3.56926
3.09224
2.67459
2.3149
2.00956
1.75339
1.54075
1.36435
1.21754
1.09281
0.981537
0.875208
0.76592
0.64467
0.503237
0.334307
0.129282
4.7013
4.12071
3.57616
3.08075
2.64076
2.2579
1.93049
1.65462
1.42538
1.23602
1.08018
0.95061
0.839033
0.737352
0.638013
0.532579
0.41336
0.273481
0.105256
4.71041
4.13784
3.59001
3.08281
2.62602
2.22424
1.87791
1.58454
1.34014
1.13858
0.973825
0.838879
0.725792
0.626814
0.534704
0.441527
0.340063
0.223801
0.0857206
4.72083
4.15782
3.60992
3.09497
2.6253
2.20795
1.84539
1.53657
1.27849
1.06565
0.892393
0.75194
0.63661
0.538927
0.451916
0.368075
0.280605
0.183338
0.0697937
4.72999
4.17656
3.63017
3.11006
2.63051
2.20055
1.82442
1.50243
1.23253
1.00984
0.829051
0.683576
0.565929
0.468843
0.385548
0.308905
0.232487
0.150453
0.0568152
4.73468
4.18803
3.64327
3.11976
2.6329
2.19325
1.80646
1.47402
1.19471
0.964204
0.777477
0.628095
0.508705
0.412183
0.331916
0.261063
0.193525
0.123774
0.0462683
4.73796
4.19494
3.65043
3.12369
2.63079
2.18334
1.78812
1.44754
1.16104
0.924717
0.733744
0.581758
0.461468
0.365827
0.288321
0.222344
0.162072
0.10226
0.0377701
4.7408
4.19921
3.65312
3.12231
2.62355
2.1693
1.76717
1.42028
1.12851
0.888236
0.69469
0.541481
0.421295
0.327087
0.252388
0.190762
0.136612
0.0849412
0.030962
4.74181
4.19939
3.64996
3.11404
2.60923
2.14877
1.74096
1.3894
1.09422
0.85187
0.657497
0.504561
0.385638
0.293616
0.222019
0.164539
0.115762
0.0709083
0.0255006
4.74169
4.19643
3.64196
3.0997
2.58824
2.12171
1.70898
1.354
1.05697
0.814198
0.620599
0.469353
0.352826
0.263778
0.19568
0.142313
0.0984187
0.0594129
0.0210907
4.74406
4.1961
3.63532
3.08516
2.56572
2.09226
1.67438
1.31627
1.01809
0.775854
0.584071
0.435503
0.322204
0.236722
0.17243
0.12316
0.0837794
0.0498793
0.0174959
4.74782
4.19832
3.63081
3.07158
2.54291
2.06155
1.63798
1.27672
0.977771
0.736745
0.547573
0.402471
0.293077
0.211656
0.151436
0.106274
0.0711484
0.0418102
0.014513
4.75041
4.19969
3.62561
3.05697
2.51848
2.02874
1.59928
1.23503
0.935766
0.696603
0.510778
0.369847
0.264948
0.188007
0.13208
0.0910376
0.0599732
0.0348028
0.0119776
4.75348
4.20199
3.62164
3.04353
2.49486
1.99628
1.5606
1.19322
0.893727
0.65668
0.474536
0.338113
0.237986
0.165694
0.114093
0.0770664
0.0498362
0.0285161
0.00974976
4.75781
4.20681
3.62087
3.03353
2.47456
1.96679
1.52447
1.1536
0.853621
0.618516
0.439945
0.307952
0.212511
0.144744
0.0972777
0.0639921
0.0402631
0.0224837
0.00760292
4.76303
4.2139
3.6234
3.02751
2.45861
1.94174
1.49263
1.11796
0.817082
0.583461
0.407996
0.27997
0.188778
0.125117
0.0813611
0.0513443
0.0305852
0.0158415
0.00474116
4.77242
4.23564
3.6522
3.05874
2.48864
1.96812
1.51408
1.13413
0.828282
0.590378
0.411476
0.280881
0.187912
0.12314
0.078791
0.0485434
0.0278457
0.0135284
0.0035205
4.7833
4.26627
3.69969
3.11878
2.55607
2.03765
1.58108
1.19506
0.880897
0.633693
0.445514
0.30645
0.206289
0.135802
0.0871841
0.0539054
0.0311083
0.0153121
0.0041376
4.78918
4.28643
3.73463
3.16683
2.61385
2.1008
1.64506
1.25588
0.935524
0.680242
0.483195
0.33543
0.22744
0.150442
0.0968033
0.0598943
0.0345911
0.017086
0.00468277
4.79014
4.29552
3.75572
3.20108
2.65992
2.15551
1.70427
1.31532
0.991456
0.729876
0.524819
0.368402
0.252038
0.167659
0.108083
0.0667741
0.0384324
0.0189176
0.00518284
4.78811
4.29726
3.76741
3.22599
2.69832
2.20523
1.76155
1.37576
1.0508
0.784567
0.5723
0.40722
0.281794
0.188898
0.122103
0.0752559
0.0430488
0.021026
0.00571459
4.78358
4.29403
3.77336
3.24565
2.73294
2.25329
1.81962
1.43939
1.1154
0.846031
0.62738
0.453714
0.318562
0.215869
0.140236
0.0862556
0.0489409
0.0236383
0.006346
4.77804
4.28976
3.7787
3.26547
2.76883
2.30408
1.88208
1.50913
1.1877
0.916463
0.692232
0.510183
0.364789
0.251014
0.164614
0.101297
0.0569286
0.0270606
0.00714693
4.77499
4.29002
3.78958
3.29146
2.81148
2.36229
1.9528
1.58814
1.27034
0.998264
0.76929
0.579336
0.423599
0.297813
0.198722
0.123275
0.0687813
0.0319041
0.00815295
4.7729
4.29279
3.80413
3.32205
2.85956
2.42685
2.03096
1.67587
1.36317
1.0918
0.8596
0.663119
0.49807
0.360612
0.24799
0.157945
0.0892596
0.0406569
0.00942821
4.7715
4.29783
3.8223
3.35734
2.91329
2.49805
2.11692
1.7728
1.46685
1.19805
0.964677
0.763874
0.591814
0.444897
0.320375
0.215881
0.13047
0.0642616
0.0166481
4.76951
4.30073
3.83617
3.38602
2.95829
2.55887
2.19157
1.85833
1.55985
1.29507
1.06256
0.85995
0.68389
0.531095
0.39876
0.283931
0.184609
0.100115
0.0299725
4.76317
4.29084
3.82911
3.38601
2.96758
2.57812
2.22021
1.89493
1.60249
1.34159
1.11083
0.908001
0.730037
0.573973
0.43734
0.317288
0.21166
0.1191
0.0379096
4.75376
4.27266
3.80884
3.36796
2.95429
2.57078
2.21898
1.89923
1.61125
1.35341
1.12422
0.921534
0.742394
0.584098
0.44458
0.32143
0.213073
0.118799
0.0373518
4.74661
4.25914
3.79414
3.35541
2.94582
2.56725
2.22044
1.90513
1.62069
1.36523
1.13724
0.934624
0.75456
0.594564
0.452875
0.327363
0.216745
0.120608
0.0378658
4.74239
4.25098
3.78543
3.34844
2.94194
2.56705
2.22392
1.91185
1.62993
1.37611
1.14885
0.946113
0.765183
0.603738
0.460239
0.332754
0.220208
0.12242
0.0384394
4.73944
4.2453
3.77945
3.34379
2.93959
2.56741
2.22696
1.91723
1.63711
1.38445
1.15766
0.954783
0.773162
0.610598
0.465721
0.336741
0.222745
0.123733
0.0388583
4.73724
4.24099
3.77483
3.34007
2.93744
2.56711
2.2285
1.92037
1.64149
1.38962
1.16317
0.96021
0.778144
0.614849
0.469068
0.339115
0.224191
0.124431
0.0390689
4.73481
4.23679
3.77042
3.33629
2.9347
2.56556
2.2281
1.92099
1.64291
1.39159
1.16545
0.962575
0.780386
0.61681
0.470647
0.340262
0.224909
0.124793
0.0391877
4.73482
4.23681
3.77045
3.33633
2.93474
2.5656
2.22815
1.92103
1.64295
1.39163
1.16549
0.962611
0.780418
0.616838
0.47067
0.34028
0.224922
0.124801
0.0391904
4.73726
4.24105
3.77492
3.34017
2.93756
2.56724
2.22864
1.92051
1.64162
1.38974
1.16329
0.960319
0.778241
0.614934
0.46914
0.339173
0.224233
0.124457
0.0390777
4.73948
4.2454
3.77959
3.34397
2.93979
2.56762
2.22718
1.91745
1.63732
1.38465
1.15785
0.954957
0.773318
0.610734
0.465834
0.336831
0.222809
0.123772
0.0388718
4.74245
4.25111
3.78562
3.34867
2.9422
2.56733
2.22421
1.91214
1.63021
1.37638
1.1491
0.946346
0.76539
0.603918
0.460389
0.332872
0.220292
0.122471
0.0384571
4.74668
4.2593
3.79438
3.3557
2.94615
2.5676
2.2208
1.90549
1.62104
1.36557
1.13755
0.93491
0.754814
0.594784
0.453058
0.327507
0.216848
0.120669
0.037887
4.75383
4.27284
3.80911
3.3683
2.95467
2.57118
2.2194
1.89965
1.61166
1.3538
1.12458
0.921862
0.742685
0.584347
0.444784
0.321589
0.213185
0.118865
0.0373734
4.76325
4.29104
3.82942
3.38639
2.96801
2.57858
2.22068
1.8954
1.60295
1.34203
1.11123
0.908364
0.730353
0.574237
0.437549
0.317441
0.211759
0.119153
0.0379254
4.76961
4.30103
3.83665
3.38665
2.95903
2.5597
2.19246
1.85924
1.56076
1.29596
1.06341
0.860756
0.684642
0.531789
0.399391
0.28449
0.185076
0.10045
0.0301107
4.77162
4.29819
3.82287
3.35809
2.91419
2.49905
2.11799
1.77389
1.46794
1.19911
0.96569
0.764824
0.592691
0.445691
0.321075
0.21647
0.130921
0.0645473
0.0167487
4.773
4.2931
3.80463
3.32271
2.86035
2.42773
2.03189
1.67682
1.3641
1.09268
0.860425
0.66387
0.498737
0.361185
0.248459
0.158299
0.0894893
0.04077
0.00945108
4.77508
4.29031
3.79005
3.29209
2.81223
2.36313
1.95368
1.58902
1.27119
0.999063
0.770016
0.579978
0.424149
0.298265
0.19907
0.123518
0.0689276
0.0319726
0.00816942
4.77813
4.29003
3.77915
3.26606
2.76955
2.30487
1.8829
1.50995
1.18848
0.917177
0.692868
0.51073
0.365242
0.251372
0.164878
0.101475
0.0570331
0.0271105
0.00715969
4.78365
4.29427
3.77377
3.24621
2.73361
2.25402
1.82038
1.44014
1.1161
0.846665
0.627933
0.454178
0.318936
0.216155
0.140441
0.0863911
0.0490207
0.0236771
0.0063563
4.78818
4.29748
3.76779
3.2265
2.69893
2.2059
1.76225
1.37644
1.05142
0.785122
0.572775
0.407611
0.282102
0.189129
0.122266
0.0753627
0.0431121
0.0210575
0.00572323
4.79019
4.29571
3.75605
3.20154
2.66047
2.15611
1.70489
1.31592
0.992003
0.730357
0.525224
0.36873
0.252293
0.167847
0.108214
0.0668606
0.0384844
0.0189442
0.00519046
4.78923
4.28659
3.73492
3.16724
2.61434
2.10133
1.6456
1.2564
0.935997
0.680653
0.483538
0.335704
0.227651
0.150597
0.0969122
0.0599666
0.0346356
0.0171096
0.00469
4.78334
4.26641
3.69994
3.11913
2.55649
2.03811
1.58154
1.1955
0.8813
0.634042
0.445803
0.306681
0.206466
0.135933
0.0872766
0.053968
0.0311481
0.0153342
0.00414505
4.77243
4.23567
3.65227
3.05884
2.48876
1.96825
1.51421
1.13426
0.828409
0.59049
0.411572
0.280958
0.187972
0.123184
0.0788201
0.0485609
0.0278541
0.0135304
0.00351949
4.76301
4.21386
3.62334
3.02743
2.45852
1.94165
1.49255
1.11788
0.817014
0.583405
0.407951
0.279935
0.188752
0.125096
0.0813449
0.0513311
0.0305745
0.0158332
0.00473678
4.75781
4.2068
3.62087
3.03352
2.47455
1.96679
1.52447
1.15361
0.85363
0.618527
0.439957
0.307964
0.212522
0.144753
0.0972846
0.0639971
0.0402663
0.0224852
0.00760308
4.75347
4.20198
3.62164
3.04353
2.49486
1.99628
1.5606
1.19322
0.893734
0.656688
0.474545
0.338122
0.237993
0.1657
0.114098
0.0770699
0.0498385
0.0285173
0.00975003
4.75041
4.19969
3.6256
3.05697
2.51848
2.02874
1.59928
1.23503
0.935771
0.69661
0.510785
0.369853
0.264953
0.188012
0.132083
0.0910405
0.0599752
0.0348039
0.0119779
4.74782
4.19831
3.6308
3.07158
2.54291
2.06155
1.63798
1.27673
0.977776
0.73675
0.547578
0.402475
0.293081
0.211659
0.151439
0.106277
0.0711504
0.0418114
0.0145134
4.74406
4.19609
3.63531
3.08515
2.56572
2.09227
1.67438
1.31628
1.01809
0.775858
0.584075
0.435506
0.322207
0.236725
0.172433
0.123162
0.0837816
0.0498806
0.0174963
4.74169
4.19643
3.64196
3.0997
2.58824
2.12171
1.70899
1.35401
1.05697
0.814201
0.620602
0.469356
0.35283
0.263781
0.195684
0.142316
0.0984211
0.0594143
0.021091
4.7418
4.19939
3.64996
3.11404
2.60923
2.14877
1.74097
1.3894
1.09423
0.851872
0.657499
0.504564
0.385641
0.293619
0.222023
0.164542
0.115764
0.0709097
0.0255009
4.7408
4.19921
3.65312
3.12231
2.62355
2.1693
1.76718
1.42028
1.12851
0.888238
0.694692
0.541484
0.421298
0.327091
0.252391
0.190765
0.136614
0.0849423
0.0309622
4.73797
4.19494
3.65044
3.12369
2.63079
2.18335
1.78813
1.44755
1.16104
0.924719
0.733746
0.58176
0.461471
0.36583
0.288324
0.222346
0.162074
0.102261
0.0377701
4.73468
4.18803
3.64327
3.11976
2.63291
2.19325
1.80646
1.47402
1.19471
0.964205
0.777479
0.628097
0.508708
0.412185
0.331918
0.261064
0.193526
0.123774
0.0462681
4.72999
4.17657
3.63017
3.11006
2.63051
2.20055
1.82442
1.50243
1.23253
1.00984
0.829052
0.683578
0.565931
0.468845
0.385549
0.308905
0.232486
0.150452
0.0568149
4.72083
4.15782
3.60992
3.09498
2.6253
2.20795
1.84539
1.53657
1.27849
1.06565
0.892393
0.751941
0.636611
0.538927
0.451915
0.368073
0.280603
0.183336
0.0697934
4.71041
4.13785
3.59001
3.08281
2.62602
2.22424
1.87791
1.58454
1.34014
1.13858
0.973825
0.838878
0.725791
0.626811
0.5347
0.441523
0.340059
0.223799
0.0857204
4.7013
4.12071
3.57617
3.08075
2.64076
2.2579
1.93049
1.65462
1.42538
1.23602
1.08018
0.950607
0.839029
0.737347
0.638007
0.532574
0.413356
0.273478
0.105256
4.68917
4.10394
3.56925
3.09224
2.67458
2.3149
2.00955
1.75339
1.54074
1.36435
1.21753
1.09281
0.98153
0.8752
0.765913
0.644663
0.503232
0.334305
0.129283
4.67888
4.09902
3.58383
3.13264
2.74255
2.40952
2.12844
1.89322
1.69767
1.53411
1.39558
1.27439
1.16144
1.04777
0.92506
0.783617
0.614547
0.409876
0.159546
4.67895
4.12088
3.63663
3.21864
2.86064
2.55688
2.3014
2.08755
1.90886
1.75729
1.6257
1.50616
1.38905
1.26483
1.12468
0.958005
0.754913
0.506218
0.199216
4.69394
4.1778
3.73702
3.35983
3.03849
2.76664
2.53814
2.34619
2.18423
2.04402
1.91825
1.79875
1.67534
1.53776
1.37649
1.17964
0.935663
0.633009
0.254001
4.72881
4.27644
3.89162
3.56276
3.28278
3.04585
2.84624
2.67732
2.53272
2.4041
2.28406
2.16429
2.03389
1.88175
1.69731
1.46668
1.17544
0.807352
0.335364
4.78352
4.4151
4.09816
3.82552
3.59255
3.39474
3.22729
3.08405
2.95913
2.84431
2.7323
2.61474
2.48003
2.31599
2.11061
1.84682
1.50511
1.06028
0.46783
4.85151
4.58259
4.34459
4.13691
3.95815
3.80554
3.67553
3.56287
3.46251
3.36677
3.26887
3.16077
3.03046
2.86473
2.64966
2.36346
1.978
1.4517
0.708359
4.92175
4.76097
4.61171
4.47867
4.36304
4.2637
4.17857
4.10376
4.03564
3.96794
3.8952
3.81064
3.70299
3.55901
3.36312
3.08776
2.69181
2.1058
1.19864
4.98183
4.92998
4.8777
4.82965
4.78744
4.751
4.7197
4.69176
4.66579
4.63854
4.60748
4.56905
4.51613
4.43933
4.32475
4.14242
3.83729
3.2997
2.30971
)
;

boundaryField
{
    up
    {
        type            fixedValue;
        value           uniform 0;
    }
    low
    {
        type            fixedValue;
        value           uniform 5;
    }
    left
    {
        type            fixedValue;
        value           uniform 5;
    }
    right
    {
        type            fixedValue;
        value           uniform 5;
    }
    frontAndBackPlanes
    {
        type            empty;
    }
}


// ************************************************************************* //
