/*--------------------------------*- C++ -*----------------------------------*\
  =========                 |
  \\      /  F ield         | OpenFOAM: The Open Source CFD Toolbox
   \\    /   O peration     | Website:  https://openfoam.org
    \\  /    A nd           | Version:  7
     \\/     M anipulation  |
\*---------------------------------------------------------------------------*/
FoamFile
{
    version     2.0;
    format      ascii;
    class       volScalarField;
    location    "0.23";
    object      gradTy;
}
// * * * * * * * * * * * * * * * * * * * * * * * * * * * * * * * * * * * * * //

dimensions      [0 -1 0 1 0 0 0];

internalField   nonuniform List<scalar> 
1596
(
-0.55535
-1.03126
-1.42082
-1.7945
-2.15244
-2.5414
-2.9415
-3.40616
-3.95646
-4.60777
-5.50313
-6.6426
-8.22274
-10.4754
-13.9786
-19.4431
-29.2047
-47.2103
-111.525
-1.6912
-2.08447
-2.35071
-2.59579
-2.8324
-3.11283
-3.42102
-3.80626
-4.28885
-4.87294
-5.67805
-6.69122
-8.04401
-9.84156
-12.3803
-15.8098
-20.9094
-28.4049
-49.6784
-3.0255
-3.15589
-3.23135
-3.32165
-3.42542
-3.58768
-3.79003
-4.07563
-4.45955
-4.93821
-5.60984
-6.44886
-7.54611
-8.94972
-10.8393
-13.237
-16.5663
-21.1315
-30.927
-4.42282
-4.19864
-4.04764
-3.96853
-3.93324
-3.97153
-4.06057
-4.23541
-4.50568
-4.86281
-5.38699
-6.04601
-6.90392
-7.97979
-9.38733
-11.0996
-13.3651
-16.3081
-21.349
-5.71018
-5.15369
-4.78321
-4.53765
-4.36589
-4.28079
-4.25583
-4.31738
-4.47074
-4.70471
-5.08448
-5.57671
-6.22766
-7.04224
-8.09589
-9.34577
-10.9478
-12.9451
-15.8578
-6.73174
-5.96392
-5.42251
-5.03279
-4.73727
-4.53639
-4.4029
-4.35526
-4.39594
-4.51308
-4.75936
-5.10384
-5.58065
-6.18822
-6.97863
-7.90715
-9.07661
-10.493
-12.3544
-7.40344
-6.5846
-5.94941
-5.45505
-5.05847
-4.75625
-4.52482
-4.37674
-4.31336
-4.32368
-4.44998
-4.66567
-4.9963
-5.43772
-6.02695
-6.72295
-7.59579
-8.63527
-9.91871
-7.72518
-6.98842
-6.3437
-5.79556
-5.32934
-4.94672
-4.63253
-4.39646
-4.24048
-4.1557
-4.17602
-4.28005
-4.48712
-4.79254
-5.2232
-5.74357
-6.40246
-7.18349
-8.11582
-7.76286
-7.20619
-6.624
-6.07152
-5.56799
-5.12715
-4.74585
-4.4343
-4.19684
-4.02772
-3.95447
-3.96104
-4.06227
-4.25386
-4.55565
-4.93768
-5.43423
-6.02729
-6.72551
-7.57217
-7.20917
-6.73707
-6.22797
-5.72502
-5.25556
-4.82959
-4.46092
-4.15766
-3.91806
-3.76545
-3.68881
-3.70008
-3.79591
-3.9914
-4.26187
-4.63182
-5.08398
-5.61788
-7.3319
-7.10648
-6.74497
-6.30108
-5.8237
-5.34853
-4.89663
-4.4867
-4.13149
-3.83375
-3.6144
-3.46711
-3.40205
-3.41703
-3.52383
-3.70235
-3.97022
-4.31166
-4.72215
-7.03277
-6.94856
-6.69422
-6.32291
-5.88457
-5.41885
-4.9548
-4.51598
-4.11988
-3.77392
-3.49809
-3.29031
-3.15985
-3.10579
-3.13764
-3.23914
-3.42296
-3.67517
-3.98958
-6.66058
-6.70246
-6.55286
-6.26013
-5.87252
-5.43132
-4.97035
-4.51733
-4.09401
-3.71217
-3.39202
-3.13526
-2.95102
-2.83975
-2.80954
-2.84747
-2.96287
-3.14369
-3.38326
-6.32959
-6.44331
-6.37595
-6.15448
-5.81852
-5.40788
-4.95821
-4.50032
-4.05936
-3.65092
-3.29615
-2.99994
-2.7718
-2.61344
-2.53214
-2.51763
-2.57698
-2.69985
-2.87967
-6.02279
-6.19329
-6.18887
-6.027
-5.7383
-5.35896
-4.92444
-4.46737
-4.01548
-3.58754
-3.20593
-2.87823
-2.61458
-2.41787
-2.29486
-2.23749
-2.25119
-2.32716
-2.45926
-5.72148
-5.94646
-5.99515
-5.88343
-5.63638
-5.2868
-4.86892
-4.41632
-3.95857
-3.51697
-3.11518
-2.76304
-2.47139
-2.24417
-2.08783
-1.99607
-1.97317
-2.01168
-2.10595
-5.44806
-5.71061
-5.80237
-5.73226
-5.52058
-5.19735
-4.7954
-4.34879
-3.88837
-3.43743
-3.02082
-2.65021
-2.3371
-2.08626
-1.90394
-1.78519
-1.7335
-1.74247
-1.80698
-5.20808
-5.4969
-5.62251
-5.58617
-5.4035
-5.10198
-4.71341
-4.27212
-3.81004
-3.35213
-2.92423
-2.53954
-2.21007
-1.94117
-1.73886
-1.59921
-1.5251
-1.511
-1.55222
-4.96659
-5.3027
-5.46424
-5.45849
-5.30046
-5.01631
-4.63764
-4.19929
-3.73442
-3.26965
-2.83173
-2.43522
-2.09246
-1.80918
-1.59104
-1.43484
-1.34294
-1.31058
-1.33347
-4.71686
-5.10735
-5.30995
-5.33566
-5.20089
-4.93213
-4.56158
-4.12508
-3.65722
-3.18631
-2.74002
-2.33409
-1.98111
-1.6869
-1.45662
-1.28742
-1.18135
-1.13448
-1.14307
-4.50246
-4.93026
-5.17125
-5.22754
-5.11438
-4.85869
-4.49388
-4.05729
-3.58523
-3.1078
-2.65366
-2.23965
-1.87846
-1.57578
-1.33593
-1.15593
-1.03748
-0.977794
-0.974493
-4.31184
-4.77468
-5.05126
-5.13685
-5.04411
-4.7999
-4.43906
-4.00075
-3.52329
-3.03873
-2.57678
-2.15535
-1.78724
-1.47782
-1.23024
-1.04059
-0.909602
-0.835685
-0.819972
-4.13542
-4.63755
-4.9497
-5.06382
-4.99061
-4.75685
-4.39888
-3.95789
-3.47436
-2.98234
-2.51264
-2.08425
-1.7101
-1.39531
-1.1417
-0.943471
-0.79856
-0.704203
-0.667774
-3.97793
-4.51946
-4.86478
-5.00301
-4.94429
-4.71539
-4.35542
-3.90743
-3.41452
-2.91323
-2.4342
-1.99867
-1.61933
-1.30124
-1.04467
-0.842131
-0.6856
-0.564057
-0.46919
-3.85013
-4.4282
-4.81274
-4.98876
-4.9657
-4.7678
-4.43423
-4.00642
-3.52735
-3.03451
-2.55655
-2.11735
-1.72946
-1.40057
-1.13177
-0.918113
-0.74859
-0.608606
-0.476546
-3.76127
-4.36115
-4.76844
-4.97072
-4.97647
-4.8077
-4.50164
-4.09745
-3.63636
-3.15535
-2.68094
-2.23809
-1.83985
-1.49609
-1.21032
-0.982298
-0.803442
-0.664225
-0.549909
-3.75837
-4.36165
-4.77712
-4.99386
-5.01938
-4.87475
-4.59451
-4.21578
-3.77724
-3.31376
-2.85012
-2.40959
-2.00496
-1.64735
-1.3433
-1.09659
-0.902315
-0.753535
-0.63725
-3.85134
-4.43862
-4.84358
-5.05765
-5.08859
-4.95724
-4.69591
-4.33957
-3.92411
-3.48165
-3.03433
-2.6026
-2.19719
-1.82885
-1.50631
-1.23782
-1.02326
-0.859034
-0.733274
-4.02986
-4.59004
-4.96889
-5.16546
-5.18935
-5.06167
-4.81292
-4.47589
-4.0835
-3.66501
-3.23938
-2.82359
-2.42464
-2.05064
-1.71043
-1.41661
-1.17532
-0.988662
-0.846648
-4.28857
-4.80245
-5.14065
-5.30793
-5.31534
-5.18419
-4.9435
-4.62371
-4.25485
-3.86346
-3.46537
-3.07425
-2.6923
-2.3224
-1.9697
-1.64889
-1.37305
-1.15418
-0.987364
-4.62311
-5.07254
-5.36097
-5.49135
-5.47589
-5.33609
-5.09978
-4.79498
-4.44902
-4.08618
-3.71979
-3.3615
-3.00905
-2.65856
-2.30632
-1.96301
-1.64476
-1.37795
-1.17121
-4.9846
-5.37852
-5.61574
-5.70548
-5.66355
-5.51216
-5.27807
-4.98677
-4.66296
-4.32917
-3.99711
-3.67861
-3.36958
-3.06099
-2.7369
-2.39485
-2.03936
-1.70484
-1.42775
-5.39656
-5.72779
-5.90729
-5.95122
-5.87895
-5.71302
-5.47877
-5.19882
-4.89507
-4.58838
-4.28935
-4.01204
-3.75478
-3.50999
-3.25419
-2.97033
-2.63063
-2.24351
-1.82356
-5.8772
-6.1329
-6.24809
-6.24331
-6.14031
-5.96121
-5.72888
-5.46282
-5.18175
-4.90429
-4.64057
-4.40649
-4.20632
-4.04243
-3.90017
-3.76767
-3.60138
-3.37734
-3.06676
-6.41064
-6.57927
-6.6142
-6.54489
-6.3951
-6.1863
-5.93775
-5.66601
-5.3862
-5.11266
-4.85479
-4.6251
-4.43028
-4.27829
-4.17058
-4.1153
-4.09987
-4.11317
-4.131
-7.01274
-7.06333
-7.00041
-6.85576
-6.65123
-6.40599
-6.13524
-5.85308
-5.57174
-5.30177
-5.0525
-4.83195
-4.64574
-4.4985
-4.39351
-4.33489
-4.32547
-4.36991
-4.47346
-7.67655
-7.58278
-7.41659
-7.19824
-6.94273
-6.6644
-6.37462
-6.08466
-5.80435
-5.54178
-5.305
-5.09928
-4.92817
-4.793
-4.69346
-4.62552
-4.58474
-4.5637
-4.55531
-8.28535
-8.05505
-7.79221
-7.50457
-7.20041
-6.8891
-6.57873
-6.27756
-5.99306
-5.73125
-5.49806
-5.29711
-5.13011
-4.99691
-4.89603
-4.8234
-4.77471
-4.7444
-4.72702
-8.78061
-8.45148
-8.11336
-7.76997
-7.42609
-7.08765
-6.76019
-6.44948
-6.16111
-5.89942
-5.66878
-5.47176
-5.309
-5.17977
-5.0822
-5.01241
-4.96611
-4.93821
-4.92342
-9.17616
-8.76905
-8.37156
-7.98424
-7.6091
-7.24931
-6.90831
-6.58993
-6.29826
-6.03643
-5.80767
-5.61387
-5.45498
-5.32988
-5.23647
-5.17089
-5.12876
-5.10515
-5.09482
-9.46368
-8.99784
-8.55559
-8.13595
-7.73834
-7.36347
-7.01305
-6.68939
-6.39553
-6.13374
-5.90652
-5.7153
-5.55963
-5.4381
-5.34839
-5.28654
-5.24794
-5.22758
-5.22009
-9.64913
-9.12797
-8.65382
-8.21446
-7.80431
-7.42148
-7.06629
-6.74009
-6.44532
-6.18376
-5.95757
-5.76798
-5.61432
-5.49513
-5.40804
-5.34917
-5.31389
-5.29724
-5.2938
-9.64917
-9.12806
-8.65393
-8.21458
-7.80443
-7.42161
-7.06642
-6.74023
-6.44545
-6.1839
-5.95771
-5.76813
-5.61448
-5.4953
-5.40821
-5.34935
-5.31408
-5.29744
-5.294
-9.46376
-8.99802
-8.55584
-8.13624
-7.73865
-7.3638
-7.0134
-6.68975
-6.39591
-6.13413
-5.90693
-5.71574
-5.56008
-5.43858
-5.3489
-5.28709
-5.24854
-5.22824
-5.22081
-9.17628
-8.76932
-8.37194
-7.98469
-7.6096
-7.24984
-6.90887
-6.59051
-6.29888
-6.03707
-5.80834
-5.61456
-5.45571
-5.33066
-5.23729
-5.17177
-5.12969
-5.10615
-5.0959
-8.78076
-8.45183
-8.11385
-7.77054
-7.42673
-7.08834
-6.76091
-6.45024
-6.1619
-5.90024
-5.66963
-5.47265
-5.30993
-5.18073
-5.08321
-5.01347
-4.96722
-4.93937
-4.92464
-8.28552
-8.05545
-7.79276
-7.50523
-7.20115
-6.8899
-6.57959
-6.27846
-5.994
-5.73224
-5.49908
-5.29817
-5.13121
-4.99805
-4.89721
-4.82462
-4.77596
-4.74569
-4.72837
-7.67674
-7.58321
-7.41718
-7.19896
-6.94355
-6.66529
-6.37557
-6.08567
-5.80541
-5.54288
-5.30615
-5.10047
-4.92939
-4.79423
-4.6947
-4.62674
-4.58592
-4.56482
-4.55636
-7.01295
-7.06382
-7.00115
-6.8567
-6.65235
-6.40728
-6.13668
-5.85466
-5.57348
-5.30366
-5.05455
-4.83417
-4.64815
-4.50109
-4.39628
-4.33769
-4.32809
-4.37194
-4.47431
-6.41077
-6.57936
-6.61432
-6.54505
-6.39531
-6.18655
-5.93802
-5.66628
-5.38645
-5.11284
-4.85485
-4.62497
-4.42988
-4.27752
-4.16942
-4.11384
-4.0986
-4.11302
-4.13348
-5.87726
-6.13318
-6.24859
-6.24407
-6.14135
-5.96255
-5.73052
-5.46474
-5.18393
-4.90671
-4.64322
-4.40938
-4.2095
-4.04605
-3.90453
-3.77322
-3.6087
-3.38694
-3.07894
-5.39658
-5.72783
-5.90745
-5.95154
-5.87947
-5.71376
-5.47972
-5.19997
-4.89641
-4.58988
-4.29102
-4.01389
-3.75688
-3.51246
-3.25718
-2.97392
-2.63468
-2.24751
-1.82657
-4.98461
-5.37852
-5.61584
-5.70574
-5.66402
-5.51286
-5.279
-4.98792
-4.66431
-4.33071
-3.99883
-3.68054
-3.37176
-3.06346
-2.73966
-2.39778
-2.04218
-1.70726
-1.42966
-4.6231
-5.0725
-5.361
-5.49154
-5.47627
-5.3367
-5.10063
-4.79605
-4.4503
-4.08765
-3.72143
-3.36332
-3.01106
-2.66074
-2.30858
-1.9652
-1.64672
-1.37959
-1.17255
-4.28855
-4.80239
-5.14064
-5.30805
-5.31566
-5.18473
-4.94427
-4.6247
-4.25604
-3.86483
-3.46689
-3.07592
-2.69408
-2.32424
-1.9715
-1.65055
-1.37449
-1.15539
-0.988393
-4.02982
-4.58995
-4.96883
-5.16553
-5.1896
-5.06212
-4.8136
-4.47678
-4.08459
-3.66626
-3.24076
-2.82507
-2.42618
-2.05217
-1.71187
-1.4179
-1.17643
-0.989611
-0.847485
-3.85131
-4.43852
-4.8435
-5.05768
-5.08878
-4.95764
-4.69651
-4.34038
-3.92509
-3.48277
-3.03556
-2.60389
-2.19849
-1.83011
-1.50746
-1.23884
-1.02414
-0.859813
-0.733995
-3.75834
-4.36155
-4.77704
-4.99386
-5.01953
-4.87509
-4.59504
-4.21649
-3.77811
-3.31474
-2.85119
-2.41069
-2.00605
-1.64839
-1.34424
-1.09742
-0.903048
-0.754206
-0.637917
-3.76123
-4.36104
-4.76832
-4.97066
-4.97652
-4.80788
-4.50197
-4.09792
-3.63694
-3.15603
-2.68168
-2.23883
-1.84058
-1.49676
-1.21092
-0.982819
-0.803909
-0.664699
-0.550508
-3.85021
-4.42825
-4.81279
-4.98886
-4.96586
-4.76803
-4.43455
-4.00683
-3.52783
-3.03506
-2.55716
-2.11799
-1.73011
-1.40121
-1.13238
-0.918696
-0.749131
-0.60909
-0.476932
-3.97801
-4.51954
-4.86483
-5.00301
-4.94423
-4.71527
-4.35524
-3.90719
-3.41425
-2.91294
-2.4339
-1.99838
-1.61906
-1.301
-1.04444
-0.841917
-0.685389
-0.563833
-0.468915
-4.13548
-4.63759
-4.94974
-5.06386
-4.99063
-4.75686
-4.39888
-3.95788
-3.47434
-2.98233
-2.51263
-2.08425
-1.71011
-1.39532
-1.14172
-0.943496
-0.798591
-0.704241
-0.66781
-4.31189
-4.77471
-5.05128
-5.13686
-5.0441
-4.79988
-4.43903
-4.00071
-3.52325
-3.03869
-2.57675
-2.15534
-1.78724
-1.47782
-1.23024
-1.04061
-0.909624
-0.83571
-0.819996
-4.5025
-4.93028
-5.17126
-5.22754
-5.11437
-4.85867
-4.49385
-4.05726
-3.5852
-3.10778
-2.65365
-2.23964
-1.87846
-1.57578
-1.33594
-1.15595
-1.0375
-0.977812
-0.97451
-4.71689
-5.10737
-5.30996
-5.33565
-5.20088
-4.93211
-4.56155
-4.12506
-3.6572
-3.18629
-2.74001
-2.33408
-1.98111
-1.68691
-1.45663
-1.28743
-1.18136
-1.13449
-1.14308
-4.96661
-5.30272
-5.46424
-5.45848
-5.30044
-5.01629
-4.63762
-4.19927
-3.73441
-3.26964
-2.83173
-2.43522
-2.09246
-1.80918
-1.59105
-1.43485
-1.34295
-1.31059
-1.33348
-5.2081
-5.4969
-5.62251
-5.58616
-5.40349
-5.10197
-4.7134
-4.2721
-3.81003
-3.35212
-2.92423
-2.53954
-2.21007
-1.94117
-1.73886
-1.59922
-1.52511
-1.511
-1.55223
-5.44807
-5.71061
-5.80236
-5.73225
-5.52057
-5.19734
-4.79539
-4.34878
-3.88837
-3.43743
-3.02081
-2.65021
-2.3371
-2.08626
-1.90394
-1.78519
-1.7335
-1.74247
-1.80698
-5.72148
-5.94646
-5.99515
-5.88342
-5.63638
-5.28679
-4.86891
-4.41632
-3.95857
-3.51697
-3.11517
-2.76304
-2.47139
-2.24417
-2.08783
-1.99607
-1.97317
-2.01167
-2.10594
-6.02278
-6.19328
-6.18886
-6.02699
-5.7383
-5.35896
-4.92444
-4.46737
-4.01548
-3.58754
-3.20593
-2.87823
-2.61458
-2.41787
-2.29486
-2.23749
-2.25118
-2.32715
-2.45925
-6.32957
-6.4433
-6.37595
-6.15448
-5.81852
-5.40789
-4.95821
-4.50032
-4.05936
-3.65092
-3.29615
-2.99994
-2.7718
-2.61344
-2.53213
-2.51763
-2.57697
-2.69983
-2.87966
-6.66057
-6.70245
-6.55285
-6.26014
-5.87253
-5.43133
-4.97035
-4.51734
-4.09402
-3.71217
-3.39202
-3.13526
-2.95102
-2.83975
-2.80954
-2.84746
-2.96285
-3.14368
-3.38324
-7.03275
-6.94855
-6.69422
-6.32292
-5.88458
-5.41885
-4.9548
-4.51598
-4.11988
-3.77392
-3.49809
-3.29031
-3.15985
-3.10579
-3.13763
-3.23912
-3.42294
-3.67514
-3.98956
-7.33188
-7.10648
-6.74497
-6.30109
-5.82371
-5.34854
-4.89663
-4.48671
-4.1315
-3.83375
-3.6144
-3.46711
-3.40205
-3.41702
-3.52382
-3.70234
-3.9702
-4.31163
-4.72214
-7.57216
-7.20918
-6.73709
-6.22799
-5.72503
-5.25557
-4.8296
-4.46092
-4.15767
-3.91807
-3.76545
-3.68881
-3.70008
-3.79591
-3.99138
-4.26185
-4.6318
-5.08396
-5.61788
-7.76286
-7.20621
-6.62402
-6.07153
-5.56801
-5.12716
-4.74585
-4.43431
-4.19684
-4.02772
-3.95447
-3.96104
-4.06227
-4.25385
-4.55564
-4.93767
-5.43421
-6.02728
-6.72552
-7.72519
-6.98845
-6.34372
-5.79557
-5.32935
-4.94673
-4.63254
-4.39646
-4.24048
-4.1557
-4.17602
-4.28005
-4.48712
-4.79253
-5.22318
-5.74356
-6.40245
-7.18349
-8.11584
-7.40347
-6.58463
-5.94943
-5.45506
-5.05848
-4.75626
-4.52483
-4.37675
-4.31337
-4.32368
-4.44998
-4.66567
-4.99629
-5.43771
-6.02694
-6.72294
-7.59578
-8.63527
-9.91872
-6.73177
-5.96395
-5.42253
-5.0328
-4.73728
-4.5364
-4.40291
-4.35526
-4.39594
-4.51309
-4.75936
-5.10384
-5.58065
-6.18821
-6.97861
-7.90714
-9.07661
-10.493
-12.3544
-5.71021
-5.15371
-4.78322
-4.53766
-4.3659
-4.2808
-4.25584
-4.31739
-4.47074
-4.70472
-5.08448
-5.5767
-6.22765
-7.04223
-8.09588
-9.34577
-10.9478
-12.9451
-15.8578
-4.42285
-4.19866
-4.04766
-3.96854
-3.93325
-3.97154
-4.06058
-4.23542
-4.50569
-4.86282
-5.38698
-6.046
-6.90391
-7.97978
-9.38732
-11.0996
-13.3651
-16.3081
-21.349
-3.02552
-3.1559
-3.23135
-3.32166
-3.42543
-3.58768
-3.79004
-4.07564
-4.45956
-4.93822
-5.60984
-6.44886
-7.5461
-8.94971
-10.8393
-13.237
-16.5663
-21.1315
-30.927
-1.69121
-2.08447
-2.35071
-2.5958
-2.8324
-3.11284
-3.42102
-3.80627
-4.28886
-4.87294
-5.67804
-6.69122
-8.044
-9.84155
-12.3803
-15.8098
-20.9094
-28.4049
-49.6784
-0.555354
-1.03127
-1.42082
-1.7945
-2.15244
-2.5414
-2.9415
-3.40616
-3.95646
-4.60777
-5.50313
-6.64259
-8.22273
-10.4754
-13.9786
-19.4431
-29.2047
-47.2103
-111.525
)
;

boundaryField
{
    up
    {
        type            calculated;
        value           nonuniform List<scalar> 
84
(
-101.064
-54.7358
-33.5905
-22.9072
-16.8613
-13.0507
-10.4283
-8.50243
-7.02444
-5.85262
-4.90674
-4.13428
-3.49665
-2.96779
-2.52709
-2.15766
-1.84593
-1.58111
-1.35443
-1.15798
-0.984698
-0.825556
-0.661116
-0.420995
-0.407378
-0.516764
-0.60403
-0.696748
-0.804696
-0.937344
-1.1071
-1.32986
-1.67158
-3.03823
-4.24863
-4.54702
-4.54874
-4.71915
-4.91764
-5.09173
-5.21871
-5.29479
-5.29499
-5.21946
-5.09285
-4.91889
-4.72053
-4.54979
-4.54687
-4.25133
-3.05244
-1.67439
-1.33153
-1.10835
-0.938329
-0.80551
-0.697459
-0.604702
-0.517561
-0.407875
-0.420695
-0.661149
-0.825578
-0.984714
-1.15799
-1.35444
-1.58112
-1.84593
-2.15765
-2.52708
-2.96778
-3.49664
-4.13427
-4.90674
-5.85263
-7.02445
-8.50246
-10.4283
-13.0507
-16.8613
-22.9073
-33.5905
-54.7358
-101.064
)
;
    }
    low
    {
        type            calculated;
        value           nonuniform List<scalar> 
84
(
-0.595902
-1.76699
-3.19036
-4.70091
-6.09555
-7.18942
-7.87873
-8.16966
-8.12014
-7.81639
-7.51634
-7.15904
-6.70741
-6.33249
-6.00024
-5.66423
-5.36055
-5.11149
-4.85146
-4.55984
-4.31317
-4.09761
-3.8909
-3.70507
-3.52751
-3.41714
-3.41856
-3.5467
-3.77073
-4.08697
-4.47261
-4.86819
-5.31987
-5.84704
-6.41921
-7.07309
-7.80912
-8.46435
-8.98784
-9.40733
-9.71415
-9.92616
-9.9262
-9.71419
-9.40739
-8.98792
-8.46443
-7.80923
-7.07322
-6.41917
-5.84711
-5.31982
-4.86816
-4.47258
-4.08695
-3.77071
-3.5467
-3.41857
-3.41717
-3.52756
-3.70519
-3.89092
-4.09765
-4.3132
-4.55986
-4.85148
-5.11151
-5.36056
-5.66423
-6.00024
-6.33247
-6.70739
-7.15901
-7.5163
-7.81637
-8.12013
-8.16967
-7.87876
-7.18946
-6.0956
-4.70095
-3.19039
-1.76701
-0.595907
)
;
    }
    left
    {
        type            calculated;
        value           nonuniform List<scalar> 
19
(
-0.54472
-1.01184
-1.40886
-1.7947
-2.16731
-2.5719
-2.9895
-3.47628
-4.05413
-4.7467
-5.70386
-6.93233
-8.65537
-11.1506
-15.0664
-21.2742
-32.4934
-53.4321
-104.823
)
;
    }
    right
    {
        type            calculated;
        value           nonuniform List<scalar> 
19
(
-0.544724
-1.01184
-1.40886
-1.7947
-2.16731
-2.5719
-2.9895
-3.47628
-4.05413
-4.7467
-5.70386
-6.93232
-8.65536
-11.1506
-15.0664
-21.2742
-32.4934
-53.4321
-104.823
)
;
    }
    frontAndBackPlanes
    {
        type            empty;
    }
}


// ************************************************************************* //
