/*--------------------------------*- C++ -*----------------------------------*\
  =========                 |
  \\      /  F ield         | OpenFOAM: The Open Source CFD Toolbox
   \\    /   O peration     | Website:  https://openfoam.org
    \\  /    A nd           | Version:  7
     \\/     M anipulation  |
\*---------------------------------------------------------------------------*/
FoamFile
{
    version     2.0;
    format      ascii;
    class       volScalarField;
    location    "0.07";
    object      gradTx;
}
// * * * * * * * * * * * * * * * * * * * * * * * * * * * * * * * * * * * * * //

dimensions      [0 -1 0 1 0 0 0];

internalField   nonuniform List<scalar> 
1596
(
-0.214385
-1.07338
-1.89018
-2.56835
-3.09016
-3.45381
-3.69286
-3.83314
-3.90352
-3.94218
-3.95844
-3.98896
-4.07326
-4.26685
-4.63356
-5.31001
-6.48693
-8.55379
-12.3029
0.0626716
-0.85019
-1.64048
-2.27865
-2.76979
-3.11746
-3.35148
-3.4906
-3.56056
-3.58674
-3.57609
-3.55077
-3.51963
-3.49737
-3.48937
-3.50235
-3.50037
-3.39337
-2.96715
0.295675
-0.607901
-1.33602
-1.90987
-2.35025
-2.66654
-2.88353
-3.01632
-3.0856
-3.10939
-3.09315
-3.05024
-2.97929
-2.88083
-2.74927
-2.57776
-2.33736
-1.97314
-1.35948
0.351015
-0.424042
-1.03571
-1.51639
-1.88763
-2.15978
-2.35089
-2.47275
-2.54082
-2.5677
-2.55853
-2.52107
-2.45107
-2.34344
-2.1891
-1.97706
-1.68695
-1.28904
-0.715777
0.180962
-0.35541
-0.800592
-1.16215
-1.44871
-1.66578
-1.82323
-1.92881
-1.99274
-2.02306
-2.02473
-2.00187
-1.95023
-1.86301
-1.73053
-1.53994
-1.27549
-0.919548
-0.436494
-0.177783
-0.42587
-0.67584
-0.900615
-1.09073
-1.24321
-1.35941
-1.44221
-1.49669
-1.52676
-1.53658
-1.52784
-1.4971
-1.43769
-1.34074
-1.19277
-0.98007
-0.689063
-0.298864
-0.637574
-0.621261
-0.676848
-0.759458
-0.846583
-0.927087
-0.995031
-1.04818
-1.08676
-1.11088
-1.12306
-1.12313
-1.10841
-1.07308
-1.00971
-0.905454
-0.747797
-0.523944
-0.218493
-1.09965
-0.888248
-0.778489
-0.729427
-0.71584
-0.722176
-0.73787
-0.75633
-0.77362
-0.786484
-0.795151
-0.797883
-0.792236
-0.773428
-0.735555
-0.66741
-0.55784
-0.394323
-0.163145
-1.56388
-1.23803
-0.99858
-0.829216
-0.714248
-0.640077
-0.595347
-0.570748
-0.559071
-0.553985
-0.552815
-0.55207
-0.548794
-0.538786
-0.517368
-0.47538
-0.403335
-0.289526
-0.120928
-1.83768
-1.49065
-1.18802
-0.942236
-0.75353
-0.615468
-0.519606
-0.456453
-0.417306
-0.393953
-0.381313
-0.374457
-0.36967
-0.363029
-0.350731
-0.325703
-0.280388
-0.204769
-0.0871115
-2.06648
-1.72226
-1.38883
-1.09136
-0.844072
-0.650006
-0.506117
-0.40481
-0.337238
-0.29407
-0.268176
-0.253203
-0.244379
-0.237595
-0.229434
-0.214491
-0.186988
-0.138934
-0.0604335
-2.31056
-1.97969
-1.62877
-1.2911
-0.991689
-0.743504
-0.550359
-0.408221
-0.309235
-0.243497
-0.202114
-0.177156
-0.162459
-0.153236
-0.145927
-0.136178
-0.119602
-0.0901696
-0.040098
-2.4025
-2.11653
-1.77942
-1.43214
-1.10749
-0.82661
-0.599821
-0.427509
-0.303947
-0.219739
-0.165244
-0.131513
-0.111321
-0.0992097
-0.0913114
-0.0838868
-0.0735424
-0.0559247
-0.0253463
-2.45841
-2.215
-1.89953
-1.55334
-1.21411
-0.909819
-0.656611
-0.459364
-0.314806
-0.214432
-0.148313
-0.106717
-0.0815079
-0.0665298
-0.0574827
-0.0508581
-0.0438499
-0.0333157
-0.015294
-2.5045
-2.2963
-2.00195
-1.66045
-1.3119
-0.989601
-0.714777
-0.4965
-0.333937
-0.219563
-0.143372
-0.0949809
-0.065447
-0.0479382
-0.0376752
-0.0311325
-0.0257838
-0.0192609
-0.00885484
-2.50276
-2.33266
-2.0627
-1.7317
-1.38132
-1.04892
-0.759847
-0.526825
-0.351267
-0.226641
-0.143069
-0.08972
-0.0570643
-0.0377368
-0.0265619
-0.0199116
-0.0153702
-0.011023
-0.00498341
-2.44455
-2.31324
-2.07143
-1.75693
-1.41244
-1.07836
-0.783269
-0.542817
-0.360286
-0.230043
-0.142445
-0.0864431
-0.0521714
-0.0319477
-0.020357
-0.013698
-0.00960934
-0.0064355
-0.00279097
-2.36238
-2.25814
-2.04228
-1.7461
-1.4117
-1.08141
-0.786303
-0.544196
-0.359745
-0.227959
-0.139385
-0.0828727
-0.0484061
-0.0281732
-0.0166747
-0.0102073
-0.00646906
-0.003966
-0.00160841
-2.30033
-2.21785
-2.02002
-1.73565
-1.40684
-1.07792
-0.782216
-0.539179
-0.35425
-0.222574
-0.134529
-0.0787128
-0.0449272
-0.0252694
-0.014218
-0.0081094
-0.00471014
-0.00264031
-0.000987379
-2.1331
-2.0867
-1.91916
-1.65929
-1.34905
-1.03382
-0.748443
-0.51355
-0.335222
-0.208854
-0.124926
-0.0721463
-0.0404875
-0.0222524
-0.0121171
-0.00659697
-0.0036021
-0.00188043
-0.000653442
-1.92322
-1.90854
-1.77311
-1.54232
-1.25703
-0.962582
-0.694459
-0.473764
-0.306881
-0.189413
-0.112065
-0.0639068
-0.0353341
-0.0190695
-0.0101435
-0.00535258
-0.00280557
-0.00139512
-0.000459755
-1.68189
-1.68971
-1.58488
-1.38657
-1.13251
-0.866234
-0.622504
-0.422025
-0.271146
-0.165735
-0.0969745
-0.0546232
-0.0297881
-0.0158267
-0.0082657
-0.00426674
-0.0021792
-0.00105375
-0.00033706
-1.38791
-1.40909
-1.33461
-1.17567
-0.963759
-0.737581
-0.528976
-0.357091
-0.228043
-0.138344
-0.0802436
-0.0447628
-0.0241508
-0.0126809
-0.00653749
-0.00333009
-0.00168422
-0.000817859
-0.000273146
-1.02989
-1.01433
-0.933633
-0.80086
-0.640884
-0.480034
-0.337768
-0.224103
-0.140808
-0.0840663
-0.0479533
-0.0262735
-0.0138945
-0.00713228
-0.00358508
-0.00178246
-0.000894479
-0.000453196
-0.000175598
-0.690482
-0.748604
-0.759294
-0.711298
-0.61479
-0.492173
-0.367039
-0.256496
-0.16912
-0.105839
-0.0633015
-0.0364723
-0.0203618
-0.0110929
-0.00595063
-0.00318984
-0.0017583
-0.0010524
-0.000706275
-0.229122
-0.247558
-0.260713
-0.259966
-0.242387
-0.210596
-0.170723
-0.129501
-0.0924454
-0.0624503
-0.0401783
-0.0248616
-0.0148858
-0.00869057
-0.00498279
-0.00284467
-0.00166217
-0.00106613
-0.00081359
0.236979
0.219775
0.177947
0.122085
0.0656602
0.0195161
-0.011071
-0.0263672
-0.0302429
-0.0274072
-0.0217547
-0.0159074
-0.0109713
-0.00726732
-0.00466721
-0.00294452
-0.00186395
-0.00126428
-0.000992542
0.693499
0.669701
0.598047
0.491244
0.369755
0.25399
0.158275
0.0883378
0.0427928
0.0163607
0.00294715
-0.00284468
-0.00461422
-0.00455537
-0.00377962
-0.00286067
-0.00204532
-0.00148606
-0.00119072
1.0888
1.04816
0.947137
0.800031
0.630131
0.462331
0.316087
0.201357
0.119378
0.0654923
0.0328134
0.0142908
0.00452378
-0.00021234
-0.00212156
-0.00255086
-0.00225321
-0.00179647
-0.00145749
1.47252
1.40401
1.26858
1.0821
0.869646
0.658196
0.469676
0.316425
0.201634
0.121553
0.0692549
0.0368045
0.0175597
0.00658795
0.000779277
-0.00188841
-0.0025955
-0.00238035
-0.00194234
1.72986
1.633
1.47267
1.26412
1.0312
0.799129
0.58902
0.413546
0.277219
0.177679
0.109041
0.0636632
0.0346265
0.0164281
0.00546699
-0.000675361
-0.00328621
-0.00369778
-0.00306693
1.94332
1.82298
1.63994
1.41301
1.16538
0.91998
0.69598
0.505281
0.352889
0.237498
0.154391
0.0966088
0.0573846
0.0309468
0.0133906
0.00200891
-0.00422066
-0.00643936
-0.00595899
2.11439
1.96403
1.75946
1.51949
1.26483
1.01488
0.785835
0.587899
0.425926
0.299363
0.204709
0.136026
0.0870922
0.0521519
0.0270996
0.0087615
-0.00355554
-0.0102572
-0.0112515
2.18739
1.9964
1.76557
1.51234
1.25413
1.00624
0.781201
0.586742
0.426563
0.300014
0.204004
0.133312
0.0821808
0.0449388
0.0171703
-0.004981
-0.0227072
-0.0362321
-0.043919
2.19687
1.99353
1.76806
1.53271
1.29803
1.07323
0.866298
0.682683
0.52567
0.395793
0.291799
0.210759
0.148747
0.101576
0.0653623
0.0360402
0.010736
-0.0128828
-0.0356592
2.182
1.97485
1.75917
1.5397
1.3222
1.11305
0.918397
0.742876
0.589682
0.459819
0.35282
0.266884
0.199003
0.145996
0.104796
0.0723424
0.0461088
0.0239111
0.00374637
2.00113
1.76756
1.5425
1.32592
1.12069
0.930653
0.759244
0.608662
0.479987
0.372655
0.285207
0.215413
0.16027
0.116897
0.0827056
0.0553496
0.0330468
0.0146476
-0.000752895
1.71101
1.50577
1.31093
1.12598
0.952684
0.793453
0.650445
0.524934
0.417455
0.32735
0.253382
0.193748
0.146045
0.107975
0.077474
0.0526392
0.0319963
0.0145922
-0.000339486
1.39111
1.22358
1.06377
0.912779
0.772259
0.643937
0.529182
0.428685
0.34263
0.270327
0.21073
0.162382
0.12338
0.0919221
0.0664094
0.0453517
0.0276117
0.0124775
-0.000631016
1.03037
0.903572
0.783958
0.672095
0.56881
0.475002
0.39137
0.318206
0.25551
0.202697
0.158992
0.123335
0.0943658
0.0707979
0.0515061
0.035431
0.0217771
0.0100626
-0.00011261
0.641692
0.557503
0.481179
0.411383
0.347758
0.290403
0.239489
0.195045
0.156983
0.124894
0.0982859
0.0765067
0.0587296
0.0441794
0.0321837
0.0221075
0.0134804
0.00602859
-0.000475204
0.244369
0.20949
0.179372
0.152418
0.128123
0.106393
0.0872343
0.0706235
0.0564955
0.0446684
0.0349306
0.0270146
0.0205946
0.0153676
0.0110718
0.00746328
0.00436087
0.00165753
-0.000731486
-0.244252
-0.20922
-0.178997
-0.15198
-0.127656
-0.105924
-0.0867847
-0.0702073
-0.0561213
-0.0443405
-0.0346495
-0.0267783
-0.0204
-0.0152113
-0.0109505
-0.0073744
-0.00430249
-0.00162808
0.000733142
-0.64158
-0.557259
-0.480845
-0.410994
-0.347345
-0.289992
-0.239097
-0.194685
-0.156662
-0.124615
-0.0980491
-0.0763099
-0.0585697
-0.0440532
-0.0320884
-0.0220408
-0.0134407
-0.00601462
0.000464552
-1.03026
-0.903328
-0.783624
-0.671707
-0.568399
-0.474593
-0.390981
-0.31785
-0.255195
-0.202425
-0.158762
-0.123146
-0.0942117
-0.0706753
-0.0514111
-0.0353603
-0.0217279
-0.0100327
0.00012512
-1.39102
-1.22339
-1.06352
-0.912489
-0.771956
-0.643642
-0.528909
-0.428442
-0.342423
-0.270156
-0.210592
-0.162273
-0.123296
-0.0918597
-0.0663649
-0.0453226
-0.0275958
-0.012473
0.000625319
-1.71093
-1.50562
-1.31073
-1.12576
-0.952451
-0.793231
-0.650247
-0.524766
-0.41732
-0.327246
-0.253305
-0.193693
-0.146009
-0.107951
-0.0774609
-0.0526335
-0.0319959
-0.0145949
0.000335842
-2.0011
-1.76748
-1.54237
-1.32577
-1.12055
-0.930529
-0.759147
-0.608598
-0.479953
-0.372647
-0.285218
-0.215435
-0.160299
-0.116928
-0.0827364
-0.0553781
-0.0330708
-0.0146646
0.00074465
-2.18196
-1.97461
-1.75872
-1.53907
-1.32145
-1.11225
-0.917597
-0.742127
-0.589013
-0.459243
-0.352337
-0.266487
-0.198679
-0.14573
-0.104574
-0.0721521
-0.0459458
-0.0237847
-0.0036832
-2.19719
-1.99443
-1.76952
-1.53466
-1.30034
-1.07573
-0.868861
-0.685165
-0.527969
-0.397843
-0.293569
-0.212253
-0.149988
-0.102605
-0.0662282
-0.0367941
-0.011419
0.0122536
0.0351109
-2.18719
-1.99593
-1.76489
-1.51153
-1.25328
-1.0054
-0.780416
-0.58603
-0.425928
-0.299453
-0.203509
-0.132876
-0.0817973
-0.0446004
-0.0168675
0.00526195
0.022995
0.0365813
0.0444084
-2.11448
-1.96429
-1.75988
-1.52006
-1.26553
-1.01564
-0.786596
-0.588613
-0.426556
-0.299888
-0.205129
-0.136352
-0.0873383
-0.0523332
-0.0272262
-0.00883433
0.00353951
0.0102955
0.0113278
-1.94337
-1.82314
-1.64022
-1.41342
-1.1659
-0.920552
-0.696557
-0.505815
-0.353349
-0.237872
-0.15468
-0.0968254
-0.0575436
-0.0310601
-0.0134644
-0.00204167
0.0042297
0.00647543
0.00599035
-1.72992
-1.63317
-1.47297
-1.26456
-1.03173
-0.799707
-0.589583
-0.414047
-0.277634
-0.178002
-0.109282
-0.0638385
-0.0347521
-0.016516
-0.00552315
0.000649735
0.00328875
0.00371625
0.00307581
-1.47258
-1.4042
-1.26892
-1.08257
-0.8702
-0.658771
-0.470213
-0.316883
-0.201996
-0.121823
-0.0694478
-0.0369395
-0.0176531
-0.00665074
-0.000817605
0.00187133
0.00259519
0.00238822
0.00194364
-1.08886
-1.04836
-0.947485
-0.800496
-0.630659
-0.462855
-0.316554
-0.201737
-0.119664
-0.065695
-0.0329519
-0.0143836
-0.00458502
0.000173546
0.00209989
0.00254255
0.00225368
0.00180016
0.001457
-0.693583
-0.669936
-0.59843
-0.491727
-0.37027
-0.254471
-0.158677
-0.0886439
-0.0430087
-0.0165041
-0.00303886
0.00278742
0.00457935
0.00453564
0.00377059
0.00285892
0.00204733
0.00148864
0.00119061
-0.237059
-0.220017
-0.178329
-0.122543
-0.0661173
-0.0199134
0.0107636
0.0261514
0.0301035
0.0273231
0.0217064
0.015881
0.0109579
0.00726204
0.00466699
0.00294706
0.00186715
0.0012668
0.000993325
0.228923
0.246981
0.259849
0.258983
0.241452
0.209819
0.170145
0.129108
0.0921981
0.0623047
0.0400973
0.0248191
0.0148651
0.008682
0.00498054
0.00284525
0.00166341
0.00106712
0.000814302
0.690595
0.749016
0.759982
0.712152
0.615675
0.492971
0.367684
0.256973
0.169448
0.106052
0.0634328
0.0365511
0.0204084
0.0111206
0.00596732
0.00320009
0.00176469
0.00105652
0.000708933
1.02973
1.01381
0.93285
0.799957
0.640005
0.479276
0.337173
0.223671
0.140515
0.083878
0.0478382
0.0262062
0.0138569
0.00711215
0.00357476
0.00177736
0.000891974
0.000451997
0.000175201
1.38798
1.40923
1.33479
1.17586
0.963926
0.737711
0.529066
0.357147
0.228076
0.138363
0.0802534
0.044768
0.0241537
0.0126826
0.00653855
0.00333073
0.00168458
0.000818062
0.000273267
1.6819
1.68972
1.58487
1.38656
1.13249
0.866217
0.622491
0.422017
0.271142
0.165734
0.0969759
0.0546253
0.0297901
0.0158283
0.00826693
0.0042676
0.00217979
0.00105412
0.000337203
1.92323
1.90854
1.77311
1.54231
1.25702
0.962568
0.694447
0.473757
0.306878
0.189413
0.112067
0.0639091
0.0353363
0.0190712
0.0101448
0.00535355
0.00280631
0.00139563
0.000459916
2.1331
2.08671
1.91917
1.65928
1.34904
1.03381
0.748433
0.513543
0.335218
0.208854
0.124927
0.0721481
0.0404893
0.0222541
0.0121186
0.00659826
0.00360325
0.00188128
0.000653713
2.30033
2.21786
2.02003
1.73565
1.40684
1.07792
0.782209
0.539172
0.354246
0.222572
0.134529
0.078714
0.0449288
0.0252711
0.0142199
0.00811138
0.00471212
0.00264182
0.000987847
2.36238
2.25815
2.04229
1.74611
1.4117
1.08141
0.786297
0.54419
0.35974
0.227957
0.139385
0.0828734
0.0484077
0.0281754
0.0166774
0.0102106
0.00647245
0.00396856
0.00160914
2.44455
2.31324
2.07144
1.75693
1.41244
1.07835
0.783263
0.542811
0.360281
0.23004
0.142444
0.086444
0.0521735
0.0319509
0.0203615
0.0137034
0.00961484
0.00643946
0.00279197
2.50276
2.33267
2.0627
1.7317
1.38132
1.04892
0.759845
0.526822
0.351263
0.226639
0.143069
0.0897214
0.0570674
0.0377418
0.0265689
0.0199198
0.0153783
0.0110283
0.00498445
2.5045
2.2963
2.00196
1.66046
1.3119
0.989603
0.714776
0.496497
0.333934
0.219561
0.143372
0.0949831
0.0654517
0.0479457
0.0376853
0.0311439
0.025794
0.0192667
0.00885539
2.45841
2.215
1.89954
1.55335
1.21412
0.909823
0.656613
0.459364
0.314805
0.214432
0.148314
0.106722
0.0815153
0.0665406
0.0574959
0.0508713
0.0438599
0.0333197
0.0152933
2.4025
2.11653
1.77943
1.43216
1.1075
0.826618
0.599825
0.427512
0.303949
0.219742
0.165248
0.13152
0.111332
0.0992227
0.0913252
0.083898
0.0735478
0.0559236
0.0253434
2.31056
1.97969
1.62877
1.2911
0.991693
0.743507
0.55036
0.408223
0.309237
0.2435
0.20212
0.177164
0.16247
0.153248
0.145936
0.13618
0.119596
0.0901598
0.0400929
2.0665
1.72227
1.38884
1.09137
0.844081
0.650013
0.506123
0.404815
0.337243
0.294075
0.268182
0.253211
0.244386
0.237599
0.229431
0.214477
0.186967
0.138915
0.0604276
1.83771
1.49066
1.18803
0.942241
0.753534
0.615473
0.519612
0.456458
0.417311
0.393958
0.381317
0.37446
0.369668
0.363018
0.350708
0.325668
0.28035
0.204744
0.0871078
1.5639
1.23804
0.998584
0.829217
0.714251
0.640081
0.595351
0.570752
0.559074
0.553986
0.552812
0.552061
0.548776
0.538754
0.517323
0.475329
0.40329
0.289504
0.12093
1.09966
0.888254
0.778492
0.72943
0.715844
0.72218
0.737872
0.75633
0.773617
0.786476
0.795137
0.797859
0.792198
0.773377
0.735497
0.667356
0.557804
0.394315
0.163154
0.637586
0.621269
0.676856
0.759466
0.84659
0.927091
0.995031
1.04818
1.08675
1.11086
1.12303
1.1231
1.10836
1.07303
1.00966
0.905418
0.747789
0.523958
0.218507
0.177791
0.425881
0.675856
0.900629
1.09073
1.24321
1.35941
1.4422
1.49668
1.52674
1.53655
1.5278
1.49705
1.43765
1.34071
1.19277
0.980098
0.689097
0.298877
-0.180958
0.355426
0.800612
1.16216
1.44872
1.66578
1.82323
1.92879
1.99272
2.02304
2.0247
2.00184
1.9502
1.86299
1.73054
1.53998
1.27555
0.919589
0.4365
-0.351014
0.424057
1.03572
1.5164
1.88763
2.15977
2.35088
2.47274
2.5408
2.56768
2.55851
2.52105
2.45106
2.34346
2.18915
1.97713
1.68701
1.28906
0.71577
-0.295676
0.607907
1.33602
1.90987
2.35024
2.66653
2.88352
3.01631
3.08559
3.10938
3.09315
3.05025
2.97932
2.88089
2.74933
2.57782
2.33739
1.97314
1.35947
-0.0626698
0.850184
1.64046
2.27863
2.76977
3.11745
3.35147
3.4906
3.56056
3.58675
3.57611
3.5508
3.51968
3.49742
3.48941
3.50236
3.50035
3.39334
2.96713
0.214389
1.07338
1.89016
2.56832
3.09014
3.45379
3.69285
3.83314
3.90354
3.9422
3.95847
3.98899
4.07329
4.26686
4.63354
5.30996
6.48688
8.55377
12.3029
)
;

boundaryField
{
    up
    {
        type            calculated;
        value           nonuniform List<scalar> 
84
(
-12.3029
-2.96715
-1.35948
-0.715777
-0.436494
-0.298864
-0.218493
-0.163145
-0.120928
-0.0871115
-0.0604335
-0.040098
-0.0253463
-0.015294
-0.00885484
-0.00498341
-0.00279097
-0.00160841
-0.000987379
-0.000653442
-0.000459755
-0.00033706
-0.000273146
-0.000175598
-0.000562015
-0.000708748
-0.00087663
-0.00104407
-0.00123037
-0.00151848
-0.00215893
-0.00372027
-0.00639441
-0.0392801
-0.0349544
0.00381658
-0.000610758
-0.000241579
-0.000566356
-7.95724e-05
-0.000457374
-0.000724177
0.000725891
0.000446903
9.21952e-05
0.000561016
0.000238356
0.000602957
-0.00375421
0.0344304
0.0398505
0.00646284
0.00372536
0.00214883
0.00150881
0.00122421
0.00104126
0.000876253
0.000709497
0.000563987
0.000175201
0.000273267
0.000337203
0.000459916
0.000653713
0.000987847
0.00160914
0.00279197
0.00498445
0.00885539
0.0152933
0.0253434
0.0400929
0.0604276
0.0871078
0.12093
0.163154
0.218507
0.298877
0.4365
0.71577
1.35947
2.96713
12.3029
)
;
    }
    low
    {
        type            calculated;
        value           nonuniform List<scalar> 
84
(
-0.19189
0.0977738
0.34982
0.406924
0.214278
-0.183616
-0.683126
-1.17296
-1.64701
-1.90726
-2.13162
-2.37031
-2.44202
-2.4877
-2.5292
-2.51666
-2.44804
-2.36434
-2.29475
-2.10855
-1.88575
-1.63634
-1.33613
-0.979334
-0.646303
-0.212227
0.217496
0.646752
1.03329
1.42467
1.69989
1.92655
2.1131
2.20305
2.22405
2.22254
2.0543
1.76207
1.43398
1.06306
0.662741
0.252992
-0.252874
-0.662626
-1.06293
-1.43387
-1.76198
-2.05425
-2.22248
-2.22432
-2.20286
-2.11317
-1.92659
-1.69994
-1.42473
-1.03335
-0.646839
-0.217576
0.212031
0.64641
0.979182
1.33618
1.63635
1.88575
2.10854
2.29476
2.36434
2.44804
2.51666
2.5292
2.4877
2.44202
2.37031
2.13163
1.90728
1.64702
1.17297
0.683138
0.183624
-0.214272
-0.406926
-0.349828
-0.0977809
0.191891
)
;
    }
    left
    {
        type            calculated;
        value           nonuniform List<scalar> 
19
(
-0.194954
-1.04465
-1.88699
-2.59622
-3.14623
-3.5305
-3.78412
-3.93574
-4.01392
-4.06421
-4.09538
-4.14676
-4.26934
-4.53432
-5.0192
-5.9096
-7.46673
-10.2319
-10.665
)
;
    }
    right
    {
        type            calculated;
        value           nonuniform List<scalar> 
19
(
0.194959
1.04465
1.88698
2.5962
3.14621
3.53049
3.78411
3.93574
4.01393
4.06423
4.0954
4.14678
4.26936
4.5343
5.01915
5.90953
7.46667
10.2318
10.665
)
;
    }
    frontAndBackPlanes
    {
        type            empty;
    }
}


// ************************************************************************* //
