/*--------------------------------*- C++ -*----------------------------------*\
  =========                 |
  \\      /  F ield         | OpenFOAM: The Open Source CFD Toolbox
   \\    /   O peration     | Website:  https://openfoam.org
    \\  /    A nd           | Version:  7
     \\/     M anipulation  |
\*---------------------------------------------------------------------------*/
FoamFile
{
    version     2.0;
    format      ascii;
    class       volScalarField;
    location    "0.118";
    object      gradTx;
}
// * * * * * * * * * * * * * * * * * * * * * * * * * * * * * * * * * * * * * //

dimensions      [0 -1 0 1 0 0 0];

internalField   nonuniform List<scalar> 
1596
(
-0.353967
-1.77378
-3.15249
-4.34962
-5.34107
-6.1148
-6.71119
-7.15851
-7.49755
-7.79911
-8.08854
-8.44893
-8.97132
-9.77707
-11.0008
-12.9498
-16.0777
-21.35
-30.7593
0.0873029
-1.45013
-2.8011
-3.93396
-4.86364
-5.58957
-6.14915
-6.55876
-6.85119
-7.06751
-7.22059
-7.35975
-7.51036
-7.70625
-7.95192
-8.24279
-8.46442
-8.36637
-7.40018
0.45381
-1.12874
-2.41425
-3.45821
-4.30441
-4.96521
-5.47333
-5.84085
-6.09145
-6.24998
-6.32201
-6.33627
-6.2966
-6.21104
-6.0695
-5.84868
-5.46095
-4.74274
-3.35448
0.527005
-0.916028
-2.05522
-2.97001
-3.70861
-4.28875
-4.73581
-5.0595
-5.27591
-5.39942
-5.43278
-5.39126
-5.27159
-5.07211
-4.78208
-4.38108
-3.81576
-2.99469
-1.72371
0.21459
-0.88579
-1.78831
-2.52934
-3.13581
-3.62021
-3.99761
-4.27477
-4.46125
-4.56392
-4.58476
-4.52981
-4.39366
-4.17048
-3.85119
-3.41922
-2.84435
-2.0786
-1.01673
-0.441079
-1.06974
-1.66628
-2.19476
-2.64638
-3.01985
-3.31785
-3.5426
-3.69773
-3.78425
-3.80364
-3.75554
-3.6338
-3.43035
-3.13714
-2.73926
-2.21898
-1.55073
-0.678843
-1.30033
-1.44982
-1.71445
-2.00704
-2.28647
-2.5349
-2.74271
-2.90622
-3.02352
-3.09087
-3.10868
-3.07218
-2.97476
-2.80693
-2.56081
-2.22167
-1.77738
-1.21241
-0.496562
-2.18414
-1.94393
-1.90277
-1.96232
-2.06542
-2.18162
-2.29175
-2.38609
-2.45791
-2.49964
-2.50996
-2.48121
-2.40629
-2.27488
-2.07885
-1.80325
-1.43788
-0.970843
-0.383915
-3.08694
-2.5914
-2.29277
-2.12751
-2.04586
-2.01463
-2.01041
-2.01896
-2.02973
-2.03208
-2.02217
-1.99031
-1.92844
-1.82563
-1.67313
-1.45578
-1.16341
-0.784632
-0.305702
-3.62335
-3.05185
-2.61189
-2.29282
-2.0694
-1.91648
-1.81302
-1.74362
-1.69609
-1.65828
-1.62428
-1.58348
-1.52715
-1.44435
-1.32608
-1.15774
-0.929065
-0.628639
-0.244327
-4.06708
-3.47563
-2.95793
-2.52968
-2.18983
-1.92708
-1.72782
-1.57901
-1.4689
-1.38509
-1.31998
-1.26247
-1.20313
-1.13102
-1.03694
-0.907066
-0.731013
-0.497258
-0.194071
-4.53215
-3.95295
-3.39048
-2.87874
-2.43633
-2.06757
-1.76945
-1.53445
-1.35336
-1.21461
-1.10949
-1.02639
-0.954928
-0.883898
-0.803693
-0.701232
-0.566117
-0.386898
-0.151949
-4.68722
-4.18865
-3.6466
-3.11246
-2.6198
-2.18661
-1.82049
-1.52115
-1.28367
-1.09888
-0.958394
-0.850842
-0.765523
-0.691266
-0.618376
-0.534756
-0.430442
-0.294655
-0.116375
-4.76337
-4.34713
-3.84774
-3.3177
-2.79935
-2.32196
-1.90289
-1.54967
-1.26257
-1.0356
-0.861498
-0.729465
-0.628641
-0.547845
-0.477253
-0.405574
-0.323344
-0.220639
-0.0873615
-4.81228
-4.46787
-4.0161
-3.50344
-2.97476
-2.46727
-2.00665
-1.60807
-1.27734
-1.01209
-0.806719
-0.651154
-0.534468
-0.445359
-0.373769
-0.308934
-0.241815
-0.163345
-0.0644674
-4.76129
-4.49407
-4.09866
-3.61848
-3.09806
-2.57928
-2.09405
-1.66427
-1.30113
-1.00604
-0.775545
-0.600549
-0.470297
-0.373436
-0.299707
-0.2387
-0.181737
-0.12053
-0.04706
-4.59792
-4.40666
-4.07442
-3.63959
-3.14456
-2.63319
-2.14149
-1.69666
-1.31465
-1.00054
-0.753203
-0.564788
-0.424979
-0.322533
-0.247118
-0.188601
-0.138623
-0.0895595
-0.0343207
-4.38821
-4.24821
-3.97335
-3.58727
-3.1266
-2.63456
-2.14938
-1.70204
-1.31238
-0.988712
-0.732147
-0.536118
-0.39089
-0.28545
-0.209488
-0.153106
-0.108216
-0.0677239
-0.0253009
-4.2165
-4.11714
-3.88511
-3.53682
-3.10377
-2.62794
-2.149
-1.70081
-1.30629
-0.976342
-0.713812
-0.513104
-0.364829
-0.258047
-0.182374
-0.127999
-0.086985
-0.0526025
-0.0190768
-3.85399
-3.81355
-3.63807
-3.34382
-2.95818
-2.52022
-2.06921
-1.64021
-1.25827
-0.936412
-0.679196
-0.48227
-0.336997
-0.232933
-0.159994
-0.108704
-0.0714339
-0.0418639
-0.0147455
-3.42597
-3.43339
-3.31148
-3.07231
-2.7393
-2.34792
-1.93574
-1.53754
-1.17926
-0.875282
-0.63142
-0.444518
-0.306825
-0.208623
-0.140379
-0.0931403
-0.0596937
-0.0341383
-0.0117209
-2.95677
-2.99486
-2.91842
-2.73214
-2.4544
-2.11616
-1.752
-1.39493
-1.07051
-0.793532
-0.570552
-0.399486
-0.273577
-0.184086
-0.122317
-0.0800806
-0.0507222
-0.028747
-0.0097397
-2.41192
-2.46447
-2.42657
-2.29436
-2.07934
-1.80602
-1.50406
-1.20275
-0.925742
-0.68734
-0.494378
-0.345918
-0.23648
-0.158735
-0.105273
-0.0690721
-0.0443141
-0.0259834
-0.0095466
-1.77437
-1.75374
-1.67117
-1.53085
-1.34685
-1.13848
-0.925481
-0.724472
-0.547446
-0.400293
-0.28442
-0.197348
-0.134365
-0.0903112
-0.0604421
-0.0405914
-0.0273201
-0.017437
-0.00746671
-1.18675
-1.30548
-1.39585
-1.42841
-1.39121
-1.28819
-1.13571
-0.955685
-0.770662
-0.598072
-0.448953
-0.328136
-0.234677
-0.165378
-0.115949
-0.0820918
-0.0596815
-0.0450708
-0.0343029
-0.396605
-0.440928
-0.490793
-0.530627
-0.549715
-0.542786
-0.510723
-0.458504
-0.39449
-0.326977
-0.262524
-0.205988
-0.15859
-0.120454
-0.0907803
-0.0688771
-0.0535536
-0.04389
-0.0384434
0.397147
0.34964
0.270206
0.172641
0.072234
-0.0174556
-0.0872389
-0.133047
-0.156304
-0.161629
-0.154507
-0.140805
-0.123774
-0.10579
-0.0882393
-0.0727699
-0.0602554
-0.051564
-0.0463665
1.18161
1.11776
1.00132
0.846783
0.672441
0.497201
0.337135
0.202838
0.0984459
0.022773
-0.0281548
-0.0602911
-0.0779618
-0.0847861
-0.0833708
-0.0770794
-0.0687194
-0.0613142
-0.0560595
1.87585
1.77923
1.62001
1.41427
1.18107
0.941092
0.713217
0.511132
0.342233
0.207791
0.105405
0.029705
-0.0237176
-0.0585415
-0.0771459
-0.083277
-0.0808042
-0.0750433
-0.0693506
2.57275
2.42953
2.21899
1.95793
1.66648
1.36653
1.07828
0.816735
0.590916
0.403435
0.252908
0.134315
0.0431797
-0.0239388
-0.068219
-0.0922488
-0.0992028
-0.0961329
-0.0893715
3.06913
2.87495
2.62009
2.32036
1.99506
1.66408
1.34566
1.0532
0.795363
0.574951
0.391287
0.239771
0.11602
0.0168774
-0.0570716
-0.105665
-0.128224
-0.130804
-0.122035
3.50655
3.2701
2.97266
2.63639
2.28126
1.92526
1.58422
1.26943
0.988412
0.74353
0.534299
0.356068
0.203849
0.0734887
-0.0341067
-0.116704
-0.167196
-0.185512
-0.17858
3.88291
3.59068
3.24911
2.8808
2.5038
2.13275
1.78012
1.45439
1.1614
0.902696
0.67785
0.482285
0.310299
0.155699
0.0172202
-0.10488
-0.198888
-0.254537
-0.261705
4.0854
3.71173
3.30833
2.89582
2.48909
2.09908
1.73474
1.40168
1.10372
0.841142
0.612639
0.413421
0.236958
0.0746993
-0.079268
-0.2315
-0.376131
-0.502394
-0.588066
4.16955
3.76817
3.36755
2.98039
2.61202
2.26521
1.9423
1.64461
1.3735
1.12911
0.91118
0.717919
0.546055
0.390741
0.246393
0.103271
-0.0459395
-0.208586
-0.385282
4.20343
3.79458
3.41086
3.05025
2.71003
2.38909
2.08757
1.80616
1.54623
1.30842
1.09326
0.900643
0.728938
0.576316
0.440933
0.319624
0.209244
0.105267
0.00103249
3.90178
3.43764
3.02526
2.65276
2.3134
2.00374
1.72178
1.46612
1.23597
1.02982
0.846336
0.683916
0.539907
0.412026
0.298595
0.197975
0.109431
0.0333223
-0.0306513
3.36757
2.95634
2.59522
2.27259
1.98162
1.71827
1.47987
1.26443
1.07069
0.896962
0.741911
0.604119
0.481377
0.371813
0.274015
0.186451
0.108096
0.0387627
-0.0221718
2.75769
2.42026
2.12163
1.85517
1.616
1.40071
1.20675
1.03211
0.875401
0.734978
0.609578
0.497912
0.398115
0.30862
0.22828
0.155834
0.0904822
0.032163
-0.0195515
2.05303
1.79673
1.57172
1.3726
1.19514
1.03626
0.893668
0.76557
0.650734
0.547782
0.455716
0.373532
0.299842
0.233501
0.173715
0.119597
0.0706398
0.0268957
-0.0118833
1.28279
1.1123
0.967818
0.842615
0.732415
0.634505
0.547052
0.468714
0.398595
0.33575
0.279514
0.229233
0.184031
0.143196
0.106246
0.0726469
0.0421126
0.0147258
-0.00961393
0.489612
0.419355
0.362309
0.313733
0.271299
0.233767
0.200391
0.170653
0.144202
0.120665
0.0997622
0.0812064
0.0646319
0.0497271
0.0362633
0.0239977
0.0127824
0.00261185
-0.00656394
-0.489378
-0.418817
-0.361557
-0.312838
-0.270317
-0.232744
-0.199364
-0.169652
-0.14325
-0.11978
-0.0989576
-0.0804913
-0.0640133
-0.0492103
-0.0358517
-0.0236941
-0.0125883
-0.00252633
0.00654335
-1.28256
-1.11181
-0.967147
-0.841819
-0.731546
-0.633603
-0.546151
-0.467841
-0.397771
-0.33499
-0.278831
-0.228633
-0.183523
-0.142783
-0.105932
-0.0724348
-0.0420036
-0.0147188
0.009522
-2.0528
-1.79625
-1.57105
-1.3718
-1.19427
-1.03534
-0.89275
-0.764676
-0.649887
-0.546996
-0.455004
-0.3729
-0.299295
-0.233042
-0.173342
-0.11931
-0.0704358
-0.0267707
0.0119347
-2.75751
-2.4199
-2.12113
-1.85458
-1.61536
-1.40004
-1.20609
-1.03147
-0.874807
-0.73444
-0.609104
-0.497505
-0.397779
-0.308355
-0.228086
-0.155708
-0.0904222
-0.0321646
0.0194929
-3.36744
-2.95607
-2.59485
-2.27214
-1.98112
-1.71775
-1.47935
-1.26394
-1.07023
-0.896559
-0.741564
-0.60383
-0.481147
-0.371641
-0.273898
-0.186385
-0.108075
-0.0387779
0.0221312
-3.90174
-3.43751
-3.02504
-2.65248
-2.31308
-2.00341
-1.72146
-1.46584
-1.23573
-1.02964
-0.846205
-0.683838
-0.53988
-0.412047
-0.298661
-0.198076
-0.109552
-0.0334398
0.0305621
-4.20337
-3.79414
-3.40997
-3.04893
-2.70834
-2.38711
-2.0854
-1.8039
-1.54395
-1.3062
-1.09113
-0.898641
-0.727062
-0.574557
-0.439278
-0.318081
-0.207865
-0.104196
-0.000528973
-4.17022
-3.76999
-3.37052
-2.98443
-2.61696
-2.27085
-1.94842
-1.651
-1.37997
-1.1355
-0.91739
-0.723895
-0.551797
-0.396313
-0.251908
-0.108894
0.0400746
0.202463
0.379158
-4.08505
-3.71084
-3.3069
-2.89394
-2.48686
-2.09661
-1.73215
-1.39906
-1.10113
-0.83865
-0.610271
-0.411195
-0.234879
-0.0727618
0.0811033
0.233328
0.378171
0.505022
0.59178
-3.88313
-3.59121
-3.24994
-2.88187
-2.50505
-2.13413
-1.78158
-1.45585
-1.16282
-0.904032
-0.679077
-0.483389
-0.311275
-0.156532
-0.0178708
0.104495
0.198864
0.254925
0.262405
-3.50668
-3.27043
-2.97319
-2.63709
-2.28211
-1.92621
-1.58523
-1.27045
-0.989401
-0.744447
-0.535118
-0.356775
-0.204432
-0.0739251
0.0338562
0.11669
0.16744
0.18595
0.179086
-3.06927
-2.8753
-2.62066
-2.32111
-1.99596
-1.66508
-1.3467
-1.05423
-0.796321
-0.575807
-0.392019
-0.240371
-0.11648
-0.0171857
0.0569318
0.105706
0.128427
0.131104
0.122334
-2.57289
-2.42989
-2.21959
-1.95873
-1.66744
-1.36757
-1.07934
-0.817747
-0.591831
-0.404221
-0.253552
-0.134815
-0.0435394
0.023719
0.0681369
0.0922937
0.099345
0.0963254
0.0895593
-1.87599
-1.77959
-1.62061
-1.41507
-1.18201
-0.942092
-0.714208
-0.51205
-0.343033
-0.208451
-0.105922
-0.0300858
0.0234622
0.0584012
0.0771083
0.0833236
0.0809078
0.0751737
0.069477
-1.18176
-1.11817
-1.00197
-0.847628
-0.673407
-0.498202
-0.33809
-0.203685
-0.0991508
-0.0233247
0.0277475
0.0600113
0.0777907
0.0847067
0.0833654
0.0771285
0.0688018
0.061411
0.0561533
-0.397287
-0.350041
-0.270852
-0.17347
-0.0731564
0.0165338
0.0863975
0.132338
0.155748
0.161223
0.154232
0.140636
0.123689
0.10577
0.0882658
0.0728272
0.0603292
0.0516445
0.0464458
0.396263
0.439913
0.48915
0.528524
0.547387
0.540472
0.508617
0.456723
0.393077
0.325919
0.26177
0.205478
0.158264
0.120262
0.090679
0.0688347
0.0535468
0.0439084
0.0384912
1.18696
1.3063
1.39732
1.43045
1.39364
1.29077
1.13823
0.957978
0.772628
0.599675
0.450206
0.329086
0.235382
0.165896
0.116332
0.0823814
0.0599088
0.0452577
0.03446
1.7741
1.75283
1.66968
1.52894
1.34473
1.13636
0.923517
0.722771
0.54605
0.399199
0.283594
0.196745
0.133938
0.090019
0.0602478
0.0404667
0.0272437
0.0173949
0.00745197
2.41205
2.46473
2.42694
2.29479
2.07979
1.80643
1.5044
1.203
0.925915
0.687446
0.494435
0.345943
0.236487
0.158734
0.10527
0.0690694
0.0443126
0.0259834
0.00954792
2.95678
2.99487
2.91843
2.73215
2.4544
2.11614
1.75197
1.3949
1.07048
0.7935
0.570525
0.399465
0.273562
0.184078
0.122314
0.0800805
0.050724
0.0287494
0.00974128
3.42598
3.4334
3.31149
3.07231
2.73929
2.34791
1.93572
1.53751
1.17923
0.875258
0.631401
0.444506
0.306818
0.208621
0.140381
0.0931444
0.0596983
0.0341419
0.0117222
3.85399
3.81356
3.63807
3.34382
2.95818
2.52021
2.06919
1.64019
1.25825
0.936394
0.679183
0.482263
0.336995
0.232935
0.16
0.108711
0.0714405
0.0418685
0.0147469
4.21651
4.11715
3.88512
3.53683
3.10378
2.62794
2.14899
1.70079
1.30628
0.976329
0.713804
0.513101
0.364831
0.258053
0.182383
0.128008
0.0869932
0.0526078
0.0190782
4.38822
4.24822
3.97336
3.58728
3.1266
2.63456
2.14937
1.70203
1.31237
0.988703
0.732142
0.536118
0.390894
0.285458
0.209499
0.153117
0.108225
0.0677293
0.0253021
4.59793
4.40666
4.07443
3.6396
3.14456
2.63319
2.14148
1.69665
1.31464
1.00053
0.753202
0.564792
0.424986
0.322544
0.24713
0.188613
0.138632
0.089564
0.0343213
4.7613
4.49408
4.09868
3.61849
3.09807
2.57928
2.09405
1.66427
1.30112
1.00604
0.775547
0.600555
0.470307
0.373448
0.299719
0.238709
0.181743
0.120531
0.0470595
4.81228
4.46787
4.01611
3.50345
2.97476
2.46727
2.00664
1.60807
1.27733
1.01209
0.806723
0.651161
0.534477
0.445369
0.373777
0.308938
0.241815
0.163342
0.0644654
4.76338
4.34714
3.84776
3.31771
2.79936
2.32196
1.9029
1.54967
1.26257
1.0356
0.861504
0.729472
0.628648
0.54785
0.477253
0.405569
0.323334
0.22063
0.0873581
4.68723
4.18867
3.64662
3.11248
2.61981
2.18662
1.8205
1.52115
1.28368
1.09889
0.958399
0.850846
0.765524
0.691261
0.618363
0.534737
0.430422
0.29464
0.116371
4.53214
3.95295
3.39048
2.87874
2.43632
2.06757
1.76945
1.53445
1.35336
1.2146
1.10949
1.02638
0.954915
0.883877
0.803664
0.7012
0.566087
0.386879
0.151946
4.0671
3.47565
2.95795
2.5297
2.18983
1.92708
1.72783
1.57901
1.4689
1.38508
1.31997
1.26246
1.20311
1.13099
1.0369
0.907024
0.73098
0.497241
0.19407
3.62339
3.05187
2.61191
2.29283
2.0694
1.91648
1.81302
1.74362
1.69608
1.65827
1.62426
1.58345
1.52711
1.4443
1.32603
1.1577
0.929037
0.62863
0.24433
3.08698
2.59142
2.29278
2.12751
2.04587
2.01464
2.01041
2.01895
2.02972
2.03206
2.02213
1.99026
1.92839
1.82557
1.67308
1.45574
1.1634
0.784635
0.305709
2.18416
1.94394
1.90278
1.96233
2.06542
2.18162
2.29175
2.38608
2.45789
2.49961
2.50991
2.48116
2.40624
2.27483
2.07882
1.80324
1.43789
0.970858
0.383923
1.30034
1.44983
1.71447
2.00706
2.28648
2.53491
2.74271
2.9062
3.0235
3.09084
3.10864
3.07213
2.97472
2.80691
2.56081
2.22168
1.77741
1.21244
0.496569
0.441092
1.06976
1.6663
2.19478
2.64639
3.01985
3.31785
3.54258
3.69771
3.78422
3.80361
3.75551
3.63378
3.43035
3.13716
2.73929
2.21902
1.55076
0.678845
-0.214582
0.885809
1.78833
2.52935
3.13582
3.62021
3.9976
4.27475
4.46123
4.5639
4.58474
4.5298
4.39367
4.17051
3.85123
3.41927
2.84439
2.07862
1.01672
-0.527004
0.916043
2.05524
2.97002
3.70862
4.28874
4.73579
5.05948
5.27589
5.39941
5.43278
5.39128
5.27162
5.07215
4.78213
4.38113
3.81578
2.99469
1.7237
-0.453812
1.12874
2.41425
3.45821
4.3044
4.9652
5.47332
5.84084
6.09144
6.24998
6.32204
6.3363
6.29664
6.21109
6.06953
5.8487
5.46094
4.74272
3.35447
-0.0873017
1.45013
2.80108
3.93394
4.86362
5.58956
6.14915
6.55876
6.85121
7.06754
7.22063
7.3598
7.5104
7.70628
7.95193
8.24278
8.46439
8.36634
7.40017
0.353972
1.77378
3.15248
4.3496
5.34105
6.11479
6.71119
7.15852
7.49757
7.79914
8.08857
8.44895
8.97133
9.77705
11.0008
12.9497
16.0777
21.3499
30.7593
)
;

boundaryField
{
    up
    {
        type            calculated;
        value           nonuniform List<scalar> 
84
(
-30.7593
-7.40018
-3.35448
-1.72371
-1.01673
-0.678843
-0.496562
-0.383915
-0.305702
-0.244327
-0.194071
-0.151949
-0.116375
-0.0873615
-0.0644674
-0.04706
-0.0343207
-0.0253009
-0.0190768
-0.0147455
-0.0117209
-0.0097397
-0.0095466
-0.00746671
-0.0285485
-0.0347715
-0.0421686
-0.0507829
-0.062247
-0.0792468
-0.1065
-0.15098
-0.213847
-0.560288
-0.390109
0.00075543
-0.0301645
-0.021858
-0.0193664
-0.0118024
-0.00957691
-0.00655277
0.00653228
0.00948546
0.0118542
0.019309
0.021819
0.0300772
-0.000261597
0.383974
0.564608
0.214498
0.151384
0.106736
0.0793949
0.0623481
0.0508606
0.042238
0.0348302
0.0286825
0.00745197
0.00954792
0.00974128
0.0117222
0.0147469
0.0190782
0.0253021
0.0343213
0.0470595
0.0644654
0.0873581
0.116371
0.151946
0.19407
0.24433
0.305709
0.383923
0.496569
0.678845
1.01672
1.7237
3.35447
7.40017
30.7593
)
;
    }
    low
    {
        type            calculated;
        value           nonuniform List<scalar> 
84
(
-0.31809
0.142395
0.541183
0.620073
0.271864
-0.451438
-1.38368
-2.32134
-3.24362
-3.75224
-4.18311
-4.63153
-4.74123
-4.79193
-4.82661
-4.75036
-4.56371
-4.34815
-4.15972
-3.76278
-3.31417
-2.83548
-2.28687
-1.66036
-1.09418
-0.362527
0.35822
1.0863
1.75738
2.4608
2.98556
3.44589
3.8519
4.08954
4.19972
4.26339
3.99112
3.45743
2.835
2.11296
1.3218
0.505731
-0.505495
-1.32157
-2.11272
-2.8348
-3.45726
-3.99104
-4.26329
-4.20028
-4.0892
-3.85206
-3.446
-2.98569
-2.46095
-1.75751
-1.08646
-0.358362
0.362193
1.09439
1.66011
2.28698
2.83549
3.31418
3.76278
4.15972
4.34816
4.56371
4.75037
4.82662
4.79194
4.74125
4.63152
4.18313
3.75227
3.24365
2.32137
1.3837
0.451452
-0.271856
-0.620075
-0.541194
-0.142403
0.318092
)
;
    }
    left
    {
        type            calculated;
        value           nonuniform List<scalar> 
19
(
-0.317061
-1.71165
-3.12403
-4.36751
-5.4054
-6.2175
-6.84624
-7.32401
-7.69101
-8.03332
-8.37631
-8.81079
-9.45251
-10.4584
-11.9941
-14.4857
-18.5611
-25.5681
-26.6736
)
;
    }
    right
    {
        type            calculated;
        value           nonuniform List<scalar> 
19
(
0.317066
1.71165
3.12403
4.3675
5.40539
6.21749
6.84624
7.32402
7.69102
8.03334
8.37633
8.8108
9.4525
10.4584
11.994
14.4857
18.561
25.5681
26.6736
)
;
    }
    frontAndBackPlanes
    {
        type            empty;
    }
}


// ************************************************************************* //
