/*--------------------------------*- C++ -*----------------------------------*\
  =========                 |
  \\      /  F ield         | OpenFOAM: The Open Source CFD Toolbox
   \\    /   O peration     | Website:  https://openfoam.org
    \\  /    A nd           | Version:  7
     \\/     M anipulation  |
\*---------------------------------------------------------------------------*/
FoamFile
{
    version     2.0;
    format      ascii;
    class       volScalarField;
    location    "0.198";
    object      gradTy;
}
// * * * * * * * * * * * * * * * * * * * * * * * * * * * * * * * * * * * * * //

dimensions      [0 -1 0 1 0 0 0];

internalField   nonuniform List<scalar> 
1596
(
-0.203662
-0.377519
-0.518441
-0.65169
-0.776819
-0.91033
-1.04453
-1.19808
-1.37785
-1.58877
-1.88007
-2.25107
-2.76861
-3.51065
-4.67091
-6.48654
-9.73686
-15.7371
-37.1751
-0.61951
-0.761569
-0.8548
-0.937621
-1.01452
-1.10438
-1.20123
-1.32262
-1.47546
-1.66102
-1.92083
-2.24989
-2.69313
-3.28586
-4.12764
-5.26786
-6.9668
-9.46578
-16.5583
-1.1065
-1.15079
-1.17187
-1.19521
-1.22047
-1.26414
-1.31975
-1.40286
-1.51883
-1.66638
-1.87998
-2.15043
-2.50898
-2.97171
-3.59912
-4.39777
-5.50922
-7.03398
-10.303
-1.61413
-1.52787
-1.46446
-1.42375
-1.396
-1.39237
-1.405
-1.44674
-1.52121
-1.6255
-1.788
-1.99735
-2.27578
-2.62961
-3.09735
-3.66896
-4.42782
-5.41415
-7.1008
-2.0788
-1.87136
-1.72701
-1.62428
-1.54539
-1.49554
-1.46577
-1.46589
-1.49813
-1.55876
-1.67103
-1.82326
-2.0317
-2.29791
-2.64771
-3.06568
-3.60444
-4.27708
-5.25641
-2.44416
-2.16083
-1.95427
-1.79858
-1.67404
-1.58151
-1.51194
-1.47241
-1.46422
-1.48347
-1.54907
-1.65027
-1.79916
-1.99518
-2.25637
-2.56677
-2.96135
-3.44097
-4.07102
-2.68099
-2.38056
-2.14064
-1.94718
-1.78596
-1.65662
-1.5516
-1.47593
-1.4306
-1.41206
-1.43557
-1.49195
-1.59032
-1.72931
-1.92193
-2.15357
-2.44837
-2.80193
-3.23947
-2.79089
-2.52141
-2.27903
-2.06678
-1.88083
-1.72276
-1.58818
-1.48117
-1.40302
-1.35095
-1.33726
-1.35462
-1.40997
-1.50178
-1.63964
-1.81096
-2.0328
-2.2989
-2.61854
-2.79918
-2.59532
-2.37643
-2.16346
-1.96473
-1.78623
-1.62799
-1.49435
-1.3875
-1.30584
-1.25935
-1.24263
-1.261
-1.31305
-1.40597
-1.52919
-1.69486
-1.89642
-2.13642
-2.7269
-2.59263
-2.41395
-2.2174
-2.01968
-1.83165
-1.65809
-1.50468
-1.37502
-1.26896
-1.19493
-1.14933
-1.13639
-1.155
-1.21064
-1.29468
-1.41592
-1.56825
-1.75132
-2.63874
-2.55307
-2.41411
-2.24143
-2.05352
-1.86415
-1.68204
-1.51468
-1.36732
-1.24144
-1.14458
-1.07478
-1.03554
-1.02612
-1.05077
-1.10249
-1.18766
-1.30085
-1.44048
-2.53134
-2.4951
-2.39405
-2.2474
-2.07377
-1.8883
-1.70249
-1.52557
-1.36453
-1.2225
-1.10664
-1.01646
-0.955053
-0.922061
-0.920789
-0.945631
-1.00114
-1.08264
-1.18806
-2.39937
-2.40697
-2.34257
-2.22366
-2.06815
-1.89174
-1.70754
-1.52633
-1.35655
-1.2029
-1.07259
-0.966366
-0.887206
-0.835122
-0.812786
-0.815738
-0.847254
-0.903371
-0.981925
-2.2835
-2.31544
-2.27931
-2.18507
-2.04757
-1.882
-1.70211
-1.51976
-1.34464
-1.18274
-1.04156
-0.922914
-0.829781
-0.762518
-0.723349
-0.708705
-0.720928
-0.756672
-0.813847
-2.17723
-2.22831
-2.21339
-2.13931
-2.01783
-1.86296
-1.68841
-1.50676
-1.32856
-1.16093
-1.01175
-0.883666
-0.779773
-0.700712
-0.648371
-0.619861
-0.616826
-0.63643
-0.676735
-2.07345
-2.14321
-2.14604
-2.08854
-1.98073
-1.83564
-1.66663
-1.48669
-1.30707
-1.13573
-0.980946
-0.846038
-0.734232
-0.646382
-0.584113
-0.54503
-0.530255
-0.537354
-0.56456
-1.97991
-2.06266
-2.07977
-2.03571
-1.93907
-1.8022
-1.63814
-1.46019
-1.28009
-1.10647
-0.947977
-0.808432
-0.691161
-0.597146
-0.527775
-0.480986
-0.45749
-0.455154
-0.472363
-1.89836
-1.99039
-2.0187
-1.98525
-1.89734
-1.76673
-1.60638
-1.42989
-1.24945
-1.07426
-0.913268
-0.770669
-0.649822
-0.551745
-0.47757
-0.425431
-0.395685
-0.386411
-0.396111
-1.81587
-1.92533
-1.96588
-1.942
-1.86112
-1.73496
-1.57675
-1.40054
-1.21908
-1.04217
-0.87901
-0.734119
-0.610819
-0.510072
-0.432712
-0.376935
-0.342778
-0.328453
-0.332549
-1.72978
-1.85973
-1.91481
-1.90101
-1.82671
-1.70415
-1.5472
-1.3706
-1.18778
-1.0092
-0.84431
-0.697898
-0.5732
-0.471032
-0.391872
-0.333864
-0.296746
-0.278849
-0.278853
-1.6558
-1.80034
-1.86929
-1.86549
-1.79721
-1.67734
-1.52062
-1.3427
-1.15787
-0.977276
-0.810693
-0.663127
-0.537681
-0.434946
-0.35496
-0.295664
-0.256483
-0.235882
-0.232783
-1.58965
-1.74818
-1.83025
-1.83621
-1.77366
-1.65588
-1.49864
-1.31863
-1.13114
-0.948124
-0.779681
-0.631056
-0.505201
-0.402429
-0.322257
-0.26223
-0.221303
-0.198057
-0.192077
-1.52773
-1.70195
-1.79735
-1.81302
-1.75606
-1.64009
-1.48191
-1.29934
-1.10878
-0.923032
-0.752552
-0.602842
-0.476715
-0.374221
-0.294328
-0.233967
-0.191225
-0.164226
-0.15377
-1.47177
-1.66164
-1.76961
-1.79361
-1.7407
-1.62483
-1.46425
-1.27786
-1.08329
-0.894358
-0.721495
-0.570804
-0.444799
-0.343312
-0.264673
-0.205272
-0.161594
-0.129717
-0.106609
-1.42579
-1.63023
-1.75339
-1.7914
-1.75092
-1.64497
-1.49196
-1.31047
-1.11842
-0.930274
-0.756095
-0.60301
-0.473569
-0.368371
-0.285965
-0.223383
-0.176318
-0.139982
-0.108189
-1.39325
-1.60664
-1.73934
-1.78812
-1.75896
-1.66376
-1.52012
-1.34581
-1.15834
-0.9723
-0.797446
-0.641584
-0.507654
-0.397004
-0.308888
-0.24153
-0.19113
-0.154007
-0.125461
-1.39136
-1.60609
-1.74239
-1.79733
-1.77624
-1.69025
-1.55572
-1.38952
-1.20832
-1.02623
-0.852725
-0.695503
-0.557733
-0.441364
-0.346609
-0.27285
-0.217202
-0.176578
-0.146584
-1.42371
-1.63182
-1.76422
-1.81875
-1.80051
-1.72014
-1.59277
-1.43422
-1.26002
-1.08345
-0.91331
-0.756791
-0.616777
-0.495407
-0.393695
-0.312408
-0.249946
-0.204103
-0.170661
-1.48631
-1.68313
-1.80548
-1.85395
-1.83404
-1.75602
-1.63396
-1.48244
-1.31574
-1.14606
-0.981262
-0.827751
-0.687603
-0.562527
-0.453819
-0.363679
-0.292295
-0.239054
-0.20016
-1.57691
-1.7551
-1.86191
-1.89996
-1.87504
-1.79703
-1.67898
-1.53419
-1.37556
-1.21421
-1.05692
-0.909266
-0.772129
-0.646047
-0.531554
-0.431729
-0.348837
-0.285115
-0.238124
-1.6936
-1.8465
-1.9345
-1.95946
-1.92731
-1.8476
-1.73246
-1.59387
-1.44342
-1.2912
-1.14302
-1.00388
-0.873511
-0.750763
-0.63393
-0.525303
-0.42821
-0.349132
-0.289422
-1.81817
-1.94938
-2.01837
-2.02916
-1.98871
-1.90643
-1.79365
-1.66101
-1.51881
-1.37625
-1.23838
-1.1102
-0.990932
-0.878096
-0.766705
-0.655671
-0.54529
-0.444664
-0.363115
-1.95901
-2.06634
-2.11437
-2.10945
-2.05955
-1.97385
-1.86278
-1.73561
-1.60133
-1.46827
-1.34085
-1.22463
-1.11945
-1.02329
-0.929068
-0.831749
-0.722629
-0.603904
-0.479124
-2.12248
-2.20186
-2.22701
-2.20566
-2.14636
-2.05781
-1.94926
-1.82856
-1.70329
-1.58076
-1.46501
-1.36197
-1.27316
-1.19941
-1.13608
-1.07958
-1.01651
-0.939924
-0.841108
-2.30245
-2.3503
-2.34723
-2.304
-2.22968
-2.13257
-2.02042
-1.89985
-1.77703
-1.65769
-1.54551
-1.4453
-1.3593
-1.29002
-1.23756
-1.20407
-1.18486
-1.17613
-1.16986
-2.50448
-2.51021
-2.47279
-2.40365
-2.31108
-2.20243
-2.0839
-1.96114
-1.83919
-1.7224
-1.6144
-1.51847
-1.43656
-1.37025
-1.32034
-1.28793
-1.27316
-1.27697
-1.30011
-2.72639
-2.68146
-2.6081
-2.51362
-2.40382
-2.28432
-2.15992
-2.03523
-1.9144
-1.80091
-1.69796
-1.60789
-1.53205
-1.47101
-1.42458
-1.39141
-1.3696
-1.35654
-1.34944
-2.92762
-2.83582
-2.72948
-2.61159
-2.48564
-2.35553
-2.22489
-2.0973
-1.97609
-1.86398
-1.76347
-1.67635
-1.60335
-1.54457
-1.49945
-1.46654
-1.44397
-1.42961
-1.42113
-3.08897
-2.96421
-2.83277
-2.69642
-2.55753
-2.41888
-2.28322
-2.15327
-2.0317
-1.92065
-1.82211
-1.73744
-1.66704
-1.61077
-1.56793
-1.53705
-1.5163
-1.50363
-1.49677
-3.21683
-3.06652
-2.91559
-2.7649
-2.61597
-2.47069
-2.33111
-2.1993
-2.07742
-1.96714
-1.87011
-1.7874
-1.71917
-1.66513
-1.62447
-1.59572
-1.577
-1.5663
-1.56139
-3.30954
-3.14014
-2.97457
-2.81339
-2.65726
-2.50734
-2.36506
-2.232
-2.10994
-2.00026
-1.90434
-1.82309
-1.75652
-1.70421
-1.6653
-1.63823
-1.62109
-1.61182
-1.60816
-3.37015
-3.18221
-3.00606
-2.8384
-2.67826
-2.52589
-2.38226
-2.24862
-2.12656
-2.01727
-1.92202
-1.84162
-1.77602
-1.72476
-1.68696
-1.66109
-1.64522
-1.63731
-1.63508
-3.37016
-3.18224
-3.00609
-2.83844
-2.6783
-2.52593
-2.38231
-2.24867
-2.12661
-2.01732
-1.92207
-1.84168
-1.77608
-1.72482
-1.68703
-1.66115
-1.64529
-1.63738
-1.63516
-3.30956
-3.14019
-2.97466
-2.81348
-2.65737
-2.50746
-2.36519
-2.23213
-2.11008
-2.0004
-1.90449
-1.82325
-1.75669
-1.70439
-1.66549
-1.63844
-1.62131
-1.61206
-1.60842
-3.21686
-3.06662
-2.91572
-2.76506
-2.61614
-2.47088
-2.33131
-2.19951
-2.07764
-1.96738
-1.87035
-1.78765
-1.71944
-1.66541
-1.62478
-1.59604
-1.57735
-1.56668
-1.56179
-3.08902
-2.96433
-2.83293
-2.69662
-2.55776
-2.41913
-2.28348
-2.15355
-2.03199
-1.92095
-1.82242
-1.73776
-1.66738
-1.61113
-1.5683
-1.53745
-1.51672
-1.50407
-1.49724
-2.92768
-2.83595
-2.72967
-2.61182
-2.48589
-2.35581
-2.2252
-2.09763
-1.97643
-1.86434
-1.76385
-1.67674
-1.60376
-1.545
-1.49989
-1.467
-1.44445
-1.43011
-1.42166
-2.72646
-2.6816
-2.60831
-2.51387
-2.40411
-2.28464
-2.16026
-2.03559
-1.91478
-1.80132
-1.69838
-1.60833
-1.5325
-1.47148
-1.42505
-1.39189
-1.37007
-1.35701
-1.3499
-2.50455
-2.51038
-2.47305
-2.40398
-2.31148
-2.20289
-2.08441
-1.9617
-1.8398
-1.72306
-1.61511
-1.51923
-1.43738
-1.37112
-1.32127
-1.28888
-1.27407
-1.27772
-1.30055
-2.3025
-2.35033
-2.34728
-2.30406
-2.22978
-2.13269
-2.02056
-1.90001
-1.77719
-1.65784
-1.54564
-1.44538
-1.35931
-1.28993
-1.23737
-1.20381
-1.18467
-1.17629
-1.17079
-2.1225
-2.20196
-2.2272
-2.20595
-2.14676
-2.05833
-1.94989
-1.8293
-1.70411
-1.58167
-1.46599
-1.36302
-1.27428
-1.20065
-1.13751
-1.08133
-1.01875
-0.942801
-0.844703
-1.95902
-2.06636
-2.11443
-2.10958
-2.05977
-1.97415
-1.86317
-1.73608
-1.60187
-1.46886
-1.34149
-1.22531
-1.12019
-1.02413
-0.930034
-0.832869
-0.723859
-0.605105
-0.480032
-1.81817
-1.94938
-2.01841
-2.02927
-1.98891
-1.90672
-1.79403
-1.66147
-1.51934
-1.37684
-1.23902
-1.11089
-0.991674
-0.878904
-0.767574
-0.65657
-0.546145
-0.445389
-0.36368
-1.69359
-1.84649
-1.93452
-1.95955
-1.92748
-1.84786
-1.73281
-1.59431
-1.44392
-1.29176
-1.14362
-1.00452
-0.874184
-0.751462
-0.634633
-0.525971
-0.4288
-0.349618
-0.28981
-1.5769
-1.75508
-1.86191
-1.90002
-1.87518
-1.79726
-1.6793
-1.53459
-1.37603
-1.21473
-1.05747
-0.909839
-0.772715
-0.64663
-0.532109
-0.43223
-0.349263
-0.285466
-0.238414
-1.48629
-1.6831
-1.80547
-1.85399
-1.83415
-1.75622
-1.63425
-1.4828
-1.31616
-1.14652
-0.981754
-0.828254
-0.688103
-0.563006
-0.454257
-0.364062
-0.292617
-0.239322
-0.200389
-1.42369
-1.63178
-1.7642
-1.81878
-1.80061
-1.72031
-1.59303
-1.43454
-1.2604
-1.08386
-0.91374
-0.757223
-0.617195
-0.495797
-0.394043
-0.312708
-0.250199
-0.204319
-0.170853
-1.39134
-1.60605
-1.74236
-1.79735
-1.77632
-1.6904
-1.55594
-1.38981
-1.20866
-1.02659
-0.853095
-0.69587
-0.558081
-0.441682
-0.346888
-0.27309
-0.217406
-0.176759
-0.146756
-1.39323
-1.6066
-1.7393
-1.78811
-1.759
-1.66386
-1.52027
-1.346
-1.15857
-0.972555
-0.797707
-0.641839
-0.507892
-0.397218
-0.309072
-0.241686
-0.191264
-0.154135
-0.125612
-1.42581
-1.63025
-1.75341
-1.79144
-1.75098
-1.64505
-1.49207
-1.31061
-1.11858
-0.930452
-0.756281
-0.6032
-0.473755
-0.368549
-0.286131
-0.223537
-0.176458
-0.140104
-0.108283
-1.4718
-1.66167
-1.76963
-1.79361
-1.74067
-1.62478
-1.46418
-1.27777
-1.08319
-0.894255
-0.721394
-0.570711
-0.444716
-0.34324
-0.264611
-0.205217
-0.161544
-0.129665
-0.106544
-1.52775
-1.70196
-1.79737
-1.81303
-1.75607
-1.64009
-1.4819
-1.29934
-1.10878
-0.923029
-0.752551
-0.602844
-0.476719
-0.374228
-0.294335
-0.233975
-0.191235
-0.164237
-0.15378
-1.58966
-1.74819
-1.83026
-1.83621
-1.77365
-1.65587
-1.49863
-1.31862
-1.13113
-0.948115
-0.779675
-0.631053
-0.505201
-0.402431
-0.322261
-0.262236
-0.22131
-0.198064
-0.192083
-1.65581
-1.80035
-1.86929
-1.86549
-1.79721
-1.67733
-1.52061
-1.34269
-1.15786
-0.977269
-0.810689
-0.663125
-0.537682
-0.434949
-0.354964
-0.295669
-0.256488
-0.235888
-0.232788
-1.72979
-1.85973
-1.91481
-1.90101
-1.8267
-1.70414
-1.5472
-1.37059
-1.18778
-1.00919
-0.844307
-0.697897
-0.5732
-0.471034
-0.391875
-0.333867
-0.296751
-0.278853
-0.278857
-1.81588
-1.92533
-1.96588
-1.94199
-1.86111
-1.73496
-1.57675
-1.40054
-1.21907
-1.04217
-0.879009
-0.734119
-0.610819
-0.510073
-0.432714
-0.376938
-0.342781
-0.328457
-0.332552
-1.89837
-1.9904
-2.0187
-1.98525
-1.89733
-1.76673
-1.60638
-1.42989
-1.24944
-1.07426
-0.913267
-0.770668
-0.649822
-0.551745
-0.477572
-0.425433
-0.395688
-0.386413
-0.396113
-1.97991
-2.06266
-2.07977
-2.0357
-1.93907
-1.8022
-1.63814
-1.46019
-1.28009
-1.10647
-0.947976
-0.808431
-0.691161
-0.597146
-0.527776
-0.480988
-0.457492
-0.455155
-0.472364
-2.07345
-2.14321
-2.14604
-2.08854
-1.98073
-1.83564
-1.66663
-1.48669
-1.30707
-1.13573
-0.980945
-0.846037
-0.734231
-0.646382
-0.584113
-0.54503
-0.530255
-0.537354
-0.564559
-2.17722
-2.2283
-2.21339
-2.13931
-2.01783
-1.86296
-1.68841
-1.50676
-1.32856
-1.16093
-1.01175
-0.883664
-0.779772
-0.700712
-0.648371
-0.61986
-0.616825
-0.636428
-0.676732
-2.28349
-2.31544
-2.27931
-2.18507
-2.04757
-1.882
-1.70211
-1.51976
-1.34464
-1.18274
-1.04156
-0.922913
-0.82978
-0.762518
-0.723348
-0.708704
-0.720926
-0.756668
-0.813842
-2.39937
-2.40696
-2.34257
-2.22366
-2.06815
-1.89174
-1.70755
-1.52633
-1.35655
-1.2029
-1.07258
-0.966365
-0.887206
-0.835122
-0.812785
-0.815736
-0.847249
-0.903365
-0.981919
-2.53133
-2.49509
-2.39405
-2.2474
-2.07377
-1.8883
-1.70249
-1.52557
-1.36453
-1.22249
-1.10664
-1.01646
-0.955052
-0.92206
-0.920786
-0.945626
-1.00114
-1.08263
-1.18806
-2.63873
-2.55307
-2.41411
-2.24143
-2.05352
-1.86416
-1.68205
-1.51468
-1.36732
-1.24144
-1.14458
-1.07478
-1.03553
-1.02612
-1.05076
-1.10248
-1.18765
-1.30084
-1.44047
-2.72689
-2.59264
-2.41395
-2.21741
-2.01968
-1.83165
-1.65809
-1.50468
-1.37502
-1.26896
-1.19493
-1.14933
-1.13639
-1.15499
-1.21063
-1.29467
-1.41591
-1.56824
-1.75132
-2.79917
-2.59532
-2.37643
-2.16347
-1.96473
-1.78623
-1.62799
-1.49435
-1.3875
-1.30584
-1.25935
-1.24263
-1.261
-1.31305
-1.40597
-1.52918
-1.69485
-1.89642
-2.13642
-2.79089
-2.52142
-2.27904
-2.06679
-1.88083
-1.72276
-1.58818
-1.48117
-1.40302
-1.35096
-1.33726
-1.35462
-1.40997
-1.50177
-1.63964
-1.81096
-2.03279
-2.29889
-2.61854
-2.681
-2.38057
-2.14064
-1.94718
-1.78596
-1.65663
-1.5516
-1.47593
-1.43061
-1.41206
-1.43557
-1.49195
-1.59032
-1.7293
-1.92192
-2.15357
-2.44837
-2.80193
-3.23947
-2.44418
-2.16084
-1.95427
-1.79859
-1.67404
-1.58152
-1.51195
-1.47241
-1.46422
-1.48347
-1.54907
-1.65027
-1.79916
-1.99518
-2.25636
-2.56676
-2.96135
-3.44097
-4.07102
-2.07881
-1.87137
-1.72702
-1.62428
-1.54539
-1.49555
-1.46577
-1.46589
-1.49814
-1.55876
-1.67103
-1.82326
-2.03169
-2.29791
-2.6477
-3.06568
-3.60445
-4.27709
-5.25642
-1.61414
-1.52787
-1.46447
-1.42375
-1.396
-1.39237
-1.405
-1.44674
-1.52121
-1.6255
-1.78801
-1.99735
-2.27578
-2.6296
-3.09734
-3.66896
-4.42783
-5.41415
-7.10081
-1.10651
-1.15079
-1.17187
-1.19521
-1.22047
-1.26415
-1.31975
-1.40286
-1.51883
-1.66638
-1.87998
-2.15043
-2.50897
-2.9717
-3.59912
-4.39777
-5.50922
-7.03398
-10.303
-0.619513
-0.761569
-0.8548
-0.937621
-1.01452
-1.10438
-1.20123
-1.32262
-1.47547
-1.66102
-1.92083
-2.24989
-2.69313
-3.28586
-4.12763
-5.26785
-6.9668
-9.46579
-16.5583
-0.203664
-0.377519
-0.51844
-0.651689
-0.776819
-0.910331
-1.04453
-1.19808
-1.37785
-1.58877
-1.88007
-2.25107
-2.7686
-3.51064
-4.67091
-6.48653
-9.73686
-15.7371
-37.1751
)
;

boundaryField
{
    up
    {
        type            calculated;
        value           nonuniform List<scalar> 
84
(
-33.6885
-18.2457
-11.1936
-7.62426
-5.59582
-4.3084
-3.41448
-2.75198
-2.23974
-1.83214
-1.50344
-1.23668
-1.01922
-0.842043
-0.697724
-0.579937
-0.483423
-0.403882
-0.33783
-0.282307
-0.234887
-0.192977
-0.151855
-0.0953908
-0.0920978
-0.117289
-0.138094
-0.161033
-0.18877
-0.224153
-0.271067
-0.334636
-0.4344
-0.829102
-1.19943
-1.3189
-1.34598
-1.41773
-1.49431
-1.55997
-1.60741
-1.63514
-1.63522
-1.60769
-1.56039
-1.49479
-1.41827
-1.34644
-1.31906
-1.20044
-0.833275
-0.435251
-0.335132
-0.271427
-0.224428
-0.188991
-0.16122
-0.138265
-0.117484
-0.0922146
-0.0953181
-0.151862
-0.192983
-0.234892
-0.28231
-0.337833
-0.403884
-0.483423
-0.579936
-0.697722
-0.84204
-1.01921
-1.23668
-1.50344
-1.83214
-2.23974
-2.75199
-3.41449
-4.30841
-5.59582
-7.62427
-11.1936
-18.2456
-33.6885
)
;
    }
    low
    {
        type            calculated;
        value           nonuniform List<scalar> 
84
(
-0.218627
-0.647628
-1.16743
-1.7165
-2.22011
-2.61133
-2.85393
-2.95209
-2.92853
-2.81546
-2.70606
-2.5782
-2.41815
-2.28697
-2.17194
-2.05589
-1.95154
-1.86671
-1.77732
-1.67562
-1.58946
-1.5137
-1.44017
-1.37334
-1.30859
-1.26782
-1.2675
-1.31308
-1.39287
-1.5051
-1.64101
-1.77841
-1.93395
-2.11437
-2.30831
-2.52878
-2.77616
-2.99338
-3.16411
-3.29983
-3.39888
-3.46854
-3.46855
-3.39889
-3.29985
-3.16414
-2.99341
-2.77619
-2.52883
-2.30829
-2.1144
-1.93393
-1.7784
-1.641
-1.5051
-1.39286
-1.31308
-1.2675
-1.26782
-1.30861
-1.37338
-1.44018
-1.51371
-1.58946
-1.67563
-1.77732
-1.86672
-1.95154
-2.05589
-2.17194
-2.28697
-2.41815
-2.57818
-2.70605
-2.81545
-2.92853
-2.95209
-2.85394
-2.61135
-2.22012
-1.71652
-1.16744
-0.647634
-0.218629
)
;
    }
    left
    {
        type            calculated;
        value           nonuniform List<scalar> 
19
(
-0.199806
-0.370529
-0.514269
-0.652014
-0.782462
-0.9215
-1.06169
-1.22263
-1.4114
-1.63574
-1.94719
-2.34725
-2.91182
-3.73421
-5.03171
-7.09511
-10.8316
-17.81
-34.9409
)
;
    }
    right
    {
        type            calculated;
        value           nonuniform List<scalar> 
19
(
-0.199808
-0.370529
-0.514269
-0.652014
-0.782462
-0.9215
-1.06169
-1.22263
-1.4114
-1.63574
-1.94719
-2.34725
-2.91181
-3.7342
-5.03171
-7.0951
-10.8316
-17.81
-34.9409
)
;
    }
    frontAndBackPlanes
    {
        type            empty;
    }
}


// ************************************************************************* //
