/*--------------------------------*- C++ -*----------------------------------*\
  =========                 |
  \\      /  F ield         | OpenFOAM: The Open Source CFD Toolbox
   \\    /   O peration     | Website:  https://openfoam.org
    \\  /    A nd           | Version:  7
     \\/     M anipulation  |
\*---------------------------------------------------------------------------*/
FoamFile
{
    version     2.0;
    format      ascii;
    class       volScalarField;
    location    "0.22";
    object      T;
}
// * * * * * * * * * * * * * * * * * * * * * * * * * * * * * * * * * * * * * //

dimensions      [0 0 0 1 0 0 0];

internalField   nonuniform List<scalar> 
1596
(
5.98275
5.93336
5.88307
5.83588
5.79296
5.75394
5.71802
5.68332
5.64841
5.60998
5.56541
5.51118
5.43959
5.34016
5.19679
4.97392
4.60548
3.95952
2.77153
5.92549
5.77187
5.62772
5.49645
5.37833
5.27165
5.17402
5.08138
4.99014
4.89405
4.78776
4.66473
4.51336
4.31962
4.06638
3.72183
3.23717
2.52874
1.4383
5.85791
5.59984
5.36899
5.16327
4.98015
4.81611
4.6673
4.52836
4.39437
4.25788
4.11244
3.95055
3.76035
3.52849
3.24057
2.87247
2.39164
1.74846
0.850731
5.7914
5.43583
5.12695
4.85587
4.61676
4.40432
4.21343
4.03795
3.87225
3.70846
3.53986
3.35885
3.15438
2.91467
2.62811
2.2768
1.8392
1.28606
0.563776
5.73647
5.29691
4.91987
4.59173
4.30405
4.05017
3.82406
3.61913
3.42937
3.24691
3.06505
2.87639
2.67076
2.43782
2.16796
1.84746
1.46142
0.992049
0.407387
5.69984
5.19454
4.76015
4.38241
4.05198
3.76157
3.50473
3.27469
3.06532
2.86889
2.67884
2.488
2.28693
2.06634
1.8179
1.53046
1.19297
0.793836
0.313057
5.6823
5.13168
4.65147
4.23119
3.86269
3.53915
3.25421
3.00126
2.77427
2.56572
2.36926
2.17789
1.98276
1.77526
1.54784
1.29089
0.995508
0.653401
0.251126
5.67972
5.10328
4.5891
4.13337
3.73112
3.37709
3.06569
2.79082
2.54675
2.32631
2.12334
1.93104
1.741
1.54507
1.33612
1.10549
0.845458
0.549428
0.207558
5.68809
5.10239
4.56541
4.08123
3.64941
3.26724
2.93056
2.63417
2.37288
2.13995
1.92951
1.73494
1.54817
1.36138
1.1677
0.958989
0.728208
0.469579
0.175227
5.6991
5.11492
4.56488
4.05945
3.6029
3.19561
2.83539
2.51831
2.23996
1.99418
1.77544
1.57735
1.39212
1.21219
1.03081
0.840225
0.633722
0.405912
0.150028
5.70782
5.12952
4.57344
4.05334
3.57724
3.14858
2.76738
2.43119
2.13664
1.87824
1.65091
1.44852
1.26355
1.08866
0.917219
0.741681
0.555548
0.353574
0.129615
5.71852
5.14877
4.5906
4.06015
3.56835
3.12133
2.7213
2.36743
2.05746
1.78673
1.55062
1.34329
1.15751
0.986109
0.822526
0.659385
0.490296
0.310033
0.112789
5.72852
5.16849
4.61065
4.07295
3.56856
3.10593
2.68928
2.31939
1.99519
1.71282
1.4682
1.25581
1.06865
0.899719
0.742497
0.589723
0.435061
0.273247
0.0986659
5.73444
5.1823
4.62581
4.08316
3.56898
3.09352
2.66278
2.27904
1.94234
1.64967
1.39746
1.18051
0.992032
0.825172
0.673439
0.529651
0.387501
0.241657
0.0866107
5.73928
5.19274
4.63708
4.09032
3.56795
3.08161
2.63876
2.24301
1.89545
1.59384
1.33509
1.11427
0.924805
0.759923
0.613147
0.477343
0.346207
0.214327
0.0762457
5.7439
5.20154
4.6457
4.09473
3.56482
3.06873
2.61516
2.20886
1.85186
1.5426
1.27839
1.05453
0.864582
0.701825
0.559755
0.431254
0.309997
0.190482
0.067269
5.74684
5.20703
4.65002
4.09447
3.55731
3.05226
2.58912
2.17363
1.80861
1.49305
1.22461
0.99874
0.809046
0.64882
0.511496
0.389935
0.277772
0.169411
0.0594084
5.74873
5.20991
4.65069
4.08999
3.54549
3.03187
2.55992
2.13627
1.7644
1.44377
1.17227
0.945386
0.756731
0.599535
0.467132
0.352336
0.248716
0.150575
0.0524537
5.753
5.21565
4.65356
4.08687
3.5343
3.01167
2.53078
2.09914
1.72083
1.39571
1.12177
0.894465
0.707331
0.553466
0.42606
0.317844
0.222299
0.133607
0.0462582
5.75848
5.22389
4.65901
4.0858
3.52451
2.99231
2.50215
2.06244
1.67787
1.34857
1.07261
0.845328
0.660077
0.509772
0.38742
0.285653
0.197852
0.118056
0.0406571
5.7626
5.23098
4.66367
4.08401
3.51391
2.97202
2.47259
2.02498
1.63444
1.3014
1.0239
0.797066
0.614048
0.467512
0.350264
0.254849
0.174586
0.103385
0.0354623
5.7669
5.23837
4.66892
4.08298
3.50404
2.95238
2.4436
1.98808
1.59164
1.25498
0.976065
0.749819
0.569093
0.426272
0.313946
0.224611
0.151623
0.0888899
0.0304188
5.77207
5.24733
4.67612
4.08413
3.49643
2.93494
2.4167
1.95312
1.55062
1.21017
0.929659
0.703764
0.52504
0.385556
0.27766
0.193816
0.127571
0.0731829
0.0248586
5.77772
5.25735
4.68477
4.08704
3.49085
2.91974
2.39214
1.9205
1.51179
1.16725
0.884724
0.658653
0.481334
0.344511
0.240242
0.160899
0.100285
0.0534206
0.0161041
5.78694
5.27997
4.71667
4.12424
3.52975
2.95729
2.42595
1.94889
1.53376
1.1824
0.89324
0.661232
0.47903
0.338572
0.231957
0.151454
0.0908628
0.0454975
0.0120301
5.79722
5.30968
4.76432
4.18716
3.60421
3.03886
2.51001
2.03106
1.61027
1.25039
0.950908
0.707944
0.515201
0.36543
0.251175
0.164757
0.0996705
0.0507543
0.0140308
5.80249
5.32795
4.79684
4.23367
3.66297
3.10691
2.58358
2.10605
1.68273
1.31691
1.00889
0.755894
0.55278
0.393355
0.270906
0.178018
0.108041
0.0554198
0.0156384
5.80283
5.33432
4.81322
4.26229
3.70419
3.15935
2.64452
2.17187
1.74943
1.38063
1.0663
0.804597
0.591563
0.422263
0.291074
0.19116
0.11593
0.0595117
0.0169031
5.80001
5.33238
4.81812
4.27816
3.73302
3.20102
2.69713
2.23223
1.81358
1.44438
1.12572
0.856478
0.633771
0.454048
0.313122
0.205169
0.123971
0.0634306
0.0180077
5.79442
5.32449
4.81546
4.2861
3.75456
3.23684
2.74589
2.29105
1.87859
1.51122
1.19004
0.914367
0.682172
0.491233
0.339057
0.221363
0.132871
0.0675066
0.0190704
5.78745
5.31451
4.81063
4.29223
3.77505
3.27275
2.7962
2.35312
1.94867
1.58498
1.26292
0.981978
0.740635
0.537668
0.372256
0.242149
0.143888
0.0721754
0.020189
5.78244
5.30803
4.8101
4.30328
3.80106
3.31485
2.85354
2.42328
2.02815
1.66963
1.34832
1.06363
0.814109
0.598931
0.418422
0.272349
0.159978
0.0784073
0.0213758
5.77803
5.30333
4.8125
4.31829
3.832
3.36288
2.91792
2.50181
2.11765
1.76632
1.44814
1.16237
0.907298
0.681847
0.486414
0.321701
0.189437
0.0906214
0.0227123
5.77401
5.30046
4.81821
4.33798
3.86884
3.41797
2.9906
2.5901
2.21873
1.8769
1.56476
1.28155
1.02536
0.79457
0.588746
0.40773
0.253223
0.128424
0.0346862
5.76919
5.29511
4.81924
4.3505
3.89595
3.46092
3.04915
2.66289
2.30369
1.97155
1.66656
1.38805
1.13417
0.903177
0.693887
0.50457
0.33453
0.184903
0.0566744
5.75979
5.27648
4.79845
4.33269
3.88444
3.45751
3.05441
2.67645
2.32456
1.9983
1.69759
1.42176
1.16906
0.937977
0.727577
0.536107
0.36244
0.206353
0.0665105
5.74712
5.24928
4.76417
4.29642
3.84953
3.42597
3.02717
2.65366
2.30578
1.98271
1.68416
1.40945
1.15692
0.925309
0.714176
0.522357
0.349536
0.196395
0.062222
5.73679
5.22728
4.73659
4.2674
3.82175
3.401
3.00576
2.63592
2.29137
1.97101
1.67446
1.40104
1.14922
0.917923
0.707031
0.515655
0.343764
0.192296
0.0606602
5.72977
5.21179
4.71687
4.24648
3.80165
3.38294
2.99031
2.62316
2.28109
1.96276
1.66774
1.39538
1.1442
0.913276
0.702667
0.511649
0.340355
0.189909
0.0598049
5.72454
5.20024
4.70215
4.23085
3.78661
3.36939
2.97866
2.61349
2.27324
1.95644
1.66258
1.39105
1.14041
0.909815
0.699462
0.508732
0.337884
0.188184
0.0592018
5.72071
5.19177
4.6914
4.21946
3.77565
3.35946
2.97007
2.60627
2.2673
1.95156
1.65854
1.38763
1.1374
0.907074
0.696938
0.506447
0.33595
0.18683
0.0587208
5.71735
5.18526
4.68367
4.21158
3.76822
3.35281
2.96432
2.60144
2.26332
1.9483
1.65587
1.38542
1.13554
0.905476
0.695553
0.505262
0.334993
0.186186
0.0585067
5.71736
5.18529
4.6837
4.21161
3.76826
3.35285
2.96437
2.60148
2.26336
1.94834
1.65591
1.38546
1.13558
0.905504
0.695576
0.50528
0.335007
0.186194
0.0585094
5.72074
5.19183
4.69149
4.21957
3.77577
3.35959
2.9702
2.6064
2.26743
1.95169
1.65866
1.38774
1.1375
0.907162
0.697012
0.506506
0.335993
0.186856
0.05873
5.72458
5.20034
4.70229
4.23102
3.78681
3.3696
2.97888
2.6137
2.27345
1.95664
1.66277
1.39123
1.14057
0.909952
0.699577
0.508823
0.337949
0.188223
0.0592154
5.72983
5.21192
4.71706
4.24671
3.80191
3.38322
2.99059
2.62344
2.28137
1.96303
1.66799
1.39561
1.14441
0.913455
0.702817
0.511767
0.34044
0.189959
0.0598222
5.73686
5.22745
4.73683
4.26768
3.82207
3.40134
3.00612
2.63627
2.29172
1.97135
1.67477
1.40133
1.14947
0.91814
0.707211
0.515796
0.343864
0.192356
0.0606802
5.74719
5.24947
4.76444
4.29675
3.8499
3.42636
3.02757
2.65406
2.30618
1.98309
1.68452
1.40977
1.15721
0.925549
0.714371
0.522505
0.349638
0.196452
0.0622397
5.75988
5.27668
4.79876
4.33306
3.88486
3.45796
3.05487
2.67691
2.32501
1.99873
1.69798
1.4221
1.16936
0.938214
0.727753
0.536222
0.3625
0.206374
0.066512
5.76929
5.29541
4.81972
4.35113
3.8967
3.46177
3.05008
2.66386
2.30469
1.97257
1.66757
1.38904
1.13513
0.904105
0.69477
0.505389
0.335244
0.185434
0.0569009
5.77413
5.30081
4.81878
4.33874
3.86976
3.41902
2.99175
2.59132
2.22
1.87819
1.56605
1.28282
1.02658
0.795734
0.589818
0.408666
0.253962
0.128903
0.0348581
5.77813
5.30363
4.81299
4.31895
3.83281
3.36381
2.91893
2.50288
2.11874
1.76741
1.44921
1.16339
0.908252
0.682705
0.487145
0.322268
0.189813
0.0908081
0.0227493
5.78253
5.30831
4.81057
4.30391
3.80183
3.31573
2.8545
2.42428
2.02916
1.67063
1.34928
1.06453
0.814914
0.599621
0.418972
0.272743
0.16022
0.0785238
0.0214054
5.78753
5.31477
4.81106
4.29282
3.77577
3.27357
2.7971
2.35405
1.94961
1.58588
1.26377
0.982757
0.741315
0.538228
0.372685
0.242447
0.144069
0.0722661
0.0202142
5.79449
5.32472
4.81585
4.28665
3.75523
3.23761
2.74672
2.29191
1.87944
1.51205
1.19081
0.915047
0.68275
0.491698
0.339405
0.221602
0.133018
0.0675829
0.0190925
5.80007
5.33259
4.81847
4.27866
3.73364
3.20173
2.6979
2.23302
1.81436
1.44512
1.1264
0.857071
0.634266
0.45444
0.313413
0.205369
0.124097
0.0634974
0.0180278
5.80288
5.3345
4.81354
4.26274
3.70475
3.16
2.64521
2.17258
1.75013
1.38129
1.06689
0.805112
0.591989
0.422598
0.291322
0.191333
0.116041
0.0595723
0.0169222
5.80254
5.32811
4.79712
4.23407
3.66347
3.10748
2.5842
2.10669
1.68335
1.31749
1.00941
0.756342
0.553149
0.393645
0.271123
0.178172
0.108143
0.0554775
0.0156578
5.79726
5.30981
4.76455
4.1875
3.60465
3.03937
2.51056
2.03162
1.61081
1.2509
0.951364
0.708335
0.515523
0.365685
0.251369
0.164898
0.0997667
0.0508121
0.0140521
5.78694
5.28
4.71672
4.12433
3.52987
2.95743
2.42611
1.94906
1.53393
1.18256
0.893376
0.661346
0.479119
0.338637
0.231999
0.151477
0.0908703
0.0454956
0.0120261
5.77771
5.25731
4.68471
4.08696
3.49075
2.91964
2.39203
1.92039
1.5117
1.16716
0.884645
0.658584
0.481274
0.344458
0.240196
0.160859
0.100252
0.0533959
0.0160921
5.77207
5.24732
4.67611
4.08411
3.49642
2.93493
2.41669
1.95311
1.55062
1.21018
0.92967
0.703778
0.525055
0.38557
0.277673
0.193827
0.12758
0.0731879
0.0248598
5.76689
5.23836
4.66891
4.08297
3.50403
2.95237
2.44359
1.98808
1.59164
1.25498
0.976075
0.749831
0.569105
0.426283
0.313957
0.224619
0.151629
0.0888931
0.0304197
5.7626
5.23098
4.66366
4.084
3.5139
2.97201
2.47258
2.02499
1.63445
1.30141
1.0239
0.797076
0.614058
0.467521
0.350272
0.254855
0.174591
0.103388
0.0354629
5.75848
5.22388
4.659
4.08579
3.52451
2.99231
2.50215
2.06245
1.67787
1.34858
1.07262
0.845336
0.660085
0.509779
0.387426
0.285657
0.197855
0.118058
0.0406576
5.753
5.21564
4.65356
4.08687
3.5343
3.01167
2.53078
2.09914
1.72084
1.39572
1.12177
0.894471
0.707337
0.553471
0.426065
0.317847
0.222301
0.133608
0.0462586
5.74873
5.20991
4.65068
4.08999
3.54549
3.03188
2.55992
2.13627
1.7644
1.44378
1.17228
0.945391
0.756736
0.599539
0.467136
0.352338
0.248717
0.150576
0.0524539
5.74684
5.20703
4.65002
4.09447
3.55731
3.05226
2.58912
2.17363
1.80861
1.49305
1.22462
0.998744
0.80905
0.648823
0.511498
0.389937
0.277773
0.169411
0.0594084
5.7439
5.20154
4.6457
4.09473
3.56483
3.06873
2.61516
2.20887
1.85187
1.5426
1.27839
1.05454
0.864584
0.701826
0.559756
0.431255
0.309997
0.190482
0.0672689
5.73928
5.19274
4.63708
4.09032
3.56796
3.08161
2.63877
2.24301
1.89545
1.59384
1.33509
1.11427
0.924806
0.759924
0.613147
0.477343
0.346206
0.214326
0.0762456
5.73445
5.1823
4.62581
4.08317
3.56898
3.09353
2.66279
2.27904
1.94234
1.64967
1.39746
1.18051
0.992032
0.825172
0.673438
0.52965
0.387499
0.241656
0.0866105
5.72853
5.16849
4.61066
4.07295
3.56856
3.10593
2.68928
2.31939
1.99519
1.71282
1.4682
1.25581
1.06865
0.899717
0.742495
0.589721
0.43506
0.273246
0.0986658
5.71852
5.14878
4.5906
4.06015
3.56835
3.12133
2.7213
2.36743
2.05746
1.78673
1.55062
1.34329
1.1575
0.986106
0.822523
0.659382
0.490293
0.310031
0.112789
5.70782
5.12952
4.57344
4.05334
3.57724
3.14858
2.76738
2.43119
2.13663
1.87824
1.65091
1.44851
1.26354
1.08866
0.917215
0.741678
0.555546
0.353573
0.129615
5.6991
5.11492
4.56488
4.05945
3.6029
3.19561
2.83539
2.5183
2.23995
1.99417
1.77544
1.57734
1.39211
1.21218
1.03081
0.840222
0.63372
0.405911
0.150028
5.68809
5.10239
4.56541
4.08123
3.64941
3.26724
2.93055
2.63416
2.37287
2.13994
1.9295
1.73494
1.54817
1.36138
1.16769
0.958986
0.728206
0.469579
0.175228
5.67972
5.10328
4.58909
4.13337
3.73112
3.37709
3.06568
2.79081
2.54675
2.3263
2.12333
1.93104
1.74099
1.54506
1.33612
1.10549
0.845458
0.549429
0.207559
5.6823
5.13168
4.65147
4.23118
3.86268
3.53914
3.2542
3.00125
2.77426
2.56572
2.36925
2.17788
1.98276
1.77526
1.54784
1.29089
0.995508
0.653402
0.251126
5.69984
5.19454
4.76015
4.38241
4.05197
3.76157
3.50472
3.27468
3.06531
2.86888
2.67883
2.48799
2.28693
2.06633
1.8179
1.53046
1.19297
0.793837
0.313058
5.73647
5.2969
4.91986
4.59172
4.30405
4.05016
3.82405
3.61912
3.42936
3.2469
3.06505
2.87639
2.67076
2.43782
2.16796
1.84746
1.46143
0.99205
0.407387
5.79139
5.43583
5.12694
4.85587
4.61676
4.40431
4.21342
4.03794
3.87224
3.70845
3.53985
3.35885
3.15438
2.91467
2.62811
2.2768
1.8392
1.28607
0.563776
5.8579
5.59984
5.36899
5.16327
4.98015
4.81611
4.6673
4.52835
4.39436
4.25787
4.11243
3.95054
3.76034
3.52849
3.24057
2.87247
2.39164
1.74846
0.85073
5.92549
5.77187
5.62772
5.49644
5.37833
5.27165
5.17402
5.08138
4.99014
4.89405
4.78776
4.66473
4.51336
4.31962
4.06639
3.72184
3.23717
2.52874
1.43829
5.98275
5.93336
5.88307
5.83588
5.79296
5.75394
5.71802
5.68332
5.64841
5.60998
5.56541
5.51118
5.43959
5.34016
5.19679
4.97392
4.60548
3.95952
2.77153
)
;

boundaryField
{
    up
    {
        type            fixedValue;
        value           uniform 0;
    }
    low
    {
        type            fixedValue;
        value           uniform 6;
    }
    left
    {
        type            fixedValue;
        value           uniform 6;
    }
    right
    {
        type            fixedValue;
        value           uniform 6;
    }
    frontAndBackPlanes
    {
        type            empty;
    }
}


// ************************************************************************* //
