/*--------------------------------*- C++ -*----------------------------------*\
  =========                 |
  \\      /  F ield         | OpenFOAM: The Open Source CFD Toolbox
   \\    /   O peration     | Website:  https://openfoam.org
    \\  /    A nd           | Version:  7
     \\/     M anipulation  |
\*---------------------------------------------------------------------------*/
FoamFile
{
    version     2.0;
    format      ascii;
    class       volScalarField;
    location    "0.08";
    object      gradTx;
}
// * * * * * * * * * * * * * * * * * * * * * * * * * * * * * * * * * * * * * //

dimensions      [0 -1 0 1 0 0 0];

internalField   nonuniform List<scalar> 
1596
(
-0.672452
-3.36814
-5.94899
-8.12245
-9.83313
-11.0664
-11.9158
-12.4522
-12.7621
-12.9703
-13.1138
-13.3219
-13.7339
-14.5394
-15.9519
-18.433
-22.6371
-29.921
-43.0608
0.187238
-2.69415
-5.20112
-7.25036
-8.85964
-10.0337
-10.8567
-11.3778
-11.6717
-11.8182
-11.8415
-11.8195
-11.7882
-11.8012
-11.876
-12.0277
-12.119
-11.8212
-10.3762
0.908208
-1.97852
-4.31136
-6.16825
-7.61862
-8.68829
-9.44862
-9.93852
-10.2167
-10.3372
-10.3161
-10.2
-9.98935
-9.69199
-9.29308
-8.76875
-8.01226
-6.81942
-4.73724
1.073
-1.45003
-3.44199
-5.01887
-6.25475
-7.18143
-7.85211
-8.29756
-8.56079
-8.6779
-8.66214
-8.53943
-8.29904
-7.92981
-7.40778
-6.70085
-5.73946
-4.41365
-2.47553
0.524298
-1.27475
-2.76261
-3.97553
-4.94728
-5.69668
-6.25373
-6.6391
-6.88085
-7.00071
-7.01082
-6.92352
-6.72594
-6.39962
-5.91879
-5.24789
-4.33907
-3.13188
-1.49624
-0.632817
-1.52454
-2.40461
-3.19163
-3.85937
-4.40061
-4.82011
-5.12568
-5.33094
-5.44526
-5.47878
-5.43461
-5.30086
-5.05721
-4.67886
-4.12818
-3.367
-2.35483
-1.02007
-2.12568
-2.16026
-2.42009
-2.75605
-3.09522
-3.40335
-3.66262
-3.86658
-4.01529
-4.10721
-4.14831
-4.13526
-4.05739
-3.89517
-3.62616
-3.21281
-2.6209
-1.8155
-0.749625
-3.63551
-3.01974
-2.73992
-2.65057
-2.66436
-2.73056
-2.81616
-2.90201
-2.97646
-3.02861
-3.05842
-3.05774
-3.01633
-2.91649
-2.73875
-2.44813
-2.01307
-1.39944
-0.568793
-5.15912
-4.14981
-3.43879
-2.95565
-2.63898
-2.44128
-2.32588
-2.26542
-2.23911
-2.22772
-2.22339
-2.21317
-2.18538
-2.12359
-2.01082
-1.81629
-1.51127
-1.06226
-0.432981
-6.05842
-4.96314
-4.03477
-3.29643
-2.7361
-2.327
-2.0406
-1.84878
-1.72674
-1.65037
-1.60534
-1.57508
-1.5461
-1.50296
-1.43089
-1.30428
-1.09841
-0.78268
-0.323155
-6.80804
-5.71147
-4.67398
-3.76142
-3.00635
-2.41099
-1.96325
-1.64083
-1.41908
-1.27139
-1.17786
-1.11848
-1.07711
-1.03817
-0.988074
-0.905909
-0.771111
-0.557346
-0.234194
-7.60477
-6.54761
-5.44923
-4.403
-3.47617
-2.70173
-2.08898
-1.62696
-1.2949
-1.06549
-0.914234
-0.817152
-0.754401
-0.708825
-0.666619
-0.610183
-0.522608
-0.382329
-0.16357
-7.89646
-6.9853
-5.93109
-4.85307
-3.84355
-2.96128
-2.23599
-1.67083
-1.25238
-0.955894
-0.75535
-0.624433
-0.540562
-0.485034
-0.443442
-0.40051
-0.342378
-0.252193
-0.109574
-8.06698
-7.29689
-6.31595
-5.24417
-4.18911
-3.23084
-2.41753
-1.76695
-1.27424
-0.9185
-0.673636
-0.51165
-0.407574
-0.340928
-0.296231
-0.259381
-0.218574
-0.160761
-0.0705455
-8.20238
-7.55082
-6.6442
-5.59351
-4.51264
-3.49782
-2.61324
-1.89059
-1.33373
-0.926045
-0.642135
-0.452645
-0.33046
-0.253212
-0.204061
-0.169184
-0.137929
-0.099952
-0.0438592
-8.17794
-7.65417
-6.8337
-5.82495
-4.74468
-3.70073
-2.77017
-1.9969
-1.39308
-0.946504
-0.633124
-0.422833
-0.286951
-0.20155
-0.14857
-0.11406
-0.0879406
-0.0616295
-0.0266374
-7.96667
-7.57178
-6.84971
-5.90319
-4.84979
-3.80522
-2.85641
-2.05724
-1.42703
-0.957676
-0.626855
-0.404309
-0.260495
-0.170501
-0.115457
-0.0812521
-0.0581226
-0.0385932
-0.0161194
-7.6761
-7.37069
-6.73916
-5.861
-4.84863
-3.82187
-2.87484
-2.06907
-1.42955
-0.951515
-0.614141
-0.387298
-0.241059
-0.150021
-0.0949237
-0.0616328
-0.0406417
-0.0251907
-0.00998016
-7.45015
-7.21637
-6.64983
-5.81957
-4.83454
-3.81824
-2.87122
-2.06104
-1.41674
-0.935434
-0.596684
-0.369926
-0.22462
-0.134885
-0.0811836
-0.0494054
-0.0302573
-0.0174595
-0.00649268
-6.88329
-6.76336
-6.29719
-5.55281
-4.63569
-3.66975
-2.75928
-1.97592
-1.35196
-0.886498
-0.560117
-0.342836
-0.204567
-0.119904
-0.0697746
-0.0405788
-0.0235003
-0.0127726
-0.00447814
-6.18306
-6.16076
-5.7973
-5.14994
-4.3185
-3.4244
-2.57267
-1.83654
-1.25009
-0.813859
-0.509547
-0.30836
-0.181391
-0.104393
-0.0593106
-0.0334297
-0.0186226
-0.00969381
-0.00324926
-5.38791
-5.43259
-5.16334
-4.61924
-3.88947
-3.08833
-2.31758
-1.64891
-1.11647
-0.721782
-0.448007
-0.26835
-0.155946
-0.0884504
-0.0493711
-0.0272401
-0.0148115
-0.00752303
-0.00245721
-4.43183
-4.51344
-4.33313
-3.90773
-3.30845
-2.63468
-1.97844
-1.40565
-0.948783
-0.610538
-0.376698
-0.224037
-0.129112
-0.0725237
-0.0400413
-0.0218563
-0.0118158
-0.00606442
-0.00208576
-3.28044
-3.238
-3.018
-2.64773
-2.18658
-1.70323
-1.25453
-0.876141
-0.582183
-0.369107
-0.224365
-0.131404
-0.074495
-0.0411096
-0.0222827
-0.0119934
-0.00652319
-0.00353677
-0.00141296
-2.19765
-2.39474
-2.47086
-2.38047
-2.13553
-1.78769
-1.40236
-1.03573
-0.724413
-0.482367
-0.307702
-0.189458
-0.113222
-0.0661363
-0.0381168
-0.0220214
-0.013113
-0.00841066
-0.00587254
-0.730487
-0.795762
-0.852448
-0.871892
-0.840371
-0.75996
-0.645053
-0.514915
-0.388477
-0.278402
-0.190648
-0.12595
-0.0807338
-0.0505814
-0.0311972
-0.0192315
-0.0121759
-0.00840458
-0.00669576
0.749085
0.686839
0.55324
0.378322
0.199522
0.0485739
-0.0566662
-0.113618
-0.131519
-0.123988
-0.103748
-0.0806333
-0.0594521
-0.0422547
-0.0291837
-0.0198639
-0.0136113
-0.00992967
-0.00814304
2.20182
2.11765
1.89996
1.58253
1.21828
0.862269
0.556785
0.323022
0.162281
0.0629055
0.00852677
-0.0174049
-0.0267829
-0.0275838
-0.0242646
-0.0196042
-0.0150653
-0.0117394
-0.00984376
3.46749
3.32924
3.02449
2.59072
2.08673
1.57779
1.11912
0.743754
0.461881
0.265806
0.139051
0.0618051
0.0176616
-0.00565564
-0.0159046
-0.0185308
-0.0170011
-0.0143676
-0.0122485
4.7077
4.48283
4.07406
3.52247
2.89133
2.25105
1.66297
1.16628
0.776976
0.490904
0.292819
0.161569
0.0779542
0.0266514
-0.00237927
-0.0164539
-0.0203417
-0.0191098
-0.0164633
5.55354
5.23839
4.75015
4.12818
3.43283
2.72964
2.0767
1.51275
1.05641
0.707114
0.452987
0.27449
0.152395
0.070386
0.0177655
-0.0132222
-0.0268053
-0.0288692
-0.0251807
6.26684
5.8768
5.31443
4.63096
3.88621
3.13982
2.4441
1.83437
1.32932
0.93043
0.628899
0.407343
0.247336
0.1321
0.0506204
-0.00495138
-0.0363961
-0.0476745
-0.0447772
6.84958
6.3624
5.72752
4.99682
4.22428
3.46016
2.74808
2.11751
1.58529
1.15376
0.816929
0.560161
0.366629
0.219528
0.107233
0.0204343
-0.0402128
-0.0739453
-0.0786234
7.11615
6.49439
5.76716
4.98285
4.18706
3.41932
2.71312
2.09029
1.56333
1.13309
0.793675
0.531948
0.33201
0.176747
0.0526769
-0.0528989
-0.141859
-0.212379
-0.254404
7.175
6.51105
5.79698
5.0658
4.34294
3.65001
3.00652
2.42635
1.91916
1.4879
1.13112
0.842431
0.611858
0.427716
0.278454
0.150328
0.0335034
-0.0804591
-0.193902
7.1516
6.47516
5.79147
5.10919
4.43919
3.79491
3.19057
2.63776
2.1456
1.71802
1.35545
1.05466
0.808396
0.608522
0.446776
0.3141
0.202685
0.105168
0.0140404
6.5769
5.81184
5.09165
4.40955
3.7682
3.17435
2.63512
2.1554
1.7381
1.38209
1.08414
0.838888
0.638322
0.474592
0.340551
0.229471
0.136277
0.0579326
-0.00819029
5.635
4.96156
4.33621
3.75153
3.20783
2.70854
2.25744
1.85691
1.50814
1.20947
0.957936
0.7491
0.576484
0.433814
0.315412
0.215822
0.130806
0.0577896
-0.00549657
4.58844
4.03821
3.52416
3.04534
2.60295
2.19924
1.83623
1.51483
1.23522
0.995463
0.792921
0.623886
0.483162
0.365788
0.267363
0.183624
0.111332
0.0486232
-0.00618391
3.40213
2.98534
2.59989
2.24435
1.91844
1.62269
1.35768
1.12343
0.919603
0.744488
0.596073
0.471611
0.367351
0.279747
0.205717
0.142247
0.0871064
0.0390846
-0.00295187
2.12015
1.84318
1.59676
1.37446
1.17329
0.992144
0.830576
0.688113
0.564279
0.457838
0.367484
0.291495
0.227576
0.173577
0.127659
0.0880176
0.0533459
0.0229807
-0.00370255
0.807749
0.693044
0.595699
0.509679
0.43265
0.363784
0.302753
0.249295
0.203147
0.163769
0.130589
0.102883
0.0797322
0.0602792
0.0437864
0.0295437
0.0170316
0.00597451
-0.00386611
-0.807363
-0.692152
-0.594458
-0.508218
-0.431076
-0.362183
-0.301194
-0.247826
-0.201802
-0.162566
-0.129537
-0.101981
-0.0789762
-0.0596628
-0.0433027
-0.0291873
-0.016798
-0.00585935
0.00386684
-2.11978
-1.84238
-1.59565
-1.37316
-1.17189
-0.990735
-0.829211
-0.686837
-0.563119
-0.456809
-0.366593
-0.290739
-0.226951
-0.173078
-0.127279
-0.0877519
-0.0531911
-0.0229329
0.00364736
-3.40175
-2.98453
-2.59879
-2.24305
-1.91704
-1.62128
-1.35632
-1.12215
-0.918448
-0.743467
-0.595191
-0.470864
-0.366731
-0.279244
-0.205321
-0.141948
-0.0868971
-0.0389568
0.00300497
-4.58812
-4.03759
-3.52333
-3.04436
-2.60192
-2.19821
-1.83525
-1.51394
-1.23444
-0.994795
-0.792365
-0.623434
-0.482805
-0.365515
-0.267166
-0.183493
-0.111261
-0.0486053
0.00615365
-5.63476
-4.96109
-4.33556
-3.75078
-3.20703
-2.70775
-2.25671
-1.85626
-1.5076
-1.20903
-0.95759
-0.748837
-0.576293
-0.433682
-0.315329
-0.215777
-0.130792
-0.057797
0.00547785
-6.57681
-5.81157
-5.09124
-4.40906
-3.76769
-3.17388
-2.63472
-2.1551
-1.7379
-1.38198
-1.0841
-0.838907
-0.638381
-0.474676
-0.340651
-0.229575
-0.136375
-0.058009
0.00814657
-7.15146
-6.47436
-5.78995
-5.10705
-4.43659
-3.79206
-3.18764
-2.63493
-2.14298
-1.71568
-1.35341
-1.05291
-0.806915
-0.607259
-0.445682
-0.31314
-0.201853
-0.104525
-0.0137253
-7.17609
-6.51403
-5.80183
-5.07229
-4.3507
-3.65858
-3.01544
-2.43519
-1.92757
-1.49562
-1.13803
-0.848489
-0.617112
-0.43228
-0.282481
-0.154006
-0.0369813
0.0771314
0.190874
-7.11552
-6.49285
-5.76485
-4.98002
-4.18396
-3.41616
-2.71005
-2.08742
-1.5607
-1.13071
-0.791541
-0.530039
-0.330304
-0.175219
-0.0512851
0.054218
0.143244
0.214089
0.256801
-6.84991
-6.36326
-5.7289
-4.99867
-4.2265
-3.4626
-2.75058
-2.11991
-1.58747
-1.15565
-0.818502
-0.561428
-0.367625
-0.220288
-0.107775
-0.0207451
0.0401639
0.0741622
0.0790364
-6.26702
-5.87732
-5.31534
-4.63225
-3.88782
-3.14163
-2.44596
-1.83614
-1.33091
-0.931768
-0.629977
-0.408182
-0.247968
-0.132555
-0.0509085
0.00484638
0.0364809
0.0478887
0.0449929
-5.55376
-5.23896
-4.75113
-4.12955
-3.43451
-2.73148
-2.07855
-1.51445
-1.05788
-0.708302
-0.453909
-0.275182
-0.152902
-0.0707398
-0.0179819
0.0131426
0.0268522
0.0289895
0.0252702
-4.70793
-4.48346
-4.07513
-3.52395
-2.89309
-2.25292
-1.66476
-1.16787
-0.778288
-0.491925
-0.29358
-0.16212
-0.0783425
-0.0269121
0.00222649
0.0163973
0.0203618
0.0191688
0.0164994
-3.46771
-3.32989
-3.02559
-2.5922
-2.08843
-1.57952
-1.12072
-0.745111
-0.462951
-0.266601
-0.139618
-0.0621983
-0.0179271
0.005487
0.0158134
0.0185019
0.0170146
0.0143985
0.012264
-2.2021
-2.1184
-1.90117
-1.58408
-1.21998
-0.863907
-0.558213
-0.324163
-0.163127
-0.0634969
-0.00892309
0.0171474
0.0266215
0.0274913
0.0242231
0.019599
0.0150805
0.01176
0.00985383
-0.74934
-0.6876
-0.554453
-0.379812
-0.201065
-0.0499767
0.0555234
0.11277
0.130938
0.123616
0.103522
0.0805025
0.0593823
0.0422252
0.0291809
0.0198771
0.0136304
0.00994773
0.00815391
0.729854
0.793912
0.849606
0.868536
0.837024
0.757024
0.642731
0.513232
0.387344
0.277687
0.190219
0.125706
0.080603
0.0505188
0.0311734
0.0192279
0.0121799
0.00841051
0.00670296
2.19802
2.39611
2.4732
2.38346
2.13876
1.79076
1.40499
1.0378
0.725926
0.483413
0.308392
0.189899
0.113499
0.0663093
0.0382263
0.0220925
0.0131606
0.00844413
0.00589642
3.27993
3.23635
3.01542
2.64466
2.18348
1.70043
1.25222
0.874377
0.580914
0.368242
0.223802
0.131052
0.0742835
0.0409875
0.022215
0.0119571
0.00650432
0.00352754
0.00140995
4.43205
4.51388
4.33372
3.90838
3.30906
2.63517
1.9788
1.40588
0.948923
0.610616
0.376738
0.224057
0.129122
0.0725296
0.0400452
0.021859
0.0118176
0.00606565
0.00208659
5.38792
5.4326
5.16333
4.61922
3.88942
3.08828
2.31753
1.64887
1.11644
0.721767
0.448002
0.268352
0.155951
0.0884559
0.0493763
0.0272444
0.0148148
0.00752533
0.00245817
6.18307
6.16078
5.7973
5.14992
4.31846
3.42436
2.57263
1.83651
1.25007
0.81385
0.509546
0.308365
0.181398
0.1044
0.0593167
0.033435
0.018627
0.00969685
0.00325025
6.88329
6.76338
6.2972
5.5528
4.63566
3.66972
2.75925
1.97589
1.35194
0.88649
0.560116
0.342839
0.204573
0.119911
0.0697817
0.0405858
0.0235066
0.0127771
0.00447958
7.45017
7.21641
6.64986
5.81959
4.83454
3.81822
2.8712
2.06102
1.41673
0.935425
0.596681
0.369929
0.224626
0.134893
0.0811928
0.0494155
0.0302671
0.0174667
0.00649486
7.67611
7.37072
6.73919
5.86102
4.84863
3.82186
2.87483
2.06905
1.42953
0.951505
0.614137
0.3873
0.241066
0.150032
0.0949371
0.0616483
0.0406568
0.0252015
0.00998317
7.96667
7.5718
6.84973
5.90321
4.84979
3.80521
2.8564
2.05722
1.42701
0.957666
0.626852
0.404313
0.260505
0.170517
0.115478
0.0812752
0.0581444
0.0386078
0.0161229
8.17795
7.65419
6.83373
5.82497
4.7447
3.70074
2.77016
1.99689
1.39307
0.946497
0.633124
0.42284
0.286966
0.201572
0.148599
0.114092
0.0879685
0.0616464
0.0266403
8.20237
7.55082
6.64422
5.59354
4.51265
3.49782
2.61324
1.89058
1.33372
0.926041
0.642138
0.452657
0.330482
0.253243
0.204098
0.169221
0.137958
0.0999664
0.0438596
8.06698
7.29691
6.31598
5.2442
4.18914
3.23085
2.41754
1.76695
1.27424
0.918503
0.673646
0.51167
0.407604
0.340966
0.296272
0.259417
0.218595
0.160765
0.070541
7.89648
6.98533
5.93112
4.85311
3.84358
2.96131
2.236
1.67084
1.25239
0.955906
0.755368
0.62446
0.540597
0.485071
0.443474
0.400528
0.342377
0.252177
0.109564
7.60475
6.5476
5.44923
4.40301
3.47617
2.70174
2.08898
1.62696
1.29491
1.0655
0.914253
0.817177
0.754428
0.708847
0.666624
0.610164
0.522569
0.382288
0.163555
6.80808
5.71151
4.67402
3.76145
3.00637
2.41101
1.96327
1.64085
1.4191
1.27141
1.17788
1.1185
1.07711
1.03815
0.988032
0.905839
0.771028
0.557284
0.234179
6.05849
4.96319
4.0348
3.29645
2.73611
2.32702
2.04062
1.84879
1.72675
1.65038
1.60534
1.57507
1.54607
1.50289
1.43078
1.30416
1.09829
0.782612
0.323149
5.15918
4.14985
3.4388
2.95565
2.63899
2.4413
2.3259
2.26543
2.23912
2.22771
2.22337
2.21311
2.18529
2.12346
2.01067
1.81614
1.51115
1.06221
0.432991
3.63556
3.01976
2.73993
2.65058
2.66437
2.73057
2.81617
2.90201
2.97644
3.02857
3.05835
3.05764
3.0162
2.91633
2.73858
2.44799
2.013
1.39944
0.568819
2.12571
2.16029
2.42012
2.75608
3.09525
3.40337
3.66262
3.86657
4.01525
4.10715
4.14821
4.13513
4.05723
3.89501
3.62603
3.21274
2.62091
1.81555
0.74966
0.632842
1.52457
2.40466
3.19168
3.8594
4.40062
4.8201
5.12565
5.33088
5.44517
5.47866
5.43448
5.30073
5.05711
4.67882
4.12822
3.3671
2.35493
1.0201
-0.524284
1.2748
2.76268
3.97558
4.9473
5.69668
6.2537
6.63905
6.88079
7.00062
7.01073
6.92343
6.72587
6.39961
5.91886
5.24802
4.33922
3.13198
1.49624
-1.07299
1.45007
3.44203
5.0189
6.25475
7.18142
7.85208
8.29751
8.56074
8.67785
8.66209
8.53941
8.29906
7.9299
7.40793
6.70103
5.73961
4.4137
2.47551
-0.90821
1.97853
4.31136
6.16823
7.61859
8.68826
9.44858
9.93848
10.2166
10.3372
10.3162
10.2
9.98946
9.69215
9.29326
8.76889
8.01232
6.8194
4.73719
-0.187233
2.69414
5.20107
7.2503
8.85959
10.0337
10.8567
11.3778
11.6717
11.8182
11.8415
11.8196
11.7884
11.8014
11.8761
12.0277
12.1189
11.8211
10.3762
0.672463
3.36812
5.94894
8.12239
9.83307
11.0664
11.9158
12.4522
12.7621
12.9704
13.1139
13.322
13.734
14.5395
15.9519
18.4328
22.637
29.9209
43.0609
)
;

boundaryField
{
    up
    {
        type            calculated;
        value           nonuniform List<scalar> 
84
(
-43.0608
-10.3762
-4.73724
-2.47553
-1.49624
-1.02007
-0.749625
-0.568793
-0.432981
-0.323155
-0.234194
-0.16357
-0.109574
-0.0705455
-0.0438592
-0.0266374
-0.0161194
-0.00998016
-0.00649268
-0.00447814
-0.00324926
-0.00245721
-0.00208576
-0.00141296
-0.00474317
-0.00589779
-0.00723592
-0.00866919
-0.0104778
-0.0134219
-0.0193473
-0.0318752
-0.0525433
-0.232224
-0.192006
0.014239
-0.00761083
-0.00510791
-0.00593563
-0.00282988
-0.00363913
-0.00384139
0.00384232
0.00358462
0.00288345
0.00590681
0.00509094
0.00756902
-0.0139285
0.189065
0.235012
0.0529246
0.0319855
0.0193607
0.0134119
0.0104675
0.00866573
0.00724018
0.00590561
0.00476172
0.00140995
0.00208659
0.00245817
0.00325025
0.00447958
0.00649486
0.00998317
0.0161229
0.0266403
0.0438596
0.070541
0.109564
0.163555
0.234179
0.323149
0.432991
0.568819
0.74966
1.0201
1.49624
2.47551
4.73719
10.3762
43.0609
)
;
    }
    low
    {
        type            calculated;
        value           nonuniform List<scalar> 
84
(
-0.60269
0.295505
1.07663
1.24855
0.629909
-0.651479
-2.2726
-3.87323
-5.42873
-6.28244
-7.01537
-7.79163
-8.01449
-8.14931
-8.26758
-8.20592
-7.95904
-7.66188
-7.40971
-6.78096
-6.0397
-5.2204
-4.24755
-3.1045
-2.04764
-0.673839
0.683979
2.04466
3.2782
4.53956
5.4415
6.19737
6.83126
7.15497
7.25358
7.27588
6.74483
5.79805
4.72608
3.50748
2.18816
0.835668
-0.83528
-2.18778
-3.50707
-4.72573
-5.79776
-6.74468
-7.27568
-7.25449
-7.15434
-6.83149
-6.19751
-5.44169
-4.53978
-3.27842
-2.04494
-0.684237
0.673217
2.048
3.10402
4.24773
5.2204
6.0397
6.78095
7.40972
7.66189
7.95905
8.20593
8.26757
8.14931
8.01451
7.79161
7.0154
6.28251
5.42878
3.87326
2.27263
0.651506
-0.629894
-1.24856
-1.07666
-0.295525
0.602694
)
;
    }
    left
    {
        type            calculated;
        value           nonuniform List<scalar> 
19
(
-0.608616
-3.26923
-5.92523
-8.19336
-9.99252
-11.2928
-12.1917
-12.7685
-13.1087
-13.3617
-13.5637
-13.8539
-14.4106
-15.4767
-17.3117
-20.5467
-26.0815
-35.8049
-37.3326
)
;
    }
    right
    {
        type            calculated;
        value           nonuniform List<scalar> 
19
(
0.608628
3.26923
5.92519
8.19331
9.99247
11.2927
12.1917
12.7685
13.1087
13.3618
13.5638
13.854
14.4106
15.4767
17.3116
20.5466
26.0813
35.8049
37.3327
)
;
    }
    frontAndBackPlanes
    {
        type            empty;
    }
}


// ************************************************************************* //
