/*--------------------------------*- C++ -*----------------------------------*\
  =========                 |
  \\      /  F ield         | OpenFOAM: The Open Source CFD Toolbox
   \\    /   O peration     | Website:  https://openfoam.org
    \\  /    A nd           | Version:  7
     \\/     M anipulation  |
\*---------------------------------------------------------------------------*/
FoamFile
{
    version     2.0;
    format      ascii;
    class       volScalarField;
    location    "0.08";
    object      T;
}
// * * * * * * * * * * * * * * * * * * * * * * * * * * * * * * * * * * * * * //

dimensions      [0 0 0 1 0 0 0];

internalField   nonuniform List<scalar> 
1596
(
6.95709
6.83567
6.71625
6.6119
6.52749
6.46292
6.41605
6.38224
6.35809
6.33731
6.31582
6.28762
6.24071
6.15967
6.02251
5.78472
5.36815
4.61993
3.23417
6.81723
6.44486
6.10841
5.82381
5.5961
5.42229
5.29545
5.20473
5.14081
5.09086
5.04531
4.99245
4.91284
4.78343
4.57678
4.24797
3.7349
2.93878
1.67821
6.65982
6.04777
5.5203
5.08339
4.73662
4.47258
4.27967
4.14254
4.04744
3.9779
3.92125
3.86336
3.78352
3.65815
3.46097
3.1531
2.68767
2.0016
0.987867
6.51729
5.69782
5.00981
4.4468
4.00173
3.66282
3.41457
3.23846
3.11755
3.03325
2.97118
2.91638
2.84921
2.7481
2.58975
2.3415
1.96692
1.42292
0.64339
6.4143
5.4346
4.61839
3.95248
3.42549
3.02278
2.72616
2.51505
2.37031
2.27204
2.20481
2.15343
2.09997
2.02551
1.91006
1.72636
1.44497
1.03352
0.44731
6.3604
5.27377
4.36135
3.61269
3.01647
2.55751
2.21653
1.97193
1.80313
1.68938
1.6144
1.56291
1.51859
1.46501
1.38527
1.2568
1.05534
0.754703
0.32145
6.34894
5.20595
4.22754
3.41422
2.75938
2.24995
1.86728
1.58974
1.39601
1.26476
1.17894
1.12307
1.08198
1.0413
0.986795
0.899962
0.760823
0.547534
0.23321
6.36446
5.20576
4.18832
3.32718
2.62376
2.06948
1.64791
1.33836
1.11942
0.969406
0.870569
0.807039
0.764332
0.729535
0.690529
0.632284
0.538578
0.39124
0.168064
6.39532
5.24923
4.21428
3.31996
2.57732
1.98381
1.5265
1.1865
0.942875
0.773866
0.661066
0.588096
0.540692
0.506825
0.475904
0.435699
0.373248
0.273766
0.119047
6.42469
5.30436
4.26763
3.35359
2.58196
1.95655
1.46861
1.10164
0.835672
0.649115
0.523071
0.440623
0.387417
0.35185
0.324322
0.294719
0.252781
0.186797
0.0822633
6.44431
5.34993
4.32024
3.3975
2.60714
1.95838
1.44654
1.05771
0.773235
0.57192
0.434588
0.343861
0.28515
0.246972
0.220295
0.196513
0.167463
0.12408
0.0552045
6.4635
5.3922
4.3713
3.44483
2.64192
1.97583
1.44539
1.0391
0.739659
0.526358
0.379873
0.282426
0.219112
0.178367
0.151408
0.130606
0.109307
0.0805519
0.0360013
6.4781
5.42496
4.41162
3.48353
2.67227
1.99396
1.45007
1.031
0.720605
0.498608
0.345586
0.243435
0.17693
0.134344
0.106958
0.087737
0.0710455
0.0514749
0.0229056
6.48253
5.43843
4.42961
3.50099
2.68518
1.99989
1.44819
1.02175
0.705123
0.478332
0.32187
0.21738
0.1494
0.106058
0.0786481
0.060498
0.0466401
0.0327493
0.0143322
6.48301
5.4388
4.42905
3.49829
2.67935
1.99052
1.43547
1.00626
0.68769
0.459753
0.302781
0.198207
0.130403
0.0874153
0.0605613
0.0434187
0.031462
0.021095
0.00894654
6.48152
5.43024
4.41354
3.47742
2.65508
1.96472
1.40969
0.981667
0.66498
0.439262
0.284514
0.181949
0.115844
0.0742506
0.0485614
0.0325739
0.0220846
0.0139924
0.00567339
6.47553
5.41032
4.38118
3.43654
2.61032
1.92025
1.36853
0.945589
0.634631
0.414489
0.264655
0.166115
0.103142
0.0638981
0.039949
0.0253414
0.0161553
0.0096538
0.00371495
6.46655
5.38117
4.33434
3.37787
2.54685
1.85834
1.3127
0.898288
0.59651
0.384962
0.242429
0.149665
0.0910299
0.0549154
0.0331661
0.0201381
0.0122001
0.00691932
0.00253152
6.46215
5.35466
4.28529
3.31245
2.47388
1.78621
1.24757
0.843561
0.553118
0.352163
0.218544
0.13273
0.0792217
0.0467252
0.0274465
0.0161042
0.00937275
0.00509595
0.00178784
6.46049
5.33121
4.23597
3.24281
2.39391
1.70608
1.17499
0.782861
0.505537
0.316822
0.193406
0.11544
0.0676195
0.0390556
0.0223964
0.0127778
0.00720485
0.00379147
0.00128943
6.45686
5.30525
4.18256
3.16694
2.30628
1.61815
1.09564
0.717065
0.454622
0.279647
0.167521
0.0980888
0.0563304
0.0318651
0.0178682
0.00994722
0.00546346
0.0028025
0.000932534
6.45515
5.28198
4.131
3.0912
2.2172
1.52801
1.01416
0.64977
0.403006
0.242449
0.142053
0.0813636
0.045711
0.0252925
0.0138654
0.00753933
0.00404265
0.00202855
0.000664752
6.45761
5.26657
4.08808
3.02313
2.13412
1.44229
0.93597
0.585081
0.353572
0.20712
0.118159
0.065917
0.0360885
0.0194686
0.0104078
0.00551585
0.00287964
0.00140783
0.000454
6.46388
5.26075
4.0579
2.96858
2.06366
1.36736
0.866471
0.5271
0.309157
0.175447
0.096866
0.0522775
0.0276936
0.0144615
0.00748314
0.00382855
0.00191209
0.000874528
0.000249478
6.4818
5.29369
4.09112
2.99334
2.07716
1.37106
0.863787
0.521484
0.303113
0.170315
0.0930773
0.0497404
0.0261166
0.0135366
0.00696164
0.00353558
0.00173548
0.000755728
0.00018496
6.50526
5.35392
4.17413
3.08355
2.16143
1.44114
0.916796
0.558477
0.327211
0.185135
0.10176
0.0546377
0.0288014
0.0149836
0.00774113
0.00396184
0.00197043
0.000876318
0.000223588
6.51964
5.40081
4.24817
3.17279
2.25225
1.52253
0.982581
0.607188
0.360638
0.206593
0.11474
0.0620771
0.0328546
0.017088
0.00879119
0.00447359
0.00221888
0.000991218
0.000257594
6.52492
5.43228
4.30937
3.25666
2.34608
1.61342
1.06123
0.669188
0.405754
0.237196
0.134226
0.0737673
0.0394574
0.0205797
0.0105092
0.00525537
0.00254917
0.00111697
0.000287073
6.52554
5.455
4.36349
3.33891
2.445
1.71516
1.15426
0.746526
0.4651
0.27967
0.162781
0.0918672
0.0502522
0.0265854
0.013583
0.00667152
0.00312317
0.00130951
0.000321015
6.52261
5.47256
4.41417
3.42167
2.54947
1.8273
1.26123
0.839462
0.539817
0.335852
0.20259
0.118547
0.0671317
0.0365713
0.0190126
0.00930603
0.00422144
0.00167279
0.000378756
6.51932
5.49156
4.46807
3.50991
2.6624
1.95124
1.3829
0.948864
0.631309
0.407748
0.256074
0.156366
0.0925098
0.0525855
0.0283397
0.0141486
0.00635212
0.00239663
0.000496005
6.52261
5.52172
4.53433
3.61091
2.78897
2.09038
1.52158
1.07667
0.741675
0.49786
0.326137
0.208461
0.12953
0.0775365
0.0440037
0.0229715
0.0105345
0.00386628
0.000724962
6.52857
5.55698
4.60661
3.71874
2.92396
2.24047
1.67421
1.22119
0.870647
0.607282
0.415017
0.277926
0.181825
0.115284
0.0697692
0.0390543
0.0191304
0.00723767
0.00115463
6.53598
5.5953
4.68272
3.83135
3.06557
2.40003
1.8398
1.38214
1.01888
0.737727
0.525481
0.368482
0.253921
0.171024
0.111357
0.0683915
0.037836
0.0169771
0.0038285
6.54183
5.62748
4.74758
3.92888
3.1905
2.54379
1.99259
1.53465
1.16351
0.869114
0.640631
0.46643
0.335132
0.236821
0.163361
0.107968
0.0657909
0.0336415
0.00940216
6.53853
5.63276
4.76986
3.97131
3.252
2.62049
2.07916
1.62548
1.25356
0.954342
0.718269
0.534883
0.393743
0.285621
0.202832
0.138678
0.0881757
0.0477499
0.0146639
6.52851
5.61938
4.76281
3.9754
3.26854
2.64843
2.11605
1.66823
1.29907
0.999819
0.761487
0.574223
0.428094
0.314319
0.225616
0.155553
0.0994273
0.0539596
0.0165862
6.5218
5.61147
4.76083
3.98285
3.28628
2.67554
2.15054
1.70757
1.34071
1.0414
0.801114
0.610476
0.459967
0.341187
0.247202
0.171811
0.110526
0.060288
0.018649
6.51929
5.61
4.76453
3.99384
3.30504
2.70131
2.18176
1.74232
1.37701
1.07743
0.835377
0.641826
0.487572
0.364509
0.265984
0.185988
0.120219
0.0658233
0.020465
6.51779
5.60961
4.76813
4.00292
3.31993
2.72145
2.20603
1.76928
1.4052
1.10546
0.862099
0.666344
0.509216
0.382828
0.280752
0.197132
0.127825
0.0701552
0.0218873
6.51637
5.60837
4.76935
4.00784
3.32888
2.7341
2.22164
1.7869
1.42382
1.12414
0.880021
0.682869
0.523853
0.39524
0.290756
0.204663
0.132938
0.0730447
0.0228295
6.51323
5.60406
4.76626
4.00703
3.33063
2.73827
2.22781
1.79451
1.43231
1.13295
0.888667
0.690978
0.531128
0.401469
0.295817
0.208499
0.135559
0.0745347
0.0233211
6.51325
5.6041
4.76632
4.00709
3.33071
2.73835
2.22788
1.79458
1.43237
1.13301
0.88872
0.691024
0.531168
0.401502
0.295844
0.208519
0.135573
0.0745434
0.0233241
6.51641
5.60849
4.76952
4.00804
3.3291
2.73433
2.22187
1.78711
1.42402
1.12433
0.880182
0.683009
0.523973
0.39534
0.290837
0.204725
0.132983
0.0730716
0.0228389
6.51786
5.6098
4.7684
4.00325
3.32029
2.72182
2.20639
1.76962
1.40552
1.10575
0.862355
0.666566
0.509405
0.382986
0.280879
0.19723
0.127895
0.0701968
0.0219017
6.51939
5.61025
4.7649
3.99428
3.30552
2.7018
2.18225
1.74278
1.37744
1.07782
0.835717
0.64212
0.487821
0.364715
0.266149
0.186115
0.120309
0.0658768
0.0204835
6.52192
5.61178
4.76129
3.98339
3.28688
2.67616
2.15115
1.70815
1.34124
1.04187
0.801528
0.610831
0.460265
0.341432
0.247397
0.17196
0.11063
0.0603502
0.0186703
6.52865
5.61974
4.76335
3.97605
3.26925
2.64916
2.11677
1.66891
1.29969
1.00037
0.761959
0.574623
0.428426
0.314588
0.225828
0.155712
0.0995374
0.0540242
0.016608
6.53869
5.63318
4.77047
3.97206
3.25283
2.62133
2.07999
1.62625
1.25426
0.954955
0.718792
0.53532
0.3941
0.285905
0.203051
0.13884
0.088285
0.0478132
0.0146855
6.54203
5.62808
4.74852
3.93008
3.19186
2.54522
1.99401
1.53598
1.16472
0.870176
0.641537
0.467186
0.335752
0.237323
0.163764
0.108287
0.0660322
0.0338021
0.00946515
6.53624
5.59602
4.68383
3.83275
3.06715
2.40166
1.8414
1.38362
1.0202
0.738859
0.526425
0.369253
0.25454
0.171515
0.111741
0.0686844
0.038045
0.0171038
0.00387176
6.52878
5.55762
4.60761
3.71999
2.92535
2.24189
1.67557
1.22242
0.871706
0.60816
0.415723
0.27848
0.182252
0.115608
0.0700086
0.0392221
0.0192345
0.00728704
0.00116404
6.52281
5.52233
4.5353
3.61211
2.79029
2.09171
1.52282
1.07777
0.74259
0.498594
0.326705
0.208891
0.129849
0.0777676
0.0441661
0.0230776
0.010594
0.00389005
0.000728077
6.51951
5.49214
4.46899
3.51105
2.66365
1.95247
1.38402
0.949826
0.632089
0.408351
0.256525
0.156694
0.0927426
0.052747
0.028447
0.014214
0.00638571
0.00240838
0.00049672
6.52278
5.4731
4.41503
3.42274
2.55062
1.82843
1.26223
0.840294
0.54047
0.33634
0.202941
0.118792
0.0672983
0.0366811
0.0190812
0.0093448
0.00423957
0.00167828
0.000378661
6.52569
5.45549
4.36428
3.33989
2.44605
1.71616
1.15513
0.747229
0.465635
0.280056
0.163049
0.0920466
0.0503688
0.0266583
0.0136256
0.00669372
0.00313256
0.00131193
0.000320765
6.52504
5.43271
4.31007
3.25753
2.347
1.61428
1.06197
0.669767
0.406181
0.237496
0.134426
0.0738966
0.0395378
0.0206273
0.0105354
0.00526802
0.00255412
0.00111816
0.000286952
6.51975
5.40118
4.24878
3.17354
2.25303
1.52325
0.983182
0.607653
0.360973
0.206821
0.114889
0.0621705
0.0329106
0.0171197
0.00880788
0.00448139
0.002222
0.000992182
0.000257704
6.50536
5.35423
4.17464
3.08417
2.16206
1.44173
0.917276
0.558843
0.327472
0.18531
0.101873
0.0547068
0.028842
0.0150062
0.00775296
0.00396759
0.00197307
0.000877469
0.000223924
6.48181
5.29377
4.09125
2.9935
2.07733
1.37122
0.863922
0.52159
0.30319
0.170368
0.0931119
0.0497617
0.026129
0.0135431
0.00696476
0.00353684
0.00173585
0.000755668
0.000184752
6.46384
5.26067
4.05778
2.96844
2.06352
1.36723
0.866368
0.52702
0.309099
0.175406
0.0968381
0.0522589
0.0276812
0.0144534
0.00747787
0.0038252
0.00191003
0.000873307
0.000248902
6.45761
5.26656
4.08807
3.02312
2.13412
1.44229
0.935981
0.585091
0.35358
0.207125
0.118161
0.0659175
0.036088
0.0194677
0.0104069
0.0055151
0.00287912
0.0014075
0.000453824
6.45515
5.28197
4.13099
3.0912
2.2172
1.52802
1.01417
0.649777
0.403011
0.242452
0.142054
0.0813639
0.0457107
0.025292
0.0138649
0.00753897
0.00404243
0.00202843
0.000664688
6.45685
5.30525
4.18256
3.16694
2.30628
1.61816
1.09564
0.717069
0.454626
0.279649
0.167523
0.0980894
0.0563307
0.0318652
0.0178682
0.00994733
0.00546362
0.00280264
0.000932559
6.46049
5.3312
4.23597
3.24281
2.39391
1.70608
1.17499
0.782862
0.505538
0.316823
0.193407
0.115441
0.0676203
0.0390563
0.0223971
0.0127785
0.00720551
0.00379196
0.00128957
6.46215
5.35466
4.28528
3.31245
2.47388
1.78621
1.24757
0.843561
0.553119
0.352164
0.218545
0.132732
0.079223
0.0467265
0.0274479
0.0161056
0.00937415
0.00509699
0.00178816
6.46655
5.38117
4.33434
3.37787
2.54685
1.85834
1.3127
0.898286
0.596509
0.384962
0.24243
0.149666
0.0910318
0.0549175
0.0331684
0.0201407
0.0122027
0.00692121
0.00253209
6.47553
5.41032
4.38119
3.43655
2.61032
1.92025
1.36853
0.945586
0.634629
0.414489
0.264656
0.166117
0.103145
0.0639014
0.0399529
0.0253458
0.0161595
0.00965691
0.00371585
6.48152
5.43024
4.41354
3.47742
2.65508
1.96472
1.40969
0.981663
0.664978
0.439262
0.284515
0.181951
0.115848
0.0742557
0.0485676
0.0325808
0.0220913
0.0139971
0.00567461
6.48301
5.43881
4.42905
3.49829
2.67935
1.99052
1.43546
1.00626
0.687687
0.459752
0.302783
0.198211
0.130408
0.0874229
0.0605707
0.043429
0.0314715
0.0211012
0.0089479
6.48253
5.43843
4.42962
3.501
2.68518
1.99988
1.44819
1.02174
0.705121
0.478332
0.321872
0.217385
0.149408
0.106069
0.0786614
0.0605119
0.0466521
0.0327564
0.0143332
6.4781
5.42497
4.41162
3.48353
2.67227
1.99396
1.45006
1.031
0.720604
0.498609
0.345591
0.243443
0.176942
0.134359
0.106975
0.0877537
0.0710586
0.0514813
0.0229058
6.46351
5.39221
4.3713
3.44484
2.64192
1.97583
1.44539
1.0391
0.739659
0.526361
0.37988
0.282437
0.219128
0.178386
0.151428
0.130623
0.109318
0.0805552
0.036
6.44431
5.34993
4.32025
3.3975
2.60714
1.95838
1.44654
1.05771
0.773237
0.571925
0.434597
0.343875
0.285168
0.246992
0.220313
0.196525
0.167467
0.124078
0.0552013
6.42469
5.30436
4.26763
3.35359
2.58196
1.95655
1.46861
1.10164
0.835675
0.649122
0.523082
0.440638
0.387434
0.351866
0.324332
0.294721
0.252775
0.186787
0.0822589
6.39533
5.24923
4.21428
3.31995
2.57731
1.9838
1.52649
1.1865
0.942879
0.773874
0.661077
0.588108
0.540703
0.506831
0.475901
0.435686
0.373229
0.27375
0.119043
6.36446
5.20576
4.18832
3.32717
2.62375
2.06948
1.64791
1.33836
1.11942
0.969412
0.870576
0.807045
0.764332
0.729526
0.690509
0.632255
0.538549
0.391221
0.168062
6.34894
5.20595
4.22753
3.41421
2.75937
2.24995
1.86728
1.58974
1.39602
1.26476
1.17894
1.12306
1.08197
1.04128
0.986759
0.899923
0.76079
0.547518
0.233212
6.3604
5.27377
4.36134
3.61268
3.01646
2.5575
2.21653
1.97193
1.80313
1.68937
1.61439
1.56289
1.51856
1.46497
1.38523
1.25676
1.05531
0.754696
0.321456
6.4143
5.4346
4.61839
3.95248
3.42549
3.02278
2.72616
2.51504
2.3703
2.27203
2.20479
2.1534
2.09993
2.02547
1.91002
1.72633
1.44495
1.03352
0.447318
6.51728
5.69782
5.00981
4.4468
4.00173
3.66282
3.41457
3.23845
3.11754
3.03323
2.97116
2.91634
2.84917
2.74806
2.58971
2.34149
1.96693
1.42293
0.643397
6.65982
6.04778
5.5203
5.08339
4.73663
4.47258
4.27966
4.14253
4.04743
3.97788
3.92123
3.86332
3.78348
3.65812
3.46096
3.1531
2.68768
2.00162
0.987869
6.81722
6.44487
6.10842
5.82382
5.5961
5.42229
5.29545
5.20473
5.1408
5.09084
5.04529
4.99243
4.91283
4.78342
4.57679
4.24799
3.73492
2.93879
1.67821
6.95709
6.83567
6.71625
6.6119
6.52749
6.46292
6.41605
6.38224
6.35809
6.33731
6.31581
6.28762
6.24071
6.15968
6.02252
5.78472
5.36816
4.61993
3.23417
)
;

boundaryField
{
    up
    {
        type            fixedValue;
        value           uniform 0;
    }
    low
    {
        type            fixedValue;
        value           uniform 7;
    }
    left
    {
        type            fixedValue;
        value           uniform 7;
    }
    right
    {
        type            fixedValue;
        value           uniform 7;
    }
    frontAndBackPlanes
    {
        type            empty;
    }
}


// ************************************************************************* //
