/*--------------------------------*- C++ -*----------------------------------*\
  =========                 |
  \\      /  F ield         | OpenFOAM: The Open Source CFD Toolbox
   \\    /   O peration     | Website:  https://openfoam.org
    \\  /    A nd           | Version:  7
     \\/     M anipulation  |
\*---------------------------------------------------------------------------*/
FoamFile
{
    version     2.0;
    format      ascii;
    class       volScalarField;
    location    "0.01";
    object      T;
}
// * * * * * * * * * * * * * * * * * * * * * * * * * * * * * * * * * * * * * //

dimensions      [0 0 0 1 0 0 0];

internalField   nonuniform List<scalar> 
1596
(
3.76681
3.30366
3.0547
2.95373
2.91649
2.90056
2.89186
2.88575
2.88345
2.8831
2.88851
2.90113
2.91953
2.94327
2.96957
2.97165
2.88919
2.5913
1.8577
3.23951
2.11906
1.57893
1.37428
1.30428
1.27822
1.26605
1.259
1.25701
1.25836
1.26721
1.28515
1.3121
1.34979
1.40265
1.4587
1.48304
1.36792
0.909846
2.93247
1.4909
0.8181
0.569788
0.489659
0.464195
0.454923
0.450829
0.450166
0.451657
0.45759
0.468839
0.485712
0.509669
0.545402
0.591666
0.639564
0.633956
0.434585
2.82657
1.26544
0.532882
0.261057
0.174762
0.149636
0.142248
0.139884
0.139611
0.140374
0.143014
0.147855
0.155091
0.165349
0.181094
0.203589
0.233966
0.253647
0.190517
2.82659
1.23324
0.463883
0.170628
0.0759785
0.0488055
0.0414871
0.0395544
0.039223
0.0394357
0.0403238
0.0419573
0.0444
0.0478234
0.0531087
0.0610723
0.073866
0.0879849
0.0747871
2.87128
1.27963
0.477288
0.158889
0.0525589
0.0213463
0.0129823
0.0108751
0.0104127
0.0103812
0.0106091
0.0110672
0.0117632
0.0127224
0.0141773
0.016387
0.0204724
0.0267083
0.026166
2.93188
1.35721
0.521988
0.17421
0.0529819
0.0160953
0.00596093
0.00338464
0.0027757
0.002649
0.00267581
0.00278223
0.00295559
0.00319228
0.00353745
0.00403185
0.00506043
0.00715592
0.00818336
2.99339
1.44442
0.578919
0.199742
0.0612836
0.0173988
0.0049228
0.00166966
0.000877594
0.000694428
0.000664068
0.000679045
0.000716336
0.000769179
0.000842873
0.000932368
0.00113425
0.00170321
0.00229818
3.05248
1.53391
0.64191
0.230789
0.073268
0.0210985
0.00567481
0.00151644
0.000474795
0.000227442
0.00017291
0.000164808
0.000169926
0.000180324
0.000194977
0.000207811
0.000235809
0.000362414
0.000582154
3.09365
1.60307
0.69476
0.258952
0.085099
0.0252436
0.00689079
0.00177433
0.000453806
0.000132547
5.83683e-05
4.2311e-05
3.99886e-05
4.12435e-05
4.39341e-05
4.53299e-05
4.67438e-05
6.94247e-05
0.000133623
3.11567
1.64671
0.731319
0.279924
0.0945112
0.0287766
0.00803581
0.00209337
0.000519842
0.000128121
3.56207e-05
1.45757e-05
1.00547e-05
9.34882e-06
9.65354e-06
9.73384e-06
9.12951e-06
1.21362e-05
2.78932e-05
3.13469
1.68081
0.760005
0.296777
0.1023
0.031794
0.00905293
0.00239796
0.000600135
0.000144153
3.46249e-05
9.25961e-06
3.545e-06
2.30869e-06
2.11537e-06
2.06644e-06
1.8099e-06
1.99688e-06
5.33543e-06
3.14229
1.695
0.773174
0.305291
0.106566
0.0335604
0.00968279
0.00259704
0.000656792
0.000158306
3.71232e-05
8.7475e-06
2.27377e-06
8.22149e-07
5.10518e-07
4.40607e-07
3.67528e-07
3.242e-07
9.44563e-07
3.13309
1.68297
0.766241
0.302808
0.106034
0.0335535
0.00973675
0.00262758
0.000668461
0.000161849
3.79144e-05
8.72353e-06
2.02787e-06
5.17142e-07
1.80495e-07
1.04909e-07
7.75835e-08
5.51442e-08
1.56505e-07
3.11653
1.65469
0.745271
0.292037
0.101657
0.0320476
0.00927987
0.00250154
0.000636048
0.000153916
3.59992e-05
8.23147e-06
1.86471e-06
4.2955e-07
1.08978e-07
3.68544e-08
1.9007e-08
1.067e-08
2.47375e-08
3.09352
1.61297
0.712977
0.27468
0.0942407
0.0293542
0.00841547
0.00224944
0.000567728
0.000136451
3.17009e-05
7.19427e-06
1.61094e-06
3.60583e-07
8.30895e-08
2.10303e-08
6.84456e-09
2.7373e-09
3.895e-09
3.05904
1.55368
0.667966
0.250725
0.0840514
0.0256569
0.00722734
0.00190222
0.000473474
0.000112351
2.57871e-05
5.7828e-06
1.27869e-06
2.81621e-07
6.28717e-08
1.45067e-08
3.69242e-09
1.079e-09
6.95536e-10
3.01553
1.48087
0.613883
0.222465
0.0722193
0.0214234
0.00588413
0.0015143
0.000369367
8.60346e-05
1.94059e-05
4.27976e-06
9.30955e-07
2.016e-07
4.41074e-08
9.82959e-09
2.29346e-09
5.73805e-10
1.82476e-10
2.97383
1.40846
0.5605
0.194947
0.0608598
0.0174136
0.0046284
0.00115624
0.000274483
6.23539e-05
1.3738e-05
2.96261e-06
6.30611e-07
1.33671e-07
2.86129e-08
6.21857e-09
1.39563e-09
3.27253e-10
7.48212e-11
2.92565
1.3289
0.504722
0.167493
0.0499739
0.0137019
0.00350067
0.000843295
0.000193609
4.26446e-05
9.12829e-06
1.91548e-06
3.97189e-07
8.20832e-08
1.71365e-08
3.63096e-09
7.91893e-10
1.79095e-10
3.67674e-11
2.86448
1.23672
0.44442
0.139651
0.0395606
0.0103319
0.00252293
0.000582865
0.000128749
2.7365e-05
5.66662e-06
1.15268e-06
2.32086e-07
4.6632e-08
9.47372e-09
1.95441e-09
4.14861e-10
9.11761e-11
1.79734e-11
2.79872
1.14014
0.384135
0.113268
0.0302209
0.00746684
0.00173254
0.000381891
8.07834e-05
1.64992e-05
3.29287e-06
6.47222e-07
1.26192e-07
2.45971e-08
4.85446e-09
9.73921e-10
2.01175e-10
4.3039e-11
8.27706e-12
2.73429
1.04596
0.327407
0.0895766
0.0222593
0.00515219
0.00112689
0.000235494
4.74676e-05
9.27876e-06
1.77909e-06
3.37046e-07
6.3518e-08
1.19952e-08
2.29817e-09
4.48316e-10
9.01597e-11
1.88006e-11
3.54735e-12
2.67816
0.960738
0.276536
0.0688928
0.0155662
0.00329167
0.000663155
0.000128839
2.43542e-05
4.49742e-06
8.1959e-07
1.48247e-07
2.67657e-08
4.85448e-09
8.95072e-10
1.68206e-10
3.26197e-11
6.54027e-12
1.15614e-12
2.66505
0.931621
0.257997
0.0612127
0.0130965
0.0026245
0.000505224
9.51482e-05
1.77447e-05
3.29075e-06
6.11493e-07
1.14098e-07
2.14073e-08
4.04798e-09
7.78166e-10
1.51943e-10
3.0356e-11
6.09136e-12
8.83977e-13
2.68954
0.951422
0.265252
0.0627419
0.0132054
0.00256508
0.000473152
8.51239e-05
1.53111e-05
2.80195e-06
5.30023e-07
1.03995e-07
2.10905e-08
4.39788e-09
9.44287e-10
2.07864e-10
4.70193e-11
1.06514e-11
1.73712e-12
2.73328
1.00174
0.29016
0.0710416
0.0153145
0.00298971
0.000539149
9.15926e-05
1.50294e-05
2.46479e-06
4.26055e-07
8.14775e-08
1.75632e-08
4.18478e-09
1.07196e-09
2.88021e-10
8.03194e-11
2.2401e-11
4.63932e-12
2.79361
1.08475
0.336722
0.0887222
0.0205529
0.00427698
0.000808398
0.000139555
2.2049e-05
3.19133e-06
4.33424e-07
6.07011e-08
1.11689e-08
3.15338e-09
1.1311e-09
4.28164e-10
1.62081e-10
5.8748e-11
1.53055e-11
2.86572
1.19381
0.403505
0.116583
0.0296997
0.00679721
0.00140991
0.00026558
4.51541e-05
6.78426e-06
8.61957e-07
8.20615e-08
4.1857e-09
6.56605e-10
9.3203e-10
6.82607e-10
3.81596e-10
1.83324e-10
5.94429e-11
2.938
1.31413
0.483994
0.153433
0.0430416
0.0108745
0.00249731
0.000523025
9.95089e-05
1.68858e-05
2.44769e-06
2.61395e-07
5.7554e-09
-5.72443e-09
-9.53404e-10
7.09303e-10
8.04646e-10
5.48314e-10
2.28903e-10
3.00352
1.43434
0.572225
0.197921
0.0608379
0.0169052
0.00428945
0.000999194
0.000213624
4.14299e-05
7.08636e-06
9.70366e-07
6.34528e-08
-1.99721e-08
-1.04563e-08
-2.33828e-09
5.23283e-10
1.13912e-09
7.29623e-10
3.07148
1.56102
0.671532
0.252212
0.0845816
0.0257602
0.00720524
0.00186486
0.00044814
9.94713e-05
2.01165e-05
3.51876e-06
4.36646e-07
-1.65514e-08
-3.93834e-08
-1.94462e-08
-6.56908e-09
-5.44058e-10
1.29885e-09
3.13367
1.68431
0.776281
0.314847
0.11473
0.0382048
0.0117694
0.00338635
0.000916234
0.000233322
5.58565e-05
1.23371e-05
2.3669e-06
3.03073e-07
-3.98102e-08
-5.88496e-08
-3.55193e-08
-1.60188e-08
-3.3137e-09
3.18737
1.79927
0.88278
0.384833
0.151963
0.0552864
0.0187776
0.00602237
0.00184241
0.000541181
0.000154059
4.26819e-05
1.15009e-05
2.98296e-06
7.22422e-07
1.41083e-07
4.15267e-09
-1.889e-08
-1.09766e-08
3.22982
1.89775
0.981489
0.455393
0.192935
0.0758592
0.0280439
0.00986311
0.00333686
0.00109501
0.000352754
0.00011261
3.59245e-05
1.15469e-05
3.78215e-06
1.26097e-06
4.22818e-07
1.29754e-07
1.97473e-08
3.25128
1.95361
1.04172
0.501434
0.221518
0.0912337
0.0354823
0.0131851
0.00473424
0.00165653
0.000571933
0.000196792
6.81054e-05
2.39334e-05
8.65572e-06
3.23358e-06
1.24651e-06
4.67464e-07
1.12583e-07
3.25493
1.97124
1.06403
0.520279
0.234216
0.0986084
0.0393278
0.0150362
0.00557442
0.00202117
0.000726011
0.000260995
9.47834e-05
3.51124e-05
1.34512e-05
5.34525e-06
2.19639e-06
8.75839e-07
2.24408e-07
3.25784
1.98526
1.0828
0.537029
0.246075
0.105801
0.0432253
0.0169791
0.00648568
0.00242955
0.000904206
0.000337765
0.000127828
4.94916e-05
1.98721e-05
8.29434e-06
3.57931e-06
1.49304e-06
3.99275e-07
3.263
2.00027
1.10108
0.55284
0.257171
0.11255
0.0469212
0.018851
0.00738167
0.00284089
0.00108869
0.000419716
0.000164307
6.5951e-05
2.75113e-05
1.19458e-05
5.35901e-06
2.31474e-06
6.394e-07
3.26679
2.01143
1.11487
0.564958
0.265828
0.117918
0.049922
0.0204051
0.00814362
0.00319972
0.00125406
0.000495329
0.000199008
8.21183e-05
3.52693e-05
1.57807e-05
7.28832e-06
3.22987e-06
9.13295e-07
3.26873
2.0178
1.12319
0.57255
0.271414
0.121472
0.051957
0.0214835
0.00868443
0.0034603
0.00137699
0.000552908
0.000226097
9.50676e-05
4.16482e-05
1.90168e-05
8.95523e-06
4.03574e-06
1.1582e-06
3.26653
2.01705
1.12448
0.574691
0.273396
0.122901
0.0528434
0.0219809
0.00894519
0.00359057
0.00144038
0.00058343
0.000240826
0.000102277
4.52797e-05
2.08976e-05
9.94187e-06
4.5197e-06
1.30711e-06
3.26656
2.01711
1.12454
0.574733
0.273422
0.122916
0.052851
0.0219846
0.00894693
0.00359135
0.00144073
0.000583586
0.000240896
0.000102309
4.52952e-05
2.09053e-05
9.9458e-06
4.52163e-06
1.30772e-06
3.2688
2.01795
1.12335
0.572672
0.271492
0.121516
0.0519795
0.0214943
0.00868948
0.00346257
0.001378
0.000553354
0.000226297
9.5159e-05
4.16915e-05
1.90381e-05
8.96604e-06
4.041e-06
1.15987e-06
3.26691
2.01168
1.11513
0.565153
0.265951
0.117986
0.049957
0.0204219
0.00815128
0.00320312
0.00125555
0.000495977
0.000199293
8.22463e-05
3.53288e-05
1.58095e-05
7.30264e-06
3.23674e-06
9.15433e-07
3.26316
2.00061
1.10143
0.553099
0.257333
0.11264
0.0469662
0.0188721
0.0073912
0.00284503
0.00109046
0.000420469
0.00016463
6.60918e-05
2.75748e-05
1.19755e-05
5.37342e-06
2.32148e-06
6.41451e-07
3.25804
1.98569
1.08323
0.537346
0.24627
0.105906
0.0432776
0.0170032
0.0064963
0.00243405
0.000906072
0.000338533
0.000128146
4.96251e-05
1.99301e-05
8.3205e-06
3.59152e-06
1.49857e-06
4.0091e-07
3.25517
1.97175
1.06453
0.520646
0.234437
0.0987254
0.0393841
0.0150614
0.00558511
0.00202552
0.000727741
0.000261677
9.50538e-05
3.52217e-05
1.3497e-05
5.36525e-06
2.20548e-06
8.7989e-07
2.25601e-07
3.25157
1.95421
1.0423
0.50185
0.221762
0.0913586
0.03554
0.0132099
0.00474423
0.00166041
0.000573415
0.000197359
6.83258e-05
2.40219e-05
8.69292e-06
3.24996e-06
1.25406e-06
4.70912e-07
1.13664e-07
3.2302
1.89862
0.982377
0.456038
0.193316
0.0760525
0.0281317
0.00989972
0.00335119
0.00110038
0.000354724
0.000113329
3.61882e-05
1.16453e-05
3.81975e-06
1.27568e-06
4.28666e-07
1.31993e-07
2.03009e-08
3.18784
1.80024
0.883691
0.385447
0.1523
0.0554455
0.018845
0.00604857
0.00185202
0.000544565
0.000155219
4.30712e-05
1.16272e-05
3.02103e-06
7.31785e-07
1.41666e-07
2.52269e-09
-2.06341e-08
-1.18874e-08
3.13411
1.68519
0.777047
0.315324
0.114969
0.0383075
0.0118085
0.00339998
0.000920652
0.000234662
5.62317e-05
1.24267e-05
2.37891e-06
2.97716e-07
-4.67211e-08
-6.406e-08
-3.89194e-08
-1.80319e-08
-4.10003e-09
3.07192
1.56184
0.672206
0.252599
0.0847592
0.0258297
0.00722923
0.00187237
0.000450296
0.000100033
2.02422e-05
3.53707e-06
4.33724e-07
-2.10024e-08
-4.22222e-08
-2.09064e-08
-7.18893e-09
-6.45176e-10
1.42276e-09
3.00397
1.43511
0.572802
0.198224
0.0609652
0.0169504
0.0043036
0.00100318
0.000214638
4.16577e-05
7.12742e-06
9.74102e-07
6.24175e-08
-2.04628e-08
-1.03003e-08
-1.94726e-09
9.38453e-10
1.53799e-09
9.97493e-10
2.93844
1.31483
0.484476
0.153664
0.0431296
0.0109029
0.00250536
0.000525068
9.99706e-05
1.69746e-05
2.46059e-06
2.62444e-07
6.10572e-09
-5.07973e-09
-2.86917e-10
1.23599e-09
1.17801e-09
8.14203e-10
3.77101e-10
2.86614
1.19443
0.403889
0.11675
0.0297575
0.00681408
0.00141425
0.00026657
4.53501e-05
6.81532e-06
8.6519e-07
8.2406e-08
4.69626e-09
1.22463e-09
1.37803e-09
9.80221e-10
5.65904e-10
2.97457e-10
1.1663e-10
2.794
1.08526
0.337015
0.0888374
0.0205889
0.00428652
0.000810612
0.000140002
2.21227e-05
3.19935e-06
4.33489e-07
6.07792e-08
1.15099e-08
3.47428e-09
1.34941e-09
5.58037e-10
2.34575e-10
9.89799e-11
3.37155e-11
2.73362
1.00215
0.290374
0.0711185
0.0153365
0.00299504
0.000540258
9.17835e-05
1.50522e-05
2.46506e-06
4.2548e-07
8.15234e-08
1.77697e-08
4.347e-09
1.1679e-09
3.38853e-10
1.05893e-10
3.51982e-11
1.00025e-11
2.68982
0.951736
0.265406
0.0627941
0.0132194
0.00256821
0.000473724
8.5199e-05
1.53136e-05
2.79988e-06
5.29404e-07
1.0401e-07
2.11981e-08
4.47161e-09
9.82679e-10
2.26021e-10
5.52607e-11
1.43926e-11
3.18243e-12
2.66512
0.931692
0.258026
0.0612204
0.0130979
0.00262453
0.000505116
9.50899e-05
1.77242e-05
3.28511e-06
6.10246e-07
1.13901e-07
2.14043e-08
4.06374e-09
7.88073e-10
1.56709e-10
3.24592e-11
7.01336e-12
1.23989e-12
2.67808
0.960636
0.276473
0.0688668
0.0155575
0.00328912
0.000662445
0.000128649
2.43049e-05
4.48511e-06
8.1664e-07
1.47567e-07
2.66157e-08
4.82298e-09
8.88962e-10
1.6723e-10
3.25551e-11
6.59365e-12
1.19957e-12
2.73429
1.04596
0.32741
0.0895784
0.0222603
0.00515252
0.00112696
0.000235491
4.74575e-05
9.27335e-06
1.77703e-06
3.36387e-07
6.33292e-08
1.1945e-08
2.28542e-09
4.45183e-10
8.9403e-11
1.86211e-11
3.51209e-12
2.79872
1.14014
0.384135
0.113267
0.0302212
0.00746713
0.00173265
0.00038191
8.07795e-05
1.64947e-05
3.29074e-06
6.46455e-07
1.25954e-07
2.45294e-08
4.83625e-09
9.69177e-10
1.99951e-10
4.27221e-11
8.20571e-12
2.86448
1.23672
0.444418
0.13965
0.0395606
0.0103321
0.00252308
0.00058291
0.000128755
2.73638e-05
5.66535e-06
1.1521e-06
2.31884e-07
4.65697e-08
9.45594e-09
1.94954e-09
4.13539e-10
9.0809e-11
1.78795e-11
2.92565
1.3289
0.504721
0.167492
0.0499736
0.013702
0.00350082
0.000843369
0.000193634
4.26514e-05
9.12984e-06
1.91577e-06
3.97234e-07
8.2087e-08
1.71358e-08
3.63038e-09
7.91569e-10
1.789e-10
3.66538e-11
2.97383
1.40846
0.560501
0.194946
0.0608592
0.0174136
0.00462853
0.00115635
0.000274537
6.2375e-05
1.37452e-05
2.96483e-06
6.31246e-07
1.33845e-07
2.86595e-08
6.23053e-09
1.39799e-09
3.27261e-10
7.44863e-11
3.01553
1.48087
0.613885
0.222464
0.0722183
0.0214231
0.00588426
0.00151447
0.000369468
8.6079e-05
1.94224e-05
4.28521e-06
9.3262e-07
2.02081e-07
4.42415e-08
9.86342e-09
2.29686e-09
5.71208e-10
1.80801e-10
3.05904
1.55368
0.667967
0.250724
0.08405
0.0256565
0.00722753
0.00190248
0.000473632
0.000112424
2.5815e-05
5.79232e-06
1.28168e-06
2.82507e-07
6.31187e-08
1.45533e-08
3.66623e-09
1.05492e-09
6.91089e-10
3.09352
1.61298
0.712979
0.274679
0.0942394
0.0293538
0.00841565
0.00224973
0.000567916
0.00013654
3.17363e-05
7.20667e-06
1.61494e-06
3.61793e-07
8.3392e-08
2.09639e-08
6.5877e-09
2.60716e-09
3.91738e-09
3.11653
1.65469
0.745273
0.292037
0.101656
0.0320472
0.00928001
0.00250179
0.000636219
0.000154
3.60332e-05
8.24359e-06
1.86872e-06
4.30767e-07
1.09019e-07
3.59389e-08
1.74456e-08
1.01768e-08
2.51397e-08
3.1331
1.68297
0.766244
0.302809
0.106034
0.0335534
0.00973693
0.00262777
0.000668579
0.000161904
3.79359e-05
8.73121e-06
2.03065e-06
5.17874e-07
1.78885e-07
9.93841e-08
6.97091e-08
5.41342e-08
1.59826e-07
3.14229
1.695
0.773176
0.305293
0.106567
0.0335608
0.00968297
0.00259709
0.000656796
0.000158301
3.71195e-05
8.74677e-06
2.2748e-06
8.21521e-07
5.00828e-07
4.13388e-07
3.33323e-07
3.27206e-07
9.64704e-07
3.13469
1.68081
0.760007
0.296781
0.102302
0.0317949
0.009053
0.0023978
0.000599994
0.000144076
3.45935e-05
9.25243e-06
3.5473e-06
2.30301e-06
2.06983e-06
1.95091e-06
1.6836e-06
2.04222e-06
5.43311e-06
3.11567
1.64671
0.731324
0.279928
0.0945143
0.0287778
0.00803585
0.0020931
0.000519624
0.000128009
3.55815e-05
1.45767e-05
1.00669e-05
9.3172e-06
9.46832e-06
9.31423e-06
8.745e-06
1.24204e-05
2.82803e-05
3.09365
1.60308
0.694764
0.258957
0.0851021
0.0252447
0.00689073
0.001774
0.000453566
0.000132439
5.83508e-05
4.23451e-05
4.00132e-05
4.10929e-05
4.3291e-05
4.40581e-05
4.58378e-05
7.06789e-05
0.00013487
3.05248
1.53391
0.641914
0.230793
0.0732706
0.0210991
0.00567451
0.00151605
0.00047457
0.000227375
0.000172947
0.000164894
0.000169905
0.000179756
0.000193141
0.000204737
0.000234418
0.000366606
0.000585327
2.9934
1.44443
0.578922
0.199746
0.061285
0.0173988
0.00492239
0.00166936
0.000877476
0.00069445
0.000664173
0.00067913
0.000716024
0.000767536
0.000838767
0.000926896
0.00113397
0.00171376
0.00230416
2.93188
1.35721
0.521991
0.174211
0.052982
0.0160949
0.00596064
0.00338451
0.0027757
0.00264907
0.00267588
0.00278206
0.00295445
0.00318879
0.00353093
0.00402629
0.00506587
0.00717443
0.0081902
2.87128
1.27963
0.47729
0.158889
0.0525582
0.0213458
0.0129821
0.010875
0.0104126
0.0103811
0.0106088
0.0110663
0.0117608
0.0127177
0.0141723
0.0163895
0.0204884
0.0267246
0.0261654
2.8266
1.23324
0.463883
0.170626
0.0759772
0.0488047
0.0414866
0.0395539
0.0392224
0.039435
0.0403228
0.0419555
0.0443974
0.0478219
0.0531147
0.0610922
0.0738853
0.0879691
0.0747683
2.82657
1.26544
0.532879
0.261055
0.17476
0.149635
0.142246
0.139883
0.139609
0.140373
0.143012
0.147854
0.155091
0.165357
0.181117
0.203619
0.23396
0.253577
0.190486
2.93247
1.49089
0.818094
0.569782
0.489654
0.464191
0.454919
0.450826
0.450162
0.451654
0.457587
0.468838
0.485715
0.509682
0.545423
0.591671
0.639521
0.633887
0.434575
3.23951
2.11906
1.57892
1.37427
1.30427
1.27821
1.26605
1.25899
1.25701
1.25836
1.26721
1.28515
1.3121
1.34979
1.40264
1.45867
1.48301
1.36796
0.909874
3.76681
3.30365
3.0547
2.95373
2.91649
2.90055
2.89186
2.88575
2.88345
2.8831
2.88851
2.90112
2.91953
2.94327
2.96955
2.97163
2.88919
2.59134
1.85771
)
;

boundaryField
{
    up
    {
        type            fixedValue;
        value           uniform 0;
    }
    low
    {
        type            fixedValue;
        value           uniform 4;
    }
    left
    {
        type            fixedValue;
        value           uniform 4;
    }
    right
    {
        type            fixedValue;
        value           uniform 4;
    }
    frontAndBackPlanes
    {
        type            empty;
    }
}


// ************************************************************************* //
