/*--------------------------------*- C++ -*----------------------------------*\
  =========                 |
  \\      /  F ield         | OpenFOAM: The Open Source CFD Toolbox
   \\    /   O peration     | Website:  https://openfoam.org
    \\  /    A nd           | Version:  7
     \\/     M anipulation  |
\*---------------------------------------------------------------------------*/
FoamFile
{
    version     2.0;
    format      ascii;
    class       volScalarField;
    location    "0.497";
    object      T;
}
// * * * * * * * * * * * * * * * * * * * * * * * * * * * * * * * * * * * * * //

dimensions      [0 0 0 1 0 0 0];

internalField   nonuniform List<scalar> 
1596
(
5.98827
5.9544
5.91907
5.88439
5.85059
5.81699
5.78275
5.74628
5.70648
5.66079
5.60724
5.54319
5.46209
5.35431
5.20438
4.97707
4.60621
3.95938
2.7714
5.94919
5.84354
5.74173
5.64456
5.55096
5.4588
5.3658
5.26869
5.16484
5.04969
4.91957
4.77007
4.59208
4.37378
4.09979
3.73953
3.2445
2.53055
1.4382
5.90294
5.72513
5.56169
5.40901
5.26368
5.12207
4.98076
4.83558
4.68309
4.51819
4.33682
4.13446
3.90264
3.63117
3.30833
2.91211
2.41097
1.75518
0.851428
5.85733
5.61208
5.39323
5.1921
5.00276
4.82021
4.64015
4.45791
4.26976
4.07057
3.85653
3.62357
3.3646
3.07169
2.73668
2.34452
1.87545
1.30081
0.566255
5.81965
5.51636
5.24945
5.00667
4.78015
4.56386
4.35285
4.14224
3.92815
3.70568
3.47137
3.22169
2.95082
2.65274
2.32188
1.94801
1.51875
1.01766
0.412693
5.79464
5.44613
5.13925
4.86112
4.60309
4.35864
4.12247
3.8896
3.65615
3.41745
3.17036
2.91176
2.63683
2.34087
2.02007
1.66729
1.27468
0.832763
0.322173
5.78292
5.40361
5.06533
4.75772
4.47283
4.20434
3.94695
3.69576
3.44696
3.19608
2.94022
2.67657
2.40095
2.10958
1.79973
1.46627
1.10405
0.707624
0.264912
5.78174
5.38543
5.02445
4.69302
4.38527
4.09584
3.81989
3.55277
3.29085
3.02988
2.76711
2.49994
2.22464
1.93799
1.63793
1.32058
0.982436
0.620414
0.226714
5.78832
5.38685
5.0113
4.66141
4.33437
4.02649
3.73378
3.45214
3.17822
2.90804
2.63899
2.36861
2.09345
1.81063
1.51849
1.21391
0.894407
0.558276
0.200277
5.79695
5.39816
5.01509
4.652
4.30933
3.98545
3.67765
3.38261
3.09745
2.81853
2.54342
2.26976
1.99428
1.71434
1.42844
1.13394
0.828962
0.51261
0.181248
5.80422
5.41146
5.02592
4.65426
4.29956
3.96228
3.64117
3.33392
3.03829
2.75107
2.47009
2.19311
1.917
1.63923
1.35837
1.07205
0.778714
0.477926
0.167041
5.81297
5.42845
5.04347
4.66641
4.30238
3.95371
3.62069
3.30209
2.99647
2.70115
2.41426
2.13374
1.85656
1.58025
1.30337
1.02364
0.739691
0.451254
0.156272
5.82137
5.44627
5.06386
4.68373
4.31254
3.95425
3.61057
3.28146
2.96632
2.66311
2.37034
2.08613
1.80761
1.5323
1.25869
0.984514
0.708382
0.430072
0.147853
5.82709
5.46046
5.0816
4.70011
4.32364
3.95738
3.60438
3.26571
2.94171
2.63101
2.3326
2.04485
1.76501
1.49063
1.22007
0.950967
0.681845
0.412374
0.140959
5.8321
5.47267
5.09729
4.71522
4.33457
3.96149
3.60011
3.25259
2.92019
2.60229
2.2984
2.0072
1.72611
1.45268
1.18512
0.920914
0.658382
0.39698
0.135098
5.83693
5.48392
5.11164
4.72918
4.34489
3.96562
3.59644
3.24049
2.89994
2.57497
2.26563
1.97101
1.68872
1.41631
1.15186
0.892608
0.636583
0.382926
0.129885
5.84059
5.493
5.12337
4.74047
4.3528
3.96775
3.59116
3.22708
2.87856
2.54657
2.23181
1.93378
1.65037
1.3792
1.11816
0.864218
0.61502
0.369273
0.12496
5.84344
5.50022
5.13267
4.7491
4.35807
3.96735
3.58348
3.21134
2.85482
2.51571
2.19537
1.89384
1.60932
1.33956
1.08231
0.834238
0.592511
0.355255
0.120037
5.8476
5.50891
5.14309
4.75848
4.36374
3.96705
3.57556
3.19494
2.82992
2.48311
2.1566
1.85102
1.565
1.2965
1.04324
0.80158
0.568136
0.340275
0.114909
5.85227
5.51869
5.15459
4.76867
4.36987
3.9668
3.5672
3.17752
2.80329
2.44799
2.11448
1.80405
1.51587
1.24827
0.999038
0.764366
0.540317
0.323309
0.109246
5.85581
5.52703
5.16459
4.77722
4.37413
3.96434
3.55623
3.15693
2.77283
2.40823
2.06684
1.75067
1.45955
1.19228
0.946965
0.719847
0.506631
0.302723
0.102519
5.85915
5.53467
5.17359
4.78447
4.37672
3.95977
3.54255
3.13292
2.73804
2.36312
2.01269
1.6896
1.39437
1.12644
0.884408
0.664931
0.463853
0.275974
0.0938386
5.86271
5.54225
5.18209
4.79072
4.37774
3.95296
3.52586
3.10498
2.69823
2.3117
1.95081
1.61927
1.31842
1.04835
0.808293
0.595625
0.40707
0.238144
0.0808435
5.86625
5.54933
5.18933
4.7949
4.37586
3.94241
3.50451
3.07133
2.65148
2.2519
1.87895
1.53728
1.22905
0.955048
0.715077
0.507199
0.329455
0.179754
0.0544352
5.87164
5.56285
5.20884
4.81815
4.40054
3.96613
3.52494
3.08625
2.65903
2.25071
1.86846
1.51785
1.20196
0.922276
0.679082
0.470642
0.295407
0.152475
0.0410005
5.87743
5.57955
5.23613
4.8554
4.44667
4.01957
3.58365
3.14782
2.72079
2.31005
1.92308
1.56622
1.24348
0.957237
0.708296
0.494928
0.314964
0.166525
0.0473303
5.8799
5.58781
5.25093
4.87721
4.47555
4.05507
3.62475
3.1929
2.76774
2.35647
1.96655
1.6048
1.27611
0.983831
0.729598
0.511909
0.328226
0.175891
0.051529
5.87901
5.58719
5.25248
4.8826
4.48603
4.07135
3.64682
3.22004
2.79847
2.3887
1.99787
1.6329
1.29934
1.00165
0.742569
0.521214
0.334963
0.180544
0.0536939
5.87574
5.57974
5.24373
4.87526
4.48238
4.07303
3.6547
3.23412
2.81784
2.41159
2.02183
1.65526
1.31775
1.01479
0.750596
0.525434
0.33707
0.181782
0.0544189
5.87016
5.56674
5.22721
4.85878
4.469
4.06509
3.6537
3.24059
2.83133
2.43062
2.04402
1.67754
1.33694
1.02848
0.758015
0.527684
0.336487
0.180687
0.0541149
5.86298
5.55053
5.20651
4.83772
4.45114
4.05324
3.64976
3.24549
2.84498
2.45188
2.07064
1.70628
1.36385
1.0497
0.771113
0.532675
0.335956
0.17845
0.0531322
5.85635
5.53481
5.18627
4.81736
4.43451
4.04343
3.64892
3.25485
2.86481
2.48143
2.10809
1.74856
1.40658
1.08767
0.799465
0.548724
0.340826
0.177064
0.0516385
5.84936
5.51864
5.166
4.79778
4.41975
4.03676
3.65271
3.27056
2.89309
2.52208
2.15997
1.80934
1.47239
1.15279
0.856812
0.591355
0.364731
0.184083
0.0499408
5.84193
5.50233
5.14656
4.78038
4.40873
4.03548
3.66364
3.29538
2.93279
2.57702
2.22992
1.8933
1.5681
1.25607
0.960857
0.686626
0.440231
0.23108
0.0654838
5.83327
5.48287
5.12201
4.75581
4.38826
4.02231
3.66014
3.30324
2.9532
2.61078
2.27755
1.95503
1.64375
1.3446
1.05932
0.788818
0.535071
0.302631
0.0954875
5.82061
5.45211
5.07903
4.70542
4.3342
3.96742
3.60652
3.25242
2.90626
2.56849
2.24049
1.92369
1.61861
1.32621
1.04835
0.785677
0.539325
0.311434
0.101995
5.80483
5.41377
5.02463
4.63982
4.26101
3.88935
3.52556
3.17002
2.82354
2.48629
2.15955
1.84474
1.5425
1.25404
0.981719
0.726833
0.491442
0.278656
0.08915
5.79059
5.37951
4.97637
4.58195
4.1968
3.82124
3.4554
3.09921
2.75321
2.41739
2.09295
1.78138
1.48335
1.20024
0.934551
0.687696
0.461786
0.259868
0.0824696
5.77931
5.35188
4.93715
4.53478
4.14444
3.76578
3.39844
3.04202
2.6968
2.36264
2.04069
1.73242
1.43849
1.16029
0.900333
0.659986
0.44129
0.2472
0.0781271
5.77034
5.33004
4.90629
4.49782
4.10358
3.72269
3.35442
2.99805
2.65374
2.32117
2.00147
1.69604
1.40552
1.13126
0.875741
0.640273
0.42684
0.238344
0.0751326
5.76381
5.31424
4.88417
4.47154
4.07474
3.69247
3.32372
2.96758
2.62406
2.29277
1.97477
1.67143
1.38335
1.11183
0.859343
0.627152
0.417218
0.232434
0.0731305
5.75921
5.3042
4.87082
4.45621
4.05831
3.67557
3.30681
2.95101
2.60812
2.27768
1.96075
1.65865
1.37197
1.10198
0.851128
0.620663
0.412522
0.229589
0.0721873
5.75922
5.30422
4.87084
4.45624
4.05834
3.6756
3.30683
2.95103
2.60814
2.27771
1.96077
1.65867
1.37198
1.10199
0.851138
0.620671
0.412527
0.229592
0.0721883
5.76383
5.31429
4.88423
4.47162
4.07482
3.69255
3.3238
2.96765
2.62413
2.29284
1.97483
1.67149
1.3834
1.11187
0.859377
0.627179
0.417238
0.232446
0.0731347
5.77038
5.33011
4.90639
4.49794
4.10371
3.72282
3.35454
2.99817
2.65385
2.32127
2.00156
1.69612
1.40559
1.13131
0.875786
0.640307
0.426864
0.238358
0.0751372
5.77935
5.35198
4.93728
4.53493
4.1446
3.76594
3.3986
3.04217
2.69694
2.36276
2.0408
1.73251
1.43856
1.16035
0.900379
0.660019
0.441312
0.247212
0.0781307
5.79064
5.37963
4.97653
4.58213
4.197
3.82143
3.45559
3.09939
2.75338
2.41753
2.09307
1.78148
1.48343
1.20029
0.93459
0.687721
0.461799
0.259873
0.0824701
5.80489
5.4139
5.02481
4.64003
4.26124
3.88957
3.52577
3.17022
2.82372
2.48644
2.15967
1.84483
1.54256
1.25407
0.981727
0.726823
0.491422
0.278636
0.0891387
5.82067
5.45225
5.07922
4.70565
4.33444
3.96766
3.60676
3.25263
2.90644
2.56863
2.24059
1.92374
1.61861
1.32617
1.04826
0.785552
0.539188
0.311319
0.101942
5.83334
5.48308
5.12234
4.75625
4.38878
4.0229
3.6608
3.30395
2.95395
2.61157
2.27837
1.95587
1.64462
1.34549
1.06024
0.789731
0.535928
0.303312
0.0957954
5.84202
5.50258
5.14695
4.78092
4.40939
4.03626
3.66454
3.29637
2.93386
2.57818
2.23115
1.89458
1.56943
1.25742
0.962172
0.687837
0.441232
0.231753
0.0657339
5.84943
5.51884
5.16633
4.79823
4.42032
4.03743
3.65347
3.27141
2.894
2.52305
2.16098
1.81038
1.47343
1.15379
0.857703
0.592075
0.365221
0.184326
0.0499847
5.8564
5.53499
5.18657
4.81777
4.43504
4.04405
3.64963
3.25564
2.86565
2.48232
2.10901
1.74947
1.40746
1.08846
0.800123
0.549211
0.34113
0.177211
0.0516768
5.86303
5.55069
5.20678
4.8381
4.45162
4.05381
3.65042
3.24621
2.84575
2.45268
2.07146
1.70707
1.36458
1.05034
0.771623
0.533041
0.336185
0.178569
0.0531675
5.87021
5.56688
5.22745
4.85912
4.46944
4.06562
3.6543
3.24126
2.83204
2.43135
2.04475
1.67823
1.33757
1.02901
0.758434
0.527986
0.336683
0.180795
0.0541488
5.87578
5.57986
5.24394
4.87556
4.48278
4.07351
3.65525
3.23473
2.81848
2.41225
2.02248
1.65587
1.3183
1.01525
0.750958
0.5257
0.337249
0.181886
0.0544534
5.87904
5.58729
5.25267
4.88287
4.48639
4.07178
3.64731
3.22058
2.79905
2.38929
1.99845
1.63344
1.29982
1.00206
0.742895
0.52146
0.335136
0.180648
0.0537311
5.87992
5.5879
5.25109
4.87745
4.47586
4.05546
3.62519
3.19339
2.76826
2.357
1.96707
1.60529
1.27654
0.984201
0.729901
0.512147
0.328401
0.176003
0.0515721
5.87745
5.57963
5.23627
4.85561
4.44694
4.01991
3.58405
3.14826
2.72125
2.31053
1.92354
1.56665
1.24388
0.957582
0.708589
0.495168
0.31515
0.166654
0.0473845
5.87164
5.56285
5.20886
4.81819
4.40058
3.96619
3.525
3.08632
2.6591
2.25077
1.8685
1.51786
1.20196
0.922248
0.679037
0.470588
0.295353
0.152432
0.0409821
5.86624
5.54929
5.18928
4.79482
4.37576
3.94229
3.50438
3.07117
2.65131
2.25172
1.87877
1.53709
1.22886
0.954866
0.714907
0.507048
0.329333
0.17967
0.0544005
5.86271
5.54224
5.18206
4.79068
4.3777
3.95292
3.52581
3.10493
2.69818
2.31165
1.95076
1.61924
1.31839
1.04833
0.808283
0.595623
0.407074
0.23815
0.0808465
5.85914
5.53465
5.17357
4.78445
4.37669
3.95973
3.54251
3.13288
2.738
2.36308
2.01266
1.68957
1.39435
1.12642
0.884399
0.664928
0.463854
0.275976
0.0938392
5.8558
5.52702
5.16457
4.7772
4.3741
3.96431
3.55619
3.1569
2.77279
2.4082
2.06681
1.75065
1.45953
1.19227
0.946958
0.719843
0.50663
0.302723
0.102519
5.85226
5.51868
5.15458
4.76865
4.36985
3.96677
3.56718
3.17749
2.80327
2.44797
2.11446
1.80403
1.51586
1.24826
0.999032
0.764362
0.540315
0.323308
0.109245
5.84759
5.5089
5.14308
4.75846
4.36372
3.96703
3.57554
3.19492
2.8299
2.48309
2.15659
1.85101
1.56499
1.29649
1.04324
0.801577
0.568134
0.340273
0.114909
5.84344
5.50021
5.13266
4.74909
4.35806
3.96734
3.58347
3.21133
2.85481
2.5157
2.19536
1.89383
1.60931
1.33955
1.08231
0.834235
0.592509
0.355254
0.120037
5.84059
5.493
5.12337
4.74046
4.35279
3.96774
3.59115
3.22707
2.87855
2.54656
2.2318
1.93378
1.65037
1.3792
1.11816
0.864216
0.615019
0.369272
0.124959
5.83693
5.48391
5.11164
4.72917
4.34488
3.96561
3.59643
3.24049
2.89994
2.57496
2.26563
1.97101
1.68871
1.41631
1.15186
0.892606
0.636582
0.382926
0.129885
5.8321
5.47266
5.09728
4.71522
4.33456
3.96148
3.6001
3.25259
2.92018
2.60229
2.29839
2.0072
1.72611
1.45267
1.18512
0.920914
0.658382
0.39698
0.135098
5.82709
5.46046
5.0816
4.70011
4.32363
3.95738
3.60438
3.26571
2.9417
2.63101
2.33259
2.04485
1.76501
1.49063
1.22007
0.950967
0.681845
0.412374
0.140959
5.82137
5.44627
5.06386
4.68373
4.31254
3.95425
3.61057
3.28146
2.96632
2.66311
2.37033
2.08613
1.80761
1.5323
1.25869
0.984514
0.708382
0.430073
0.147853
5.81297
5.42845
5.04347
4.66641
4.30238
3.95371
3.62069
3.30209
2.99647
2.70115
2.41427
2.13374
1.85656
1.58025
1.30337
1.02365
0.739692
0.451255
0.156273
5.80422
5.41146
5.02592
4.65426
4.29956
3.96228
3.64117
3.33392
3.03829
2.75108
2.47009
2.19311
1.917
1.63923
1.35837
1.07205
0.778715
0.477927
0.167041
5.79695
5.39816
5.01509
4.652
4.30933
3.98545
3.67765
3.38261
3.09745
2.81853
2.54342
2.26976
1.99428
1.71435
1.42845
1.13394
0.828964
0.512611
0.181249
5.78832
5.38685
5.0113
4.66141
4.33437
4.02649
3.73378
3.45214
3.17822
2.90804
2.63899
2.36861
2.09345
1.81063
1.51849
1.21391
0.894408
0.558277
0.200277
5.78174
5.38543
5.02445
4.69301
4.38527
4.09584
3.81989
3.55277
3.29085
3.02988
2.76711
2.49994
2.22464
1.93799
1.63794
1.32058
0.982437
0.620415
0.226714
5.78292
5.40361
5.06533
4.75772
4.47283
4.20434
3.94695
3.69576
3.44696
3.19608
2.94022
2.67657
2.40095
2.10958
1.79973
1.46627
1.10405
0.707625
0.264913
5.79464
5.44613
5.13924
4.86112
4.60309
4.35864
4.12247
3.8896
3.65615
3.41745
3.17035
2.91176
2.63683
2.34087
2.02007
1.66729
1.27468
0.832763
0.322173
5.81965
5.51636
5.24945
5.00667
4.78015
4.56386
4.35285
4.14224
3.92815
3.70568
3.47137
3.22169
2.95082
2.65274
2.32188
1.94801
1.51875
1.01766
0.412693
5.85733
5.61208
5.39323
5.1921
5.00276
4.82021
4.64014
4.45791
4.26976
4.07057
3.85652
3.62356
3.36459
3.07169
2.73668
2.34452
1.87545
1.30081
0.566255
5.90294
5.72513
5.56169
5.409
5.26368
5.12207
4.98076
4.83557
4.68309
4.51819
4.33682
4.13446
3.90263
3.63116
3.30833
2.9121
2.41096
1.75518
0.851428
5.94919
5.84354
5.74173
5.64456
5.55096
5.4588
5.3658
5.26869
5.16484
5.04969
4.91957
4.77007
4.59208
4.37378
4.09979
3.73952
3.2445
2.53055
1.4382
5.98827
5.9544
5.91907
5.88439
5.85059
5.81699
5.78275
5.74628
5.70648
5.66079
5.60724
5.54319
5.46209
5.35431
5.20438
4.97707
4.60621
3.95938
2.7714
)
;

boundaryField
{
    up
    {
        type            fixedValue;
        value           uniform 0;
    }
    low
    {
        type            fixedValue;
        value           uniform 6;
    }
    left
    {
        type            fixedValue;
        value           uniform 6;
    }
    right
    {
        type            fixedValue;
        value           uniform 6;
    }
    frontAndBackPlanes
    {
        type            empty;
    }
}


// ************************************************************************* //
