/*--------------------------------*- C++ -*----------------------------------*\
  =========                 |
  \\      /  F ield         | OpenFOAM: The Open Source CFD Toolbox
   \\    /   O peration     | Website:  https://openfoam.org
    \\  /    A nd           | Version:  7
     \\/     M anipulation  |
\*---------------------------------------------------------------------------*/
FoamFile
{
    version     2.0;
    format      ascii;
    class       volScalarField;
    location    "0.257";
    object      gradTy;
}
// * * * * * * * * * * * * * * * * * * * * * * * * * * * * * * * * * * * * * //

dimensions      [0 -1 0 1 0 0 0];

internalField   nonuniform List<scalar> 
1596
(
-0.259922
-0.483308
-0.667506
-0.846058
-1.01949
-1.21032
-1.40964
-1.64333
-1.92209
-2.25377
-2.70837
-3.28658
-4.0854
-5.22012
-6.97875
-9.71643
-14.6006
-23.6049
-55.7624
-0.792062
-0.978144
-1.10697
-1.22843
-1.34862
-1.49234
-1.65213
-1.85158
-2.10068
-2.40159
-2.81241
-3.32731
-4.01101
-4.91587
-6.18942
-7.90688
-10.4575
-14.2048
-24.8403
-1.41817
-1.48251
-1.52412
-1.57574
-1.63656
-1.72769
-1.84032
-1.99485
-2.1985
-2.44952
-2.7953
-3.22371
-3.77921
-4.48585
-5.43286
-6.63222
-8.29517
-10.5749
-15.4691
-2.07532
-1.97441
-1.91153
-1.88575
-1.88347
-1.91841
-1.97946
-2.08299
-2.23341
-2.42644
-2.70047
-3.04004
-3.47626
-4.01873
-4.72375
-5.57891
-6.70807
-8.17447
-10.6889
-2.68261
-2.426
-2.2611
-2.15853
-2.09356
-2.07181
-2.08024
-2.131
-2.22627
-2.36043
-2.56446
-2.82223
-3.15604
-3.5684
-4.09644
-4.71991
-5.51623
-6.50816
-7.95647
-3.16657
-2.81021
-2.56526
-2.39555
-2.27314
-2.19761
-2.15546
-2.15498
-2.19692
-2.27527
-2.41488
-2.6007
-2.84903
-3.15911
-3.55635
-4.01951
-4.59937
-5.30016
-6.22152
-3.48683
-3.10563
-2.81624
-2.59731
-2.4275
-2.30445
-2.21628
-2.16841
-2.16097
-2.18833
-2.27027
-2.39381
-2.57098
-2.79972
-3.09786
-3.44591
-3.87819
-4.39073
-5.02277
-3.64226
-3.299
-3.00448
-2.75979
-2.55689
-2.39576
-2.26837
-2.17873
-2.12721
-2.10914
-2.14025
-2.21004
-2.32751
-2.49026
-2.71104
-2.97301
-3.29978
-3.68415
-4.1412
-3.663
-3.40433
-3.13868
-2.89133
-2.67035
-2.48134
-2.32192
-2.19627
-2.10582
-2.0474
-2.0337
-2.0567
-2.12328
-2.23118
-2.38965
-2.58446
-2.83198
-3.124
-3.46528
-3.57468
-3.40762
-3.19356
-2.96609
-2.74475
-2.54163
-2.36051
-2.20728
-2.08512
-1.99273
-1.94081
-1.92378
-1.94711
-2.00901
-2.11642
-2.25757
-2.44402
-2.66767
-2.92866
-3.46154
-3.36018
-3.19842
-3.00144
-2.79171
-2.5853
-2.39132
-2.2179
-2.07046
-1.94979
-1.86551
-1.81427
-1.80074
-1.82372
-1.88859
-1.98569
-2.12323
-2.2937
-2.49508
-3.31921
-3.2856
-3.17495
-3.01232
-2.82083
-2.6185
-2.41825
-2.23051
-2.06296
-1.91861
-1.80669
-1.72589
-1.68053
-1.67006
-1.69883
-1.75898
-1.85636
-1.98423
-2.13965
-3.14114
-3.16821
-3.1078
-2.98269
-2.81525
-2.6243
-2.42508
-2.23
-2.04874
-1.88641
-1.75242
-1.64729
-1.57538
-1.53685
-1.53548
-1.56498
-1.62967
-1.72364
-1.84358
-2.98164
-3.04374
-3.02317
-2.93244
-2.78985
-2.61347
-2.41941
-2.22152
-2.03112
-1.85516
-1.70355
-1.5784
-1.48436
-1.42228
-1.39569
-1.39957
-1.43725
-1.50359
-1.59528
-2.83297
-2.92279
-2.93301
-2.87143
-2.75195
-2.59082
-2.40403
-2.20623
-2.00998
-1.82377
-1.65812
-1.51655
-1.40412
-1.32235
-1.27467
-1.25718
-1.27252
-1.31627
-1.3853
-2.68659
-2.80273
-2.83902
-2.80225
-2.7035
-2.55722
-2.3787
-2.18298
-1.98344
-1.78979
-1.61322
-1.45845
-1.33097
-1.23297
-1.16788
-1.13273
-1.12976
-1.15517
-1.20607
-2.55331
-2.68747
-2.74495
-2.72902
-2.64822
-2.51545
-2.34518
-2.15251
-1.95137
-1.75243
-1.56749
-1.40225
-1.26267
-1.15146
-1.07217
-1.0226
-1.00473
-1.01533
-1.05175
-2.43596
-2.58248
-2.65662
-2.6578
-2.59208
-2.47089
-2.30794
-2.11828
-1.91625
-1.7133
-1.52171
-1.34805
-1.19864
-1.07667
-0.98576
-0.924374
-0.894352
-0.892963
-0.917791
-2.31833
-2.48667
-2.57816
-2.59486
-2.54225
-2.43079
-2.27381
-2.08635
-1.88318
-1.67646
-1.47896
-1.29796
-1.14011
-1.00896
-0.908167
-0.83673
-0.79646
-0.785121
-0.800531
-2.19743
-2.3905
-2.50142
-2.53385
-2.49366
-2.39111
-2.23947
-2.05396
-1.8498
-1.63988
-1.43738
-1.25028
-1.08545
-0.946661
-0.83753
-0.757448
-0.708326
-0.688554
-0.696332
-2.09375
-2.30335
-2.43219
-2.47976
-2.45114
-2.35649
-2.20923
-2.02496
-1.81949
-1.6064
-1.39933
-1.20685
-1.03603
-0.890715
-0.774294
-0.686283
-0.628712
-0.600864
-0.601912
-2.00196
-2.22686
-2.37212
-2.43405
-2.41635
-2.32884
-2.18524
-2.00164
-1.79449
-1.57815
-1.36673
-1.16934
-0.993234
-0.842242
-0.719312
-0.623598
-0.556873
-0.51944
-0.512908
-1.91762
-2.15975
-2.32127
-2.39704
-2.38971
-2.30882
-2.16839
-1.98511
-1.77615
-1.55661
-1.34104
-1.13914
-0.958334
-0.802459
-0.673902
-0.570838
-0.49362
-0.4421
-0.422208
-1.84295
-2.10247
-2.27909
-2.36649
-2.36697
-2.28982
-2.15002
-1.96478
-1.7522
-1.52834
-1.3076
-1.10083
-0.915499
-0.755611
-0.622858
-0.514556
-0.427653
-0.357023
-0.299045
-1.78289
-2.05854
-2.25279
-2.35768
-2.3753
-2.31383
-2.18819
-2.01465
-1.81095
-1.59337
-1.37499
-1.16779
-0.979064
-0.814177
-0.675266
-0.56109
-0.466807
-0.385044
-0.303877
-1.74168
-2.02681
-2.23076
-2.34695
-2.3773
-2.32919
-2.21678
-2.0553
-1.86156
-1.65132
-1.43628
-1.22866
-1.03577
-0.864025
-0.71687
-0.595796
-0.497534
-0.417933
-0.349502
-1.7413
-2.02809
-2.23551
-2.35783
-2.39677
-2.35957
-2.25938
-2.11067
-1.92902
-1.72903
-1.52131
-1.31682
-1.12244
-0.945003
-0.789505
-0.659606
-0.554198
-0.470684
-0.402754
-1.78643
-2.0666
-2.26938
-2.3902
-2.43108
-2.3995
-2.30788
-2.16997
-2.00019
-1.81177
-1.6139
-1.41576
-1.22284
-1.0415
-0.877699
-0.737451
-0.622314
-0.531606
-0.459778
-1.8725
-2.14142
-2.33271
-2.44534
-2.48238
-2.45176
-2.36541
-2.23643
-2.07807
-1.90231
-1.71672
-1.5285
-1.34088
-1.15845
-0.986999
-0.834677
-0.706472
-0.604836
-0.525371
-1.99731
-2.24633
-2.41952
-2.51851
-2.54723
-2.51404
-2.43054
-2.30912
-2.16201
-2.00007
-1.82945
-1.65551
-1.47874
-1.30059
-1.12451
-0.95948
-0.814203
-0.69649
-0.60483
-2.1592
-2.37988
-2.53065
-2.61237
-2.62965
-2.59128
-2.50868
-2.3935
-2.25701
-2.1093
-1.95547
-1.79989
-1.64058
-1.47508
-1.3017
-1.12678
-0.960497
-0.818387
-0.706458
-2.33568
-2.53194
-2.65934
-2.72173
-2.72563
-2.68046
-2.5975
-2.48753
-2.36096
-2.22734
-2.09127
-1.95736
-1.82272
-1.68199
-1.52658
-1.35522
-1.17132
-0.994451
-0.845876
-2.53802
-2.70612
-2.80667
-2.84695
-2.83535
-2.78175
-2.69702
-2.59095
-2.47288
-2.35187
-2.2323
-2.12017
-2.01409
-1.90952
-1.79379
-1.65738
-1.48567
-1.28326
-1.05879
-2.77512
-2.90846
-2.97856
-2.99499
-2.96746
-2.9059
-2.82031
-2.71922
-2.61073
-2.50307
-2.40067
-2.31073
-2.23523
-2.17521
-2.12301
-2.07213
-1.99954
-1.89195
-1.7339
-3.03994
-3.13246
-3.16415
-3.14892
-3.09763
-3.02004
-2.92457
-2.81851
-2.70839
-2.60041
-2.49875
-2.40897
-2.33435
-2.27893
-2.2438
-2.23353
-2.24237
-2.26479
-2.2887
-3.34022
-3.37665
-3.36131
-3.30935
-3.23083
-3.13449
-3.02691
-2.91428
-2.80182
-2.69396
-2.59489
-2.50795
-2.43582
-2.38073
-2.34457
-2.32957
-2.33798
-2.37268
-2.43735
-3.67238
-3.63924
-3.57383
-3.48585
-3.3821
-3.26901
-3.15137
-3.03404
-2.92108
-2.8158
-2.72172
-2.64083
-2.57473
-2.52387
-2.48819
-2.46556
-2.45419
-2.45045
-2.4512
-3.97965
-3.87957
-3.76656
-3.6442
-3.516
-3.38595
-3.25726
-3.13329
-3.01699
-2.91068
-2.81678
-2.73654
-2.67058
-2.61867
-2.58011
-2.55288
-2.53526
-2.52472
-2.51905
-4.23231
-4.08268
-3.93193
-3.78145
-3.63298
-3.48874
-3.35068
-3.22093
-3.10153
-2.99399
-2.89997
-2.82022
-2.75489
-2.70345
-2.66505
-2.63788
-2.62019
-2.60977
-2.60447
-4.43529
-4.24603
-4.06514
-3.89228
-3.72767
-3.57213
-3.42656
-3.29211
-3.1701
-3.06145
-2.96726
-2.88801
-2.8235
-2.77307
-2.73574
-2.70978
-2.69338
-2.68444
-2.6808
-4.58312
-4.36384
-4.16015
-3.97074
-3.79448
-3.63092
-3.48008
-3.34236
-3.21857
-3.10922
-3.01504
-2.93634
-2.87271
-2.82338
-2.78728
-2.76264
-2.74752
-2.73978
-2.7372
-4.67759
-4.43062
-4.21086
-4.0114
-3.82866
-3.66085
-3.50733
-3.368
-3.24338
-3.13376
-3.03971
-2.96144
-2.89845
-2.84996
-2.81487
-2.79147
-2.7778
-2.77176
-2.77109
-4.67761
-4.43067
-4.21091
-4.01146
-3.82872
-3.66092
-3.50739
-3.36807
-3.24344
-3.13383
-3.03978
-2.96151
-2.89852
-2.85004
-2.81495
-2.79155
-2.77789
-2.77185
-2.77118
-4.58316
-4.36393
-4.16027
-3.97088
-3.79463
-3.63108
-3.48024
-3.34254
-3.21875
-3.1094
-3.01523
-2.93654
-2.87292
-2.8236
-2.78751
-2.76289
-2.74779
-2.74008
-2.73752
-4.43535
-4.24617
-4.06533
-3.8925
-3.72792
-3.57239
-3.42683
-3.29239
-3.17039
-3.06175
-2.96757
-2.88833
-2.82383
-2.77342
-2.73612
-2.71018
-2.69381
-2.68489
-2.68129
-4.23238
-4.08286
-3.93217
-3.78174
-3.63329
-3.48907
-3.35102
-3.22129
-3.1019
-2.99438
-2.90037
-2.82063
-2.75531
-2.70389
-2.66551
-2.63835
-2.62068
-2.61028
-2.605
-3.97974
-3.87976
-3.76683
-3.64452
-3.51636
-3.38634
-3.25767
-3.13371
-3.01744
-2.91114
-2.81726
-2.73703
-2.67108
-2.61918
-2.58063
-2.55341
-2.53581
-2.52528
-2.51963
-3.67247
-3.63946
-3.57412
-3.4862
-3.38249
-3.26944
-3.15183
-3.03452
-2.92158
-2.81632
-2.72225
-2.64138
-2.57528
-2.52443
-2.48874
-2.46608
-2.45467
-2.45088
-2.45158
-3.34032
-3.37689
-3.36167
-3.30981
-3.23137
-3.13511
-3.0276
-2.91504
-2.80266
-2.69487
-2.59588
-2.50903
-2.437
-2.38201
-2.34593
-2.33093
-2.33922
-2.37358
-2.43758
-3.04001
-3.1325
-3.1642
-3.14898
-3.09771
-3.02013
-2.92466
-2.81859
-2.70844
-2.60041
-2.49867
-2.40877
-2.334
-2.27836
-2.24301
-2.23254
-2.24146
-2.26447
-2.28977
-2.77516
-2.90858
-2.97879
-2.99533
-2.96793
-2.90651
-2.82104
-2.72008
-2.61172
-2.50418
-2.40189
-2.31208
-2.23674
-2.17697
-2.12519
-2.07498
-2.00339
-1.89707
-1.74047
-2.53803
-2.70614
-2.80674
-2.84709
-2.83558
-2.78206
-2.69743
-2.59144
-2.47346
-2.35254
-2.23305
-2.12102
-2.01508
-1.91073
-1.7953
-1.65924
-1.4878
-1.28539
-1.06038
-2.33568
-2.53194
-2.65938
-2.72184
-2.72583
-2.68076
-2.5979
-2.48803
-2.36156
-2.22803
-2.09206
-1.95826
-1.82378
-1.68322
-1.52799
-1.35675
-1.17281
-0.995733
-0.846891
-2.1592
-2.37987
-2.53067
-2.61244
-2.62981
-2.59154
-2.50905
-2.39396
-2.25757
-2.10996
-1.95624
-1.80076
-1.64157
-1.47618
-1.30286
-1.12793
-0.961536
-0.819262
-0.707182
-1.9973
-2.2463
-2.41951
-2.51856
-2.54736
-2.51426
-2.43087
-2.30955
-2.16254
-2.0007
-1.83016
-1.65631
-1.47962
-1.30152
-1.12544
-0.960355
-0.814971
-0.697144
-0.605394
-1.87248
-2.14137
-2.33268
-2.44536
-2.48247
-2.45194
-2.3657
-2.23682
-2.07856
-1.90288
-1.71738
-1.52922
-1.34165
-1.15923
-0.98775
-0.835362
-0.707071
-0.605356
-0.525839
-1.78642
-2.06656
-2.26934
-2.3902
-2.43115
-2.39965
-2.30813
-2.17032
-2.00062
-1.81229
-1.61448
-1.41639
-1.2235
-1.04214
-0.878307
-0.737999
-0.622798
-0.53204
-0.460188
-1.74128
-2.02804
-2.23547
-2.35782
-2.39682
-2.3597
-2.2596
-2.11098
-1.92941
-1.72949
-1.52182
-1.31736
-1.12299
-0.945538
-0.790002
-0.660055
-0.554603
-0.471064
-0.403143
-1.74167
-2.02676
-2.2307
-2.34691
-2.3773
-2.32925
-2.21691
-2.0555
-1.86181
-1.65162
-1.43662
-1.22902
-1.03613
-0.864363
-0.717174
-0.596067
-0.497785
-0.418199
-0.349857
-1.78293
-2.05856
-2.25282
-2.35773
-2.37538
-2.31394
-2.18834
-2.01485
-1.81119
-1.59365
-1.37531
-1.16813
-0.979418
-0.814533
-0.675614
-0.561426
-0.467124
-0.385332
-0.304111
-1.843
-2.10251
-2.27912
-2.3665
-2.36695
-2.28977
-2.14994
-1.96467
-1.75208
-1.52821
-1.30745
-1.10068
-0.915358
-0.755475
-0.622727
-0.514428
-0.427521
-0.35688
-0.298872
-1.91765
-2.15978
-2.32129
-2.39706
-2.38973
-2.30882
-2.16839
-1.98511
-1.77615
-1.5566
-1.34104
-1.13913
-0.958335
-0.802463
-0.673909
-0.570847
-0.493634
-0.44212
-0.422229
-2.00198
-2.22688
-2.37213
-2.43406
-2.41635
-2.32883
-2.18522
-2.00162
-1.79447
-1.57813
-1.36671
-1.16933
-0.993228
-0.84224
-0.719314
-0.623604
-0.556883
-0.519453
-0.512921
-2.09377
-2.30336
-2.4322
-2.47976
-2.45114
-2.35648
-2.20921
-2.02495
-1.81947
-1.60638
-1.39932
-1.20684
-1.03603
-0.890715
-0.774298
-0.686289
-0.62872
-0.600873
-0.601921
-2.19744
-2.39052
-2.50143
-2.53385
-2.49365
-2.39111
-2.23946
-2.05394
-1.84979
-1.63987
-1.43738
-1.25027
-1.08544
-0.946662
-0.837533
-0.757453
-0.708332
-0.688561
-0.696338
-2.31834
-2.48668
-2.57816
-2.59486
-2.54224
-2.43079
-2.27381
-2.08635
-1.88317
-1.67646
-1.47895
-1.29795
-1.14011
-1.00896
-0.90817
-0.836734
-0.796464
-0.785125
-0.800534
-2.43597
-2.58248
-2.65662
-2.65779
-2.59208
-2.47088
-2.30793
-2.11827
-1.91625
-1.71329
-1.52171
-1.34805
-1.19864
-1.07667
-0.985762
-0.924376
-0.894354
-0.892965
-0.917792
-2.55332
-2.68747
-2.74494
-2.72901
-2.64821
-2.51545
-2.34517
-2.1525
-1.95137
-1.75243
-1.56749
-1.40225
-1.26267
-1.15146
-1.07217
-1.0226
-1.00473
-1.01533
-1.05175
-2.68659
-2.80273
-2.83902
-2.80225
-2.7035
-2.55722
-2.3787
-2.18298
-1.98343
-1.78979
-1.61322
-1.45845
-1.33097
-1.23297
-1.16788
-1.13273
-1.12976
-1.15516
-1.20607
-2.83297
-2.92279
-2.93301
-2.87143
-2.75195
-2.59082
-2.40403
-2.20623
-2.00998
-1.82377
-1.65812
-1.51655
-1.40412
-1.32235
-1.27467
-1.25717
-1.27251
-1.31626
-1.3853
-2.98164
-3.04374
-3.02316
-2.93244
-2.78985
-2.61347
-2.41941
-2.22152
-2.03112
-1.85516
-1.70355
-1.5784
-1.48436
-1.42228
-1.39568
-1.39957
-1.43725
-1.50358
-1.59527
-3.14114
-3.16821
-3.1078
-2.98269
-2.81525
-2.6243
-2.42508
-2.23
-2.04874
-1.88641
-1.75242
-1.64729
-1.57538
-1.53685
-1.53548
-1.56498
-1.62967
-1.72363
-1.84358
-3.3192
-3.28559
-3.17494
-3.01232
-2.82083
-2.6185
-2.41825
-2.23052
-2.06296
-1.91861
-1.80668
-1.72589
-1.68053
-1.67006
-1.69883
-1.75897
-1.85635
-1.98422
-2.13964
-3.46153
-3.36018
-3.19842
-3.00144
-2.79171
-2.58531
-2.39132
-2.21791
-2.07046
-1.94979
-1.86551
-1.81426
-1.80074
-1.82372
-1.88859
-1.98568
-2.12322
-2.29369
-2.49507
-3.57467
-3.40762
-3.19356
-2.9661
-2.74476
-2.54163
-2.36052
-2.20728
-2.08512
-1.99273
-1.94081
-1.92378
-1.94711
-2.009
-2.11642
-2.25757
-2.44401
-2.66767
-2.92866
-3.663
-3.40433
-3.13869
-2.89134
-2.67036
-2.48135
-2.32192
-2.19627
-2.10583
-2.0474
-2.0337
-2.0567
-2.12328
-2.23117
-2.38965
-2.58445
-2.83198
-3.124
-3.46528
-3.64227
-3.29901
-3.00449
-2.75979
-2.5569
-2.39576
-2.26838
-2.17874
-2.12721
-2.10914
-2.14025
-2.21004
-2.32751
-2.49025
-2.71104
-2.973
-3.29978
-3.68415
-4.14121
-3.48684
-3.10565
-2.81625
-2.59732
-2.4275
-2.30446
-2.21628
-2.16842
-2.16097
-2.18833
-2.27027
-2.3938
-2.57098
-2.79972
-3.09785
-3.44591
-3.87819
-4.39073
-5.02278
-3.16658
-2.81022
-2.56527
-2.39556
-2.27314
-2.19761
-2.15546
-2.15498
-2.19692
-2.27527
-2.41487
-2.6007
-2.84903
-3.15911
-3.55634
-4.01951
-4.59937
-5.30017
-6.22153
-2.68263
-2.42601
-2.26111
-2.15853
-2.09357
-2.07181
-2.08025
-2.131
-2.22627
-2.36043
-2.56446
-2.82223
-3.15603
-3.56839
-4.09644
-4.7199
-5.51624
-6.50817
-7.95648
-2.07533
-1.97441
-1.91153
-1.88575
-1.88347
-1.91842
-1.97946
-2.08299
-2.23341
-2.42644
-2.70047
-3.04004
-3.47625
-4.01872
-4.72374
-5.57891
-6.70807
-8.17447
-10.6889
-1.41818
-1.48251
-1.52412
-1.57574
-1.63656
-1.72769
-1.84032
-1.99485
-2.19851
-2.44952
-2.7953
-3.22371
-3.77921
-4.48584
-5.43286
-6.63222
-8.29517
-10.5749
-15.4691
-0.792067
-0.978145
-1.10697
-1.22843
-1.34862
-1.49234
-1.65213
-1.85158
-2.10068
-2.40159
-2.81241
-3.32731
-4.01101
-4.91586
-6.18941
-7.90688
-10.4575
-14.2048
-24.8403
-0.259923
-0.483309
-0.667506
-0.846058
-1.01949
-1.21032
-1.40964
-1.64333
-1.92209
-2.25377
-2.70837
-3.28658
-4.0854
-5.22012
-6.97874
-9.71643
-14.6006
-23.6049
-55.7624
)
;

boundaryField
{
    up
    {
        type            calculated;
        value           nonuniform List<scalar> 
84
(
-50.5314
-27.3676
-16.7982
-11.4642
-8.45353
-6.56452
-5.27238
-4.32975
-3.61071
-3.04294
-2.58531
-2.21093
-1.90012
-1.63992
-1.42035
-1.23343
-1.07294
-0.934026
-0.812775
-0.70547
-0.608567
-0.516937
-0.418555
-0.268753
-0.260441
-0.32951
-0.383245
-0.438802
-0.50176
-0.577179
-0.671521
-0.792897
-0.976937
-1.72316
-2.35852
-2.48053
-2.44943
-2.51603
-2.60218
-2.67967
-2.7368
-2.77185
-2.77194
-2.73714
-2.68018
-2.60272
-2.51661
-2.44981
-2.4802
-2.3597
-1.73084
-0.978418
-0.793791
-0.6722
-0.577723
-0.502218
-0.439211
-0.383639
-0.329992
-0.26075
-0.268569
-0.418576
-0.51695
-0.608576
-0.705475
-0.812779
-0.934027
-1.07294
-1.23343
-1.42035
-1.63992
-1.90012
-2.21093
-2.58532
-3.04294
-3.61072
-4.32976
-5.27239
-6.56452
-8.45353
-11.4642
-16.7982
-27.3676
-50.5314
)
;
    }
    low
    {
        type            calculated;
        value           nonuniform List<scalar> 
84
(
-0.278804
-0.827193
-1.49476
-2.20484
-2.86251
-3.38068
-3.70959
-3.85088
-3.83071
-3.68902
-3.54741
-3.37726
-3.16131
-2.98071
-2.81974
-2.65686
-2.5093
-2.38772
-2.26158
-2.1214
-2.00301
-1.89999
-1.80197
-1.71448
-1.63163
-1.58064
-1.58223
-1.64342
-1.75021
-1.90134
-2.08658
-2.27861
-2.49932
-2.75819
-3.04128
-3.36624
-3.73312
-4.06312
-4.32996
-4.54508
-4.70272
-4.81031
-4.81032
-4.70274
-4.54511
-4.33
-4.06316
-3.73317
-3.3663
-3.04126
-2.75823
-2.49929
-2.2786
-2.08657
-1.90133
-1.75021
-1.64342
-1.58224
-1.58066
-1.63165
-1.71453
-1.80198
-1.90002
-2.00303
-2.12141
-2.26159
-2.38772
-2.50931
-2.65686
-2.81974
-2.9807
-3.1613
-3.37724
-3.5474
-3.68901
-3.8307
-3.85089
-3.7096
-3.3807
-2.86253
-2.20486
-1.49478
-0.827199
-0.278806
)
;
    }
    left
    {
        type            calculated;
        value           nonuniform List<scalar> 
19
(
-0.254917
-0.474119
-0.661754
-0.845977
-1.02635
-1.22471
-1.43263
-1.67738
-1.97009
-2.32271
-2.80864
-3.43191
-4.30273
-5.55914
-7.52436
-10.6337
-16.2463
-26.7167
-52.412
)
;
    }
    right
    {
        type            calculated;
        value           nonuniform List<scalar> 
19
(
-0.254919
-0.474121
-0.661754
-0.845977
-1.02635
-1.22471
-1.43263
-1.67738
-1.97009
-2.32271
-2.80863
-3.4319
-4.30273
-5.55914
-7.52435
-10.6337
-16.2463
-26.7167
-52.412
)
;
    }
    frontAndBackPlanes
    {
        type            empty;
    }
}


// ************************************************************************* //
