/*--------------------------------*- C++ -*----------------------------------*\
  =========                 |
  \\      /  F ield         | OpenFOAM: The Open Source CFD Toolbox
   \\    /   O peration     | Website:  https://openfoam.org
    \\  /    A nd           | Version:  7
     \\/     M anipulation  |
\*---------------------------------------------------------------------------*/
FoamFile
{
    version     2.0;
    format      ascii;
    class       volScalarField;
    location    "0.06";
    object      gradTz;
}
// * * * * * * * * * * * * * * * * * * * * * * * * * * * * * * * * * * * * * //

dimensions      [0 -1 0 1 0 0 0];

internalField   nonuniform List<scalar> 
1596
(
-1.61286e-16
-7.53548e-17
7.99296e-17
4.75475e-18
-1.44081e-16
0
-6.26411e-17
-6.18981e-17
-8.30856e-18
-3.4788e-17
-8.16257e-20
-3.52433e-17
1.61318e-16
-3.57047e-17
1.64556e-16
1.43644e-16
8.59113e-17
1.10091e-16
0
1.5767e-16
0
2.01678e-16
-3.4198e-18
-5.42702e-17
5.34377e-17
1.21269e-16
8.05078e-18
5.54897e-17
-2.74771e-17
5.53768e-17
-2.07963e-19
-7.72476e-17
-4.91733e-17
-1.32519e-16
-1.31052e-16
-1.20481e-16
6.96417e-17
0
-7.2761e-17
0
-1.2216e-16
5.25931e-18
9.66145e-17
-3.44314e-17
5.82178e-18
-5.49263e-19
-3.32044e-19
-2.03116e-19
1.48732e-17
0
3.99656e-17
1.0948e-16
-1.10004e-17
9.64408e-18
2.21807e-17
3.78976e-17
0
1.20338e-16
-2.99213e-17
2.98121e-17
0
-2.64192e-17
-2.88949e-17
3.96269e-17
-2.76534e-17
0
0
-1.88736e-17
7.84632e-18
0
-3.04671e-17
-3.51233e-17
2.60119e-17
-3.19948e-17
-1.60702e-18
0
2.16999e-17
4.78669e-17
-3.51658e-17
0
-7.98068e-18
-2.55969e-17
0
3.43346e-17
-3.0555e-18
-2.80698e-18
-8.6377e-18
1.56265e-17
2.14796e-17
2.79861e-18
5.84717e-18
-2.80656e-17
1.35378e-18
1.33248e-17
-6.36391e-18
-5.63511e-18
-6.44885e-17
5.25667e-17
-3.79051e-17
-2.20025e-19
-2.36599e-17
5.99941e-19
-6.01933e-19
-1.39606e-17
0
-6.30416e-18
-1.89509e-17
-1.92085e-17
1.30691e-17
1.95615e-17
-2.47427e-19
-1.1728e-17
-1.35151e-17
1.08375e-17
4.70936e-17
-6.57228e-17
6.11008e-17
2.80749e-17
0
1.87523e-17
8.72838e-18
-3.87943e-18
1.72447e-17
-2.86158e-18
-1.41804e-17
2.81953e-20
-7.00692e-18
-1.30909e-17
-8.51745e-18
8.37849e-18
1.18313e-17
-1.68459e-19
-4.22641e-18
9.8381e-18
1.07447e-16
-1.04401e-16
0
0
-2.02515e-17
0
0
0
6.76458e-18
0
0
6.78636e-18
2.42341e-20
4.08392e-18
-7.56973e-18
0
4.02286e-18
1.95561e-18
0
-6.40404e-17
1.17555e-16
0
0
2.08562e-17
0
-4.46307e-18
4.45855e-18
-6.88536e-18
2.31937e-18
-2.33634e-18
0
3.27912e-18
5.36046e-18
0
-3.02443e-18
-4.09509e-18
-1.76412e-18
1.90629e-16
-8.42253e-17
0
-3.59055e-17
3.55036e-17
0
1.41492e-17
0
0
0
1.63825e-18
-1.6461e-18
0
-2.63924e-18
-6.1624e-19
0
1.20544e-18
1.44525e-18
0
-4.84854e-17
0
0
3.69109e-17
-6.22964e-17
7.96322e-18
3.35617e-18
-3.87623e-18
1.29394e-18
3.38378e-19
-1.73426e-18
-1.89454e-18
0
1.23364e-18
-3.3996e-19
3.45062e-19
1.56683e-18
-1.20901e-18
-4.59761e-19
3.04885e-17
-8.96155e-18
3.00447e-17
8.25043e-17
-1.08021e-17
-2.63128e-17
0
0
0
3.9126e-18
1.02093e-18
3.08918e-18
-7.12127e-19
-1.21157e-18
-4.75926e-19
-3.74607e-19
1.81204e-19
-4.60865e-19
4.21964e-19
-3.99679e-17
3.97763e-17
-6.77955e-17
-8.2008e-17
6.89885e-17
1.80784e-17
-2.96276e-17
1.91764e-17
-1.20944e-17
3.18815e-18
1.42522e-18
-9.23876e-19
2.59103e-19
-2.83287e-19
9.38146e-19
0
-8.16996e-20
7.30013e-19
-1.15462e-19
-2.89441e-16
1.23762e-16
2.92082e-20
-1.57844e-17
5.96726e-18
1.77472e-17
-3.14459e-17
-8.89325e-18
5.48509e-18
-3.28343e-18
-1.94256e-18
0
-1.18438e-18
-2.98019e-19
-3.5312e-19
-1.87175e-19
1.27181e-20
-2.93154e-19
5.22188e-20
4.72479e-17
-3.7447e-17
-1.14184e-19
-2.1233e-17
-4.04521e-17
3.5352e-17
2.23626e-19
8.66647e-18
-5.34046e-18
6.25693e-18
1.16467e-18
7.19828e-19
1.23874e-18
0
5.72894e-19
2.32813e-19
0
1.14105e-19
2.65072e-20
0
3.63279e-17
2.06591e-17
-4.75e-17
3.88522e-17
-5.02339e-17
2.90592e-17
6.5277e-18
-2.53097e-18
-6.83962e-18
6.5098e-19
-6.47768e-19
-1.05529e-18
2.74706e-19
-1.28271e-19
-1.97121e-19
5.78179e-20
-3.60586e-20
2.85287e-20
-4.37657e-17
1.22957e-16
-9.40539e-17
3.79862e-17
0
0
-3.91272e-18
9.56041e-18
-3.54783e-18
5.9914e-18
0
0
6.49417e-19
-4.36812e-19
-1.74567e-19
5.26504e-20
-4.68154e-20
2.56921e-20
0
8.21635e-18
4.10408e-17
-2.49711e-17
-1.87143e-17
-2.10391e-17
-1.29508e-18
8.11137e-18
0
-3.1382e-18
-1.45096e-18
1.20049e-18
-6.49641e-19
3.4499e-19
0
7.74397e-20
9.09413e-20
0
0
0
-8.11543e-18
4.75119e-17
9.66963e-18
-5.71279e-17
1.13431e-17
7.90044e-18
0
0
2.73322e-18
-1.53562e-18
-1.16113e-18
6.28322e-19
-3.33631e-19
0
-3.09773e-20
1.99444e-20
0
-9.69053e-21
-3.32215e-21
-3.01954e-17
8.92379e-17
-9.48325e-17
-2.62958e-17
1.50658e-17
-6.62214e-18
4.08352e-18
0
-1.38359e-18
8.84765e-19
0
0
9.08681e-20
-9.09727e-20
1.16132e-20
-2.05926e-20
1.3661e-20
3.40919e-21
2.56117e-21
1.79055e-17
-1.37992e-17
5.53037e-17
-3.4298e-17
-9.21048e-18
2.32004e-18
9.29736e-18
2.03299e-18
1.32389e-18
0
2.68717e-19
-2.41815e-19
1.2463e-19
-6.91753e-20
3.95265e-20
-4.96729e-20
-1.00078e-20
7.38832e-21
1.41903e-21
4.32461e-17
-4.62004e-17
0
2.15863e-17
-1.25727e-17
-5.5417e-18
1.62815e-18
-6.88382e-18
0
-7.72532e-20
-4.01256e-19
-1.57647e-19
1.29566e-19
-2.21884e-20
-3.82017e-20
1.85936e-20
0
2.84543e-21
-1.37787e-21
8.61103e-17
-1.21621e-17
3.81883e-17
-2.92308e-17
8.54052e-18
-2.63136e-18
-7.25e-18
-1.13938e-18
1.73609e-18
-1.39053e-19
-3.34299e-19
2.27844e-19
-7.48088e-20
-4.70692e-20
0
0
0
-2.85576e-21
8.97922e-23
-6.82351e-17
6.42214e-17
-3.83974e-20
5.47119e-18
3.5182e-18
-5.26946e-18
4.87752e-18
-2.65019e-18
1.52243e-18
-2.29185e-19
4.04375e-19
6.73962e-20
-1.92223e-20
1.26978e-21
-1.01141e-21
-2.99235e-21
0
0
0
0
0
1.95627e-17
-1.5498e-17
-2.2395e-17
0
0
-6.84161e-19
-7.04109e-19
3.57197e-19
0
-8.49989e-20
4.06052e-20
-7.21116e-20
7.41736e-20
-1.19985e-20
1.27633e-20
9.40158e-22
0
-1.30832e-17
1.32442e-17
0
-5.99917e-18
5.45337e-18
6.13996e-18
0
6.90694e-19
3.17951e-19
-1.89911e-18
0
-9.51586e-20
4.53609e-20
1.96318e-20
-9.47001e-21
9.59879e-21
0
-2.12133e-21
0
-6.76061e-18
-5.61234e-18
3.31575e-19
6.16399e-18
-1.22208e-17
0
-1.55292e-18
0
1.74647e-18
4.11393e-19
0
3.65007e-19
-2.7528e-19
4.10808e-20
-8.97257e-21
1.35126e-20
1.69374e-20
4.26857e-21
-3.37466e-21
0
1.28598e-17
-8.26468e-18
9.81503e-18
7.77609e-18
0
2.97857e-18
-2.43085e-18
-9.8352e-19
8.13167e-19
-1.15939e-18
-2.80588e-19
0
0
1.29709e-20
0
0
1.50629e-21
0
-6.25097e-17
4.90923e-17
0
1.43227e-18
-4.01628e-18
-1.70737e-19
2.41903e-18
7.43218e-19
-1.46687e-18
-1.62498e-18
1.48095e-18
-4.19828e-19
0
-5.69983e-20
0
0
0
-5.7496e-21
4.57137e-21
-1.89762e-17
1.53755e-17
3.25944e-17
-2.93926e-17
7.1984e-18
8.48795e-19
-2.43438e-18
1.45562e-18
1.6697e-18
7.87503e-19
-1.48789e-18
0
2.21361e-19
-6.42144e-20
-6.4795e-20
-6.32366e-20
4.52083e-20
-2.37327e-21
6.01245e-21
-6.89306e-17
7.65018e-17
-7.31934e-17
1.00743e-17
6.39387e-18
-5.3713e-18
3.73746e-18
-1.89922e-18
0
-8.50914e-19
7.29382e-19
2.93407e-19
3.32132e-19
1.95423e-19
-2.61919e-19
-2.23767e-20
0
-3.33409e-21
9.40987e-22
-7.44278e-17
-1.824e-17
-2.55184e-17
1.49401e-17
-1.6375e-17
1.09475e-17
-5.74067e-18
3.24504e-18
-5.41411e-19
-4.5914e-19
-9.98643e-19
7.18594e-19
-7.72986e-20
3.72842e-19
-4.0025e-19
-9.14856e-22
2.46365e-20
0
-2.11246e-21
8.04727e-17
-2.01386e-17
0
0
-1.69112e-17
3.0368e-17
-5.97525e-18
-6.98949e-19
4.62822e-18
-1.96819e-19
0
0
-3.12944e-19
0
-4.17532e-19
8.31676e-19
-5.20041e-19
0
1.21131e-21
2.59388e-17
4.35568e-17
0
-1.43973e-17
-8.41689e-18
-4.96307e-18
-6.37469e-18
1.82363e-18
-4.41335e-18
-1.58884e-18
0
0
7.75905e-19
0
0
-7.03773e-19
1.22382e-18
0
0
1.78502e-16
-2.85943e-17
-9.23007e-17
-3.81563e-17
5.27446e-17
1.29137e-17
6.18105e-18
0
-1.44782e-18
1.06062e-18
2.53583e-18
-7.27038e-19
-6.80863e-19
9.19282e-19
-9.77834e-19
-1.95633e-19
0
0
0
1.42868e-17
-9.84457e-17
9.53402e-17
-7.72804e-18
-4.86373e-17
7.03371e-17
-3.23001e-17
0
0
8.48182e-18
-6.42679e-18
0
-1.107e-18
2.04362e-18
-1.35141e-19
4.67375e-19
1.23046e-19
2.65011e-21
2.25112e-20
0
0
0
6.4691e-17
-4.40436e-17
3.39764e-17
-5.04708e-17
1.28435e-17
0
-2.96371e-18
3.68736e-18
-3.7687e-18
-5.35824e-19
5.06113e-20
-2.74818e-19
-2.53238e-20
-2.07505e-19
-6.07359e-20
-3.08493e-20
1.15534e-16
-1.96879e-16
8.88344e-17
0
1.64124e-17
-2.28218e-17
1.72377e-17
-1.35144e-17
0
-3.98446e-18
5.67248e-18
0
0
4.89821e-20
0
-3.34709e-19
2.20868e-19
2.40459e-20
5.13673e-20
1.21342e-16
0
-3.68726e-17
4.09525e-17
-2.01069e-17
4.17331e-17
-1.83134e-17
-1.06596e-17
1.0771e-17
-8.80682e-19
0
0
3.73972e-19
-5.16992e-19
-3.36757e-19
6.15682e-19
-1.29849e-19
5.80066e-20
0
6.85905e-17
4.57128e-17
-5.60028e-18
-3.939e-17
-3.33195e-18
-2.00627e-17
4.33264e-18
1.46013e-17
-6.09448e-19
8.97219e-19
0
0
-3.8311e-19
0
3.75537e-19
-4.01735e-19
0
4.75578e-20
-1.27818e-20
-3.63409e-17
-2.29937e-17
2.16028e-17
-2.10906e-18
-8.46449e-19
2.00862e-18
0
-4.0663e-19
4.96557e-18
-4.17254e-18
0
9.47822e-19
-2.67361e-19
-7.51586e-19
-6.10869e-20
-4.50091e-20
0
-3.75366e-20
0
1.38542e-17
-2.53264e-17
7.09302e-19
9.4417e-18
6.9348e-18
-6.79541e-18
-3.73651e-18
4.19488e-18
-1.09951e-18
8.81197e-19
-6.40034e-19
6.59774e-19
0
1.27992e-21
-4.40052e-20
1.58062e-19
-5.12663e-22
0
0
1.38547e-17
-1.38028e-17
-9.3904e-18
8.38222e-18
1.217e-17
-1.22418e-17
-1.86838e-18
1.87381e-18
-1.10946e-18
1.1208e-18
-6.40094e-19
1.14636e-18
-3.21e-19
-1.95076e-19
-5.14327e-20
1.88457e-20
3.89262e-20
9.88949e-21
-7.37886e-21
0
-3.14615e-18
1.62132e-17
-1.7762e-17
1.20993e-17
-1.0827e-17
0
5.69441e-18
-5.15121e-18
0
1.25197e-18
-1.55972e-18
-7.17362e-19
7.51841e-19
1.17738e-19
0
0
-3.75598e-20
1.34859e-20
5.50503e-17
-9.73742e-17
9.0541e-17
-7.15981e-17
2.67669e-17
-1.74403e-17
1.67804e-17
1.56651e-18
-4.82302e-18
4.26866e-18
0
-2.04443e-18
1.86753e-18
-2.87787e-19
-1.15324e-19
1.57816e-19
1.10696e-19
3.64634e-20
-1.30304e-20
1.3621e-16
0
-4.19794e-17
3.27334e-17
3.29397e-18
-2.08625e-17
3.43608e-17
-2.63326e-17
9.64102e-18
-2.99418e-18
3.06481e-18
4.98539e-19
6.97808e-19
2.80308e-19
-1.923e-19
-3.4717e-20
-2.36744e-19
0
2.04083e-20
1.00866e-16
-1.13568e-16
0
8.11601e-18
2.91798e-17
-2.77963e-17
3.79431e-18
2.86185e-18
1.1101e-18
1.57049e-18
0
0
-1.16088e-18
1.95221e-18
-6.66771e-19
-2.01975e-19
2.21129e-19
1.62469e-20
-3.76698e-20
1.90119e-17
1.00117e-16
-9.88682e-18
-5.68025e-17
5.02725e-17
4.86843e-18
-3.71342e-18
-2.79518e-18
7.00543e-18
-8.58796e-18
3.69089e-18
-3.77226e-18
3.60606e-19
-6.10426e-19
7.6404e-19
-5.1761e-19
0
0
2.57278e-20
0
2.37508e-17
-6.00632e-17
6.9289e-17
-4.26196e-17
4.25181e-17
0
8.85853e-18
-8.89912e-18
-4.57565e-18
6.43659e-18
0
1.62351e-18
-2.04718e-18
-2.62121e-19
0
-2.08101e-20
-2.8993e-20
-7.35149e-21
-2.47169e-16
1.11863e-16
0
-5.27508e-17
5.27455e-17
2.37017e-17
-1.53282e-17
4.43943e-18
0
-1.26742e-19
4.9544e-19
-7.27002e-19
-6.81081e-19
9.19563e-19
-9.778e-19
0
1.1918e-19
-3.85173e-21
-1.87787e-20
1.46846e-16
-1.39562e-16
0
1.38674e-17
1.05975e-17
-8.57587e-18
0
-4.65257e-18
-2.77065e-18
0
-3.85218e-19
0
7.7752e-19
0
0
1.35689e-19
4.45269e-19
-6.1377e-19
0
-4.84213e-20
2.01502e-17
-1.59421e-17
9.07468e-18
-4.83295e-17
1.65697e-17
0
7.00134e-19
1.8286e-18
0
-1.14177e-18
1.93935e-18
-2.0374e-18
1.87233e-19
0
-6.15443e-20
0
0
0
-3.77073e-20
0
1.47344e-17
0
-1.38863e-17
1.41071e-17
0
2.4169e-18
-1.35045e-18
3.96865e-18
-1.71821e-18
3.20187e-19
-3.6356e-19
2.04884e-19
-4.02179e-19
-5.23938e-20
0
-7.22745e-21
0
5.38023e-17
-9.17724e-17
0
-9.66523e-18
6.84252e-18
0
0
-4.1046e-18
0
-8.52744e-19
-7.31238e-19
-2.94281e-19
3.33326e-19
0
5.34073e-20
0
0
1.21286e-20
-1.02384e-20
0
6.99529e-17
-5.49933e-17
8.9478e-18
-6.33621e-18
-1.65632e-18
4.12043e-18
3.19125e-18
-2.38569e-18
7.30067e-19
1.83618e-19
-1.87163e-19
6.83054e-19
-1.88191e-19
-2.12245e-19
5.25763e-20
-5.34207e-21
3.00589e-21
-5.14278e-22
-1.38297e-16
4.92115e-17
0
0
2.15606e-18
-2.19247e-18
5.54062e-19
-9.64749e-20
1.83422e-18
5.54493e-19
-4.58793e-19
-6.61592e-20
-8.1947e-20
5.72393e-20
0
8.08664e-21
4.89639e-21
1.62233e-21
4.64835e-22
0
3.7103e-17
-2.93145e-17
8.39085e-18
5.40511e-18
-9.4729e-19
-1.84344e-18
-1.06457e-18
-2.16106e-18
5.05931e-19
-8.59131e-20
2.61509e-19
7.66306e-20
-4.29896e-20
4.56308e-20
1.10834e-20
-1.71656e-20
-1.49846e-21
0
-8.34493e-18
-3.06669e-17
8.76846e-18
6.16689e-18
-1.48061e-17
9.14493e-18
2.26075e-18
-2.31083e-18
9.34298e-19
-4.80154e-19
0
0
-7.15454e-20
1.08766e-19
-3.58246e-20
1.56895e-20
-1.71786e-20
1.88493e-21
-3.36652e-21
1.47147e-17
1.1696e-17
-8.46083e-18
3.60646e-18
-5.86891e-18
-4.61001e-18
0
0
0
0
0
0
4.12197e-20
-5.89399e-20
6.23353e-20
-9.25324e-21
1.23948e-20
3.73224e-21
-3.0872e-21
3.23062e-17
-3.95109e-17
4.83781e-17
-1.27816e-17
1.87034e-17
-6.66202e-18
1.05565e-17
-4.47875e-18
-1.01965e-18
1.04306e-18
0
8.49317e-20
-4.02695e-20
5.29592e-20
-3.04842e-20
-1.90974e-20
-2.02988e-20
2.01998e-21
2.47538e-21
5.12553e-17
1.15049e-17
0
-1.10168e-17
-5.43634e-18
1.05668e-17
-1.93208e-19
-2.05204e-18
9.13796e-19
-3.51737e-19
0
-6.72331e-20
0
-2.42039e-20
1.42938e-20
-8.1269e-21
-2.16942e-21
8.69325e-22
0
7.02115e-17
-1.21619e-17
3.83404e-17
-2.94424e-17
-3.91923e-18
9.72422e-18
-5.66382e-18
4.69447e-19
2.58427e-19
-4.00649e-19
3.07177e-19
0
0
3.86339e-20
-4.50277e-21
1.61272e-21
7.58736e-21
-2.32747e-21
0
-1.18341e-20
0
-9.34197e-18
4.12269e-17
-2.59807e-17
-1.6566e-17
8.77183e-18
-4.49039e-18
3.70485e-18
1.06574e-18
-5.14493e-19
1.51452e-19
-1.03279e-19
2.46894e-20
6.2949e-20
-2.73118e-21
-9.08978e-21
7.25127e-21
-1.52043e-21
1.60965e-16
-4.90218e-17
1.42009e-17
-4.82625e-17
9.21047e-18
-1.02891e-17
6.1791e-18
0
0
-9.99967e-20
-1.89397e-19
-4.0835e-20
0
-8.06083e-20
-3.95237e-20
1.92107e-20
-1.00427e-21
2.98917e-21
3.52203e-21
0
-4.44688e-17
5.94525e-17
4.95369e-18
-3.67093e-17
6.62214e-18
-6.87166e-18
2.73904e-18
4.01857e-18
0
0
3.54988e-20
1.77207e-19
0
-5.91502e-20
-1.75068e-20
3.00437e-21
-3.61762e-21
-5.38135e-21
0
-2.41494e-17
1.36132e-17
4.05065e-17
1.88712e-17
-3.1742e-17
1.24283e-17
-4.71935e-18
2.83717e-18
-2.08885e-18
0
0
0
-1.75044e-19
1.22092e-20
-3.11308e-20
0
-9.42861e-22
4.28195e-21
-1.17316e-16
1.06761e-16
8.61511e-17
-1.02432e-16
3.33161e-17
-2.9348e-17
0
5.33894e-18
-6.52524e-18
2.86801e-18
-1.35117e-18
7.43487e-19
4.02594e-19
1.81034e-19
9.53721e-20
0
0
0
0
1.39787e-16
-6.91395e-17
0
0
-1.36794e-17
2.41138e-17
-1.49326e-17
-5.96496e-18
5.89772e-18
2.48546e-18
2.94372e-18
-7.7144e-19
2.31788e-19
9.25558e-20
5.2388e-20
3.62821e-20
5.56754e-20
-2.29364e-21
2.33628e-21
-1.37381e-16
1.17128e-16
4.8391e-17
-2.70313e-17
3.85787e-17
-2.39932e-17
-1.29896e-17
-8.21361e-18
0
-5.24438e-18
6.67601e-19
9.82387e-19
-4.95424e-19
-2.74727e-19
-6.92031e-20
-4.43163e-20
-3.59628e-20
0
0
-4.72243e-17
0
2.86978e-17
1.3215e-19
0
0
1.33992e-17
8.47529e-18
0
3.0628e-18
0
-1.43285e-18
-2.42919e-19
4.08484e-19
0
1.96855e-19
-2.38931e-20
2.43742e-20
0
1.05441e-16
0
5.14572e-17
-8.81157e-17
6.76771e-17
3.89512e-17
-3.46588e-18
0
1.12507e-18
4.40816e-18
0
-1.73946e-18
1.45576e-18
-1.06719e-18
-1.9878e-19
-1.48782e-19
-5.6209e-20
-1.41361e-20
-9.63471e-20
-8.91247e-17
1.25971e-16
-2.99116e-17
-6.60665e-17
-3.15473e-17
-2.16994e-17
-2.8586e-17
-7.50172e-18
1.70314e-18
1.42791e-18
-1.42523e-18
2.78875e-18
-1.03538e-18
1.62785e-18
-2.86875e-19
0
5.14924e-19
-3.91395e-19
8.73933e-20
2.16845e-16
-8.57066e-18
-1.27566e-16
8.25048e-17
-6.4031e-17
4.43988e-17
-3.37202e-18
-9.33197e-18
6.03375e-18
1.5481e-18
-5.26739e-19
-2.54795e-18
5.27639e-19
9.44821e-19
-1.95583e-19
1.97814e-19
-5.33336e-19
-3.72046e-19
-3.68446e-19
1.06452e-16
3.8414e-17
5.86196e-17
-4.24738e-17
-2.58791e-17
4.71989e-18
-1.17749e-17
2.66248e-17
1.61097e-18
6.93929e-18
3.21345e-18
-2.5244e-18
0
-1.23386e-18
0
0
1.84763e-18
6.62872e-19
4.10583e-19
9.49071e-17
0
5.61594e-17
4.21996e-17
-2.95158e-17
2.0887e-17
0
-9.49013e-18
-1.06674e-17
-7.25372e-18
-3.24189e-18
2.55294e-18
0
0
0
0
-1.75351e-18
-2.40834e-18
0
-1.85556e-16
0
-7.60549e-18
-7.14458e-18
4.58855e-17
-1.72748e-17
-6.28709e-18
-6.56612e-18
1.11161e-17
0
2.31945e-18
-2.12226e-19
3.21136e-18
0
0
5.26233e-18
-4.18968e-19
2.90894e-18
-1.90925e-18
1.2716e-16
3.02912e-17
-2.99785e-17
-2.20651e-17
-5.69936e-17
3.24316e-17
3.09446e-17
-2.13667e-18
-8.30164e-18
9.41e-18
1.69886e-18
-1.0171e-17
-6.94041e-18
-6.82569e-18
-7.76875e-18
-6.12558e-18
8.12787e-18
-3.52701e-19
1.95548e-18
-3.70774e-17
1.45079e-17
-6.52379e-17
8.32691e-18
-8.29662e-18
0
-1.58755e-17
-3.63065e-18
-1.43948e-17
4.1481e-18
1.41805e-17
8.27745e-18
-2.54621e-18
-2.13554e-18
7.19789e-18
0
-1.96351e-17
-9.15192e-18
-1.7812e-19
8.07357e-17
-1.77114e-18
1.01827e-16
-4.19262e-17
2.20024e-19
8.60878e-19
2.36879e-17
-5.59182e-18
1.39606e-17
-1.29687e-17
-1.25641e-17
0
1.92081e-17
1.28278e-17
2.38936e-19
-3.59384e-19
1.18451e-17
9.29109e-18
0
-5.60251e-17
0
-7.38312e-18
4.14904e-17
1.51145e-18
7.99134e-18
-2.29058e-17
2.05775e-17
2.74531e-17
2.69207e-17
2.69254e-17
0
-1.86603e-17
0
1.37774e-18
-1.43091e-18
0
-1.75445e-19
9.50017e-18
4.26176e-17
5.50194e-18
-2.22789e-17
7.30316e-17
-2.18801e-17
0
0
-3.8141e-17
-2.65993e-17
-2.60802e-17
-5.55714e-17
-7.84623e-18
0
0
0
-3.55416e-18
3.76119e-18
2.72171e-17
-9.66036e-18
6.03116e-18
0
-5.74804e-17
-4.47244e-17
5.18819e-17
-5.28269e-17
-7.27889e-17
8.01618e-17
2.8121e-17
0
3.60631e-17
5.00829e-17
-1.06488e-17
6.18639e-17
-1.0362e-17
1.07843e-17
4.57323e-17
-2.58712e-17
0
-7.99182e-17
0
-7.21776e-17
6.91286e-17
0
1.09051e-16
4.87049e-17
-1.11444e-16
9.8036e-17
-1.56729e-19
-2.77584e-17
-4.84905e-17
0
8.21524e-17
-1.32519e-16
1.44029e-16
-1.83992e-16
0
0
8.05784e-17
-1.51206e-18
-3.59372e-18
-1.45754e-16
1.50975e-16
-7.05486e-17
7.0261e-17
6.94278e-17
-5.34065e-17
0
0
1.23483e-16
-1.2561e-16
-1.26707e-16
1.27612e-16
-1.26022e-16
1.37849e-16
-2.17703e-16
0
)
;

boundaryField
{
    up
    {
        type            calculated;
        value           nonuniform List<scalar> 
84
(
0
0
0
0
-6.36391e-18
1.08375e-17
-4.22641e-18
1.95561e-18
-1.76412e-18
0
-4.59761e-19
4.21964e-19
-1.15462e-19
5.22188e-20
2.65072e-20
2.85287e-20
0
0
-3.32215e-21
2.56117e-21
1.41903e-21
-1.37787e-21
8.97922e-23
0
4.83147e-22
3.55364e-22
-2.99991e-21
0
4.57137e-21
7.43983e-21
9.40987e-22
-2.11246e-21
1.21131e-21
0
5.46495e-21
2.17993e-20
-2.95906e-20
5.01935e-20
0
-1.23483e-20
0
0
-7.30053e-21
1.34859e-20
-1.30304e-20
2.04083e-20
-3.76698e-20
2.57278e-20
-7.35149e-21
-1.87787e-20
0
0
0
-1.02384e-20
-2.01417e-21
4.64835e-22
0
-3.36652e-21
-3.0872e-21
1.99302e-21
0
0
-1.52043e-21
3.52203e-21
-5.38135e-21
4.28195e-21
0
2.33628e-21
0
0
-9.63471e-20
8.73933e-20
-3.68446e-19
4.10583e-19
0
-1.90925e-18
1.95548e-18
-1.7812e-19
0
9.50017e-18
-9.66036e-18
0
0
0
)
;
    }
    low
    {
        type            calculated;
        value           nonuniform List<scalar> 
84
(
-1.61637e-16
1.5767e-16
-7.21292e-17
1.20817e-16
2.20021e-17
-5.71827e-18
4.77476e-17
1.04322e-17
0
1.91329e-16
-4.84854e-17
2.99955e-17
-3.99679e-17
-2.89687e-16
4.72479e-17
0
-4.37657e-17
8.21635e-18
-8.11543e-18
-3.01954e-17
1.79055e-17
4.32461e-17
8.56862e-17
-6.82351e-17
0
-1.30832e-17
-6.76061e-18
0
-6.25097e-17
-1.89762e-17
-6.8736e-17
-7.43439e-17
8.05041e-17
2.59388e-17
1.78745e-16
1.42868e-17
0
1.15534e-16
1.21945e-16
6.89022e-17
-3.65013e-17
1.38542e-17
1.38547e-17
0
5.50503e-17
1.36813e-16
1.00866e-16
1.95211e-17
0
-2.47411e-16
1.46846e-16
-4.84213e-20
-3.77073e-20
5.38023e-17
0
-1.37735e-16
0
-8.34493e-18
1.47147e-17
3.19541e-17
5.07271e-17
6.97873e-17
-1.18341e-20
1.60745e-16
0
0
-1.17316e-16
1.39859e-16
-1.3752e-16
-4.72243e-17
1.05687e-16
-8.91247e-17
2.17831e-16
1.07042e-16
9.49071e-17
-1.85556e-16
1.26566e-16
-3.64235e-17
8.07357e-17
-5.57229e-17
4.26176e-17
6.66298e-18
-7.99182e-17
8.07542e-17
)
;
    }
    left
    {
        type            calculated;
        value           nonuniform List<scalar> 
19
(
-1.61286e-16
-7.54547e-17
7.99296e-17
4.89552e-18
-1.44337e-16
0
-6.26411e-17
-6.18981e-17
-8.78246e-18
-3.4788e-17
-8.16257e-20
-3.52433e-17
1.6297e-16
-3.57047e-17
1.64556e-16
1.43644e-16
8.59113e-17
1.27615e-16
0
)
;
    }
    right
    {
        type            calculated;
        value           nonuniform List<scalar> 
19
(
8.05784e-17
-1.41222e-18
-3.59372e-18
-1.45894e-16
1.51231e-16
-7.05486e-17
7.0261e-17
6.94278e-17
-5.29326e-17
0
0
1.24816e-16
-1.27262e-16
-1.26707e-16
1.27612e-16
-1.26022e-16
1.37849e-16
-2.35227e-16
0
)
;
    }
    frontAndBackPlanes
    {
        type            empty;
    }
}


// ************************************************************************* //
