/*--------------------------------*- C++ -*----------------------------------*\
  =========                 |
  \\      /  F ield         | OpenFOAM: The Open Source CFD Toolbox
   \\    /   O peration     | Website:  https://openfoam.org
    \\  /    A nd           | Version:  7
     \\/     M anipulation  |
\*---------------------------------------------------------------------------*/
FoamFile
{
    version     2.0;
    format      ascii;
    class       volScalarField;
    location    "0.06";
    object      T;
}
// * * * * * * * * * * * * * * * * * * * * * * * * * * * * * * * * * * * * * //

dimensions      [0 0 0 1 0 0 0];

internalField   nonuniform List<scalar> 
1596
(
0.992146
0.97007
0.948765
0.930796
0.917019
0.907209
0.900703
0.89648
0.893879
0.891921
0.890131
0.887762
0.883095
0.873815
0.856522
0.824489
0.766283
0.659997
0.4621
0.966813
0.899662
0.840215
0.791752
0.755015
0.72889
0.711428
0.700198
0.693356
0.688863
0.685524
0.681919
0.675405
0.662596
0.639163
0.597931
0.529261
0.418511
0.239722
0.939077
0.830075
0.738024
0.664549
0.609278
0.570027
0.543714
0.526876
0.516747
0.510634
0.506876
0.503782
0.498696
0.488323
0.468596
0.43316
0.374299
0.282035
0.140565
0.915127
0.771489
0.65317
0.559771
0.489699
0.439847
0.406251
0.384717
0.371787
0.364321
0.360333
0.358022
0.355021
0.348529
0.335141
0.309595
0.2657
0.196107
0.090431
0.899104
0.730366
0.592164
0.483188
0.401161
0.34244
0.302506
0.276688
0.261017
0.252026
0.247449
0.24541
0.243857
0.24054
0.232786
0.216437
0.186554
0.137365
0.0613254
0.891939
0.707983
0.555807
0.434834
0.342944
0.276468
0.230685
0.200676
0.182113
0.171268
0.165606
0.163153
0.162079
0.160591
0.156671
0.147166
0.128238
0.095263
0.0423478
0.891735
0.70117
0.540198
0.410243
0.310151
0.236728
0.1854
0.151203
0.129594
0.116629
0.109515
0.106135
0.104766
0.103924
0.102094
0.0969743
0.0856951
0.0646221
0.0290589
0.895481
0.704629
0.539132
0.402828
0.296041
0.216448
0.159914
0.121618
0.0969281
0.0817365
0.0730129
0.0684674
0.066382
0.065437
0.0644566
0.0617943
0.0553928
0.0425146
0.0194952
0.90119
0.714013
0.54712
0.406607
0.294458
0.209454
0.148107
0.10589
0.0781928
0.0607984
0.0504677
0.0447298
0.0417975
0.0404024
0.0395594
0.0380813
0.0345407
0.0269765
0.0126552
0.906226
0.72418
0.557993
0.415183
0.299153
0.209791
0.144347
0.0986778
0.0682865
0.0489063
0.037137
0.0303434
0.0266374
0.0247322
0.0237264
0.0227226
0.0207409
0.0164396
0.0078905
0.909422
0.73201
0.567571
0.423993
0.305578
0.213115
0.144539
0.0961229
0.0635408
0.0425322
0.0295928
0.0219583
0.017641
0.0153056
0.0140695
0.0132001
0.0120079
0.00960446
0.00470315
0.912401
0.738782
0.576034
0.432248
0.312275
0.217557
0.146594
0.0960272
0.0617103
0.0394121
0.0255606
0.0172919
0.0125294
0.00988058
0.00844844
0.00758177
0.00676178
0.00540169
0.00268092
0.91454
0.743657
0.582164
0.43834
0.317385
0.221168
0.148579
0.0965312
0.0610201
0.0378432
0.0233852
0.0147113
0.00967791
0.00684471
0.00529254
0.00440612
0.00375946
0.00295015
0.0014674
0.914966
0.745197
0.584358
0.440612
0.319268
0.222386
0.149049
0.0963174
0.0602632
0.0367016
0.0219941
0.0131668
0.00803979
0.00514699
0.00355624
0.00267072
0.00211419
0.00159042
0.000778685
0.914699
0.744463
0.583336
0.439408
0.317943
0.220987
0.147622
0.094907
0.0589086
0.0354279
0.0208087
0.0120621
0.00699995
0.00415368
0.00259348
0.00173878
0.00124318
0.000870307
0.000408739
0.914051
0.742117
0.579703
0.435124
0.313586
0.216969
0.144169
0.0920915
0.0566972
0.033731
0.019515
0.0110639
0.00620695
0.00349656
0.00202258
0.00122649
0.000785756
0.000500007
0.000218844
0.91259
0.73774
0.573151
0.427516
0.305988
0.210149
0.138528
0.0877227
0.0534856
0.0314641
0.0179566
0.0100027
0.00547722
0.00297857
0.00163495
0.000919865
0.000535947
0.000308869
0.000123635
0.910554
0.731644
0.56403
0.416933
0.295469
0.200801
0.130918
0.0819578
0.0493713
0.0286704
0.0161308
0.00883954
0.00474456
0.00251366
0.00133061
0.000710921
0.000386193
0.000204905
7.52039e-05
0.909199
0.725738
0.554243
0.405044
0.283389
0.189976
0.122112
0.0753394
0.0447124
0.0255683
0.014156
0.00762496
0.00401514
0.00208012
0.0010708
0.000551406
0.000285244
0.000142552
4.89138e-05
0.908225
0.720044
0.544014
0.392136
0.270044
0.177954
0.112364
0.0680792
0.0396726
0.0222731
0.0121045
0.0063969
0.00330198
0.0016742
0.000841118
0.000420748
0.00021007
0.000100726
3.30483e-05
0.906878
0.713688
0.532739
0.377893
0.255335
0.164782
0.101795
0.0603225
0.0343846
0.0188876
0.0100461
0.00519682
0.00262553
0.00130226
0.000639274
0.000311788
0.000151342
7.04239e-05
2.24629e-05
0.905863
0.707624
0.521456
0.363341
0.240186
0.151223
0.0909935
0.0524919
0.0291326
0.0155904
0.00808536
0.00408141
0.00201346
0.000975515
0.000467756
0.000222689
0.000105417
4.78711e-05
1.49885e-05
0.905623
0.702873
0.51144
0.349778
0.225751
0.138199
0.0806264
0.0450318
0.0241909
0.0125385
0.00630566
0.00309113
0.00148315
0.000699824
0.000327134
0.000151864
7.00538e-05
3.09992e-05
9.53869e-06
0.906169
0.699965
0.503689
0.338421
0.213208
0.12667
0.0713807
0.038378
0.0198072
0.00985768
0.00476325
0.00224684
0.0010395
0.000474032
0.000214588
9.64614e-05
4.28183e-05
1.78378e-05
4.85871e-06
0.908941
0.704164
0.506851
0.339634
0.212724
0.125243
0.0697356
0.0369617
0.0187809
0.00920169
0.00438329
0.00204399
0.000938616
0.000426964
0.000193847
8.76939e-05
3.89414e-05
1.56907e-05
3.64222e-06
0.912895
0.713683
0.518948
0.351475
0.222467
0.132237
0.0742163
0.0395663
0.0201744
0.00989885
0.00471495
0.00219749
0.00100964
0.000460848
0.000211046
9.71218e-05
4.4339e-05
1.85585e-05
4.55946e-06
0.91549
0.721851
0.531045
0.364811
0.234613
0.14179
0.0808792
0.043757
0.0225815
0.0111744
0.00534392
0.00248813
0.00113627
0.000513265
0.000232193
0.000106006
4.86339e-05
2.0811e-05
5.33843e-06
0.916705
0.728242
0.542456
0.379008
0.248824
0.153931
0.0900231
0.0499536
0.0264135
0.0133591
0.00650073
0.00305934
0.00139879
0.000624338
0.000274666
0.000120386
5.31655e-05
2.23877e-05
5.82722e-06
0.917297
0.733788
0.553744
0.394231
0.265088
0.168695
0.101837
0.0584742
0.0320381
0.0167939
0.00845706
0.00410304
0.00191935
0.000864126
0.000374051
0.000155555
6.30616e-05
2.43843e-05
6.02727e-06
0.917435
0.738851
0.565044
0.410259
0.28299
0.185706
0.116138
0.0693582
0.0396557
0.0217505
0.0114812
0.00584192
0.00286099
0.00133949
0.000592452
0.000242259
9.04059e-05
3.00992e-05
6.24037e-06
0.917617
0.744296
0.577015
0.427362
0.302495
0.204827
0.132856
0.0826836
0.0494845
0.02853
0.0158921
0.00856425
0.00445568
0.00221927
0.00104016
0.000442578
0.000162966
4.8036e-05
7.47679e-06
0.918961
0.751553
0.590854
0.446355
0.324079
0.226325
0.152198
0.0987
0.0618529
0.0375226
0.0220992
0.0126564
0.00703703
0.00376962
0.00191202
0.00088241
0.000346363
0.000100613
1.19988e-05
0.920728
0.759457
0.605349
0.466134
0.34682
0.249515
0.173751
0.117271
0.0768709
0.0490241
0.0305092
0.0185664
0.011042
0.00638274
0.00353633
0.00181289
0.000803964
0.000262167
2.54142e-05
0.922665
0.767574
0.620039
0.486272
0.370356
0.274124
0.197373
0.138423
0.0947485
0.0634095
0.0416187
0.0268601
0.0170567
0.0106302
0.00644915
0.00371865
0.00194293
0.000822488
0.000169269
0.924245
0.774397
0.632561
0.503774
0.391305
0.296649
0.219688
0.159118
0.11292
0.0786432
0.0539073
0.0364649
0.0243701
0.016078
0.0104235
0.00652968
0.0038066
0.00187619
0.000504277
0.924223
0.776568
0.637915
0.512363
0.402505
0.30948
0.233093
0.172165
0.124921
0.0891782
0.0628076
0.0437492
0.0301713
0.0205861
0.0138434
0.00904028
0.00554502
0.00292431
0.000879336
0.923
0.775415
0.638155
0.514489
0.406447
0.314839
0.239326
0.178724
0.131347
0.0951309
0.0680843
0.0482577
0.0338949
0.0235565
0.0161211
0.0106905
0.00663646
0.0035296
0.00106948
0.92222
0.774889
0.638843
0.516739
0.410193
0.31976
0.244985
0.184673
0.137203
0.100601
0.0729846
0.0524951
0.0374398
0.0264228
0.01835
0.0123307
0.00774068
0.00415514
0.00127229
0.922037
0.775188
0.640146
0.519235
0.413804
0.324237
0.249997
0.189879
0.142306
0.105374
0.0772788
0.0562318
0.0405888
0.0289881
0.0203589
0.013818
0.00874648
0.00472685
0.00145886
0.921944
0.77549
0.641207
0.521189
0.416597
0.327691
0.253869
0.193917
0.146288
0.109123
0.0806768
0.0592111
0.043118
0.0310621
0.021992
0.0150316
0.00956877
0.00519454
0.00161192
0.921809
0.775521
0.641711
0.522297
0.418296
0.329871
0.256371
0.196571
0.14894
0.111648
0.0829877
0.0612546
0.0448653
0.032503
0.0231308
0.0158793
0.0101426
0.00551981
0.00171806
0.92135
0.774942
0.641375
0.522341
0.418733
0.330645
0.257393
0.19774
0.150166
0.112854
0.0841182
0.0622725
0.0457478
0.0332388
0.0237175
0.0163191
0.0104421
0.0056905
0.00177425
0.921353
0.774949
0.641384
0.522351
0.418744
0.330656
0.257403
0.19775
0.150175
0.112862
0.0841246
0.0622778
0.0457521
0.0332423
0.0237202
0.0163212
0.0104435
0.00569136
0.00177454
0.921816
0.775539
0.641738
0.522329
0.41833
0.329905
0.256404
0.1966
0.148966
0.111671
0.0830069
0.0612705
0.0448783
0.0325134
0.023139
0.0158854
0.0101469
0.00552239
0.00171895
0.921956
0.775521
0.641251
0.52124
0.416652
0.327745
0.253921
0.193964
0.14633
0.109159
0.0807072
0.0592363
0.0431385
0.0310784
0.0220047
0.0150411
0.00957539
0.00519848
0.00161328
0.922053
0.775229
0.640205
0.519304
0.413878
0.324311
0.250067
0.189942
0.142362
0.105422
0.0773189
0.0562646
0.0406152
0.0290089
0.0203751
0.01383
0.00875478
0.00473177
0.00146055
0.92224
0.77494
0.638916
0.516826
0.410286
0.319852
0.245072
0.184752
0.137272
0.100659
0.0730327
0.052534
0.0374707
0.0264469
0.0183684
0.0123443
0.00775
0.00416062
0.00127417
0.923023
0.775475
0.638242
0.514592
0.406557
0.314948
0.239429
0.178816
0.131426
0.095197
0.068138
0.0483004
0.0339282
0.0235821
0.0161403
0.0107045
0.00664586
0.00353504
0.00107131
0.924249
0.776636
0.638015
0.512483
0.402633
0.309606
0.233211
0.17227
0.125011
0.0892513
0.062866
0.0437947
0.0302062
0.0206124
0.0138629
0.0090541
0.00555425
0.00292966
0.000881184
0.924279
0.774497
0.632714
0.503965
0.391514
0.296859
0.219886
0.159294
0.113069
0.0787653
0.054004
0.0365395
0.0244266
0.0161204
0.0104551
0.00655308
0.00382348
0.0018871
0.000508489
0.922707
0.767692
0.620219
0.486492
0.370594
0.274359
0.197589
0.138611
0.0949038
0.063533
0.0417139
0.0269319
0.01711
0.0106695
0.00647798
0.00373951
0.00195728
0.000830999
0.000172132
0.920765
0.759564
0.605511
0.46633
0.347029
0.249716
0.17393
0.117421
0.0769905
0.0491151
0.0305763
0.0186148
0.0110764
0.00640707
0.00355335
0.00182434
0.000810813
0.000265229
2.58888e-05
0.918995
0.751656
0.591011
0.446544
0.324276
0.22651
0.152358
0.0988293
0.0619516
0.0375947
0.0221499
0.0126913
0.00706075
0.00378558
0.00192257
0.000888932
0.000349729
0.000101656
1.19214e-05
0.91765
0.744394
0.577165
0.42754
0.302678
0.204995
0.132996
0.0827927
0.0495644
0.0285857
0.0159294
0.00858868
0.0044714
0.00222922
0.00104623
0.000445925
0.000164389
4.82498e-05
7.29115e-06
0.917464
0.738943
0.565186
0.410426
0.283157
0.185855
0.116258
0.0694483
0.0397189
0.0217925
0.0115079
0.00585846
0.00287096
0.00134532
0.000595643
0.000243743
9.08447e-05
3.00164e-05
6.08654e-06
0.917324
0.733872
0.553875
0.394382
0.265237
0.168824
0.101938
0.0585467
0.0320868
0.0168248
0.0084757
0.00411388
0.00192542
0.000867339
0.00037557
0.000156089
6.30941e-05
2.42448e-05
5.93013e-06
0.916727
0.728318
0.542572
0.379142
0.248952
0.154038
0.0901046
0.0500102
0.0264499
0.0133811
0.00651341
0.00306628
0.00140238
0.000626034
0.000275329
0.000120523
5.30919e-05
2.22845e-05
5.77838e-06
0.915509
0.721916
0.531144
0.364923
0.234719
0.141877
0.0809432
0.0438001
0.0226083
0.0111901
0.00535255
0.00249261
0.00113844
0.000514194
0.000232501
0.000106039
4.85823e-05
2.07653e-05
5.32245e-06
0.912911
0.713738
0.519029
0.351566
0.222552
0.132305
0.0742656
0.0395988
0.0201942
0.0099102
0.00472105
0.00220057
0.00101109
0.000461462
0.000211263
9.71735e-05
4.43429e-05
1.85596e-05
4.56241e-06
0.908944
0.704177
0.506872
0.339658
0.212746
0.125261
0.0697489
0.0369706
0.0187863
0.0092047
0.00438484
0.00204471
0.000938904
0.000427046
0.000193846
8.76714e-05
3.89234e-05
1.568e-05
3.63507e-06
0.906162
0.699951
0.503669
0.3384
0.213188
0.126654
0.0713685
0.0383693
0.0198013
0.00985385
0.00476086
0.00224538
0.00103863
0.000473533
0.000214305
9.63064e-05
4.27374e-05
1.77968e-05
4.84096e-06
0.905623
0.702871
0.511439
0.349778
0.225752
0.1382
0.0806277
0.0450326
0.0241912
0.0125385
0.00630547
0.00309091
0.00148295
0.000699682
0.000327037
0.000151804
7.0019e-05
3.09802e-05
9.53015e-06
0.905863
0.707622
0.521455
0.363341
0.240186
0.151224
0.0909943
0.0524924
0.0291329
0.0155904
0.00808529
0.0040813
0.00201336
0.000975436
0.0004677
0.000222652
0.000105395
4.78593e-05
1.49831e-05
0.906878
0.713687
0.532738
0.377893
0.255335
0.164782
0.101795
0.0603229
0.0343849
0.0188878
0.0100461
0.00519683
0.00262552
0.00130223
0.000639252
0.000311772
0.000151333
7.042e-05
2.24598e-05
0.908225
0.720043
0.544013
0.392136
0.270043
0.177954
0.112364
0.0680794
0.0396728
0.0222733
0.0121046
0.006397
0.00330204
0.00167423
0.00084113
0.000420757
0.00021008
0.000100736
3.30493e-05
0.909199
0.725738
0.554243
0.405044
0.283389
0.189976
0.122112
0.0753395
0.0447126
0.0255685
0.0141562
0.00762513
0.00401525
0.0020802
0.00107085
0.00055145
0.00028529
0.000142591
4.89238e-05
0.910554
0.731644
0.56403
0.416933
0.295469
0.200801
0.130918
0.0819577
0.0493714
0.0286706
0.016131
0.00883974
0.00474472
0.00251378
0.00133071
0.000711027
0.000386307
0.000205001
7.52314e-05
0.91259
0.73774
0.573152
0.427516
0.305987
0.210149
0.138528
0.0877225
0.0534855
0.0314642
0.0179568
0.0100029
0.00547744
0.00297876
0.00163515
0.000920088
0.000536196
0.000309075
0.000123693
0.914051
0.742118
0.579703
0.435124
0.313586
0.216969
0.144168
0.0920911
0.0566971
0.0337311
0.0195153
0.0110642
0.00620724
0.00349686
0.00202293
0.00122693
0.000786247
0.0005004
0.000218946
0.914699
0.744464
0.583336
0.439409
0.317943
0.220986
0.147621
0.0949065
0.0589084
0.035428
0.020809
0.0120624
0.00700034
0.00415415
0.00259411
0.00173958
0.00124407
0.000870978
0.000408889
0.914967
0.745199
0.584359
0.440613
0.319268
0.222385
0.149048
0.0963169
0.0602631
0.0367018
0.0219944
0.0131672
0.00804035
0.00514776
0.00355732
0.0026721
0.00211563
0.00159142
0.000778852
0.91454
0.743658
0.582165
0.43834
0.317385
0.221167
0.148578
0.0965308
0.06102
0.0378434
0.0233856
0.0147119
0.00967876
0.00684597
0.0052943
0.00440826
0.00376152
0.00295142
0.0014675
0.912402
0.738783
0.576035
0.432248
0.312274
0.217557
0.146594
0.096027
0.0617104
0.0394124
0.0255611
0.0172927
0.0125307
0.00988252
0.00845102
0.00758465
0.00676425
0.00540291
0.00268079
0.909423
0.732011
0.567572
0.423994
0.305578
0.213115
0.144539
0.0961229
0.063541
0.0425327
0.0295936
0.0219596
0.017643
0.0153083
0.0140728
0.0132033
0.0120101
0.00960506
0.00470265
0.906227
0.724181
0.557994
0.415183
0.299153
0.209791
0.144347
0.098678
0.0682869
0.048907
0.0371381
0.0303452
0.02664
0.0247355
0.0237298
0.0227252
0.0207418
0.0164389
0.00788957
0.901191
0.714014
0.54712
0.406607
0.294458
0.209453
0.148107
0.105891
0.0781933
0.0607993
0.0504691
0.0447319
0.0418002
0.0404053
0.0395616
0.0380818
0.0345392
0.026974
0.012654
0.895481
0.704629
0.539132
0.402827
0.29604
0.216448
0.159914
0.121619
0.0969287
0.0817375
0.0730144
0.0684693
0.0663841
0.0654384
0.0644562
0.0617915
0.0553882
0.0425106
0.0194943
0.891735
0.70117
0.540197
0.410242
0.31015
0.236727
0.1854
0.151203
0.129595
0.116629
0.109516
0.106136
0.104766
0.103922
0.10209
0.096968
0.0856882
0.0646178
0.0290587
0.891939
0.707982
0.555806
0.434833
0.342944
0.276467
0.230685
0.200675
0.182113
0.171268
0.165606
0.163152
0.162077
0.160587
0.156664
0.147157
0.128231
0.0952599
0.0423488
0.899104
0.730365
0.592164
0.483188
0.40116
0.342439
0.302505
0.276688
0.261016
0.252025
0.247447
0.245407
0.243852
0.240533
0.232778
0.216428
0.186549
0.137365
0.0613275
0.915126
0.77149
0.653171
0.559771
0.489699
0.439847
0.406251
0.384716
0.371785
0.364319
0.36033
0.358017
0.355014
0.348521
0.335133
0.30959
0.265699
0.196109
0.0904332
0.939077
0.830075
0.738026
0.66455
0.609278
0.570027
0.543714
0.526875
0.516746
0.510632
0.506873
0.503777
0.498689
0.488317
0.468592
0.43316
0.374302
0.282039
0.140567
0.966813
0.899663
0.840216
0.791754
0.755016
0.72889
0.711428
0.700197
0.693355
0.688861
0.685521
0.681916
0.675401
0.662593
0.639163
0.597935
0.529266
0.418514
0.239722
0.992146
0.97007
0.948765
0.930796
0.917019
0.907209
0.900703
0.896479
0.893878
0.89192
0.890131
0.887761
0.883095
0.873816
0.856524
0.824491
0.766285
0.659997
0.462099
)
;

boundaryField
{
    up
    {
        type            fixedValue;
        value           uniform 0;
    }
    low
    {
        type            fixedValue;
        value           uniform 1;
    }
    left
    {
        type            fixedValue;
        value           uniform 1;
    }
    right
    {
        type            fixedValue;
        value           uniform 1;
    }
    frontAndBackPlanes
    {
        type            empty;
    }
}


// ************************************************************************* //
