/*--------------------------------*- C++ -*----------------------------------*\
  =========                 |
  \\      /  F ield         | OpenFOAM: The Open Source CFD Toolbox
   \\    /   O peration     | Website:  https://openfoam.org
    \\  /    A nd           | Version:  7
     \\/     M anipulation  |
\*---------------------------------------------------------------------------*/
FoamFile
{
    version     2.0;
    format      ascii;
    class       volScalarField;
    location    "0.23";
    object      gradTz;
}
// * * * * * * * * * * * * * * * * * * * * * * * * * * * * * * * * * * * * * //

dimensions      [0 -1 0 1 0 0 0];

internalField   nonuniform List<scalar> 
1596
(
-1.12955e-15
-5.48662e-16
5.58032e-16
1.26077e-17
-1.06161e-15
0
-4.94827e-16
-4.87944e-16
-3.31258e-17
-2.57469e-16
-2.2992e-18
-2.56315e-16
1.12922e-15
-2.53695e-16
1.18511e-15
1.02293e-15
6.08524e-16
7.68694e-16
0
1.12798e-15
0
1.58574e-15
-1.14365e-17
-4.84322e-16
4.79944e-16
9.91628e-16
3.16132e-17
4.69351e-16
-2.26407e-16
4.51939e-16
-6.67914e-18
-6.2721e-16
-3.92082e-16
-9.58079e-16
-9.35022e-16
-8.50847e-16
4.84461e-16
0
-5.52128e-16
0
-1.03239e-15
1.81543e-17
9.42774e-16
-2.66659e-16
2.14392e-17
-6.53462e-18
-6.54885e-18
-6.90834e-18
1.69523e-16
0
3.25333e-16
9.22136e-16
-9.09519e-17
7.33881e-17
1.7251e-16
2.70027e-16
0
8.6862e-16
-2.59722e-16
2.58773e-16
0
-2.48478e-16
-2.57738e-16
4.35582e-16
-3.77901e-16
0
0
-1.38918e-16
8.85399e-17
0
-2.71177e-16
-3.44683e-16
2.38989e-16
-2.46882e-16
-1.26956e-17
0
1.51899e-16
4.01549e-16
-3.6014e-16
0
-1.05651e-16
-3.22034e-16
0
4.79746e-16
-4.7621e-17
-4.31325e-17
-4.38828e-17
2.48786e-16
3.06896e-16
3.19666e-17
1.27288e-17
-2.58397e-16
1.30068e-17
1.19784e-16
-5.1697e-17
-3.94458e-17
-5.50824e-16
5.21652e-16
-4.52616e-16
-9.90256e-19
-3.96838e-16
1.11668e-17
-1.12039e-17
-3.11178e-16
0
-3.65036e-17
-2.94401e-16
-2.77166e-16
2.24153e-16
2.35327e-16
-3.20546e-18
-1.4115e-16
-1.21495e-16
9.30281e-17
3.29655e-16
-5.60474e-16
6.24866e-16
3.48116e-16
0
3.04979e-16
1.78134e-16
-8.56363e-17
3.94399e-16
-7.38461e-17
-3.13671e-16
2.77554e-18
-1.84998e-16
-2.25199e-16
-1.75101e-16
1.49745e-16
1.42392e-16
-1.90574e-18
-3.87368e-17
3.41071e-17
8.91162e-16
-1.04178e-15
0
0
-3.74843e-16
0
0
0
2.54084e-16
0
0
1.69966e-16
6.15565e-18
4.79673e-17
-1.31063e-16
0
6.97505e-17
2.74281e-17
0
-5.75902e-16
1.10652e-15
0
0
3.86037e-16
0
-1.45228e-16
1.45081e-16
-2.58621e-16
1.07144e-16
-1.07927e-16
0
1.55667e-16
1.53972e-16
0
-8.88142e-17
-7.1263e-17
-2.39899e-17
1.39922e-15
-6.53343e-16
0
-4.54945e-16
4.49853e-16
0
3.27199e-16
0
0
0
9.81325e-17
-9.86029e-17
0
-1.20376e-16
-3.4274e-17
0
1.05501e-17
5.0347e-17
0
-3.55181e-16
0
0
4.5599e-16
-8.47928e-16
4.6095e-17
1.7632e-17
-1.33164e-16
1.56364e-17
5.82715e-18
-1.02571e-16
-1.63504e-16
0
1.23418e-16
-2.49478e-17
2.53222e-17
6.72545e-17
-3.96052e-17
-1.81086e-17
2.91796e-16
-3.33049e-17
2.80342e-16
9.49871e-16
-5.41916e-17
-3.94057e-16
0
0
0
2.11248e-16
8.37851e-17
3.01292e-16
-7.26964e-17
-1.2121e-16
-7.12943e-17
-3.93556e-17
1.7579e-17
-3.83825e-17
1.72039e-17
-3.25096e-16
3.18667e-16
-5.87088e-16
-9.38371e-16
8.65518e-16
3.3754e-16
-6.21562e-16
5.32748e-16
-4.56221e-16
1.19146e-16
8.9939e-17
-8.13199e-17
5.15507e-17
-4.69252e-17
1.37958e-16
0
-1.04778e-17
7.75697e-17
-1.15528e-17
-2.11734e-15
9.68868e-16
7.81729e-19
-2.08201e-16
2.85646e-17
3.27674e-16
-6.20786e-16
-2.52433e-16
2.1314e-16
-1.79091e-16
-1.51166e-16
0
-1.70221e-16
-5.05126e-17
-8.9642e-17
-5.32783e-17
4.18852e-18
-4.80001e-17
1.26827e-18
3.46055e-16
-3.06602e-16
5.92569e-19
-2.32426e-16
-5.7305e-16
5.38417e-16
2.50378e-18
2.45995e-16
-2.0752e-16
3.42907e-16
8.09091e-17
6.56966e-17
1.99999e-16
0
1.64556e-16
7.56384e-17
0
2.59507e-17
1.05654e-18
0
2.97439e-16
2.30419e-16
-4.81366e-16
5.55039e-16
-8.27715e-16
5.80877e-16
2.14733e-16
-3.38048e-17
-3.39637e-16
6.095e-17
-6.06492e-17
-1.81231e-16
7.11329e-17
-3.5881e-17
-7.48888e-17
3.20561e-17
-1.99718e-17
8.03304e-18
-3.22324e-16
1.0842e-15
-8.08747e-16
4.34122e-16
0
0
-1.12583e-16
2.41342e-16
-1.67348e-16
3.13151e-16
0
0
1.21427e-16
-1.05447e-16
-7.35708e-17
2.32642e-17
-2.4999e-17
1.32509e-17
0
2.81413e-17
3.01448e-16
-2.39941e-16
-2.08451e-16
-3.31109e-16
-1.02965e-16
1.4798e-16
0
-1.56765e-16
-1.25208e-16
1.11618e-16
-8.97045e-17
7.16976e-17
0
2.82297e-17
5.4193e-17
0
0
0
-2.70009e-17
4.7525e-16
1.77376e-16
-6.30126e-16
1.71454e-16
1.45451e-16
0
0
1.47492e-16
-7.70663e-17
-1.07959e-16
8.67606e-17
-6.9337e-17
0
-1.79597e-17
1.49523e-17
0
-1.27258e-17
-4.46496e-18
-2.56862e-16
7.53771e-16
-9.09211e-16
-3.57471e-16
1.88347e-16
-1.37336e-16
1.13697e-16
0
-7.51468e-17
6.19705e-17
0
0
2.68221e-17
-2.6853e-17
7.86633e-18
-1.07579e-17
1.79557e-17
2.37304e-18
3.33345e-18
1.33023e-16
-1.19073e-16
6.02451e-16
-3.8816e-16
-1.54732e-16
2.13149e-17
2.35509e-16
8.73349e-17
7.19042e-17
0
3.98194e-17
-3.67598e-17
2.87609e-17
-2.39936e-17
3.01385e-17
-5.16274e-17
-1.39802e-17
1.21617e-17
3.20324e-18
3.54281e-16
-3.6009e-16
0
3.21274e-16
-1.70328e-16
-1.23905e-16
8.286e-17
-2.67449e-16
0
-4.82459e-18
-4.66441e-17
-3.27062e-17
4.65474e-17
-3.81094e-18
-2.91283e-17
2.13046e-17
0
7.5433e-18
-3.11032e-18
6.09866e-16
-1.06697e-16
4.47894e-16
-3.5046e-16
1.87724e-16
1.68031e-17
-2.12514e-16
-7.01284e-17
1.25251e-16
-5.70323e-18
-6.99928e-17
5.83922e-17
-2.52624e-17
-3.23087e-17
0
0
0
-7.61298e-18
2.8124e-19
-5.3951e-16
5.2459e-16
3.86415e-19
7.82862e-17
6.64871e-17
-1.57315e-16
1.83515e-16
-1.48164e-16
1.24422e-16
-3.98354e-17
7.54176e-17
2.61187e-17
-1.09519e-17
5.39804e-19
-3.74097e-18
-6.56332e-18
0
0
0
0
0
2.52377e-16
-1.26392e-16
-3.79002e-16
0
0
-4.30973e-17
-6.8064e-17
5.59775e-17
0
-3.29404e-17
2.50583e-17
-8.16956e-17
9.34519e-17
-2.9783e-17
3.1661e-17
3.42509e-18
0
-1.04507e-16
1.05793e-16
0
-8.32568e-17
8.43147e-17
1.37002e-16
0
4.35088e-17
5.51406e-17
-2.49201e-16
0
-3.7077e-17
2.83754e-17
1.97779e-17
-1.44548e-17
2.09455e-17
0
-7.55357e-18
0
-5.37564e-17
-5.31187e-17
3.14416e-18
8.55442e-17
-2.27147e-16
0
-5.69522e-17
0
1.55739e-16
6.15285e-17
0
1.47082e-16
-1.52191e-16
1.59453e-17
-3.18905e-17
9.85305e-18
4.03821e-17
1.49854e-17
-1.18752e-17
0
1.10725e-16
-9.58688e-17
1.18725e-16
1.40489e-16
0
1.15596e-16
-1.08642e-16
-8.37127e-17
1.23303e-16
-1.84826e-16
-8.81307e-17
0
0
1.82562e-17
0
0
5.0841e-18
0
-4.92921e-16
3.78847e-16
0
6.20813e-18
-8.16893e-17
-4.44674e-18
7.15098e-17
4.98345e-17
-6.34748e-17
-1.56138e-16
2.43522e-16
-6.63197e-17
0
-3.04504e-17
0
0
0
-1.9684e-17
1.57377e-17
-1.39872e-16
1.30267e-16
3.449e-16
-3.36242e-16
1.02509e-16
6.06917e-18
-7.2626e-17
6.18707e-17
1.03885e-16
7.8245e-17
-1.54448e-16
0
7.709e-17
9.51643e-18
-3.4865e-17
-7.46505e-17
6.13202e-17
-9.62829e-18
1.83626e-17
-4.74904e-16
6.76055e-16
-6.69534e-16
1.16703e-16
9.79963e-17
-9.28375e-17
7.76917e-17
-6.08014e-17
0
-5.06344e-17
7.9622e-17
3.44741e-17
5.50109e-17
6.80625e-17
-1.01512e-16
-2.06164e-18
0
-7.5381e-18
2.53308e-18
-5.13473e-16
-1.51624e-16
-2.63674e-16
1.40746e-16
-2.26728e-16
1.95389e-16
-1.1597e-16
9.69438e-17
-7.17524e-18
-7.13118e-18
-8.44844e-17
5.02909e-17
-2.69624e-17
8.26865e-17
-8.87647e-17
1.05157e-17
9.23318e-18
0
-4.4179e-18
5.55176e-16
-1.63652e-16
0
0
-2.33403e-16
4.5293e-16
-1.05309e-16
-1.99177e-17
1.62934e-16
-4.26402e-18
0
0
-3.62823e-17
0
-7.78587e-17
1.87723e-16
-1.29825e-16
0
1.77897e-18
1.8931e-16
3.52078e-16
0
-1.48602e-16
-1.19855e-16
-1.04966e-16
-1.09706e-16
4.49279e-17
-1.25017e-16
-6.76491e-17
0
0
4.95016e-17
0
0
-1.06412e-16
1.75644e-16
0
0
1.29931e-15
-1.56155e-16
-7.81422e-16
-4.21396e-16
5.71972e-16
1.80748e-16
1.06374e-16
0
-3.86167e-17
3.69893e-17
9.20328e-17
-2.95636e-17
-4.34381e-17
6.72349e-17
-7.15173e-17
-2.1727e-17
0
0
0
1.0405e-16
-8.16713e-16
8.00305e-16
-7.62838e-17
-5.86008e-16
9.15094e-16
-4.58363e-16
0
0
2.40064e-16
-1.96741e-16
0
-5.86833e-17
1.02457e-16
-1.13476e-17
2.97709e-17
9.03911e-18
1.02396e-19
1.9593e-18
0
0
0
6.68594e-16
-4.48639e-16
4.67406e-16
-7.27833e-16
2.06707e-16
0
-7.36859e-17
1.17266e-16
-1.19853e-16
-2.3331e-17
-2.69567e-19
-1.59067e-17
-2.29476e-18
-1.26934e-17
-3.5742e-18
-1.94579e-18
8.70044e-16
-1.54895e-15
7.32872e-16
0
1.95118e-16
-2.65984e-16
2.64718e-16
-2.09955e-16
0
-1.0122e-16
1.41905e-16
0
0
-1.81234e-19
0
-1.6622e-17
1.13547e-17
2.04804e-18
3.10939e-18
8.47467e-16
0
-3.34252e-16
3.73283e-16
-2.32786e-16
5.08054e-16
-2.39753e-16
-1.86419e-16
1.88366e-16
-1.90912e-17
0
0
1.2159e-17
-2.04116e-17
-1.43153e-17
2.71127e-17
-5.86929e-18
2.98912e-18
0
4.81057e-16
3.73889e-16
-1.38275e-17
-3.56131e-16
-3.5792e-17
-2.57083e-16
2.84724e-17
2.15398e-16
-1.10928e-17
1.94497e-17
0
0
-1.24561e-17
0
1.46327e-17
-1.56534e-17
0
2.00375e-18
-5.54802e-19
-2.55314e-16
-1.87612e-16
1.757e-16
-2.00347e-17
-8.96269e-18
2.4139e-17
0
-6.34231e-18
9.46426e-17
-7.97033e-17
0
2.68389e-17
-5.30371e-18
-2.36581e-17
-2.16162e-18
-1.68438e-18
0
-1.56696e-18
0
1.04027e-16
-1.97587e-16
-2.35839e-18
8.45818e-17
7.70063e-17
-7.6477e-17
-5.39361e-17
6.10421e-17
-2.08577e-17
1.63253e-17
-1.57973e-17
1.62845e-17
0
4.1472e-20
-1.59394e-18
5.72599e-18
-1.95869e-20
0
0
1.04031e-16
-1.03641e-16
-8.4138e-17
7.45523e-17
1.36014e-16
-1.36817e-16
-2.6969e-17
2.70333e-17
-2.10344e-17
2.12551e-17
-1.57979e-17
2.97899e-17
-8.3553e-18
-6.00283e-18
-1.83893e-18
6.1052e-19
1.45377e-18
3.8425e-19
-2.88153e-19
0
-2.46455e-17
1.465e-16
-1.58844e-16
1.35727e-16
-1.20347e-16
0
9.49983e-17
-8.50012e-17
0
3.14203e-17
-3.97679e-17
-2.2576e-17
2.36611e-17
4.34001e-18
0
0
-1.56724e-18
5.69358e-19
4.13943e-16
-7.61362e-16
7.74714e-16
-6.78319e-16
2.66381e-16
-2.25071e-16
2.13644e-16
2.52646e-17
-9.38023e-17
8.37929e-17
0
-6.03936e-17
5.50189e-17
-1.04132e-17
-4.25104e-18
6.66055e-18
4.89301e-18
1.52149e-18
-5.50129e-19
9.55394e-16
0
-3.78202e-16
2.93978e-16
3.53805e-17
-2.70765e-16
4.79506e-16
-4.24378e-16
1.66399e-16
-7.07589e-17
7.2428e-17
1.43128e-17
2.44627e-17
1.01426e-17
-8.36826e-18
-1.11486e-18
-1.05904e-17
0
1.07715e-18
7.63558e-16
-8.59494e-16
0
7.82806e-17
3.36194e-16
-3.29028e-16
5.58511e-17
4.93325e-17
2.15253e-17
3.77264e-17
0
0
-4.25285e-17
7.94273e-17
-2.89859e-17
-1.03743e-17
1.13581e-17
9.08505e-19
-2.04605e-18
7.24611e-17
7.55067e-16
-8.68337e-17
-5.90653e-16
5.18654e-16
6.17527e-17
-5.46604e-17
-4.81832e-17
1.5781e-16
-1.95743e-16
1.17305e-16
-1.19891e-16
1.85699e-17
-2.37877e-17
4.30269e-17
-2.87104e-17
0
0
2.04836e-18
0
1.88902e-16
-5.64618e-16
6.45409e-16
-5.18177e-16
5.16943e-16
0
1.77225e-16
-1.78037e-16
-1.32978e-16
1.96893e-16
0
8.11122e-17
-1.02536e-16
-1.51561e-17
0
-1.69157e-18
-3.33705e-18
-7.95693e-20
-1.80021e-15
8.57195e-16
0
-5.71876e-16
5.71819e-16
3.48036e-16
-2.28665e-16
9.34552e-17
0
-4.1676e-18
3.05942e-17
-2.95247e-17
-4.33835e-17
6.71415e-17
-7.13937e-17
0
1.52926e-17
-3.2852e-18
-2.06864e-18
1.10653e-15
-1.0874e-15
0
1.48212e-16
1.3419e-16
-1.22296e-16
0
-9.79419e-17
-8.36204e-17
0
-4.10891e-18
0
4.95264e-17
0
0
2.17599e-17
8.16262e-17
-1.05751e-16
0
1.34408e-19
1.63732e-16
-1.5046e-16
1.2176e-16
-6.19395e-16
2.36457e-16
0
1.99327e-17
5.64163e-17
0
-5.73375e-17
1.64919e-16
-1.73257e-16
2.8783e-17
0
-3.46694e-18
0
0
0
1.36708e-19
0
1.39063e-16
0
-2.1258e-16
2.15959e-16
0
7.60844e-17
-6.05546e-17
2.18783e-16
-1.05354e-16
3.75454e-17
-6.00657e-17
5.66998e-17
-8.88814e-17
-1.41325e-17
0
-9.09856e-18
0
4.29617e-16
-7.26686e-16
0
-1.16579e-16
1.04023e-16
0
0
-1.38781e-16
0
-5.06741e-17
-7.96887e-17
-3.45077e-17
5.50706e-17
0
2.88169e-17
0
0
1.98159e-17
-2.18121e-17
0
6.26737e-16
-5.01504e-16
1.07926e-16
-9.63261e-17
-3.914e-17
1.12434e-16
1.25337e-16
-1.51678e-16
4.88668e-17
3.85304e-18
-4.44691e-17
1.81614e-16
-5.64174e-17
-1.29342e-16
4.44103e-17
-1.13158e-17
6.79204e-18
-2.03985e-18
-1.02343e-15
3.78849e-16
0
0
4.0933e-17
-4.16243e-17
2.92724e-17
1.88166e-17
1.36536e-16
6.91327e-17
-6.81941e-17
-2.99786e-18
-3.75915e-17
3.04805e-17
0
1.47283e-17
1.03718e-17
5.50981e-18
1.84373e-18
0
3.27108e-16
-3.04129e-16
9.73138e-17
9.96488e-17
-1.91912e-17
-6.13793e-17
-5.20129e-17
-1.70525e-16
6.80072e-17
-4.08213e-17
5.63999e-17
3.51527e-17
-4.32174e-17
4.58727e-17
2.86113e-17
-3.73626e-17
-5.08913e-18
0
-5.81677e-17
-2.60061e-16
9.25589e-17
8.55674e-17
-2.92555e-16
2.08792e-16
1.02504e-16
-1.04775e-16
7.94497e-17
-6.45423e-17
0
0
-5.1817e-17
9.26355e-17
-4.06388e-17
3.74443e-17
-4.09713e-17
6.69634e-18
-1.18872e-17
1.09027e-16
1.01502e-16
-9.19442e-17
7.1184e-17
-8.35208e-17
-1.25697e-16
0
0
0
0
0
0
2.65092e-17
-6.91149e-17
7.30965e-17
-2.33646e-17
2.88215e-17
1.34296e-17
-1.1371e-17
2.26143e-16
-3.82879e-16
4.78757e-16
-2.21865e-16
3.07137e-16
-2.21151e-16
4.11074e-16
-2.3059e-16
-1.21562e-16
1.24352e-16
0
3.29208e-17
-2.58981e-17
6.23985e-17
-2.12977e-17
-2.68549e-17
-5.56955e-17
4.22267e-18
9.64984e-18
3.52092e-16
1.00931e-16
0
-1.56057e-16
-1.22212e-16
2.78958e-16
2.74017e-17
-1.10917e-16
6.56451e-17
-4.59066e-17
0
-2.60606e-17
0
-2.07535e-17
1.674e-17
-1.49424e-17
-4.92541e-18
3.45464e-18
0
4.91572e-16
-1.06696e-16
4.47721e-16
-3.50398e-16
-6.98783e-17
2.72853e-16
-1.63631e-16
8.48099e-18
6.95277e-18
-4.47651e-17
4.31204e-17
0
0
2.53571e-17
-9.06882e-18
5.85101e-18
1.78318e-17
-6.20707e-18
0
1.02241e-19
0
-9.93774e-17
5.80034e-16
-3.9133e-16
-4.11906e-16
2.25271e-16
-2.31734e-16
2.14209e-16
1.04827e-16
-7.83599e-17
3.16054e-17
-2.8021e-17
4.98836e-18
4.52929e-17
1.54325e-18
-1.69745e-17
1.67921e-17
-3.46009e-18
1.19427e-15
-3.80497e-16
1.84152e-16
-5.69796e-16
1.54731e-16
-2.40186e-16
1.2939e-16
0
0
-4.95359e-18
-6.78061e-18
-2.00121e-18
0
-3.99475e-17
-3.01392e-17
2.20145e-17
-1.61549e-18
2.97999e-18
6.88245e-18
0
-3.77347e-16
6.36186e-16
1.39975e-16
-5.15494e-16
1.37336e-16
-2.09051e-16
3.62688e-17
1.68866e-16
0
0
3.10783e-18
3.42912e-17
0
-3.01009e-17
-1.36057e-17
2.00347e-18
-7.0286e-18
-8.11235e-18
0
-2.36795e-16
5.46471e-17
4.29081e-16
3.18162e-16
-5.81796e-16
2.63591e-16
-1.81543e-16
9.7406e-17
-1.33338e-16
0
0
0
-5.49338e-17
1.42852e-17
-1.80478e-17
0
-1.12133e-18
5.60595e-18
-8.97125e-16
8.49597e-16
9.03628e-16
-1.09649e-15
5.08994e-16
-4.77991e-16
0
1.91484e-16
-2.6118e-16
1.50487e-16
-1.16404e-16
9.45687e-17
7.64582e-17
5.68137e-17
4.45532e-17
0
0
0
0
9.94473e-16
-5.71746e-16
0
0
-1.8613e-16
4.50228e-16
-2.88124e-16
-2.02925e-16
2.00637e-16
1.47778e-16
2.46744e-16
-9.81242e-17
4.21082e-17
3.16256e-17
2.31445e-17
1.91497e-17
3.0851e-17
-1.51392e-18
1.54206e-18
-1.00676e-15
9.23525e-16
4.90395e-16
-2.5556e-16
5.54804e-16
-3.55906e-16
-2.79406e-16
-2.34836e-16
0
-3.10652e-16
1.58829e-17
1.13067e-16
-8.77279e-17
-7.1133e-17
-2.62872e-17
-2.74921e-17
-2.20164e-17
0
0
-3.46344e-16
0
2.67368e-16
-3.5345e-19
0
0
2.88216e-16
2.42318e-16
0
1.68687e-16
0
-1.71812e-16
-4.84262e-17
8.57217e-17
0
5.53802e-17
-7.81096e-18
7.96823e-18
0
7.3809e-16
0
5.13885e-16
-9.52125e-16
8.47131e-16
6.79851e-16
-2.18804e-17
0
1.87066e-17
1.97586e-16
0
-1.94663e-16
2.16995e-16
-1.9324e-16
-4.21441e-17
-4.43961e-17
-1.32226e-17
-2.38733e-18
-8.64385e-18
-6.84823e-16
9.86066e-16
-2.78156e-16
-7.25779e-16
-4.18467e-16
-3.60406e-16
-6.19524e-16
-2.47155e-16
2.06349e-17
9.01081e-17
-8.99388e-17
2.85834e-16
-1.26534e-16
2.53599e-16
-4.75075e-17
0
5.49613e-17
-3.2589e-17
8.69236e-18
1.51792e-15
-3.37707e-17
-1.1511e-15
9.49877e-16
-8.51341e-16
7.39703e-16
-2.43912e-17
-2.79192e-16
2.43021e-16
9.63787e-17
-1.25688e-17
-2.34723e-16
6.75571e-17
7.31529e-17
-2.19475e-17
2.21978e-17
-5.69266e-17
-6.40422e-18
-1.38423e-17
7.45163e-16
3.14355e-16
5.51733e-16
-4.84011e-16
-3.98036e-16
2.15879e-17
-3.04207e-16
7.36302e-16
2.58255e-17
3.40207e-16
1.99169e-16
-1.76502e-16
0
-1.23418e-16
0
0
8.13944e-17
3.5638e-17
1.61278e-17
6.9843e-16
0
5.45085e-16
4.80887e-16
-4.26567e-16
3.72149e-16
0
-2.88594e-16
-4.00142e-16
-3.4854e-16
-2.00932e-16
1.78498e-16
0
0
0
0
-7.63358e-17
-5.76942e-17
0
-1.36845e-15
0
-2.76882e-17
-2.44667e-17
6.50105e-16
-3.65774e-16
-1.67903e-16
-1.68726e-16
4.0784e-16
0
1.07143e-16
-1.12774e-17
9.75197e-17
0
0
1.29434e-16
-9.65908e-18
6.92935e-17
-2.67798e-17
9.62167e-16
2.76929e-16
-2.7407e-16
-2.41692e-16
-8.37643e-16
5.74968e-16
6.93887e-16
-1.99071e-17
-2.79081e-16
2.77238e-16
5.81492e-17
-2.96309e-16
-2.41907e-16
-1.48726e-16
-1.57784e-16
-1.4927e-16
1.25715e-16
-5.92226e-18
2.74282e-17
-2.95434e-16
1.34119e-16
-6.4586e-16
1.10379e-16
-1.09978e-16
0
-3.45389e-16
-2.55036e-17
-3.20855e-16
2.8838e-17
3.13669e-16
2.30595e-16
-5.70086e-17
2.23799e-17
1.49934e-16
0
-2.6266e-16
-9.71301e-17
-2.01514e-18
6.02195e-16
-1.63587e-17
1.01593e-15
-4.8366e-16
9.90255e-19
1.28241e-17
3.85343e-16
-3.15614e-17
3.11176e-16
-2.9136e-16
-2.74273e-16
0
2.77165e-16
2.20678e-16
3.09562e-18
-4.50429e-18
1.42517e-16
9.87246e-17
0
-4.2784e-16
0
-1.02169e-16
4.61219e-16
6.67904e-18
1.05792e-16
-3.72621e-16
3.5207e-16
3.73964e-16
3.58535e-16
3.45102e-16
0
-2.69261e-16
0
1.44354e-17
-1.49925e-17
0
-1.44262e-18
7.11308e-17
2.96842e-16
1.5869e-17
-2.34075e-16
7.22839e-16
-2.31898e-16
0
0
-4.21543e-16
-3.62333e-16
-3.47341e-16
-6.3294e-16
-8.85398e-17
0
0
0
-2.97084e-17
3.14389e-17
2.01755e-16
-7.22184e-17
1.64791e-17
0
-5.05356e-16
-4.61544e-16
4.84141e-16
-4.80775e-16
-6.88355e-16
8.4308e-16
2.35547e-16
0
3.73909e-16
4.26053e-16
-9.19951e-17
5.00549e-16
-8.20479e-17
8.53919e-17
3.32582e-16
-1.91722e-16
0
-5.6688e-16
0
-5.42365e-16
5.31335e-16
0
9.57302e-16
4.4932e-16
-9.45143e-16
7.56976e-16
-4.81324e-18
-2.28725e-16
-4.12507e-16
0
5.72057e-16
-9.58078e-16
1.02849e-15
-1.31076e-15
0
0
5.64596e-16
-3.80985e-18
-9.37629e-18
-1.07167e-15
1.08206e-15
-5.2278e-16
5.20649e-16
5.13151e-16
-4.5249e-16
0
0
8.56741e-16
-8.71501e-16
-9.3023e-16
9.22607e-16
-8.99126e-16
9.72754e-16
-1.52402e-15
0
)
;

boundaryField
{
    up
    {
        type            calculated;
        value           nonuniform List<scalar> 
84
(
0
0
0
0
-5.1697e-17
9.30281e-17
-3.87368e-17
2.74281e-17
-2.39899e-17
0
-1.81086e-17
1.72039e-17
-1.15528e-17
1.26827e-18
1.05654e-18
8.03304e-18
0
0
-4.46496e-18
3.33345e-18
3.20324e-18
-3.11032e-18
2.8124e-19
0
1.25788e-18
6.0924e-19
-1.12646e-17
0
1.57377e-17
1.9282e-17
2.53308e-18
-4.4179e-18
1.77897e-18
0
-8.72795e-19
2.02284e-18
-1.94012e-18
3.10259e-18
0
-5.53468e-19
0
0
-2.8826e-19
5.69358e-19
-5.50129e-19
1.07715e-18
-2.04605e-18
2.04836e-18
-7.95693e-20
-2.06864e-18
0
0
0
-2.18121e-17
-2.96007e-18
1.84373e-18
0
-1.18872e-17
-1.1371e-17
8.39611e-18
0
0
-3.46009e-18
6.88245e-18
-8.11235e-18
5.60595e-18
0
1.54206e-18
0
0
-8.64385e-18
8.69236e-18
-1.38423e-17
1.61278e-17
0
-2.67798e-17
2.74282e-17
-2.01514e-18
0
7.11308e-17
-7.22184e-17
0
0
0
)
;
    }
    low
    {
        type            calculated;
        value           nonuniform List<scalar> 
84
(
-1.13038e-15
1.12798e-15
-5.50609e-16
8.6985e-16
1.52731e-16
-3.96912e-17
3.31715e-16
3.60758e-17
0
1.40152e-15
-3.55181e-16
2.90535e-16
-3.25096e-16
-2.11737e-15
3.46055e-16
0
-3.22324e-16
2.81413e-17
-2.70009e-17
-2.56862e-16
1.33023e-16
3.54281e-16
6.07548e-16
-5.3951e-16
0
-1.04507e-16
-5.37564e-17
0
-4.92921e-16
-1.39872e-16
-4.73419e-16
-5.12304e-16
5.54399e-16
1.8931e-16
1.29939e-15
1.0405e-16
0
8.70044e-16
8.49324e-16
4.82072e-16
-2.55856e-16
1.04027e-16
1.04031e-16
0
4.13943e-16
9.57251e-16
7.63558e-16
7.37222e-17
0
-1.80029e-15
1.10653e-15
1.34408e-19
1.36708e-19
4.29617e-16
0
-1.02104e-15
0
-5.81677e-17
1.09027e-16
2.24719e-16
3.49599e-16
4.89254e-16
1.02241e-19
1.19237e-15
0
0
-8.97125e-16
9.93547e-16
-1.00615e-15
-3.46344e-16
7.3812e-16
-6.84823e-16
1.52044e-15
7.46941e-16
6.9843e-16
-1.36845e-15
9.60199e-16
-2.93374e-16
6.02195e-16
-4.27008e-16
2.96842e-16
1.79975e-17
-5.6688e-16
5.65011e-16
)
;
    }
    left
    {
        type            calculated;
        value           nonuniform List<scalar> 
19
(
-1.12955e-15
-5.49104e-16
5.58032e-16
1.26119e-17
-1.06192e-15
0
-4.94827e-16
-4.87944e-16
-3.47585e-17
-2.57469e-16
-2.2992e-18
-2.56315e-16
1.14059e-15
-2.53695e-16
1.18511e-15
1.02293e-15
6.08524e-16
8.92742e-16
0
)
;
    }
    right
    {
        type            calculated;
        value           nonuniform List<scalar> 
19
(
5.64596e-16
-3.36842e-18
-9.37629e-18
-1.07167e-15
1.08236e-15
-5.2278e-16
5.20649e-16
5.13151e-16
-4.50857e-16
0
0
8.64832e-16
-8.82869e-16
-9.3023e-16
9.22607e-16
-8.99126e-16
9.72754e-16
-1.64807e-15
0
)
;
    }
    frontAndBackPlanes
    {
        type            empty;
    }
}


// ************************************************************************* //
