/*--------------------------------*- C++ -*----------------------------------*\
  =========                 |
  \\      /  F ield         | OpenFOAM: The Open Source CFD Toolbox
   \\    /   O peration     | Website:  https://openfoam.org
    \\  /    A nd           | Version:  7
     \\/     M anipulation  |
\*---------------------------------------------------------------------------*/
FoamFile
{
    version     2.0;
    format      ascii;
    class       volScalarField;
    location    "0.23";
    object      T;
}
// * * * * * * * * * * * * * * * * * * * * * * * * * * * * * * * * * * * * * //

dimensions      [0 0 0 1 0 0 0];

internalField   nonuniform List<scalar> 
1596
(
6.98043
6.92437
6.8672
6.81343
6.7643
6.71935
6.67765
6.63702
6.59582
6.55027
6.49737
6.43309
6.34859
6.23171
6.06374
5.80325
5.37314
4.61943
3.23343
6.91544
6.74101
6.5771
6.42741
6.29215
6.16924
6.05589
5.94745
5.83981
5.72585
5.59947
5.45326
5.27393
5.04534
4.74771
4.34406
3.7775
2.9504
1.678
6.83867
6.54554
6.28295
6.0483
5.83853
5.64953
5.47682
5.31425
5.15622
4.99424
4.82103
4.62812
4.402
4.12743
3.78789
3.35548
2.79234
2.0406
0.992597
6.76301
6.35895
6.00746
5.69819
5.42428
5.17957
4.95815
4.75297
4.55763
4.36321
4.16213
3.94588
3.7019
3.41687
3.07758
2.66348
2.14963
1.50201
0.658011
6.70041
6.20062
5.77141
5.39697
5.06747
4.77515
4.5131
4.27373
4.05026
3.83373
3.61664
3.3907
3.14446
2.86625
2.5453
2.16593
1.71107
1.16013
0.47586
6.65852
6.08364
5.58895
5.15785
4.77945
4.44529
4.14793
3.87961
3.63339
3.4005
3.17359
2.94464
2.70308
2.43846
2.14153
1.79966
1.40033
0.930251
0.36621
6.6383
6.01148
5.46437
4.98463
4.56273
4.19069
3.86118
3.56662
3.30016
3.05328
2.81886
2.58911
2.35408
2.10416
1.83099
1.52377
1.17254
0.767925
0.294432
6.63513
5.97852
5.39243
4.87213
4.41165
4.00478
3.64506
3.32549
3.03955
2.7791
2.53726
2.30643
2.07717
1.84039
1.58822
1.31097
1.00008
0.648207
0.24413
6.64449
5.97699
5.36463
4.81169
4.31736
3.87835
3.48979
3.14569
2.84016
2.56556
2.3153
2.08198
1.85654
1.63026
1.39552
1.1433
0.865776
0.556626
0.206962
6.65694
5.99089
5.36338
4.78599
4.26328
3.79552
3.38006
3.01236
2.68742
2.39825
2.13865
1.90146
1.67794
1.45963
1.23907
1.0076
0.757805
0.483828
0.178101
6.66687
6.00735
5.37271
4.77834
4.23313
3.74081
3.30128
2.91172
2.56828
2.26477
1.99547
1.75353
1.53051
1.31817
1.10913
0.894984
0.668534
0.424077
0.154784
6.67913
6.0293
5.3921
4.78571
4.22235
3.70886
3.24765
2.83776
2.47664
2.15902
1.87975
1.63231
1.40854
1.2004
1.00057
0.800793
0.59396
0.374373
0.135586
6.69066
6.05197
5.41509
4.80024
4.22229
3.69071
3.21027
2.78185
2.40429
2.07327
1.78425
1.53109
1.30589
1.10078
0.908474
0.72079
0.530658
0.332297
0.119458
6.69758
6.06807
5.43275
4.81215
4.22279
3.67628
3.17942
2.73485
2.34272
1.99971
1.70189
1.44349
1.21688
1.01433
0.828546
0.651425
0.475878
0.296005
0.105646
6.7033
6.08048
5.44623
4.8209
4.22202
3.66277
3.1517
2.693
2.28807
1.93451
1.62898
1.36604
1.13831
0.938164
0.758297
0.590619
0.428006
0.264416
0.0937069
6.70879
6.09113
5.45691
4.82683
4.21921
3.64854
3.12481
2.65359
2.23739
1.87463
1.56251
1.29589
1.06754
0.869904
0.69564
0.536638
0.385706
0.236648
0.0832938
6.71239
6.09809
5.46287
4.82771
4.21174
3.63058
3.09549
2.61324
2.18729
1.8168
1.49939
1.23015
1.00194
0.807232
0.638587
0.487851
0.34774
0.211896
0.0740973
6.7148
6.10213
5.4648
4.824
4.19966
3.60848
3.0629
2.57075
2.13633
1.75941
1.43795
1.16714
0.939896
0.748618
0.585764
0.44309
0.313201
0.189564
0.065884
6.71989
6.10943
5.46932
4.82199
4.18854
3.5869
3.03071
2.52884
2.08638
1.70361
1.37872
1.10693
0.881108
0.693545
0.536529
0.401701
0.28152
0.169255
0.058496
6.72634
6.11956
5.47679
4.82243
4.17919
3.56652
2.99937
2.4877
2.03733
1.64903
1.32111
1.04875
0.824695
0.641043
0.48989
0.362748
0.251922
0.150453
0.051748
6.73121
6.12833
5.48332
4.82205
4.16896
3.54518
2.9671
2.44581
1.98788
1.59447
1.26399
0.991492
0.769527
0.589965
0.444693
0.325119
0.223447
0.132508
0.0454161
6.73624
6.13734
5.49041
4.82242
4.15952
3.52456
2.93548
2.40456
1.93911
1.5407
1.20778
0.935229
0.715355
0.539758
0.400108
0.287767
0.194978
0.114523
0.0391799
6.74222
6.148
5.49954
4.82507
4.15242
3.50625
2.90607
2.36538
1.89223
1.4886
1.15297
0.880042
0.661866
0.489735
0.355073
0.249237
0.164715
0.0947045
0.0321747
6.7487
6.15972
5.51007
4.82939
4.14727
3.4901
2.87893
2.32846
1.84745
1.43824
1.0994
0.825456
0.608244
0.43874
0.30807
0.20751
0.129884
0.0693629
0.0209218
6.75916
6.18553
5.54667
4.87235
4.1925
3.53407
2.91881
2.36215
1.87362
1.45628
1.10939
0.828144
0.604861
0.430795
0.297163
0.195147
0.117591
0.0590551
0.0156397
6.77078
6.2192
5.60083
4.94418
4.27794
3.62822
3.01646
2.45826
1.96373
1.53695
1.17831
0.884373
0.648725
0.463626
0.320867
0.211724
0.128694
0.065763
0.0182249
6.77669
6.23973
5.63747
4.99676
4.34469
3.70595
3.10103
2.54505
2.04818
1.61501
1.24681
0.941404
0.693717
0.497287
0.344831
0.227974
0.139061
0.0716147
0.0202743
6.77699
6.24659
5.65542
5.02844
4.39068
3.76492
3.17007
2.62018
2.12488
1.6888
1.31374
0.998534
0.739467
0.53157
0.368878
0.243742
0.148603
0.0766188
0.021849
6.77367
6.24387
5.66001
5.04513
4.42191
3.8108
3.22868
2.68809
2.19769
1.76173
1.3822
1.05867
0.788637
0.568744
0.394744
0.260223
0.158098
0.0812759
0.0231813
6.76716
6.23422
5.65573
5.05239
4.44432
3.84938
3.2822
2.75351
2.27076
1.83754
1.45572
1.12526
0.844592
0.611871
0.424862
0.279017
0.168407
0.0859919
0.0244192
6.759
6.22204
5.64874
5.05728
4.46516
3.88766
3.33704
2.82218
2.34919
1.92087
1.53874
1.20283
0.912029
0.665625
0.463335
0.303051
0.18106
0.0912988
0.0256832
6.75302
6.21366
5.64643
5.06754
4.49206
3.93276
3.39968
2.89986
2.43817
2.01654
1.63608
1.2966
0.996942
0.736764
0.51708
0.33818
0.199657
0.0983788
0.0269877
6.74765
6.20719
5.64729
5.08216
4.52444
3.98451
3.47025
2.98705
2.53857
2.12602
1.75008
1.41026
1.105
0.833517
0.596808
0.396217
0.234283
0.112619
0.0284344
6.74267
6.20269
5.65183
5.10204
4.56353
4.04432
3.55034
3.08545
2.65233
2.25158
1.88361
1.54785
1.24236
0.965644
0.717561
0.498324
0.310353
0.157872
0.0428207
6.73673
6.19527
5.6509
5.1136
4.5913
4.08999
3.61388
3.16556
2.74687
2.35794
1.99905
1.66967
1.36791
1.09201
0.840886
0.612762
0.407076
0.225449
0.0692734
6.72552
6.17259
5.62489
5.09025
4.57453
4.08201
3.61551
3.17655
2.76623
2.38419
2.03049
1.70457
1.40467
1.12923
0.87746
0.647544
0.438371
0.249889
0.0806511
6.71052
6.14004
5.58339
5.04571
4.53089
4.04166
3.57965
3.14546
2.73954
2.36105
2.00985
1.68534
1.38585
1.11014
0.857983
0.628247
0.420787
0.236617
0.0750266
6.69819
6.11347
5.54966
5.00966
4.4957
4.00926
3.55098
3.12074
2.71852
2.34312
1.99429
1.67146
1.37306
1.09811
0.846705
0.618047
0.4123
0.230757
0.0728294
6.68969
6.09449
5.52518
4.98326
4.4698
3.98533
3.52978
3.10247
2.70301
2.32997
1.98301
1.66159
1.36422
1.09003
0.839375
0.611595
0.40704
0.227199
0.07157
6.68331
6.08024
5.50679
4.96342
4.45029
3.96727
3.51372
3.08856
2.69116
2.3199
1.97438
1.65409
1.35756
1.08405
0.834002
0.606908
0.403239
0.224639
0.0706829
6.67865
6.06982
5.4934
4.949
4.43614
3.95414
3.50199
3.07835
2.6824
2.3124
1.96792
1.64846
1.35257
1.07956
0.829981
0.603398
0.400382
0.222702
0.0700023
6.67464
6.06198
5.48397
4.93925
4.42679
3.94559
3.49443
3.07181
2.67683
2.30768
1.96393
1.64506
1.34966
1.07705
0.82783
0.601599
0.398971
0.221777
0.0696948
6.67465
6.06201
5.484
4.93929
4.42684
3.94564
3.49448
3.07186
2.67688
2.30773
1.96397
1.6451
1.3497
1.07708
0.827856
0.60162
0.398986
0.221786
0.0696979
6.67868
6.0699
5.4935
4.94913
4.43628
3.95428
3.50214
3.0785
2.68255
2.31254
1.96806
1.64858
1.35268
1.07966
0.830065
0.603465
0.400431
0.222732
0.0700127
6.68336
6.08036
5.50696
4.96361
4.45052
3.9675
3.51396
3.08881
2.6914
2.32013
1.9746
1.65429
1.35774
1.0842
0.834132
0.607011
0.403313
0.224683
0.0706981
6.68975
6.09464
5.5254
4.98353
4.4701
3.98565
3.5301
3.10279
2.70333
2.33027
1.98329
1.66185
1.36445
1.09024
0.839543
0.611727
0.407135
0.227256
0.0715894
6.69827
6.11366
5.54993
5.00998
4.49606
4.00964
3.55137
3.12114
2.71891
2.34349
1.99464
1.67178
1.37335
1.09835
0.846906
0.618204
0.412411
0.230823
0.0728515
6.71061
6.14026
5.5837
5.04609
4.53131
4.04211
3.58011
3.14592
2.73999
2.36148
2.01025
1.68571
1.38617
1.11041
0.8582
0.62841
0.420898
0.236679
0.0750455
6.72562
6.17282
5.62524
5.09067
4.575
4.08252
3.61603
3.17706
2.76674
2.38467
2.03093
1.70496
1.40499
1.12949
0.87765
0.647664
0.438429
0.249905
0.0806494
6.73684
6.19562
5.65145
5.11432
4.59216
4.09097
3.61494
3.16668
2.74803
2.35911
2.00022
1.67082
1.36904
1.0931
0.841929
0.613734
0.407927
0.226084
0.0695458
6.74281
6.2031
5.65247
5.10291
4.56458
4.04553
3.55167
3.08686
2.6538
2.25308
1.88511
1.54933
1.24381
0.967026
0.71884
0.499445
0.311242
0.15845
0.0430285
6.74777
6.20753
5.64785
5.08292
4.52537
3.98557
3.47141
2.98828
2.53983
2.1273
1.75133
1.41146
1.10613
0.834539
0.597681
0.396896
0.234735
0.112843
0.0284787
6.75313
6.21398
5.64696
5.06826
4.49293
3.93376
3.40077
2.90102
2.43934
2.01771
1.6372
1.29765
0.997896
0.737585
0.517738
0.338653
0.199948
0.098519
0.0270235
6.7591
6.22233
5.64922
5.05795
4.46599
3.8886
3.33807
2.82325
2.35028
1.92193
1.53974
1.20375
0.912837
0.666294
0.463849
0.303408
0.181279
0.0914085
0.0257139
6.76724
6.23448
5.65618
5.05301
4.44508
3.85026
3.28316
2.75451
2.27176
1.8385
1.45662
1.12607
0.845281
0.612427
0.42528
0.279306
0.168585
0.0860849
0.0244463
6.77374
6.2441
5.66041
5.04569
4.42261
3.81161
3.22956
2.689
2.1986
1.76259
1.383
1.05937
0.789229
0.569214
0.395095
0.260466
0.158251
0.081358
0.0232062
6.77705
6.24679
5.65577
5.02894
4.39132
3.76566
3.17087
2.62101
2.1257
1.68957
1.31445
0.999149
0.739978
0.531973
0.36918
0.243953
0.14874
0.0766938
0.0218728
6.77674
6.2399
5.63778
4.99721
4.34526
3.70661
3.10175
2.54579
2.04891
1.61569
1.24743
0.94194
0.694161
0.497639
0.345096
0.228163
0.139187
0.0716866
0.0202987
6.77082
6.21935
5.60111
4.94457
4.27844
3.6288
3.01709
2.45891
1.96438
1.53755
1.17885
0.884841
0.649114
0.463936
0.321104
0.211898
0.128814
0.0658356
0.018252
6.75916
6.18556
5.54673
4.87245
4.19263
3.53423
2.91899
2.36234
1.87381
1.45645
1.10955
0.828276
0.604964
0.43087
0.297211
0.195172
0.117598
0.0590514
0.0156345
6.74868
6.15968
5.51
4.8293
4.14716
3.48997
2.87881
2.32833
1.84733
1.43814
1.0993
0.825369
0.608168
0.438672
0.30801
0.207458
0.129841
0.069331
0.0209065
6.74222
6.14799
5.49953
4.82505
4.1524
3.50623
2.90606
2.36537
1.89223
1.4886
1.15298
0.880056
0.661882
0.489751
0.355089
0.249251
0.164725
0.0947108
0.0321763
6.73624
6.13733
5.4904
4.82241
4.1595
3.52455
2.93547
2.40456
1.93912
1.54071
1.20779
0.935242
0.715369
0.539772
0.40012
0.287776
0.194985
0.114527
0.0391809
6.73121
6.12833
5.48331
4.82204
4.16895
3.54518
2.9671
2.44581
1.98788
1.59447
1.264
0.991503
0.769539
0.589976
0.444702
0.325126
0.223452
0.13251
0.0454169
6.72634
6.11956
5.47678
4.82242
4.17919
3.56652
2.99937
2.4877
2.03734
1.64903
1.32112
1.04876
0.824704
0.641051
0.489897
0.362753
0.251926
0.150455
0.0517486
6.71989
6.10943
5.46931
4.82199
4.18854
3.5869
3.03071
2.52884
2.08638
1.70361
1.37872
1.10693
0.881115
0.693551
0.536534
0.401705
0.281522
0.169256
0.0584964
6.71479
6.10213
5.46479
4.824
4.19966
3.60849
3.06291
2.57075
2.13634
1.75942
1.43796
1.16715
0.939902
0.748623
0.585768
0.443093
0.313203
0.189565
0.0658842
6.71239
6.09809
5.46287
4.82771
4.21174
3.63058
3.0955
2.61324
2.18729
1.8168
1.4994
1.23015
1.00195
0.807235
0.63859
0.487852
0.347741
0.211897
0.0740974
6.70879
6.09113
5.45692
4.82683
4.21921
3.64854
3.12482
2.6536
2.23739
1.87463
1.56251
1.29589
1.06754
0.869906
0.695641
0.536638
0.385706
0.236648
0.0832937
6.7033
6.08048
5.44623
4.82091
4.22202
3.66278
3.15171
2.69301
2.28808
1.93451
1.62898
1.36605
1.13831
0.938165
0.758297
0.590618
0.428005
0.264416
0.0937068
6.69758
6.06807
5.43275
4.81216
4.2228
3.67628
3.17943
2.73485
2.34272
1.99971
1.70189
1.44349
1.21688
1.01433
0.828545
0.651423
0.475877
0.296004
0.105646
6.69066
6.05198
5.41509
4.80025
4.22229
3.69071
3.21027
2.78185
2.40429
2.07327
1.78425
1.53109
1.30589
1.10078
0.908471
0.720787
0.530656
0.332296
0.119458
6.67913
6.0293
5.3921
4.78571
4.22235
3.70886
3.24765
2.83776
2.47664
2.15902
1.87975
1.63231
1.40854
1.2004
1.00057
0.800789
0.593957
0.374372
0.135586
6.66687
6.00735
5.37271
4.77834
4.23313
3.74081
3.30128
2.91172
2.56828
2.26477
1.99547
1.75353
1.53051
1.31816
1.10913
0.89498
0.668532
0.424076
0.154784
6.65695
5.9909
5.36339
4.78599
4.26328
3.79551
3.38006
3.01236
2.68742
2.39824
2.13864
1.90145
1.67794
1.45963
1.23907
1.00759
0.757803
0.483827
0.178102
6.64449
5.97699
5.36463
4.81169
4.31736
3.87834
3.48978
3.14569
2.84016
2.56555
2.31529
2.08197
1.85653
1.63025
1.39552
1.1433
0.865775
0.556626
0.206962
6.63513
5.97852
5.39243
4.87213
4.41164
4.00478
3.64506
3.32548
3.03954
2.7791
2.53726
2.30643
2.07716
1.84038
1.58821
1.31097
1.00008
0.648208
0.244131
6.6383
6.01148
5.46436
4.98462
4.56272
4.19068
3.86117
3.56661
3.30015
3.05327
2.81886
2.5891
2.35407
2.10416
1.83098
1.52377
1.17254
0.767926
0.294433
6.65851
6.08364
5.58894
5.15784
4.77944
4.44529
4.14792
3.8796
3.63338
3.40049
3.17358
2.94464
2.70308
2.43846
2.14153
1.79966
1.40033
0.930253
0.36621
6.7004
6.20062
5.77141
5.39697
5.06746
4.77515
4.51309
4.27372
4.05025
3.83372
3.61664
3.3907
3.14445
2.86625
2.54529
2.16593
1.71108
1.16014
0.475861
6.76301
6.35895
6.00746
5.69819
5.42428
5.17956
4.95814
4.75296
4.55762
4.3632
4.16213
3.94587
3.70189
3.41686
3.07758
2.66348
2.14963
1.50201
0.658011
6.83866
6.54554
6.28295
6.04829
5.83853
5.64953
5.47682
5.31424
5.15621
4.99424
4.82103
4.62812
4.402
4.12743
3.78789
3.35548
2.79234
2.0406
0.992596
6.91544
6.74101
6.5771
6.42741
6.29215
6.16924
6.05589
5.94745
5.83981
5.72585
5.59947
5.45326
5.27393
5.04534
4.74771
4.34406
3.7775
2.9504
1.678
6.98043
6.92437
6.8672
6.81343
6.7643
6.71935
6.67765
6.63702
6.59582
6.55027
6.49737
6.43309
6.34859
6.23171
6.06374
5.80325
5.37314
4.61943
3.23343
)
;

boundaryField
{
    up
    {
        type            fixedValue;
        value           uniform 0;
    }
    low
    {
        type            fixedValue;
        value           uniform 7;
    }
    left
    {
        type            fixedValue;
        value           uniform 7;
    }
    right
    {
        type            fixedValue;
        value           uniform 7;
    }
    frontAndBackPlanes
    {
        type            empty;
    }
}


// ************************************************************************* //
