/*--------------------------------*- C++ -*----------------------------------*\
  =========                 |
  \\      /  F ield         | OpenFOAM: The Open Source CFD Toolbox
   \\    /   O peration     | Website:  https://openfoam.org
    \\  /    A nd           | Version:  7
     \\/     M anipulation  |
\*---------------------------------------------------------------------------*/
FoamFile
{
    version     2.0;
    format      ascii;
    class       volScalarField;
    location    "0.258";
    object      T;
}
// * * * * * * * * * * * * * * * * * * * * * * * * * * * * * * * * * * * * * //

dimensions      [0 0 0 1 0 0 0];

internalField   nonuniform List<scalar> 
1596
(
5.98434
5.93944
5.89349
5.84997
5.80977
5.77239
5.73705
5.70192
5.66565
5.62515
5.57798
5.52085
5.44644
5.34449
5.19913
4.97489
4.60571
3.95948
2.77149
5.9323
5.7925
5.66062
5.53932
5.42848
5.32623
5.23018
5.13648
5.04178
4.94031
4.82716
4.69641
4.53718
4.33611
4.07662
3.72729
3.23944
2.52931
1.43827
5.87073
5.6356
5.42416
5.23386
5.0619
4.90468
4.75842
4.61807
4.4791
4.33467
4.17901
4.00545
3.80309
3.55954
3.26119
2.88461
2.3976
1.75055
0.85095
5.8099
5.48548
5.20224
4.95133
4.72679
4.52337
4.33612
4.15926
3.98765
3.81416
3.63285
3.43709
3.21692
2.96171
2.66087
2.29738
1.85029
1.29061
0.564547
5.75935
5.35765
5.01156
4.70771
4.43773
4.19505
3.9739
3.76809
3.57216
3.379
3.18277
2.97711
2.75304
2.50144
2.21388
1.87769
1.47879
0.999867
0.409023
5.7253
5.26273
4.86356
4.51371
4.20391
3.92698
3.67671
3.44676
3.23158
3.02418
2.81891
2.60963
2.38814
2.1464
1.87736
1.57106
1.21742
0.805588
0.315839
5.70864
5.20368
4.76189
4.37255
4.02741
3.71968
3.44319
3.19174
2.95983
2.74069
2.52884
2.31833
2.10151
1.87104
1.62068
1.3421
1.02751
0.669548
0.255281
5.70573
5.17619
4.70256
4.28023
3.9038
3.56784
3.2669
2.9952
2.7475
2.51733
2.29936
2.08783
1.87545
1.65534
1.42168
1.16711
0.88513
0.570219
0.213246
5.71304
5.17421
4.67896
4.23
3.82608
3.4641
3.13988
2.84844
2.58501
2.34353
2.11888
1.90543
1.6962
1.48455
1.26491
1.03044
0.77535
0.495053
0.182533
5.723
5.18494
4.67708
4.20806
3.78101
3.39568
3.0497
2.73924
2.46025
2.20717
1.97519
1.75884
1.55137
1.34634
1.13823
0.920535
0.687793
0.435865
0.158943
5.73104
5.19805
4.6841
4.20104
3.7555
3.35011
2.98453
2.65633
2.36242
2.09787
1.85826
1.63834
1.43157
1.23165
1.03309
0.829544
0.615706
0.387587
0.140043
5.74109
5.21593
4.69972
4.20664
3.7461
3.32327
2.93988
2.59504
2.28672
2.01076
1.7632
1.53906
1.33199
1.13582
0.945035
0.753366
0.555541
0.347548
0.12457
5.75066
5.23474
4.71875
4.21863
3.74594
3.30808
2.90872
2.54852
2.2266
1.93962
1.68415
1.45549
1.24751
1.05413
0.869823
0.688304
0.504269
0.313586
0.111582
5.7566
5.24852
4.73395
4.22905
3.74683
3.29642
2.88322
2.50938
2.17518
1.87811
1.61528
1.38235
1.17339
0.982386
0.803782
0.631274
0.459467
0.284059
0.100398
5.76163
5.25957
4.74619
4.2375
3.74731
3.2861
2.86076
2.47476
2.12948
1.82325
1.55375
1.31694
1.10709
0.918282
0.744888
0.580555
0.419772
0.258033
0.0906294
5.76652
5.2694
4.75658
4.24422
3.74681
3.27588
2.83957
2.44256
2.08725
1.77276
1.49727
1.25705
1.04657
0.85995
0.691491
0.534756
0.384095
0.234775
0.0819799
5.76991
5.2764
4.76345
4.24735
3.74313
3.26328
2.81701
2.41009
2.04581
1.72402
1.44337
1.20041
0.989754
0.805545
0.641995
0.492561
0.351429
0.213624
0.0741925
5.77232
5.28114
4.76731
4.24715
3.73623
3.2479
2.79237
2.37636
2.004
1.67577
1.39075
1.14571
0.935363
0.753868
0.59532
0.453052
0.32106
0.194111
0.0670818
5.77687
5.28849
4.77337
4.24859
3.73054
3.23348
2.76861
2.34363
1.96341
1.62904
1.33995
1.0931
0.883276
0.704589
0.551016
0.415747
0.292566
0.175943
0.0605333
5.78244
5.29806
4.78182
4.25215
3.72656
3.22042
2.746
2.31194
1.92389
1.58348
1.29048
1.04196
0.832736
0.656876
0.508221
0.379827
0.265265
0.158673
0.0543932
5.78669
5.3064
4.78939
4.25499
3.7219
3.20669
2.72278
2.27979
1.88409
1.53788
1.24118
0.991152
0.782633
0.609603
0.465797
0.34419
0.238206
0.141662
0.0484499
5.79098
5.31474
4.79716
4.2582
3.71766
3.19339
2.69997
2.24802
1.84468
1.49264
1.19218
0.940557
0.732571
0.562116
0.422834
0.307707
0.210186
0.123949
0.042366
5.79594
5.32416
4.8062
4.26278
3.71485
3.18149
2.67848
2.21745
1.80626
1.44813
1.14358
0.889954
0.682019
0.513562
0.378127
0.268772
0.179225
0.103554
0.035189
5.80121
5.33412
4.81585
4.26805
3.71281
3.17046
2.6579
2.18775
1.76853
1.40395
1.09481
0.838527
0.6299
0.462591
0.329998
0.225189
0.142298
0.0764221
0.0230785
5.80954
5.35493
4.84571
4.30358
3.75075
3.20786
2.69226
2.21705
1.79132
1.41939
1.10274
0.83946
0.624879
0.453024
0.317464
0.211245
0.128578
0.0650104
0.0172801
5.81872
5.38164
4.88901
4.36153
3.82049
3.28573
2.77421
2.29896
1.86937
1.49041
1.16442
0.890624
0.665498
0.484025
0.340359
0.22769
0.139931
0.0720874
0.0200945
5.8233
5.39756
4.91757
4.40287
3.87355
3.34833
2.8433
2.37096
1.94053
1.55723
1.22396
0.940935
0.705784
0.514648
0.362563
0.243091
0.150037
0.0779866
0.0222501
5.82336
5.40227
4.93051
4.42633
3.90834
3.3938
2.89752
2.43103
2.00292
1.61824
1.28014
0.989545
0.745182
0.544501
0.38375
0.257189
0.158744
0.0826911
0.0238052
5.82045
5.399
4.93212
4.43678
3.92991
3.42704
2.9414
2.48319
2.0601
1.67662
1.33586
1.03917
0.786184
0.575721
0.405569
0.271139
0.166832
0.0867197
0.0250068
5.81489
5.38984
4.92604
4.43883
3.94331
3.45314
2.97973
2.53184
2.11599
1.73597
1.39453
1.09312
0.832013
0.611238
0.430354
0.286491
0.175147
0.0904831
0.0260094
5.80789
5.3783
4.91724
4.43829
3.95467
3.4781
3.0182
2.58216
2.17533
1.80066
1.46036
1.15571
0.887135
0.655491
0.46201
0.30604
0.185165
0.0945065
0.026937
5.80248
5.36947
4.91175
4.44157
3.97039
3.50808
3.06249
2.63936
2.2429
1.87519
1.5379
1.23186
0.957185
0.714842
0.507068
0.335339
0.200317
0.0999284
0.0278079
5.79742
5.36187
4.90844
4.448
3.99023
3.54317
3.11303
2.70414
2.31972
1.96111
1.62943
1.32503
1.04744
0.796944
0.575534
0.385495
0.230148
0.11188
0.0287298
5.79255
5.35562
4.90786
4.4585
4.01541
3.58482
3.17139
2.77825
2.40773
2.06061
1.73764
1.43894
1.16348
0.910684
0.681251
0.476191
0.298517
0.152925
0.0418914
5.78679
5.34678
4.90257
4.46191
4.03096
3.61436
3.21543
2.83626
2.47849
2.14245
1.82872
1.53736
1.26726
1.01747
0.787647
0.576814
0.384999
0.214221
0.0662098
5.77665
5.32528
4.87649
4.43633
4.00933
3.5988
3.20694
2.83499
2.48398
2.15381
1.84488
1.55715
1.2896
1.04143
0.812509
0.601759
0.408665
0.233627
0.0756436
5.76331
5.29559
4.8376
4.39327
3.96553
3.55643
3.16722
2.79841
2.45049
2.12298
1.81608
1.52976
1.26304
1.01539
0.787167
0.577893
0.387905
0.218535
0.0694281
5.75212
5.27081
4.80527
4.35756
3.92927
3.52141
3.13446
2.76833
2.42312
2.09807
1.79329
1.50875
1.24358
0.997416
0.770905
0.56381
0.376699
0.211094
0.0667038
5.74413
5.25253
4.78104
4.33054
3.90165
3.49461
3.10931
2.74518
2.40207
2.07898
1.77598
1.49303
1.22932
0.984592
0.759632
0.554317
0.369333
0.206324
0.0650414
5.73805
5.23862
4.76259
4.30996
3.88058
3.47414
3.09006
2.72746
2.38595
2.0644
1.76281
1.48118
1.21868
0.975128
0.751402
0.547451
0.36404
0.202916
0.0638743
5.73361
5.22847
4.74922
4.29511
3.86544
3.45946
3.07626
2.71475
2.3744
2.05396
1.75341
1.47273
1.21113
0.968425
0.745577
0.542581
0.360268
0.20047
0.0630283
5.72998
5.22119
4.74021
4.28551
3.85592
3.4504
3.06789
2.70715
2.36758
2.04789
1.74804
1.46801
1.20699
0.96485
0.742554
0.540122
0.35841
0.199295
0.0626381
5.72999
5.22121
4.74024
4.28555
3.85595
3.45044
3.06793
2.70719
2.36762
2.04793
1.74807
1.46804
1.20702
0.964875
0.742575
0.540138
0.358422
0.199302
0.0626404
5.73364
5.22853
4.7493
4.29521
3.86555
3.45957
3.07638
2.71487
2.37452
2.05407
1.75352
1.47283
1.21121
0.968503
0.745643
0.542634
0.360306
0.200493
0.0630365
5.73809
5.23871
4.76272
4.31012
3.88076
3.47433
3.09025
2.72765
2.38614
2.06458
1.76298
1.48133
1.21882
0.975249
0.751503
0.54753
0.364097
0.202951
0.0638861
5.74419
5.25266
4.78121
4.33076
3.90188
3.49486
3.10956
2.74544
2.40232
2.07922
1.7762
1.49323
1.2295
0.984748
0.759761
0.554418
0.369405
0.206367
0.065056
5.75218
5.27096
4.80548
4.35782
3.92956
3.52172
3.13478
2.76864
2.42343
2.09836
1.79356
1.50899
1.24379
0.997601
0.771058
0.563928
0.376782
0.211143
0.0667199
5.76338
5.29576
4.83785
4.39357
3.96586
3.55678
3.16759
2.79877
2.45084
2.12331
1.81639
1.53004
1.26328
1.01559
0.787326
0.57801
0.387983
0.218577
0.0694402
5.77672
5.32547
4.87677
4.43667
4.00971
3.5992
3.20734
2.83539
2.48437
2.15418
1.84521
1.55744
1.28984
1.04161
0.812633
0.601827
0.408687
0.233621
0.0756341
5.78688
5.34705
4.903
4.46249
4.03166
3.61515
3.21629
2.83717
2.47944
2.14342
1.8297
1.53833
1.26822
1.01841
0.78856
0.577676
0.385764
0.214799
0.0664601
5.79266
5.35594
4.90838
4.4592
4.01626
3.58581
3.17248
2.77942
2.40897
2.06188
1.73893
1.44023
1.16476
0.911916
0.682404
0.477213
0.299333
0.153459
0.0420849
5.79751
5.36214
4.9089
4.44861
3.99098
3.54404
3.11398
2.70516
2.32079
1.96219
1.6305
1.32609
1.04844
0.797858
0.576323
0.386114
0.230562
0.112086
0.02877
5.80256
5.36973
4.91217
4.44214
3.9711
3.50889
3.06339
2.64032
2.24388
1.87619
1.53887
1.23278
0.95803
0.715578
0.507662
0.33577
0.200583
0.100057
0.027841
5.80796
5.37853
4.91763
4.43883
3.95534
3.47887
3.01904
2.58305
2.17625
1.80156
1.46123
1.15652
0.887853
0.656092
0.462476
0.306367
0.185366
0.0946085
0.0269659
5.81496
5.39005
4.92639
4.43933
3.94393
3.45385
2.98052
2.53267
2.11684
1.7368
1.39531
1.09383
0.832629
0.611741
0.430736
0.286757
0.175313
0.0905708
0.0260355
5.82051
5.39918
4.93244
4.43723
3.93047
3.42771
2.94213
2.48396
2.06087
1.67737
1.33656
1.03979
0.786716
0.57615
0.405893
0.271367
0.166977
0.0867984
0.0250312
5.8234
5.40243
4.93079
4.42673
3.90885
3.3944
2.89818
2.43172
2.00362
1.61891
1.28076
0.990093
0.745645
0.544872
0.384031
0.257389
0.158875
0.0827645
0.023829
5.82334
5.3977
4.91781
4.40323
3.87401
3.34887
2.84389
2.37158
1.94115
1.55782
1.22451
0.941418
0.70619
0.514974
0.362813
0.243272
0.150159
0.0780583
0.0222751
5.81875
5.38176
4.88922
4.36184
3.82089
3.28621
2.77473
2.29951
1.86992
1.49094
1.1649
0.891049
0.665857
0.484316
0.340586
0.22786
0.140051
0.0721614
0.0201228
5.80954
5.35495
4.84576
4.30366
3.75086
3.208
2.69241
2.2172
1.79148
1.41954
1.10287
0.83957
0.624963
0.453083
0.3175
0.21126
0.128579
0.065003
0.0172739
5.80119
5.33408
4.81579
4.26798
3.71272
3.17036
2.65779
2.18764
1.76842
1.40385
1.09471
0.838439
0.629819
0.462518
0.329932
0.225131
0.14225
0.0763872
0.0230623
5.79594
5.32415
4.80618
4.26277
3.71483
3.18147
2.67846
2.21744
1.80625
1.44813
1.14359
0.889963
0.68203
0.513574
0.37814
0.268783
0.179235
0.10356
0.0351907
5.79098
5.31474
4.79715
4.25818
3.71765
3.19338
2.69996
2.24802
1.84468
1.49264
1.19219
0.940566
0.732582
0.562127
0.422844
0.307716
0.210193
0.123953
0.0423671
5.78669
5.30639
4.78938
4.25498
3.72189
3.20669
2.72278
2.27979
1.8841
1.53789
1.24118
0.99116
0.782641
0.609612
0.465805
0.344197
0.238211
0.141664
0.0484506
5.78244
5.29805
4.78181
4.25214
3.72655
3.22041
2.74599
2.31194
1.92389
1.58349
1.29049
1.04197
0.832744
0.656883
0.508227
0.379832
0.265269
0.158675
0.0543937
5.77686
5.28849
4.77337
4.24859
3.73054
3.23348
2.76861
2.34363
1.96341
1.62904
1.33996
1.09311
0.883282
0.704594
0.551021
0.415751
0.292568
0.175944
0.0605336
5.77232
5.28113
4.76731
4.24714
3.73623
3.2479
2.79237
2.37636
2.004
1.67577
1.39075
1.14571
0.935368
0.753872
0.595323
0.453054
0.321061
0.194111
0.067082
5.7699
5.2764
4.76345
4.24735
3.74313
3.26328
2.81701
2.41009
2.04582
1.72402
1.44337
1.20042
0.989757
0.805547
0.641996
0.492563
0.351429
0.213624
0.0741925
5.76652
5.2694
4.75658
4.24423
3.74681
3.27588
2.83957
2.44257
2.08726
1.77276
1.49727
1.25706
1.04657
0.859952
0.691491
0.534756
0.384095
0.234775
0.0819799
5.76163
5.25957
4.74619
4.2375
3.74731
3.28611
2.86076
2.47476
2.12948
1.82326
1.55375
1.31694
1.10709
0.918282
0.744888
0.580554
0.419771
0.258033
0.0906294
5.7566
5.24852
4.73395
4.22905
3.74683
3.29642
2.88322
2.50938
2.17518
1.87811
1.61528
1.38235
1.17339
0.982385
0.803781
0.631273
0.459466
0.284058
0.100398
5.75066
5.23474
4.71876
4.21863
3.74595
3.30809
2.90872
2.54852
2.2266
1.93962
1.68414
1.45549
1.24751
1.05413
0.869821
0.688302
0.504267
0.313586
0.111582
5.74109
5.21594
4.69973
4.20664
3.7461
3.32327
2.93988
2.59503
2.28672
2.01076
1.7632
1.53906
1.33199
1.13581
0.945033
0.753364
0.55554
0.347548
0.124571
5.73104
5.19805
4.68411
4.20104
3.7555
3.35011
2.98453
2.65633
2.36242
2.09786
1.85825
1.63834
1.43157
1.23165
1.03309
0.829542
0.615705
0.387587
0.140043
5.723
5.18495
4.67708
4.20806
3.78101
3.39568
3.0497
2.73923
2.46025
2.20716
1.97518
1.75884
1.55137
1.34634
1.13823
0.920533
0.687792
0.435865
0.158943
5.71305
5.17421
4.67896
4.23
3.82608
3.4641
3.13988
2.84843
2.58501
2.34352
2.11887
1.90543
1.69619
1.48455
1.26491
1.03044
0.775349
0.495053
0.182534
5.70573
5.17619
4.70256
4.28023
3.90379
3.56784
3.2669
2.99519
2.74749
2.51732
2.29936
2.08782
1.87545
1.65533
1.42168
1.16711
0.88513
0.57022
0.213247
5.70863
5.20368
4.76188
4.37255
4.02741
3.71967
3.44319
3.19173
2.95982
2.74069
2.52883
2.31833
2.10151
1.87104
1.62068
1.3421
1.02751
0.669548
0.255282
5.7253
5.26273
4.86355
4.51371
4.2039
3.92697
3.6767
3.44676
3.23157
3.02418
2.8189
2.60962
2.38814
2.1464
1.87736
1.57106
1.21742
0.805589
0.31584
5.75935
5.35765
5.01155
4.7077
4.43773
4.19505
3.9739
3.76808
3.57215
3.37899
3.18277
2.97711
2.75304
2.50144
2.21388
1.87769
1.47879
0.999868
0.409023
5.8099
5.48548
5.20224
4.95132
4.72679
4.52336
4.33611
4.15926
3.98765
3.81416
3.63284
3.43708
3.21692
2.96171
2.66087
2.29738
1.85029
1.29061
0.564547
5.87073
5.6356
5.42415
5.23386
5.06189
4.90468
4.75842
4.61807
4.47909
4.33467
4.17901
4.00545
3.80309
3.55954
3.26119
2.88461
2.3976
1.75055
0.85095
5.9323
5.7925
5.66061
5.53932
5.42848
5.32623
5.23018
5.13648
5.04178
4.9403
4.82716
4.69641
4.53718
4.33611
4.07662
3.72729
3.23944
2.52931
1.43827
5.98434
5.93944
5.89349
5.84997
5.80977
5.77239
5.73705
5.70192
5.66565
5.62515
5.57798
5.52085
5.44644
5.34449
5.19913
4.97489
4.60571
3.95948
2.77149
)
;

boundaryField
{
    up
    {
        type            fixedValue;
        value           uniform 0;
    }
    low
    {
        type            fixedValue;
        value           uniform 6;
    }
    left
    {
        type            fixedValue;
        value           uniform 6;
    }
    right
    {
        type            fixedValue;
        value           uniform 6;
    }
    frontAndBackPlanes
    {
        type            empty;
    }
}


// ************************************************************************* //
