/*--------------------------------*- C++ -*----------------------------------*\
  =========                 |
  \\      /  F ield         | OpenFOAM: The Open Source CFD Toolbox
   \\    /   O peration     | Website:  https://openfoam.org
    \\  /    A nd           | Version:  7
     \\/     M anipulation  |
\*---------------------------------------------------------------------------*/
FoamFile
{
    version     2.0;
    format      ascii;
    class       volScalarField;
    location    "0.06";
    object      T;
}
// * * * * * * * * * * * * * * * * * * * * * * * * * * * * * * * * * * * * * //

dimensions      [0 0 0 1 0 0 0];

internalField   nonuniform List<scalar> 
1596
(
1.98429
1.94014
1.89753
1.86159
1.83404
1.81442
1.80141
1.79296
1.78776
1.78384
1.78026
1.77552
1.76619
1.74763
1.71304
1.64898
1.53257
1.31999
0.9242
1.93363
1.79932
1.68043
1.5835
1.51003
1.45778
1.42286
1.4004
1.38671
1.37773
1.37105
1.36384
1.35081
1.32519
1.27833
1.19586
1.05852
0.837022
0.479443
1.87815
1.66015
1.47605
1.3291
1.21856
1.14005
1.08743
1.05375
1.03349
1.02127
1.01375
1.00756
0.997391
0.976646
0.937192
0.86632
0.748598
0.564069
0.281131
1.83025
1.54298
1.30634
1.11954
0.979398
0.879694
0.812503
0.769435
0.743573
0.728643
0.720666
0.716044
0.710041
0.697058
0.670282
0.619189
0.531399
0.392213
0.180862
1.79821
1.46073
1.18433
0.966376
0.802321
0.684879
0.605012
0.553376
0.522034
0.504053
0.494897
0.490821
0.487715
0.48108
0.465573
0.432873
0.373108
0.27473
0.122651
1.78388
1.41597
1.11161
0.869668
0.685889
0.552935
0.461371
0.401351
0.364226
0.342535
0.331212
0.326306
0.324159
0.321183
0.313342
0.294332
0.256477
0.190526
0.0846957
1.78347
1.40234
1.0804
0.820486
0.620302
0.473455
0.3708
0.302407
0.259189
0.233257
0.21903
0.212269
0.209532
0.207847
0.204188
0.193949
0.17139
0.129244
0.0581178
1.79096
1.40926
1.07826
0.805657
0.592082
0.432896
0.319828
0.243237
0.193856
0.163473
0.146026
0.136935
0.132764
0.130874
0.128913
0.123589
0.110786
0.0850292
0.0389905
1.80238
1.42803
1.09424
0.813215
0.588917
0.418907
0.296215
0.211781
0.156386
0.121597
0.100935
0.0894596
0.083595
0.0808047
0.0791189
0.0761626
0.0690814
0.053953
0.0253104
1.81245
1.44836
1.11599
0.830366
0.598306
0.419582
0.288694
0.197356
0.136573
0.0978127
0.0742741
0.0606869
0.0532749
0.0494645
0.0474529
0.0454452
0.0414817
0.0328792
0.015781
1.81884
1.46402
1.13514
0.847986
0.611156
0.42623
0.289079
0.192246
0.127082
0.0850645
0.0591856
0.0439166
0.0352821
0.0306113
0.028139
0.0264002
0.0240158
0.0192089
0.00940631
1.8248
1.47756
1.15207
0.864495
0.624549
0.435115
0.293189
0.192054
0.123421
0.0788242
0.0511212
0.0345838
0.0250587
0.0197612
0.0168969
0.0151635
0.0135236
0.0108034
0.00536184
1.82908
1.48731
1.16433
0.87668
0.63477
0.442336
0.297158
0.193062
0.12204
0.0756864
0.0467705
0.0294226
0.0193558
0.0136894
0.0105851
0.00881225
0.00751892
0.00590031
0.0029348
1.82993
1.49039
1.16872
0.881225
0.638536
0.444771
0.298098
0.192635
0.120526
0.0734032
0.0439882
0.0263335
0.0160796
0.010294
0.00711248
0.00534145
0.00422838
0.00318083
0.00155737
1.8294
1.48893
1.16667
0.878817
0.635886
0.441974
0.295243
0.189814
0.117817
0.0708557
0.0416174
0.0241242
0.0139999
0.00830736
0.00518697
0.00347755
0.00248636
0.00174061
0.000817479
1.8281
1.48423
1.15941
0.870248
0.627172
0.433938
0.288338
0.184183
0.113394
0.0674619
0.0390301
0.0221278
0.0124139
0.00699312
0.00404516
0.00245299
0.00157151
0.00100001
0.000437687
1.82518
1.47548
1.1463
0.855031
0.611975
0.420298
0.277057
0.175445
0.106971
0.0629281
0.0359132
0.0200054
0.0109544
0.00595714
0.00326991
0.00183973
0.00107189
0.000617739
0.000247271
1.82111
1.46329
1.12806
0.833867
0.590938
0.401602
0.261836
0.163916
0.0987427
0.0573407
0.0322615
0.0176791
0.00948912
0.00502732
0.00266121
0.00142184
0.000772385
0.00040981
0.000150408
1.8184
1.45148
1.10849
0.810088
0.566778
0.379952
0.244225
0.150679
0.0894248
0.0511366
0.028312
0.0152499
0.00803027
0.00416025
0.0021416
0.00110281
0.000570488
0.000285105
9.78276e-05
1.81645
1.44009
1.08803
0.784272
0.540087
0.355908
0.224728
0.136158
0.0793452
0.0445462
0.024209
0.0127938
0.00660397
0.00334841
0.00168224
0.000841497
0.000420139
0.000201452
6.60966e-05
1.81376
1.42738
1.06548
0.755787
0.510669
0.329563
0.20359
0.120645
0.0687693
0.0377753
0.0200922
0.0103936
0.00525106
0.00260451
0.00127855
0.000623576
0.000302684
0.000140848
4.49257e-05
1.81173
1.41525
1.04291
0.726682
0.480371
0.302447
0.181987
0.104984
0.0582653
0.0311808
0.0161707
0.00816281
0.00402693
0.00195103
0.000935512
0.000445378
0.000210833
9.57421e-05
2.9977e-05
1.81125
1.40575
1.02288
0.699556
0.451502
0.276397
0.161253
0.0900636
0.0483819
0.025077
0.0126113
0.00618226
0.00296629
0.00139965
0.000654267
0.000303728
0.000140108
6.19984e-05
1.90774e-05
1.81234
1.39993
1.00738
0.676842
0.426416
0.25334
0.142761
0.0767561
0.0396144
0.0197154
0.00952651
0.00449368
0.00207899
0.000948064
0.000429175
0.000192923
8.56366e-05
3.56755e-05
9.71742e-06
1.81788
1.40833
1.0137
0.679269
0.425447
0.250486
0.139471
0.0739235
0.0375618
0.0184034
0.00876658
0.00408797
0.00187723
0.000853928
0.000387694
0.000175388
7.78829e-05
3.13815e-05
7.28444e-06
1.82579
1.42737
1.0379
0.70295
0.444935
0.264473
0.148433
0.0791326
0.0403487
0.0197977
0.0094299
0.00439497
0.00201928
0.000921697
0.000422092
0.000194244
8.86781e-05
3.71171e-05
9.11893e-06
1.83098
1.4437
1.06209
0.729621
0.469225
0.283581
0.161758
0.087514
0.0451629
0.0223489
0.0106878
0.00497625
0.00227254
0.00102653
0.000464385
0.000212013
9.72678e-05
4.1622e-05
1.06769e-05
1.83341
1.45648
1.08491
0.758017
0.497648
0.307861
0.180046
0.0999072
0.0528269
0.0267181
0.0130015
0.00611869
0.00279759
0.00124868
0.000549332
0.000240773
0.000106331
4.47754e-05
1.16544e-05
1.83459
1.46758
1.10749
0.788461
0.530177
0.33739
0.203674
0.116948
0.0640762
0.0335879
0.0169141
0.00820609
0.0038387
0.00172825
0.000748103
0.00031111
0.000126123
4.87686e-05
1.20545e-05
1.83487
1.4777
1.13009
0.820518
0.56598
0.371412
0.232275
0.138716
0.0793115
0.043501
0.0229623
0.0116838
0.00572197
0.00267898
0.0011849
0.000484517
0.000180812
6.01985e-05
1.24807e-05
1.83523
1.48859
1.15403
0.854723
0.60499
0.409654
0.265711
0.165367
0.0989691
0.0570601
0.0317841
0.0171285
0.00891136
0.00443855
0.00208033
0.000885156
0.000325933
9.60719e-05
1.49536e-05
1.83792
1.50311
1.18171
0.892711
0.648158
0.45265
0.304396
0.1974
0.123706
0.0750453
0.0441984
0.0253127
0.0140741
0.00753923
0.00382404
0.00176482
0.000692725
0.000201227
2.39975e-05
1.84146
1.51891
1.2107
0.932267
0.69364
0.49903
0.347501
0.234542
0.153742
0.0980482
0.0610184
0.0371329
0.022084
0.0127655
0.00707265
0.00362579
0.00160793
0.000524333
5.08284e-05
1.84533
1.53515
1.24008
0.972545
0.740713
0.548249
0.394746
0.276846
0.189497
0.126819
0.0832374
0.0537203
0.0341134
0.0212605
0.0128983
0.00743729
0.00388587
0.00164498
0.000338538
1.84849
1.54879
1.26512
1.00755
0.782611
0.593297
0.439375
0.318235
0.225839
0.157286
0.107815
0.0729299
0.0487402
0.032156
0.0208469
0.0130594
0.00761319
0.00375239
0.00100855
1.84845
1.55314
1.27583
1.02473
0.80501
0.618959
0.466185
0.34433
0.249843
0.178356
0.125615
0.0874983
0.0603426
0.0411723
0.0276869
0.0180806
0.01109
0.00584862
0.00175867
1.846
1.55083
1.27631
1.02898
0.812895
0.629678
0.478652
0.357449
0.262694
0.190262
0.136169
0.0965154
0.0677897
0.0471131
0.0322422
0.0213811
0.0132729
0.00705921
0.00213896
1.84444
1.54978
1.27769
1.03348
0.820386
0.639519
0.489969
0.369347
0.274406
0.201202
0.145969
0.10499
0.0748796
0.0528455
0.0366999
0.0246614
0.0154814
0.00831027
0.00254458
1.84407
1.55038
1.28029
1.03847
0.827608
0.648474
0.499993
0.379757
0.284613
0.210748
0.154558
0.112464
0.0811776
0.0579762
0.0407179
0.027636
0.017493
0.0094537
0.00291771
1.84389
1.55098
1.28241
1.04238
0.833195
0.655381
0.507738
0.387833
0.292576
0.218246
0.161354
0.118422
0.0862361
0.0621242
0.0439839
0.0300632
0.0191375
0.0103891
0.00322383
1.84362
1.55104
1.28342
1.04459
0.836592
0.659742
0.512743
0.393141
0.29788
0.223296
0.165975
0.122509
0.0897305
0.0650059
0.0462616
0.0317585
0.0202851
0.0110396
0.00343611
1.8427
1.54988
1.28275
1.04468
0.837465
0.661289
0.514786
0.39548
0.300333
0.225709
0.168236
0.124545
0.0914956
0.0664776
0.047435
0.0326382
0.0208841
0.011381
0.00354849
1.84271
1.5499
1.28277
1.0447
0.837488
0.661312
0.514807
0.3955
0.30035
0.225724
0.168249
0.124556
0.0915043
0.0664846
0.0474405
0.0326423
0.020887
0.0113827
0.00354908
1.84363
1.55108
1.28348
1.04466
0.83666
0.659809
0.512807
0.393201
0.297933
0.223342
0.166014
0.122541
0.0897565
0.0650268
0.0462779
0.0317708
0.0202937
0.0110448
0.0034379
1.84391
1.55104
1.2825
1.04248
0.833304
0.655491
0.507842
0.387928
0.29266
0.218318
0.161414
0.118473
0.0862769
0.0621568
0.0440093
0.0300822
0.0191508
0.010397
0.00322655
1.84411
1.55046
1.28041
1.03861
0.827756
0.648621
0.500133
0.379885
0.284725
0.210844
0.154638
0.112529
0.0812304
0.0580179
0.0407501
0.02766
0.0175096
0.00946354
0.0029211
1.84448
1.54988
1.27783
1.03365
0.820572
0.639704
0.490144
0.369504
0.274543
0.201319
0.146065
0.105068
0.0749414
0.0528937
0.0367367
0.0246886
0.0155
0.00832125
0.00254834
1.84605
1.55095
1.27648
1.02918
0.813115
0.629896
0.478857
0.357633
0.262853
0.190394
0.136276
0.0966008
0.0678564
0.0471643
0.0322806
0.0214089
0.0132917
0.00707008
0.00214262
1.8485
1.55327
1.27603
1.02497
0.805266
0.619213
0.466422
0.34454
0.250021
0.178503
0.125732
0.0875894
0.0604124
0.0412249
0.0277257
0.0181082
0.0111085
0.00585932
0.00176237
1.84856
1.54899
1.26543
1.00793
0.783028
0.593718
0.439771
0.318588
0.226138
0.157531
0.108008
0.073079
0.0488532
0.0322408
0.0209101
0.0131062
0.00764697
0.0037742
0.00101698
1.84541
1.53538
1.24044
0.972984
0.741187
0.548717
0.395177
0.277221
0.189808
0.127066
0.0834278
0.0538638
0.03422
0.021339
0.012956
0.00747901
0.00391457
0.001662
0.000344264
1.84153
1.51913
1.21102
0.93266
0.694058
0.499432
0.34786
0.234842
0.153981
0.0982303
0.0611527
0.0372297
0.0221529
0.0128141
0.0071067
0.00364868
0.00162163
0.000530459
5.17776e-05
1.83799
1.50331
1.18202
0.893088
0.648551
0.45302
0.304716
0.197659
0.123903
0.0751893
0.0442999
0.0253825
0.0141215
0.00757117
0.00384514
0.00177786
0.000699458
0.000203312
2.38427e-05
1.8353
1.48879
1.15433
0.855081
0.605356
0.409989
0.265991
0.165585
0.0991288
0.0571714
0.0318588
0.0171774
0.00894279
0.00445844
0.00209247
0.000891849
0.000328778
9.64995e-05
1.45823e-05
1.83493
1.47789
1.13037
0.820852
0.566314
0.37171
0.232516
0.138897
0.0794378
0.043585
0.0230158
0.0117169
0.00574192
0.00269064
0.00119129
0.000487486
0.000181689
6.00328e-05
1.21731e-05
1.83465
1.46774
1.10775
0.788765
0.530474
0.337647
0.203875
0.117093
0.0641736
0.0336495
0.0169514
0.00822776
0.00385083
0.00173468
0.000751139
0.000312178
0.000126188
4.84896e-05
1.18603e-05
1.83345
1.45664
1.08514
0.758283
0.497904
0.308077
0.180209
0.10002
0.0528999
0.0267623
0.0130268
0.00613256
0.00280476
0.00125207
0.000550658
0.000241046
0.000106184
4.45691e-05
1.15568e-05
1.83102
1.44383
1.06229
0.729847
0.469437
0.283755
0.161886
0.0876002
0.0452167
0.0223803
0.0107051
0.00498521
0.00227687
0.00102839
0.000465003
0.000212078
9.71647e-05
4.15305e-05
1.06449e-05
1.82582
1.42748
1.03806
0.703132
0.445103
0.26461
0.148531
0.0791976
0.0403884
0.0198204
0.00944209
0.00440113
0.00202218
0.000922924
0.000422525
0.000194347
8.86857e-05
3.71193e-05
9.12482e-06
1.81789
1.40835
1.01374
0.679315
0.425491
0.250523
0.139498
0.0739412
0.0375725
0.0184094
0.00876968
0.00408942
0.00187781
0.000854092
0.000387692
0.000175343
7.78468e-05
3.136e-05
7.27013e-06
1.81232
1.3999
1.00734
0.6768
0.426377
0.253308
0.142737
0.0767387
0.0396026
0.0197077
0.00952171
0.00449077
0.00207727
0.000947065
0.000428609
0.000192613
8.54748e-05
3.55937e-05
9.68193e-06
1.81125
1.40574
1.02288
0.699556
0.451504
0.2764
0.161255
0.0900651
0.0483824
0.0250769
0.0126109
0.00618182
0.00296591
0.00139936
0.000654074
0.000303608
0.000140038
6.19604e-05
1.90603e-05
1.81173
1.41524
1.04291
0.726682
0.480373
0.302449
0.181989
0.104985
0.0582657
0.0311809
0.0161706
0.00816261
0.00402673
0.00195087
0.000935399
0.000445305
0.00021079
9.57186e-05
2.99663e-05
1.81376
1.42737
1.06548
0.755786
0.51067
0.329564
0.20359
0.120646
0.0687698
0.0377755
0.0200923
0.0103937
0.00525103
0.00260446
0.0012785
0.000623544
0.000302666
0.00014084
4.49195e-05
1.81645
1.44009
1.08803
0.784271
0.540087
0.355908
0.224728
0.136159
0.0793456
0.0445466
0.0242093
0.012794
0.00660408
0.00334846
0.00168226
0.000841513
0.00042016
0.000201472
6.60986e-05
1.8184
1.45148
1.10849
0.810088
0.566778
0.379952
0.244225
0.150679
0.0894251
0.051137
0.0283124
0.0152503
0.00803049
0.00416039
0.0021417
0.0011029
0.00057058
0.000285182
9.78475e-05
1.82111
1.46329
1.12806
0.833867
0.590937
0.401601
0.261835
0.163915
0.0987428
0.0573411
0.0322619
0.0176795
0.00948944
0.00502757
0.00266142
0.00142205
0.000772614
0.000410002
0.000150463
1.82518
1.47548
1.1463
0.855031
0.611975
0.420297
0.277056
0.175445
0.106971
0.0629284
0.0359137
0.0200059
0.0109549
0.00595753
0.0032703
0.00184018
0.00107239
0.000618149
0.000247387
1.8281
1.48424
1.15941
0.870248
0.627172
0.433937
0.288336
0.184182
0.113394
0.0674622
0.0390306
0.0221284
0.0124145
0.00699372
0.00404586
0.00245386
0.00157249
0.0010008
0.000437892
1.8294
1.48893
1.16667
0.878817
0.635886
0.441972
0.295242
0.189813
0.117817
0.070856
0.041618
0.0241249
0.0140007
0.00830831
0.00518821
0.00347916
0.00248814
0.00174196
0.000817778
1.82993
1.4904
1.16872
0.881225
0.638535
0.44477
0.298097
0.192634
0.120526
0.0734035
0.0439888
0.0263344
0.0160807
0.0102955
0.00711463
0.0053442
0.00423127
0.00318285
0.0015577
1.82908
1.48732
1.16433
0.876681
0.63477
0.442335
0.297156
0.193062
0.12204
0.0756867
0.0467713
0.0294238
0.0193575
0.0136919
0.0105886
0.00881652
0.00752305
0.00590284
0.002935
1.8248
1.47757
1.15207
0.864496
0.624549
0.435114
0.293188
0.192054
0.123421
0.0788248
0.0511223
0.0345855
0.0250614
0.019765
0.016902
0.0151693
0.0135285
0.0108058
0.00536159
1.81885
1.46402
1.13514
0.847987
0.611156
0.426229
0.289078
0.192246
0.127082
0.0850654
0.0591871
0.0439191
0.035286
0.0306167
0.0281456
0.0264066
0.0240202
0.0192101
0.00940529
1.81245
1.44836
1.11599
0.830367
0.598305
0.419582
0.288694
0.197356
0.136574
0.097814
0.0742762
0.0606903
0.0532799
0.0494709
0.0474596
0.0454504
0.0414836
0.0328778
0.0157791
1.80238
1.42803
1.09424
0.813214
0.588916
0.418907
0.296215
0.211781
0.156387
0.121599
0.100938
0.0894638
0.0836005
0.0808106
0.0791233
0.0761636
0.0690784
0.053948
0.025308
1.79096
1.40926
1.07826
0.805655
0.592081
0.432895
0.319828
0.243237
0.193857
0.163475
0.146029
0.136939
0.132768
0.130877
0.128912
0.123583
0.110776
0.0850212
0.0389885
1.78347
1.40234
1.08039
0.820483
0.6203
0.473455
0.370799
0.302407
0.25919
0.233259
0.219032
0.212271
0.209532
0.207844
0.20418
0.193936
0.171376
0.129236
0.0581175
1.78388
1.41596
1.11161
0.869666
0.685888
0.552935
0.46137
0.401351
0.364226
0.342535
0.331212
0.326304
0.324154
0.321173
0.313327
0.294315
0.256462
0.19052
0.0846977
1.79821
1.46073
1.18433
0.966375
0.802321
0.684878
0.605011
0.553375
0.522033
0.504051
0.494894
0.490815
0.487705
0.481065
0.465555
0.432857
0.373098
0.27473
0.122655
1.83025
1.54298
1.30634
1.11954
0.979398
0.879693
0.812501
0.769433
0.74357
0.728639
0.720659
0.716035
0.710028
0.697042
0.670266
0.619179
0.531398
0.392219
0.180866
1.87815
1.66015
1.47605
1.3291
1.21856
1.14005
1.08743
1.05375
1.03349
1.02126
1.01375
1.00755
0.997379
0.976633
0.937184
0.866319
0.748605
0.564078
0.281133
1.93363
1.79933
1.68043
1.58351
1.51003
1.45778
1.42286
1.40039
1.38671
1.37772
1.37104
1.36383
1.3508
1.32519
1.27833
1.19587
1.05853
0.837028
0.479443
1.98429
1.94014
1.89753
1.86159
1.83404
1.81442
1.80141
1.79296
1.78776
1.78384
1.78026
1.77552
1.76619
1.74763
1.71305
1.64898
1.53257
1.31999
0.924198
)
;

boundaryField
{
    up
    {
        type            fixedValue;
        value           uniform 0;
    }
    low
    {
        type            fixedValue;
        value           uniform 2;
    }
    left
    {
        type            fixedValue;
        value           uniform 2;
    }
    right
    {
        type            fixedValue;
        value           uniform 2;
    }
    frontAndBackPlanes
    {
        type            empty;
    }
}


// ************************************************************************* //
