/*--------------------------------*- C++ -*----------------------------------*\
  =========                 |
  \\      /  F ield         | OpenFOAM: The Open Source CFD Toolbox
   \\    /   O peration     | Website:  https://openfoam.org
    \\  /    A nd           | Version:  7
     \\/     M anipulation  |
\*---------------------------------------------------------------------------*/
FoamFile
{
    version     2.0;
    format      ascii;
    class       volScalarField;
    location    "0.014";
    object      T;
}
// * * * * * * * * * * * * * * * * * * * * * * * * * * * * * * * * * * * * * //

dimensions      [0 0 0 1 0 0 0];

internalField   nonuniform List<scalar> 
1596
(
0.963512
0.878068
0.821471
0.79328
0.781348
0.776358
0.774004
0.772526
0.771907
0.771662
0.772521
0.774843
0.778143
0.781833
0.783965
0.776426
0.743277
0.655238
0.463842
0.866939
0.640825
0.506146
0.442644
0.416731
0.406497
0.402106
0.399841
0.399097
0.399277
0.401299
0.405649
0.412203
0.421062
0.431998
0.439182
0.429337
0.375103
0.23433
0.796959
0.485847
0.307758
0.225637
0.193013
0.180985
0.176481
0.174631
0.174202
0.174591
0.176384
0.179897
0.185213
0.192705
0.203127
0.214246
0.219243
0.199529
0.121773
0.764695
0.414343
0.214557
0.122176
0.0856177
0.0726127
0.0682031
0.0667129
0.0664116
0.0666652
0.0676892
0.0696139
0.072524
0.0766937
0.08286
0.0906881
0.0979619
0.0951932
0.0607995
0.758593
0.395291
0.183914
0.0839992
0.0437607
0.0294239
0.0247249
0.0232705
0.0229259
0.0229831
0.0234104
0.024224
0.0254576
0.0272329
0.0299579
0.0337978
0.0384833
0.0403374
0.0280018
0.765534
0.401988
0.182957
0.0757483
0.0311899
0.0149282
0.00955152
0.00790499
0.00745898
0.00738694
0.00751173
0.00779082
0.0082234
0.00884392
0.00981426
0.0112798
0.0134231
0.0152043
0.0116965
0.777483
0.419575
0.194614
0.0797606
0.0301151
0.0113633
0.00499476
0.00300909
0.00243797
0.00229186
0.00229475
0.00236973
0.00249896
0.00268466
0.00297511
0.00343038
0.00420276
0.0051232
0.00441128
0.790197
0.440576
0.211086
0.0886049
0.0333805
0.0117062
0.00409579
0.00165753
0.000933435
0.000731374
0.000687107
0.000694884
0.000726522
0.000775033
0.000850211
0.000967412
0.00119461
0.00155159
0.00150271
0.802636
0.46225
0.229378
0.0995656
0.0384936
0.0135511
0.00447068
0.0014678
0.000550302
0.000286452
0.000216306
0.000202056
0.000205424
0.0002159
0.000232938
0.00025789
0.000312643
0.000425022
0.000463405
0.811592
0.479415
0.244951
0.109601
0.0436096
0.015706
0.00520907
0.00163147
0.000508343
0.000177846
8.61577e-05
6.23622e-05
5.76023e-05
5.84372e-05
6.16511e-05
6.59167e-05
7.64631e-05
0.000105995
0.000129773
0.816413
0.490377
0.255862
0.117165
0.0477318
0.0175774
0.00593368
0.00186557
0.000558745
0.000166287
5.51594e-05
2.50443e-05
1.73319e-05
1.57152e-05
1.58846e-05
1.63458e-05
1.78045e-05
2.4295e-05
3.30997e-05
0.820587
0.498757
0.264182
0.123073
0.0510566
0.0191436
0.00657095
0.00209255
0.000627637
0.000180374
5.18349e-05
1.6451e-05
7.03287e-06
4.62482e-06
4.1067e-06
3.9924e-06
4.04167e-06
5.20918e-06
7.74097e-06
0.822646
0.502767
0.268306
0.126168
0.0529021
0.0200604
0.00696299
0.00224002
0.000676703
0.000194081
5.39873e-05
1.50808e-05
4.62056e-06
1.87353e-06
1.17684e-06
9.88721e-07
9.13591e-07
1.0678e-06
1.67453e-06
0.821218
0.50071
0.266933
0.125616
0.0527958
0.0200924
0.0070042
0.00226332
0.000686394
0.000197181
5.45296e-05
1.47575e-05
4.03006e-06
1.20239e-06
4.69925e-07
2.76445e-07
2.14045e-07
2.15599e-07
3.3838e-07
0.818266
0.494693
0.261502
0.122182
0.0510707
0.0193591
0.00672978
0.00217016
0.000656966
0.00018832
5.18762e-05
1.38967e-05
3.67322e-06
9.85621e-07
2.90075e-07
1.09001e-07
5.879e-08
4.56897e-08
6.50468e-08
0.814133
0.485494
0.252741
0.116365
0.0480037
0.01799
0.00619231
0.00197951
0.000594508
0.000169126
4.62271e-05
1.22696e-05
3.1957e-06
8.28459e-07
2.20564e-07
6.41062e-08
2.30947e-08
1.18126e-08
1.24255e-08
0.807782
0.472166
0.240262
0.108138
0.0436772
0.0160598
0.00543464
0.00171093
0.000506707
0.000142274
3.84015e-05
1.00649e-05
2.58561e-06
6.57944e-07
1.68909e-07
4.46797e-08
1.29042e-08
4.48414e-09
2.66237e-09
0.799613
0.455391
0.224872
0.0981697
0.0385152
0.0137884
0.00455432
0.0014027
0.000407183
0.000112227
2.97653e-05
7.67075e-06
1.93784e-06
4.84465e-07
1.21659e-07
3.0977e-08
8.21239e-09
2.35192e-09
7.91767e-10
0.791937
0.438261
0.209083
0.0880462
0.0333454
0.0115461
0.00369763
0.00110691
0.000312995
8.41852e-05
2.18195e-05
5.50042e-06
1.36012e-06
3.32888e-07
8.17674e-08
2.02811e-08
5.16548e-09
1.36877e-09
3.42703e-10
0.783414
0.419413
0.192239
0.077622
0.0282029
0.00938583
0.002896
0.000837475
0.000229336
5.9871e-05
1.50891e-05
3.70397e-06
8.92823e-07
2.13165e-07
5.10898e-08
1.23554e-08
3.05715e-09
7.78799e-10
1.751e-10
0.772517
0.397305
0.173628
0.0667304
0.0231034
0.00734386
0.00217051
0.000603055
0.000159127
4.0137e-05
9.79622e-06
2.33326e-06
5.46563e-07
1.26968e-07
2.96333e-08
6.98137e-09
1.68188e-09
4.1622e-10
8.97308e-11
0.76093
0.373722
0.154476
0.0560332
0.0183403
0.0055296
0.00155598
0.000413149
0.000104551
2.53733e-05
5.97551e-06
1.37666e-06
3.12575e-07
7.05016e-08
1.59976e-08
3.66789e-09
8.60424e-10
2.07389e-10
4.36315e-11
0.749997
0.350532
0.135998
0.0460846
0.0141062
0.00399378
0.00106092
0.000267363
6.45332e-05
1.50035e-05
3.39778e-06
7.55183e-07
1.65873e-07
3.62758e-08
7.99645e-09
1.78379e-09
4.07598e-10
9.57929e-11
1.97834e-11
0.74102
0.329782
0.119364
0.0372736
0.010464
0.00272122
0.000667751
0.000156654
3.54812e-05
7.79677e-06
1.67924e-06
3.56643e-07
7.51255e-08
1.5796e-08
3.35391e-09
7.21045e-10
1.58734e-10
3.56993e-11
6.79634e-12
0.740361
0.323643
0.113683
0.0341049
0.00913451
0.00226186
0.000530753
0.0001203
2.671e-05
5.8476e-06
1.27418e-06
2.77323e-07
6.04164e-08
1.32063e-08
2.91942e-09
6.51645e-10
1.47417e-10
3.28033e-11
4.97748e-12
0.746685
0.330547
0.117164
0.0352123
0.00934942
0.00226647
0.000514848
0.000112285
2.40631e-05
5.15995e-06
1.12812e-06
2.53568e-07
5.86383e-08
1.39037e-08
3.38109e-09
8.36894e-10
2.09676e-10
5.07858e-11
8.03003e-12
0.755315
0.344495
0.126377
0.0392592
0.0107001
0.00262646
0.000591729
0.000124557
2.50057e-05
4.91179e-06
9.83786e-07
2.09874e-07
4.91912e-08
1.26806e-08
3.52942e-09
1.02939e-09
3.06335e-10
8.65433e-11
1.56752e-11
0.765593
0.36534
0.142059
0.0470614
0.0136883
0.00356785
0.000843501
0.000182265
3.61724e-05
6.6132e-06
1.13199e-06
1.89996e-07
3.55755e-08
8.92193e-09
3.04074e-09
1.19545e-09
4.79038e-10
1.74549e-10
3.90591e-11
0.777324
0.391424
0.163361
0.0586343
0.0185653
0.00527549
0.0013583
0.000318284
6.77957e-05
1.29826e-05
2.1882e-06
3.07064e-07
3.14931e-08
2.0577e-09
9.67807e-10
1.07604e-09
7.79593e-10
4.20315e-10
1.28907e-10
0.78889
0.419323
0.187995
0.0731966
0.0252834
0.00786668
0.00222502
0.000574879
0.000135663
2.89541e-05
5.46621e-06
8.5107e-07
8.30373e-08
-7.12992e-09
-5.98594e-09
-1.02982e-09
7.78238e-10
9.44666e-10
4.475e-10
0.799665
0.446897
0.214195
0.0900343
0.0337838
0.0114743
0.00356038
0.00101547
0.000266851
6.4261e-05
1.39939e-05
2.63071e-06
3.63305e-07
1.48818e-09
-2.42772e-08
-1.1638e-08
-2.79868e-09
9.08878e-10
1.23623e-09
0.811548
0.475636
0.242652
0.109586
0.0444727
0.0164296
0.00557895
0.00175435
0.000513404
0.000139705
3.52019e-05
8.02443e-06
1.53987e-06
1.77705e-07
-3.91426e-08
-4.25236e-08
-2.15974e-08
-6.15489e-09
1.29815e-09
0.822706
0.503167
0.271612
0.131065
0.057268
0.022939
0.00850811
0.00294753
0.000960733
0.000295574
8.61399e-05
2.36443e-05
5.98187e-06
1.30035e-06
1.7555e-07
-4.68623e-08
-6.10744e-08
-3.68414e-08
-1.02557e-08
0.832571
0.52856
0.300157
0.153989
0.0721812
0.03128
0.0126615
0.0048339
0.00175687
0.000612012
0.000206334
6.77585e-05
2.17593e-05
6.83382e-06
2.08974e-06
5.9538e-07
1.35465e-07
3.58931e-09
-1.59505e-08
0.840418
0.549898
0.325669
0.175992
0.0876434
0.0406588
0.0177436
0.0073542
0.0029229
0.00112253
0.000421198
0.000155833
5.7324e-05
2.11415e-05
7.90372e-06
2.99264e-06
1.13125e-06
3.89262e-07
7.07072e-08
0.844079
0.561397
0.340542
0.189717
0.0979398
0.0473319
0.0216152
0.00941539
0.00394961
0.00160783
0.000642381
0.000254286
0.000100608
4.01491e-05
1.6358e-05
6.82074e-06
2.89226e-06
1.16628e-06
2.93869e-07
0.844313
0.56466
0.345882
0.195296
0.102521
0.0505423
0.0236193
0.0105616
0.00456309
0.0019196
0.000795452
0.00032784
0.000135584
5.67875e-05
2.4383e-05
1.07478e-05
4.82042e-06
2.04841e-06
5.43872e-07
0.844607
0.567374
0.350391
0.200169
0.106672
0.0535579
0.0255672
0.0117125
0.00519889
0.00225302
0.000964427
0.000411739
0.000176872
7.71529e-05
3.45851e-05
1.59384e-05
7.46587e-06
3.29912e-06
9.0932e-07
0.845492
0.570447
0.354819
0.20473
0.110496
0.0563327
0.0273735
0.0127943
0.00580744
0.00257919
0.00113391
0.000498282
0.000220791
9.95467e-05
4.6203e-05
2.20629e-05
1.06933e-05
4.8691e-06
1.38023e-06
0.846153
0.57274
0.358153
0.208208
0.113456
0.0585167
0.0288215
0.0136791
0.00631594
0.0028581
0.00128246
0.000576158
0.000261427
0.000120881
5.76088e-05
2.82568e-05
1.40471e-05
6.53772e-06
1.89095e-06
0.846455
0.573989
0.360113
0.210351
0.115342
0.0599465
0.0297923
0.0142856
0.00667215
0.00305773
0.00139113
0.000634414
0.000292532
0.000137599
6.67614e-05
3.33418e-05
1.68562e-05
7.95719e-06
2.33088e-06
0.8459
0.573666
0.36032
0.210912
0.115994
0.0605148
0.0302124
0.0145638
0.0068429
0.00315684
0.00144671
0.000665004
0.000309258
0.00014679
7.18973e-05
3.62488e-05
1.84878e-05
8.79198e-06
2.59246e-06
0.845905
0.573678
0.360334
0.210924
0.116003
0.0605208
0.030216
0.0145659
0.00684402
0.00315743
0.00144701
0.000665157
0.000309337
0.000146831
7.1919e-05
3.62607e-05
1.84943e-05
8.79532e-06
2.59355e-06
0.84647
0.574024
0.360153
0.210387
0.115368
0.0599642
0.029803
0.0142917
0.00667545
0.00305944
0.00139201
0.000634858
0.000292757
0.000137715
6.68226e-05
3.3375e-05
1.68743e-05
7.96646e-06
2.33388e-06
0.846177
0.572796
0.358218
0.208265
0.113499
0.0585447
0.0288383
0.0136885
0.006321
0.00286071
0.00128377
0.000576814
0.000261755
0.000121046
5.76948e-05
2.83026e-05
1.40717e-05
6.55015e-06
1.89491e-06
0.845525
0.570522
0.354906
0.204807
0.110553
0.0563696
0.0273954
0.0128065
0.00581383
0.00258242
0.00113551
0.00049906
0.00022117
9.97339e-05
4.62976e-05
2.21118e-05
1.0719e-05
4.8818e-06
1.3842e-06
0.844648
0.567469
0.3505
0.200264
0.106741
0.0536021
0.0255931
0.0117265
0.00520612
0.00225659
0.000966142
0.000412552
0.000177257
7.73364e-05
3.46747e-05
1.59832e-05
7.48865e-06
3.31007e-06
9.12665e-07
0.844362
0.564773
0.346011
0.195407
0.1026
0.0505921
0.0236477
0.0105766
0.0045706
0.00192318
0.000797115
0.0003286
0.00013593
5.69461e-05
2.44576e-05
1.07839e-05
4.83818e-06
2.05676e-06
5.46389e-07
0.844136
0.56153
0.340693
0.189845
0.098029
0.0473866
0.0216454
0.00943082
0.00395703
0.00161123
0.000643898
0.000254955
0.000100903
4.02815e-05
1.64191e-05
6.84986e-06
2.90649e-06
1.17301e-06
2.95978e-07
0.840493
0.550093
0.3259
0.176191
0.0877839
0.0407445
0.0177904
0.00737751
0.00293374
0.00112731
0.000423239
0.000156687
5.76789e-05
2.12897e-05
7.96663e-06
3.01989e-06
1.14327e-06
3.94384e-07
7.21168e-08
0.832664
0.528783
0.300404
0.154189
0.0723138
0.0313559
0.0127003
0.00485202
0.00176479
0.000615298
0.000207652
6.82751e-05
2.19579e-05
6.9083e-06
2.11649e-06
6.03976e-07
1.3735e-07
3.13748e-09
-1.66813e-08
0.822793
0.50337
0.271826
0.131227
0.0573679
0.0229916
0.00853257
0.00295787
0.000964779
0.000297056
8.66521e-05
2.38086e-05
6.02784e-06
1.30877e-06
1.73583e-07
-5.07044e-08
-6.44204e-08
-3.92001e-08
-1.13183e-08
0.811634
0.475832
0.242847
0.109725
0.0445516
0.0164677
0.00559517
0.00176056
0.000515585
0.000140409
3.54092e-05
8.07659e-06
1.54832e-06
1.76015e-07
-4.19656e-08
-4.45956e-08
-2.27867e-08
-6.5848e-09
1.36048e-09
0.799751
0.447084
0.21437
0.0901494
0.0338441
0.011501
0.00357074
0.00101907
0.000267983
6.45825e-05
1.40739e-05
2.64617e-06
3.64329e-07
5.24328e-10
-2.48724e-08
-1.17725e-08
-2.66416e-09
1.22669e-09
1.54688e-09
0.788975
0.419497
0.188147
0.0732894
0.0253281
0.00788475
0.0022314
0.000576884
0.000136229
2.90949e-05
5.49559e-06
8.55386e-07
8.31998e-08
-7.0863e-09
-5.69935e-09
-6.66876e-10
1.10991e-09
1.23427e-09
6.38293e-10
0.777405
0.391581
0.163489
0.0587058
0.0185967
0.00528708
0.00136202
0.000319342
6.80615e-05
1.30399e-05
2.19787e-06
3.0809e-07
3.16632e-08
2.36433e-09
1.32196e-09
1.37157e-09
9.90713e-10
5.65485e-10
2.07532e-10
0.765668
0.365477
0.142162
0.0471138
0.0137093
0.00357491
0.000845559
0.000182791
3.62887e-05
6.63399e-06
1.1345e-06
1.90152e-07
3.5755e-08
9.18228e-09
3.26853e-09
1.35443e-09
5.7708e-10
2.31872e-10
6.55994e-11
0.755381
0.344607
0.126456
0.0392961
0.0107137
0.00263065
0.000592844
0.000124813
2.50546e-05
4.9187e-06
9.84298e-07
2.09958e-07
4.93714e-08
1.28563e-08
3.65213e-09
1.10244e-09
3.45645e-10
1.06435e-10
2.36518e-11
0.746739
0.330635
0.117222
0.035238
0.00935831
0.00226904
0.000515479
0.000112416
2.40847e-05
5.16244e-06
1.12832e-06
2.53711e-07
5.87862e-08
1.40064e-08
3.43932e-09
8.66465e-10
2.23522e-10
5.68742e-11
1.01627e-11
0.740374
0.323665
0.113695
0.0341095
0.00913575
0.00226208
0.000530758
0.000120282
2.67003e-05
5.84426e-06
1.27335e-06
2.77201e-07
6.04391e-08
1.32357e-08
2.93663e-09
6.59874e-10
1.50927e-10
3.41896e-11
5.43912e-12
0.741005
0.329757
0.119344
0.0372625
0.0104593
0.00271952
0.000667201
0.000156488
3.54337e-05
7.78373e-06
1.67579e-06
3.55765e-07
7.49092e-08
1.57449e-08
3.34248e-09
7.18731e-10
1.5834e-10
3.56655e-11
6.82794e-12
0.749997
0.350533
0.135998
0.046085
0.0141065
0.00399391
0.00106097
0.000267376
6.45341e-05
1.50023e-05
3.39697e-06
7.54816e-07
1.65736e-07
3.62308e-08
7.98261e-09
1.77975e-09
4.06447e-10
9.54718e-11
1.97114e-11
0.76093
0.373723
0.154476
0.0560331
0.0183403
0.00552967
0.00155603
0.000413168
0.000104555
2.53733e-05
5.97502e-06
1.37636e-06
3.12442e-07
7.04536e-08
1.59817e-08
3.66294e-09
8.58916e-10
2.06936e-10
4.35166e-11
0.772517
0.397306
0.173628
0.0667301
0.0231033
0.00734388
0.00217055
0.000603079
0.000159136
4.01394e-05
9.7967e-06
2.3333e-06
5.4654e-07
1.26953e-07
2.96268e-08
6.97898e-09
1.68104e-09
4.1592e-10
8.96256e-11
0.783414
0.419413
0.192239
0.0776218
0.0282028
0.0093858
0.00289603
0.000837502
0.000229351
5.98776e-05
1.50916e-05
3.70484e-06
8.931e-07
2.1325e-07
5.11151e-08
1.23627e-08
3.059e-09
7.79133e-10
1.75017e-10
0.791937
0.438261
0.209083
0.0880461
0.0333452
0.0115461
0.00369763
0.00110694
0.000313018
8.41979e-05
2.18253e-05
5.50272e-06
1.36094e-06
3.33165e-07
8.18565e-08
2.03081e-08
5.17202e-09
1.3696e-09
3.42169e-10
0.799613
0.455391
0.224873
0.0981697
0.0385149
0.0137882
0.00455429
0.00140273
0.000407218
0.000112248
2.97757e-05
7.67506e-06
1.93945e-06
4.85026e-07
1.21844e-07
3.10301e-08
8.2181e-09
2.34802e-09
7.88356e-10
0.807783
0.472167
0.240263
0.108138
0.0436769
0.0160596
0.00543461
0.00171098
0.000506756
0.000142305
3.84167e-05
1.00713e-05
2.58806e-06
6.58813e-07
1.69191e-07
4.4733e-08
1.28593e-08
4.4476e-09
2.65079e-09
0.814134
0.485495
0.252742
0.116365
0.0480035
0.0179898
0.00619229
0.00197957
0.000594562
0.000169161
4.62445e-05
1.22771e-05
3.19859e-06
8.29495e-07
2.20849e-07
6.398e-08
2.27436e-08
1.16427e-08
1.24242e-08
0.818266
0.494694
0.261503
0.122182
0.0510707
0.019359
0.00672978
0.00217021
0.000657015
0.000188351
5.18913e-05
1.39032e-05
3.67577e-06
9.86515e-07
2.89982e-07
1.07853e-07
5.70417e-08
4.51596e-08
6.53293e-08
0.821218
0.500711
0.266934
0.125616
0.0527959
0.0200924
0.00700426
0.00226337
0.000686431
0.0001972
5.45379e-05
1.47609e-05
4.03151e-06
1.20266e-06
4.67962e-07
2.70767e-07
2.06918e-07
2.14828e-07
3.40713e-07
0.822647
0.502768
0.268306
0.126169
0.0529024
0.0200606
0.00696311
0.00224006
0.000676713
0.000194079
5.39841e-05
1.50795e-05
4.62063e-06
1.87184e-06
1.16703e-06
9.65808e-07
8.89148e-07
1.07119e-06
1.68703e-06
0.820587
0.498757
0.264183
0.123073
0.0510573
0.019144
0.00657111
0.00209257
0.00062761
0.000180348
5.182e-05
1.64464e-05
7.03224e-06
4.61554e-06
4.06797e-06
3.91412e-06
3.97293e-06
5.24298e-06
7.79213e-06
0.816414
0.490378
0.255863
0.117166
0.0477327
0.017578
0.00593386
0.00186557
0.000558696
0.000166248
5.51417e-05
2.50423e-05
1.73294e-05
1.56763e-05
1.57558e-05
1.61225e-05
1.76556e-05
2.44597e-05
3.32656e-05
0.811592
0.479416
0.244953
0.109602
0.0436106
0.0157066
0.00520922
0.00163144
0.000508282
0.000177807
8.61473e-05
6.23663e-05
5.75805e-05
5.83021e-05
6.12975e-05
6.54055e-05
7.62581e-05
0.000106563
0.000130197
0.802636
0.462251
0.229379
0.0995667
0.0384945
0.0135515
0.00447073
0.00146773
0.000550236
0.000286422
0.000216306
0.000202051
0.000205321
0.00021553
0.000232172
0.000257026
0.000312655
0.000426476
0.000464221
0.790198
0.440576
0.211087
0.0886058
0.033381
0.0117063
0.00409574
0.00165745
0.000933382
0.000731358
0.0006871
0.000694811
0.000726218
0.000774268
0.000849005
0.000966569
0.00119554
0.00155427
0.00150375
0.777483
0.419576
0.194615
0.0797611
0.0301152
0.0113632
0.00499465
0.00300901
0.00243793
0.00229183
0.00229467
0.00236949
0.00249834
0.00268357
0.00297406
0.00343074
0.00420542
0.00512619
0.00441164
0.765535
0.401989
0.182957
0.0757483
0.0311897
0.014928
0.00955134
0.00790486
0.00745887
0.0073868
0.00751149
0.00779035
0.00822263
0.00884323
0.00981485
0.0112829
0.0134268
0.0152042
0.0116947
0.758593
0.395291
0.183914
0.0839989
0.0437602
0.0294235
0.0247246
0.0232702
0.0229256
0.0229827
0.0234099
0.0242234
0.0254574
0.0272339
0.0299614
0.0338029
0.0384844
0.0403301
0.0279976
0.764695
0.414343
0.214556
0.122175
0.0856168
0.0726119
0.0682024
0.0667123
0.066411
0.0666646
0.0676886
0.0696137
0.0725248
0.0766967
0.082865
0.0906908
0.097956
0.0951804
0.0607959
0.796959
0.485846
0.307757
0.225636
0.193011
0.180984
0.17648
0.17463
0.174201
0.17459
0.176384
0.179897
0.185214
0.192707
0.203128
0.214242
0.219233
0.199523
0.121774
0.866939
0.640824
0.506145
0.442643
0.41673
0.406496
0.402105
0.39984
0.399096
0.399277
0.401299
0.405649
0.412203
0.421061
0.431994
0.439175
0.429335
0.375113
0.234334
0.963512
0.878068
0.821471
0.793279
0.781348
0.776357
0.774004
0.772526
0.771907
0.771661
0.772521
0.774843
0.778142
0.781831
0.783962
0.776425
0.743279
0.655244
0.463842
)
;

boundaryField
{
    up
    {
        type            fixedValue;
        value           uniform 0;
    }
    low
    {
        type            fixedValue;
        value           uniform 1;
    }
    left
    {
        type            fixedValue;
        value           uniform 1;
    }
    right
    {
        type            fixedValue;
        value           uniform 1;
    }
    frontAndBackPlanes
    {
        type            empty;
    }
}


// ************************************************************************* //
