/*--------------------------------*- C++ -*----------------------------------*\
  =========                 |
  \\      /  F ield         | OpenFOAM: The Open Source CFD Toolbox
   \\    /   O peration     | Website:  https://openfoam.org
    \\  /    A nd           | Version:  7
     \\/     M anipulation  |
\*---------------------------------------------------------------------------*/
FoamFile
{
    version     2.0;
    format      ascii;
    class       volScalarField;
    location    "0.384";
    object      T;
}
// * * * * * * * * * * * * * * * * * * * * * * * * * * * * * * * * * * * * * //

dimensions      [0 0 0 1 0 0 0];

internalField   nonuniform List<scalar> 
1596
(
4.9893
4.95849
4.92657
4.89562
4.86601
4.83718
4.80845
4.77842
4.74611
4.70927
4.66612
4.61433
4.54826
4.45975
4.33582
4.14708
3.8384
3.2995
2.30952
4.95367
4.85759
4.76572
4.67917
4.59726
4.51825
4.44021
4.36023
4.27594
4.18325
4.07878
3.95852
3.81447
3.63644
3.41137
3.11357
2.70264
2.10852
1.19852
4.91146
4.74971
4.60222
4.46626
4.33908
4.21766
4.09901
3.97941
3.85572
3.72324
3.57818
3.41625
3.22984
3.00997
2.74646
2.42067
2.00619
1.46163
0.709417
4.8697
4.64638
4.44875
4.26949
4.10364
3.94692
3.79554
3.64532
3.49274
3.33305
3.16253
2.97717
2.7704
2.53499
2.2636
1.94327
1.5573
1.08175
0.471503
4.83498
4.55838
4.31697
4.10023
3.9014
3.71528
3.53751
3.36363
3.18999
3.01193
2.82596
2.62845
2.41379
2.17624
1.91052
1.60756
1.25671
0.844096
0.343099
4.8116
4.49311
4.21494
3.96599
3.73883
3.52778
3.32816
3.13541
2.94585
2.75496
2.55946
2.35602
2.13978
1.90601
1.65081
1.36759
1.04933
0.687884
0.267069
4.80024
4.45269
4.14523
3.86901
3.61724
3.38446
3.16598
2.95731
2.7548
2.55411
2.35212
2.14568
1.93044
1.70236
1.45835
1.19338
0.902599
0.581073
0.2186
4.79844
4.43423
4.10511
3.80642
3.53329
3.28114
3.04571
2.82279
2.60886
2.39976
2.19251
1.98409
1.77046
1.54802
1.31413
1.06472
0.796213
0.505511
0.185873
4.80377
4.4336
4.09003
3.77348
3.4819
3.21227
2.96115
2.72483
2.5001
2.28302
2.07073
1.86031
1.64793
1.43022
1.20478
0.96812
0.717386
0.450525
0.162817
4.81104
4.44203
4.09034
3.76056
3.45364
3.16852
2.90295
2.65397
2.41883
2.19391
1.97652
1.76381
1.5521
1.33815
1.11966
0.893439
0.657056
0.409015
0.145828
4.81711
4.45237
4.09715
3.75829
3.43923
3.14084
2.86229
2.60156
2.35651
2.12396
1.90144
1.68622
1.47472
1.26377
1.0511
0.833645
0.609183
0.37648
0.132775
4.82463
4.46627
4.11029
3.76521
3.43639
3.12649
2.83611
2.56428
2.30963
2.06946
1.84162
1.62353
1.41171
1.20302
0.995132
0.785035
0.570543
0.350497
0.122526
4.8319
4.48107
4.12623
3.77705
3.44044
3.12061
2.81951
2.53729
2.27339
2.02572
1.79248
1.57129
1.35878
1.15182
0.947984
0.744237
0.538331
0.329047
0.114202
4.83675
4.49268
4.13992
3.7883
3.44566
3.11745
2.80689
2.51519
2.24265
1.98784
1.74938
1.52513
1.31185
1.10642
0.906311
0.708377
0.51025
0.310555
0.107152
4.84101
4.5026
4.15195
3.79865
3.45108
3.11562
2.79654
2.49608
2.2154
1.95376
1.71024
1.48299
1.26891
1.06492
0.868334
0.675886
0.485017
0.294125
0.100996
4.84516
4.5118
4.16299
3.80827
3.45633
3.11429
2.78733
2.47862
2.19016
1.92189
1.67342
1.44322
1.22835
1.02574
0.832617
0.645505
0.461614
0.279051
0.0954461
4.84828
4.51914
4.17185
3.81575
3.45981
3.11169
2.77736
2.46085
2.16495
1.8903
1.63703
1.40396
1.18838
0.98726
0.79768
0.615973
0.439055
0.26468
0.090248
4.85069
4.52492
4.17871
3.82115
3.46134
3.10742
2.76603
2.442
2.13887
1.85797
1.59997
1.36409
1.14786
0.94831
0.762434
0.586336
0.416589
0.250521
0.0852131
4.85442
4.53229
4.18696
3.82768
3.4638
3.10393
2.75537
2.42366
2.11309
1.82569
1.56269
1.32371
1.10659
0.908487
0.726327
0.556003
0.393706
0.236235
0.0802199
4.85871
4.54089
4.19656
3.83545
3.46731
3.10129
2.7453
2.40563
2.08729
1.79299
1.52455
1.28205
1.06365
0.866725
0.688207
0.523847
0.36946
0.221212
0.0750714
4.862
4.54836
4.20514
3.84224
3.46983
3.09759
2.73407
2.38627
2.0599
1.75837
1.48408
1.2376
1.0175
0.821402
0.646376
0.488174
0.342362
0.20445
0.0694477
4.86516
4.55541
4.21321
3.84847
3.4717
3.09308
2.72182
2.36558
2.03077
1.7215
1.44076
1.18965
0.967164
0.771249
0.599231
0.447072
0.310405
0.18436
0.062795
4.86861
4.56266
4.22129
3.8545
3.47314
3.08788
2.70853
2.34341
1.99961
1.68189
1.39389
1.13725
0.911431
0.71473
0.544786
0.397957
0.270412
0.157763
0.0535864
4.8721
4.56971
4.22876
3.85949
3.47314
3.08087
2.69303
2.31856
1.96513
1.63818
1.34198
1.07876
0.848475
0.649788
0.480594
0.337616
0.217826
0.118396
0.0358333
4.87742
4.58319
4.24839
3.88319
3.49876
3.10625
2.71609
2.33741
1.97818
1.64428
1.34065
1.07026
0.833756
0.630335
0.458232
0.314291
0.19573
0.100493
0.0269383
4.88315
4.59993
4.27581
3.92057
3.54481
3.15915
2.77359
2.39692
2.03701
1.6999
1.39092
1.11381
0.870104
0.659836
0.481765
0.332839
0.209899
0.110223
0.031163
4.88579
4.60896
4.29212
3.94456
3.57635
3.19748
2.81734
2.44417
2.08544
1.74704
1.43442
1.15185
0.901695
0.684929
0.501076
0.347381
0.220503
0.117208
0.0340904
4.88534
4.60997
4.29669
3.95433
3.59235
3.22002
2.84597
2.47771
2.12204
1.78441
1.47007
1.18356
0.927915
0.705121
0.515721
0.357556
0.227325
0.121409
0.035788
4.88275
4.60498
4.29234
3.95328
3.5966
3.23075
2.86346
2.50138
2.15047
1.81548
1.50123
1.21219
0.951842
0.723133
0.527901
0.365006
0.231547
0.123639
0.0366373
4.87815
4.59527
4.2815
3.94473
3.593
3.23389
2.87416
2.51947
2.17488
1.84431
1.5319
1.24174
0.97739
0.742569
0.540561
0.371792
0.2344
0.12456
0.036891
4.87226
4.58308
4.26753
3.93281
3.58619
3.23433
2.88298
2.53683
2.19999
1.8755
1.56671
1.27702
1.00961
0.768491
0.558217
0.381238
0.237753
0.124931
0.0367598
4.86708
4.57186
4.25464
3.92222
3.58114
3.23711
2.89493
2.55831
2.23052
1.91374
1.6105
1.32333
1.05458
0.807786
0.587996
0.399493
0.245504
0.126145
0.0363252
4.8618
4.56069
4.24227
3.91286
3.57814
3.2429
2.91098
2.5852
2.26805
1.96102
1.6659
1.38441
1.11781
0.86839
0.64036
0.438327
0.267928
0.133839
0.035774
4.8563
4.54978
4.23107
3.90576
3.5786
3.25338
2.93301
2.61953
2.3148
2.01976
1.73574
1.46392
1.20467
0.958945
0.729097
0.517847
0.329946
0.172017
0.0482881
4.84988
4.5364
4.21573
3.89271
3.57113
3.25384
2.94293
2.63979
2.34579
2.0615
1.78804
1.52638
1.27661
1.03906
0.814727
0.603916
0.407819
0.229605
0.0720251
4.84003
4.5133
4.18448
3.85739
3.53479
3.21867
2.91041
2.61086
2.32096
2.04099
1.77189
1.51454
1.26904
1.03581
0.815922
0.609527
0.417175
0.240225
0.0784199
4.82759
4.48376
4.14341
3.80885
3.48175
3.16323
2.85405
2.55453
2.26529
1.98634
1.71852
1.4627
1.21904
0.988171
0.771593
0.569974
0.38462
0.217697
0.0695096
4.81657
4.45781
4.10752
3.76661
3.43574
3.11534
2.80558
2.5064
2.21816
1.94068
1.67475
1.42124
1.18039
0.952946
0.740581
0.544085
0.36486
0.205086
0.0650056
4.80807
4.43732
4.07887
3.7327
3.39871
3.07675
2.76657
2.46778
2.18053
1.90452
1.64047
1.38926
1.15112
0.926854
0.718156
0.525828
0.351264
0.196624
0.0620981
4.80138
4.42125
4.05648
3.70626
3.36992
3.04684
2.73643
2.43807
2.15175
1.87705
1.61464
1.36539
1.12952
0.907807
0.701962
0.512773
0.341624
0.190672
0.0600816
4.7965
4.40961
4.04038
3.68741
3.34952
3.02576
2.7153
2.41734
2.13178
1.85809
1.59692
1.34912
1.11487
0.894937
0.691052
0.503986
0.335125
0.186645
0.0587127
4.79294
4.40199
4.03043
3.67616
3.33766
3.01375
2.70345
2.40588
2.12087
1.84786
1.58749
1.34056
1.10726
0.888354
0.685551
0.499621
0.331945
0.184704
0.0580693
4.79295
4.40201
4.03045
3.67619
3.33769
3.01377
2.70348
2.40591
2.1209
1.84789
1.58751
1.34058
1.10728
0.888367
0.685562
0.49963
0.331951
0.184708
0.0580705
4.79652
4.40965
4.04044
3.68748
3.34959
3.02584
2.71538
2.41742
2.13185
1.85815
1.59698
1.34917
1.11492
0.894981
0.691089
0.504016
0.335146
0.186658
0.0587174
4.80141
4.42132
4.05657
3.70637
3.37004
3.04696
2.73655
2.43819
2.15186
1.87715
1.61474
1.36548
1.1296
0.907872
0.702015
0.512815
0.341653
0.190689
0.0600875
4.80811
4.43741
4.07899
3.73284
3.39887
3.07691
2.76673
2.46793
2.18068
1.90465
1.64059
1.38936
1.15122
0.926932
0.718219
0.525876
0.351297
0.196643
0.0621043
4.81662
4.45792
4.10767
3.76678
3.43593
3.11554
2.80577
2.50659
2.21834
1.94084
1.67489
1.42136
1.18049
0.953031
0.740647
0.544133
0.364892
0.205104
0.0650107
4.82764
4.48388
4.14358
3.80905
3.48196
3.16346
2.85427
2.55474
2.26549
1.98652
1.71868
1.46283
1.21914
0.988247
0.771645
0.570003
0.384633
0.217698
0.0695071
4.84009
4.51343
4.18467
3.85761
3.53503
3.21892
2.91066
2.61109
2.32117
2.04117
1.77204
1.51465
1.26911
1.03584
0.81591
0.60948
0.417108
0.240161
0.0783884
4.84994
4.53659
4.21603
3.89311
3.57161
3.25439
2.94353
2.64044
2.34647
2.06221
1.78878
1.52713
1.27737
1.03983
0.815502
0.604676
0.408521
0.230153
0.0722695
4.85638
4.55001
4.23144
3.90625
3.57921
3.25409
2.93381
2.62041
2.31575
2.02076
1.73679
1.465
1.20578
0.960051
0.730166
0.51882
0.330743
0.172549
0.048484
4.86186
4.56088
4.24258
3.91328
3.57866
3.24352
2.91167
2.58596
2.26887
1.96187
1.66678
1.3853
1.11868
0.869212
0.64109
0.438912
0.268325
0.134037
0.035811
4.86714
4.57203
4.25492
3.92261
3.58162
3.23768
2.89557
2.55902
2.23127
1.91452
1.61129
1.3241
1.05532
0.808446
0.588541
0.399895
0.245755
0.126267
0.0363568
4.87231
4.58323
4.26778
3.93316
3.58664
3.23486
2.88358
2.53749
2.20069
1.87622
1.56742
1.2777
1.01024
0.769029
0.558644
0.381543
0.237944
0.12503
0.0367885
4.87819
4.5954
4.28173
3.94505
3.59341
3.23438
2.87471
2.52007
2.17552
1.84495
1.53254
1.24234
0.977928
0.743022
0.540913
0.372043
0.234561
0.124647
0.0369181
4.88278
4.6051
4.29255
3.95358
3.59697
3.2312
2.86398
2.50194
2.15105
1.81607
1.5018
1.21272
0.952311
0.723523
0.528204
0.365226
0.231692
0.123722
0.036664
4.88537
4.61007
4.29687
3.95459
3.59269
3.22043
2.84643
2.47821
2.12257
1.78494
1.47058
1.18403
0.928328
0.705464
0.515991
0.357756
0.227462
0.12149
0.035816
4.88582
4.60905
4.29228
3.9448
3.57666
3.19785
2.81776
2.44463
2.08592
1.74752
1.43488
1.15227
0.902063
0.685238
0.501323
0.347571
0.220638
0.117292
0.0341218
4.88317
4.6
4.27595
3.92077
3.54507
3.15947
2.77396
2.39733
2.03743
1.70032
1.39132
1.11418
0.870437
0.66012
0.481999
0.333025
0.210039
0.110315
0.0312012
4.87742
4.5832
4.24841
3.88324
3.49882
3.10632
2.71618
2.3375
1.97827
1.64436
1.34072
1.07031
0.833787
0.630345
0.458225
0.314272
0.195705
0.100469
0.0269268
4.87209
4.56969
4.22871
3.85943
3.47306
3.08078
2.69292
2.31845
1.96501
1.63806
1.34186
1.07864
0.848355
0.649673
0.480488
0.337522
0.217748
0.118342
0.0358098
4.86861
4.56265
4.22128
3.85448
3.47311
3.08785
2.7085
2.34339
1.99958
1.68187
1.39387
1.13724
0.911424
0.714728
0.544789
0.397962
0.270419
0.157769
0.0535887
4.86516
4.5554
4.2132
3.84845
3.47168
3.09306
2.7218
2.36556
2.03075
1.72148
1.44075
1.18965
0.967161
0.771249
0.599234
0.447076
0.310409
0.184363
0.0627959
4.862
4.54835
4.20513
3.84222
3.46982
3.09757
2.73405
2.38625
2.05988
1.75836
1.48407
1.2376
1.0175
0.821403
0.646378
0.488177
0.342365
0.204451
0.0694482
4.85871
4.54089
4.19655
3.83544
3.4673
3.10128
2.74529
2.40562
2.08728
1.79299
1.52455
1.28205
1.06365
0.866727
0.688209
0.523849
0.369461
0.221213
0.0750718
4.85442
4.53229
4.18695
3.82767
3.46379
3.10393
2.75536
2.42365
2.11309
1.82569
1.56269
1.32371
1.10659
0.908489
0.726329
0.556004
0.393707
0.236236
0.0802202
4.85069
4.52492
4.17871
3.82115
3.46133
3.10741
2.76603
2.442
2.13886
1.85797
1.59997
1.36409
1.14786
0.948311
0.762435
0.586337
0.41659
0.250521
0.0852132
4.84828
4.51914
4.17184
3.81575
3.45981
3.11169
2.77736
2.46085
2.16495
1.8903
1.63703
1.40396
1.18838
0.987261
0.797681
0.615974
0.439055
0.26468
0.0902481
4.84516
4.5118
4.16299
3.80826
3.45633
3.11429
2.78733
2.47862
2.19016
1.92189
1.67342
1.44322
1.22835
1.02574
0.832618
0.645506
0.461614
0.279051
0.0954462
4.84101
4.5026
4.15195
3.79865
3.45108
3.11562
2.79654
2.49608
2.2154
1.95376
1.71024
1.48299
1.26891
1.06492
0.868334
0.675886
0.485017
0.294125
0.100996
4.83675
4.49268
4.13992
3.7883
3.44566
3.11745
2.80689
2.51519
2.24265
1.98784
1.74938
1.52513
1.31185
1.10642
0.906311
0.708377
0.51025
0.310555
0.107152
4.83191
4.48107
4.12623
3.77705
3.44044
3.12061
2.81951
2.53729
2.27339
2.02572
1.79248
1.57129
1.35877
1.15182
0.947984
0.744237
0.538331
0.329047
0.114203
4.82463
4.46627
4.11029
3.76521
3.43639
3.12649
2.83611
2.56428
2.30963
2.06946
1.84162
1.62353
1.41171
1.20302
0.995132
0.785035
0.570543
0.350497
0.122526
4.81711
4.45237
4.09715
3.75829
3.43923
3.14084
2.86229
2.60156
2.35651
2.12396
1.90144
1.68622
1.47472
1.26377
1.0511
0.833646
0.609183
0.37648
0.132776
4.81104
4.44203
4.09034
3.76056
3.45364
3.16852
2.90295
2.65397
2.41883
2.19391
1.97652
1.76381
1.5521
1.33815
1.11966
0.893439
0.657056
0.409016
0.145828
4.80377
4.4336
4.09003
3.77348
3.4819
3.21227
2.96115
2.72483
2.50009
2.28302
2.07073
1.86031
1.64793
1.43022
1.20478
0.96812
0.717387
0.450526
0.162818
4.79844
4.43423
4.10511
3.80642
3.53328
3.28114
3.04571
2.82279
2.60885
2.39976
2.19251
1.98409
1.77046
1.54802
1.31413
1.06472
0.796213
0.505512
0.185873
4.80024
4.45269
4.14523
3.86901
3.61724
3.38446
3.16597
2.95731
2.7548
2.55411
2.35212
2.14568
1.93044
1.70236
1.45835
1.19338
0.902599
0.581073
0.2186
4.8116
4.49311
4.21494
3.96599
3.73882
3.52778
3.32815
3.13541
2.94584
2.75495
2.55946
2.35602
2.13977
1.90601
1.65081
1.36759
1.04933
0.687884
0.267069
4.83497
4.55838
4.31697
4.10022
3.90139
3.71528
3.5375
3.36362
3.18998
3.01192
2.82596
2.62845
2.41379
2.17624
1.91052
1.60756
1.25671
0.844096
0.343099
4.8697
4.64638
4.44875
4.26949
4.10364
3.94692
3.79554
3.64531
3.49274
3.33305
3.16253
2.97717
2.7704
2.53499
2.2636
1.94327
1.5573
1.08175
0.471502
4.91146
4.7497
4.60222
4.46625
4.33908
4.21766
4.099
3.9794
3.85571
3.72323
3.57817
3.41625
3.22984
3.00997
2.74646
2.42067
2.00619
1.46163
0.709417
4.95367
4.85759
4.76572
4.67917
4.59726
4.51825
4.44021
4.36023
4.27594
4.18324
4.07878
3.95852
3.81447
3.63644
3.41136
3.11357
2.70264
2.10852
1.19852
4.9893
4.95849
4.92657
4.89562
4.86601
4.83718
4.80845
4.77842
4.74611
4.70927
4.66612
4.61433
4.54826
4.45975
4.33582
4.14708
3.8384
3.2995
2.30952
)
;

boundaryField
{
    up
    {
        type            fixedValue;
        value           uniform 0;
    }
    low
    {
        type            fixedValue;
        value           uniform 5;
    }
    left
    {
        type            fixedValue;
        value           uniform 5;
    }
    right
    {
        type            fixedValue;
        value           uniform 5;
    }
    frontAndBackPlanes
    {
        type            empty;
    }
}


// ************************************************************************* //
