/*--------------------------------*- C++ -*----------------------------------*\
  =========                 |
  \\      /  F ield         | OpenFOAM: The Open Source CFD Toolbox
   \\    /   O peration     | Website:  https://openfoam.org
    \\  /    A nd           | Version:  7
     \\/     M anipulation  |
\*---------------------------------------------------------------------------*/
FoamFile
{
    version     2.0;
    format      ascii;
    class       volScalarField;
    location    "0.22";
    object      gradTy;
}
// * * * * * * * * * * * * * * * * * * * * * * * * * * * * * * * * * * * * * //

dimensions      [0 -1 0 1 0 0 0];

internalField   nonuniform List<scalar> 
1596
(
-0.475751
-0.882982
-1.21534
-1.53282
-1.83516
-2.16199
-2.49597
-2.88223
-3.33822
-3.87663
-4.61774
-5.56111
-6.87148
-8.74256
-11.6567
-16.2064
-24.3386
-39.3421
-92.9375
-1.44835
-1.78376
-2.00878
-2.21381
-2.40962
-2.64078
-2.89348
-3.20957
-3.60608
-4.08639
-4.75129
-5.58954
-6.7115
-8.20497
-10.3175
-13.1734
-17.4224
-23.669
-41.3979
-2.58997
-2.69923
-2.75929
-2.82984
-2.9098
-3.03774
-3.19806
-3.42756
-3.73903
-4.12945
-4.6819
-5.37461
-6.28394
-7.45005
-9.02302
-11.0208
-13.7963
-17.6028
-25.7684
-3.78409
-3.58919
-3.45421
-3.37826
-3.33769
-3.35812
-3.42035
-3.55439
-3.76858
-4.05576
-4.48393
-5.02583
-5.73546
-6.62868
-7.80066
-9.22817
-11.1187
-13.5749
-17.7801
-4.88244
-4.4032
-4.0798
-3.86054
-3.70225
-3.61627
-3.58036
-3.61725
-3.73168
-3.91433
-4.22063
-4.62242
-5.15884
-5.83394
-6.71103
-7.7536
-9.09203
-10.7612
-13.1944
-5.75202
-5.09265
-4.62304
-4.28015
-4.01559
-3.83021
-3.70127
-3.64481
-3.66325
-3.74675
-3.94022
-4.21756
-4.60776
-5.10949
-5.7666
-6.54107
-7.51905
-8.7047
-10.2626
-6.32175
-5.61964
-5.07028
-4.63808
-4.28714
-4.01512
-3.80252
-3.66043
-3.59034
-3.58319
-3.6751
-3.84371
-4.11076
-4.47282
-4.96122
-5.54106
-6.27126
-7.14258
-8.21903
-6.59255
-5.96126
-5.40438
-4.92667
-4.51656
-4.17611
-3.8931
-3.67618
-3.52746
-3.43967
-3.44184
-3.51602
-3.67873
-3.92608
-4.28096
-4.71318
-5.26397
-5.91906
-6.70241
-6.62159
-6.14431
-5.64135
-5.16048
-4.71897
-4.32922
-3.9893
-3.70837
-3.49057
-3.33134
-3.25429
-3.246
-3.31919
-3.47031
-3.71634
-4.03184
-4.44592
-4.9431
-5.53031
-6.45695
-6.14471
-5.73597
-5.2926
-4.85211
-4.43847
-4.06096
-3.73184
-3.45851
-3.23979
-3.09571
-3.01715
-3.01429
-3.08441
-3.24045
-3.46152
-3.76852
-4.14671
-4.59554
-6.25127
-6.05573
-5.74122
-5.35371
-4.93542
-4.51738
-4.11828
-3.75458
-3.43759
-3.17002
-2.96978
-2.83174
-2.76453
-2.76637
-2.84737
-2.99054
-3.21097
-3.49531
-3.83971
-5.99664
-5.92059
-5.69703
-5.37134
-4.98648
-4.57683
-4.16781
-3.78003
-3.42886
-3.12095
-2.87341
-2.68467
-2.56255
-2.50631
-2.52404
-2.60205
-2.75119
-2.95976
-3.22255
-5.6808
-5.71126
-5.57634
-5.3173
-4.97561
-4.58702
-4.18097
-3.78162
-3.40794
-3.07029
-2.78593
-2.55645
-2.38949
-2.2854
-2.251
-2.2754
-2.36656
-2.51445
-2.71348
-5.40089
-5.49165
-5.42598
-5.22706
-4.92903
-4.56639
-4.17012
-3.76703
-3.37898
-3.01953
-2.70671
-2.44475
-2.24154
-2.09844
-2.02144
-2.00192
-2.04581
-2.14455
-2.2927
-5.14217
-5.28051
-5.26759
-5.11864
-4.86025
-4.52392
-4.14049
-3.73834
-3.34154
-2.96633
-2.63172
-2.34417
-2.11202
-1.93753
-1.82616
-1.77108
-1.77677
-1.83596
-1.94357
-4.88843
-5.07267
-5.10415
-4.997
-4.77325
-4.46166
-4.0921
-3.69383
-3.29248
-2.90641
-2.55571
-2.24865
-1.99409
-1.79505
-1.65663
-1.5734
-1.5488
-1.57663
-1.65229
-4.65858
-4.87454
-4.94198
-4.86932
-4.67469
-4.38472
-4.0282
-3.63489
-3.23155
-2.83824
-2.47599
-2.15455
-1.88324
-1.66565
-1.5066
-1.40171
-1.35363
-1.35705
-1.40775
-4.45719
-4.69547
-4.79117
-4.74631
-4.57529
-4.30278
-3.9569
-3.56778
-3.16315
-2.76451
-2.39369
-2.06162
-1.77795
-1.54666
-1.37222
-1.25102
-1.18505
-1.16969
-1.20109
-4.25421
-4.53314
-4.65907
-4.63937
-4.48815
-4.22924
-3.89081
-3.50363
-3.09656
-2.69253
-2.31412
-1.97332
-1.67994
-1.43815
-1.252
-1.11832
-1.03858
-1.0087
-1.0251
-4.04376
-4.36972
-4.53054
-4.53689
-4.40434
-4.15724
-3.82459
-3.43822
-3.02835
-2.61938
-2.23467
-1.88712
-1.58662
-1.33732
-1.14267
-0.999684
-0.909406
-0.86831
-0.873236
-3.86301
-4.22159
-4.41524
-4.44704
-4.33178
-4.09448
-3.76545
-3.37807
-2.9642
-2.54983
-2.15915
-1.8059
-1.49996
-1.24522
-1.04434
-0.894084
-0.795032
-0.744411
-0.740024
-3.70204
-4.09144
-4.31569
-4.372
-4.27309
-4.04422
-3.71723
-3.32732
-2.90827
-2.48784
-2.09109
-1.7326
-1.42223
-1.16348
-0.957947
-0.801547
-0.69392
-0.633055
-0.619261
-3.55259
-3.97653
-4.23149
-4.3118
-4.22861
-4.00734
-3.68143
-3.28809
-2.86317
-2.43625
-2.03333
-1.66986
-1.35568
-1.09398
-0.885155
-0.723566
-0.606562
-0.531082
-0.501925
-3.4187
-3.87722
-4.16089
-4.26154
-4.18995
-3.97171
-3.64293
-3.24266
-2.80924
-2.37445
-1.9642
-1.59574
-1.27857
-1.01571
-0.806157
-0.642881
-0.518561
-0.423789
-0.351378
-3.30967
-3.80027
-4.11809
-4.25125
-4.2098
-4.01718
-3.70961
-3.32492
-2.90155
-2.47234
-2.06174
-1.6893
-1.3645
-1.09247
-0.872872
-0.700658
-0.566175
-0.457311
-0.356808
-3.23346
-3.74335
-4.08145
-4.23787
-4.22166
-4.0541
-3.76969
-3.40432
-2.99506
-2.57451
-2.16562
-1.78905
-1.45488
-1.17007
-0.936243
-0.751977
-0.609431
-0.500265
-0.412319
-3.23036
-3.74317
-4.08864
-4.25799
-4.25925
-4.11265
-3.85018
-3.50586
-3.11464
-2.70745
-2.30601
-1.9299
-1.58917
-1.29198
-1.04245
-0.842382
-0.686786
-0.569278
-0.47894
-3.30881
-3.80736
-4.14371
-4.31109
-4.31753
-4.18279
-3.9367
-3.61124
-3.23887
-2.84826
-2.45905
-2.08874
-1.74598
-1.43881
-1.17324
-0.954759
-0.782113
-0.651561
-0.552974
-3.45982
-3.93417
-4.24774
-4.40027
-4.40121
-4.27025
-4.03542
-3.72652
-3.37332
-3.00203
-2.62968
-2.27111
-1.93215
-1.61898
-1.33786
-1.09792
-0.902909
-0.753612
-0.641329
-3.67859
-4.11207
-4.39028
-4.51782
-4.50525
-4.37213
-4.14491
-3.8511
-3.51777
-3.16869
-2.81823
-2.47866
-2.15205
-1.84064
-1.54794
-1.28497
-1.06111
-0.885068
-0.75213
-3.96114
-4.33817
-4.57325
-4.66937
-4.63789
-4.4983
-4.27571
-3.99528
-3.6815
-3.35608
-3.03115
-2.71734
-2.41323
-2.1158
-1.82171
-1.53903
-1.27973
-1.06412
-0.898249
-4.26536
-4.59382
-4.78475
-4.84644
-4.79316
-4.64473
-4.42511
-4.15698
-3.86237
-3.56128
-3.26432
-2.98219
-2.71197
-2.44663
-2.17318
-1.8895
-1.59849
-1.32715
-1.10376
-4.61122
-4.88526
-5.02677
-5.04985
-4.97165
-4.81205
-4.59352
-4.33609
-4.05916
-3.78113
-3.51147
-3.26258
-3.03339
-2.81803
-2.59752
-2.35821
-2.07741
-1.76175
-1.42246
-5.01409
-5.22314
-5.30995
-5.2922
-5.1889
-5.01936
-4.80376
-4.55925
-4.30235
-4.04939
-3.80926
-3.59572
-3.41238
-3.26132
-3.13051
-3.01039
-2.86551
-2.67671
-2.4207
-5.46011
-5.59474
-5.61355
-5.54167
-5.39973
-5.20634
-4.97849
-4.73071
-4.4764
-4.22817
-3.99424
-3.78553
-3.60763
-3.46709
-3.36486
-3.30735
-3.28372
-3.28464
-3.28997
-5.96265
-5.9969
-5.93287
-5.7976
-5.60999
-5.38664
-5.14101
-4.88548
-4.63094
-4.38675
-4.16104
-3.96097
-3.79129
-3.6559
-3.55734
-3.49887
-3.48227
-3.51101
-3.58874
-6.51604
-6.42814
-6.27695
-6.07969
-5.84942
-5.59863
-5.33749
-5.07599
-4.82292
-4.58557
-4.37103
-4.18411
-4.0279
-3.90362
-3.81096
-3.74658
-3.70649
-3.68443
-3.67417
-7.02182
-6.81919
-6.58692
-6.33171
-6.06094
-5.78297
-5.50516
-5.23496
-4.97919
-4.74338
-4.53282
-4.35096
-4.19935
-4.078
-3.98561
-3.91876
-3.87354
-3.84513
-3.82864
-7.4315
-7.14654
-6.85156
-6.55
-6.24639
-5.9462
-5.65467
-5.37717
-5.11891
-4.884
-4.67645
-4.49877
-4.35165
-4.23454
-4.14585
-4.08222
-4.0398
-4.01409
-4.00034
-7.75792
-7.40835
-7.06414
-6.72624
-6.39688
-6.07928
-5.77694
-5.49359
-5.2332
-4.99882
-4.79354
-4.61925
-4.47605
-4.36306
-4.27846
-4.21891
-4.18046
-4.15876
-4.14909
-7.99502
-7.59689
-7.21564
-6.85102
-6.50318
-6.17332
-5.86348
-5.57612
-5.31435
-5.08046
-4.87693
-4.70527
-4.56521
-4.45562
-4.37451
-4.31842
-4.28323
-4.2645
-4.25743
-8.14853
-7.70428
-7.2965
-6.91555
-6.55738
-6.22106
-5.90743
-5.61818
-5.35587
-5.12242
-4.92
-4.74994
-4.61179
-4.50437
-4.42563
-4.37217
-4.33987
-4.32434
-4.32071
-8.14857
-7.70436
-7.29659
-6.91565
-6.55749
-6.22116
-5.90754
-5.61829
-5.35598
-5.12254
-4.92013
-4.75007
-4.61193
-4.50451
-4.42578
-4.37233
-4.34004
-4.32451
-4.32089
-7.99507
-7.59704
-7.21584
-6.85126
-6.50344
-6.1736
-5.86377
-5.57644
-5.31467
-5.08079
-4.87728
-4.70564
-4.5656
-4.45604
-4.37495
-4.31889
-4.28374
-4.26506
-4.25804
-7.75802
-7.40858
-7.06446
-6.72662
-6.3973
-6.07973
-5.77742
-5.49409
-5.23373
-4.99937
-4.79411
-4.61985
-4.47668
-4.36372
-4.27917
-4.21966
-4.18127
-4.15963
-4.15002
-7.43162
-7.14683
-6.85196
-6.55048
-6.24693
-5.94678
-5.65529
-5.37781
-5.11958
-4.8847
-4.67718
-4.49954
-4.35245
-4.23538
-4.14672
-4.08314
-4.04076
-4.01511
-4.00141
-7.02196
-6.81952
-6.58738
-6.33226
-6.06157
-5.78365
-5.50589
-5.23573
-4.98
-4.74422
-4.5337
-4.35187
-4.2003
-4.07898
-3.98663
-3.91982
-3.87463
-3.84627
-3.82982
-6.5162
-6.4285
-6.27745
-6.0803
-5.8501
-5.59938
-5.33829
-5.07685
-4.82382
-4.58652
-4.37202
-4.18513
-4.02895
-3.90469
-3.81204
-3.74765
-3.70754
-3.68543
-3.67513
-5.96283
-5.99731
-5.93349
-5.79839
-5.61093
-5.38773
-5.14223
-4.88683
-4.63241
-4.38834
-4.16277
-3.96284
-3.79331
-3.65807
-3.55965
-3.50122
-3.48449
-3.51277
-3.58957
-5.46022
-5.59482
-5.61364
-5.54181
-5.39991
-5.20658
-4.97875
-4.73099
-4.47666
-4.22839
-3.99437
-3.78551
-3.6074
-3.46657
-3.36404
-3.3063
-3.28284
-3.28468
-3.29213
-5.01414
-5.22338
-5.31038
-5.29286
-5.1898
-5.02053
-4.80518
-4.56091
-4.30424
-4.05148
-3.81154
-3.59819
-3.41508
-3.26436
-3.13414
-3.01495
-2.87148
-2.68449
-2.43051
-4.61124
-4.8853
-5.02691
-5.05014
-4.97212
-4.81271
-4.59437
-4.33711
-4.06035
-3.78245
-3.51293
-3.26417
-3.03518
-2.8201
-2.59999
-2.36115
-2.0807
-1.76499
-1.4249
-4.26536
-4.59383
-4.78484
-4.84667
-4.79358
-4.64536
-4.42593
-4.15799
-3.86356
-3.56262
-3.26581
-2.98383
-2.7138
-2.44868
-2.17545
-1.89189
-1.60079
-1.32911
-1.10529
-3.96112
-4.33814
-4.57328
-4.66954
-4.63824
-4.49884
-4.27646
-3.99622
-3.68262
-3.35735
-3.03256
-2.71889
-2.41491
-2.11759
-1.82356
-1.54081
-1.28132
-1.06544
-0.899325
-3.67857
-4.11202
-4.39028
-4.51794
-4.50553
-4.37261
-4.14559
-3.85197
-3.51881
-3.16987
-2.81954
-2.48006
-2.15353
-1.84215
-1.54941
-1.28632
-1.06228
-0.88604
-0.752951
-3.45978
-3.93409
-4.2477
-4.40034
-4.40144
-4.27067
-4.03603
-3.72731
-3.37427
-3.00311
-2.63085
-2.27236
-1.93342
-1.62023
-1.33904
-1.09897
-0.903802
-0.754369
-0.641991
-3.30878
-3.80727
-4.14365
-4.31113
-4.31772
-4.18315
-3.93724
-3.61195
-3.23972
-2.84922
-2.46009
-2.08982
-1.74705
-1.43984
-1.17418
-0.955585
-0.782823
-0.652179
-0.553538
-3.23032
-3.74309
-4.08857
-4.258
-4.2594
-4.11296
-3.85065
-3.50649
-3.11539
-2.70829
-2.30691
-1.93082
-1.59007
-1.29283
-1.04321
-0.843049
-0.687369
-0.569806
-0.479459
-3.23342
-3.74325
-4.08135
-4.23783
-4.22171
-4.05427
-3.77
-3.40474
-2.99558
-2.5751
-2.16624
-1.78968
-1.45549
-1.17063
-0.936731
-0.7524
-0.609806
-0.500639
-0.412781
-3.30973
-3.80031
-4.11813
-4.25133
-4.20994
-4.01738
-3.70987
-3.32526
-2.90196
-2.47279
-2.06223
-1.68982
-1.36502
-1.09298
-0.873356
-0.701114
-0.566595
-0.457685
-0.357102
-3.41878
-3.87729
-4.16093
-4.26154
-4.18989
-3.9716
-3.64277
-3.24246
-2.809
-2.3742
-1.96395
-1.5955
-1.27835
-1.01552
-0.805978
-0.642716
-0.518401
-0.423621
-0.35117
-3.55264
-3.97657
-4.23152
-4.31182
-4.22863
-4.00734
-3.68143
-3.28808
-2.86315
-2.43624
-2.03333
-1.66986
-1.35569
-1.09399
-0.885173
-0.723587
-0.606587
-0.531112
-0.501953
-3.70207
-4.09147
-4.3157
-4.372
-4.27308
-4.0442
-3.7172
-3.32729
-2.90824
-2.48781
-2.09107
-1.73259
-1.42222
-1.16349
-0.957956
-0.80156
-0.693938
-0.633075
-0.61928
-3.86304
-4.22162
-4.41525
-4.44704
-4.33177
-4.09446
-3.76543
-3.37804
-2.96417
-2.54981
-2.15914
-1.80589
-1.49996
-1.24523
-1.04435
-0.894095
-0.795046
-0.744426
-0.740038
-4.04378
-4.36973
-4.53055
-4.53689
-4.40433
-4.15723
-3.82457
-3.4382
-3.02833
-2.61937
-2.23466
-1.88711
-1.58662
-1.33732
-1.14268
-0.999693
-0.909417
-0.868321
-0.873246
-4.25422
-4.53315
-4.65907
-4.63936
-4.48814
-4.22922
-3.8908
-3.50361
-3.09655
-2.69252
-2.31412
-1.97331
-1.67994
-1.43815
-1.25201
-1.11833
-1.03859
-1.0087
-1.02511
-4.4572
-4.69548
-4.79117
-4.7463
-4.57528
-4.30277
-3.95689
-3.56777
-3.16315
-2.7645
-2.39368
-2.06162
-1.77795
-1.54666
-1.37223
-1.25102
-1.18506
-1.1697
-1.20109
-4.65859
-4.87454
-4.94198
-4.86931
-4.67469
-4.38471
-4.02819
-3.63489
-3.23155
-2.83823
-2.47599
-2.15455
-1.88323
-1.66565
-1.5066
-1.40172
-1.35364
-1.35705
-1.40775
-4.88843
-5.07266
-5.10414
-4.997
-4.77325
-4.46166
-4.0921
-3.69383
-3.29247
-2.90641
-2.5557
-2.24865
-1.99409
-1.79505
-1.65663
-1.5734
-1.5488
-1.57663
-1.65228
-5.14216
-5.2805
-5.26758
-5.11864
-4.86024
-4.52392
-4.14049
-3.73834
-3.34154
-2.96633
-2.63172
-2.34417
-2.11202
-1.93753
-1.82616
-1.77108
-1.77676
-1.83595
-1.94357
-5.40088
-5.49164
-5.42598
-5.22706
-4.92903
-4.56639
-4.17013
-3.76703
-3.37898
-3.01953
-2.70671
-2.44475
-2.24154
-2.09843
-2.02144
-2.00192
-2.0458
-2.14454
-2.29269
-5.68079
-5.71126
-5.57634
-5.3173
-4.97561
-4.58702
-4.18097
-3.78162
-3.40794
-3.07029
-2.78593
-2.55645
-2.38949
-2.2854
-2.25099
-2.27539
-2.36655
-2.51443
-2.71347
-5.99661
-5.92058
-5.69703
-5.37134
-4.98649
-4.57683
-4.16782
-3.78003
-3.42886
-3.12095
-2.87341
-2.68467
-2.56254
-2.5063
-2.52403
-2.60204
-2.75117
-2.95974
-3.22254
-6.25125
-6.05572
-5.74123
-5.35372
-4.93543
-4.51739
-4.11829
-3.75458
-3.4376
-3.17002
-2.96978
-2.83174
-2.76452
-2.76636
-2.84736
-2.99053
-3.21095
-3.49529
-3.8397
-6.45694
-6.14471
-5.73599
-5.29262
-4.85212
-4.43848
-4.06096
-3.73185
-3.45851
-3.2398
-3.09571
-3.01714
-3.01429
-3.08441
-3.24044
-3.46151
-3.7685
-4.14669
-4.59553
-6.62159
-6.14433
-5.64137
-5.16049
-4.71898
-4.32923
-3.98931
-3.70838
-3.49058
-3.33134
-3.25429
-3.246
-3.31919
-3.47031
-3.71632
-4.03183
-4.4459
-4.94309
-5.53031
-6.59257
-5.96128
-5.4044
-4.92669
-4.51657
-4.17612
-3.8931
-3.67619
-3.52746
-3.43967
-3.44184
-3.51602
-3.67872
-3.92607
-4.28095
-4.71317
-5.26396
-5.91906
-6.70242
-6.32177
-5.61966
-5.0703
-4.63809
-4.28715
-4.01512
-3.80253
-3.66043
-3.59035
-3.58319
-3.6751
-3.8437
-4.11075
-4.47281
-4.96121
-5.54105
-6.27125
-7.14258
-8.21905
-5.75205
-5.09267
-4.62306
-4.28016
-4.0156
-3.83022
-3.70128
-3.64482
-3.66325
-3.74675
-3.94022
-4.21755
-4.60775
-5.10948
-5.76659
-6.54107
-7.51905
-8.70471
-10.2626
-4.88247
-4.40322
-4.07981
-3.86055
-3.70226
-3.61628
-3.58037
-3.61726
-3.73168
-3.91433
-4.22063
-4.62241
-5.15883
-5.83393
-6.71102
-7.75359
-9.09203
-10.7613
-13.1944
-3.78411
-3.5892
-3.45422
-3.37827
-3.3377
-3.35813
-3.42035
-3.5544
-3.76859
-4.05576
-4.48393
-5.02583
-5.73545
-6.62867
-7.80065
-9.22817
-11.1187
-13.575
-17.7801
-2.58998
-2.69924
-2.75929
-2.82984
-2.90981
-3.03775
-3.19807
-3.42757
-3.73904
-4.12945
-4.6819
-5.3746
-6.28393
-7.45004
-9.02301
-11.0208
-13.7963
-17.6028
-25.7684
-1.44836
-1.78376
-2.00878
-2.21381
-2.40962
-2.64079
-2.89348
-3.20957
-3.60609
-4.08639
-4.75129
-5.58954
-6.71149
-8.20496
-10.3175
-13.1734
-17.4224
-23.669
-41.3979
-0.475754
-0.882983
-1.21534
-1.53282
-1.83516
-2.16199
-2.49597
-2.88223
-3.33823
-3.87663
-4.61773
-5.56111
-6.87148
-8.74255
-11.6567
-16.2064
-24.3386
-39.3421
-92.9375
)
;

boundaryField
{
    up
    {
        type            calculated;
        value           nonuniform List<scalar> 
84
(
-84.2202
-45.6135
-27.9899
-19.0815
-14.0341
-10.8466
-8.64735
-7.0279
-5.78215
-4.79315
-3.99475
-3.34362
-2.80781
-2.36547
-1.99908
-1.69414
-1.43889
-1.22384
-1.04132
-0.884521
-0.747525
-0.623149
-0.496599
-0.31505
-0.304666
-0.386907
-0.453197
-0.524408
-0.608242
-0.712367
-0.846949
-1.02511
-1.30003
-2.39485
-3.38071
-3.64575
-3.66771
-3.82148
-3.99512
-4.14623
-4.25607
-4.32135
-4.32152
-4.25671
-4.14719
-3.99622
-3.82269
-3.66868
-3.64579
-3.38306
-2.40628
-1.30231
-1.02647
-0.847952
-0.71315
-0.608884
-0.524964
-0.453717
-0.387517
-0.305042
-0.314822
-0.496622
-0.623166
-0.747538
-0.88453
-1.04133
-1.22385
-1.43889
-1.69414
-1.99907
-2.36546
-2.80781
-3.34361
-3.99475
-4.79315
-5.78216
-7.02793
-8.64737
-10.8466
-14.0341
-19.0815
-27.9899
-45.6134
-84.2202
)
;
    }
    low
    {
        type            calculated;
        value           nonuniform List<scalar> 
84
(
-0.510557
-1.51352
-2.73156
-4.02267
-5.21271
-6.14385
-6.72825
-6.9724
-6.92681
-6.66572
-6.40925
-6.10533
-5.72209
-5.40505
-5.12488
-4.84169
-4.58607
-4.37691
-4.15795
-3.91142
-3.70276
-3.5201
-3.34435
-3.18586
-3.03383
-2.93896
-2.93957
-3.0484
-3.23878
-3.50723
-3.83392
-4.16761
-4.54762
-4.9903
-5.46936
-6.01592
-6.63048
-7.17531
-7.60848
-7.95475
-8.20784
-8.38363
-8.38366
-8.20787
-7.9548
-7.60855
-7.17538
-6.63057
-6.01603
-5.46933
-4.99036
-4.54758
-4.16759
-3.8339
-3.50721
-3.23876
-3.0484
-2.93957
-2.93898
-3.03387
-3.18596
-3.34436
-3.52013
-3.70278
-3.91143
-4.15797
-4.37692
-4.58607
-4.84169
-5.12487
-5.40503
-5.72208
-6.1053
-6.40922
-6.6657
-6.9268
-6.97241
-6.72828
-6.14388
-5.21275
-4.0227
-2.73158
-1.51353
-0.510561
)
;
    }
    left
    {
        type            calculated;
        value           nonuniform List<scalar> 
19
(
-0.46667
-0.866422
-1.20523
-1.53314
-1.84801
-2.18807
-2.53675
-2.94146
-3.42028
-3.99284
-4.78513
-5.80225
-7.23129
-9.30413
-12.5619
-17.731
-27.0781
-44.5263
-87.3526
)
;
    }
    right
    {
        type            calculated;
        value           nonuniform List<scalar> 
19
(
-0.466673
-0.866424
-1.20523
-1.53314
-1.84801
-2.18807
-2.53675
-2.94146
-3.42028
-3.99283
-4.78512
-5.80224
-7.23128
-9.30411
-12.5619
-17.731
-27.0781
-44.5263
-87.3526
)
;
    }
    frontAndBackPlanes
    {
        type            empty;
    }
}


// ************************************************************************* //
