/*--------------------------------*- C++ -*----------------------------------*\
  =========                 |
  \\      /  F ield         | OpenFOAM: The Open Source CFD Toolbox
   \\    /   O peration     | Website:  https://openfoam.org
    \\  /    A nd           | Version:  7
     \\/     M anipulation  |
\*---------------------------------------------------------------------------*/
FoamFile
{
    version     2.0;
    format      ascii;
    class       volScalarField;
    location    "0.22";
    object      gradTz;
}
// * * * * * * * * * * * * * * * * * * * * * * * * * * * * * * * * * * * * * //

dimensions      [0 -1 0 1 0 0 0];

internalField   nonuniform List<scalar> 
1596
(
-8.06813e-16
-3.91661e-16
3.98616e-16
9.24588e-18
-7.57642e-16
0
-3.52721e-16
-3.4782e-16
-2.39745e-17
-1.83727e-16
-1.61555e-18
-1.82972e-16
8.06589e-16
-1.81176e-16
8.46199e-16
7.30519e-16
4.34604e-16
5.4908e-16
0
8.05415e-16
0
1.1306e-15
-8.34105e-18
-3.44647e-16
3.41463e-16
7.0647e-16
2.29065e-17
3.34194e-16
-1.61293e-16
3.22025e-16
-4.69156e-18
-4.47023e-16
-2.79549e-16
-6.84061e-16
-6.67723e-16
-6.0769e-16
3.46069e-16
0
-3.93856e-16
0
-7.3525e-16
1.32369e-17
6.69939e-16
-1.90212e-16
1.56508e-17
-4.63576e-18
-4.61274e-18
-4.84228e-18
1.20176e-16
0
2.3186e-16
6.56928e-16
-6.48176e-17
5.23662e-17
1.23061e-16
1.9284e-16
0
6.20116e-16
-1.84868e-16
1.84193e-16
0
-1.76684e-16
-1.83491e-16
3.08917e-16
-2.6713e-16
0
0
-9.93106e-17
6.27789e-17
0
-1.9303e-16
-2.4503e-16
1.70077e-16
-1.76132e-16
-9.05474e-18
0
1.08499e-16
2.85859e-16
-2.55583e-16
0
-7.47284e-17
-2.27959e-16
0
3.39011e-16
-3.36016e-17
-3.04378e-17
-3.18516e-17
1.75478e-16
2.16855e-16
2.26727e-17
9.58111e-18
-1.83883e-16
9.25092e-18
8.5279e-17
-3.68583e-17
-2.81755e-17
-3.92027e-16
3.70391e-16
-3.20345e-16
-7.18992e-19
-2.7958e-16
7.8588e-18
-7.88489e-18
-2.18394e-16
0
-2.65312e-17
-2.07729e-16
-1.95819e-16
1.57971e-16
1.66778e-16
-2.26946e-18
-1.0005e-16
-8.64973e-17
6.62726e-17
2.35468e-16
-3.98695e-16
4.43097e-16
2.4628e-16
0
2.14979e-16
1.25134e-16
-6.01e-17
2.76697e-16
-5.17223e-17
-2.20151e-16
1.92332e-18
-1.29513e-16
-1.587e-16
-1.23073e-16
1.05488e-16
1.00931e-16
-1.35223e-18
-2.75717e-17
2.49506e-17
6.3425e-16
-7.38863e-16
0
0
-2.63279e-16
0
0
0
1.76932e-16
0
0
1.19081e-16
4.2477e-18
3.41732e-17
-9.23785e-17
0
4.91605e-17
1.93958e-17
0
-4.09091e-16
7.85388e-16
0
0
2.71141e-16
0
-1.01233e-16
1.0113e-16
-1.80091e-16
7.44066e-17
-7.49508e-17
0
1.08045e-16
1.0767e-16
0
-6.20845e-17
-5.02237e-17
-1.6974e-17
9.98265e-16
-4.65512e-16
0
-3.21014e-16
3.17422e-16
0
2.28649e-16
0
0
0
6.78646e-17
-6.81899e-17
0
-8.35986e-17
-2.37392e-17
0
7.69604e-18
3.50975e-17
0
-2.5341e-16
0
0
3.21762e-16
-5.97235e-16
3.3384e-17
1.27561e-17
-9.24976e-17
1.11367e-17
4.23316e-18
-7.08068e-17
-1.12347e-16
0
8.47247e-17
-1.72091e-17
1.74673e-17
4.67405e-17
-2.76391e-17
-1.25979e-17
2.06972e-16
-2.43409e-17
1.98903e-16
6.70981e-16
-3.93709e-17
-2.76975e-16
0
0
0
1.45842e-16
5.75311e-17
2.06565e-16
-4.98209e-17
-8.32091e-17
-4.86532e-17
-2.70041e-17
1.20756e-17
-2.64062e-17
1.19607e-17
-2.31366e-16
2.26835e-16
-4.17215e-16
-6.62889e-16
6.1025e-16
2.36211e-16
-4.34032e-16
3.70278e-16
-3.15617e-16
8.24864e-17
6.1804e-17
-5.58039e-17
3.49531e-17
-3.19609e-17
9.41503e-17
0
-7.16704e-18
5.31606e-17
-7.92418e-18
-1.51072e-15
6.90156e-16
5.52758e-19
-1.46642e-16
2.07665e-17
2.29271e-16
-4.338e-16
-1.75255e-16
1.47201e-16
-1.23041e-16
-1.03344e-16
0
-1.15708e-16
-3.42828e-17
-6.05975e-17
-3.59969e-17
2.82833e-18
-3.26833e-17
9.20186e-19
2.46908e-16
-2.18193e-16
4.06563e-19
-1.64341e-16
-4.03004e-16
3.78086e-16
1.81966e-18
1.70786e-16
-1.4332e-16
2.35442e-16
5.5455e-17
4.47719e-17
1.35431e-16
0
1.10906e-16
5.0965e-17
0
1.75959e-17
7.61888e-19
0
2.11672e-16
1.62883e-16
-3.40938e-16
3.90275e-16
-5.80278e-16
4.05719e-16
1.48566e-16
-2.40946e-17
-2.33354e-16
4.14533e-17
-4.12488e-17
-1.22331e-16
4.77383e-17
-2.41767e-17
-5.02623e-17
2.1408e-17
-1.33541e-17
5.42788e-18
-2.29962e-16
7.70343e-16
-5.74941e-16
3.06773e-16
0
0
-7.80716e-17
1.67789e-16
-1.14991e-16
2.14765e-16
0
0
8.17441e-17
-7.0781e-17
-4.9023e-17
1.5514e-17
-1.67065e-17
8.87659e-18
0
2.06247e-17
2.15076e-16
-1.70181e-16
-1.47352e-16
-2.3243e-16
-7.09955e-17
1.03579e-16
0
-1.07579e-16
-8.52451e-17
7.57565e-17
-6.04805e-17
4.80369e-17
0
1.88519e-17
3.58808e-17
0
0
0
-1.98066e-17
3.36956e-16
1.24571e-16
-4.45703e-16
1.20529e-16
1.01806e-16
0
0
1.01069e-16
-5.28695e-17
-7.3273e-17
5.84956e-17
-4.64553e-17
0
-1.18663e-17
9.78342e-18
0
-8.34791e-18
-2.9335e-18
-1.82723e-16
5.36216e-16
-6.45151e-16
-2.5185e-16
1.3295e-16
-9.5983e-17
7.89995e-17
0
-5.15319e-17
4.22718e-17
0
0
1.7839e-17
-1.78595e-17
5.17459e-18
-7.15557e-18
1.17233e-17
1.59638e-18
2.19293e-18
9.49012e-17
-8.46958e-17
4.26463e-16
-2.74573e-16
-1.08654e-16
1.53472e-17
1.64003e-16
6.02159e-17
4.93083e-17
0
2.67894e-17
-2.47009e-17
1.91877e-17
-1.59064e-17
1.97469e-17
-3.37308e-17
-9.12709e-18
7.92916e-18
2.07887e-18
2.5226e-16
-2.5665e-16
0
2.2615e-16
-1.20147e-16
-8.65266e-17
5.7047e-17
-1.84786e-16
0
-3.35209e-18
-3.15514e-17
-2.18824e-17
3.08404e-17
-2.58342e-18
-1.9085e-17
1.38891e-17
0
4.8694e-18
-2.01856e-18
4.35517e-16
-7.58885e-17
3.1683e-16
-2.47799e-16
1.31243e-16
1.0695e-17
-1.47801e-16
-4.80921e-17
8.56009e-17
-3.99693e-18
-4.6927e-17
3.89582e-17
-1.67766e-17
-2.12028e-17
0
0
0
-4.91394e-18
1.81098e-19
-3.84461e-16
3.736e-16
2.77024e-19
5.52161e-17
4.66449e-17
-1.09466e-16
1.27143e-16
-1.0191e-16
8.50521e-17
-2.68421e-17
5.07285e-17
1.73737e-17
-7.24582e-18
3.53378e-19
-2.41878e-18
-4.24318e-18
0
0
0
0
0
1.78324e-16
-9.02818e-17
-2.66547e-16
0
0
-2.96525e-17
-4.64239e-17
3.79138e-17
0
-2.19114e-17
1.65322e-17
-5.34074e-17
6.09682e-17
-1.92406e-17
2.04417e-17
2.20103e-18
0
-7.44639e-17
7.53804e-17
0
-5.87714e-17
5.94709e-17
9.59268e-17
0
2.99356e-17
3.73216e-17
-1.69356e-16
0
-2.47725e-17
1.88118e-17
1.29728e-17
-9.41649e-18
1.35871e-17
0
-4.85977e-18
0
-3.83061e-17
-3.77414e-17
2.23354e-18
6.03861e-17
-1.5957e-16
0
-3.95669e-17
0
1.06636e-16
4.17632e-17
0
9.82776e-17
-1.01126e-16
1.07342e-17
-2.07092e-17
6.60897e-18
2.62252e-17
9.65505e-18
-7.65229e-18
0
7.87918e-17
-6.78634e-17
8.39772e-17
9.87321e-17
0
8.02213e-17
-7.52148e-17
-5.73756e-17
8.37343e-17
-1.25428e-16
-5.91934e-17
0
0
1.19795e-17
0
0
3.29899e-18
0
-3.51281e-16
2.70099e-16
0
4.53856e-18
-5.73143e-17
-3.10477e-18
4.98256e-17
3.43112e-17
-4.40308e-17
-1.06751e-16
1.65168e-16
-4.50641e-17
0
-2.03181e-17
0
0
0
-1.27834e-17
1.02239e-17
-9.9805e-17
9.27119e-17
2.44449e-16
-2.37999e-16
7.23064e-17
4.37698e-18
-5.05962e-17
4.28588e-17
7.15327e-17
5.34811e-17
-1.05504e-16
0
5.17533e-17
6.02427e-18
-2.32648e-17
-4.93195e-17
4.04527e-17
-6.26914e-18
1.19978e-17
-3.39329e-16
4.80677e-16
-4.75745e-16
8.25629e-17
6.89644e-17
-6.51929e-17
5.44162e-17
-4.22851e-17
0
-3.4879e-17
5.43548e-17
2.35132e-17
3.73376e-17
4.57108e-17
-6.80546e-17
-1.48049e-18
0
-4.94951e-18
1.66595e-18
-3.66882e-16
-1.0793e-16
-1.86901e-16
9.99384e-17
-1.5988e-16
1.37161e-16
-8.12371e-17
6.74869e-17
-5.13194e-18
-5.09091e-18
-5.79007e-17
3.45897e-17
-1.81758e-17
5.59049e-17
-6.00145e-17
6.95473e-18
6.19615e-18
0
-2.91363e-18
3.9668e-16
-1.16529e-16
0
0
-1.64546e-16
3.18896e-16
-7.39368e-17
-1.38759e-17
1.13137e-16
-2.97916e-18
0
0
-2.47626e-17
0
-5.27971e-17
1.26928e-16
-8.76512e-17
0
1.17944e-18
1.35098e-16
2.50721e-16
0
-1.05322e-16
-8.44549e-17
-7.35646e-17
-7.70697e-17
3.13778e-17
-8.712e-17
-4.68838e-17
0
0
3.41204e-17
0
0
-7.24279e-17
1.19623e-16
0
0
9.27267e-16
-1.12283e-16
-5.55927e-16
-2.98291e-16
4.05012e-16
1.27421e-16
7.47287e-17
0
-2.69506e-17
2.56797e-17
6.3973e-17
-2.0512e-17
-2.99409e-17
4.62924e-17
-4.9241e-17
-1.486e-17
0
0
0
7.42563e-17
-5.81282e-16
5.6947e-16
-5.41193e-17
-4.14249e-16
6.4602e-16
-3.23136e-16
0
0
1.67529e-16
-1.37135e-16
0
-4.06263e-17
7.10045e-17
-7.80849e-18
2.05774e-17
6.23417e-18
7.1854e-20
1.34781e-18
0
0
0
4.73974e-16
-3.18129e-16
3.29801e-16
-5.13183e-16
1.45507e-16
0
-5.15621e-17
8.18115e-17
-8.36162e-17
-1.6206e-17
-1.44724e-19
-1.10125e-17
-1.57435e-18
-8.79044e-18
-2.47908e-18
-1.34764e-18
6.20509e-16
-1.10374e-15
5.21747e-16
0
1.38048e-16
-1.88236e-16
1.8656e-16
-1.47949e-16
0
-7.08923e-17
9.93879e-17
0
0
-9.03642e-20
0
-1.15607e-17
7.89242e-18
1.41128e-18
2.15535e-18
6.05363e-16
0
-2.37588e-16
2.65308e-16
-1.64808e-16
3.59423e-16
-1.69436e-16
-1.31232e-16
1.32602e-16
-1.34094e-17
0
0
8.50504e-18
-1.4235e-17
-9.98358e-18
1.88987e-17
-4.09093e-18
2.07893e-18
0
3.43599e-16
2.66274e-16
-1.026e-17
-2.53185e-16
-2.53733e-17
-1.81803e-16
2.04109e-17
1.52035e-16
-7.81097e-18
1.36612e-17
0
0
-8.71284e-18
0
1.02244e-17
-1.09377e-17
0
1.39957e-18
-3.87288e-19
-1.82354e-16
-1.33628e-16
1.25152e-16
-1.4233e-17
-6.35731e-18
1.7089e-17
0
-4.47534e-18
6.66191e-17
-5.61029e-17
0
1.8818e-17
-3.73325e-18
-1.65726e-17
-1.51306e-18
-1.1785e-18
0
-1.09468e-18
0
7.42065e-17
-1.40848e-16
-1.57814e-18
6.01521e-17
5.45852e-17
-5.41995e-17
-3.8098e-17
4.31127e-17
-1.46861e-17
1.14982e-17
-1.10935e-17
1.14357e-17
0
2.90548e-20
-1.11602e-18
4.00782e-18
-1.3705e-20
0
0
7.4209e-17
-7.39309e-17
-5.98363e-17
5.30258e-17
9.64038e-17
-9.69729e-17
-1.90497e-17
1.90953e-17
-1.48106e-17
1.4966e-17
-1.10939e-17
2.09096e-17
-5.86469e-18
-4.20726e-18
-1.28734e-18
4.27732e-19
1.01738e-18
2.68828e-19
-2.01589e-19
0
-1.75662e-17
1.04166e-16
-1.12961e-16
9.6185e-17
-8.52985e-17
0
6.6973e-17
-5.99346e-17
0
2.20549e-17
-2.79086e-17
-1.58146e-17
1.65747e-17
3.03511e-18
0
0
-1.09488e-18
3.97703e-19
2.95257e-16
-5.42663e-16
5.51289e-16
-4.81866e-16
1.89088e-16
-1.59152e-16
1.511e-16
1.78083e-17
-6.59878e-17
5.89389e-17
0
-4.22962e-17
3.85385e-17
-7.27683e-18
-2.97289e-18
4.64806e-18
3.41312e-18
1.06292e-18
-3.84272e-19
6.82395e-16
0
-2.68858e-16
2.09002e-16
2.50817e-17
-1.9138e-16
3.38565e-16
-2.99059e-16
1.17164e-16
-4.96349e-17
5.08057e-17
1.00236e-17
1.70802e-17
7.08771e-18
-5.83057e-18
-7.82451e-19
-7.38422e-18
0
7.48872e-19
5.44506e-16
-6.12922e-16
0
5.55786e-17
2.3796e-16
-2.32787e-16
3.93779e-17
3.47033e-17
1.51286e-17
2.64236e-17
0
0
-2.96848e-17
5.53393e-17
-2.01784e-17
-7.21109e-18
7.89493e-18
6.30834e-19
-1.42158e-18
5.27228e-17
5.38473e-16
-6.1737e-17
-4.1868e-16
3.67688e-16
4.36374e-17
-3.85384e-17
-3.38948e-17
1.1057e-16
-1.37139e-16
8.18397e-17
-8.36439e-17
1.28774e-17
-1.65717e-17
2.9816e-17
-1.99058e-17
0
0
1.41162e-18
0
1.34564e-16
-4.00889e-16
4.58333e-16
-3.66238e-16
3.65366e-16
0
1.24283e-16
-1.24853e-16
-9.27725e-17
1.37243e-16
0
5.62069e-17
-7.10608e-17
-1.04931e-17
0
-1.16497e-18
-2.28298e-18
-6.33589e-20
-1.28473e-15
6.11078e-16
0
-4.04946e-16
4.04906e-16
2.45148e-16
-1.61026e-16
6.54428e-17
0
-2.89997e-18
2.10947e-17
-2.04854e-17
-2.99041e-17
4.62296e-17
-4.91574e-17
0
1.04349e-17
-2.20703e-18
-1.41593e-18
7.89115e-16
-7.7493e-16
0
1.0498e-16
9.47578e-17
-8.61833e-17
0
-6.85846e-17
-5.82147e-17
0
-3.0036e-18
0
3.41384e-17
0
0
1.47881e-17
5.53816e-17
-7.18109e-17
0
9.12151e-20
1.16586e-16
-1.06831e-16
8.59046e-17
-4.37258e-16
1.66617e-16
0
1.38866e-17
3.92656e-17
0
-3.96203e-17
1.13084e-16
-1.18801e-16
1.95655e-17
0
-2.44207e-18
0
0
0
9.44804e-20
0
9.87386e-17
0
-1.49627e-16
1.52005e-16
0
5.29271e-17
-4.18876e-17
1.50855e-16
-7.2539e-17
2.56087e-17
-4.07698e-17
3.82421e-17
-6.00957e-17
-9.52762e-18
0
-6.02021e-18
0
3.0606e-16
-5.17778e-16
0
-8.24344e-17
7.32614e-17
0
0
-9.64381e-17
0
-3.4907e-17
-5.44017e-17
-2.35368e-17
3.73793e-17
0
1.92335e-17
0
0
1.30774e-17
-1.43508e-17
0
4.4555e-16
-3.56409e-16
7.63154e-17
-6.78405e-17
-2.73622e-17
7.84261e-17
8.6913e-17
-1.04396e-16
3.36002e-17
2.81421e-18
-3.00136e-17
1.22349e-16
-3.79718e-17
-8.61577e-17
2.94646e-17
-7.4186e-18
4.45988e-18
-1.32422e-18
-7.30216e-16
2.70106e-16
0
0
2.87299e-17
-2.92151e-17
2.02542e-17
1.27771e-17
9.37854e-17
4.70944e-17
-4.63088e-17
-2.16403e-18
-2.5121e-17
2.0339e-17
0
9.65293e-18
6.79969e-18
3.57537e-18
1.19691e-18
0
2.32659e-16
-2.15695e-16
6.88866e-17
7.00063e-17
-1.34589e-17
-4.27003e-17
-3.59623e-17
-1.1701e-16
4.62745e-17
-2.73308e-17
3.80879e-17
2.34912e-17
-2.85294e-17
3.02822e-17
1.86172e-17
-2.43971e-17
-3.30239e-18
0
-4.15543e-17
-1.85108e-16
6.56348e-17
6.04026e-17
-2.05286e-16
1.46151e-16
7.09491e-17
-7.25208e-17
5.44547e-17
-4.39168e-17
0
0
-3.43014e-17
6.11428e-17
-2.67117e-17
2.43183e-17
-2.66262e-17
4.3166e-18
-7.66029e-18
7.77933e-17
7.22202e-17
-6.51657e-17
4.99611e-17
-5.89269e-17
-8.77346e-17
0
0
0
0
0
0
1.7521e-17
-4.52673e-17
4.78751e-17
-1.51196e-17
1.86614e-17
8.63765e-18
-7.30771e-18
1.61531e-16
-2.71864e-16
3.39823e-16
-1.55973e-16
2.16109e-16
-1.53714e-16
2.84875e-16
-1.59062e-16
-8.26282e-17
8.45249e-17
0
2.18985e-17
-1.71171e-17
4.07509e-17
-1.40913e-17
-1.75134e-17
-3.59056e-17
2.73723e-18
6.19283e-18
2.5159e-16
7.17877e-17
0
-1.10068e-16
-8.54835e-17
1.94546e-16
1.85381e-17
-7.63048e-17
4.49622e-17
-3.10746e-17
0
-1.73351e-17
0
-1.35825e-17
1.09048e-17
-9.6705e-18
-3.17944e-18
2.21688e-18
0
3.51124e-16
-7.58875e-17
3.16714e-16
-2.47768e-16
-4.90443e-17
1.89901e-16
-1.13877e-16
6.03479e-18
4.91317e-18
-3.02824e-17
2.91077e-17
0
0
1.66553e-17
-5.87518e-18
3.76204e-18
1.15129e-17
-4.00758e-18
0
7.32865e-20
0
-7.04194e-17
4.08732e-16
-2.75363e-16
-2.87102e-16
1.56875e-16
-1.59293e-16
1.46894e-16
7.11606e-17
-5.27211e-17
2.11309e-17
-1.86581e-17
3.37491e-18
2.96937e-17
9.47297e-19
-1.09909e-17
1.08678e-17
-2.24481e-18
8.51988e-16
-2.712e-16
1.29958e-16
-4.02749e-16
1.08653e-16
-1.67413e-16
9.04284e-17
0
0
-3.4477e-18
-4.75407e-18
-1.40308e-18
0
-2.63375e-17
-1.97474e-17
1.43519e-17
-1.05129e-18
1.9736e-18
4.48085e-18
0
-2.68435e-16
4.50422e-16
9.76907e-17
-3.62929e-16
9.59827e-17
-1.4492e-16
2.58958e-17
1.16316e-16
0
0
2.1274e-18
2.29615e-17
0
-1.99013e-17
-8.93683e-18
1.31795e-18
-4.57581e-18
-5.31408e-18
0
-1.67905e-16
3.99272e-17
3.03732e-16
2.23146e-16
-4.07197e-16
1.8397e-16
-1.25217e-16
6.73434e-17
-9.11083e-17
0
0
0
-3.65998e-17
9.32031e-18
-1.19245e-17
0
-7.37985e-19
3.68442e-18
-6.39503e-16
6.05079e-16
6.39718e-16
-7.75934e-16
3.57545e-16
-3.35296e-16
0
1.32231e-16
-1.79919e-16
1.03134e-16
-7.91556e-17
6.39107e-17
5.13764e-17
3.78522e-17
2.95489e-17
0
0
0
0
7.10069e-16
-4.06833e-16
0
0
-1.3103e-16
3.1491e-16
-2.01382e-16
-1.40277e-16
1.38696e-16
1.01131e-16
1.67941e-16
-6.63136e-17
2.84456e-17
2.12103e-17
1.54343e-17
1.28176e-17
2.06032e-17
-1.00941e-18
1.02818e-18
-7.18302e-16
6.57806e-16
3.47333e-16
-1.81295e-16
3.90072e-16
-2.50062e-16
-1.94903e-16
-1.62948e-16
0
-2.1283e-16
1.12164e-17
7.67683e-17
-5.91232e-17
-4.77384e-17
-1.76169e-17
-1.83235e-17
-1.46843e-17
0
0
-2.47111e-16
0
1.89708e-16
-2.32084e-19
0
0
2.01049e-16
1.6814e-16
0
1.15748e-16
0
-1.16628e-16
-3.283e-17
5.79935e-17
0
3.74171e-17
-5.26943e-18
5.37552e-18
0
5.27207e-16
0
3.64036e-16
-6.73317e-16
5.9729e-16
4.76241e-16
-1.58169e-17
0
1.3313e-17
1.36199e-16
0
-1.32744e-16
1.47334e-16
-1.31089e-16
-2.85592e-17
-2.99652e-17
-8.96483e-18
-1.62603e-18
-5.94061e-18
-4.8803e-16
7.02396e-16
-1.97365e-16
-5.13162e-16
-2.9473e-16
-2.5274e-16
-4.32487e-16
-1.71347e-16
1.47648e-17
6.19203e-17
-6.1804e-17
1.95409e-16
-8.64778e-17
1.72773e-16
-3.23575e-17
0
3.76866e-17
-2.24209e-17
5.96166e-18
1.08423e-15
-2.46484e-17
-8.17315e-16
6.70985e-16
-5.99671e-16
5.18891e-16
-1.76134e-17
-1.94181e-16
1.68362e-16
6.63659e-17
-8.8177e-18
-1.60875e-16
4.60919e-17
5.05013e-17
-1.50463e-17
1.52179e-17
-3.90341e-17
-4.60812e-18
-9.63788e-18
5.32259e-16
2.23694e-16
3.91407e-16
-3.42129e-16
-2.79776e-16
1.56885e-17
-2.12112e-16
5.12963e-16
1.8488e-17
2.35461e-16
1.37558e-16
-1.21766e-16
0
-8.47245e-17
0
0
5.65453e-17
2.46772e-17
1.12199e-17
4.98265e-16
0
3.86588e-16
3.39921e-16
-3.00443e-16
2.61067e-16
0
-2.00929e-16
-2.78089e-16
-2.41419e-16
-1.38775e-16
1.23143e-16
0
0
0
0
-5.30404e-17
-4.0456e-17
0
-9.76231e-16
0
-2.02281e-17
-1.7885e-17
4.58213e-16
-2.56474e-16
-1.17476e-16
-1.18094e-16
2.83901e-16
0
7.4406e-17
-7.8115e-18
6.81549e-17
0
0
9.0729e-17
-6.77847e-18
4.85952e-17
-1.89373e-17
6.86036e-16
1.96707e-16
-1.94677e-16
-1.71067e-16
-5.90335e-16
4.04127e-16
4.86409e-16
-1.44674e-17
-1.94587e-16
1.93777e-16
4.05612e-17
-2.07132e-16
-1.68662e-16
-1.04442e-16
-1.10921e-16
-1.0465e-16
8.87643e-17
-4.17667e-18
1.93958e-17
-2.10428e-16
9.528e-17
-4.58389e-16
7.79791e-17
-7.76954e-17
0
-2.4233e-16
-1.85583e-17
-2.25186e-16
2.09837e-17
2.2015e-16
1.61299e-16
-4.0015e-17
1.50453e-17
1.05362e-16
0
-1.85854e-16
-6.89818e-17
-1.42985e-18
4.29606e-16
-1.1626e-17
7.21138e-16
-3.42669e-16
7.18992e-19
9.0519e-18
2.71719e-16
-2.29815e-17
2.18393e-16
-2.04451e-16
-1.92535e-16
0
1.95818e-16
1.55515e-16
2.19169e-18
-3.19065e-18
1.0102e-16
7.0113e-17
0
-3.05086e-16
0
-7.21382e-17
3.26941e-16
4.84749e-18
7.48282e-17
-2.62748e-16
2.48062e-16
2.64339e-16
2.53519e-16
2.44181e-16
0
-1.90234e-16
0
1.0253e-17
-1.06487e-17
0
-1.02837e-18
5.07682e-17
2.12058e-16
1.16297e-17
-1.66119e-16
5.13537e-16
-1.64583e-16
0
0
-2.9891e-16
-2.56118e-16
-2.45603e-16
-4.48603e-16
-6.27788e-17
0
0
0
-2.11716e-17
2.24049e-17
1.44015e-16
-5.15456e-17
1.20907e-17
0
-3.59692e-16
-3.27726e-16
3.44278e-16
-3.41965e-16
-4.89282e-16
5.98272e-16
1.67745e-16
0
2.65424e-16
3.03409e-16
-6.55124e-17
3.56803e-16
-5.85117e-17
6.08964e-17
2.37453e-16
-1.36853e-16
0
-4.0483e-16
0
-3.8697e-16
3.78958e-16
0
6.81277e-16
3.19484e-16
-6.72949e-16
5.39823e-16
-3.3774e-18
-1.62944e-16
-2.93762e-16
0
4.08674e-16
-6.8406e-16
7.34466e-16
-9.36069e-16
0
0
4.03276e-16
-2.79751e-18
-6.8823e-18
-7.64858e-16
7.72596e-16
-3.7305e-16
3.7153e-16
3.66191e-16
-3.22195e-16
0
0
6.1204e-16
-6.22584e-16
-6.64017e-16
6.58734e-16
-6.42089e-16
6.94764e-16
-1.08859e-15
0
)
;

boundaryField
{
    up
    {
        type            calculated;
        value           nonuniform List<scalar> 
84
(
0
0
0
0
-3.68583e-17
6.62726e-17
-2.75717e-17
1.93958e-17
-1.6974e-17
0
-1.25979e-17
1.19607e-17
-7.92418e-18
9.20186e-19
7.61888e-19
5.42788e-18
0
0
-2.9335e-18
2.19293e-18
2.07887e-18
-2.01856e-18
1.81098e-19
0
8.12778e-19
4.00361e-19
-7.24669e-18
0
1.02239e-17
1.26243e-17
1.66595e-18
-2.91363e-18
1.17944e-18
0
-5.7713e-19
1.39002e-18
-1.34286e-18
2.15005e-18
0
-3.86229e-19
0
0
-2.01648e-19
3.97703e-19
-3.84272e-19
7.48872e-19
-1.42158e-18
1.41162e-18
-6.33589e-20
-1.41593e-18
0
0
0
-1.43508e-17
-1.95128e-18
1.19691e-18
0
-7.66029e-18
-7.30771e-18
5.3827e-18
0
0
-2.24481e-18
4.48085e-18
-5.31408e-18
3.68442e-18
0
1.02818e-18
0
0
-5.94061e-18
5.96166e-18
-9.63788e-18
1.12199e-17
0
-1.89373e-17
1.93958e-17
-1.42985e-18
0
5.07682e-17
-5.15456e-17
0
0
0
)
;
    }
    low
    {
        type            calculated;
        value           nonuniform List<scalar> 
84
(
-8.07423e-16
8.05415e-16
-3.92738e-16
6.21021e-16
1.09111e-16
-2.83557e-17
2.36978e-16
2.63926e-17
0
9.99946e-16
-2.5341e-16
2.06042e-16
-2.31366e-16
-1.51076e-15
2.46908e-16
0
-2.29962e-16
2.06247e-17
-1.98066e-17
-1.82723e-16
9.49012e-17
2.5226e-16
4.33825e-16
-3.84461e-16
0
-7.44639e-17
-3.83061e-17
0
-3.51281e-16
-9.9805e-17
-3.38253e-16
-3.66041e-16
3.96127e-16
1.35098e-16
9.27346e-16
7.42563e-17
0
6.20509e-16
6.06723e-16
3.4434e-16
-1.82749e-16
7.42065e-17
7.4209e-17
0
2.95257e-16
6.83754e-16
5.44506e-16
5.3656e-17
0
-1.28481e-15
7.89115e-16
9.12151e-20
9.44804e-20
3.0606e-16
0
-7.28469e-16
0
-4.15543e-17
7.77933e-17
1.60487e-16
2.49766e-16
3.49432e-16
7.32865e-20
8.50602e-16
0
0
-6.39503e-16
7.09411e-16
-7.17877e-16
-2.47111e-16
5.27244e-16
-4.8803e-16
1.08609e-15
5.33565e-16
4.98265e-16
-9.76231e-16
6.84594e-16
-2.08918e-16
4.29606e-16
-3.04475e-16
2.12058e-16
1.32085e-17
-4.0483e-16
4.03581e-16
)
;
    }
    left
    {
        type            calculated;
        value           nonuniform List<scalar> 
19
(
-8.06813e-16
-3.91984e-16
3.98616e-16
9.25179e-18
-7.57868e-16
0
-3.52721e-16
-3.4782e-16
-2.515e-17
-1.83727e-16
-1.61555e-18
-1.82972e-16
8.14694e-16
-1.81176e-16
8.46199e-16
7.30519e-16
4.34604e-16
6.37674e-16
0
)
;
    }
    right
    {
        type            calculated;
        value           nonuniform List<scalar> 
19
(
4.03276e-16
-2.475e-18
-6.8823e-18
-7.64864e-16
7.72823e-16
-3.7305e-16
3.7153e-16
3.66191e-16
-3.2102e-16
0
0
6.17811e-16
-6.30688e-16
-6.64017e-16
6.58734e-16
-6.42089e-16
6.94764e-16
-1.17718e-15
0
)
;
    }
    frontAndBackPlanes
    {
        type            empty;
    }
}


// ************************************************************************* //
