/*--------------------------------*- C++ -*----------------------------------*\
  =========                 |
  \\      /  F ield         | OpenFOAM: The Open Source CFD Toolbox
   \\    /   O peration     | Website:  https://openfoam.org
    \\  /    A nd           | Version:  7
     \\/     M anipulation  |
\*---------------------------------------------------------------------------*/
FoamFile
{
    version     2.0;
    format      ascii;
    class       volScalarField;
    location    "0.22";
    object      gradTx;
}
// * * * * * * * * * * * * * * * * * * * * * * * * * * * * * * * * * * * * * //

dimensions      [0 -1 0 1 0 0 0];

internalField   nonuniform List<scalar> 
1596
(
-0.228711
-1.14754
-2.05413
-2.86996
-3.58899
-4.20872
-4.7578
-5.25475
-5.72524
-6.21831
-6.74846
-7.37485
-8.16661
-9.22325
-10.6615
-12.7731
-16.0075
-21.3347
-30.7609
0.050455
-0.954647
-1.84724
-2.61733
-3.28257
-3.84653
-4.3352
-4.75788
-5.13392
-5.48919
-5.82745
-6.18115
-6.56294
-6.99104
-7.45519
-7.9348
-8.30412
-8.30566
-7.39221
0.279481
-0.77865
-1.64221
-2.358
-2.96187
-3.46509
-3.89017
-4.24326
-4.53736
-4.7866
-4.98989
-5.16467
-5.30806
-5.41857
-5.47585
-5.44346
-5.22125
-4.63293
-3.33149
0.316752
-0.683722
-1.47253
-2.11404
-2.64709
-3.08627
-3.44921
-3.74079
-3.9693
-4.14203
-4.25709
-4.32314
-4.33436
-4.28474
-4.15801
-3.92512
-3.52224
-2.84429
-1.68515
0.0964727
-0.71162
-1.36849
-1.91042
-2.36182
-2.73376
-3.03704
-3.27516
-3.45263
-3.57226
-3.63299
-3.63797
-3.58211
-3.45937
-3.25935
-2.96182
-2.52976
-1.90375
-0.965929
-0.3623
-0.87828
-1.35318
-1.77054
-2.12879
-2.42917
-2.67391
-2.86399
-3.0005
-3.08285
-3.11087
-3.08394
-2.99827
-2.84851
-2.62865
-2.32473
-1.9164
-1.37069
-0.621421
-0.972547
-1.17028
-1.43631
-1.71058
-1.96519
-2.18856
-2.37365
-2.51767
-2.61829
-2.67212
-2.67917
-2.63618
-2.54015
-2.38623
-2.17098
-1.88426
-1.51531
-1.04583
-0.438916
-1.61178
-1.53283
-1.59578
-1.72291
-1.86952
-2.01257
-2.13688
-2.23522
-2.302
-2.33137
-2.32284
-2.2713
-2.17393
-2.02606
-1.8255
-1.56429
-1.23687
-0.832926
-0.331943
-2.2735
-1.9987
-1.88116
-1.86019
-1.89035
-1.94294
-1.99747
-2.04265
-2.06993
-2.07131
-2.04507
-1.9847
-1.88699
-1.74702
-1.56278
-1.3274
-1.03769
-0.687364
-0.264619
-2.6713
-2.32464
-2.10048
-1.97328
-1.91117
-1.88783
-1.88206
-1.88038
-1.8725
-1.84914
-1.80731
-1.73986
-1.64309
-1.51199
-1.34442
-1.1343
-0.879528
-0.576088
-0.216945
-2.99626
-2.61932
-2.33102
-2.12511
-1.98509
-1.89176
-1.82696
-1.77732
-1.73206
-1.68138
-1.62125
-1.54417
-1.44593
-1.32129
-1.16772
-0.979478
-0.754693
-0.490354
-0.181972
-3.32827
-2.94859
-2.62026
-2.3525
-2.14247
-1.98007
-1.85278
-1.74947
-1.66029
-1.57571
-1.49105
-1.39867
-1.29379
-1.17084
-1.02666
-0.855523
-0.655222
-0.422947
-0.155273
-3.42109
-3.09203
-2.77144
-2.48404
-2.23871
-2.03417
-1.86422
-1.72135
-1.59793
-1.48573
-1.38025
-1.27434
-1.16312
-1.04103
-0.904587
-0.748193
-0.569349
-0.365279
-0.133016
-3.44661
-3.17277
-2.87851
-2.59165
-2.32856
-2.09553
-1.89251
-1.71632
-1.56224
-1.42402
-1.29796
-1.17772
-1.0586
-0.935197
-0.803794
-0.658903
-0.497675
-0.317212
-0.114683
-3.44431
-3.22046
-2.95863
-2.68377
-2.41491
-2.1637
-1.93534
-1.73109
-1.54952
-1.38678
-1.24043
-1.10524
-0.976871
-0.850219
-0.721425
-0.58509
-0.438022
-0.277106
-0.0994349
-3.36428
-3.19426
-2.97195
-2.72085
-2.46025
-2.20467
-1.96313
-1.74072
-1.53926
-1.35745
-1.19452
-1.04654
-0.909854
-0.779816
-0.652622
-0.523046
-0.387665
-0.243187
-0.0865627
-3.20281
-3.08418
-2.90544
-2.68699
-2.44675
-2.20015
-1.95838
-1.72935
-1.51766
-1.32445
-1.15072
-0.99404
-0.851619
-0.719461
-0.594005
-0.470313
-0.344893
-0.214394
-0.0756712
-3.01153
-2.9259
-2.78562
-2.6014
-2.38726
-2.15767
-1.92461
-1.6977
-1.48368
-1.28577
-1.10662
-0.945278
-0.799924
-0.667272
-0.544095
-0.425794
-0.308928
-0.190211
-0.0665352
-2.85109
-2.79197
-2.68107
-2.52446
-2.33246
-2.11805
-1.89339
-1.6693
-1.45419
-1.25301
-1.06986
-0.905081
-0.757673
-0.624941
-0.503887
-0.390101
-0.28013
-0.170784
-0.0591272
-2.56733
-2.5435
-2.46707
-2.34506
-2.18535
-1.99868
-1.79621
-1.58877
-1.38553
-1.19263
-1.01527
-0.854987
-0.711647
-0.58328
-0.467249
-0.359392
-0.256274
-0.154928
-0.0530129
-2.25134
-2.25534
-2.21003
-2.12095
-1.9941
-1.83813
-1.66277
-1.47816
-1.29357
-1.1157
-0.950376
-0.800026
-0.665249
-0.544749
-0.436251
-0.335737
-0.23949
-0.144363
-0.0487643
-1.92025
-1.94206
-1.92246
-1.86333
-1.76843
-1.64427
-1.49899
-1.34165
-1.18107
-1.02398
-0.876346
-0.741086
-0.619286
-0.510269
-0.412204
-0.32123
-0.232962
-0.142859
-0.0483711
-1.5516
-1.58202
-1.58321
-1.5526
-1.49094
-1.40216
-1.29241
-1.16914
-1.04019
-0.911762
-0.78934
-0.67595
-0.572837
-0.479927
-0.396119
-0.318226
-0.241451
-0.158795
-0.0613848
-1.13428
-1.11778
-1.07938
-1.01975
-0.943043
-0.855088
-0.7626
-0.671536
-0.586925
-0.511598
-0.446434
-0.390664
-0.342289
-0.2992
-0.259466
-0.220758
-0.179533
-0.129143
-0.0577482
-0.758129
-0.841585
-0.9304
-1.00878
-1.06582
-1.09482
-1.0944
-1.0667
-1.01719
-0.952248
-0.877507
-0.798223
-0.71748
-0.638633
-0.564418
-0.496788
-0.434731
-0.373868
-0.302906
-0.256035
-0.294017
-0.343184
-0.394645
-0.441772
-0.479891
-0.507315
-0.523878
-0.531485
-0.532309
-0.526977
-0.516436
-0.499204
-0.475271
-0.445719
-0.414337
-0.383747
-0.35698
-0.334057
0.246982
0.199712
0.132137
0.0525726
-0.0311188
-0.11249
-0.187541
-0.254174
-0.312457
-0.363262
-0.406085
-0.440404
-0.463042
-0.471932
-0.466715
-0.451602
-0.43106
-0.41064
-0.392386
0.748554
0.683904
0.591466
0.480609
0.360228
0.237981
0.119336
0.00746268
-0.0967222
-0.193541
-0.282201
-0.361279
-0.426091
-0.471818
-0.495112
-0.498867
-0.488634
-0.472757
-0.455792
1.20124
1.10909
0.986154
0.843443
0.690214
0.534396
0.381675
0.23516
0.0956709
-0.0375119
-0.164232
-0.283242
-0.389141
-0.474332
-0.530909
-0.557902
-0.559819
-0.547736
-0.530048
1.66955
1.54346
1.38615
1.20909
1.0219
0.832792
0.647459
0.468735
0.297064
0.130959
-0.0306276
-0.187836
-0.336133
-0.466465
-0.565872
-0.626671
-0.648134
-0.642077
-0.622223
2.02184
1.85693
1.6659
1.45995
1.2485
1.03888
0.835576
0.640124
0.451892
0.268159
0.0862667
-0.096307
-0.277834
-0.450672
-0.598688
-0.706069
-0.760518
-0.767628
-0.743966
2.35077
2.15274
1.92904
1.69518
1.4611
1.23323
1.01483
0.806273
0.606108
0.410724
0.21623
0.0175316
-0.187967
-0.397946
-0.598604
-0.770125
-0.884865
-0.930247
-0.914886
2.6544
2.41317
2.15455
1.89426
1.64103
1.39948
1.17125
0.955496
0.750153
0.551223
0.354476
0.153416
-0.0584303
-0.286332
-0.525763
-0.764926
-0.969375
-1.10212
-1.12634
2.85025
2.54371
2.2323
1.92978
1.64247
1.37268
1.12037
0.883693
0.660212
0.446027
0.237066
0.0269817
-0.192179
-0.431251
-0.697958
-0.999953
-1.32297
-1.63729
-1.88644
2.97106
2.63666
2.32142
2.03369
1.77366
1.53896
1.32603
1.13116
0.951007
0.78234
0.622762
0.46937
0.318823
0.165813
0.00274257
-0.185996
-0.415877
-0.704703
-1.05961
3.06028
2.71532
2.41094
2.14336
1.90616
1.6938
1.50114
1.32418
1.15992
1.00583
0.860643
0.723482
0.593758
0.471537
0.357624
0.251385
0.151323
0.05138
-0.0602559
2.89648
2.50295
2.1701
1.88463
1.63631
1.41778
1.22296
1.04724
0.887207
0.739857
0.603525
0.477027
0.359453
0.25075
0.152011
0.0644686
-0.00959001
-0.0674839
-0.107954
2.54282
2.18488
1.88696
1.63481
1.41801
1.22907
1.06202
0.912396
0.776964
0.653042
0.539125
0.434182
0.337331
0.248251
0.1672
0.0941743
0.0293967
-0.0267319
-0.0744886
2.11289
1.81256
1.56204
1.35068
1.16995
1.01331
0.875609
0.752894
0.642363
0.541682
0.449487
0.364802
0.286696
0.214647
0.14857
0.088178
0.0334357
-0.015345
-0.0583286
1.59109
1.35955
1.16835
1.00855
0.872992
0.756249
0.654137
0.5635
0.482124
0.408174
0.340555
0.278468
0.221126
0.168059
0.119145
0.0741503
0.0330801
-0.00373327
-0.0363227
1.00215
0.847738
0.724172
0.62288
0.537989
0.465437
0.402301
0.346452
0.296425
0.251026
0.209528
0.171398
0.136103
0.103313
0.0729244
0.0447796
0.0188897
-0.00448723
-0.0253055
0.384772
0.322457
0.274366
0.235478
0.203001
0.175235
0.15105
0.129651
0.110498
0.0931478
0.0773183
0.062793
0.049351
0.0368393
0.025182
0.0142854
0.00411639
-0.00525767
-0.0138257
-0.384587
-0.322047
-0.273804
-0.234817
-0.202279
-0.174482
-0.15029
-0.128904
-0.10978
-0.0924736
-0.0766996
-0.06224
-0.0488727
-0.0364436
-0.024875
-0.0140719
-0.00399957
0.00527753
0.0137502
-1.00197
-0.847376
-0.723679
-0.622304
-0.537364
-0.46479
-0.401654
-0.345822
-0.29583
-0.250477
-0.209037
-0.170974
-0.135756
-0.103048
-0.0727483
-0.044696
-0.0189008
0.00438215
0.0251097
-1.59092
-1.3592
-1.16787
-1.00798
-0.872362
-0.755585
-0.653462
-0.562833
-0.48148
-0.407566
-0.339994
-0.277963
-0.220685
-0.167686
-0.118842
-0.0739182
-0.0329168
0.00383219
0.0363629
-2.11277
-1.81232
-1.56171
-1.35029
-1.16952
-1.01287
-0.875159
-0.752459
-0.641956
-0.541314
-0.449168
-0.36454
-0.286496
-0.214513
-0.148502
-0.088174
-0.0334921
0.0152338
0.0581691
-2.54274
-2.18473
-1.88674
-1.63453
-1.4177
-1.22874
-1.06169
-0.912071
-0.776663
-0.652775
-0.538903
-0.434012
-0.337219
-0.248199
-0.167207
-0.0942353
-0.0295009
0.0265993
0.0743463
-2.89648
-2.50291
-2.17001
-1.8845
-1.63614
-1.4176
-1.22278
-1.04708
-0.887076
-0.73977
-0.603494
-0.477064
-0.359567
-0.250949
-0.152294
-0.0648244
0.00919633
0.0671106
0.10767
-3.06028
-2.71507
-2.41036
-2.14242
-1.90487
-1.69218
-1.49922
-1.322
-1.15753
-1.00327
-0.857935
-0.720655
-0.590828
-0.468513
-0.354531
-0.2483
-0.148433
-0.0490822
0.061307
-2.9716
-2.63808
-2.32377
-2.03694
-1.77775
-1.54382
-1.33159
-1.13734
-0.957737
-0.789571
-0.63047
-0.477572
-0.327594
-0.175316
-0.013237
0.174131
0.402282
0.689243
1.0427
-2.85003
-2.54311
-2.23126
-1.92831
-1.64057
-1.3704
-1.11777
-0.88083
-0.657141
-0.442808
-0.233756
-0.0236379
0.195498
0.4345
0.701162
1.00329
1.32691
1.64262
1.89422
-2.65458
-2.41361
-2.1552
-1.89508
-1.64199
-1.40054
-1.17238
-0.956676
-0.751371
-0.552474
-0.355764
-0.154748
0.0570589
0.284971
0.524546
0.764103
0.969242
1.10286
1.1277
-2.35088
-2.15301
-1.92945
-1.6957
-1.46171
-1.2339
-1.01554
-0.807015
-0.606876
-0.411513
-0.217035
-0.0183373
0.187202
0.397312
0.598245
0.770201
0.885454
0.93126
0.916115
-2.02196
-1.8572
-1.66632
-1.46049
-1.24913
-1.03957
-0.836304
-0.640874
-0.452649
-0.268906
-0.086987
0.0956463
0.27729
0.45033
0.598641
0.706374
0.761138
0.768442
0.744833
-1.66966
-1.54374
-1.38658
-1.20965
-1.02255
-0.833505
-0.648209
-0.469495
-0.297809
-0.131667
0.0299855
0.187298
0.335751
0.4663
0.565964
0.627014
0.648664
0.642706
0.622888
-1.20134
-1.10934
-0.986558
-0.843971
-0.690835
-0.535077
-0.382383
-0.235865
-0.0963427
0.0369002
0.16371
0.282845
0.388908
0.474294
0.531072
0.558237
0.560269
0.548248
0.530592
-0.748663
-0.684173
-0.591888
-0.481159
-0.360873
-0.238681
-0.120052
-0.00815777
0.0960806
0.192983
0.281753
0.36097
0.425944
0.471842
0.495295
0.499175
0.489025
0.473197
0.456268
-0.247075
-0.199968
-0.132546
-0.0531087
0.0304934
0.111819
0.186868
0.253538
0.311891
0.362796
0.405739
0.440196
0.46298
0.472013
0.466918
0.451899
0.431422
0.41105
0.39284
0.255817
0.293358
0.342068
0.393106
0.439895
0.477785
0.505107
0.521684
0.529409
0.530433
0.525351
0.515092
0.498147
0.474481
0.445159
0.413972
0.383554
0.356977
0.334333
0.75828
0.842164
0.931505
1.01044
1.068
1.09745
1.09734
1.06981
1.02035
0.955335
0.880436
0.800938
0.719953
0.640861
0.566419
0.498597
0.436383
0.375394
0.304311
1.13412
1.1172
1.07837
1.01835
0.941354
0.853212
0.76065
0.669613
0.585111
0.509953
0.44499
0.389435
0.34127
0.298378
0.258818
0.220262
0.179171
0.128906
0.0576481
1.55169
1.58221
1.5835
1.55296
1.49135
1.40258
1.29282
1.16951
1.0405
0.912013
0.789527
0.676079
0.57292
0.479974
0.39614
0.318229
0.241443
0.158783
0.0613791
1.92027
1.94208
1.92249
1.86337
1.76846
1.6443
1.49901
1.34166
1.18107
1.02398
0.876333
0.741066
0.619262
0.510245
0.412181
0.321209
0.232945
0.142848
0.048369
2.25136
2.25536
2.21005
2.12097
1.99413
1.83815
1.66278
1.47817
1.29357
1.11569
0.950361
0.800007
0.665229
0.544729
0.436234
0.335722
0.239479
0.144358
0.0487629
2.56734
2.54351
2.46708
2.34508
2.18537
1.99869
1.79622
1.58877
1.38553
1.19262
1.01526
0.854969
0.711629
0.583264
0.467235
0.359381
0.256267
0.154924
0.0530118
2.8511
2.79199
2.68109
2.52448
2.33248
2.11806
1.8934
1.6693
1.45418
1.253
1.06985
0.905067
0.757658
0.624929
0.503876
0.390093
0.280124
0.170781
0.0591262
3.01154
2.92591
2.78563
2.60142
2.38727
2.15768
1.92461
1.6977
1.48367
1.28576
1.10661
0.945265
0.799912
0.667261
0.544086
0.425786
0.308923
0.190208
0.0665342
3.20282
3.08419
2.90545
2.687
2.44676
2.20016
1.95838
1.72934
1.51765
1.32444
1.15071
0.994027
0.851607
0.719451
0.593996
0.470305
0.344887
0.21439
0.0756703
3.36428
3.19427
2.97196
2.72087
2.46026
2.20468
1.96313
1.74071
1.53925
1.35744
1.19451
1.04653
0.909843
0.779806
0.652613
0.523038
0.387659
0.243184
0.0865619
3.44431
3.22047
2.95864
2.68377
2.41491
2.1637
1.93534
1.73108
1.54951
1.38677
1.24042
1.10523
0.976859
0.850208
0.721415
0.585082
0.438015
0.277102
0.0994343
3.44662
3.17278
2.87852
2.59166
2.32856
2.09553
1.8925
1.71631
1.56223
1.42401
1.29794
1.17771
1.05858
0.935186
0.803784
0.658894
0.497669
0.317209
0.114683
3.4211
3.09205
2.77145
2.48405
2.23871
2.03417
1.86421
1.72134
1.59792
1.48572
1.38024
1.27433
1.16311
1.04102
0.904579
0.748186
0.569345
0.365277
0.133017
3.32826
2.94858
2.62026
2.35249
2.14246
1.98005
1.85277
1.74945
1.66028
1.5757
1.49103
1.39865
1.29377
1.17083
1.02665
0.855516
0.655219
0.422947
0.155274
2.99628
2.61933
2.33103
2.12512
1.98509
1.89175
1.82696
1.77731
1.73205
1.68137
1.62124
1.54416
1.44592
1.32129
1.16772
0.979476
0.754694
0.490356
0.181974
2.67133
2.32466
2.10049
1.97328
1.91117
1.88783
1.88205
1.88037
1.8725
1.84913
1.8073
1.73985
1.64308
1.51198
1.34441
1.1343
0.879532
0.576093
0.216947
2.27353
1.99871
1.88116
1.86019
1.89035
1.94293
1.99747
2.04265
2.06992
2.07131
2.04506
1.9847
1.88699
1.74703
1.56278
1.32741
1.03769
0.68737
0.264621
1.6118
1.53283
1.59579
1.72292
1.86952
2.01257
2.13688
2.23522
2.30199
2.33137
2.32284
2.2713
2.17393
2.02607
1.82551
1.5643
1.23688
0.832932
0.331944
0.972562
1.17028
1.43632
1.71058
1.9652
2.18856
2.37365
2.51767
2.61829
2.67212
2.67917
2.63619
2.54016
2.38624
2.17099
1.88427
1.51532
1.04584
0.438916
0.36231
0.878288
1.35318
1.77055
2.1288
2.42917
2.67391
2.86399
3.0005
3.08285
3.11087
3.08395
2.99827
2.84852
2.62866
2.32474
1.91641
1.37069
0.62142
-0.096467
0.711628
1.3685
1.91043
2.36183
2.73376
3.03705
3.27516
3.45263
3.57227
3.633
3.63797
3.58212
3.45938
3.25936
2.96183
2.52976
1.90375
0.965926
-0.316751
0.683727
1.47254
2.11404
2.64709
3.08627
3.44921
3.7408
3.9693
4.14203
4.25709
4.32315
4.33437
4.28474
4.15802
3.92512
3.52223
2.84428
1.68515
-0.279483
0.778651
1.64221
2.35799
2.96187
3.46509
3.89017
4.24326
4.53737
4.78661
4.9899
5.16468
5.30807
5.41857
5.47584
5.44345
5.22124
4.63292
3.33148
-0.0504552
0.954647
1.84724
2.61733
3.28257
3.84653
4.3352
4.75788
5.13393
5.48919
5.82746
6.18115
6.56294
6.99104
7.45518
7.93479
8.30411
8.30565
7.39221
0.228713
1.14754
2.05413
2.86996
3.58899
4.20873
4.75781
5.25475
5.72524
6.21831
6.74846
7.37484
8.1666
9.22323
10.6615
12.7731
16.0075
21.3347
30.7609
)
;

boundaryField
{
    up
    {
        type            calculated;
        value           nonuniform List<scalar> 
84
(
-30.7609
-7.39221
-3.33149
-1.68515
-0.965929
-0.621421
-0.438916
-0.331943
-0.264619
-0.216945
-0.181972
-0.155273
-0.133016
-0.114683
-0.0994349
-0.0865627
-0.0756712
-0.0665352
-0.0591272
-0.0530129
-0.0487643
-0.0483711
-0.0613848
-0.0577482
-0.258682
-0.311772
-0.36981
-0.430742
-0.501033
-0.587353
-0.698979
-0.84592
-1.01898
-1.86378
-1.09484
-0.062278
-0.107742
-0.0743087
-0.0582258
-0.0362869
-0.0252942
-0.0138283
0.0137529
0.0250988
0.0363275
0.0580671
0.0741673
0.107458
0.0633009
1.07748
1.87297
1.02019
0.846987
0.699781
0.587985
0.501559
0.43121
0.370266
0.312178
0.259955
0.0576481
0.0613791
0.048369
0.0487629
0.0530118
0.0591262
0.0665342
0.0756703
0.0865619
0.0994343
0.114683
0.133017
0.155274
0.181974
0.216947
0.264621
0.331944
0.438916
0.62142
0.965926
1.68515
3.33148
7.39221
30.7609
)
;
    }
    low
    {
        type            calculated;
        value           nonuniform List<scalar> 
84
(
-0.206121
0.0845956
0.334716
0.376913
0.134372
-0.369325
-1.0305
-1.7093
-2.38642
-2.76404
-3.07739
-3.39295
-3.44757
-3.44942
-3.43209
-3.33039
-3.15053
-2.95447
-2.78267
-2.47811
-2.15229
-1.81966
-1.4538
-1.04884
-0.691617
-0.232076
0.219698
0.680635
1.11388
1.58182
1.94948
2.29149
2.61436
2.83548
2.97654
3.08978
2.95146
2.6024
2.16646
1.63397
1.03066
0.396727
-0.396541
-1.03048
-1.63379
-2.16631
-2.60229
-2.95143
-3.08974
-2.97699
-2.83527
-2.61451
-2.29159
-1.94959
-1.58193
-1.11399
-0.680748
-0.219793
0.231863
0.691765
1.04869
1.45387
1.81967
2.15231
2.47811
2.78268
2.95448
3.15054
3.3304
3.43209
3.44942
3.44758
3.39294
3.0774
2.76406
2.38644
1.70932
1.03052
0.369337
-0.134366
-0.376914
-0.334721
-0.0845988
0.206122
)
;
    }
    left
    {
        type            calculated;
        value           nonuniform List<scalar> 
19
(
-0.203015
-1.10172
-2.02676
-2.87079
-3.62075
-4.26938
-4.84751
-5.37678
-5.88272
-6.42681
-7.02306
-7.73799
-8.66179
-9.92759
-11.682
-14.3355
-18.5115
-25.5653
-26.6798
)
;
    }
    right
    {
        type            calculated;
        value           nonuniform List<scalar> 
19
(
0.203017
1.10173
2.02676
2.87079
3.62075
4.26938
4.84751
5.37678
5.88272
6.42681
7.02306
7.73798
8.66178
9.92757
11.682
14.3355
18.5115
25.5653
26.6798
)
;
    }
    frontAndBackPlanes
    {
        type            empty;
    }
}


// ************************************************************************* //
