/*--------------------------------*- C++ -*----------------------------------*\
  =========                 |
  \\      /  F ield         | OpenFOAM: The Open Source CFD Toolbox
   \\    /   O peration     | Website:  https://openfoam.org
    \\  /    A nd           | Version:  7
     \\/     M anipulation  |
\*---------------------------------------------------------------------------*/
FoamFile
{
    version     2.0;
    format      ascii;
    class       volScalarField;
    location    "0.22";
    object      T;
}
// * * * * * * * * * * * * * * * * * * * * * * * * * * * * * * * * * * * * * //

dimensions      [0 0 0 1 0 0 0];

internalField   nonuniform List<scalar> 
1596
(
4.98563
4.94447
4.90256
4.86324
4.82747
4.79495
4.76502
4.7361
4.70701
4.67498
4.63785
4.59265
4.53299
4.45013
4.33066
4.14493
3.8379
3.2996
2.30961
4.93791
4.8099
4.68976
4.58037
4.48194
4.39305
4.31168
4.23448
4.15845
4.07838
3.9898
3.88728
3.76113
3.59968
3.38865
3.10153
2.69764
2.10729
1.19858
4.88159
4.66654
4.47416
4.30273
4.15012
4.01343
3.88942
3.77363
3.66197
3.54823
3.42703
3.29212
3.13362
2.94041
2.70047
2.39372
1.99303
1.45705
0.708942
4.82616
4.52986
4.27246
4.04656
3.8473
3.67026
3.51119
3.36496
3.22687
3.09038
2.94988
2.79905
2.62865
2.42889
2.19009
1.89733
1.53267
1.07172
0.469813
4.78039
4.41409
4.09989
3.82644
3.58671
3.37514
3.18672
3.01594
2.85781
2.70576
2.55421
2.397
2.22564
2.03152
1.80664
1.53955
1.21785
0.826708
0.339489
4.74987
4.32878
3.96679
3.65201
3.37665
3.13465
2.92061
2.7289
2.55443
2.39074
2.23237
2.07333
1.90578
1.72195
1.51492
1.27538
0.994142
0.66153
0.260881
4.73525
4.2764
3.87623
3.52599
3.21891
2.94929
2.71184
2.50105
2.31189
2.1381
1.97438
1.81491
1.6523
1.47939
1.28987
1.07574
0.82959
0.544501
0.209271
4.7331
4.25273
3.82425
3.44448
3.10927
2.81424
2.55474
2.32568
2.12229
1.93859
1.76945
1.6092
1.45083
1.28755
1.11343
0.92124
0.704549
0.457857
0.172965
4.74007
4.252
3.80451
3.40102
3.04118
2.7227
2.44213
2.19514
1.9774
1.78329
1.60792
1.44579
1.29014
1.13449
0.973079
0.799157
0.60684
0.391316
0.146023
4.74925
4.26243
3.80407
3.38288
3.00241
2.66301
2.36283
2.09859
1.86663
1.66182
1.47953
1.31446
1.1601
1.01015
0.85901
0.700188
0.528102
0.33826
0.125023
4.75651
4.2746
3.8112
3.37778
2.98103
2.62382
2.30615
2.02599
1.78053
1.5652
1.37576
1.2071
1.05296
0.907219
0.764349
0.618067
0.462957
0.294645
0.108013
4.76543
4.29064
3.8255
3.38346
2.97362
2.60111
2.26775
1.97286
1.71455
1.48894
1.29218
1.11941
0.964589
0.821758
0.685438
0.549488
0.40858
0.25836
0.0939906
4.77377
4.30708
3.84221
3.39413
2.9738
2.58827
2.24106
1.93282
1.66266
1.42735
1.2235
1.04651
0.89054
0.749766
0.618748
0.491436
0.362551
0.227706
0.0822216
4.7787
4.31858
3.85484
3.40264
2.97415
2.57794
2.21899
1.8992
1.61862
1.37473
1.16455
0.983757
0.826693
0.687644
0.561199
0.441376
0.322917
0.20138
0.0721756
4.78273
4.32729
3.86423
3.4086
2.97329
2.56801
2.19897
1.86917
1.57954
1.3282
1.11257
0.928561
0.770671
0.633269
0.510956
0.397786
0.288505
0.178606
0.0635381
4.78658
4.33462
3.87142
3.41227
2.97069
2.55727
2.1793
1.84072
1.54322
1.2855
1.06532
0.878778
0.720485
0.584854
0.466463
0.359379
0.258331
0.158735
0.0560575
4.78903
4.33919
3.87502
3.41206
2.96442
2.54355
2.1576
1.81136
1.50717
1.24421
1.02051
0.832284
0.674205
0.540683
0.426246
0.324946
0.231477
0.141176
0.049507
4.79061
4.34159
3.87557
3.40833
2.95458
2.52656
2.13327
1.78022
1.47033
1.20314
0.976893
0.787821
0.630609
0.499613
0.389277
0.293613
0.207263
0.125479
0.0437114
4.79416
4.34637
3.87797
3.40572
2.94525
2.50973
2.10898
1.74928
1.43403
1.16309
0.934806
0.745387
0.589442
0.461222
0.35505
0.26487
0.185249
0.111339
0.0385485
4.79873
4.35324
3.8825
3.40483
2.9371
2.49359
2.08512
1.7187
1.39822
1.12381
0.893845
0.70444
0.550064
0.42481
0.32285
0.238044
0.164877
0.0983801
0.0338809
4.80217
4.35915
3.88639
3.40334
2.92825
2.47668
2.06049
1.68749
1.36204
1.0845
0.853246
0.664221
0.511707
0.389593
0.291887
0.212374
0.145489
0.0861543
0.0295519
4.80575
4.36531
3.89077
3.40249
2.92004
2.46032
2.03633
1.65673
1.32636
1.04581
0.813387
0.624849
0.474244
0.355226
0.261622
0.187176
0.126353
0.0740749
0.025349
4.81006
4.37277
3.89677
3.40344
2.91369
2.44579
2.01391
1.6276
1.29218
1.00847
0.774716
0.58647
0.437533
0.321297
0.231384
0.161513
0.106309
0.0609857
0.0207155
4.81477
4.38112
3.90398
3.40587
2.90904
2.43312
1.99345
1.60041
1.25983
0.972711
0.73727
0.548878
0.401111
0.287092
0.200202
0.134083
0.0835707
0.0445172
0.0134201
4.82245
4.39998
3.93056
3.43687
2.94146
2.46441
2.02162
1.62407
1.27814
0.985335
0.744367
0.551027
0.399192
0.282144
0.193297
0.126212
0.075719
0.0379145
0.010025
4.83102
4.42473
3.97026
3.4893
3.00351
2.53239
2.09168
1.69255
1.34189
1.04199
0.792424
0.589954
0.429334
0.304525
0.209313
0.137297
0.0830588
0.0422953
0.0116923
4.83541
4.43996
3.99737
3.52806
3.05248
2.58909
2.15298
1.75504
1.40228
1.09743
0.840742
0.629911
0.46065
0.327796
0.225755
0.148348
0.0900345
0.0461832
0.013032
4.83569
4.44527
4.01102
3.55191
3.08683
2.63279
2.20376
1.80989
1.45786
1.15052
0.888582
0.670497
0.492969
0.351886
0.242562
0.1593
0.0966084
0.0495931
0.0140859
4.83334
4.44365
4.0151
3.56513
3.11085
2.66752
2.24761
1.86019
1.51131
1.20365
0.938102
0.713732
0.528142
0.378374
0.260935
0.170974
0.103309
0.0528589
0.0150064
4.82869
4.43707
4.01288
3.57175
3.1288
2.69736
2.28824
1.90921
1.56549
1.25935
0.991703
0.761972
0.568477
0.409361
0.282547
0.184469
0.110726
0.0562555
0.015892
4.82287
4.42876
4.00886
3.57686
3.14587
2.72729
2.33017
1.96093
1.6239
1.32081
1.05243
0.818315
0.617196
0.448056
0.310213
0.201791
0.119906
0.0601462
0.0168242
4.8187
4.42336
4.00842
3.58607
3.16755
2.76238
2.37795
2.0194
1.69012
1.39136
1.1236
0.886361
0.678425
0.49911
0.348685
0.226957
0.133315
0.0653395
0.0178132
4.81502
4.41944
4.01041
3.59857
3.19333
2.8024
2.4316
2.08484
1.76471
1.47194
1.20678
0.96864
0.756082
0.568205
0.405345
0.268084
0.157864
0.0755178
0.0189269
4.81168
4.41705
4.01518
3.61498
3.22403
2.84831
2.49216
2.15841
1.84894
1.56409
1.30397
1.06796
0.854466
0.662142
0.490622
0.339775
0.211019
0.10702
0.0289052
4.80766
4.41259
4.01604
3.62542
3.24662
2.8841
2.54096
2.21907
1.91974
1.64296
1.3888
1.1567
0.945142
0.752648
0.578239
0.420475
0.278775
0.154086
0.0472287
4.79983
4.39706
3.99871
3.61057
3.23703
2.88126
2.54534
2.23038
1.93713
1.66525
1.41466
1.1848
0.97422
0.781647
0.606314
0.446756
0.302033
0.171961
0.0554255
4.78927
4.3744
3.97014
3.58035
3.20795
2.85497
2.52264
2.21138
1.92148
1.65226
1.40347
1.17454
0.964103
0.771091
0.595146
0.435297
0.29128
0.163662
0.0518516
4.78066
4.35607
3.94716
3.55616
3.18479
2.83417
2.5048
2.1966
1.90948
1.64251
1.39538
1.16754
0.957683
0.764936
0.589192
0.429713
0.28647
0.160247
0.0505502
4.77481
4.34316
3.93072
3.53873
3.16804
2.81912
2.49192
2.18596
1.90091
1.63564
1.38979
1.16282
0.953503
0.761063
0.585556
0.426374
0.283629
0.158257
0.0498374
4.77045
4.33353
3.91846
3.52571
3.15551
2.80783
2.48222
2.17791
1.89437
1.63036
1.38548
1.15921
0.950343
0.758179
0.582885
0.423944
0.28157
0.15682
0.0493348
4.76726
4.32647
3.9095
3.51622
3.14637
2.79955
2.47506
2.17189
1.88942
1.6263
1.38212
1.15636
0.947834
0.755895
0.580782
0.422039
0.279958
0.155692
0.048934
4.76445
4.32105
3.90306
3.50965
3.14018
2.79401
2.47027
2.16787
1.8861
1.62358
1.37989
1.15452
0.946286
0.754563
0.579627
0.421051
0.279161
0.155155
0.0487556
4.76446
4.32107
3.90308
3.50968
3.14022
2.79405
2.47031
2.1679
1.88613
1.62362
1.37993
1.15455
0.946313
0.754587
0.579647
0.421067
0.279172
0.155162
0.0487578
4.76728
4.32653
3.90957
3.51631
3.14647
2.79966
2.47517
2.172
1.88953
1.62641
1.38222
1.15645
0.947917
0.755969
0.580843
0.422088
0.279994
0.155713
0.0489416
4.77048
4.33361
3.91858
3.52585
3.15567
2.808
2.4824
2.17808
1.89454
1.63053
1.38564
1.15936
0.950474
0.758293
0.582981
0.42402
0.281624
0.156853
0.0493461
4.77486
4.34327
3.93088
3.53892
3.16826
2.81935
2.49216
2.1862
1.90114
1.63586
1.39
1.16301
0.953675
0.761213
0.585681
0.426472
0.2837
0.158299
0.0498518
4.78072
4.35621
3.94736
3.5564
3.18505
2.83445
2.5051
2.19689
1.90977
1.64279
1.39564
1.16777
0.957893
0.765117
0.589342
0.42983
0.286554
0.160297
0.0505668
4.78933
4.37456
3.97037
3.58063
3.20825
2.8553
2.52298
2.21172
1.92182
1.65257
1.40376
1.17481
0.964339
0.771291
0.595309
0.435421
0.291365
0.16371
0.0518664
4.7999
4.39724
3.99896
3.61088
3.23738
2.88163
2.54572
2.23076
1.93751
1.66561
1.41499
1.18508
0.974465
0.781845
0.606461
0.446852
0.302083
0.171979
0.0554267
4.80774
4.41284
4.01643
3.62594
3.24725
2.88481
2.54173
2.21989
1.92058
1.64381
1.38964
1.15753
0.945945
0.753421
0.578975
0.421157
0.27937
0.154528
0.0474174
4.81178
4.41734
4.01565
3.61561
3.2248
2.84919
2.49313
2.15944
1.85
1.56516
1.30504
1.06902
0.855487
0.663111
0.491515
0.340555
0.211635
0.107419
0.0290484
4.81511
4.41969
4.01083
3.59913
3.19401
2.80317
2.43245
2.08573
1.76562
1.47284
1.20767
0.969492
0.756877
0.568921
0.405954
0.268556
0.158177
0.0756734
0.0189577
4.81878
4.42359
4.00881
3.58659
3.16819
2.76311
2.37875
2.02023
1.69097
1.39219
1.1244
0.887106
0.679095
0.499684
0.349143
0.227286
0.133517
0.0654365
0.0178378
4.82294
4.42897
4.00921
3.57735
3.14648
2.72798
2.33091
1.96171
1.62467
1.32157
1.05314
0.818964
0.617762
0.448523
0.310571
0.202039
0.120057
0.0602217
0.0168452
4.82875
4.43726
4.01321
3.57221
3.12936
2.69801
2.28893
1.90993
1.5662
1.26004
0.992339
0.762539
0.568959
0.409749
0.282837
0.184669
0.110849
0.0563191
0.0159104
4.83339
4.44382
4.0154
3.56555
3.11136
2.66811
2.24825
1.86085
1.51196
1.20427
0.938665
0.714226
0.528555
0.3787
0.261178
0.171141
0.103414
0.0529145
0.0150232
4.83573
4.44541
4.01128
3.55228
3.08729
2.63333
2.20434
1.81049
1.45844
1.15107
0.889078
0.670927
0.493324
0.352165
0.242769
0.159444
0.0967008
0.0496436
0.0141018
4.83545
4.44009
3.9976
3.52839
3.05289
2.58957
2.1535
1.75557
1.40279
1.09791
0.841177
0.630285
0.460958
0.328037
0.225936
0.148477
0.0901189
0.0462313
0.0130482
4.83105
4.42484
3.97046
3.48959
3.00387
2.53281
2.09214
1.69302
1.34234
1.04242
0.792803
0.590279
0.429603
0.304737
0.209474
0.137415
0.0831389
0.0423434
0.0117101
4.82245
4.4
3.9306
3.43694
2.94156
2.46453
2.02176
1.62421
1.27827
0.985463
0.74448
0.551121
0.399266
0.282198
0.193332
0.126231
0.0757253
0.037913
0.0100218
4.81476
4.38109
3.90392
3.4058
2.90896
2.43303
1.99336
1.60033
1.25975
0.972636
0.737204
0.54882
0.401061
0.287048
0.200163
0.134049
0.083543
0.0444965
0.0134101
4.81006
4.37276
3.89676
3.40343
2.91368
2.44578
2.01391
1.6276
1.29219
1.00848
0.774725
0.586481
0.437545
0.321309
0.231395
0.161522
0.106316
0.0609899
0.0207165
4.80575
4.3653
3.89076
3.40248
2.92003
2.46031
2.03633
1.65673
1.32637
1.04582
0.813396
0.624859
0.474254
0.355236
0.26163
0.187183
0.126357
0.0740776
0.0253497
4.80217
4.35915
3.88638
3.40334
2.92825
2.47668
2.06049
1.68749
1.36204
1.08451
0.853253
0.66423
0.511715
0.389601
0.291893
0.21238
0.145492
0.0861563
0.0295524
4.79873
4.35324
3.8825
3.40483
2.93709
2.49359
2.08512
1.71871
1.39823
1.12382
0.893851
0.704447
0.550071
0.424816
0.322855
0.238048
0.164879
0.0983815
0.0338813
4.79416
4.34637
3.87797
3.40572
2.94525
2.50973
2.10898
1.74929
1.43403
1.1631
0.934811
0.745393
0.589447
0.461226
0.355054
0.264873
0.185251
0.11134
0.0385488
4.79061
4.34159
3.87557
3.40833
2.95458
2.52656
2.13327
1.78023
1.47034
1.20315
0.976897
0.787826
0.630613
0.499616
0.38928
0.293615
0.207264
0.12548
0.0437116
4.78903
4.33919
3.87502
3.41206
2.96442
2.54355
2.1576
1.81136
1.50717
1.24421
1.02051
0.832287
0.674208
0.540686
0.426248
0.324948
0.231478
0.141176
0.049507
4.78658
4.33462
3.87142
3.41228
2.97069
2.55728
2.1793
1.84072
1.54322
1.2855
1.06533
0.87878
0.720487
0.584855
0.466464
0.359379
0.258331
0.158735
0.0560574
4.78273
4.32729
3.86423
3.4086
2.9733
2.56801
2.19897
1.86918
1.57955
1.3282
1.11258
0.928562
0.770672
0.63327
0.510956
0.397786
0.288505
0.178605
0.063538
4.7787
4.31858
3.85484
3.40264
2.97415
2.57794
2.21899
1.8992
1.61862
1.37473
1.16455
0.983757
0.826693
0.687643
0.561198
0.441375
0.322916
0.20138
0.0721755
4.77377
4.30708
3.84221
3.39413
2.9738
2.58828
2.24106
1.93283
1.66266
1.42735
1.2235
1.04651
0.890539
0.749764
0.618746
0.491434
0.36255
0.227705
0.0822215
4.76543
4.29065
3.8255
3.38346
2.97362
2.60111
2.26775
1.97285
1.71455
1.48894
1.29218
1.11941
0.964587
0.821755
0.685435
0.549485
0.408578
0.258359
0.0939906
4.75652
4.2746
3.8112
3.37778
2.98103
2.62382
2.30615
2.02599
1.78053
1.5652
1.37576
1.20709
1.05295
0.907215
0.764346
0.618065
0.462955
0.294644
0.108013
4.74925
4.26243
3.80407
3.38288
3.00241
2.66301
2.36283
2.09859
1.86663
1.66181
1.47953
1.31445
1.16009
1.01015
0.859007
0.700185
0.5281
0.338259
0.125023
4.74007
4.252
3.8045
3.40102
3.04117
2.7227
2.44213
2.19513
1.97739
1.78328
1.60792
1.44578
1.29014
1.13448
0.973076
0.799155
0.606839
0.391316
0.146023
4.7331
4.25273
3.82424
3.44447
3.10927
2.81424
2.55474
2.32568
2.12229
1.93858
1.76944
1.6092
1.45083
1.28755
1.11343
0.921238
0.704548
0.457857
0.172965
4.73525
4.2764
3.87622
3.52599
3.2189
2.94929
2.71184
2.50104
2.31189
2.1381
1.97438
1.8149
1.6523
1.47938
1.28987
1.07574
0.82959
0.544501
0.209272
4.74987
4.32878
3.96679
3.65201
3.37664
3.13464
2.9206
2.7289
2.55443
2.39073
2.23236
2.07332
1.90577
1.72194
1.51492
1.27538
0.994143
0.661531
0.260882
4.78039
4.41409
4.09989
3.82644
3.58671
3.37513
3.18671
3.01593
2.8578
2.70575
2.55421
2.39699
2.22563
2.03151
1.80664
1.53955
1.21785
0.826709
0.339489
4.82616
4.52986
4.27245
4.04656
3.8473
3.67026
3.51119
3.36495
3.22687
3.09037
2.94987
2.79904
2.62865
2.42889
2.19009
1.89734
1.53267
1.07172
0.469813
4.88159
4.66653
4.47416
4.30273
4.15012
4.01342
3.88941
3.77363
3.66197
3.54823
3.42703
3.29212
3.13362
2.94041
2.70047
2.39372
1.99303
1.45705
0.708942
4.93791
4.80989
4.68976
4.58037
4.48194
4.39304
4.31168
4.23448
4.15845
4.07837
3.9898
3.88728
3.76113
3.59968
3.38865
3.10153
2.69764
2.10729
1.19858
4.98563
4.94447
4.90256
4.86324
4.82747
4.79495
4.76502
4.7361
4.70701
4.67498
4.63785
4.59265
4.53299
4.45013
4.33066
4.14493
3.8379
3.2996
2.3096
)
;

boundaryField
{
    up
    {
        type            fixedValue;
        value           uniform 0;
    }
    low
    {
        type            fixedValue;
        value           uniform 5;
    }
    left
    {
        type            fixedValue;
        value           uniform 5;
    }
    right
    {
        type            fixedValue;
        value           uniform 5;
    }
    frontAndBackPlanes
    {
        type            empty;
    }
}


// ************************************************************************* //
