/*--------------------------------*- C++ -*----------------------------------*\
  =========                 |
  \\      /  F ield         | OpenFOAM: The Open Source CFD Toolbox
   \\    /   O peration     | Website:  https://openfoam.org
    \\  /    A nd           | Version:  7
     \\/     M anipulation  |
\*---------------------------------------------------------------------------*/
FoamFile
{
    version     2.0;
    format      ascii;
    class       volScalarField;
    location    "0.22";
    object      gradTx;
}
// * * * * * * * * * * * * * * * * * * * * * * * * * * * * * * * * * * * * * //

dimensions      [0 -1 0 1 0 0 0];

internalField   nonuniform List<scalar> 
1596
(
-0.0457422
-0.229508
-0.410826
-0.573992
-0.717798
-0.841745
-0.951561
-1.05095
-1.14505
-1.24366
-1.34969
-1.47497
-1.63332
-1.84465
-2.1323
-2.55462
-3.20149
-4.26694
-6.15219
0.010091
-0.190929
-0.369449
-0.523466
-0.656515
-0.769307
-0.867039
-0.951575
-1.02678
-1.09784
-1.16549
-1.23623
-1.31259
-1.39821
-1.49104
-1.58696
-1.66082
-1.66113
-1.47844
0.0558962
-0.15573
-0.328441
-0.471599
-0.592374
-0.693019
-0.778034
-0.848651
-0.907472
-0.95732
-0.997978
-1.03293
-1.06161
-1.08371
-1.09517
-1.08869
-1.04425
-0.926587
-0.666297
0.0633504
-0.136744
-0.294507
-0.422808
-0.529418
-0.617253
-0.689841
-0.748159
-0.79386
-0.828406
-0.851417
-0.864629
-0.866872
-0.856948
-0.831602
-0.785024
-0.704447
-0.568857
-0.33703
0.0192945
-0.142324
-0.273699
-0.382084
-0.472365
-0.546752
-0.607409
-0.655033
-0.690527
-0.714453
-0.726598
-0.727593
-0.716422
-0.691875
-0.65187
-0.592364
-0.505952
-0.38075
-0.193186
-0.0724599
-0.175656
-0.270635
-0.354109
-0.425758
-0.485834
-0.534782
-0.572798
-0.600099
-0.61657
-0.622173
-0.616789
-0.599653
-0.569702
-0.52573
-0.464945
-0.38328
-0.274138
-0.124284
-0.194509
-0.234055
-0.287263
-0.342115
-0.393039
-0.437712
-0.474731
-0.503534
-0.523659
-0.534424
-0.535833
-0.527237
-0.50803
-0.477247
-0.434197
-0.376852
-0.303062
-0.209166
-0.0877832
-0.322356
-0.306565
-0.319157
-0.344583
-0.373905
-0.402515
-0.427376
-0.447044
-0.460399
-0.466274
-0.464568
-0.454259
-0.434785
-0.405213
-0.365099
-0.312858
-0.247374
-0.166585
-0.0663886
-0.454701
-0.39974
-0.376231
-0.372038
-0.37807
-0.388587
-0.399495
-0.40853
-0.413985
-0.414263
-0.409014
-0.39694
-0.377398
-0.349405
-0.312556
-0.265481
-0.207537
-0.137473
-0.0529238
-0.53426
-0.464928
-0.420095
-0.394656
-0.382234
-0.377566
-0.376412
-0.376076
-0.374501
-0.369827
-0.361462
-0.347971
-0.328618
-0.302397
-0.268883
-0.226859
-0.175906
-0.115218
-0.0433891
-0.599253
-0.523863
-0.466203
-0.425023
-0.397019
-0.378352
-0.365393
-0.355464
-0.346412
-0.336275
-0.324249
-0.308834
-0.289186
-0.264259
-0.233544
-0.195896
-0.150939
-0.0980707
-0.0363944
-0.665653
-0.589717
-0.524053
-0.4705
-0.428493
-0.396013
-0.370557
-0.349894
-0.332058
-0.315142
-0.298209
-0.279733
-0.258757
-0.234168
-0.205332
-0.171105
-0.131044
-0.0845895
-0.0310547
-0.684218
-0.618407
-0.554288
-0.496808
-0.447742
-0.406834
-0.372844
-0.34427
-0.319586
-0.297146
-0.27605
-0.254868
-0.232623
-0.208206
-0.180917
-0.149639
-0.11387
-0.0730557
-0.0266033
-0.689323
-0.634554
-0.575701
-0.51833
-0.465711
-0.419107
-0.378502
-0.343263
-0.312448
-0.284804
-0.259591
-0.235544
-0.211719
-0.187039
-0.160759
-0.131781
-0.0995349
-0.0634423
-0.0229366
-0.688862
-0.644092
-0.591727
-0.536753
-0.482982
-0.43274
-0.387069
-0.346218
-0.309905
-0.277356
-0.248087
-0.221048
-0.195374
-0.170044
-0.144285
-0.117018
-0.0876044
-0.0554211
-0.019887
-0.672855
-0.638851
-0.594389
-0.544171
-0.49205
-0.440934
-0.392627
-0.348144
-0.307852
-0.271491
-0.238904
-0.209308
-0.181971
-0.155963
-0.130524
-0.104609
-0.077533
-0.0486375
-0.0173125
-0.640563
-0.616836
-0.581088
-0.537399
-0.489351
-0.440031
-0.391677
-0.34587
-0.303533
-0.264891
-0.230145
-0.198808
-0.170324
-0.143892
-0.118801
-0.0940626
-0.0689786
-0.0428787
-0.0151342
-0.602305
-0.58518
-0.557123
-0.52028
-0.477452
-0.431535
-0.384921
-0.339541
-0.296736
-0.257153
-0.221324
-0.189056
-0.159985
-0.133454
-0.108819
-0.0851588
-0.0617856
-0.0380422
-0.013307
-0.570218
-0.558395
-0.536215
-0.504892
-0.466492
-0.42361
-0.378678
-0.333861
-0.290837
-0.250601
-0.213972
-0.181016
-0.151535
-0.124988
-0.100777
-0.0780202
-0.056026
-0.0341568
-0.0118254
-0.513466
-0.508699
-0.493413
-0.469012
-0.43707
-0.399736
-0.359242
-0.317754
-0.277106
-0.238527
-0.203055
-0.170997
-0.142329
-0.116656
-0.0934498
-0.0718784
-0.0512549
-0.0309856
-0.0106026
-0.450269
-0.451067
-0.442006
-0.42419
-0.398821
-0.367626
-0.332553
-0.295632
-0.258714
-0.223139
-0.190075
-0.160005
-0.13305
-0.10895
-0.0872503
-0.0671474
-0.0478979
-0.0288727
-0.00975286
-0.38405
-0.388412
-0.384492
-0.372667
-0.353686
-0.328854
-0.299797
-0.268329
-0.236213
-0.204796
-0.175269
-0.148217
-0.123857
-0.102054
-0.0824408
-0.0642459
-0.0465924
-0.0285717
-0.00967421
-0.310321
-0.316404
-0.316643
-0.31052
-0.298188
-0.280432
-0.258483
-0.233828
-0.208038
-0.182352
-0.157868
-0.13519
-0.114567
-0.0959855
-0.0792237
-0.0636451
-0.0482901
-0.031759
-0.012277
-0.226856
-0.223556
-0.215877
-0.20395
-0.188609
-0.171018
-0.15252
-0.134307
-0.117385
-0.10232
-0.0892868
-0.0781329
-0.0684577
-0.05984
-0.0518931
-0.0441516
-0.0359065
-0.0258286
-0.0115496
-0.151626
-0.168317
-0.18608
-0.201755
-0.213163
-0.218964
-0.21888
-0.213339
-0.203438
-0.19045
-0.175501
-0.159645
-0.143496
-0.127727
-0.112884
-0.0993576
-0.0869461
-0.0747736
-0.0605812
-0.0512071
-0.0588033
-0.0686369
-0.0789289
-0.0883545
-0.0959781
-0.101463
-0.104776
-0.106297
-0.106462
-0.105395
-0.103287
-0.0998408
-0.0950542
-0.0891438
-0.0828675
-0.0767495
-0.071396
-0.0668113
0.0493965
0.0399425
0.0264275
0.0105145
-0.00622376
-0.022498
-0.0375083
-0.0508349
-0.0624914
-0.0726524
-0.0812171
-0.0880809
-0.0926084
-0.0943864
-0.093343
-0.0903204
-0.086212
-0.0821281
-0.0784772
0.149711
0.136781
0.118293
0.0961217
0.0720456
0.0475962
0.0238671
0.00149254
-0.0193444
-0.0387082
-0.0564402
-0.0722558
-0.0852182
-0.0943636
-0.0990224
-0.0997734
-0.0977269
-0.0945513
-0.0911585
0.240248
0.221818
0.197231
0.168689
0.138043
0.106879
0.076335
0.0470321
0.0191342
-0.00750239
-0.0328464
-0.0566484
-0.0778283
-0.0948665
-0.106182
-0.11158
-0.111964
-0.109547
-0.10601
0.33391
0.308692
0.27723
0.241819
0.204381
0.166558
0.129492
0.0937471
0.0594128
0.0261919
-0.00612552
-0.0375672
-0.0672265
-0.0932929
-0.113174
-0.125334
-0.129627
-0.128415
-0.124445
0.404368
0.371385
0.33318
0.291991
0.249701
0.207776
0.167115
0.128025
0.0903785
0.0536317
0.0172533
-0.0192614
-0.0555668
-0.0901343
-0.119738
-0.141214
-0.152104
-0.153526
-0.148793
0.470154
0.430547
0.385808
0.339035
0.292221
0.246646
0.202966
0.161255
0.121222
0.0821448
0.043246
0.00350632
-0.0375934
-0.0795891
-0.119721
-0.154025
-0.176973
-0.186049
-0.182977
0.530879
0.482635
0.43091
0.378851
0.328207
0.279896
0.234251
0.191099
0.150031
0.110245
0.0708952
0.0306831
-0.0116861
-0.0572663
-0.105153
-0.152985
-0.193875
-0.220424
-0.225269
0.570051
0.508742
0.446459
0.385957
0.328493
0.274535
0.224073
0.176739
0.132042
0.0892055
0.0474132
0.00539634
-0.0384359
-0.0862503
-0.139592
-0.199991
-0.264595
-0.327458
-0.377289
0.594212
0.527332
0.464284
0.406739
0.354732
0.307792
0.265206
0.226232
0.190201
0.156468
0.124552
0.0938739
0.0637646
0.0331626
0.000548514
-0.0371992
-0.0831754
-0.140941
-0.211922
0.612055
0.543064
0.482188
0.428672
0.381232
0.338761
0.300228
0.264835
0.231983
0.201166
0.172129
0.144696
0.118752
0.0943074
0.0715248
0.0502771
0.0302646
0.010276
-0.0120512
0.579295
0.500589
0.434019
0.376926
0.327261
0.283556
0.244591
0.209449
0.177441
0.147971
0.120705
0.0954054
0.0718905
0.05015
0.0304022
0.0128937
-0.001918
-0.0134968
-0.0215909
0.508563
0.436976
0.377393
0.326961
0.283602
0.245814
0.212404
0.182479
0.155393
0.130608
0.107825
0.0868364
0.0674662
0.0496502
0.0334399
0.0188349
0.00587934
-0.00534638
-0.0148977
0.422579
0.362512
0.312408
0.270136
0.233989
0.202663
0.175122
0.150579
0.128473
0.108336
0.0898974
0.0729604
0.0573392
0.0429294
0.0297141
0.0176356
0.00668715
-0.003069
-0.0116657
0.318219
0.271909
0.233671
0.20171
0.174598
0.15125
0.130827
0.1127
0.0964248
0.0816349
0.0681109
0.0556935
0.0442252
0.0336118
0.023829
0.0148301
0.00661602
-0.000746653
-0.00726453
0.200429
0.169548
0.144834
0.124576
0.107598
0.0930874
0.0804603
0.0692903
0.059285
0.0502053
0.0419056
0.0342796
0.0272206
0.0206626
0.0145849
0.00895592
0.00377793
-0.000897447
-0.0050611
0.0769544
0.0644914
0.0548732
0.0470956
0.0406002
0.0350469
0.0302099
0.0259302
0.0220996
0.0186296
0.0154637
0.0125586
0.00987019
0.00736786
0.0050364
0.00285707
0.000823278
-0.00105153
-0.00276514
-0.0769175
-0.0644094
-0.0547608
-0.0469633
-0.0404558
-0.0348964
-0.0300581
-0.0257808
-0.0219561
-0.0184947
-0.0153399
-0.012448
-0.00977455
-0.00728872
-0.004975
-0.00281438
-0.000799914
0.00105551
0.00275005
-0.200395
-0.169475
-0.144736
-0.124461
-0.107473
-0.0929579
-0.0803308
-0.0691645
-0.0591659
-0.0500955
-0.0418074
-0.0341949
-0.0271511
-0.0206097
-0.0145497
-0.0089392
-0.00378016
0.00087643
0.00502194
-0.318184
-0.271839
-0.233575
-0.201596
-0.174472
-0.151117
-0.130692
-0.112567
-0.0962959
-0.0815133
-0.0679988
-0.0555927
-0.044137
-0.0335371
-0.0237685
-0.0147836
-0.00658335
0.000766437
0.00727259
-0.422553
-0.362464
-0.312342
-0.270058
-0.233903
-0.202573
-0.175032
-0.150492
-0.128391
-0.108263
-0.0898336
-0.072908
-0.0572993
-0.0429026
-0.0297004
-0.0176348
-0.00669842
0.00304677
0.0116338
-0.508547
-0.436945
-0.377349
-0.326907
-0.28354
-0.245749
-0.212338
-0.182414
-0.155333
-0.130555
-0.107781
-0.0868024
-0.0674438
-0.0496398
-0.0334414
-0.0188471
-0.00590018
0.00531986
0.0148693
-0.579295
-0.500582
-0.434002
-0.3769
-0.327229
-0.283521
-0.244556
-0.209417
-0.177415
-0.147954
-0.120699
-0.0954128
-0.0719134
-0.0501898
-0.0304588
-0.0129649
0.00183927
0.0134221
0.021534
-0.612055
-0.543014
-0.482072
-0.428484
-0.380973
-0.338436
-0.299844
-0.2644
-0.231505
-0.200654
-0.171587
-0.144131
-0.118166
-0.0937026
-0.0709062
-0.04966
-0.0296866
-0.00981644
0.0122614
-0.594319
-0.527617
-0.464754
-0.407388
-0.35555
-0.308765
-0.266319
-0.227468
-0.191547
-0.157914
-0.126094
-0.0955143
-0.0655188
-0.0350632
-0.00264739
0.0348263
0.0804565
0.137849
0.208541
-0.570007
-0.508622
-0.446252
-0.385662
-0.328114
-0.274081
-0.223554
-0.176166
-0.131428
-0.0885616
-0.0467512
-0.00472759
0.0390995
0.0869001
0.140232
0.200657
0.265381
0.328523
0.378844
-0.530916
-0.482723
-0.431041
-0.379017
-0.328398
-0.280107
-0.234477
-0.191335
-0.150274
-0.110495
-0.0711528
-0.0309496
0.0114118
0.0569942
0.104909
0.152821
0.193848
0.220571
0.225539
-0.470177
-0.430602
-0.38589
-0.33914
-0.292341
-0.246779
-0.203108
-0.161403
-0.121375
-0.0823025
-0.0434069
-0.00366745
0.0374404
0.0794625
0.119649
0.15404
0.177091
0.186252
0.183223
-0.404392
-0.371441
-0.333264
-0.292098
-0.249826
-0.207914
-0.167261
-0.128175
-0.0905298
-0.0537812
-0.0173974
0.0191293
0.055458
0.090066
0.119728
0.141275
0.152228
0.153688
0.148967
-0.333932
-0.308747
-0.277315
-0.241929
-0.20451
-0.166701
-0.129642
-0.0938989
-0.0595618
-0.0263333
0.00599711
0.0374595
0.0671503
0.09326
0.113193
0.125403
0.129733
0.128541
0.124578
-0.240267
-0.221869
-0.197312
-0.168794
-0.138167
-0.107015
-0.0764767
-0.0471729
-0.0192685
0.00738005
0.032742
0.0565689
0.0777816
0.0948589
0.106214
0.111647
0.112054
0.10965
0.106118
-0.149733
-0.136835
-0.118378
-0.0962318
-0.0721746
-0.0477362
-0.0240103
-0.00163155
0.0192161
0.0385966
0.0563507
0.072194
0.0851887
0.0943684
0.0990589
0.0998349
0.097805
0.0946394
0.0912536
-0.0494151
-0.0399936
-0.0265092
-0.0106217
0.00609868
0.0223637
0.0373735
0.0507076
0.0623782
0.0725591
0.0811479
0.0880393
0.0925961
0.0944026
0.0933836
0.0903797
0.0862843
0.0822099
0.078568
0.0511634
0.0586716
0.0684135
0.0786212
0.0879789
0.095557
0.101021
0.104337
0.105882
0.106087
0.10507
0.103018
0.0996293
0.0948962
0.0890318
0.0827944
0.0767107
0.0713954
0.0668667
0.151656
0.168433
0.186301
0.202088
0.2136
0.219489
0.219467
0.213962
0.204069
0.191067
0.176087
0.160188
0.143991
0.128172
0.113284
0.0997194
0.0872767
0.0750789
0.0608622
0.226823
0.223439
0.215674
0.203671
0.188271
0.170642
0.15213
0.133923
0.117022
0.101991
0.088998
0.077887
0.068254
0.0596756
0.0517636
0.0440524
0.0358342
0.0257811
0.0115296
0.310339
0.316442
0.316699
0.310592
0.29827
0.280517
0.258565
0.233902
0.208101
0.182403
0.157905
0.135216
0.114584
0.0959949
0.079228
0.0636458
0.0482885
0.0317566
0.0122758
0.384054
0.388417
0.384498
0.372673
0.353693
0.32886
0.299802
0.268333
0.236214
0.204795
0.175267
0.148213
0.123852
0.102049
0.0824361
0.0642417
0.046589
0.0285696
0.0096738
0.450272
0.451071
0.442011
0.424195
0.398826
0.367631
0.332557
0.295634
0.258714
0.223137
0.190072
0.160001
0.133046
0.108946
0.0872467
0.0671444
0.0478958
0.0288715
0.00975258
0.513468
0.508702
0.493417
0.469016
0.437074
0.399738
0.359244
0.317754
0.277105
0.238524
0.203052
0.170994
0.142326
0.116653
0.093447
0.0718763
0.0512534
0.0309848
0.0106024
0.57022
0.558398
0.536219
0.504896
0.466496
0.423612
0.378679
0.333861
0.290836
0.250599
0.213969
0.181013
0.151532
0.124986
0.100775
0.0780185
0.0560248
0.0341562
0.0118252
0.602307
0.585182
0.557126
0.520283
0.477454
0.431536
0.384922
0.33954
0.296735
0.257151
0.221321
0.189053
0.159982
0.133452
0.108817
0.0851573
0.0617845
0.0380416
0.0133068
0.640564
0.616838
0.58109
0.537401
0.489352
0.440031
0.391677
0.345869
0.303531
0.264889
0.230142
0.198805
0.170321
0.14389
0.118799
0.0940611
0.0689775
0.042878
0.0151341
0.672857
0.638854
0.594392
0.544173
0.492052
0.440935
0.392627
0.348143
0.307851
0.271489
0.238902
0.209306
0.181969
0.155961
0.130523
0.104608
0.0775318
0.0486367
0.0173124
0.688862
0.644093
0.591728
0.536754
0.482983
0.43274
0.387068
0.346216
0.309903
0.277353
0.248084
0.221046
0.195372
0.170042
0.144283
0.117016
0.0876031
0.0554204
0.0198869
0.689324
0.634556
0.575703
0.518331
0.465712
0.419106
0.378501
0.343261
0.312446
0.284802
0.259589
0.235542
0.211717
0.187037
0.160757
0.131779
0.0995337
0.0634418
0.0229366
0.68422
0.618409
0.55429
0.49681
0.447743
0.406834
0.372843
0.344269
0.319585
0.297144
0.276048
0.254866
0.232621
0.208204
0.180916
0.149637
0.113869
0.0730555
0.0266034
0.665652
0.589717
0.524052
0.470499
0.428491
0.396011
0.370554
0.349891
0.332055
0.31514
0.298207
0.279731
0.258755
0.234165
0.205331
0.171103
0.131044
0.0845894
0.0310549
0.599256
0.523867
0.466205
0.425024
0.397019
0.378351
0.365392
0.355462
0.34641
0.336274
0.324247
0.308832
0.289184
0.264257
0.233543
0.195895
0.150939
0.0980712
0.0363948
0.534266
0.464932
0.420097
0.394656
0.382234
0.377565
0.376411
0.376075
0.374499
0.369826
0.361461
0.34797
0.328616
0.302397
0.268883
0.22686
0.175906
0.115219
0.0433895
0.454706
0.399743
0.376233
0.372038
0.37807
0.388587
0.399494
0.408529
0.413984
0.414262
0.409013
0.396939
0.377397
0.349405
0.312557
0.265482
0.207539
0.137474
0.0529241
0.32236
0.306567
0.319157
0.344583
0.373905
0.402514
0.427376
0.447044
0.460398
0.466273
0.464568
0.454259
0.434786
0.405214
0.365101
0.31286
0.247376
0.166586
0.0663887
0.194512
0.234057
0.287264
0.342116
0.393039
0.437712
0.474731
0.503534
0.523659
0.534423
0.535833
0.527237
0.508032
0.477248
0.434199
0.376854
0.303064
0.209167
0.0877831
0.072462
0.175658
0.270636
0.35411
0.425759
0.485835
0.534783
0.572798
0.600099
0.61657
0.622174
0.61679
0.599655
0.569704
0.525732
0.464947
0.383282
0.274138
0.124284
-0.0192934
0.142326
0.2737
0.382085
0.472365
0.546752
0.607409
0.655033
0.690527
0.714453
0.726599
0.727595
0.716423
0.691877
0.651872
0.592366
0.505953
0.38075
0.193185
-0.0633502
0.136745
0.294508
0.422809
0.529419
0.617253
0.689841
0.748159
0.793861
0.828407
0.851418
0.86463
0.866873
0.856949
0.831603
0.785024
0.704447
0.568856
0.337029
-0.0558966
0.15573
0.328441
0.471599
0.592374
0.693019
0.778034
0.848652
0.907473
0.957321
0.997979
1.03294
1.06161
1.08371
1.09517
1.08869
1.04425
0.926585
0.666296
-0.010091
0.190929
0.369448
0.523465
0.656514
0.769306
0.86704
0.951576
1.02679
1.09784
1.16549
1.23623
1.31259
1.39821
1.49104
1.58696
1.66082
1.66113
1.47844
0.0457425
0.229508
0.410826
0.573992
0.717798
0.841745
0.951561
1.05095
1.14505
1.24366
1.34969
1.47497
1.63332
1.84465
2.13229
2.55462
3.20149
4.26693
6.15219
)
;

boundaryField
{
    up
    {
        type            calculated;
        value           nonuniform List<scalar> 
84
(
-6.15219
-1.47844
-0.666297
-0.33703
-0.193186
-0.124284
-0.0877832
-0.0663886
-0.0529238
-0.0433891
-0.0363944
-0.0310547
-0.0266033
-0.0229366
-0.019887
-0.0173125
-0.0151342
-0.013307
-0.0118254
-0.0106026
-0.00975286
-0.00967421
-0.012277
-0.0115496
-0.0517364
-0.0623545
-0.0739621
-0.0861484
-0.100207
-0.117471
-0.139796
-0.169184
-0.203795
-0.372755
-0.218967
-0.0124556
-0.0215485
-0.0148617
-0.0116452
-0.00725738
-0.00505885
-0.00276567
0.00275057
0.00501976
0.00726551
0.0116134
0.0148335
0.0214916
0.0126602
0.215497
0.374594
0.204038
0.169397
0.139956
0.117597
0.100312
0.086242
0.0740532
0.0624356
0.051991
0.0115296
0.0122758
0.0096738
0.00975258
0.0106024
0.0118252
0.0133068
0.0151341
0.0173124
0.0198869
0.0229366
0.0266034
0.0310549
0.0363948
0.0433895
0.0529241
0.0663887
0.0877831
0.124284
0.193185
0.337029
0.666296
1.47844
6.15219
)
;
    }
    low
    {
        type            calculated;
        value           nonuniform List<scalar> 
84
(
-0.0412243
0.0169191
0.0669432
0.0753826
0.0268744
-0.0738651
-0.2061
-0.34186
-0.477284
-0.552808
-0.615478
-0.678591
-0.689514
-0.689884
-0.686418
-0.666079
-0.630107
-0.590893
-0.556534
-0.495621
-0.430458
-0.363931
-0.290759
-0.209768
-0.138323
-0.0464152
0.0439395
0.136127
0.222777
0.316364
0.389896
0.458298
0.522872
0.567097
0.595307
0.617956
0.590293
0.52048
0.433292
0.326795
0.206132
0.0793454
-0.0793082
-0.206097
-0.326758
-0.433262
-0.520458
-0.590286
-0.617948
-0.595398
-0.567054
-0.522901
-0.458318
-0.389919
-0.316386
-0.222798
-0.13615
-0.0439585
0.0463726
0.138353
0.209738
0.290775
0.363935
0.430461
0.495623
0.556536
0.590895
0.630108
0.66608
0.686418
0.689885
0.689516
0.678588
0.61548
0.552813
0.477288
0.341863
0.206103
0.0738674
-0.0268733
-0.0753828
-0.0669442
-0.0169198
0.0412244
)
;
    }
    left
    {
        type            calculated;
        value           nonuniform List<scalar> 
19
(
-0.040603
-0.220345
-0.405352
-0.574159
-0.72415
-0.853876
-0.969502
-1.07536
-1.17654
-1.28536
-1.40461
-1.5476
-1.73236
-1.98552
-2.33641
-2.8671
-3.70231
-5.11307
-5.33596
)
;
    }
    right
    {
        type            calculated;
        value           nonuniform List<scalar> 
19
(
0.0406034
0.220345
0.405352
0.574159
0.72415
0.853877
0.969503
1.07536
1.17654
1.28536
1.40461
1.5476
1.73236
1.98551
2.3364
2.8671
3.70231
5.11307
5.33596
)
;
    }
    frontAndBackPlanes
    {
        type            empty;
    }
}


// ************************************************************************* //
