/*--------------------------------*- C++ -*----------------------------------*\
  =========                 |
  \\      /  F ield         | OpenFOAM: The Open Source CFD Toolbox
   \\    /   O peration     | Website:  https://openfoam.org
    \\  /    A nd           | Version:  7
     \\/     M anipulation  |
\*---------------------------------------------------------------------------*/
FoamFile
{
    version     2.0;
    format      ascii;
    class       volScalarField;
    location    "0.22";
    object      gradTz;
}
// * * * * * * * * * * * * * * * * * * * * * * * * * * * * * * * * * * * * * //

dimensions      [0 -1 0 1 0 0 0];

internalField   nonuniform List<scalar> 
1596
(
-1.61363e-16
-7.83323e-17
7.97232e-17
1.84918e-18
-1.51528e-16
0
-7.05443e-17
-6.9564e-17
-4.79489e-18
-3.67453e-17
-3.2311e-19
-3.65944e-17
1.61318e-16
-3.62353e-17
1.6924e-16
1.46104e-16
8.69209e-17
1.09816e-16
0
1.61083e-16
0
2.2612e-16
-1.66821e-18
-6.89295e-17
6.82925e-17
1.41294e-16
4.58129e-18
6.68387e-17
-3.22585e-17
6.4405e-17
-9.38312e-19
-8.94047e-17
-5.59097e-17
-1.36812e-16
-1.33545e-16
-1.21538e-16
6.92138e-17
0
-7.87712e-17
0
-1.4705e-16
2.64739e-18
1.33988e-16
-3.80423e-17
3.13017e-18
-9.27152e-19
-9.22547e-19
-9.68456e-19
2.40352e-17
0
4.6372e-17
1.31386e-16
-1.29635e-17
1.04732e-17
2.46122e-17
3.8568e-17
0
1.24023e-16
-3.69736e-17
3.68386e-17
0
-3.53369e-17
-3.66983e-17
6.17834e-17
-5.34261e-17
0
0
-1.98621e-17
1.25558e-17
0
-3.8606e-17
-4.9006e-17
3.40154e-17
-3.52265e-17
-1.81095e-18
0
2.16999e-17
5.71717e-17
-5.11166e-17
0
-1.49457e-17
-4.55918e-17
0
6.78022e-17
-6.72032e-18
-6.08755e-18
-6.37032e-18
3.50955e-17
4.3371e-17
4.53454e-18
1.91622e-18
-3.67767e-17
1.85018e-18
1.70558e-17
-7.37167e-18
-5.63511e-18
-7.84054e-17
7.40782e-17
-6.40689e-17
-1.43798e-19
-5.5916e-17
1.57176e-18
-1.57698e-18
-4.36788e-17
0
-5.30624e-18
-4.15457e-17
-3.91637e-17
3.15941e-17
3.33556e-17
-4.53892e-19
-2.00101e-17
-1.72995e-17
1.32545e-17
4.70936e-17
-7.97391e-17
8.86193e-17
4.92561e-17
0
4.29958e-17
2.50268e-17
-1.202e-17
5.53394e-17
-1.03445e-17
-4.40302e-17
3.84665e-19
-2.59026e-17
-3.17401e-17
-2.46146e-17
2.10977e-17
2.01862e-17
-2.70445e-19
-5.51433e-18
4.99012e-18
1.2685e-16
-1.47773e-16
0
0
-5.26559e-17
0
0
0
3.53864e-17
0
0
2.38162e-17
8.49541e-19
6.83465e-18
-1.84757e-17
0
9.83211e-18
3.87915e-18
0
-8.18182e-17
1.57078e-16
0
0
5.42282e-17
0
-2.02465e-17
2.02261e-17
-3.60183e-17
1.48813e-17
-1.49902e-17
0
2.1609e-17
2.15339e-17
0
-1.24169e-17
-1.00447e-17
-3.39479e-18
1.99653e-16
-9.31025e-17
0
-6.42028e-17
6.34843e-17
0
4.57297e-17
0
0
0
1.35729e-17
-1.3638e-17
0
-1.67197e-17
-4.74784e-18
0
1.53921e-18
7.0195e-18
0
-5.0682e-17
0
0
6.43524e-17
-1.19447e-16
6.67679e-18
2.55122e-18
-1.84995e-17
2.22734e-18
8.46632e-19
-1.41614e-17
-2.24694e-17
0
1.69449e-17
-3.44181e-18
3.49347e-18
9.34809e-18
-5.52781e-18
-2.51958e-18
4.13944e-17
-4.86819e-18
3.97806e-17
1.34196e-16
-7.87418e-18
-5.5395e-17
0
0
0
2.91685e-17
1.15062e-17
4.1313e-17
-9.96417e-18
-1.66418e-17
-9.73065e-18
-5.40082e-18
2.41512e-18
-5.28123e-18
2.39213e-18
-4.62731e-17
4.53669e-17
-8.3443e-17
-1.32578e-16
1.2205e-16
4.72422e-17
-8.68065e-17
7.40557e-17
-6.31233e-17
1.64973e-17
1.23608e-17
-1.11608e-17
6.99062e-18
-6.39218e-18
1.88301e-17
0
-1.43341e-18
1.06321e-17
-1.58484e-18
-3.02144e-16
1.38031e-16
1.10552e-19
-2.93285e-17
4.1533e-18
4.58542e-17
-8.67599e-17
-3.50511e-17
2.94402e-17
-2.46082e-17
-2.06688e-17
0
-2.31415e-17
-6.85656e-18
-1.21195e-17
-7.19939e-18
5.65666e-19
-6.53666e-18
1.84037e-19
4.93815e-17
-4.36385e-17
8.13125e-20
-3.28683e-17
-8.06007e-17
7.56173e-17
3.63932e-19
3.41572e-17
-2.86639e-17
4.70884e-17
1.1091e-17
8.95438e-18
2.70861e-17
0
2.21812e-17
1.0193e-17
0
3.51917e-18
1.52378e-19
0
4.23344e-17
3.25766e-17
-6.81876e-17
7.8055e-17
-1.16056e-16
8.11438e-17
2.97132e-17
-4.81893e-18
-4.66709e-17
8.29067e-18
-8.24976e-18
-2.44663e-17
9.54766e-18
-4.83534e-18
-1.00525e-17
4.2816e-18
-2.67081e-18
1.08558e-18
-4.59924e-17
1.54069e-16
-1.14988e-16
6.13546e-17
0
0
-1.56143e-17
3.35579e-17
-2.29981e-17
4.29529e-17
0
0
1.63488e-17
-1.41562e-17
-9.80459e-18
3.10281e-18
-3.34129e-18
1.77532e-18
0
4.12494e-18
4.30152e-17
-3.40363e-17
-2.94703e-17
-4.6486e-17
-1.41991e-17
2.07158e-17
0
-2.15159e-17
-1.7049e-17
1.51513e-17
-1.20961e-17
9.60738e-18
0
3.77039e-18
7.17615e-18
0
0
0
-3.96131e-18
6.73911e-17
2.49141e-17
-8.91406e-17
2.41058e-17
2.03612e-17
0
0
2.02138e-17
-1.05739e-17
-1.46546e-17
1.16991e-17
-9.29107e-18
0
-2.37326e-18
1.95668e-18
0
-1.66958e-18
-5.867e-19
-3.65446e-17
1.07243e-16
-1.2903e-16
-5.03699e-17
2.659e-17
-1.91966e-17
1.57999e-17
0
-1.03064e-17
8.45435e-18
0
0
3.5678e-18
-3.57191e-18
1.03492e-18
-1.43111e-18
2.34467e-18
3.19276e-19
4.38585e-19
1.89802e-17
-1.69392e-17
8.52925e-17
-5.49147e-17
-2.17308e-17
3.06944e-18
3.28005e-17
1.20432e-17
9.86166e-18
0
5.35788e-18
-4.94018e-18
3.83754e-18
-3.18128e-18
3.94938e-18
-6.74615e-18
-1.82542e-18
1.58583e-18
4.15773e-19
5.0452e-17
-5.13301e-17
0
4.52299e-17
-2.40295e-17
-1.73053e-17
1.14094e-17
-3.69572e-17
0
-6.70418e-19
-6.31028e-18
-4.37648e-18
6.16808e-18
-5.16684e-19
-3.81701e-18
2.77782e-18
0
9.73881e-19
-4.03712e-19
8.71035e-17
-1.51777e-17
6.3366e-17
-4.95598e-17
2.62486e-17
2.139e-18
-2.95601e-17
-9.61841e-18
1.71202e-17
-7.99385e-19
-9.38539e-18
7.79163e-18
-3.35532e-18
-4.24056e-18
0
0
0
-9.82788e-19
3.62197e-20
-7.68921e-17
7.472e-17
5.54047e-20
1.10432e-17
9.32898e-18
-2.18933e-17
2.54285e-17
-2.0382e-17
1.70104e-17
-5.36843e-18
1.01457e-17
3.47474e-18
-1.44916e-18
7.06756e-20
-4.83756e-19
-8.48635e-19
0
0
0
0
0
3.56647e-17
-1.80564e-17
-5.33095e-17
0
0
-5.93049e-18
-9.28478e-18
7.58276e-18
0
-4.38228e-18
3.30643e-18
-1.06815e-17
1.21936e-17
-3.84811e-18
4.08834e-18
4.40206e-19
0
-1.48928e-17
1.50761e-17
0
-1.17543e-17
1.18942e-17
1.91854e-17
0
5.98712e-18
7.46432e-18
-3.38712e-17
0
-4.9545e-18
3.76236e-18
2.59455e-18
-1.8833e-18
2.71742e-18
0
-9.71954e-19
0
-7.66122e-18
-7.54829e-18
4.46708e-19
1.20772e-17
-3.1914e-17
0
-7.91338e-18
0
2.13272e-17
8.35263e-18
0
1.96555e-17
-2.02252e-17
2.14685e-18
-4.14184e-18
1.32179e-18
5.24505e-18
1.93101e-18
-1.53046e-18
0
1.57584e-17
-1.35727e-17
1.67954e-17
1.97464e-17
0
1.60443e-17
-1.5043e-17
-1.14751e-17
1.67469e-17
-2.50855e-17
-1.18387e-17
0
0
2.39589e-18
0
0
6.59798e-19
0
-7.02562e-17
5.40197e-17
0
9.07713e-19
-1.14629e-17
-6.20955e-19
9.96511e-18
6.86224e-18
-8.80616e-18
-2.13502e-17
3.30336e-17
-9.01282e-18
0
-4.06363e-18
0
0
0
-2.55668e-18
2.04478e-18
-1.9961e-17
1.85424e-17
4.88898e-17
-4.75998e-17
1.44613e-17
8.75397e-19
-1.01192e-17
8.57175e-18
1.43065e-17
1.06962e-17
-2.11008e-17
0
1.03507e-17
1.20485e-18
-4.65297e-18
-9.8639e-18
8.09055e-18
-1.25383e-18
2.39956e-18
-6.78658e-17
9.61355e-17
-9.51489e-17
1.65126e-17
1.37929e-17
-1.30386e-17
1.08832e-17
-8.45701e-18
0
-6.9758e-18
1.0871e-17
4.70264e-18
7.46751e-18
9.14217e-18
-1.36109e-17
-2.96099e-19
0
-9.89902e-19
3.33189e-19
-7.33764e-17
-2.15861e-17
-3.73803e-17
1.99877e-17
-3.19761e-17
2.74322e-17
-1.62474e-17
1.34974e-17
-1.02639e-18
-1.01818e-18
-1.15801e-17
6.91794e-18
-3.63515e-18
1.1181e-17
-1.20029e-17
1.39095e-18
1.23923e-18
0
-5.82726e-19
7.9336e-17
-2.33058e-17
0
0
-3.29093e-17
6.37793e-17
-1.47874e-17
-2.77518e-18
2.26273e-17
-5.95833e-19
0
0
-4.95252e-18
0
-1.05594e-17
2.53857e-17
-1.75302e-17
0
2.35887e-19
2.70195e-17
5.01442e-17
0
-2.10644e-17
-1.6891e-17
-1.47129e-17
-1.54139e-17
6.27556e-18
-1.7424e-17
-9.37676e-18
0
0
6.82409e-18
0
0
-1.44856e-17
2.39246e-17
0
0
1.85453e-16
-2.24567e-17
-1.11185e-16
-5.96582e-17
8.10024e-17
2.54843e-17
1.49457e-17
0
-5.39013e-18
5.13594e-18
1.27946e-17
-4.10239e-18
-5.98819e-18
9.25848e-18
-9.84819e-18
-2.972e-18
0
0
0
1.48513e-17
-1.16256e-16
1.13894e-16
-1.08239e-17
-8.28499e-17
1.29204e-16
-6.46271e-17
0
0
3.35057e-17
-2.7427e-17
0
-8.12526e-18
1.42009e-17
-1.5617e-18
4.11549e-18
1.24683e-18
1.43708e-20
2.69562e-19
0
0
0
9.47948e-17
-6.36257e-17
6.59601e-17
-1.02637e-16
2.91014e-17
0
-1.03124e-17
1.63623e-17
-1.67232e-17
-3.24121e-18
-2.89448e-20
-2.2025e-18
-3.1487e-19
-1.75809e-18
-4.95816e-19
-2.69528e-19
1.24102e-16
-2.20747e-16
1.04349e-16
0
2.76096e-17
-3.76471e-17
3.73121e-17
-2.95898e-17
0
-1.41785e-17
1.98776e-17
0
0
-1.80728e-20
0
-2.31213e-18
1.57848e-18
2.82255e-19
4.3107e-19
1.21073e-16
0
-4.75176e-17
5.30617e-17
-3.29617e-17
7.18846e-17
-3.38872e-17
-2.62464e-17
2.65205e-17
-2.68187e-18
0
0
1.70101e-18
-2.84701e-18
-1.99672e-18
3.77974e-18
-8.18186e-19
4.15787e-19
0
6.87198e-17
5.32547e-17
-2.05199e-18
-5.0637e-17
-5.07467e-18
-3.63605e-17
4.08217e-18
3.04069e-17
-1.56219e-18
2.73223e-18
0
0
-1.74257e-18
0
2.04488e-18
-2.18753e-18
0
2.79913e-19
-7.74576e-20
-3.64708e-17
-2.67255e-17
2.50303e-17
-2.84659e-18
-1.27146e-18
3.4178e-18
0
-8.95068e-19
1.33238e-17
-1.12206e-17
0
3.7636e-18
-7.4665e-19
-3.31451e-18
-3.02612e-19
-2.35699e-19
0
-2.18936e-19
0
1.48413e-17
-2.81696e-17
-3.15627e-19
1.20304e-17
1.0917e-17
-1.08399e-17
-7.6196e-18
8.62254e-18
-2.93723e-18
2.29964e-18
-2.2187e-18
2.28713e-18
0
5.81095e-21
-2.23205e-19
8.01563e-19
-2.741e-21
0
0
1.48418e-17
-1.47862e-17
-1.19673e-17
1.06052e-17
1.92808e-17
-1.93946e-17
-3.80994e-18
3.81905e-18
-2.96213e-18
2.99319e-18
-2.21879e-18
4.18193e-18
-1.17294e-18
-8.41452e-19
-2.57468e-19
8.55464e-20
2.03476e-19
5.37655e-20
-4.03178e-20
0
-3.51323e-18
2.08333e-17
-2.25923e-17
1.9237e-17
-1.70597e-17
0
1.33946e-17
-1.19869e-17
0
4.41099e-18
-5.58171e-18
-3.16292e-18
3.31494e-18
6.07022e-19
0
0
-2.18976e-19
7.95407e-20
5.90514e-17
-1.08533e-16
1.10258e-16
-9.63732e-17
3.78177e-17
-3.18305e-17
3.02201e-17
3.56167e-18
-1.31976e-17
1.17878e-17
0
-8.45924e-18
7.70769e-18
-1.45537e-18
-5.94578e-19
9.29612e-19
6.82623e-19
2.12584e-19
-7.68544e-20
1.36479e-16
0
-5.37715e-17
4.18005e-17
5.01634e-18
-3.8276e-17
6.7713e-17
-5.98119e-17
2.34329e-17
-9.92698e-18
1.01611e-17
2.00471e-18
3.41605e-18
1.41754e-18
-1.16611e-18
-1.5649e-19
-1.47684e-18
0
1.49774e-19
1.08901e-16
-1.22584e-16
0
1.11157e-17
4.7592e-17
-4.65574e-17
7.87558e-18
6.94067e-18
3.02572e-18
5.28472e-18
0
0
-5.93696e-18
1.10679e-17
-4.03568e-18
-1.44222e-18
1.57899e-18
1.26167e-19
-2.84317e-19
1.05446e-17
1.07695e-16
-1.23474e-17
-8.3736e-17
7.35376e-17
8.72747e-18
-7.70769e-18
-6.77897e-18
2.2114e-17
-2.74277e-17
1.63679e-17
-1.67288e-17
2.57548e-18
-3.31434e-18
5.9632e-18
-3.98115e-18
0
0
2.82324e-19
0
2.69128e-17
-8.01778e-17
9.16667e-17
-7.32477e-17
7.30732e-17
0
2.48566e-17
-2.49705e-17
-1.85545e-17
2.74486e-17
0
1.12414e-17
-1.42122e-17
-2.09862e-18
0
-2.32993e-19
-4.56597e-19
-1.26718e-20
-2.56946e-16
1.22216e-16
0
-8.09893e-17
8.09812e-17
4.90297e-17
-3.22052e-17
1.30886e-17
0
-5.79994e-19
4.21895e-18
-4.09709e-18
-5.98083e-18
9.24591e-18
-9.83148e-18
0
2.08698e-18
-4.41406e-19
-2.83186e-19
1.57823e-16
-1.54986e-16
0
2.09961e-17
1.89516e-17
-1.72367e-17
0
-1.37169e-17
-1.16429e-17
0
-6.0072e-19
0
6.82769e-18
0
0
2.95762e-18
1.10763e-17
-1.43622e-17
0
1.8243e-20
2.33172e-17
-2.13662e-17
1.71809e-17
-8.74516e-17
3.33233e-17
0
2.77731e-18
7.85313e-18
0
-7.92406e-18
2.26168e-17
-2.37603e-17
3.91309e-18
0
-4.88413e-19
0
0
0
1.88961e-20
0
1.97477e-17
0
-2.99254e-17
3.04011e-17
0
1.05854e-17
-8.37752e-18
3.01709e-17
-1.45078e-17
5.12174e-18
-8.15395e-18
7.64842e-18
-1.20191e-17
-1.90552e-18
0
-1.20404e-18
0
6.12121e-17
-1.03556e-16
0
-1.64869e-17
1.46523e-17
0
0
-1.92876e-17
0
-6.9814e-18
-1.08803e-17
-4.70735e-18
7.47587e-18
0
3.8467e-18
0
0
2.61548e-18
-2.87017e-18
0
8.91099e-17
-7.12817e-17
1.52631e-17
-1.35681e-17
-5.47244e-18
1.56852e-17
1.73826e-17
-2.08792e-17
6.72005e-18
5.62843e-19
-6.00272e-18
2.44698e-17
-7.59437e-18
-1.72315e-17
5.89293e-18
-1.48372e-18
8.91976e-19
-2.64844e-19
-1.46043e-16
5.40212e-17
0
0
5.74598e-18
-5.84301e-18
4.05084e-18
2.55541e-18
1.87571e-17
9.41889e-18
-9.26176e-18
-4.32806e-19
-5.0242e-18
4.0678e-18
0
1.93059e-18
1.35994e-18
7.15075e-19
2.39382e-19
0
4.65318e-17
-4.3139e-17
1.37773e-17
1.40013e-17
-2.69178e-18
-8.54006e-18
-7.19245e-18
-2.34019e-17
9.25489e-18
-5.46615e-18
7.61757e-18
4.69825e-18
-5.70587e-18
6.05643e-18
3.72344e-18
-4.87943e-18
-6.60478e-19
0
-8.31086e-18
-3.70216e-17
1.3127e-17
1.20805e-17
-4.10572e-17
2.92303e-17
1.41898e-17
-1.45042e-17
1.08909e-17
-8.78336e-18
0
0
-6.86029e-18
1.22286e-17
-5.34234e-18
4.86366e-18
-5.32523e-18
8.63319e-19
-1.53206e-18
1.55587e-17
1.4444e-17
-1.30331e-17
9.99221e-18
-1.17854e-17
-1.75469e-17
0
0
0
0
0
0
3.50419e-18
-9.05346e-18
9.57502e-18
-3.02391e-18
3.73227e-18
1.72753e-18
-1.46154e-18
3.23062e-17
-5.43729e-17
6.79647e-17
-3.11946e-17
4.32218e-17
-3.07427e-17
5.69749e-17
-3.18125e-17
-1.65256e-17
1.6905e-17
0
4.3797e-18
-3.42341e-18
8.15018e-18
-2.81826e-18
-3.50269e-18
-7.18112e-18
5.47446e-19
1.23857e-18
5.0318e-17
1.43575e-17
0
-2.20136e-17
-1.70967e-17
3.89092e-17
3.70762e-18
-1.5261e-17
8.99245e-18
-6.21493e-18
0
-3.46703e-18
0
-2.7165e-18
2.18095e-18
-1.9341e-18
-6.35888e-19
4.43376e-19
0
7.02248e-17
-1.51775e-17
6.33427e-17
-4.95537e-17
-9.80885e-18
3.79803e-17
-2.27754e-17
1.20696e-18
9.82634e-19
-6.05647e-18
5.82154e-18
0
0
3.33105e-18
-1.17504e-18
7.52409e-19
2.30258e-18
-8.01516e-19
0
1.46573e-20
0
-1.40839e-17
8.17463e-17
-5.50726e-17
-5.74204e-17
3.13749e-17
-3.18585e-17
2.93787e-17
1.42321e-17
-1.05442e-17
4.22619e-18
-3.73162e-18
6.74982e-19
5.93874e-18
1.89459e-19
-2.19819e-18
2.17357e-18
-4.48963e-19
1.70398e-16
-5.424e-17
2.59916e-17
-8.05498e-17
2.17307e-17
-3.34826e-17
1.80857e-17
0
0
-6.89539e-19
-9.50815e-19
-2.80615e-19
0
-5.26751e-18
-3.94948e-18
2.87038e-18
-2.10259e-19
3.9472e-19
8.9617e-19
0
-5.3687e-17
9.00844e-17
1.95381e-17
-7.25857e-17
1.91965e-17
-2.8984e-17
5.17916e-18
2.32633e-17
0
0
4.2548e-19
4.5923e-18
0
-3.98027e-18
-1.78737e-18
2.6359e-19
-9.15162e-19
-1.06282e-18
0
-3.35811e-17
7.98543e-18
6.07464e-17
4.46292e-17
-8.14394e-17
3.6794e-17
-2.50433e-17
1.34687e-17
-1.82217e-17
0
0
0
-7.31995e-18
1.86406e-18
-2.38491e-18
0
-1.47597e-19
7.36885e-19
-1.27901e-16
1.21016e-16
1.27944e-16
-1.55187e-16
7.15091e-17
-6.70593e-17
0
2.64461e-17
-3.59838e-17
2.06268e-17
-1.58311e-17
1.27821e-17
1.02753e-17
7.57045e-18
5.90979e-18
0
0
0
0
1.42014e-16
-8.13666e-17
0
0
-2.62059e-17
6.2982e-17
-4.02763e-17
-2.80554e-17
2.77391e-17
2.02263e-17
3.35882e-17
-1.32627e-17
5.68912e-18
4.24206e-18
3.08685e-18
2.56351e-18
4.12064e-18
-2.01883e-19
2.05636e-19
-1.4366e-16
1.31561e-16
6.94666e-17
-3.62589e-17
7.80145e-17
-5.00123e-17
-3.89807e-17
-3.25897e-17
0
-4.25659e-17
2.24327e-18
1.53537e-17
-1.18246e-17
-9.54769e-18
-3.52338e-18
-3.66469e-18
-2.93686e-18
0
0
-4.94222e-17
0
3.79417e-17
-4.64169e-20
0
0
4.02098e-17
3.36279e-17
0
2.31495e-17
0
-2.33257e-17
-6.566e-18
1.15987e-17
0
7.48341e-18
-1.05389e-18
1.0751e-18
0
1.05441e-16
0
7.28072e-17
-1.34663e-16
1.19458e-16
9.52481e-17
-3.16339e-18
0
2.6626e-18
2.72398e-17
0
-2.65488e-17
2.94667e-17
-2.62179e-17
-5.71183e-18
-5.99304e-18
-1.79297e-18
-3.25205e-19
-1.18812e-18
-9.7606e-17
1.40479e-16
-3.9473e-17
-1.02632e-16
-5.89461e-17
-5.0548e-17
-8.64973e-17
-3.42694e-17
2.95296e-18
1.23841e-17
-1.23608e-17
3.90818e-17
-1.72956e-17
3.45547e-17
-6.4715e-18
0
7.53732e-18
-4.48418e-18
1.19233e-18
2.16845e-16
-4.92969e-18
-1.63463e-16
1.34197e-16
-1.19934e-16
1.03778e-16
-3.52269e-18
-3.88363e-17
3.36724e-17
1.32732e-17
-1.76354e-18
-3.21751e-17
9.21838e-18
1.01003e-17
-3.00926e-18
3.04359e-18
-7.80683e-18
-9.21624e-19
-1.92758e-18
1.06452e-16
4.47388e-17
7.82814e-17
-6.84259e-17
-5.59551e-17
3.13769e-18
-4.24224e-17
1.02593e-16
3.6976e-18
4.70923e-17
2.75115e-17
-2.43533e-17
0
-1.69449e-17
0
0
1.13091e-17
4.93544e-18
2.24398e-18
9.96529e-17
0
7.73177e-17
6.79842e-17
-6.00885e-17
5.22134e-17
0
-4.01859e-17
-5.56177e-17
-4.82839e-17
-2.7755e-17
2.46287e-17
0
0
0
0
-1.06081e-17
-8.0912e-18
0
-1.95246e-16
0
-4.04561e-18
-3.577e-18
9.16427e-17
-5.12948e-17
-2.34952e-17
-2.36187e-17
5.67803e-17
0
1.48812e-17
-1.5623e-18
1.3631e-17
0
0
1.81458e-17
-1.35569e-18
9.71904e-18
-3.78747e-18
1.37207e-16
3.93415e-17
-3.89354e-17
-3.42133e-17
-1.18067e-16
8.08253e-17
9.72817e-17
-2.89349e-18
-3.89175e-17
3.87553e-17
8.11224e-18
-4.14264e-17
-3.37323e-17
-2.08884e-17
-2.21842e-17
-2.093e-17
1.77529e-17
-8.35334e-19
3.87916e-18
-4.20855e-17
1.9056e-17
-9.16779e-17
1.55958e-17
-1.55391e-17
0
-4.84659e-17
-3.71166e-18
-4.50372e-17
4.19673e-18
4.403e-17
3.22598e-17
-8.003e-18
3.00906e-18
2.10724e-17
0
-3.71708e-17
-1.37964e-17
-2.85969e-19
8.59212e-17
-2.32519e-18
1.44228e-16
-6.85338e-17
1.43798e-19
1.81038e-18
5.43437e-17
-4.59629e-18
4.36787e-17
-4.08902e-17
-3.85071e-17
0
3.91636e-17
3.11029e-17
4.38339e-19
-6.38131e-19
2.0204e-17
1.40226e-17
0
-6.10173e-17
0
-1.44276e-17
6.53882e-17
9.69497e-19
1.49656e-17
-5.25495e-17
4.96125e-17
5.28679e-17
5.07037e-17
4.88362e-17
0
-3.80467e-17
0
2.05061e-18
-2.12974e-18
0
-2.05674e-19
1.01536e-17
4.24117e-17
2.32593e-18
-3.32237e-17
1.02707e-16
-3.29165e-17
0
0
-5.97819e-17
-5.12236e-17
-4.91206e-17
-8.97207e-17
-1.25558e-17
0
0
0
-4.23432e-18
4.48097e-18
2.8803e-17
-1.03091e-17
2.41815e-18
0
-7.19385e-17
-6.55452e-17
6.88555e-17
-6.8393e-17
-9.78564e-17
1.19654e-16
3.3549e-17
0
5.30849e-17
6.06818e-17
-1.31025e-17
7.13606e-17
-1.17023e-17
1.21793e-17
4.74906e-17
-2.73707e-17
0
-8.09659e-17
0
-7.73941e-17
7.57916e-17
0
1.36255e-16
6.38968e-17
-1.3459e-16
1.07965e-16
-6.75479e-19
-3.25889e-17
-5.87524e-17
0
8.17348e-17
-1.36812e-16
1.46893e-16
-1.87214e-16
0
0
8.06552e-17
-5.59501e-19
-1.37646e-18
-1.52972e-16
1.54519e-16
-7.46101e-17
7.43059e-17
7.32382e-17
-6.4439e-17
0
0
1.22408e-16
-1.24517e-16
-1.32803e-16
1.31747e-16
-1.28418e-16
1.38953e-16
-2.17717e-16
0
)
;

boundaryField
{
    up
    {
        type            calculated;
        value           nonuniform List<scalar> 
84
(
0
0
0
0
-7.37167e-18
1.32545e-17
-5.51433e-18
3.87915e-18
-3.39479e-18
0
-2.51958e-18
2.39213e-18
-1.58484e-18
1.84037e-19
1.52378e-19
1.08558e-18
0
0
-5.867e-19
4.38585e-19
4.15773e-19
-4.03712e-19
3.62197e-20
0
1.62556e-19
8.00722e-20
-1.44934e-18
0
2.04478e-18
2.52486e-18
3.33189e-19
-5.82726e-19
2.35887e-19
0
-1.15426e-19
2.78004e-19
-2.68572e-19
4.3001e-19
0
-7.72458e-20
0
0
-4.03296e-20
7.95407e-20
-7.68544e-20
1.49774e-19
-2.84317e-19
2.82324e-19
-1.26718e-20
-2.83186e-19
0
0
0
-2.87017e-18
-3.90256e-19
2.39382e-19
0
-1.53206e-18
-1.46154e-18
1.07654e-18
0
0
-4.48963e-19
8.9617e-19
-1.06282e-18
7.36885e-19
0
2.05636e-19
0
0
-1.18812e-18
1.19233e-18
-1.92758e-18
2.24398e-18
0
-3.78747e-18
3.87916e-18
-2.85969e-19
0
1.01536e-17
-1.03091e-17
0
0
0
)
;
    }
    low
    {
        type            calculated;
        value           nonuniform List<scalar> 
84
(
-1.61485e-16
1.61083e-16
-7.85477e-17
1.24204e-16
2.18221e-17
-5.67114e-18
4.73956e-17
5.27853e-18
0
1.99989e-16
-5.0682e-17
4.12084e-17
-4.62731e-17
-3.02151e-16
4.93815e-17
0
-4.59924e-17
4.12494e-18
-3.96131e-18
-3.65446e-17
1.89802e-17
5.0452e-17
8.67651e-17
-7.68921e-17
0
-1.48928e-17
-7.66122e-18
0
-7.02562e-17
-1.9961e-17
-6.76505e-17
-7.32083e-17
7.92255e-17
2.70195e-17
1.85469e-16
1.48513e-17
0
1.24102e-16
1.21345e-16
6.8868e-17
-3.65498e-17
1.48413e-17
1.48418e-17
0
5.90514e-17
1.36751e-16
1.08901e-16
1.07312e-17
0
-2.56962e-16
1.57823e-16
1.8243e-20
1.88961e-20
6.12121e-17
0
-1.45694e-16
0
-8.31086e-18
1.55587e-17
3.20975e-17
4.99532e-17
6.98864e-17
1.46573e-20
1.7012e-16
0
0
-1.27901e-16
1.41882e-16
-1.43575e-16
-4.94222e-17
1.05449e-16
-9.7606e-17
2.17217e-16
1.06713e-16
9.96529e-17
-1.95246e-16
1.36919e-16
-4.17836e-17
8.59212e-17
-6.0895e-17
4.24117e-17
2.64171e-18
-8.09659e-17
8.07162e-17
)
;
    }
    left
    {
        type            calculated;
        value           nonuniform List<scalar> 
19
(
-1.61363e-16
-7.83968e-17
7.97232e-17
1.85036e-18
-1.51574e-16
0
-7.05443e-17
-6.9564e-17
-5.03001e-18
-3.67453e-17
-3.2311e-19
-3.65944e-17
1.62939e-16
-3.62353e-17
1.6924e-16
1.46104e-16
8.69209e-17
1.27535e-16
0
)
;
    }
    right
    {
        type            calculated;
        value           nonuniform List<scalar> 
19
(
8.06552e-17
-4.95e-19
-1.37646e-18
-1.52973e-16
1.54565e-16
-7.46101e-17
7.43059e-17
7.32382e-17
-6.42039e-17
0
0
1.23562e-16
-1.26138e-16
-1.32803e-16
1.31747e-16
-1.28418e-16
1.38953e-16
-2.35436e-16
0
)
;
    }
    frontAndBackPlanes
    {
        type            empty;
    }
}


// ************************************************************************* //
