/*--------------------------------*- C++ -*----------------------------------*\
  =========                 |
  \\      /  F ield         | OpenFOAM: The Open Source CFD Toolbox
   \\    /   O peration     | Website:  https://openfoam.org
    \\  /    A nd           | Version:  7
     \\/     M anipulation  |
\*---------------------------------------------------------------------------*/
FoamFile
{
    version     2.0;
    format      ascii;
    class       volScalarField;
    location    "0.239";
    object      gradTx;
}
// * * * * * * * * * * * * * * * * * * * * * * * * * * * * * * * * * * * * * //

dimensions      [0 -1 0 1 0 0 0];

internalField   nonuniform List<scalar> 
1596
(
-0.173867
-0.872697
-1.56372
-2.18846
-2.74339
-3.22735
-3.66268
-4.06373
-4.45008
-4.85933
-5.30203
-5.82347
-6.47707
-7.3407
-8.50649
-10.207
-12.8015
-17.0668
-24.6089
0.0381609
-0.726597
-1.40678
-1.99581
-2.50798
-2.94654
-3.33165
-3.67048
-3.97769
-4.27287
-4.55826
-4.8583
-5.18189
-5.54218
-5.92975
-6.32702
-6.63273
-6.64064
-5.91329
0.211967
-0.594121
-1.25251
-1.79975
-2.26382
-2.6537
-2.98679
-3.2678
-3.50653
-3.71353
-3.8874
-4.04102
-4.17128
-4.27592
-4.33764
-4.32618
-4.16056
-3.69904
-2.66372
0.239794
-0.524001
-1.12631
-1.61704
-2.02635
-2.36567
-2.64864
-2.87898
-3.0629
-3.2058
-3.30582
-3.36921
-3.3908
-3.36507
-3.27821
-3.10603
-2.7966
-2.26495
-1.34554
0.0712918
-0.547796
-1.05083
-1.46625
-1.81313
-2.10017
-2.33574
-2.52254
-2.66395
-2.76202
-2.81569
-2.82715
-2.79205
-2.70517
-2.5576
-2.33251
-1.99948
-1.51006
-0.769173
-0.279443
-0.677365
-1.04306
-1.36447
-1.64068
-1.87283
-2.06269
-2.21105
-2.31873
-2.38525
-2.41039
-2.39359
-2.33174
-2.22044
-2.05456
-1.82251
-1.50742
-1.0821
-0.492821
-0.746374
-0.902268
-1.10986
-1.32325
-1.52119
-1.69486
-1.83891
-1.95122
-2.03001
-2.0727
-2.07933
-2.04744
-1.97472
-1.85739
-1.69261
-1.47211
-1.18691
-0.821741
-0.346393
-1.23598
-1.18057
-1.23395
-1.33612
-1.45263
-1.56572
-1.66366
-1.74091
-1.79316
-1.816
-1.80914
-1.76875
-1.69284
-1.57794
-1.4224
-1.21997
-0.966017
-0.651914
-0.260722
-1.74312
-1.53744
-1.45333
-1.44336
-1.4721
-1.51719
-1.56269
-1.5998
-1.62192
-1.62296
-1.60169
-1.5533
-1.47556
-1.36496
-1.22017
-1.03602
-0.809986
-0.536946
-0.207126
-2.04797
-1.78654
-1.62089
-1.53029
-1.48943
-1.47753
-1.4779
-1.47996
-1.47567
-1.4579
-1.42446
-1.37002
-1.29207
-1.18708
-1.05375
-0.887703
-0.687493
-0.450004
-0.169505
-2.29649
-2.01112
-1.79621
-1.6458
-1.54617
-1.48181
-1.43816
-1.40457
-1.37251
-1.33437
-1.28713
-1.22517
-1.14559
-1.04473
-0.92109
-0.770662
-0.592355
-0.384058
-0.142286
-2.54963
-2.26162
-2.01586
-1.81839
-1.66594
-1.5498
-1.45956
-1.38611
-1.32151
-1.25824
-1.19273
-1.11923
-1.03438
-0.934291
-0.817026
-0.678664
-0.51799
-0.333215
-0.121894
-2.61856
-2.36884
-2.12866
-1.91617
-1.73713
-1.58953
-1.46766
-1.36506
-1.27535
-1.19191
-1.11122
-1.02785
-0.938322
-0.838773
-0.727018
-0.599284
-0.454201
-0.290122
-0.105105
-2.63522
-2.42747
-2.20716
-1.99504
-1.80271
-1.63394
-1.48767
-1.36062
-1.24854
-1.14619
-1.0506
-0.956889
-0.861687
-0.76122
-0.653128
-0.533738
-0.401456
-0.254611
-0.0914689
-2.63002
-2.46035
-2.26468
-2.06169
-1.86519
-1.68303
-1.51817
-1.3706
-1.2385
-1.11837
-1.00811
-0.903639
-0.801825
-0.699085
-0.59295
-0.479813
-0.357839
-0.225229
-0.0802523
-2.56506
-2.43637
-2.27072
-2.08581
-1.89576
-1.71065
-1.53635
-1.37572
-1.22931
-1.09551
-0.973413
-0.85987
-0.752228
-0.647226
-0.542423
-0.434338
-0.320968
-0.200399
-0.0708191
-2.43802
-2.3483
-2.21564
-2.05549
-1.88098
-1.70297
-1.52897
-1.36395
-1.21053
-1.06886
-0.939313
-0.819838
-0.708399
-0.602192
-0.49894
-0.395376
-0.289451
-0.17922
-0.0628199
-2.28867
-2.22385
-2.12022
-1.98593
-1.83123
-1.6663
-1.49926
-1.33639
-1.18185
-1.03733
-0.904401
-0.782074
-0.668997
-0.562875
-0.461652
-0.362303
-0.262825
-0.161352
-0.0560822
-2.16332
-2.11859
-2.03722
-1.92385
-1.78601
-1.63276
-1.47241
-1.31211
-1.15726
-1.01086
-0.875493
-0.751139
-0.637024
-0.531262
-0.431923
-0.336088
-0.241737
-0.14712
-0.0506403
-1.94502
-1.92678
-1.87125
-1.78386
-1.67032
-1.53808
-1.39471
-1.24737
-1.10204
-0.962547
-0.832274
-0.71205
-0.601722
-0.499892
-0.404831
-0.313731
-0.224528
-0.135672
-0.046172
-1.70334
-1.706
-1.67378
-1.61101
-1.52209
-1.41295
-1.29012
-1.16029
-1.02949
-0.901946
-0.781491
-0.669572
-0.566536
-0.471442
-0.382743
-0.297605
-0.213585
-0.128906
-0.0433168
-1.45123
-1.46738
-1.45446
-1.41411
-1.34908
-1.26378
-1.16361
-1.05449
-0.942165
-0.830873
-0.7245
-0.624834
-0.53254
-0.447098
-0.367217
-0.290023
-0.212265
-0.130694
-0.0441004
-1.17165
-1.19446
-1.1972
-1.17818
-1.13794
-1.07904
-1.0055
-0.92211
-0.833938
-0.74485
-0.658329
-0.576192
-0.499162
-0.427137
-0.359345
-0.293343
-0.225267
-0.149277
-0.0578796
-0.856142
-0.843754
-0.816137
-0.773769
-0.719693
-0.658089
-0.593786
-0.530975
-0.473114
-0.421956
-0.377713
-0.339361
-0.305028
-0.272876
-0.24131
-0.20844
-0.17127
-0.123884
-0.055473
-0.572337
-0.636399
-0.706439
-0.771009
-0.822073
-0.854377
-0.866334
-0.85874
-0.834717
-0.798051
-0.751981
-0.699709
-0.643107
-0.584686
-0.526792
-0.47133
-0.417696
-0.362163
-0.294548
-0.193667
-0.223768
-0.263215
-0.305451
-0.345623
-0.380271
-0.408135
-0.428949
-0.443862
-0.454063
-0.459298
-0.459524
-0.452828
-0.438715
-0.417886
-0.393631
-0.368429
-0.345207
-0.324275
0.185704
0.147848
0.0941502
0.030813
-0.0363779
-0.102743
-0.165465
-0.223084
-0.275638
-0.323572
-0.365939
-0.401551
-0.427014
-0.439922
-0.439534
-0.429271
-0.413044
-0.395808
-0.379545
0.564444
0.51272
0.439767
0.352658
0.257978
0.16127
0.0663465
-0.0247089
-0.111416
-0.194043
-0.27165
-0.342443
-0.401785
-0.444843
-0.468162
-0.473811
-0.466472
-0.453341
-0.438468
0.90709
0.833833
0.737206
0.625607
0.505943
0.383979
0.263648
0.14689
0.0339457
-0.075971
-0.182674
-0.28471
-0.376965
-0.452259
-0.503178
-0.528291
-0.531234
-0.521398
-0.506052
1.26285
1.16332
1.04021
0.902328
0.75687
0.609832
0.46513
0.324439
0.187607
0.0530903
-0.0801039
-0.211883
-0.338037
-0.450253
-0.536811
-0.590381
-0.609939
-0.605314
-0.588261
1.53224
1.40249
1.25307
1.09264
0.92831
0.765474
0.607153
0.454048
0.305147
0.157853
0.00971963
-0.141349
-0.293745
-0.440581
-0.567603
-0.660504
-0.70822
-0.714992
-0.694864
1.78556
1.62985
1.45489
1.27268
1.09079
0.913915
0.744189
0.581457
0.424092
0.268789
0.11203
-0.0505535
-0.221201
-0.397812
-0.568425
-0.715476
-0.814774
-0.854699
-0.842179
2.02145
1.83198
1.62967
1.42676
1.2299
1.04242
0.865269
0.697387
0.536754
0.379823
0.222825
0.0601921
-0.11368
-0.30334
-0.505093
-0.708613
-0.884264
-0.999485
-1.02168
2.17676
1.93615
1.69232
1.45601
1.23192
1.02165
0.824792
0.639601
0.463813
0.294063
0.126831
-0.0432393
-0.222916
-0.421448
-0.64571
-0.902398
-1.17983
-1.45252
-1.67185
2.27598
2.01273
1.76514
1.53981
1.33681
1.15419
0.988979
0.838091
0.698722
0.568174
0.444436
0.325087
0.207364
0.0868238
-0.0430631
-0.195659
-0.384646
-0.625896
-0.926468
2.35195
2.07956
1.83994
1.63023
1.44529
1.28066
1.13207
0.996222
0.87055
0.752908
0.642195
0.537641
0.438811
0.345827
0.259443
0.179251
0.10406
0.0286799
-0.0570412
2.23293
1.92183
1.65939
1.43511
1.24076
1.07038
0.918972
0.782782
0.658973
0.545111
0.439881
0.342342
0.251865
0.168515
0.0932934
0.0273137
-0.0274465
-0.0687787
-0.0956307
1.9658
1.68146
1.44567
1.24696
1.07689
0.929345
0.799423
0.683479
0.578863
0.483393
0.395877
0.315488
0.241575
0.173924
0.112767
0.058103
0.010088
-0.0310533
-0.06561
1.63752
1.39792
1.19904
1.03213
0.890127
0.767683
0.660529
0.565443
0.480121
0.402667
0.331985
0.267282
0.207835
0.153233
0.103395
0.0580677
0.0171854
-0.0190812
-0.0509099
1.2356
1.05034
0.898227
0.771808
0.665169
0.573833
0.494351
0.424134
0.361361
0.304539
0.252778
0.205422
0.161845
0.121664
0.0847615
0.0509308
0.0201463
-0.00737673
-0.0316908
0.779363
0.655747
0.557345
0.477135
0.410298
0.353496
0.304329
0.261049
0.222455
0.187574
0.155811
0.126727
0.0998955
0.0750435
0.0520743
0.0308488
0.011358
-0.0062194
-0.0218597
0.299562
0.249844
0.211651
0.180933
0.155419
0.133717
0.1149
0.0983162
0.0835211
0.0701552
0.0579885
0.0468455
0.0365506
0.0269813
0.0180737
0.00975079
0.0019816
-0.00518794
-0.0117519
-0.299418
-0.249526
-0.211219
-0.180427
-0.154868
-0.133145
-0.114325
-0.0977526
-0.0829811
-0.0696494
-0.0575259
-0.0464336
-0.0361961
-0.0266898
-0.0178498
-0.00959794
-0.00190207
0.00519392
0.0116855
-0.779229
-0.655468
-0.556968
-0.476696
-0.409824
-0.353008
-0.303842
-0.260578
-0.222012
-0.187169
-0.155451
-0.126421
-0.0996475
-0.0748594
-0.0519581
-0.0308033
-0.0113847
0.00612139
0.0216929
-1.23547
-1.05008
-0.897861
-0.771373
-0.664691
-0.573331
-0.493842
-0.423632
-0.360877
-0.304085
-0.25236
-0.205047
-0.161518
-0.121389
-0.0845395
-0.0507614
-0.0200277
0.00744821
0.0317198
-1.63742
-1.39774
-1.1988
-1.03183
-0.889807
-0.767351
-0.660198
-0.565125
-0.479826
-0.402404
-0.331762
-0.267104
-0.207705
-0.153154
-0.103366
-0.0580879
-0.0172504
0.0189763
0.0507706
-1.96574
-1.68135
-1.44551
-1.24676
-1.07667
-0.929106
-0.799182
-0.683247
-0.57865
-0.483209
-0.395729
-0.315382
-0.241515
-0.173912
-0.112801
-0.0581783
-0.0101947
0.0309283
0.0654827
-2.23293
-1.92181
-1.65934
-1.43503
-1.24065
-1.07026
-0.918851
-0.782675
-0.658893
-0.545068
-0.439884
-0.342402
-0.25199
-0.168712
-0.093561
-0.0276413
0.0270894
0.0684435
0.0953774
-2.35196
-2.07938
-1.83951
-1.62952
-1.4443
-1.2794
-1.13057
-0.994509
-0.868653
-0.750853
-0.640004
-0.535333
-0.436396
-0.343314
-0.256852
-0.17665
-0.10161
-0.0267255
0.0579336
-2.2764
-2.01384
-1.76696
-1.54234
-1.34001
-1.15802
-0.993375
-0.84301
-0.704121
-0.574023
-0.450728
-0.331845
-0.214659
-0.0948033
0.0341701
0.185518
0.372934
0.612478
0.911684
-2.1766
-1.9357
-1.69153
-1.45487
-1.23045
-1.01987
-0.82274
-0.637319
-0.461345
-0.291453
-0.124125
0.0459927
0.225666
0.424153
0.648385
0.905191
1.18313
1.45703
1.67847
-2.0216
-1.83233
-1.63018
-1.42741
-1.23065
-1.04325
-0.866154
-0.698315
-0.537719
-0.380824
-0.223867
-0.0612846
0.112539
0.302191
0.504051
0.707894
0.884127
1.00009
1.02281
-1.78565
-1.63007
-1.45521
-1.27309
-1.09126
-0.91443
-0.74474
-0.582035
-0.424694
-0.269415
-0.112678
0.0498942
0.220565
0.397277
0.568115
0.715531
0.815266
0.855555
0.843221
-1.53233
-1.40271
-1.25339
-1.09305
-0.928792
-0.766005
-0.607716
-0.45463
-0.305739
-0.158445
-0.0102975
0.140812
0.293297
0.440298
0.567567
0.660765
0.708751
0.715689
0.695608
-1.26293
-1.16353
-1.04054
-0.902751
-0.757367
-0.61038
-0.465707
-0.325027
-0.188189
-0.0536489
0.0795909
0.211448
0.337728
0.450124
0.536898
0.590682
0.610399
0.605859
0.588839
-0.907167
-0.83403
-0.737515
-0.626009
-0.506417
-0.3845
-0.264192
-0.147434
-0.0344693
0.0754894
0.182259
0.284393
0.376781
0.452239
0.503328
0.528588
0.531631
0.521849
0.506533
-0.564527
-0.512925
-0.440088
-0.353076
-0.258468
-0.161805
-0.0668963
0.0241708
0.110914
0.193602
0.271294
0.342196
0.401672
0.444873
0.468328
0.474086
0.466819
0.453734
0.438895
-0.185775
-0.148041
-0.0944593
-0.0312189
0.0359029
0.102231
0.164946
0.222589
0.275193
0.3232
0.365661
0.401385
0.42697
0.439999
0.439717
0.429537
0.41337
0.39618
0.37996
0.193502
0.22327
0.262367
0.304275
0.344174
0.378629
0.406388
0.427187
0.442166
0.4525
0.457917
0.458358
0.451889
0.437995
0.417359
0.393274
0.368229
0.345188
0.324528
0.572452
0.63684
0.707287
0.772294
0.82378
0.856448
0.868685
0.861269
0.837324
0.800646
0.75449
0.702081
0.64531
0.586711
0.528646
0.473034
0.419273
0.363635
0.295911
0.85602
0.843314
0.81537
0.772707
0.718395
0.656633
0.592254
0.529446
0.471652
0.420611
0.376515
0.338324
0.304156
0.272161
0.240737
0.207994
0.170939
0.123664
0.0553782
1.17173
1.1946
1.19742
1.17846
1.13826
1.07938
1.00583
0.922414
0.834202
0.745066
0.658495
0.576312
0.499243
0.427186
0.35937
0.29335
0.225262
0.149266
0.0578735
1.45124
1.4674
1.45448
1.41414
1.34911
1.26381
1.16364
1.05451
0.942177
0.830877
0.724496
0.624823
0.532525
0.447081
0.367199
0.290005
0.21225
0.130684
0.044098
1.70335
1.70602
1.6738
1.61104
1.52212
1.41297
1.29014
1.1603
1.02949
0.901944
0.781483
0.66956
0.566522
0.471426
0.382728
0.297592
0.213575
0.128901
0.0433154
1.94503
1.9268
1.87127
1.78388
1.67034
1.5381
1.39472
1.24738
1.10204
0.962542
0.832265
0.712038
0.601709
0.499879
0.404819
0.313721
0.224521
0.135668
0.0461709
2.16333
2.1186
2.03723
1.92387
1.78603
1.63278
1.47242
1.31211
1.15726
1.01085
0.875484
0.751128
0.637013
0.531251
0.431913
0.336081
0.241732
0.147117
0.0506394
2.28867
2.22386
2.12023
1.98594
1.83124
1.6663
1.49926
1.33639
1.18184
1.03732
0.904391
0.782063
0.668987
0.562865
0.461644
0.362296
0.26282
0.161349
0.0560814
2.43803
2.34831
2.21565
2.0555
1.88099
1.70298
1.52897
1.36395
1.21052
1.06885
0.939304
0.819828
0.708389
0.602183
0.498933
0.39537
0.289446
0.179217
0.0628192
2.56507
2.43638
2.27073
2.08582
1.89576
1.71066
1.53635
1.37571
1.2293
1.09551
0.973404
0.859861
0.752219
0.647218
0.542415
0.434332
0.320963
0.200396
0.0708186
2.63002
2.46036
2.26469
2.06169
1.86519
1.68303
1.51817
1.3706
1.23849
1.11836
1.0081
0.903629
0.801816
0.699076
0.592942
0.479807
0.357834
0.225226
0.080252
2.63522
2.42748
2.20717
1.99504
1.80271
1.63394
1.48766
1.36061
1.24853
1.14618
1.05059
0.95688
0.861678
0.761212
0.653121
0.533732
0.401452
0.254609
0.0914689
2.61856
2.36885
2.12867
1.91618
1.73714
1.58953
1.46766
1.36505
1.27535
1.1919
1.11121
1.02784
0.938315
0.838767
0.727012
0.59928
0.454199
0.290122
0.105106
2.54963
2.26162
2.01586
1.81839
1.66594
1.54979
1.45955
1.38609
1.32149
1.25823
1.19272
1.11922
1.03437
0.934284
0.81702
0.67866
0.517988
0.333215
0.121895
2.2965
2.01114
1.79622
1.6458
1.54617
1.4818
1.43816
1.40456
1.37251
1.33437
1.28712
1.22517
1.14558
1.04473
0.921088
0.770662
0.592357
0.38406
0.142287
2.04799
1.78655
1.62089
1.53029
1.48943
1.47753
1.47789
1.47995
1.47567
1.45789
1.42445
1.37002
1.29207
1.18708
1.05375
0.887706
0.687497
0.450007
0.169506
1.74313
1.53745
1.45334
1.44336
1.4721
1.51719
1.56268
1.59979
1.62192
1.62295
1.60169
1.5533
1.47556
1.36497
1.22017
1.03602
0.809992
0.53695
0.207127
1.236
1.18058
1.23395
1.33613
1.45263
1.56571
1.66365
1.7409
1.79316
1.816
1.80914
1.76875
1.69284
1.57795
1.42241
1.21998
0.966023
0.651918
0.260722
0.746386
0.902274
1.10986
1.32325
1.52119
1.69486
1.83891
1.95122
2.03001
2.0727
2.07933
2.04744
1.97473
1.8574
1.69261
1.47212
1.18691
0.821744
0.346393
0.279451
0.677371
1.04306
1.36447
1.64068
1.87283
2.06269
2.21105
2.31873
2.38526
2.4104
2.39359
2.33175
2.22044
2.05456
1.82251
1.50742
1.0821
0.49282
-0.0712873
0.547801
1.05084
1.46625
1.81313
2.10017
2.33574
2.52254
2.66396
2.76202
2.8157
2.82715
2.79206
2.70517
2.55761
2.33251
1.99948
1.51006
0.769171
-0.239794
0.524005
1.12631
1.61704
2.02635
2.36567
2.64864
2.87898
3.0629
3.2058
3.30582
3.36922
3.39081
3.36507
3.27821
3.10603
2.7966
2.26494
1.34554
-0.211968
0.594122
1.25251
1.79975
2.26382
2.6537
2.98679
3.26781
3.50653
3.71354
3.8874
4.04102
4.17128
4.27592
4.33763
4.32617
4.16055
3.69903
2.66372
-0.0381612
0.726597
1.40678
1.99581
2.50798
2.94654
3.33165
3.67048
3.97769
4.27287
4.55826
4.8583
5.18188
5.54217
5.92975
6.32701
6.63272
6.64063
5.91329
0.173869
0.872698
1.56372
2.18846
2.74339
3.22735
3.66268
4.06373
4.45008
4.85933
5.30203
5.82347
6.47706
7.34069
8.50648
10.207
12.8015
17.0668
24.6089
)
;

boundaryField
{
    up
    {
        type            calculated;
        value           nonuniform List<scalar> 
84
(
-24.6089
-5.91329
-2.66372
-1.34554
-0.769173
-0.492821
-0.346393
-0.260722
-0.207126
-0.169505
-0.142286
-0.121894
-0.105105
-0.0914689
-0.0802523
-0.0708191
-0.0628199
-0.0560822
-0.0506403
-0.046172
-0.0433168
-0.0441004
-0.0578796
-0.055473
-0.25208
-0.303532
-0.358946
-0.415995
-0.480425
-0.557903
-0.656161
-0.783245
-0.930371
-1.65653
-0.958877
-0.0588856
-0.0955097
-0.0654885
-0.0508394
-0.0316675
-0.0218532
-0.0117552
0.0116888
0.0216867
0.0316968
0.0507006
0.0653618
0.0952563
0.0597533
0.943672
1.66437
0.931374
0.784152
0.656853
0.558456
0.480893
0.416418
0.359366
0.303911
0.253319
0.0553782
0.0578735
0.044098
0.0433154
0.0461709
0.0506394
0.0560814
0.0628192
0.0708186
0.080252
0.0914689
0.105106
0.121895
0.142287
0.169506
0.207127
0.260722
0.346393
0.49282
0.769171
1.34554
2.66372
5.91329
24.6089
)
;
    }
    low
    {
        type            calculated;
        value           nonuniform List<scalar> 
84
(
-0.156756
0.0639394
0.253753
0.285399
0.100076
-0.284789
-0.790546
-1.31042
-1.82934
-2.11869
-2.35812
-2.59832
-2.63759
-2.63575
-2.61871
-2.53698
-2.39582
-2.24286
-2.10898
-1.87518
-1.62643
-1.37357
-1.09653
-0.79076
-0.521614
-0.175425
0.164928
0.512619
0.840176
1.1952
1.47586
1.73881
1.98915
2.16372
2.27853
2.37314
2.27413
2.01101
1.67847
1.26857
0.801373
0.308812
-0.308667
-0.801235
-1.26843
-1.67836
-2.01093
-2.2741
-2.37312
-2.27888
-2.16356
-1.98927
-1.73889
-1.47595
-1.19529
-0.840256
-0.512706
-0.165001
0.175265
0.521727
0.790646
1.09659
1.37359
1.62644
1.87519
2.10899
2.24287
2.39583
2.53699
2.61871
2.63575
2.6376
2.59831
2.35813
2.11871
1.82936
1.31043
0.790559
0.284798
-0.100071
-0.285399
-0.253757
-0.0639417
0.156757
)
;
    }
    left
    {
        type            calculated;
        value           nonuniform List<scalar> 
19
(
-0.154232
-0.837548
-1.54241
-2.18855
-2.76719
-3.27364
-3.73198
-4.15902
-4.57427
-5.02503
-5.52147
-6.11468
-6.87467
-7.9061
-9.325
-11.4588
-14.8062
-20.4522
-21.3442
)
;
    }
    right
    {
        type            calculated;
        value           nonuniform List<scalar> 
19
(
0.154234
0.837551
1.54242
2.18855
2.76719
3.27364
3.73198
4.15902
4.57427
5.02503
5.52146
6.11467
6.87466
7.90609
9.32498
11.4587
14.8062
20.4522
21.3442
)
;
    }
    frontAndBackPlanes
    {
        type            empty;
    }
}


// ************************************************************************* //
