/*--------------------------------*- C++ -*----------------------------------*\
  =========                 |
  \\      /  F ield         | OpenFOAM: The Open Source CFD Toolbox
   \\    /   O peration     | Website:  https://openfoam.org
    \\  /    A nd           | Version:  7
     \\/     M anipulation  |
\*---------------------------------------------------------------------------*/
FoamFile
{
    version     2.0;
    format      ascii;
    class       volScalarField;
    location    "0.393";
    object      T;
}
// * * * * * * * * * * * * * * * * * * * * * * * * * * * * * * * * * * * * * //

dimensions      [0 0 0 1 0 0 0];

internalField   nonuniform List<scalar> 
1596
(
5.98728
5.95064
5.91266
5.8758
5.84045
5.80597
5.77152
5.73544
5.69656
5.65218
5.60021
5.53786
5.45837
5.35199
5.20314
4.97655
4.60609
3.9594
2.77142
5.94492
5.83067
5.72135
5.61821
5.52044
5.42593
5.33235
5.23627
5.13483
5.02317
4.8973
4.75242
4.57899
4.36484
4.09432
3.73664
3.24331
2.53025
1.43822
5.89474
5.7024
5.52689
5.36487
5.21307
5.06782
4.92556
4.78188
4.63302
4.47341
4.29854
4.10335
3.87877
3.61409
3.29715
2.90561
2.40781
1.75409
0.851314
5.84512
5.57958
5.3444
5.13082
4.93286
4.7454
4.56394
4.38348
4.19986
4.00742
3.80178
3.57821
3.3289
3.04527
2.71857
2.33331
1.86949
1.2984
0.565853
5.80386
5.47502
5.18778
4.92956
4.69228
4.46973
4.25667
4.04783
3.83887
3.62427
3.39991
3.16153
2.9025
2.61602
2.29584
1.93116
1.50923
1.01344
0.411826
5.77612
5.39752
5.0666
4.77008
4.49907
4.24678
4.00763
3.7762
3.54811
3.31803
3.08211
2.83644
2.57528
2.29309
1.98526
1.64398
1.2609
0.826264
0.320668
5.76267
5.34961
4.98392
4.65501
4.35475
4.0766
3.81497
3.56453
3.32093
3.07906
2.83525
2.58584
2.32569
2.0501
1.75545
1.4358
1.08541
0.698423
0.262604
5.76059
5.32783
4.93647
4.58092
4.2553
3.95416
3.67238
3.40496
3.14773
2.89579
2.64562
2.39372
2.13536
1.86633
1.58358
1.28234
0.958401
0.608124
0.22345
5.76699
5.32725
4.91882
4.54212
4.19466
3.87279
3.5724
3.28907
3.01899
2.75752
2.5013
2.24694
1.98995
1.72641
1.45359
1.16739
0.864506
0.542552
0.195915
5.77569
5.33744
4.91948
4.52716
4.16156
3.82136
3.50387
3.20554
2.9231
2.6523
2.38998
2.13283
1.87655
1.61737
1.35268
1.07877
0.792836
0.493177
0.175673
5.78296
5.34991
4.92786
4.52487
4.14494
3.78907
3.45622
3.14398
2.84981
2.56995
2.30151
2.04133
1.78523
1.52954
1.27164
1.00802
0.736128
0.454587
0.160163
5.79196
5.36659
4.94377
4.53349
4.14208
3.77262
3.42579
3.10043
2.79489
2.506
2.23124
1.96763
1.71109
1.458
1.20568
0.950684
0.690502
0.423868
0.148022
5.80064
5.38434
4.96298
4.54796
4.14741
3.76624
3.40676
3.06911
2.75263
2.45485
2.17367
1.90636
1.64895
1.39784
1.15026
0.902687
0.652574
0.398584
0.138193
5.80645
5.39829
4.97952
4.56171
4.15409
3.76308
3.39242
3.04357
2.71686
2.41061
2.12324
1.85227
1.59391
1.34457
1.10133
0.860561
0.619568
0.376833
0.129887
5.81155
5.41022
4.99407
4.57438
4.16101
3.76145
3.38074
3.02152
2.68517
2.37081
2.07742
1.80287
1.54354
1.29585
1.05674
0.822407
0.589932
0.357529
0.122648
5.81652
5.4213
5.00744
4.58616
4.16769
3.7604
3.37037
3.00138
2.65578
2.33356
2.03427
1.75617
1.49587
1.2498
1.01474
0.786693
0.562428
0.339816
0.116125
5.82026
5.43015
5.0182
4.59539
4.17225
3.75779
3.35905
2.9808
2.62634
2.2965
1.99147
1.70993
1.44875
1.20441
0.973543
0.751879
0.535849
0.322896
0.110008
5.82316
5.43713
5.02657
4.60212
4.17445
3.75315
3.34605
2.95884
2.59575
2.25842
1.94771
1.66278
1.40077
1.15827
0.931793
0.716789
0.509273
0.306164
0.104065
5.82761
5.44598
5.03656
4.61015
4.17772
3.74939
3.33376
2.93739
2.5654
2.22025
1.9035
1.6148
1.35167
1.11086
0.888798
0.680685
0.482061
0.289199
0.0981466
5.83272
5.45627
5.04811
4.61961
4.18219
3.74657
3.3221
2.91621
2.53488
2.18141
1.85806
1.56505
1.30032
1.06086
0.843132
0.642166
0.453038
0.271242
0.0920071
5.83663
5.4652
5.05842
4.62786
4.18541
3.7424
3.30894
2.89329
2.50229
2.14005
1.80957
1.51168
1.2448
1.00625
0.792689
0.599134
0.42036
0.251051
0.0852499
5.84039
5.47359
5.06808
4.63538
4.18776
3.73717
3.29443
2.86863
2.46742
2.09577
1.7574
1.45378
1.1839
0.945476
0.735483
0.549218
0.381539
0.226659
0.0771888
5.84447
5.48221
5.0777
4.64258
4.1895
3.73096
3.2785
2.84199
2.42986
2.04792
1.70064
1.39019
1.11612
0.876624
0.669062
0.48923
0.332656
0.194141
0.0659399
5.8486
5.49054
5.08652
4.64845
4.18939
3.72243
3.25973
2.81189
2.38805
1.99482
1.63746
1.31887
1.03923
0.797178
0.590425
0.415226
0.268105
0.145789
0.0441268
5.85488
5.50645
5.10969
4.67641
4.21959
3.7523
3.28679
2.83385
2.40301
2.0014
1.63508
1.30783
1.02069
0.772945
0.562712
0.386403
0.240851
0.123731
0.0331784
5.86165
5.5262
5.14205
4.72051
4.27397
3.81483
3.35484
2.90439
2.47285
2.06754
1.69496
1.35982
1.0642
0.808382
0.591104
0.408898
0.258126
0.13565
0.0383737
5.86474
5.53679
5.16115
4.74863
4.31096
3.85984
3.40627
2.96002
2.52997
2.12322
1.74641
1.40488
1.10169
0.838229
0.614156
0.426347
0.270931
0.144142
0.0419573
5.86416
5.53782
5.16624
4.75972
4.3293
3.88584
3.43945
2.99903
2.57266
2.16689
1.78816
1.44205
1.13243
0.861907
0.631341
0.438317
0.279005
0.149161
0.0440115
5.86104
5.53168
5.16067
4.75786
4.33354
3.89761
3.45917
3.02605
2.60536
2.20282
1.8243
1.47531
1.16021
0.882759
0.645368
0.446838
0.28381
0.151714
0.0450069
5.85552
5.5199
5.14732
4.74698
4.32831
3.90021
3.47063
3.04625
2.63312
2.23592
1.85972
1.50953
1.18981
0.905196
0.659848
0.454442
0.286869
0.152618
0.0452568
5.84844
5.50512
5.13015
4.73199
4.31917
3.89949
3.47976
3.0655
2.66163
2.27178
1.90003
1.55057
1.22736
0.935383
0.680288
0.465191
0.29047
0.152815
0.0450231
5.84219
5.49143
5.1142
4.71851
4.31202
3.90149
3.49256
3.08964
2.69659
2.31605
1.9511
1.60487
1.28027
0.981683
0.715342
0.486557
0.299359
0.154004
0.0444097
5.83579
5.47775
5.09881
4.70642
4.30729
3.90706
3.51025
3.12022
2.73995
2.37119
2.01615
1.67696
1.35519
1.05371
0.777692
0.532813
0.326003
0.163033
0.0436487
5.82911
5.46433
5.08475
4.69699
4.30665
3.91821
3.5351
3.15975
2.79438
2.44011
2.09859
1.77125
1.45863
1.1619
0.884004
0.628291
0.40059
0.209002
0.058731
5.8213
5.44792
5.06571
4.6804
4.29649
3.91734
3.54541
3.18238
2.82985
2.48855
2.15983
1.84489
1.54391
1.25732
0.986386
0.731527
0.494238
0.278399
0.0873869
5.8094
5.41989
5.02765
4.6372
4.25181
3.87383
3.50489
3.146
2.7983
2.46212
2.13864
1.82894
1.53319
1.25195
0.986564
0.737266
0.504768
0.290754
0.0949484
5.79439
5.38415
4.97784
4.5782
4.18718
3.80611
3.43588
3.07687
2.72985
2.39483
2.07285
1.765
1.47152
1.19323
0.931978
0.688623
0.464787
0.263124
0.0840323
5.78106
5.35269
4.93424
4.52676
4.13104
3.74754
3.37647
3.01777
2.67187
2.33857
2.01886
1.71383
1.42381
1.14976
0.893728
0.656717
0.440456
0.24761
0.0784947
5.77075
5.32778
4.89936
4.4854
4.08578
3.70028
3.3286
2.97029
2.62554
2.29399
1.97656
1.67435
1.38768
1.11755
0.866055
0.634202
0.423704
0.237192
0.0749164
5.76263
5.30824
4.87207
4.45314
4.05057
3.66364
3.29162
2.93377
2.59011
2.26013
1.94471
1.6449
1.36102
1.09404
0.846081
0.618112
0.411833
0.22987
0.0724362
5.7567
5.29408
4.85247
4.43013
4.02563
3.63783
3.2657
2.90831
2.56554
2.23679
1.92287
1.62484
1.34295
1.07818
0.832641
0.607295
0.403842
0.224924
0.0707557
5.75239
5.28484
4.84038
4.41644
4.01117
3.62315
3.2512
2.89427
2.55216
2.22423
1.91127
1.6143
1.33359
1.07008
0.82587
0.601926
0.399933
0.222541
0.0699655
5.7524
5.28486
4.8404
4.41647
4.0112
3.62318
3.25123
2.8943
2.55218
2.22425
1.91129
1.61432
1.33361
1.07009
0.825883
0.601936
0.39994
0.222545
0.0699668
5.75672
5.29413
4.85254
4.43021
4.02572
3.63792
3.26579
2.9084
2.56562
2.23687
1.92295
1.6249
1.34301
1.07823
0.832684
0.60733
0.403867
0.224939
0.0707611
5.76266
5.30832
4.87219
4.45327
4.05072
3.66378
3.29176
2.93391
2.59024
2.26026
1.94482
1.645
1.36111
1.09412
0.846143
0.61816
0.411867
0.22989
0.072443
5.7708
5.32789
4.8995
4.48557
4.08596
3.70047
3.32879
2.97047
2.62571
2.29415
1.9767
1.67447
1.38779
1.11764
0.866127
0.634257
0.423742
0.237215
0.0749235
5.78112
5.35282
4.93441
4.52697
4.13126
3.74777
3.3767
3.01799
2.67207
2.33876
2.01902
1.71397
1.42394
1.14986
0.893804
0.656771
0.440492
0.247629
0.0785003
5.79445
5.38429
4.97804
4.57843
4.18743
3.80638
3.43614
3.07712
2.73008
2.39504
2.07303
1.76515
1.47164
1.19332
0.932035
0.688654
0.464799
0.263123
0.0840285
5.80947
5.42005
5.02787
4.63746
4.25209
3.87412
3.50518
3.14627
2.79854
2.46233
2.13881
1.82907
1.53327
1.25197
0.986543
0.737203
0.504682
0.290673
0.094909
5.82138
5.44815
5.06607
4.68088
4.29706
3.91799
3.54613
3.18315
2.83067
2.4894
2.16071
1.84579
1.54482
1.25824
0.987316
0.732441
0.495082
0.27906
0.0876819
5.8292
5.46459
5.08519
4.69757
4.30737
3.91905
3.53605
3.1608
2.79551
2.44132
2.09985
1.77256
1.45996
1.16323
0.885291
0.629465
0.401552
0.209644
0.0589678
5.83586
5.47797
5.09918
4.70692
4.30791
3.90779
3.51107
3.12113
2.74091
2.3722
2.0172
1.67802
1.35624
1.0547
0.77857
0.533518
0.326482
0.163272
0.0436933
5.84226
5.49163
5.11454
4.71897
4.3126
3.90218
3.49333
3.09048
2.69749
2.31699
1.95205
1.6058
1.28115
0.982476
0.715998
0.487041
0.299662
0.15415
0.0444478
5.8485
5.5053
5.13046
4.73242
4.3197
3.90012
3.48048
3.06629
2.66246
2.27263
1.90088
1.55139
1.22812
0.93603
0.680801
0.465558
0.290699
0.152933
0.0450578
5.85557
5.52006
5.14759
4.74736
4.32881
3.90079
3.47129
3.04698
2.63388
2.23669
1.86048
1.51025
1.19045
0.905739
0.660272
0.454745
0.287063
0.152724
0.0452896
5.86108
5.53182
5.16092
4.75821
4.33399
3.89814
3.45978
3.02671
2.60606
2.20352
1.82499
1.47595
1.16077
0.883227
0.645733
0.447103
0.283986
0.151813
0.0450393
5.8642
5.53794
5.16645
4.76003
4.3297
3.88632
3.44001
2.99963
2.57329
2.16753
1.78877
1.44261
1.13293
0.86232
0.631666
0.438558
0.27917
0.149259
0.0440454
5.86477
5.53689
5.16133
4.7489
4.31132
3.86027
3.40677
2.96057
2.53054
2.12379
1.74696
1.40539
1.10213
0.838601
0.614455
0.426575
0.271095
0.144244
0.0419956
5.86167
5.52628
5.14221
4.72075
4.27429
3.81522
3.35529
2.90488
2.47336
2.06804
1.69545
1.36027
1.0646
0.808723
0.591387
0.409124
0.258296
0.135763
0.0384204
5.85488
5.50646
5.10972
4.67646
4.21966
3.75238
3.28689
2.83396
2.40312
2.0015
1.63516
1.30789
1.02073
0.772954
0.562701
0.386377
0.240818
0.123701
0.0331642
5.84858
5.49051
5.08647
4.64837
4.1893
3.72232
3.25961
2.81175
2.38791
1.99467
1.63731
1.31872
1.03908
0.797036
0.590293
0.41511
0.268009
0.145721
0.0440979
5.84447
5.48219
5.07768
4.64256
4.18947
3.73093
3.27847
2.84196
2.42983
2.04789
1.70062
1.39017
1.11611
0.876621
0.669064
0.489236
0.332664
0.194149
0.0659426
5.84038
5.47358
5.06807
4.63536
4.18774
3.73714
3.2944
2.8686
2.46739
2.09575
1.75738
1.45377
1.18389
0.945475
0.735486
0.549222
0.381544
0.226662
0.0771899
5.83663
5.46519
5.05841
4.62784
4.18539
3.74238
3.30892
2.89327
2.50227
2.14004
1.80956
1.51167
1.24479
1.00625
0.792692
0.599138
0.420363
0.251053
0.0852505
5.83272
5.45627
5.0481
4.6196
4.18217
3.74655
3.32208
2.9162
2.53487
2.18141
1.85805
1.56504
1.30032
1.06086
0.843134
0.642169
0.45304
0.271243
0.0920075
5.82761
5.44598
5.03655
4.61014
4.17771
3.74938
3.33375
2.93738
2.56539
2.22025
1.9035
1.6148
1.35167
1.11086
0.8888
0.680686
0.482062
0.2892
0.0981469
5.82316
5.43713
5.02656
4.60211
4.17444
3.75314
3.34604
2.95883
2.59575
2.25842
1.94771
1.66277
1.40077
1.15827
0.931794
0.71679
0.509273
0.306164
0.104065
5.82026
5.43015
5.01819
4.59538
4.17224
3.75779
3.35905
2.98079
2.62634
2.29649
1.99147
1.70993
1.44875
1.20441
0.973544
0.75188
0.53585
0.322896
0.110008
5.81652
5.4213
5.00744
4.58616
4.16769
3.76039
3.37037
3.00138
2.65578
2.33355
2.03427
1.75617
1.49587
1.2498
1.01474
0.786694
0.562428
0.339816
0.116125
5.81155
5.41022
4.99407
4.57438
4.16101
3.76145
3.38074
3.02152
2.68517
2.37081
2.07742
1.80287
1.54354
1.29585
1.05674
0.822407
0.589933
0.357529
0.122648
5.80645
5.39829
4.97952
4.56171
4.15409
3.76307
3.39242
3.04357
2.71686
2.41061
2.12324
1.85227
1.59391
1.34457
1.10133
0.860561
0.619568
0.376833
0.129888
5.80065
5.38434
4.96298
4.54796
4.14741
3.76624
3.40676
3.06911
2.75263
2.45485
2.17367
1.90635
1.64895
1.39784
1.15026
0.902687
0.652574
0.398584
0.138193
5.79196
5.36659
4.94377
4.53349
4.14208
3.77262
3.42579
3.10043
2.79489
2.506
2.23124
1.96763
1.71109
1.458
1.20568
0.950684
0.690502
0.423868
0.148022
5.78296
5.34991
4.92786
4.52487
4.14494
3.78907
3.45622
3.14397
2.84981
2.56995
2.30151
2.04133
1.78523
1.52954
1.27164
1.00803
0.736129
0.454588
0.160163
5.77569
5.33744
4.91948
4.52716
4.16156
3.82136
3.50387
3.20554
2.9231
2.6523
2.38998
2.13283
1.87655
1.61737
1.35268
1.07877
0.792837
0.493178
0.175674
5.76699
5.32725
4.91882
4.54212
4.19466
3.87279
3.5724
3.28907
3.01899
2.75752
2.5013
2.24694
1.98995
1.72641
1.45359
1.16739
0.864506
0.542552
0.195916
5.76059
5.32782
4.93647
4.58092
4.2553
3.95416
3.67238
3.40495
3.14773
2.89579
2.64562
2.39372
2.13536
1.86633
1.58358
1.28234
0.958401
0.608124
0.22345
5.76267
5.3496
4.98392
4.65501
4.35475
4.0766
3.81497
3.56452
3.32093
3.07906
2.83525
2.58584
2.32569
2.0501
1.75545
1.4358
1.08541
0.698423
0.262605
5.77612
5.39752
5.0666
4.77008
4.49906
4.24678
4.00763
3.7762
3.54811
3.31803
3.08211
2.83643
2.57527
2.29309
1.98526
1.64398
1.2609
0.826265
0.320668
5.80386
5.47502
5.18778
4.92956
4.69228
4.46972
4.25667
4.04783
3.83887
3.62426
3.39991
3.16153
2.9025
2.61602
2.29584
1.93116
1.50923
1.01344
0.411826
5.84511
5.57958
5.3444
5.13081
4.93285
4.7454
4.56394
4.38347
4.19985
4.00742
3.80178
3.57821
3.3289
3.04526
2.71857
2.33331
1.86949
1.2984
0.565852
5.89474
5.7024
5.52689
5.36487
5.21306
5.06781
4.92556
4.78187
4.63302
4.4734
4.29854
4.10335
3.87877
3.61408
3.29714
2.90561
2.40781
1.75409
0.851314
5.94492
5.83067
5.72135
5.61821
5.52044
5.42593
5.33235
5.23626
5.13483
5.02317
4.8973
4.75241
4.57899
4.36484
4.09432
3.73664
3.24331
2.53025
1.43822
5.98728
5.95064
5.91266
5.8758
5.84045
5.80597
5.77152
5.73544
5.69656
5.65218
5.60021
5.53786
5.45837
5.35199
5.20314
4.97655
4.60609
3.9594
2.77142
)
;

boundaryField
{
    up
    {
        type            fixedValue;
        value           uniform 0;
    }
    low
    {
        type            fixedValue;
        value           uniform 6;
    }
    left
    {
        type            fixedValue;
        value           uniform 6;
    }
    right
    {
        type            fixedValue;
        value           uniform 6;
    }
    frontAndBackPlanes
    {
        type            empty;
    }
}


// ************************************************************************* //
