/*--------------------------------*- C++ -*----------------------------------*\
  =========                 |
  \\      /  F ield         | OpenFOAM: The Open Source CFD Toolbox
   \\    /   O peration     | Website:  https://openfoam.org
    \\  /    A nd           | Version:  7
     \\/     M anipulation  |
\*---------------------------------------------------------------------------*/
FoamFile
{
    version     2.0;
    format      ascii;
    class       volScalarField;
    location    "0.14";
    object      gradTy;
}
// * * * * * * * * * * * * * * * * * * * * * * * * * * * * * * * * * * * * * //

dimensions      [0 -1 0 1 0 0 0];

internalField   nonuniform List<scalar> 
1596
(
-0.519362
-0.958642
-1.30668
-1.62456
-1.90867
-2.19791
-2.47096
-2.77065
-3.10975
-3.49659
-4.03849
-4.72917
-5.70977
-7.1402
-9.41452
-13.0088
-19.4866
-31.4763
-74.3509
-1.57394
-1.92254
-2.13401
-2.30399
-2.44378
-2.60044
-2.75912
-2.9615
-3.22203
-3.54162
-4.01269
-4.62057
-5.46125
-6.60706
-8.2622
-10.5233
-13.9147
-18.9151
-33.1089
-2.79442
-2.88524
-2.89972
-2.90193
-2.89337
-2.91681
-2.95798
-3.05495
-3.21967
-3.44811
-3.81804
-4.30647
-4.98119
-5.87499
-7.11336
-8.70517
-10.9371
-14.0046
-20.5663
-4.04379
-3.80065
-3.59217
-3.4204
-3.26581
-3.15916
-3.08456
-3.07412
-3.13665
-3.26492
-3.52345
-3.88517
-4.39894
-5.07752
-6.00233
-7.14825
-8.68598
-10.6897
-14.1017
-5.15856
-4.61573
-4.20077
-3.86671
-3.57687
-3.34851
-3.16457
-3.05035
-3.01206
-3.04089
-3.18964
-3.43105
-3.80098
-4.30245
-4.99138
-5.83209
-6.93432
-8.31836
-10.3266
-6.00378
-5.2834
-4.71639
-4.24929
-3.84358
-3.50718
-3.22437
-3.01422
-2.88143
-2.81705
-2.86355
-2.99608
-3.24104
-3.59701
-4.10411
-4.72625
-5.53835
-6.53733
-7.8513
-6.52038
-5.77112
-5.12885
-4.57175
-4.07709
-3.65111
-3.28312
-2.98789
-2.7699
-2.62133
-2.57574
-2.61201
-2.74937
-2.9845
-3.34693
-3.80417
-4.40957
-5.15104
-6.07729
-6.72777
-6.06408
-5.42413
-4.82701
-4.27604
-3.78325
-3.34678
-2.97981
-2.6881
-2.46606
-2.33984
-2.29263
-2.33803
-2.47203
-2.7164
-3.04362
-3.49248
-4.04882
-4.73049
-6.69958
-6.19863
-5.62232
-5.02988
-4.45318
-3.91536
-3.42592
-2.99952
-2.64464
-2.35883
-2.16258
-2.04337
-2.0104
-2.05946
-2.20623
-2.42804
-2.75301
-3.16775
-3.67756
-6.4936
-6.15746
-5.68111
-5.13351
-4.56464
-4.00911
-3.48796
-3.01975
-2.61675
-2.28038
-2.02733
-1.84906
-1.75156
-1.73067
-1.79728
-1.93308
-2.15826
-2.46142
-2.84286
-6.2656
-6.03838
-5.65599
-5.16802
-4.62651
-4.07242
-3.53585
-3.04007
-2.60163
-2.2261
-1.92806
-1.70249
-1.55316
-1.47604
-1.47816
-1.54463
-1.6894
-1.90303
-2.18385
-6.00664
-5.88703
-5.59021
-5.16351
-4.65756
-4.1159
-3.5746
-3.06143
-2.5971
-2.19127
-1.85775
-1.59454
-1.40401
-1.28227
-1.23321
-1.24455
-1.32521
-1.46735
-1.66849
-5.70198
-5.67565
-5.45865
-5.09429
-4.63055
-4.1119
-3.57758
-3.05905
-2.58051
-2.15524
-1.79729
-1.50713
-1.28643
-1.13148
-1.04381
-1.01302
-1.04421
-1.13076
-1.26993
-5.44472
-5.46554
-5.30651
-4.99432
-4.56974
-4.07611
-3.55365
-3.03647
-2.55141
-2.11464
-1.74094
-1.43262
-1.19111
-1.0128
-0.897437
-0.83586
-0.830241
-0.874751
-0.966506
-5.2168
-5.27358
-5.15492
-4.88204
-4.48935
-4.0181
-3.50827
-2.99563
-2.50889
-2.06638
-1.68365
-1.36434
-1.10975
-0.916317
-0.782389
-0.699563
-0.667785
-0.681684
-0.738297
-4.999
-5.09273
-5.00627
-4.76281
-4.39436
-3.94113
-3.44262
-2.9358
-2.4506
-2.00679
-1.62058
-1.29635
-1.03528
-0.833706
-0.68886
-0.592721
-0.543574
-0.53628
-0.567819
-4.80774
-4.92699
-4.8651
-4.64275
-4.29093
-3.85011
-3.35992
-2.85839
-2.37632
-1.93435
-1.549
-1.22489
-0.96288
-0.759004
-0.609535
-0.506548
-0.447082
-0.426081
-0.440482
-4.6456
-4.78375
-4.73997
-4.53156
-4.18918
-3.75441
-3.26805
-2.76945
-2.29023
-1.85155
-1.46982
-1.14943
-0.890664
-0.68899
-0.539745
-0.434888
-0.370476
-0.341437
-0.344667
-4.47977
-4.65956
-4.63797
-4.44099
-4.10288
-3.66808
-3.18008
-2.68024
-2.20142
-1.76526
-1.38777
-1.07277
-0.819633
-0.623012
-0.47723
-0.373927
-0.308325
-0.275256
-0.271555
-4.30227
-4.53452
-4.54286
-4.3594
-4.02401
-3.58592
-3.09274
-2.58883
-2.10875
-1.67472
-1.30219
-0.994125
-0.748683
-0.559464
-0.419683
-0.320517
-0.256454
-0.222207
-0.214569
-4.15037
-4.42301
-4.46162
-4.29237
-3.95831
-3.51385
-3.0119
-2.50066
-2.01702
-1.58396
-1.21624
-0.915745
-0.679162
-0.498802
-0.366652
-0.273281
-0.212482
-0.178847
-0.169194
-4.01264
-4.32624
-4.39532
-4.24101
-3.90793
-3.45531
-2.94195
-2.42062
-1.93108
-1.49743
-1.13369
-0.840596
-0.613155
-0.442241
-0.318507
-0.231771
-0.175071
-0.142841
-0.132126
-3.87949
-4.23971
-4.34172
-4.20394
-3.87258
-3.4114
-2.88529
-2.35205
-1.85479
-1.41898
-1.05806
-0.771585
-0.552845
-0.391225
-0.276018
-0.196164
-0.14375
-0.112688
-0.100474
-3.75457
-4.16168
-4.29621
-4.17369
-3.84261
-3.3709
-2.83033
-2.28351
-1.77726
-1.33878
-0.980247
-0.7006
-0.491042
-0.33946
-0.233676
-0.161873
-0.114738
-0.0847638
-0.0666681
-3.64836
-4.10019
-4.2775
-4.18952
-3.88338
-3.42572
-2.89065
-2.3423
-1.83032
-1.38467
-1.01792
-0.730984
-0.514876
-0.358021
-0.248062
-0.173444
-0.123894
-0.0911165
-0.0674572
-3.56977
-4.05146
-4.26118
-4.20701
-3.93199
-3.49845
-2.97858
-2.43591
-1.92147
-1.46788
-1.0894
-0.789657
-0.560955
-0.392788
-0.273298
-0.191583
-0.137196
-0.102108
-0.0791797
-3.5614
-4.04857
-4.27287
-4.2409
-3.99116
-3.58132
-3.07928
-2.54649
-2.0336
-1.57462
-1.1857
-0.872595
-0.62933
-0.446866
-0.314491
-0.222272
-0.16009
-0.119915
-0.0942551
-3.63221
-4.09961
-4.31648
-4.28979
-4.05454
-3.66353
-3.17926
-2.65938
-2.15248
-1.69254
-1.29666
-0.972341
-0.715066
-0.517293
-0.369742
-0.264096
-0.191181
-0.143399
-0.112806
-3.77146
-4.20393
-4.39589
-4.36005
-4.12948
-3.75219
-3.28477
-2.77981
-2.28257
-1.82586
-1.42676
-1.09404
-0.824149
-0.61072
-0.44575
-0.323058
-0.235261
-0.176191
-0.137742
-3.97242
-4.35017
-4.50308
-4.44772
-4.21487
-3.84765
-3.39657
-2.90852
-2.42458
-1.97553
-1.57768
-1.24067
-0.961398
-0.733967
-0.55079
-0.407667
-0.299723
-0.223992
-0.173366
-4.22915
-4.53627
-4.64284
-4.56215
-4.3224
-3.96209
-3.52605
-3.05536
-2.5866
-2.14817
-1.75517
-1.41799
-1.13371
-0.896273
-0.696869
-0.531716
-0.397674
-0.297104
-0.226961
-4.4955
-4.74351
-4.80545
-4.69828
-4.45
-4.09532
-3.67395
-3.22128
-2.76946
-2.34436
-1.9597
-1.6269
-1.34364
-1.10381
-0.896004
-0.713926
-0.5516
-0.415513
-0.312211
-4.792
-4.97856
-4.99341
-4.85746
-4.5986
-4.24803
-3.84057
-3.40617
-2.9725
-2.56281
-2.18925
-1.8646
-1.58809
-1.35541
-1.15344
-0.972484
-0.796256
-0.624476
-0.457847
-5.13388
-5.25249
-5.2179
-5.0525
-4.78328
-4.4379
-4.04602
-3.6324
-3.22019
-2.82966
-2.4717
-2.15972
-1.89569
-1.67976
-1.50241
-1.35632
-1.21909
-1.07964
-0.923834
-5.50526
-5.55022
-5.45483
-5.24739
-4.95467
-4.60164
-4.21293
-3.80918
-3.4094
-3.03006
-2.68114
-2.37415
-2.11264
-1.89968
-1.73265
-1.61197
-1.52588
-1.46585
-1.41633
-5.91956
-5.86785
-5.69703
-5.43619
-5.1092
-4.73796
-4.34249
-3.94037
-3.54744
-3.17687
-2.83834
-2.54061
-2.28718
-2.08026
-1.91912
-1.80353
-1.72942
-1.69517
-1.69751
-6.3741
-6.20884
-5.95941
-5.64497
-5.28321
-4.89164
-4.48654
-4.0828
-3.69395
-3.33106
-3.00306
-2.71696
-2.47555
-2.27977
-2.12796
-2.01656
-1.93928
-1.88969
-1.86002
-6.77812
-6.51195
-6.19266
-5.82993
-5.43616
-5.02498
-4.60976
-4.20291
-3.81604
-3.45849
-3.13796
-2.86032
-2.62749
-2.43962
-2.29462
-2.18856
-2.11523
-2.06857
-2.04136
-7.09314
-6.76
-6.38978
-5.99023
-5.57153
-5.14495
-4.7218
-4.31263
-3.92756
-3.57455
-3.26038
-2.99005
-2.76487
-2.58453
-2.44677
-2.34738
-2.28029
-2.23939
-2.21752
-7.33945
-6.95606
-6.54723
-6.11961
-5.68182
-5.24343
-4.81419
-4.40327
-4.01963
-3.6702
-3.36112
-3.09668
-2.87778
-2.70378
-2.57228
-2.47883
-2.41744
-2.38193
-2.36521
-7.5177
-7.097
-6.65926
-6.21107
-5.75962
-5.31296
-4.87957
-4.46755
-4.08504
-3.73826
-3.43289
-3.17279
-2.95855
-2.78928
-2.66249
-2.57351
-2.51634
-2.48466
-2.47133
-7.63802
-7.17854
-6.71899
-6.25781
-5.7986
-5.34757
-4.91217
-4.4998
-4.11813
-3.77297
-3.46979
-3.21217
-3.0006
-2.83408
-2.71011
-2.62395
-2.56968
-2.54094
-2.53061
-7.63805
-7.17861
-6.71907
-6.25791
-5.7987
-5.34768
-4.91228
-4.49992
-4.11825
-3.7731
-3.46991
-3.2123
-3.00073
-2.83422
-2.71025
-2.62411
-2.56984
-2.54111
-2.53079
-7.51774
-7.09713
-6.65944
-6.2113
-5.75988
-5.31325
-4.87988
-4.46787
-4.08537
-3.73861
-3.43326
-3.17316
-2.95894
-2.78969
-2.66292
-2.57397
-2.51683
-2.48519
-2.47192
-7.33953
-6.95626
-6.54752
-6.11997
-5.68223
-5.24388
-4.81468
-4.40379
-4.02017
-3.67077
-3.3617
-3.09728
-2.87841
-2.70443
-2.57297
-2.47956
-2.41822
-2.38277
-2.3661
-7.09324
-6.76025
-6.39014
-5.99069
-5.57206
-5.14554
-4.72243
-4.31331
-3.92827
-3.57528
-3.26115
-2.99084
-2.76568
-2.58536
-2.44764
-2.34829
-2.28125
-2.24041
-2.21861
-6.77823
-6.51224
-6.19309
-5.83046
-5.43679
-5.02568
-4.61052
-4.20372
-3.81689
-3.45938
-3.13888
-2.86126
-2.62845
-2.44061
-2.29565
-2.18962
-2.11634
-2.06974
-2.0426
-6.37424
-6.20916
-5.95987
-5.64556
-5.2839
-4.89243
-4.4874
-4.08371
-3.69492
-3.33206
-3.00408
-2.71801
-2.47662
-2.28085
-2.12906
-2.01769
-1.94042
-1.89086
-1.86122
-5.91971
-5.86823
-5.69762
-5.43697
-5.11015
-4.73906
-4.34373
-3.94171
-3.54887
-3.17837
-2.8399
-2.54222
-2.28885
-2.08197
-1.92089
-1.80533
-1.73118
-1.69677
-1.69877
-5.50535
-5.55029
-5.45496
-5.24764
-4.95505
-4.60215
-4.21357
-3.80992
-3.41022
-3.0309
-2.68198
-2.37492
-2.1133
-1.90019
-1.73302
-1.61225
-1.52627
-1.46675
-1.41832
-5.13392
-5.25276
-5.21842
-5.05332
-4.78443
-4.43937
-4.04779
-3.63441
-3.22239
-2.83198
-2.47409
-2.16213
-1.89809
-1.68219
-1.50497
-1.35916
-1.22241
-1.08367
-0.92871
-4.79201
-4.97862
-4.99364
-4.85792
-4.59932
-4.24901
-3.84179
-3.40758
-2.97405
-2.56442
-2.19088
-1.8662
-1.58967
-1.35698
-1.15507
-0.974202
-0.798029
-0.626153
-0.459119
-4.49549
-4.74353
-4.80562
-4.69868
-4.45068
-4.09627
-3.67513
-3.22265
-2.77095
-2.3459
-1.96123
-1.62839
-1.34507
-1.10521
-0.897369
-0.715245
-0.552806
-0.416508
-0.312947
-4.22912
-4.53625
-4.64296
-4.56248
-4.32301
-3.96296
-3.52716
-3.05663
-2.58797
-2.14957
-1.75654
-1.41929
-1.13494
-0.897417
-0.697924
-0.532661
-0.398474
-0.297735
-0.227424
-3.97239
-4.35012
-4.50315
-4.448
-4.21541
-3.84845
-3.39758
-2.90969
-2.42582
-1.97679
-1.57889
-1.24179
-0.962418
-0.734881
-0.55159
-0.408344
-0.30027
-0.224414
-0.17368
-3.77141
-4.20385
-4.39592
-4.36028
-4.12995
-3.75291
-3.28569
-2.78087
-2.28369
-1.82697
-1.4278
-1.09498
-0.824983
-0.61144
-0.446355
-0.32355
-0.235647
-0.176487
-0.137967
-3.63216
-4.09952
-4.31649
-4.28998
-4.05495
-3.66417
-3.18008
-2.66031
-2.15345
-1.69349
-1.29753
-0.973121
-0.715738
-0.517856
-0.3702
-0.264459
-0.191463
-0.143617
-0.112978
-3.56135
-4.04848
-4.27286
-4.24105
-3.99152
-3.58188
-3.08
-2.5473
-2.03444
-1.57542
-1.18643
-0.873232
-0.629868
-0.447308
-0.314844
-0.222548
-0.160304
-0.120086
-0.0943984
-3.56971
-4.05137
-4.26115
-4.2071
-3.93224
-3.49886
-2.97911
-2.43651
-1.92209
-1.46846
-1.08993
-0.790114
-0.561336
-0.393096
-0.27354
-0.19177
-0.137341
-0.102228
-0.0792989
-3.64841
-4.10022
-4.27755
-4.18962
-3.88354
-3.42593
-2.89091
-2.34259
-1.83062
-1.38497
-1.0182
-0.731243
-0.515105
-0.358221
-0.248231
-0.173587
-0.124015
-0.0912147
-0.0675229
-3.75463
-4.16173
-4.29622
-4.17365
-3.8425
-3.37074
-2.83013
-2.28329
-1.77704
-1.33858
-0.980065
-0.700449
-0.490922
-0.339367
-0.233605
-0.161819
-0.114695
-0.0847258
-0.0666183
-3.87953
-4.23974
-4.34174
-4.20395
-3.87258
-3.41139
-2.88528
-2.35204
-1.85478
-1.41899
-1.05807
-0.771599
-0.552859
-0.391239
-0.276031
-0.196175
-0.14376
-0.112696
-0.100478
-4.01267
-4.32626
-4.39532
-4.241
-3.90791
-3.45529
-2.94192
-2.4206
-1.93107
-1.49742
-1.13369
-0.8406
-0.613161
-0.442248
-0.318514
-0.231778
-0.175078
-0.142847
-0.132131
-4.15039
-4.42302
-4.46162
-4.29236
-3.95829
-3.51383
-3.01188
-2.50065
-2.01701
-1.58395
-1.21624
-0.915747
-0.679166
-0.498806
-0.366656
-0.273286
-0.212488
-0.178854
-0.1692
-4.30229
-4.53453
-4.54286
-4.35939
-4.024
-3.5859
-3.09273
-2.58882
-2.10875
-1.67472
-1.30219
-0.994125
-0.748684
-0.559466
-0.419686
-0.320522
-0.25646
-0.222216
-0.214577
-4.47978
-4.65957
-4.63797
-4.44098
-4.10287
-3.66807
-3.18007
-2.68024
-2.20142
-1.76525
-1.38776
-1.07277
-0.819631
-0.623012
-0.477231
-0.373932
-0.308333
-0.275266
-0.271565
-4.64561
-4.78375
-4.73996
-4.53155
-4.18917
-3.7544
-3.26805
-2.76945
-2.29023
-1.85155
-1.46982
-1.14943
-0.89066
-0.688988
-0.539746
-0.434893
-0.370485
-0.34145
-0.344679
-4.80775
-4.92698
-4.8651
-4.64274
-4.29092
-3.85011
-3.35992
-2.85839
-2.37632
-1.93435
-1.549
-1.22488
-0.962874
-0.759002
-0.609536
-0.506554
-0.447094
-0.426095
-0.440495
-4.999
-5.09272
-5.00626
-4.76281
-4.39436
-3.94113
-3.44262
-2.9358
-2.45059
-2.00678
-1.62057
-1.29634
-1.03527
-0.833703
-0.688862
-0.592728
-0.543586
-0.536294
-0.56783
-5.21679
-5.27357
-5.15491
-4.88204
-4.48935
-4.01811
-3.50827
-2.99563
-2.50889
-2.06637
-1.68364
-1.36433
-1.10974
-0.916314
-0.782392
-0.699571
-0.667797
-0.681695
-0.738304
-5.4447
-5.46552
-5.3065
-4.99433
-4.56975
-4.07612
-3.55366
-3.03647
-2.5514
-2.11463
-1.74093
-1.43261
-1.1911
-1.0128
-0.897441
-0.835868
-0.830249
-0.874756
-0.966506
-5.70196
-5.67564
-5.45865
-5.0943
-4.63056
-4.11191
-3.57759
-3.05904
-2.5805
-2.15523
-1.79728
-1.50712
-1.28643
-1.13148
-1.04382
-1.01302
-1.04421
-1.13076
-1.26992
-6.00662
-5.88702
-5.59021
-5.16351
-4.65757
-4.1159
-3.5746
-3.06142
-2.59709
-2.19126
-1.85774
-1.59453
-1.40401
-1.28227
-1.23321
-1.24455
-1.3252
-1.46733
-1.66847
-6.26558
-6.03838
-5.656
-5.16803
-4.62652
-4.07243
-3.53585
-3.04006
-2.60162
-2.22609
-1.92805
-1.70248
-1.55316
-1.47605
-1.47816
-1.54463
-1.68938
-1.903
-2.18383
-6.49358
-6.15746
-5.68112
-5.13353
-4.56465
-4.00912
-3.48796
-3.01975
-2.61675
-2.28038
-2.02733
-1.84906
-1.75156
-1.73067
-1.79728
-1.93307
-2.15823
-2.46138
-2.84284
-6.69957
-6.19865
-5.62234
-5.0299
-4.45319
-3.91536
-3.42592
-2.99952
-2.64463
-2.35883
-2.16258
-2.04337
-2.0104
-2.05945
-2.20622
-2.42802
-2.75297
-3.16771
-3.67754
-6.72778
-6.0641
-5.42415
-4.82701
-4.27604
-3.78325
-3.34678
-2.97981
-2.6881
-2.46607
-2.33984
-2.29264
-2.33803
-2.47203
-2.71639
-3.0436
-3.49244
-4.04879
-4.73049
-6.5204
-5.77115
-5.12887
-4.57176
-4.0771
-3.65112
-3.28312
-2.9879
-2.76991
-2.62134
-2.57575
-2.61202
-2.74938
-2.9845
-3.34691
-3.80415
-4.40953
-5.15102
-6.0773
-6.00381
-5.28342
-4.7164
-4.2493
-3.84358
-3.50719
-3.22438
-3.01423
-2.88145
-2.81706
-2.86356
-2.99609
-3.24104
-3.59699
-4.10409
-4.72622
-5.53833
-6.53732
-7.85132
-5.15858
-4.61574
-4.20078
-3.86672
-3.57688
-3.34852
-3.16459
-3.05036
-3.01208
-3.04091
-3.18965
-3.43106
-3.80098
-4.30244
-4.99136
-5.83207
-6.93431
-8.31838
-10.3266
-4.04381
-3.80066
-3.59217
-3.42041
-3.26582
-3.15918
-3.08458
-3.07414
-3.13667
-3.26494
-3.52346
-3.88517
-4.39893
-5.07751
-6.00231
-7.14824
-8.68599
-10.6897
-14.1018
-2.79443
-2.88524
-2.89972
-2.90194
-2.89338
-2.91682
-2.958
-3.05496
-3.21968
-3.44812
-3.81805
-4.30647
-4.98118
-5.87497
-7.11335
-8.70516
-10.9371
-14.0046
-20.5663
-1.57395
-1.92253
-2.13401
-2.30399
-2.44378
-2.60045
-2.75913
-2.96152
-3.22204
-3.54163
-4.0127
-4.62057
-5.46124
-6.60705
-8.26219
-10.5233
-13.9147
-18.9151
-33.1089
-0.519366
-0.958641
-1.30668
-1.62456
-1.90867
-2.19791
-2.47096
-2.77065
-3.10976
-3.49659
-4.03849
-4.72917
-5.70976
-7.14018
-9.4145
-13.0088
-19.4866
-31.4763
-74.3509
)
;

boundaryField
{
    up
    {
        type            calculated;
        value           nonuniform List<scalar> 
84
(
-67.3804
-36.4933
-22.3654
-15.1733
-11.0341
-8.35538
-6.45383
-5.01841
-3.89826
-3.01116
-2.3097
-1.76028
-1.33527
-1.01156
-0.768305
-0.587063
-0.452267
-0.351434
-0.275031
-0.215978
-0.169342
-0.131424
-0.0981573
-0.0590114
-0.0566583
-0.0728985
-0.0872412
-0.104265
-0.126779
-0.158653
-0.205817
-0.276869
-0.39924
-0.896158
-1.43851
-1.71199
-1.8489
-2.0319
-2.21057
-2.36067
-2.46841
-2.52923
-2.52941
-2.46901
-2.36159
-2.21169
-2.03317
-1.85012
-1.71294
-1.44064
-0.901764
-0.400446
-0.277499
-0.206222
-0.158931
-0.126981
-0.104422
-0.0873757
-0.0730421
-0.0567338
-0.0589519
-0.0981569
-0.131426
-0.169347
-0.215985
-0.275039
-0.351444
-0.452276
-0.58707
-0.768308
-1.01155
-1.33525
-1.76026
-2.30969
-3.01115
-3.89827
-5.01844
-6.45387
-8.35543
-11.0341
-15.1733
-22.3654
-36.4932
-67.3803
)
;
    }
    low
    {
        type            calculated;
        value           nonuniform List<scalar> 
84
(
-0.558007
-1.64719
-2.95146
-4.3045
-5.51393
-6.4186
-6.94378
-7.11763
-7.00995
-6.7061
-6.42959
-6.12532
-5.75768
-5.46765
-5.22188
-4.97688
-4.76098
-4.59164
-4.40853
-4.19125
-4.00714
-3.84283
-3.67751
-3.52231
-3.3656
-3.26365
-3.25865
-3.3642
-3.54921
-3.80708
-4.11429
-4.41399
-4.74728
-5.13029
-5.5347
-5.99185
-6.50462
-6.94352
-7.27749
-7.5394
-7.73027
-7.87022
-7.87025
-7.73029
-7.53944
-7.27754
-6.94357
-6.5047
-5.99194
-5.53465
-5.13034
-4.74722
-4.41395
-4.11425
-3.80705
-3.54917
-3.36418
-3.25864
-3.26365
-3.36562
-3.5224
-3.67752
-3.84285
-4.00715
-4.19126
-4.40854
-4.59165
-4.76098
-4.97688
-5.22188
-5.46764
-5.75766
-6.12529
-6.42956
-6.70607
-7.00992
-7.11763
-6.9438
-6.41863
-5.51396
-4.30453
-2.95149
-1.64721
-0.558013
)
;
    }
    left
    {
        type            calculated;
        value           nonuniform List<scalar> 
19
(
-0.509918
-0.942017
-1.29796
-1.62776
-1.92528
-2.22763
-2.51373
-2.82838
-3.18441
-3.59616
-4.17561
-4.92061
-5.99135
-7.57913
-10.1256
-14.2149
-21.6664
-35.6158
-69.8798
)
;
    }
    right
    {
        type            calculated;
        value           nonuniform List<scalar> 
19
(
-0.509921
-0.942018
-1.29796
-1.62776
-1.92527
-2.22763
-2.51373
-2.82838
-3.18442
-3.59616
-4.17561
-4.9206
-5.99134
-7.57911
-10.1256
-14.2149
-21.6664
-35.6158
-69.8799
)
;
    }
    frontAndBackPlanes
    {
        type            empty;
    }
}


// ************************************************************************* //
