/*--------------------------------*- C++ -*----------------------------------*\
  =========                 |
  \\      /  F ield         | OpenFOAM: The Open Source CFD Toolbox
   \\    /   O peration     | Website:  https://openfoam.org
    \\  /    A nd           | Version:  7
     \\/     M anipulation  |
\*---------------------------------------------------------------------------*/
FoamFile
{
    version     2.0;
    format      ascii;
    class       volScalarField;
    location    "0.14";
    object      gradTx;
}
// * * * * * * * * * * * * * * * * * * * * * * * * * * * * * * * * * * * * * //

dimensions      [0 -1 0 1 0 0 0];

internalField   nonuniform List<scalar> 
1596
(
-0.249315
-1.24954
-2.22532
-3.08148
-3.80354
-4.38382
-4.85051
-5.22271
-5.52852
-5.81886
-6.11177
-6.4683
-6.95631
-7.66751
-8.70474
-10.3091
-12.8416
-17.0753
-24.6079
0.0589478
-1.02853
-1.98706
-2.79761
-3.47292
-4.01319
-4.44452
-4.77731
-5.03361
-5.24207
-5.41088
-5.57571
-5.75437
-5.97057
-6.22438
-6.50779
-6.72579
-6.67545
-5.91775
0.313916
-0.815129
-1.7335
-2.48392
-3.09954
-3.58966
-3.97718
-4.26943
-4.48191
-4.63135
-4.72051
-4.76988
-4.78162
-4.76058
-4.69674
-4.56843
-4.30211
-3.76306
-2.6769
0.361699
-0.681907
-1.50538
-2.16929
-2.71013
-3.14114
-3.48019
-3.73318
-3.9103
-4.02082
-4.06557
-4.05536
-3.98763
-3.86087
-3.66607
-3.3854
-2.97381
-2.3544
-1.36806
0.134944
-0.678119
-1.3429
-1.8896
-2.33962
-2.70261
-2.98929
-3.20375
-3.35181
-3.43747
-3.46125
-3.42738
-3.33213
-3.17165
-2.93943
-2.62231
-2.19513
-1.61678
-0.799503
-0.339753
-0.824361
-1.2789
-1.68038
-2.02398
-2.30946
-2.53872
-2.71294
-2.83395
-2.90174
-2.91674
-2.87852
-2.78309
-2.62534
-2.40037
-2.09764
-1.70336
-1.19588
-0.528109
-0.965219
-1.10765
-1.32929
-1.56711
-1.7916
-1.99014
-2.15564
-2.28523
-2.37704
-2.42778
-2.43739
-2.40219
-2.3179
-2.1785
-1.97961
-1.71169
-1.36658
-0.932171
-0.383216
-1.61272
-1.47007
-1.47281
-1.54636
-1.64761
-1.75394
-1.85093
-1.93144
-1.99023
-2.02143
-2.02397
-1.99203
-1.92089
-1.80385
-1.6364
-1.40917
-1.11631
-0.749905
-0.295754
-2.27731
-1.94256
-1.75734
-1.66987
-1.64039
-1.64304
-1.65963
-1.67957
-1.69495
-1.69781
-1.68554
-1.65083
-1.58823
-1.49037
-1.35211
-1.1639
-0.920249
-0.614463
-0.237164
-2.67381
-2.27693
-1.98561
-1.78592
-1.65472
-1.57095
-1.5174
-1.48232
-1.45654
-1.43112
-1.40214
-1.36169
-1.3038
-1.22086
-1.10732
-0.953722
-0.754475
-0.503195
-0.19254
-3.00072
-2.58357
-2.23188
-1.95122
-1.73551
-1.57293
-1.45103
-1.35935
-1.28898
-1.23085
-1.18004
-1.12844
-1.06958
-0.995743
-0.900929
-0.775858
-0.614548
-0.410437
-0.15681
-3.34092
-2.92888
-2.54146
-2.19838
-1.9078
-1.66861
-1.47556
-1.32175
-1.20001
-1.102
-1.02222
-0.952453
-0.885718
-0.81406
-0.730987
-0.627362
-0.496741
-0.33224
-0.127095
-3.44933
-3.09406
-2.71931
-2.35838
-2.03062
-1.74461
-1.50243
-1.30207
-1.13935
-1.00773
-0.902134
-0.81485
-0.73883
-0.666257
-0.590476
-0.502787
-0.396631
-0.265133
-0.101584
-3.49687
-3.20088
-2.85624
-2.4976
-2.151
-1.83299
-1.55251
-1.31294
-1.11376
-0.950858
-0.820159
-0.714714
-0.627622
-0.55125
-0.478853
-0.402157
-0.314601
-0.209467
-0.080229
-3.52199
-3.2784
-2.96855
-2.6229
-2.26939
-1.93014
-1.61988
-1.34728
-1.11578
-0.924041
-0.76943
-0.645903
-0.546832
-0.464751
-0.392841
-0.323163
-0.249205
-0.164476
-0.0627237
-3.47199
-3.28476
-3.01651
-2.6955
-2.34929
-2.00307
-1.6758
-1.38078
-1.12528
-0.910851
-0.736667
-0.597787
-0.488047
-0.400239
-0.327554
-0.262351
-0.198234
-0.128993
-0.0487324
-3.33915
-3.20687
-2.98502
-2.69817
-2.37207
-2.03293
-1.70229
-1.397
-1.1277
-0.898705
-0.711131
-0.561308
-0.443729
-0.351568
-0.278144
-0.21612
-0.159267
-0.101684
-0.0378691
-3.17302
-3.07729
-2.89727
-2.64686
-2.34741
-2.02422
-1.69995
-1.39384
-1.1192
-0.882804
-0.687595
-0.531192
-0.408828
-0.314128
-0.240606
-0.181217
-0.129919
-0.0811065
-0.0296561
-3.03544
-2.96867
-2.8201
-2.59842
-2.32099
-2.01168
-1.69373
-1.38806
-1.11014
-0.86869
-0.668174
-0.507261
-0.381742
-0.285558
-0.212331
-0.155179
-0.108171
-0.0659185
-0.0235981
-2.7619
-2.73593
-2.62712
-2.44443
-2.20219
-1.92181
-1.62574
-1.33536
-1.0674
-0.832144
-0.635382
-0.476936
-0.353369
-0.259183
-0.188347
-0.134313
-0.0913844
-0.05446
-0.0190857
-2.4448
-2.45148
-2.37953
-2.23545
-2.03091
-1.78464
-1.51753
-1.25041
-1.00042
-0.778717
-0.592037
-0.441175
-0.323455
-0.23403
-0.167347
-0.117286
-0.0784348
-0.0459603
-0.0157919
-2.10207
-2.12943
-2.08819
-1.98019
-1.81389
-1.60498
-1.3722
-1.13496
-0.909945
-0.708507
-0.537793
-0.399341
-0.291166
-0.209152
-0.14837
-0.103275
-0.0688005
-0.0402683
-0.013723
-1.70939
-1.74624
-1.73034
-1.658
-1.53349
-1.3685
-1.1786
-0.980687
-0.790036
-0.617442
-0.469966
-0.349724
-0.255419
-0.183833
-0.13094
-0.0920795
-0.0627581
-0.0384279
-0.0144043
-1.25481
-1.23927
-1.18697
-1.09967
-0.984691
-0.852451
-0.714197
-0.579943
-0.457689
-0.352112
-0.265279
-0.196752
-0.144338
-0.105283
-0.0768168
-0.0561895
-0.0407205
-0.0273221
-0.0119309
-0.838877
-0.925268
-1.00018
-1.04318
-1.04337
-0.998907
-0.916336
-0.807078
-0.685053
-0.562706
-0.449433
-0.351167
-0.269627
-0.204728
-0.155028
-0.118466
-0.0922606
-0.0732926
-0.057187
-0.281065
-0.315026
-0.355355
-0.391263
-0.414915
-0.421627
-0.410709
-0.384176
-0.346798
-0.303849
-0.259742
-0.218347
-0.180916
-0.148279
-0.120694
-0.0987289
-0.0821677
-0.0708799
-0.0637756
0.278648
0.240348
0.180364
0.108248
0.0340362
-0.0334696
-0.0882417
-0.127259
-0.150974
-0.161914
-0.163042
-0.157909
-0.148147
-0.135245
-0.120394
-0.105718
-0.0927065
-0.0829294
-0.0764517
0.833236
0.781436
0.695871
0.586683
0.465427
0.343525
0.230526
0.132865
0.0532694
-0.00857299
-0.0543106
-0.0868606
-0.107723
-0.118238
-0.11956
-0.114588
-0.106243
-0.0980663
-0.0916322
1.32697
1.25027
1.1343
0.990444
0.830576
0.666835
0.509978
0.367762
0.244472
0.141052
0.056773
-0.0106621
-0.062284
-0.0985737
-0.119404
-0.127071
-0.124934
-0.118546
-0.111617
1.82713
1.71673
1.56481
1.38314
1.18415
0.980522
0.783573
0.601506
0.439263
0.298286
0.17821
0.0768266
-0.00684508
-0.0725558
-0.11819
-0.143906
-0.15158
-0.148044
-0.139925
2.18931
2.04152
1.85725
1.64759
1.42445
1.19925
0.981882
0.779261
0.595691
0.432284
0.288617
0.162227
0.0517304
-0.0425192
-0.116443
-0.166747
-0.190601
-0.19307
-0.182811
2.514
2.33512
2.11964
1.88316
1.63807
1.3946
1.16109
0.942995
0.743732
0.563818
0.402535
0.256757
0.123858
0.00264088
-0.102845
-0.187023
-0.239945
-0.259396
-0.251545
2.79918
2.57926
2.33103
2.07025
1.80804
1.55246
1.30974
1.08353
0.876161
0.687478
0.516565
0.359881
0.213463
0.0733432
-0.0594415
-0.181837
-0.279409
-0.338753
-0.346843
2.96157
2.68086
2.38532
2.08912
1.80113
1.527
1.27083
1.03463
0.819569
0.624827
0.448898
0.288008
0.137216
-0.010139
-0.158338
-0.312163
-0.464356
-0.602038
-0.700303
3.03945
2.73705
2.44224
2.1635
1.90303
1.66097
1.43698
1.23026
1.04029
0.866149
0.707062
0.561487
0.427081
0.300241
0.176573
0.0475438
-0.0936802
-0.254351
-0.435375
3.08091
2.77246
2.48995
2.2307
1.99092
1.76793
1.55989
1.36568
1.18495
1.01726
0.862521
0.720603
0.590634
0.47185
0.363674
0.264413
0.17219
0.0833649
-0.00819858
2.87335
2.52293
2.2175
1.94664
1.70356
1.48401
1.28493
1.10409
0.939943
0.79085
0.655617
0.533181
0.421972
0.320885
0.22945
0.14725
0.0746
0.0125552
-0.0386173
2.48974
2.17776
1.90909
1.6734
1.46396
1.27628
1.10713
0.954041
0.815349
0.6894
0.575069
0.471414
0.377116
0.29123
0.213236
0.142497
0.0787038
0.0220845
-0.0276221
2.04544
1.78847
1.56556
1.37018
1.1973
1.04315
0.904849
0.780142
0.667465
0.565289
0.472593
0.388508
0.311884
0.241874
0.177999
0.119664
0.0665884
0.0189931
-0.0232884
1.5265
1.33084
1.16244
1.01603
0.887348
0.77322
0.671216
0.579463
0.49667
0.421605
0.353465
0.291567
0.235037
0.183239
0.135834
0.092401
0.0527815
0.0172094
-0.0143878
0.955381
0.825193
0.716887
0.624611
0.544498
0.473973
0.411237
0.354969
0.30428
0.258349
0.216645
0.178717
0.144007
0.112108
0.0828092
0.0558503
0.0311481
0.00888362
-0.0109459
0.365081
0.311663
0.268999
0.233232
0.202372
0.17529
0.151274
0.129826
0.11061
0.0933115
0.0777132
0.0636195
0.0507936
0.0390491
0.028268
0.0183174
0.00913097
0.00074545
-0.00685062
-0.364907
-0.311264
-0.268442
-0.232569
-0.201642
-0.174526
-0.150502
-0.129067
-0.109882
-0.0926285
-0.0770868
-0.0630586
-0.0503056
-0.0386402
-0.0279426
-0.0180791
-0.00898188
-0.00068546
0.0068233
-0.955215
-0.824835
-0.716392
-0.624023
-0.543854
-0.473302
-0.410561
-0.354309
-0.303653
-0.257766
-0.216116
-0.178252
-0.143612
-0.111789
-0.0825697
-0.0556941
-0.0310772
-0.00889742
0.0108498
-1.52633
-1.33049
-1.16195
-1.01544
-0.886698
-0.772537
-0.670524
-0.578781
-0.496016
-0.420992
-0.352903
-0.291063
-0.234597
-0.182865
-0.135529
-0.0921657
-0.0526142
-0.0171069
0.0144298
-2.04531
-1.78821
-1.5652
-1.36975
-1.19682
-1.04265
-0.904353
-0.77966
-0.66701
-0.564872
-0.472221
-0.388187
-0.311619
-0.241667
-0.177849
-0.119572
-0.0665527
-0.0190102
0.0232224
-2.48965
-2.17757
-1.90883
-1.67308
-1.46359
-1.2759
-1.10674
-0.953667
-0.814998
-0.689082
-0.574791
-0.47118
-0.37693
-0.291091
-0.213145
-0.142451
-0.0786982
-0.0221115
0.0275726
-2.87333
-2.52285
-2.21735
-1.94645
-1.70334
-1.48377
-1.2847
-1.10387
-0.939754
-0.790697
-0.655507
-0.533114
-0.421952
-0.320912
-0.229523
-0.147362
-0.0747353
-0.012689
0.0385126
-3.08088
-2.77216
-2.48931
-2.22973
-1.98966
-1.76641
-1.55819
-1.36386
-1.18307
-1.01535
-0.860641
-0.718769
-0.588855
-0.470126
-0.362006
-0.262824
-0.170749
-0.082241
0.00872147
-3.03996
-2.73841
-2.44447
-2.16653
-1.90677
-1.6653
-1.44175
-1.23534
-1.04555
-0.871488
-0.712406
-0.566803
-0.432376
-0.305578
-0.182061
-0.0533453
0.0874279
0.247629
0.428441
-2.96132
-2.68021
-2.38427
-2.08769
-1.79939
-1.52503
-1.2687
-1.03242
-0.817332
-0.622613
-0.446742
-0.285937
-0.135245
0.0120047
0.16013
0.313977
0.466421
0.60474
0.704148
-2.79934
-2.57967
-2.33164
-2.07104
-1.80896
-1.55348
-1.31081
-1.08462
-0.87724
-0.688523
-0.517559
-0.360816
-0.214331
-0.0741195
0.0588102
0.181452
0.279385
0.339157
0.347565
-2.5141
-2.33537
-2.12003
-1.88367
-1.63868
-1.39528
-1.16181
-0.943736
-0.744463
-0.564518
-0.403186
-0.257345
-0.124362
-0.0030269
0.102631
0.187043
0.240223
0.259876
0.252112
-2.18942
-2.04178
-1.85766
-1.64813
-1.42509
-1.19997
-0.982629
-0.780008
-0.596407
-0.432945
-0.289204
-0.162724
-0.0521183
0.0422662
0.116353
0.166838
0.190853
0.193418
0.183171
-1.82724
-1.717
-1.56524
-1.38372
-1.18483
-0.981268
-0.784341
-0.602256
-0.43996
-0.298905
-0.178733
-0.0772431
0.00654695
0.072388
0.118158
0.144001
0.15177
0.148284
0.14017
-1.32706
-1.25053
-1.13473
-0.991008
-0.831241
-0.667553
-0.510704
-0.368452
-0.245093
-0.141581
-0.0571997
0.0103435
0.0620761
0.0984763
0.119409
0.127161
0.125081
0.118721
0.111794
-0.833348
-0.781725
-0.696329
-0.587281
-0.466119
-0.344255
-0.231241
-0.133521
-0.0538346
0.00811419
0.053962
0.0866193
0.107582
0.118188
0.119587
0.114672
0.106363
0.0982025
0.0917713
-0.278748
-0.24063
-0.180818
-0.108836
-0.0347035
0.0327843
0.0875943
0.126691
0.150509
0.161559
0.162794
0.157756
0.148078
0.135244
0.120444
0.105804
0.092812
0.0830456
0.0765724
0.280824
0.314305
0.354169
0.389706
0.413132
0.419781
0.408947
0.382604
0.345477
0.302798
0.258945
0.217773
0.180526
0.148033
0.120552
0.0986597
0.0821479
0.0709009
0.063849
0.839034
0.925865
1.00128
1.04475
1.04529
1.00103
0.91851
0.809157
0.686935
0.564335
0.45079
0.352265
0.270498
0.205411
0.155565
0.118897
0.0926164
0.0735977
0.0574528
1.25462
1.23862
1.18589
1.09825
0.983071
0.850771
0.712582
0.578483
0.456435
0.351081
0.264461
0.196124
0.14387
0.104943
0.076578
0.0560269
0.0406149
0.0272606
0.0119081
1.70948
1.74643
1.73061
1.65833
1.53385
1.36884
1.17889
0.98092
0.790207
0.617555
0.470033
0.349757
0.255431
0.183834
0.130937
0.0920748
0.0627542
0.038426
0.0144049
2.10208
2.12944
2.0882
1.9802
1.81389
1.60498
1.37219
1.13494
0.909922
0.708482
0.537767
0.399317
0.291148
0.209138
0.148361
0.10327
0.0687989
0.0402686
0.013724
2.4448
2.45149
2.37954
2.23546
2.03091
1.78463
1.51752
1.25039
1.0004
0.778696
0.592018
0.44116
0.323444
0.234023
0.167344
0.117286
0.0784363
0.0459621
0.0157926
2.7619
2.73593
2.62712
2.44443
2.20219
1.9218
1.62573
1.33535
1.06739
0.832128
0.635369
0.476926
0.353363
0.259181
0.188348
0.134316
0.0913877
0.0544624
0.0190864
3.03545
2.96868
2.82011
2.59843
2.32099
2.01167
1.69372
1.38805
1.11012
0.868679
0.668166
0.507255
0.381741
0.28556
0.212334
0.155183
0.108175
0.0659211
0.0235987
3.17303
3.0773
2.89728
2.64687
2.34742
2.02422
1.69994
1.39383
1.11919
0.882796
0.68759
0.53119
0.408829
0.314131
0.240611
0.181222
0.129923
0.0811085
0.0296564
3.33916
3.20687
2.98503
2.69817
2.37207
2.03293
1.70229
1.397
1.12769
0.8987
0.711129
0.561308
0.443731
0.351573
0.278149
0.216124
0.159269
0.101684
0.0378689
3.472
3.28477
3.01652
2.69551
2.3493
2.00308
1.6758
1.38078
1.12527
0.910849
0.736667
0.597789
0.48805
0.400243
0.327557
0.262353
0.198234
0.128991
0.0487315
3.52199
3.27841
2.96855
2.62291
2.2694
1.93014
1.61987
1.34728
1.11578
0.924039
0.769429
0.645904
0.546833
0.464751
0.39284
0.32316
0.2492
0.164471
0.0627222
3.49688
3.20089
2.85625
2.49761
2.151
1.83299
1.55251
1.31294
1.11376
0.950857
0.820159
0.714713
0.627621
0.551246
0.478846
0.402148
0.314591
0.20946
0.0802271
3.44934
3.09408
2.71933
2.35839
2.03063
1.74462
1.50243
1.30207
1.13935
1.00773
0.902132
0.814846
0.738823
0.666246
0.590463
0.502772
0.396617
0.265124
0.101582
3.34091
2.92887
2.54146
2.19838
1.90779
1.66861
1.47555
1.32174
1.20001
1.10199
1.02221
0.952442
0.885702
0.814041
0.730966
0.627341
0.496724
0.332231
0.127094
3.00073
2.58359
2.2319
1.95123
1.73551
1.57293
1.45103
1.35935
1.28898
1.23084
1.18003
1.12842
1.06956
0.995718
0.900904
0.775836
0.614533
0.410431
0.156811
2.67383
2.27695
1.98562
1.78592
1.65472
1.57095
1.5174
1.48231
1.45654
1.43111
1.40212
1.36167
1.30377
1.22084
1.1073
0.953704
0.754466
0.503194
0.192543
2.27733
1.94257
1.75735
1.66987
1.64039
1.64304
1.65963
1.67956
1.69494
1.6978
1.68552
1.6508
1.58821
1.49034
1.35209
1.16389
0.920249
0.614468
0.237168
1.61274
1.47008
1.47282
1.54637
1.64761
1.75394
1.85093
1.93143
1.99021
2.02141
2.02395
1.99201
1.92087
1.80383
1.63639
1.40917
1.11632
0.749916
0.295758
0.965233
1.10766
1.32929
1.56712
1.79161
1.99015
2.15563
2.28522
2.37703
2.42777
2.43737
2.40217
2.31789
2.1785
1.97962
1.71171
1.3666
0.932184
0.383219
0.339763
0.824371
1.27891
1.68039
2.02399
2.30946
2.53872
2.71293
2.83394
2.90173
2.91673
2.87852
2.78309
2.62535
2.40039
2.09766
1.70339
1.19589
0.528109
-0.134938
0.67813
1.34292
1.88961
2.33963
2.70261
2.98929
3.20375
3.3518
3.43746
3.46125
3.42738
3.33214
3.17167
2.93945
2.62234
2.19515
1.61679
0.7995
-0.361698
0.681916
1.50539
2.16929
2.71013
3.14114
3.48019
3.73318
3.9103
4.02082
4.06558
4.05537
3.98765
3.8609
3.66609
3.38542
2.97382
2.3544
1.36805
-0.313918
0.815131
1.7335
2.48392
3.09953
3.58966
3.97717
4.26943
4.48191
4.63136
4.72052
4.7699
4.78164
4.7606
4.69676
4.56843
4.30211
3.76305
2.67689
-0.0589473
1.02853
1.98705
2.7976
3.47291
4.01318
4.44452
4.77732
5.03362
5.24209
5.4109
5.57573
5.75439
5.97058
6.22437
6.50778
6.72577
6.67543
5.91774
0.249318
1.24954
2.22531
3.08147
3.80353
4.38381
4.85051
5.22272
5.52853
5.81888
6.11178
6.46831
6.95631
7.6675
8.70471
10.3091
12.8416
17.0753
24.6079
)
;

boundaryField
{
    up
    {
        type            calculated;
        value           nonuniform List<scalar> 
84
(
-24.6079
-5.91775
-2.6769
-1.36806
-0.799503
-0.528109
-0.383216
-0.295754
-0.237164
-0.19254
-0.15681
-0.127095
-0.101584
-0.080229
-0.0627237
-0.0487324
-0.0378691
-0.0296561
-0.0235981
-0.0190857
-0.0157919
-0.013723
-0.0144043
-0.0119309
-0.0480279
-0.0582673
-0.070301
-0.0841422
-0.102002
-0.127023
-0.16427
-0.220553
-0.295447
-0.676033
-0.443988
-0.00871221
-0.0382522
-0.0273843
-0.0231514
-0.0143311
-0.0109216
-0.00684487
0.0068176
0.010826
0.0143734
0.0230864
0.027336
0.0381488
0.00922396
0.43698
0.680518
0.296112
0.221026
0.164578
0.127236
0.10216
0.0842684
0.0704139
0.0583621
0.0482603
0.0119081
0.0144049
0.013724
0.0157926
0.0190864
0.0235987
0.0296564
0.0378689
0.0487315
0.0627222
0.0802271
0.101582
0.127094
0.156811
0.192543
0.237168
0.295758
0.383219
0.528109
0.7995
1.36805
2.67689
5.91774
24.6079
)
;
    }
    low
    {
        type            calculated;
        value           nonuniform List<scalar> 
84
(
-0.224234
0.0973237
0.375178
0.42744
0.175724
-0.347191
-1.02558
-1.71281
-2.39212
-2.7682
-3.08493
-3.41155
-3.48505
-3.51234
-3.52559
-3.45596
-3.30543
-3.13467
-2.9848
-2.68705
-2.35626
-2.00818
-1.61453
-1.16958
-0.770695
-0.25616
0.250241
0.763333
1.23913
1.74248
2.12398
2.46457
2.77103
2.95934
3.05688
3.12095
2.93607
2.55395
2.10124
1.57006
0.983862
0.376889
-0.376713
-0.983691
-1.56988
-2.10109
-2.55383
-2.93602
-3.12089
-3.0573
-2.9591
-2.77115
-2.46466
-2.12408
-1.74259
-1.23923
-0.763451
-0.250343
0.255924
0.770848
1.1694
1.61461
2.00819
2.35627
2.68705
2.98481
3.13467
3.30544
3.45597
3.52559
3.51235
3.48506
3.41154
3.08494
2.76822
2.39214
1.71283
1.02559
0.347202
-0.175718
-0.427442
-0.375185
-0.0973286
0.224235
)
;
    }
    left
    {
        type            calculated;
        value           nonuniform List<scalar> 
19
(
-0.222588
-1.20354
-2.20172
-3.08974
-3.84459
-4.45293
-4.9446
-5.34166
-5.67182
-5.99752
-6.33672
-6.7566
-7.34384
-8.21803
-9.5064
-11.545
-14.8341
-20.4534
-21.3407
)
;
    }
    right
    {
        type            calculated;
        value           nonuniform List<scalar> 
19
(
0.222591
1.20354
2.20172
3.08973
3.84458
4.45293
4.9446
5.34166
5.67183
5.99753
6.33673
6.7566
7.34383
8.21801
9.50637
11.545
14.8341
20.4534
21.3407
)
;
    }
    frontAndBackPlanes
    {
        type            empty;
    }
}


// ************************************************************************* //
