/*--------------------------------*- C++ -*----------------------------------*\
  =========                 |
  \\      /  F ield         | OpenFOAM: The Open Source CFD Toolbox
   \\    /   O peration     | Website:  https://openfoam.org
    \\  /    A nd           | Version:  7
     \\/     M anipulation  |
\*---------------------------------------------------------------------------*/
FoamFile
{
    version     2.0;
    format      ascii;
    class       volScalarField;
    location    "0.23";
    object      gradTz;
}
// * * * * * * * * * * * * * * * * * * * * * * * * * * * * * * * * * * * * * //

dimensions      [0 -1 0 1 0 0 0];

internalField   nonuniform List<scalar> 
1596
(
-6.45456e-16
-3.13521e-16
3.18875e-16
7.2044e-18
-6.06635e-16
0
-2.82759e-16
-2.78825e-16
-1.89291e-17
-1.47125e-16
-1.31383e-18
-1.46466e-16
6.45271e-16
-1.44969e-16
6.77205e-16
5.84533e-16
3.47728e-16
4.39254e-16
0
6.44558e-16
0
9.06137e-16
-6.53514e-18
-2.76755e-16
2.74254e-16
5.66645e-16
1.80647e-17
2.682e-16
-1.29375e-16
2.58251e-16
-3.81665e-18
-3.58406e-16
-2.24047e-16
-5.47474e-16
-5.34298e-16
-4.86198e-16
2.76835e-16
0
-3.15502e-16
0
-5.89936e-16
1.03739e-17
5.38728e-16
-1.52377e-16
1.2251e-17
-3.73407e-18
-3.7422e-18
-3.94762e-18
9.68701e-17
0
1.85904e-16
5.26935e-16
-5.19725e-17
4.19361e-17
9.85773e-17
1.54301e-16
0
4.96354e-16
-1.48412e-16
1.47871e-16
0
-1.41987e-16
-1.47279e-16
2.48904e-16
-2.15944e-16
0
0
-7.9382e-17
5.05943e-17
0
-1.54959e-16
-1.96962e-16
1.36565e-16
-1.41076e-16
-7.25461e-18
0
8.67995e-17
2.29457e-16
-2.05794e-16
0
-6.03719e-17
-1.84019e-16
0
2.74141e-16
-2.7212e-17
-2.46472e-17
-2.50759e-17
1.42163e-16
1.75369e-16
1.82666e-17
7.27363e-18
-1.47656e-16
7.43248e-18
6.8448e-17
-2.95411e-17
-2.25404e-17
-3.14757e-16
2.98087e-16
-2.58638e-16
-5.6586e-19
-2.26765e-16
6.38103e-18
-6.40221e-18
-1.77816e-16
0
-2.08592e-17
-1.68229e-16
-1.5838e-16
1.28087e-16
1.34473e-16
-1.83169e-18
-8.06572e-17
-6.94259e-17
5.31589e-17
1.88375e-16
-3.20271e-16
3.57066e-16
1.98924e-16
0
1.74274e-16
1.01791e-16
-4.8935e-17
2.25371e-16
-4.21978e-17
-1.7924e-16
1.58602e-18
-1.05713e-16
-1.28685e-16
-1.00058e-16
8.55685e-17
8.13671e-17
-1.089e-18
-2.21353e-17
1.94898e-17
5.09235e-16
-5.95304e-16
0
0
-2.14196e-16
0
0
0
1.45191e-16
0
0
9.71234e-17
3.51751e-18
2.74099e-17
-7.48934e-17
0
3.98575e-17
1.56732e-17
0
-3.29087e-16
6.32297e-16
0
0
2.20592e-16
0
-8.29874e-17
8.29035e-17
-1.47783e-16
6.12251e-17
-6.16729e-17
0
8.89528e-17
8.79839e-17
0
-5.0751e-17
-4.07217e-17
-1.37085e-17
7.99557e-16
-3.73339e-16
0
-2.59968e-16
2.57059e-16
0
1.86971e-16
0
0
0
5.60757e-17
-5.63445e-17
0
-6.87862e-17
-1.95852e-17
0
6.02862e-18
2.87697e-17
0
-2.0296e-16
0
0
2.60565e-16
-4.8453e-16
2.634e-17
1.00754e-17
-7.6094e-17
8.93511e-18
3.3298e-18
-5.86121e-17
-9.34309e-17
0
7.05246e-17
-1.42559e-17
1.44698e-17
3.84311e-17
-2.26316e-17
-1.03478e-17
1.6674e-16
-1.90314e-17
1.60196e-16
5.42783e-16
-3.09666e-17
-2.25176e-16
0
0
0
1.20713e-16
4.78772e-17
1.72167e-16
-4.15408e-17
-6.92629e-17
-4.07396e-17
-2.24889e-17
1.00452e-17
-2.19329e-17
9.83081e-18
-1.85769e-16
1.82095e-16
-3.35479e-16
-5.36212e-16
4.94582e-16
1.9288e-16
-3.55179e-16
3.04428e-16
-2.60698e-16
6.80835e-17
5.13937e-17
-4.64685e-17
2.94576e-17
-2.68144e-17
7.88333e-17
0
-5.98732e-18
4.43256e-17
-6.60161e-18
-1.20991e-15
5.53639e-16
4.46702e-19
-1.18972e-16
1.63226e-17
1.87242e-16
-3.54735e-16
-1.44247e-16
1.21795e-16
-1.02338e-16
-8.63807e-17
0
-9.72693e-17
-2.88643e-17
-5.1224e-17
-3.04448e-17
2.39344e-18
-2.74286e-17
7.24723e-19
1.97745e-16
-1.75201e-16
3.38611e-19
-1.32815e-16
-3.27457e-16
3.07667e-16
1.43073e-18
1.40569e-16
-1.18583e-16
1.95947e-16
4.62338e-17
3.75409e-17
1.14285e-16
0
9.4032e-17
4.3222e-17
0
1.4829e-17
6.03739e-19
0
1.69965e-16
1.31668e-16
-2.75066e-16
3.17165e-16
-4.7298e-16
3.31929e-16
1.22705e-16
-1.93171e-17
-1.94078e-16
3.48286e-17
-3.46567e-17
-1.0356e-16
4.06473e-17
-2.05035e-17
-4.27936e-17
1.83177e-17
-1.14125e-17
4.59031e-18
-1.84185e-16
6.19545e-16
-4.62141e-16
2.4807e-16
0
0
-6.43329e-17
1.37909e-16
-9.56276e-17
1.78943e-16
0
0
6.93868e-17
-6.02553e-17
-4.20404e-17
1.32938e-17
-1.42852e-17
7.57195e-18
0
1.60808e-17
1.72256e-16
-1.37109e-16
-1.19115e-16
-1.89205e-16
-5.88369e-17
8.45599e-17
0
-8.95799e-17
-7.15472e-17
6.37817e-17
-5.12597e-17
4.097e-17
0
1.61312e-17
3.09674e-17
0
0
0
-1.54291e-17
2.71572e-16
1.01358e-16
-3.60072e-16
9.79737e-17
8.31146e-17
0
0
8.42812e-17
-4.40379e-17
-6.16908e-17
4.95775e-17
-3.96211e-17
0
-1.02627e-17
8.54416e-18
0
-7.27188e-18
-2.55141e-18
-1.46778e-16
4.30726e-16
-5.19549e-16
-2.04269e-16
1.07627e-16
-7.84779e-17
6.49699e-17
0
-4.2941e-17
3.54117e-17
0
0
1.53269e-17
-1.53446e-17
4.49505e-18
-6.14739e-18
1.02604e-17
1.35603e-18
1.90483e-18
7.60133e-17
-6.80419e-17
3.44258e-16
-2.21806e-16
-8.84183e-17
1.218e-17
1.34577e-16
4.99057e-17
4.10881e-17
0
2.27539e-17
-2.10056e-17
1.64348e-17
-1.37106e-17
1.7222e-17
-2.95014e-17
-7.98871e-18
6.94957e-18
1.83043e-18
2.02446e-16
-2.05765e-16
0
1.83585e-16
-9.73301e-17
-7.08027e-17
4.73486e-17
-1.52828e-16
0
-2.75691e-18
-2.66538e-17
-1.86893e-17
2.65985e-17
-2.17768e-18
-1.66448e-17
1.21741e-17
0
4.31046e-18
-1.77733e-18
3.48495e-16
-6.09698e-17
2.55939e-16
-2.00263e-16
1.07271e-16
9.60177e-18
-1.21437e-16
-4.00734e-17
7.1572e-17
-3.25899e-18
-3.99959e-17
3.3367e-17
-1.44357e-17
-1.84621e-17
0
0
0
-4.35027e-18
1.60709e-19
-3.08292e-16
2.99766e-16
2.20809e-19
4.4735e-17
3.79927e-17
-8.98944e-17
1.04866e-16
-8.46649e-17
7.10983e-17
-2.27631e-17
4.30958e-17
1.4925e-17
-6.25821e-18
3.08459e-19
-2.1377e-18
-3.75047e-18
0
0
0
0
0
1.44216e-16
-7.22239e-17
-2.16573e-16
0
0
-2.4627e-17
-3.88937e-17
3.19871e-17
0
-1.88231e-17
1.4319e-17
-4.66832e-17
5.34011e-17
-1.70189e-17
1.8092e-17
1.95719e-18
0
-5.97181e-17
6.04531e-17
0
-4.75753e-17
4.81798e-17
7.82867e-17
0
2.48622e-17
3.15089e-17
-1.42401e-16
0
-2.11868e-17
1.62145e-17
1.13017e-17
-8.25988e-18
1.19688e-17
0
-4.31633e-18
0
-3.07179e-17
-3.03535e-17
1.79666e-18
4.88824e-17
-1.29798e-16
0
-3.25441e-17
0
8.89937e-17
3.51591e-17
0
8.4047e-17
-8.69662e-17
9.11159e-18
-1.82231e-17
5.63032e-18
2.30755e-17
8.56307e-18
-6.78585e-18
0
6.32716e-17
-5.47822e-17
6.7843e-17
8.02795e-17
0
6.60548e-17
-6.20812e-17
-4.78358e-17
7.04587e-17
-1.05615e-16
-5.03604e-17
0
0
1.04321e-17
0
0
2.9052e-18
0
-2.81669e-16
2.16484e-16
0
3.5475e-18
-4.66796e-17
-2.541e-18
4.08628e-17
2.84769e-17
-3.62713e-17
-8.92216e-17
1.39156e-16
-3.7897e-17
0
-1.74002e-17
0
0
0
-1.1248e-17
8.99298e-18
-7.99266e-17
7.44384e-17
1.97086e-16
-1.92139e-16
5.85764e-17
3.4681e-18
-4.15006e-17
3.53547e-17
5.93626e-17
4.47115e-17
-8.82561e-17
0
4.40515e-17
5.43796e-18
-1.99229e-17
-4.26575e-17
3.50401e-17
-5.50188e-18
1.04929e-17
-2.71374e-16
3.86317e-16
-3.82591e-16
6.66872e-17
5.59979e-17
-5.305e-17
4.43953e-17
-3.47437e-17
0
-2.8934e-17
4.54983e-17
1.96995e-17
3.14348e-17
3.88929e-17
-5.80066e-17
-1.17808e-18
0
-4.30748e-18
1.44748e-18
-2.93413e-16
-8.66421e-17
-1.50671e-16
8.04261e-17
-1.29559e-16
1.11651e-16
-6.62685e-17
5.53964e-17
-4.10014e-18
-4.07496e-18
-4.82768e-17
2.87376e-17
-1.54071e-17
4.72494e-17
-5.07227e-17
6.00899e-18
5.2761e-18
0
-2.52451e-18
3.17244e-16
-9.35154e-17
0
0
-1.33373e-16
2.58817e-16
-6.01765e-17
-1.13816e-17
9.31053e-17
-2.43658e-18
0
0
-2.07328e-17
0
-4.44907e-17
1.0727e-16
-7.41857e-17
0
1.01656e-18
1.08177e-16
2.01187e-16
0
-8.49154e-17
-6.84884e-17
-5.99806e-17
-6.26892e-17
2.56731e-17
-7.14381e-17
-3.86566e-17
0
0
2.82866e-17
0
0
-6.08071e-17
1.00368e-16
0
0
7.42462e-16
-8.92313e-17
-4.46527e-16
-2.40798e-16
3.26841e-16
1.03284e-16
6.07849e-17
0
-2.20667e-17
2.11367e-17
5.25902e-17
-1.68935e-17
-2.48217e-17
3.84199e-17
-4.0867e-17
-1.24154e-17
0
0
0
5.94571e-17
-4.66693e-16
4.57317e-16
-4.35907e-17
-3.34862e-16
5.22911e-16
-2.61922e-16
0
0
1.3718e-16
-1.12424e-16
0
-3.35333e-17
5.85467e-17
-6.48433e-18
1.70119e-17
5.16521e-18
5.85121e-20
1.1196e-18
0
0
0
3.82054e-16
-2.56365e-16
2.67089e-16
-4.15904e-16
1.18118e-16
0
-4.21062e-17
6.70094e-17
-6.84876e-17
-1.3332e-17
-1.54038e-19
-9.08956e-18
-1.31129e-18
-7.25336e-18
-2.0424e-18
-1.11188e-18
4.97168e-16
-8.85117e-16
4.18784e-16
0
1.11496e-16
-1.51991e-16
1.51267e-16
-1.19974e-16
0
-5.78397e-17
8.10884e-17
0
0
-1.03563e-19
0
-9.49827e-18
6.48841e-18
1.17031e-18
1.77679e-18
4.84267e-16
0
-1.91001e-16
2.13305e-16
-1.3302e-16
2.90317e-16
-1.37002e-16
-1.06525e-16
1.07638e-16
-1.09093e-17
0
0
6.94798e-18
-1.16638e-17
-8.18016e-18
1.5493e-17
-3.35388e-18
1.70807e-18
0
2.7489e-16
2.13651e-16
-7.90145e-18
-2.03504e-16
-2.04526e-17
-1.46904e-16
1.62699e-17
1.23085e-16
-6.33874e-18
1.11141e-17
0
0
-7.11775e-18
0
8.36152e-18
-8.94483e-18
0
1.145e-18
-3.1703e-19
-1.45894e-16
-1.07207e-16
1.004e-16
-1.14484e-17
-5.12154e-18
1.37937e-17
0
-3.62418e-18
5.40815e-17
-4.55447e-17
0
1.53365e-17
-3.03069e-18
-1.35189e-17
-1.23521e-18
-9.62503e-19
0
-8.95406e-19
0
5.94441e-17
-1.12907e-16
-1.34765e-18
4.83324e-17
4.40036e-17
-4.37011e-17
-3.08206e-17
3.48812e-17
-1.19187e-17
9.32873e-18
-9.02701e-18
9.30543e-18
0
2.36983e-20
-9.10821e-19
3.272e-18
-1.11925e-20
0
0
5.94462e-17
-5.92234e-17
-4.80789e-17
4.26013e-17
7.77223e-17
-7.81811e-17
-1.54108e-17
1.54476e-17
-1.20197e-17
1.21458e-17
-9.02735e-18
1.70228e-17
-4.77446e-18
-3.43019e-18
-1.05082e-18
3.48868e-19
8.30726e-19
2.19572e-19
-1.64659e-19
0
-1.40831e-17
8.37144e-17
-9.0768e-17
7.75582e-17
-6.87697e-17
0
5.42847e-17
-4.85721e-17
0
1.79545e-17
-2.27245e-17
-1.29006e-17
1.35206e-17
2.48001e-18
0
0
-8.95563e-19
3.25347e-19
2.36539e-16
-4.35064e-16
4.42694e-16
-3.87611e-16
1.52218e-16
-1.28612e-16
1.22082e-16
1.44369e-17
-5.36013e-17
4.78817e-17
0
-3.45106e-17
3.14394e-17
-5.95041e-18
-2.42917e-18
3.80603e-18
2.79601e-18
8.6942e-19
-3.1436e-19
5.45939e-16
0
-2.16115e-16
1.67987e-16
2.02174e-17
-1.54723e-16
2.74003e-16
-2.42502e-16
9.50853e-17
-4.04337e-17
4.13874e-17
8.17873e-18
1.39787e-17
5.79577e-18
-4.78186e-18
-6.37062e-19
-6.05168e-18
0
6.15516e-19
4.36319e-16
-4.9114e-16
0
4.47318e-17
1.92111e-16
-1.88016e-16
3.19149e-17
2.819e-17
1.23002e-17
2.1558e-17
0
0
-2.4302e-17
4.5387e-17
-1.65634e-17
-5.92817e-18
6.49035e-18
5.19146e-19
-1.16917e-18
4.14063e-17
4.31467e-16
-4.96192e-17
-3.37516e-16
2.96374e-16
3.52873e-17
-3.12345e-17
-2.75332e-17
9.01771e-17
-1.11853e-16
6.70316e-17
-6.85094e-17
1.06114e-17
-1.3593e-17
2.45868e-17
-1.64059e-17
0
0
1.17049e-18
0
1.07944e-16
-3.22639e-16
3.68805e-16
-2.96101e-16
2.95396e-16
0
1.01271e-16
-1.01736e-16
-7.59876e-17
1.12511e-16
0
4.63499e-17
-5.85919e-17
-8.66065e-18
0
-9.66612e-19
-1.90689e-18
-4.54682e-20
-1.02869e-15
4.89826e-16
0
-3.26786e-16
3.26754e-16
1.98878e-16
-1.30666e-16
5.3403e-17
0
-2.38149e-18
1.74824e-17
-1.68713e-17
-2.47906e-17
3.83666e-17
-4.07964e-17
0
8.73862e-18
-1.87726e-18
-1.18208e-18
6.32303e-16
-6.21371e-16
0
8.46923e-17
7.66799e-17
-6.98834e-17
0
-5.59668e-17
-4.77831e-17
0
-2.34795e-18
0
2.83008e-17
0
0
1.24342e-17
4.66436e-17
-6.04293e-17
0
7.68044e-20
9.35611e-17
-8.59771e-17
6.95771e-17
-3.5394e-16
1.35118e-16
0
1.13901e-17
3.22379e-17
0
-3.27643e-17
9.42396e-17
-9.90041e-17
1.64475e-17
0
-1.98111e-18
0
0
0
7.81191e-20
0
7.94643e-17
0
-1.21474e-16
1.23405e-16
0
4.34768e-17
-3.46026e-17
1.25019e-16
-6.02023e-17
2.14545e-17
-3.43233e-17
3.23999e-17
-5.07894e-17
-8.07572e-18
0
-5.19918e-18
0
2.45496e-16
-4.15249e-16
0
-6.66165e-17
5.94419e-17
0
0
-7.93034e-17
0
-2.89566e-17
-4.55364e-17
-1.97187e-17
3.14689e-17
0
1.64668e-17
0
0
1.13234e-17
-1.24641e-17
0
3.58136e-16
-2.86574e-16
6.16717e-17
-5.50435e-17
-2.23657e-17
6.42482e-17
7.16209e-17
-8.6673e-17
2.79239e-17
2.20174e-18
-2.54109e-17
1.03779e-16
-3.22385e-17
-7.39095e-17
2.53773e-17
-6.46618e-18
3.88117e-18
-1.16563e-18
-5.84818e-16
2.16485e-16
0
0
2.33903e-17
-2.37853e-17
1.67271e-17
1.07523e-17
7.80204e-17
3.95044e-17
-3.8968e-17
-1.71306e-18
-2.14809e-17
1.74174e-17
0
8.41617e-18
5.92673e-18
3.14846e-18
1.05356e-18
0
1.86919e-16
-1.73788e-16
5.56079e-17
5.69422e-17
-1.09664e-17
-3.50739e-17
-2.97217e-17
-9.74426e-17
3.88613e-17
-2.33265e-17
3.22285e-17
2.00873e-17
-2.46957e-17
2.62129e-17
1.63493e-17
-2.13501e-17
-2.90807e-18
0
-3.32387e-17
-1.48606e-16
5.28908e-17
4.88956e-17
-1.67174e-16
1.1931e-16
5.8574e-17
-5.98716e-17
4.53998e-17
-3.68813e-17
0
0
-2.96097e-17
5.29346e-17
-2.32222e-17
2.13968e-17
-2.34122e-17
3.82648e-18
-6.7927e-18
6.23011e-17
5.80012e-17
-5.25396e-17
4.06765e-17
-4.77262e-17
-7.18268e-17
0
0
0
0
0
0
1.51481e-17
-3.94942e-17
4.17694e-17
-1.33512e-17
1.64695e-17
7.67407e-18
-6.49771e-18
1.29225e-16
-2.18788e-16
2.73575e-16
-1.2678e-16
1.75507e-16
-1.26372e-16
2.34899e-16
-1.31766e-16
-6.94639e-17
7.10584e-17
0
1.88119e-17
-1.47989e-17
3.56563e-17
-1.21701e-17
-1.53456e-17
-3.1826e-17
2.41295e-18
5.51419e-18
2.01195e-16
5.76751e-17
0
-8.91754e-17
-6.98352e-17
1.59405e-16
1.56581e-17
-6.33811e-17
3.75115e-17
-2.62323e-17
0
-1.48917e-17
0
-1.18591e-17
9.56571e-18
-8.53849e-18
-2.81452e-18
1.97408e-18
0
2.80898e-16
-6.09689e-17
2.5584e-16
-2.00228e-16
-3.99304e-17
1.55916e-16
-9.35036e-17
4.84628e-18
3.97301e-18
-2.55801e-17
2.46402e-17
0
0
1.44898e-17
-5.18218e-18
3.34343e-18
1.01896e-17
-3.5469e-18
0
5.84236e-20
0
-5.67871e-17
3.31448e-16
-2.23617e-16
-2.35375e-16
1.28726e-16
-1.32419e-16
1.22405e-16
5.99013e-17
-4.47771e-17
1.80602e-17
-1.6012e-17
2.85049e-18
2.58817e-17
8.8186e-19
-9.69971e-18
9.59546e-18
-1.97719e-18
6.82443e-16
-2.17427e-16
1.0523e-16
-3.25598e-16
8.84179e-17
-1.37249e-16
7.39369e-17
0
0
-2.83062e-18
-3.87463e-18
-1.14355e-18
0
-2.28271e-17
-1.72224e-17
1.25797e-17
-9.2314e-19
1.70285e-18
3.93283e-18
0
-2.15627e-16
3.63535e-16
7.99858e-17
-2.94568e-16
7.84777e-17
-1.19458e-16
2.0725e-17
9.64947e-17
0
0
1.7759e-18
1.95949e-17
0
-1.72005e-17
-7.7747e-18
1.14484e-18
-4.01634e-18
-4.63563e-18
0
-1.35312e-16
3.12269e-17
2.45189e-16
1.81807e-16
-3.32455e-16
1.50623e-16
-1.03739e-16
5.56606e-17
-7.61929e-17
0
0
0
-3.13907e-17
8.16294e-18
-1.0313e-17
0
-6.40762e-19
3.2034e-18
-5.12643e-16
4.85484e-16
5.16359e-16
-6.26564e-16
2.90854e-16
-2.73138e-16
0
1.09419e-16
-1.49246e-16
8.59924e-17
-6.65166e-17
5.40393e-17
4.36904e-17
3.2465e-17
2.5459e-17
0
0
0
0
5.6827e-16
-3.26712e-16
0
0
-1.0636e-16
2.57273e-16
-1.64642e-16
-1.15957e-16
1.1465e-16
8.44448e-17
1.40997e-16
-5.6071e-17
2.40618e-17
1.80718e-17
1.32254e-17
1.09427e-17
1.76291e-17
-8.65098e-19
8.8118e-19
-5.75291e-16
5.27729e-16
2.80226e-16
-1.46034e-16
3.17031e-16
-2.03375e-16
-1.59661e-16
-1.34192e-16
0
-1.77515e-16
9.07592e-18
6.46099e-17
-5.01302e-17
-4.06474e-17
-1.50213e-17
-1.57097e-17
-1.25808e-17
0
0
-1.97911e-16
0
1.52782e-16
-2.01971e-19
0
0
1.64695e-16
1.38467e-16
0
9.63926e-17
0
-9.81785e-17
-2.76721e-17
4.89838e-17
0
3.16458e-17
-4.46341e-18
4.55327e-18
0
4.21766e-16
0
2.93649e-16
-5.44072e-16
4.84075e-16
3.88486e-16
-1.25031e-17
0
1.06895e-17
1.12906e-16
0
-1.11236e-16
1.23997e-16
-1.10423e-16
-2.40823e-17
-2.53692e-17
-7.55575e-18
-1.36419e-18
-4.93934e-18
-3.91327e-16
5.63466e-16
-1.58946e-16
-4.14731e-16
-2.39124e-16
-2.05946e-16
-3.54013e-16
-1.41232e-16
1.17914e-17
5.14904e-17
-5.13936e-17
1.63334e-16
-7.23053e-17
1.44913e-16
-2.71471e-17
0
3.14065e-17
-1.86223e-17
4.96706e-18
8.67382e-16
-1.92976e-17
-6.57771e-16
5.42787e-16
-4.8648e-16
4.22688e-16
-1.39378e-17
-1.59538e-16
1.38869e-16
5.50735e-17
-7.18219e-18
-1.34127e-16
3.8604e-17
4.18017e-17
-1.25414e-17
1.26845e-17
-3.25295e-17
-3.65955e-18
-7.90989e-18
4.25807e-16
1.79631e-16
3.15276e-16
-2.76578e-16
-2.27449e-16
1.2336e-17
-1.73833e-16
4.20744e-16
1.47574e-17
1.94404e-16
1.13811e-16
-1.00858e-16
0
-7.05244e-17
0
0
4.65111e-17
2.03646e-17
9.21586e-18
3.99103e-16
0
3.11477e-16
2.74793e-16
-2.43752e-16
2.12657e-16
0
-1.64911e-16
-2.28652e-16
-1.99166e-16
-1.14818e-16
1.01999e-16
0
0
0
0
-4.36204e-17
-3.29681e-17
0
-7.81971e-16
0
-1.58218e-17
-1.3981e-17
3.71489e-16
-2.09014e-16
-9.59446e-17
-9.64148e-17
2.33052e-16
0
6.12247e-17
-6.44421e-18
5.57255e-17
0
0
7.3962e-17
-5.51948e-18
3.95963e-17
-1.53027e-17
5.4981e-16
1.58245e-16
-1.56612e-16
-1.38109e-16
-4.78653e-16
3.28553e-16
3.96507e-16
-1.13755e-17
-1.59475e-16
1.58422e-16
3.32281e-17
-1.6932e-16
-1.38232e-16
-8.49865e-17
-9.01625e-17
-8.5297e-17
7.18369e-17
-3.38415e-18
1.56732e-17
-1.68819e-16
7.66392e-17
-3.69063e-16
6.30738e-17
-6.28443e-17
0
-1.97365e-16
-1.45735e-17
-1.83346e-16
1.64788e-17
1.7924e-16
1.31769e-16
-3.25763e-17
1.27885e-17
8.56767e-17
0
-1.50091e-16
-5.55029e-17
-1.15151e-18
3.44112e-16
-9.34784e-18
5.80531e-16
-2.76377e-16
5.6586e-19
7.32807e-18
2.20196e-16
-1.80351e-17
1.77815e-16
-1.66491e-16
-1.56727e-16
0
1.5838e-16
1.26102e-16
1.76892e-18
-2.57388e-18
8.14383e-17
5.64141e-17
0
-2.4448e-16
0
-5.83824e-17
2.63554e-16
3.8166e-18
6.04525e-17
-2.12926e-16
2.01183e-16
2.13694e-16
2.04877e-16
1.97201e-16
0
-1.53863e-16
0
8.2488e-18
-8.56712e-18
0
-8.24352e-19
4.06462e-17
1.69624e-16
9.06803e-18
-1.33757e-16
4.13051e-16
-1.32513e-16
0
0
-2.40882e-16
-2.07047e-16
-1.98481e-16
-3.6168e-16
-5.05942e-17
0
0
0
-1.69762e-17
1.79651e-17
1.15289e-16
-4.12677e-17
9.41663e-18
0
-2.88775e-16
-2.63739e-16
2.76652e-16
-2.74728e-16
-3.93346e-16
4.8176e-16
1.34598e-16
0
2.13662e-16
2.43459e-16
-5.25686e-17
2.86028e-16
-4.68845e-17
4.87953e-17
1.90047e-16
-1.09555e-16
0
-3.23932e-16
0
-3.09923e-16
3.0362e-16
0
5.4703e-16
2.56754e-16
-5.40082e-16
4.32558e-16
-2.75042e-18
-1.307e-16
-2.35718e-16
0
3.2689e-16
-5.47473e-16
5.87711e-16
-7.49005e-16
0
0
3.22626e-16
-2.17706e-18
-5.35788e-18
-6.12383e-16
6.18318e-16
-2.98731e-16
2.97513e-16
2.93229e-16
-2.58566e-16
0
0
4.89567e-16
-4.98e-16
-5.3156e-16
5.27204e-16
-5.13786e-16
5.55859e-16
-8.70869e-16
0
)
;

boundaryField
{
    up
    {
        type            calculated;
        value           nonuniform List<scalar> 
84
(
0
0
0
0
-2.95411e-17
5.31589e-17
-2.21353e-17
1.56732e-17
-1.37085e-17
0
-1.03478e-17
9.83081e-18
-6.60161e-18
7.24723e-19
6.03739e-19
4.59031e-18
0
0
-2.55141e-18
1.90483e-18
1.83043e-18
-1.77733e-18
1.60709e-19
0
7.1879e-19
3.48137e-19
-6.43692e-18
0
8.99298e-18
1.10183e-17
1.44748e-18
-2.52451e-18
1.01656e-18
0
-4.9874e-19
1.15591e-18
-1.10864e-18
1.77291e-18
0
-3.16267e-19
0
0
-1.6472e-19
3.25347e-19
-3.1436e-19
6.15516e-19
-1.16917e-18
1.17049e-18
-4.54682e-20
-1.18208e-18
0
0
0
-1.24641e-17
-1.69147e-18
1.05356e-18
0
-6.7927e-18
-6.49771e-18
4.79778e-18
0
0
-1.97719e-18
3.93283e-18
-4.63563e-18
3.2034e-18
0
8.8118e-19
0
0
-4.93934e-18
4.96706e-18
-7.90989e-18
9.21586e-18
0
-1.53027e-17
1.56732e-17
-1.15151e-18
0
4.06462e-17
-4.12677e-17
0
0
0
)
;
    }
    low
    {
        type            calculated;
        value           nonuniform List<scalar> 
84
(
-6.4593e-16
6.44558e-16
-3.14634e-16
4.97057e-16
8.7275e-17
-2.26807e-17
1.89552e-16
2.06148e-17
0
8.00867e-16
-2.0296e-16
1.6602e-16
-1.85769e-16
-1.20993e-15
1.97745e-16
0
-1.84185e-16
1.60808e-17
-1.54291e-17
-1.46778e-16
7.60133e-17
2.02446e-16
3.4717e-16
-3.08292e-16
0
-5.97181e-17
-3.07179e-17
0
-2.81669e-16
-7.99266e-17
-2.70525e-16
-2.92745e-16
3.16799e-16
1.08177e-16
7.42511e-16
5.94571e-17
0
4.97168e-16
4.85328e-16
2.7547e-16
-1.46204e-16
5.94441e-17
5.94462e-17
0
2.36539e-16
5.47e-16
4.36319e-16
4.2127e-17
0
-1.02874e-15
6.32303e-16
7.68044e-20
7.81191e-20
2.45496e-16
0
-5.83452e-16
0
-3.32387e-17
6.23011e-17
1.28411e-16
1.99771e-16
2.79574e-16
5.84236e-20
6.81352e-16
0
0
-5.12643e-16
5.67741e-16
-5.74944e-16
-1.97911e-16
4.21783e-16
-3.91327e-16
8.68822e-16
4.26824e-16
3.99103e-16
-7.81971e-16
5.48685e-16
-1.67642e-16
3.44112e-16
-2.44005e-16
1.69624e-16
1.02843e-17
-3.23932e-16
3.22863e-16
)
;
    }
    left
    {
        type            calculated;
        value           nonuniform List<scalar> 
19
(
-6.45456e-16
-3.13774e-16
3.18875e-16
7.20679e-18
-6.0681e-16
0
-2.82759e-16
-2.78825e-16
-1.9862e-17
-1.47125e-16
-1.31383e-18
-1.46466e-16
6.51768e-16
-1.44969e-16
6.77205e-16
5.84533e-16
3.47728e-16
5.10139e-16
0
)
;
    }
    right
    {
        type            calculated;
        value           nonuniform List<scalar> 
19
(
3.22626e-16
-1.92481e-18
-5.35788e-18
-6.12386e-16
6.18493e-16
-2.98731e-16
2.97513e-16
2.93229e-16
-2.57633e-16
0
0
4.9419e-16
-5.04497e-16
-5.3156e-16
5.27204e-16
-5.13786e-16
5.55859e-16
-9.41754e-16
0
)
;
    }
    frontAndBackPlanes
    {
        type            empty;
    }
}


// ************************************************************************* //
