/*--------------------------------*- C++ -*----------------------------------*\
  =========                 |
  \\      /  F ield         | OpenFOAM: The Open Source CFD Toolbox
   \\    /   O peration     | Website:  https://openfoam.org
    \\  /    A nd           | Version:  7
     \\/     M anipulation  |
\*---------------------------------------------------------------------------*/
FoamFile
{
    version     2.0;
    format      ascii;
    class       volScalarField;
    location    "0.01";
    object      gradTx;
}
// * * * * * * * * * * * * * * * * * * * * * * * * * * * * * * * * * * * * * //

dimensions      [0 -1 0 1 0 0 0];

internalField   nonuniform List<scalar> 
1596
(
-3.64288
-15.6216
-22.2742
-24.7953
-25.4931
-25.4989
-25.3395
-25.0962
-24.7916
-24.4869
-24.0618
-23.5751
-23.0171
-22.3932
-21.6605
-21.0873
-21.1985
-23.5446
-30.9968
2.45114
-7.67293
-13.352
-15.5451
-16.1426
-16.1423
-16.0009
-15.807
-15.6094
-15.4291
-15.2364
-15.0747
-14.9209
-14.7736
-14.5659
-14.162
-13.2174
-11.3519
-8.28817
6.06068
-0.896907
-5.12284
-6.87375
-7.39208
-7.44389
-7.37509
-7.27676
-7.19093
-7.12549
-7.08669
-7.09621
-7.14664
-7.24894
-7.40628
-7.54478
-7.42611
-6.53931
-4.2081
5.96578
1.94453
-0.894767
-2.20306
-2.64363
-2.73713
-2.72785
-2.6948
-2.6681
-2.65216
-2.65716
-2.69143
-2.75449
-2.85508
-3.01381
-3.21959
-3.39698
-3.23838
-2.11845
3.56408
1.94711
0.397377
-0.436178
-0.757901
-0.850154
-0.864788
-0.858942
-0.852874
-0.850182
-0.857046
-0.876168
-0.908116
-0.956498
-1.03431
-1.14752
-1.2936
-1.35763
-0.972361
0.259289
0.604489
0.290493
-0.01834
-0.174791
-0.231442
-0.246173
-0.247557
-0.246778
-0.246402
-0.24932
-0.256363
-0.267851
-0.2847
-0.311897
-0.353817
-0.420587
-0.486861
-0.395107
-3.15772
-1.25236
-0.389232
-0.123423
-0.0697907
-0.0653724
-0.0668001
-0.0671789
-0.0670687
-0.0669178
-0.067731
-0.0697459
-0.07308
-0.0778448
-0.0854131
-0.0971844
-0.119261
-0.151433
-0.141745
-6.25771
-3.19555
-1.2783
-0.423121
-0.127418
-0.0432112
-0.0229778
-0.0186259
-0.0177306
-0.0174828
-0.0176083
-0.01807
-0.0188905
-0.0200479
-0.0218223
-0.0244118
-0.0300258
-0.0413158
-0.0451517
-9.26215
-5.36266
-2.42199
-0.891774
-0.279965
-0.0786128
-0.0222469
-0.00832767
-0.00523726
-0.00457439
-0.00446771
-0.00453068
-0.00469991
-0.00494734
-0.00531253
-0.00575022
-0.00683038
-0.00996476
-0.0128527
-11.1162
-6.94317
-3.37197
-1.33132
-0.444899
-0.12958
-0.0342022
-0.00880285
-0.00275008
-0.00142472
-0.00115591
-0.00111596
-0.00113701
-0.00118224
-0.00125047
-0.00130127
-0.00143723
-0.00214152
-0.00329102
-12.671
-8.25988
-4.19754
-1.73596
-0.607486
-0.184864
-0.0502464
-0.0124936
-0.00301036
-0.000836178
-0.000373508
-0.000282455
-0.000269177
-0.000273538
-0.000285103
-0.000286903
-0.00028728
-0.000412627
-0.000761371
-14.3812
-9.70068
-5.10193
-2.18529
-0.792224
-0.249876
-0.070279
-0.0179247
-0.00423764
-0.000969422
-0.000245752
-9.60357e-05
-6.68741e-05
-6.21775e-05
-6.31435e-05
-6.2135e-05
-5.65109e-05
-7.23613e-05
-0.000159854
-15.2243
-10.5647
-5.68956
-2.49369
-0.925249
-0.29898
-0.0861844
-0.0225275
-0.00542921
-0.00122773
-0.000269516
-6.48519e-05
-2.31756e-05
-1.50536e-05
-1.37838e-05
-1.32275e-05
-1.12545e-05
-1.19254e-05
-3.0727e-05
-15.8149
-11.1297
-6.05569
-2.68169
-1.00652
-0.329617
-0.0964325
-0.0256227
-0.00628226
-0.00144017
-0.000313353
-6.70159e-05
-1.55746e-05
-5.21797e-06
-3.22573e-06
-2.78725e-06
-2.27943e-06
-1.93252e-06
-5.45813e-06
-16.3544
-11.558
-6.28184
-2.77891
-1.04369
-0.342847
-0.100821
-0.0269848
-0.0066771
-0.00154623
-0.00033929
-7.17929e-05
-1.50437e-05
-3.41894e-06
-1.10181e-06
-6.38459e-07
-4.72531e-07
-3.25761e-07
-9.05902e-07
-16.6261
-11.7498
-6.32614
-2.76868
-1.03031
-0.336225
-0.0984666
-0.0263118
-0.00651471
-0.0015123
-0.000333254
-7.06986e-05
-1.46147e-05
-3.02231e-06
-6.82371e-07
-2.14332e-07
-1.10182e-07
-6.11085e-08
-1.42935e-07
-16.5376
-11.6094
-6.13906
-2.63409
-0.962524
-0.309333
-0.0894756
-0.0236836
-0.00582381
-0.00134558
-0.000295834
-6.27052e-05
-1.29365e-05
-2.63162e-06
-5.43196e-07
-1.23205e-07
-3.74803e-08
-1.46541e-08
-2.21964e-08
-16.2888
-11.2323
-5.7741
-2.40559
-0.855439
-0.268485
-0.0761132
-0.0198129
-0.00480572
-0.00109799
-0.000239323
-5.03902e-05
-1.03425e-05
-2.09077e-06
-4.23082e-07
-8.78012e-08
-2.016e-08
-5.46866e-09
-3.78179e-09
-16.2521
-10.975
-5.44542
-2.18402
-0.748974
-0.227472
-0.0626404
-0.0158986
-0.00377265
-0.000845652
-0.000181312
-3.76317e-05
-7.62828e-06
-1.52494e-06
-3.04783e-07
-6.15908e-08
-1.2944e-08
-2.93081e-09
-9.21382e-10
-15.5857
-10.3435
-4.9416
-1.89911
-0.624422
-0.182349
-0.0484596
-0.0119161
-0.00274966
-0.00060131
-0.000126162
-2.56873e-05
-5.11937e-06
-1.00808e-06
-1.98743e-07
-3.95473e-08
-8.07099e-09
-1.71774e-09
-3.66836e-10
-14.5808
-9.45909
-4.32733
-1.58459
-0.496726
-0.138693
-0.0353696
-0.00837965
-0.00187037
-0.000397082
-8.11587e-05
-1.6143e-05
-3.15102e-06
-6.09053e-07
-1.18096e-07
-2.31333e-08
-4.63833e-09
-9.61905e-10
-1.82846e-10
-13.2829
-8.39131
-3.65973
-1.27061
-0.37781
-0.100353
-0.024438
-0.00555152
-0.00119304
-0.000244817
-4.85474e-05
-9.39912e-06
-1.79097e-06
-3.38785e-07
-6.44351e-08
-1.24007e-08
-2.44489e-09
-4.9801e-10
-9.14418e-11
-11.4622
-7.07029
-2.94571
-0.97004
-0.273331
-0.0689433
-0.0159969
-0.00347641
-0.000717691
-0.000142059
-2.72853e-05
-5.13569e-06
-9.54672e-07
-1.76726e-07
-3.29863e-08
-6.24393e-09
-1.21311e-09
-2.43907e-10
-4.44662e-11
-8.83314
-5.20095
-2.03774
-0.628078
-0.165775
-0.0392998
-0.00860534
-0.00177133
-0.000347403
-6.54719e-05
-1.19971e-05
-2.15771e-06
-3.83914e-07
-6.81646e-08
-1.22344e-08
-2.23479e-09
-4.21584e-10
-8.38705e-11
-1.68078e-11
-5.87729
-3.71369
-1.55511
-0.505624
-0.139197
-0.0341887
-0.00775498
-0.00166101
-0.000341696
-6.82433e-05
-1.33624e-05
-2.59087e-06
-4.99894e-07
-9.65574e-08
-1.87926e-08
-3.71327e-09
-7.47451e-10
-1.59668e-10
-4.66174e-11
-1.80031
-1.23243
-0.592174
-0.21919
-0.0675064
-0.0182439
-0.0044926
-0.00103382
-0.000226933
-4.8188e-05
-1.00233e-05
-2.06669e-06
-4.24693e-07
-8.73809e-08
-1.8037e-08
-3.73015e-09
-7.65727e-10
-1.6504e-10
-6.33149e-11
2.54171
1.43084
0.464072
0.100936
0.0131843
-0.000485195
-0.000970645
-0.000390228
-0.000116542
-3.01834e-05
-7.19854e-06
-1.64056e-06
-3.63756e-07
-7.9254e-08
-1.69041e-08
-3.41503e-09
-5.92998e-10
-8.63914e-11
-9.40292e-11
6.62343
4.10226
1.63002
0.490734
0.120687
0.0250288
0.00437497
0.000613527
5.39991e-05
-3.90784e-06
-3.51159e-06
-1.17161e-06
-3.07897e-07
-7.1056e-08
-1.41421e-08
-1.75133e-09
4.46478e-10
4.47614e-10
-1.18291e-10
9.77237
6.34785
2.75633
0.924258
0.257035
0.0615052
0.0128855
0.00236835
0.000375097
4.75735e-05
3.4624e-06
-4.93677e-07
-3.05784e-07
-9.10014e-08
-1.89026e-08
-6.44627e-10
2.68298e-09
2.17598e-09
-2.18568e-10
12.3449
8.2916
3.8725
1.4181
0.434131
0.115129
0.0269841
0.00563995
0.0010501
0.000170282
2.24851e-05
1.64392e-06
-3.17992e-07
-2.0699e-07
-7.17685e-08
-1.7792e-08
6.49891e-11
4.28192e-09
-1.6324e-09
13.6527
9.47895
4.74349
1.88762
0.632435
0.184579
0.0479433
0.0112247
0.00238467
0.000457172
7.76195e-05
1.0544e-05
5.48086e-07
-3.942e-07
-2.56592e-07
-1.18015e-07
-4.40875e-08
-9.61017e-09
-1.25033e-08
14.5446
10.4461
5.57542
2.39748
0.874354
0.279528
0.08016
0.0209565
0.005061
0.00113695
0.000239712
4.68408e-05
7.98561e-06
7.96082e-07
-2.75069e-07
-2.99637e-07
-1.86442e-07
-9.02125e-08
-5.91581e-08
15.1033
11.1375
6.29498
2.90941
1.15122
0.40274
0.127667
0.0374031
0.0103285
0.00273722
0.000715765
0.000189472
5.22519e-05
1.52961e-05
4.81289e-06
1.56824e-06
5.31728e-07
2.17206e-07
1.69399e-07
15.0389
11.2674
6.6577
3.26271
1.37956
0.518097
0.17677
0.0557775
0.0165606
0.00469772
0.00130462
0.000364033
0.00010583
3.33179e-05
1.18557e-05
4.70615e-06
2.09102e-06
1.04503e-06
7.86195e-07
14.6052
11.1499
6.91067
3.62049
1.65955
0.683546
0.258478
0.0912476
0.0305445
0.00981697
0.00307663
0.00095427
0.000297235
9.449e-05
3.13953e-05
1.0941e-05
3.94831e-06
1.18076e-06
-2.13927e-07
14.0499
10.8163
6.90897
3.7852
1.83426
0.806049
0.327912
0.125507
0.0458832
0.0162174
0.00561599
0.00193183
0.000667247
0.00023422
8.48375e-05
3.19568e-05
1.25121e-05
4.77259e-06
1.03797e-06
12.5807
9.50453
6.03032
3.30701
1.61295
0.716635
0.295973
0.11545
0.0431808
0.0156753
0.00559658
0.00199318
0.000715579
0.000262053
9.93173e-05
3.91945e-05
1.59861e-05
6.21137e-06
1.20965e-06
10.5851
8.00142
5.11758
2.84625
1.41483
0.643297
0.272853
0.109639
0.042359
0.0159232
0.00590078
0.00218612
0.000818173
0.000312948
0.000124084
5.12662e-05
2.18549e-05
8.82869e-06
1.78975e-06
8.51463
6.45673
4.1583
2.33734
1.17807
0.544708
0.235576
0.0967597
0.0383032
0.0147858
0.00563914
0.0021548
0.00083348
0.000330108
0.000135749
5.82023e-05
2.57005e-05
1.06825e-05
2.1754e-06
6.26385
4.75141
3.07276
1.74008
0.886093
0.414974
0.182189
0.0761246
0.030716
0.0121082
0.00472427
0.00185005
0.00073459
0.000299107
0.000126607
5.59021e-05
2.53957e-05
1.08407e-05
2.3246e-06
3.88654
2.93144
1.89472
1.07588
0.550683
0.259724
0.115032
0.0485596
0.0198235
0.00791645
0.00313309
0.00124611
0.000503116
0.000208529
8.99273e-05
4.0457e-05
1.86898e-05
8.05427e-06
1.65767e-06
1.47582
1.09959
0.706123
0.399407
0.203927
0.0960202
0.0424798
0.017918
0.00730995
0.0029176
0.00115395
0.000458636
0.000185022
7.66134e-05
3.29993e-05
1.48166e-05
6.80538e-06
2.86082e-06
4.38952e-07
-1.47505
-1.09809
-0.704641
-0.398305
-0.203241
-0.0956409
-0.0422873
-0.0178261
-0.00726794
-0.00289894
-0.00114577
-0.000455049
-0.000183432
-7.58944e-05
-3.26621e-05
-1.46526e-05
-6.72378e-06
-2.82283e-06
-4.29591e-07
-3.88582
-2.93018
-1.89354
-1.07505
-0.550187
-0.25946
-0.114902
-0.0484996
-0.0197967
-0.00790482
-0.00312808
-0.00124395
-0.000502174
-0.000208108
-8.97319e-05
-4.03632e-05
-1.86441e-05
-8.03443e-06
-1.65531e-06
-6.2631
-4.75028
-3.07183
-1.73949
-0.885783
-0.414825
-0.182122
-0.0760958
-0.0307039
-0.0121032
-0.00472222
-0.00184921
-0.000734235
-0.000298954
-0.000126538
-5.58696e-05
-2.53797e-05
-1.08327e-05
-2.32053e-06
-8.51401
-6.45606
-4.15799
-2.33733
-1.17816
-0.544801
-0.235637
-0.0967931
-0.0383197
-0.0147934
-0.00564254
-0.00215628
-0.000834127
-0.000330392
-0.000135876
-5.82617e-05
-2.57291e-05
-1.06958e-05
-2.17914e-06
-10.5846
-8.00118
-5.11789
-2.8468
-1.41532
-0.643615
-0.27303
-0.109727
-0.0424002
-0.0159414
-0.00590849
-0.00218933
-0.000819496
-0.000313496
-0.000124316
-5.13671e-05
-2.19e-05
-8.84783e-06
-1.79393e-06
-12.5804
-9.50485
-6.03138
-3.30821
-1.61387
-0.717204
-0.296277
-0.115598
-0.0432469
-0.0157032
-0.00560785
-0.00199758
-0.000717272
-0.0002627
-9.95683e-05
-3.92943e-05
-1.60266e-05
-6.22669e-06
-1.21204e-06
-14.0494
-10.8159
-6.90922
-3.78576
-1.83476
-0.806378
-0.328093
-0.125595
-0.0459217
-0.016233
-0.00562188
-0.00193398
-0.000668021
-0.000234503
-8.49463e-05
-3.20022e-05
-1.25323e-05
-4.78124e-06
-1.0389e-06
-14.6068
-11.1559
-6.91892
-3.62773
-1.6644
-0.686249
-0.259789
-0.0918193
-0.0307742
-0.00990375
-0.00310807
-0.000965431
-0.000301186
-9.59167e-05
-3.19356e-05
-1.11624e-05
-4.04862e-06
-1.22932e-06
1.99668e-07
-15.038
-11.268
-6.65986
-3.26488
-1.38098
-0.518809
-0.177062
-0.055878
-0.0165899
-0.00470483
-0.00130594
-0.000364163
-0.000105822
-3.33354e-05
-1.18965e-05
-4.75217e-06
-2.13469e-06
-1.09042e-06
-8.50488e-07
-15.104
-11.1414
-6.30015
-2.91343
-1.15354
-0.403828
-0.128107
-0.0375635
-0.0103831
-0.00275521
-0.000721729
-0.00019151
-5.29804e-05
-1.55695e-05
-4.92112e-06
-1.61339e-06
-5.52754e-07
-2.33423e-07
-2.0379e-07
-14.5451
-10.4497
-5.57985
-2.40067
-0.876038
-0.280245
-0.0804199
-0.0210403
-0.00508583
-0.00114384
-0.000241486
-4.72243e-05
-8.01549e-06
-7.51802e-07
3.2326e-07
3.36904e-07
2.11815e-07
1.06854e-07
7.15575e-08
-13.6533
-9.48245
-4.74746
-1.89023
-0.633688
-0.185061
-0.0481009
-0.0112702
-0.00239653
-0.000459942
-7.81498e-05
-1.05815e-05
-5.04676e-07
4.34682e-07
2.83972e-07
1.34954e-07
5.36149e-08
1.48828e-08
2.1367e-08
-12.3456
-8.29496
-3.87592
-1.42014
-0.435012
-0.115435
-0.027074
-0.00566315
-0.00105543
-0.000171337
-2.26371e-05
-1.64095e-06
3.32732e-07
2.15084e-07
7.49832e-08
1.8687e-08
-3.93238e-10
-5.08002e-09
4.12197e-09
-9.77313
-6.35074
-2.75893
-0.925648
-0.257576
-0.061674
-0.0129302
-0.00237877
-0.000377229
-4.79373e-05
-3.50542e-06
4.92639e-07
3.04954e-07
8.841e-08
1.61656e-08
-1.51846e-09
-4.29812e-09
-3.35235e-09
6.26618e-10
-6.62441
-4.10466
-1.63185
-0.491587
-0.12098
-0.0251102
-0.00439443
-0.000617627
-5.47509e-05
3.7959e-06
3.49875e-06
1.16834e-06
3.04492e-07
6.80161e-08
1.19193e-08
2.99627e-10
-1.36391e-09
-1.02184e-09
1.37719e-10
-2.54273
-1.43249
-0.465091
-0.101332
-0.0132995
0.000457408
0.000964753
0.000389108
0.000116357
3.01578e-05
7.19386e-06
1.63765e-06
3.61371e-07
7.75739e-08
1.58373e-08
2.78296e-09
2.29346e-10
-1.19874e-10
8.0836e-11
1.7983
1.23024
0.591144
0.218869
0.0674283
0.0182275
0.00448936
0.00103316
0.000226786
4.81501e-05
1.00114e-05
2.06216e-06
4.2269e-07
8.64159e-08
1.75464e-08
3.47782e-09
6.35866e-10
9.85641e-11
5.60282e-11
5.8766
3.71464
1.55611
0.506099
0.139358
0.0342329
0.00776558
0.00166329
0.000342133
6.83154e-05
1.33706e-05
2.59035e-06
4.99008e-07
9.60777e-08
1.85685e-08
3.61218e-09
7.01952e-10
1.39049e-10
4.36606e-11
8.83148
5.19863
2.03637
0.627525
0.165602
0.0392539
0.00859443
0.00176886
0.000346838
6.5337e-05
1.19631e-05
2.14879e-06
3.815e-07
6.74891e-08
1.20349e-08
2.17154e-09
3.99882e-10
7.57367e-11
1.39605e-11
11.4627
7.07092
2.94607
0.970173
0.273375
0.0689573
0.016001
0.00347743
0.000717873
0.000142071
2.72787e-05
5.13176e-06
9.53246e-07
1.76294e-07
3.28658e-08
6.21135e-09
1.20422e-09
2.41349e-10
4.37369e-11
13.2828
8.39125
3.65968
1.27058
0.3778
0.100353
0.024439
0.00555208
0.00119321
0.000244846
4.85483e-05
9.39755e-06
1.79017e-06
3.38515e-07
6.43569e-08
1.23797e-08
2.43944e-09
4.96536e-10
9.10521e-11
14.5808
9.45905
4.32732
1.58457
0.496716
0.138691
0.0353704
0.00838034
0.00187068
0.000397179
8.11848e-05
1.61493e-05
3.15243e-06
6.09366e-07
1.18167e-07
2.31499e-08
4.64187e-09
9.62266e-10
1.82545e-10
15.5857
10.3435
4.9416
1.8991
0.624412
0.182345
0.0484595
0.0119168
0.00275015
0.000601521
0.000126235
2.57097e-05
5.12569e-06
1.00977e-06
1.99182e-07
3.96574e-08
8.09426e-09
1.71999e-09
3.65388e-10
16.2521
10.975
5.44545
2.18402
0.748965
0.227466
0.0626398
0.0158995
0.00377343
0.000846033
0.000181457
3.76798e-05
7.64264e-06
1.52895e-06
3.05854e-07
6.18513e-08
1.29747e-08
2.91709e-09
9.12164e-10
16.2888
11.2323
5.77412
2.40559
0.855429
0.268479
0.0761125
0.0198141
0.00480683
0.00109856
0.00023955
5.04679e-05
1.03664e-05
2.09759e-06
4.24891e-07
8.81333e-08
1.99993e-08
5.32223e-09
3.757e-09
16.5376
11.6094
6.13908
2.6341
0.962518
0.309327
0.0894741
0.0236846
0.00582493
0.0013462
0.000296098
6.27986e-05
1.29659e-05
2.64016e-06
5.45214e-07
1.22762e-07
3.58568e-08
1.38587e-08
2.23344e-08
16.6261
11.7499
6.32618
2.7687
1.03031
0.33622
0.0984642
0.0263117
0.00651529
0.00151273
0.000333452
7.07726e-05
1.4639e-05
3.02941e-06
6.82306e-07
2.08386e-07
1.00369e-07
5.81001e-08
1.45317e-07
16.3544
11.558
6.28186
2.77894
1.0437
0.342847
0.100819
0.0269839
0.00667694
0.00154626
0.000339324
7.18095e-05
1.50513e-05
3.42066e-06
1.09082e-06
6.03337e-07
4.23331e-07
3.19544e-07
9.25331e-07
15.8149
11.1298
6.05572
2.68173
1.00654
0.329624
0.0964322
0.0256212
0.00628124
0.00143967
0.000313154
6.69512e-05
1.55631e-05
5.21024e-06
3.16474e-06
2.6166e-06
2.06688e-06
1.94979e-06
5.57475e-06
15.2244
10.5647
5.68959
2.49373
0.925279
0.298991
0.0861851
0.0225251
0.00542726
0.0012267
0.000269096
6.47309e-05
2.31714e-05
1.50206e-05
1.35067e-05
1.25125e-05
1.04757e-05
1.2191e-05
3.12859e-05
14.3812
9.70068
5.10193
2.18531
0.792249
0.249888
0.0702803
0.0179225
0.00423562
0.00096833
0.000245342
9.59903e-05
6.69515e-05
6.20135e-05
6.20426e-05
5.95866e-05
5.41742e-05
7.40138e-05
0.000162031
12.6711
8.25998
4.1976
1.73599
0.607509
0.184876
0.0502493
0.0124929
0.00300927
0.000835592
0.000373417
0.000282681
0.000269377
0.000272732
0.000281365
0.000279392
0.00028194
0.000419812
0.000768211
11.1163
6.94328
3.37204
1.33135
0.444913
0.129586
0.0342034
0.00880243
0.00274966
0.00142469
0.00115626
0.00111652
0.00113698
0.00117916
0.00124019
0.00128399
0.00142967
0.00216487
0.00330768
9.26227
5.36275
2.42204
0.891791
0.279968
0.078613
0.0222467
0.00832785
0.00523769
0.00457498
0.0044684
0.00453111
0.00469819
0.00493863
0.00529109
0.00572262
0.00683143
0.0100204
0.0128812
6.25781
3.19562
1.27833
0.423117
0.12741
0.0432083
0.0229786
0.0186275
0.0177319
0.0174836
0.0176084
0.0180685
0.0188841
0.0200305
0.0217933
0.0243942
0.030064
0.0414017
0.0451743
3.15781
1.25242
0.389247
0.123411
0.0697804
0.0653701
0.0668013
0.06718
0.0670687
0.0669168
0.0677284
0.0697397
0.0730673
0.0778263
0.0854077
0.0972317
0.119358
0.151467
0.141707
-0.259212
-0.604448
-0.290492
0.0183281
0.174783
0.231439
0.24617
0.247554
0.246774
0.246396
0.249313
0.256352
0.267841
0.284712
0.311976
0.353975
0.420672
0.486655
0.394955
-3.56402
-1.9471
-0.397391
0.436163
0.75789
0.850144
0.864777
0.85893
0.852863
0.85017
0.857034
0.876161
0.908131
0.956578
1.03449
1.14768
1.29347
1.35711
0.972179
-5.96575
-1.94454
0.894727
2.20303
2.6436
2.7371
2.72783
2.69478
2.66807
2.65213
2.65715
2.69143
2.75453
2.85518
3.0139
3.21949
3.39658
3.23806
2.11851
-6.0607
0.89685
5.12279
6.8737
7.39203
7.44384
7.37505
7.27673
7.1909
7.12546
7.08667
7.09621
7.14664
7.2489
7.40607
7.54438
7.42596
6.53997
4.20845
-2.45117
7.67288
13.352
15.545
16.1426
16.1423
16.0008
15.807
15.6094
15.4291
15.2363
15.0746
14.9208
14.7734
14.5657
14.1618
13.2177
11.3526
8.28828
3.64288
15.6216
22.2741
24.7953
25.4931
25.4989
25.3395
25.0962
24.7916
24.4869
24.0618
23.5751
23.0171
22.3932
21.6606
21.0876
21.1986
23.5441
30.9966
)
;

boundaryField
{
    up
    {
        type            calculated;
        value           nonuniform List<scalar> 
84
(
-30.9968
-8.28817
-4.2081
-2.11845
-0.972361
-0.395107
-0.141745
-0.0451517
-0.0128527
-0.00329102
-0.000761371
-0.000159854
-3.0727e-05
-5.45813e-06
-9.05902e-07
-1.42935e-07
-2.21964e-08
-3.78179e-09
-9.21382e-10
-3.66836e-10
-1.82846e-10
-9.14418e-11
-4.44662e-11
-1.68078e-11
-2.48591e-11
-4.25841e-11
-1.07669e-10
-3.55632e-10
-1.60063e-09
-7.9177e-09
-3.43342e-08
-9.75659e-08
1.76194e-07
1.00044e-06
4.87723e-08
1.09336e-06
1.29927e-06
1.89421e-06
2.28891e-06
2.41558e-06
1.72747e-06
4.76448e-07
-4.66833e-07
-1.72466e-06
-2.41161e-06
-2.29256e-06
-1.89847e-06
-1.30172e-06
-1.09434e-06
-5.86453e-08
-1.08195e-06
-2.27075e-07
1.0977e-07
4.87236e-08
1.40342e-08
3.48817e-09
8.53814e-10
2.30022e-10
7.08362e-11
3.05605e-11
1.39605e-11
4.37369e-11
9.10521e-11
1.82545e-10
3.65388e-10
9.12164e-10
3.757e-09
2.23344e-08
1.45317e-07
9.25331e-07
5.57475e-06
3.12859e-05
0.000162031
0.000768211
0.00330768
0.0128812
0.0451743
0.141707
0.394955
0.972179
2.11851
4.20845
8.28828
30.9966
)
;
    }
    low
    {
        type            calculated;
        value           nonuniform List<scalar> 
84
(
-2.66006
4.18667
7.88515
7.3253
4.20332
0.163157
-3.85703
-7.3777
-10.6453
-12.5198
-14.15
-15.9483
-16.734
-17.3433
-17.963
-18.2792
-18.2429
-18.1357
-18.2477
-17.5998
-16.6369
-15.3726
-13.4667
-10.5897
-7.06248
-2.19088
2.95865
7.65358
11.122
13.8724
15.1728
15.9554
16.4115
16.2444
15.7035
15.1029
13.5817
11.4338
9.18871
6.75763
4.19516
1.5969
-1.59612
-4.19438
-6.75675
-9.18784
-11.433
-13.5809
-15.1016
-15.704
-16.2422
-16.4107
-15.9543
-15.1719
-13.8716
-11.1216
-7.65382
-2.95946
2.18871
7.06162
10.5883
13.4671
15.3725
16.6368
17.5997
18.2477
18.1357
18.2429
18.2793
17.963
17.3434
16.7341
15.9483
14.1502
12.52
10.6454
7.37781
3.85714
-0.163065
-4.20325
-7.32526
-7.88517
-4.18671
2.66005
)
;
    }
    left
    {
        type            calculated;
        value           nonuniform List<scalar> 
19
(
-4.57074
-18.0119
-25.5846
-28.4981
-29.3584
-29.4271
-29.2957
-29.0621
-28.7289
-28.3932
-27.8835
-27.2548
-26.517
-25.69
-24.7035
-23.9637
-24.2374
-27.6824
-26.6395
)
;
    }
    right
    {
        type            calculated;
        value           nonuniform List<scalar> 
19
(
4.57075
18.0119
25.5846
28.4981
29.3584
29.4272
29.2957
29.0621
28.7289
28.3932
27.8835
27.2548
26.517
25.6901
24.7038
23.9642
24.2375
27.6813
26.639
)
;
    }
    frontAndBackPlanes
    {
        type            empty;
    }
}


// ************************************************************************* //
