/*--------------------------------*- C++ -*----------------------------------*\
  =========                 |
  \\      /  F ield         | OpenFOAM: The Open Source CFD Toolbox
   \\    /   O peration     | Website:  https://openfoam.org
    \\  /    A nd           | Version:  7
     \\/     M anipulation  |
\*---------------------------------------------------------------------------*/
FoamFile
{
    version     2.0;
    format      ascii;
    class       volScalarField;
    location    "0.4";
    object      gradTz;
}
// * * * * * * * * * * * * * * * * * * * * * * * * * * * * * * * * * * * * * //

dimensions      [0 -1 0 1 0 0 0];

internalField   nonuniform List<scalar> 
1596
(
-3.22754e-16
-1.57599e-16
1.59356e-16
2.76583e-18
-3.05584e-16
0
-1.43887e-16
-1.41858e-16
-8.39991e-18
-7.41753e-17
-7.49661e-19
-7.36022e-17
3.22636e-16
-7.25972e-17
3.39609e-16
2.92748e-16
1.74043e-16
2.19586e-16
0
3.23277e-16
0
4.60328e-16
-2.67548e-18
-1.4289e-16
1.41862e-16
2.89669e-16
7.91753e-18
1.37728e-16
-6.61363e-17
1.31797e-16
-2.18231e-18
-1.82507e-16
-1.13724e-16
-2.74661e-16
-2.67638e-16
-2.43286e-16
1.38334e-16
0
-1.59607e-16
0
-3.02611e-16
4.25374e-18
2.81598e-16
-7.70209e-17
4.89713e-18
-1.99077e-18
-2.10985e-18
-2.30534e-18
5.15794e-17
0
9.47014e-17
2.69301e-16
-2.64797e-17
2.11448e-17
4.9816e-17
7.72681e-17
0
2.49346e-16
-7.65265e-17
7.62471e-17
0
-7.38042e-17
-7.5669e-17
1.32214e-16
-1.17889e-16
0
0
-3.93026e-17
2.68954e-17
0
-7.97269e-17
-1.02438e-16
7.0393e-17
-7.12351e-17
-3.67177e-18
0
4.33998e-17
1.18316e-16
-1.09024e-16
0
-3.28403e-17
-9.93625e-17
0
1.50068e-16
-1.5084e-17
-1.36379e-17
-1.06031e-17
7.89309e-17
9.59076e-17
9.68161e-18
1.9126e-18
-7.61268e-17
3.84941e-18
3.51603e-17
-1.49948e-17
-1.12702e-17
-1.62633e-16
1.57214e-16
-1.40382e-16
-2.41559e-19
-1.2777e-16
3.61877e-18
-3.63078e-18
-1.031e-16
0
-8.56551e-18
-9.3119e-17
-8.67224e-17
7.15858e-17
7.17384e-17
-9.85181e-19
-4.29651e-17
-3.56626e-17
2.7164e-17
9.41873e-17
-1.66527e-16
1.90975e-16
1.0832e-16
0
9.77361e-17
5.87575e-17
-2.84504e-17
1.31085e-16
-2.48799e-17
-1.03737e-16
1.01966e-18
-6.24391e-17
-7.19464e-17
-5.71603e-17
4.79774e-17
4.33433e-17
-5.75122e-19
-1.13924e-17
7.41956e-18
2.63579e-16
-3.18228e-16
0
0
-1.24483e-16
0
0
0
9.00069e-17
0
0
5.70024e-17
2.32822e-18
1.38531e-17
-4.18002e-17
0
2.22542e-17
8.51345e-18
0
-1.73645e-16
3.35987e-16
0
0
1.282e-16
0
-5.1247e-17
5.11952e-17
-9.1614e-17
3.87513e-17
-3.90347e-17
0
5.64282e-17
5.24357e-17
0
-3.03279e-17
-2.27475e-17
-7.41099e-18
4.04662e-16
-1.91474e-16
0
-1.46006e-16
1.44372e-16
0
1.1413e-16
0
0
0
3.68265e-17
-3.7003e-17
0
-4.34275e-17
-1.26362e-17
0
2.26949e-18
1.75884e-17
0
-1.02714e-16
0
0
1.4665e-16
-2.77183e-16
1.13133e-17
4.64207e-18
-4.88198e-17
4.63136e-18
1.06415e-18
-3.93436e-17
-6.49835e-17
0
4.91345e-17
-9.51288e-18
9.65566e-18
2.4098e-17
-1.37106e-17
-6.43399e-18
8.95499e-17
-7.15344e-18
8.58092e-17
3.03193e-16
-1.26941e-17
-1.31573e-16
0
0
0
8.13234e-17
3.36335e-17
1.22152e-16
-2.95325e-17
-4.82555e-17
-2.98294e-17
-1.56897e-17
6.93831e-18
-1.49582e-17
6.14668e-18
-9.65032e-17
9.44276e-17
-1.76825e-16
-2.99631e-16
2.81628e-16
1.17501e-16
-2.20458e-16
1.9653e-16
-1.74724e-16
4.53783e-17
3.62474e-17
-3.28024e-17
2.30078e-17
-2e-17
5.77379e-17
0
-4.28393e-18
3.12346e-17
-4.61643e-18
-6.12063e-16
2.84913e-16
2.61726e-19
-6.84757e-17
6.65004e-18
1.14558e-16
-2.19693e-16
-9.46198e-17
8.34789e-17
-7.31351e-17
-6.41003e-17
0
-7.47369e-17
-2.23823e-17
-4.08328e-17
-2.42776e-17
1.91835e-18
-2.04187e-17
2.51463e-19
1.00035e-16
-9.10376e-17
2.29714e-19
-7.36693e-17
-1.91465e-16
1.82463e-16
3.20328e-19
9.2207e-17
-8.12777e-17
1.4118e-16
3.35222e-17
2.86409e-17
9.11867e-17
0
7.71017e-17
3.53475e-17
0
1.14334e-17
2.13443e-19
0
8.83171e-17
7.31978e-17
-1.50016e-16
1.85805e-16
-2.85102e-16
2.07076e-16
8.33982e-17
-9.65937e-18
-1.39712e-16
2.72145e-17
-2.70803e-17
-8.54682e-17
3.51009e-17
-1.68867e-17
-3.63322e-17
1.61877e-17
-9.94735e-18
3.6457e-18
-9.31958e-17
3.27056e-16
-2.42639e-16
1.38268e-16
0
0
-4.29367e-17
8.99179e-17
-6.918e-17
1.31688e-16
0
0
5.87971e-17
-5.20819e-17
-3.84622e-17
1.20288e-17
-1.25491e-17
6.48246e-18
0
5.85327e-18
8.71426e-17
-7.36495e-17
-6.62437e-17
-1.12541e-16
-4.10773e-17
5.17047e-17
0
-6.57007e-17
-5.60442e-17
5.14233e-17
-4.36083e-17
3.65841e-17
0
1.45056e-17
2.99424e-17
0
0
0
-5.57084e-18
1.46143e-16
5.96594e-17
-1.98548e-16
5.73139e-17
5.07989e-17
0
0
6.26619e-17
-3.24586e-17
-4.97375e-17
4.21772e-17
-3.53796e-17
0
-1.01629e-17
9.2585e-18
0
-7.54915e-18
-2.60513e-18
-7.64062e-17
2.24251e-16
-2.77303e-16
-1.16893e-16
6.03982e-17
-4.84474e-17
4.23833e-17
0
-3.16262e-17
2.73919e-17
0
0
1.46112e-17
-1.4628e-17
4.63979e-18
-5.67721e-18
1.11766e-17
1.07294e-18
1.92064e-18
3.8457e-17
-3.54317e-17
1.87907e-16
-1.2189e-16
-5.20531e-17
5.28965e-18
8.57416e-17
3.48487e-17
3.02615e-17
0
1.97935e-17
-1.84908e-17
1.53336e-17
-1.34426e-17
1.84692e-17
-3.21742e-17
-8.69175e-18
7.6285e-18
2.08547e-18
1.04353e-16
-1.05051e-16
0
1.05545e-16
-5.47948e-17
-4.39156e-17
3.33534e-17
-1.04591e-16
0
-1.66793e-18
-2.20502e-17
-1.7002e-17
2.61969e-17
-1.74841e-18
-1.78502e-17
1.35312e-17
0
5.14913e-18
-2.02497e-18
1.74635e-16
-3.1738e-17
1.40288e-16
-1.10231e-16
6.55959e-17
1.07655e-17
-7.78822e-17
-2.91957e-17
5.37882e-17
-1.80821e-18
-3.54468e-17
3.08963e-17
-1.3888e-17
-1.95384e-17
0
0
0
-5.20039e-18
1.95752e-19
-1.57619e-16
1.54146e-16
8.64144e-20
2.51483e-17
2.24598e-17
-5.72257e-17
6.94217e-17
-5.97938e-17
5.29336e-17
-1.92306e-17
3.70232e-17
1.40091e-17
-6.12104e-18
3.53475e-19
-2.50761e-18
-4.43035e-18
0
0
0
0
0
7.97266e-17
-3.58991e-17
-1.24906e-16
0
0
-1.72285e-17
-2.94725e-17
2.56262e-17
0
-1.7668e-17
1.43848e-17
-5.03717e-17
5.86072e-17
-2.01704e-17
2.15667e-17
2.41741e-18
0
-3.05565e-17
3.09326e-17
0
-2.64992e-17
2.69822e-17
4.6919e-17
0
1.7393e-17
2.53537e-17
-1.10636e-16
0
-1.89467e-17
1.54694e-17
1.18386e-17
-9.14615e-18
1.36804e-17
0
-5.27425e-18
0
-1.57042e-17
-1.59351e-17
9.45127e-19
2.72273e-17
-7.54702e-17
0
-2.08339e-17
0
6.46067e-17
2.75326e-17
0
7.49605e-17
-8.1309e-17
7.51242e-18
-2.04844e-17
4.66745e-18
2.60254e-17
1.03214e-17
-8.16734e-18
0
3.27614e-17
-2.97464e-17
3.71012e-17
4.6476e-17
0
4.26778e-17
-4.09126e-17
-3.43831e-17
5.46683e-17
-8.23758e-17
-4.28323e-17
0
0
1.07796e-17
0
0
3.2832e-18
0
-1.43873e-16
1.10151e-16
0
1.34539e-18
-2.73901e-17
-1.5561e-18
2.54586e-17
1.96597e-17
-2.33826e-17
-6.52793e-17
1.08849e-16
-2.90988e-17
0
-1.55525e-17
0
0
0
-1.26107e-17
1.00512e-17
-4.03517e-17
3.84872e-17
1.0581e-16
-1.04378e-16
3.27984e-17
1.55676e-18
-2.58858e-17
2.31429e-17
4.08634e-17
3.27075e-17
-6.48429e-17
0
3.73909e-17
6.87743e-18
-1.77903e-17
-4.1338e-17
3.43699e-17
-6.0143e-18
1.11497e-17
-1.35267e-16
2.01548e-16
-2.00738e-16
3.63781e-17
3.19897e-17
-3.08892e-17
2.64255e-17
-2.19463e-17
0
-1.97913e-17
3.35875e-17
1.46224e-17
2.4297e-17
3.28438e-17
-4.97392e-17
-3.63966e-19
0
-4.3904e-18
1.45325e-18
-1.4627e-16
-4.47238e-17
-8.07902e-17
4.24546e-17
-7.27127e-17
6.51441e-17
-3.93802e-17
3.47084e-17
-1.93666e-18
-1.94876e-18
-3.44098e-17
1.98505e-17
-1.2587e-17
3.76882e-17
-4.04587e-17
5.7277e-18
4.48069e-18
0
-2.47715e-18
1.5815e-16
-4.81289e-17
0
0
-7.49634e-17
1.47105e-16
-3.50437e-17
-7.07463e-18
5.94948e-17
-1.49985e-18
0
0
-1.52801e-17
0
-3.45824e-17
8.54651e-17
-5.98489e-17
0
9.53541e-19
5.45513e-17
1.03451e-16
0
-4.55408e-17
-3.86245e-17
-3.54069e-17
-3.62636e-17
1.56066e-17
-4.4228e-17
-2.50291e-17
0
0
1.91341e-17
0
0
-4.5761e-17
7.51574e-17
0
0
3.74248e-16
-4.18506e-17
-2.3157e-16
-1.30508e-16
1.76654e-16
5.79882e-17
3.51621e-17
0
-1.34676e-17
1.35237e-17
3.31305e-17
-1.08135e-17
-1.67903e-17
2.61877e-17
-2.78557e-17
-8.96391e-18
0
0
0
2.99699e-17
-2.41038e-16
2.3669e-16
-2.3148e-17
-1.83444e-16
2.89704e-16
-1.46814e-16
0
0
8.35646e-17
-6.91564e-17
0
-2.17881e-17
3.76894e-17
-4.4317e-18
1.11851e-17
3.46053e-18
3.30659e-20
7.67129e-19
0
0
0
2.04112e-16
-1.36651e-16
1.48373e-16
-2.32417e-16
6.69001e-17
0
-2.50144e-17
4.07617e-17
-4.16609e-17
-8.41247e-18
-3.01071e-19
-5.89143e-18
-9.20922e-19
-4.68098e-18
-1.29846e-18
-7.16379e-19
2.51995e-16
-4.52091e-16
2.15597e-16
0
6.04648e-17
-8.22671e-17
8.47093e-17
-6.72314e-17
0
-3.39879e-17
4.76768e-17
0
0
-2.32114e-19
0
-5.8937e-18
4.04834e-18
7.8839e-19
1.13607e-18
2.42029e-16
0
-9.95901e-17
1.11294e-16
-7.16679e-17
1.57359e-16
-7.48819e-17
-6.00401e-17
6.06671e-17
-6.249e-18
0
0
4.10606e-18
-7.07617e-18
-4.95238e-18
9.42295e-18
-2.03967e-18
1.05906e-18
0
1.37491e-16
1.09555e-16
-2.63122e-18
-1.05885e-16
-1.08962e-17
-7.97605e-17
7.8787e-18
6.78319e-17
-3.55542e-18
6.36635e-18
0
0
-4.20638e-18
0
4.97291e-18
-5.31983e-18
0
6.82392e-19
-1.89959e-19
-7.29928e-17
-5.49017e-17
5.13873e-17
-5.99026e-18
-2.7121e-18
7.42018e-18
0
-1.99833e-18
3.03929e-17
-2.55953e-17
0
8.87202e-18
-1.70289e-18
-7.87332e-18
-7.2294e-19
-5.65095e-19
0
-5.32727e-19
0
3.00559e-17
-5.74188e-17
-1.03387e-18
2.50571e-17
2.34197e-17
-2.32942e-17
-1.68561e-17
1.90936e-17
-6.67702e-18
5.21377e-18
-5.1572e-18
5.31626e-18
0
1.37726e-20
-5.31113e-19
1.91473e-18
-6.56379e-21
0
0
3.00569e-17
-2.99443e-17
-2.49263e-17
2.20636e-17
4.13929e-17
-4.16373e-17
-8.42828e-18
8.44797e-18
-6.73323e-18
6.80402e-18
-5.15734e-18
9.75948e-18
-2.73704e-18
-1.98751e-18
-6.14073e-19
2.02712e-19
4.86589e-19
1.28881e-19
-9.66749e-20
0
-7.17128e-18
4.34791e-17
-4.7083e-17
4.13762e-17
-3.6642e-17
0
3.01503e-17
-2.69423e-17
0
1.03015e-17
-1.3061e-17
-7.51287e-18
7.87396e-18
1.4639e-18
0
0
-5.32774e-19
1.93771e-19
1.19712e-16
-2.21567e-16
2.28529e-16
-2.02953e-16
8.01887e-17
-6.98627e-17
6.62196e-17
8.04792e-18
-3.03042e-17
2.70993e-17
0
-2.01871e-17
1.8359e-17
-3.54229e-18
-1.43388e-18
2.28945e-18
1.68756e-18
5.17221e-19
-1.87227e-19
2.73074e-16
0
-1.12574e-16
8.74266e-17
1.07707e-17
-8.44644e-17
1.50843e-16
-1.35559e-16
5.3491e-17
-2.34216e-17
2.39741e-17
4.79011e-18
8.40412e-18
3.45023e-18
-2.9221e-18
-3.63288e-19
-3.66768e-18
0
3.82941e-19
2.21362e-16
-2.49168e-16
0
2.35573e-17
1.03863e-16
-1.02018e-16
1.78253e-17
1.60347e-17
7.02886e-18
1.26937e-17
0
0
-1.46393e-17
2.77907e-17
-1.02133e-17
-3.69811e-18
4.04881e-18
3.26725e-19
-7.31637e-19
1.71861e-17
2.18864e-16
-2.5861e-17
-1.80456e-16
1.58313e-16
1.93488e-17
-1.74453e-17
-1.56611e-17
5.30237e-17
-6.57864e-17
4.07703e-17
-4.16691e-17
6.78253e-18
-8.34321e-18
1.57951e-17
-1.04857e-17
0
0
7.89177e-19
0
5.53204e-17
-1.70214e-16
1.94263e-16
-1.62447e-16
1.6206e-16
0
5.92809e-17
-5.95526e-17
-4.63822e-17
6.92002e-17
0
2.98699e-17
-3.77111e-17
-5.61222e-18
0
-6.55695e-19
-1.37203e-18
1.36091e-20
-5.18573e-16
2.49403e-16
0
-1.76616e-16
1.76598e-16
1.12457e-16
-7.40285e-17
3.17309e-17
0
-1.48893e-18
1.18148e-17
-1.07972e-17
-1.67654e-17
2.61439e-17
-2.77996e-17
0
6.43698e-18
-1.56901e-18
-8.47195e-19
3.20887e-16
-3.17368e-16
0
4.5688e-17
4.24859e-17
-3.93723e-17
0
-3.32543e-17
-2.98469e-17
0
-7.79722e-19
0
1.91393e-17
0
0
9.48696e-18
3.60735e-17
-4.64046e-17
0
5.72509e-20
4.81517e-17
-4.54066e-17
3.88632e-17
-1.96664e-16
7.62907e-17
0
7.07901e-18
2.01734e-17
0
-2.17608e-17
6.67552e-17
-7.01301e-17
1.25355e-17
0
-1.02328e-18
0
0
0
5.1234e-20
0
4.1967e-17
0
-6.9281e-17
7.03824e-17
0
2.74079e-17
-2.28464e-17
8.47861e-17
-4.13019e-17
1.59213e-17
-2.65223e-17
2.63602e-17
-4.04983e-17
-6.59854e-18
0
-4.96599e-18
0
1.25799e-16
-2.12463e-16
0
-3.65062e-17
3.37442e-17
0
0
-5.04731e-17
0
-1.98032e-17
-3.36085e-17
-1.46331e-17
2.43167e-17
0
1.46557e-17
0
0
1.10482e-17
-1.24788e-17
0
1.8709e-16
-1.50136e-16
3.37964e-17
-3.12473e-17
-1.35406e-17
3.96554e-17
4.64473e-17
-5.98716e-17
1.94419e-17
6.04238e-19
-2.06078e-17
8.56139e-17
-2.67891e-17
-6.69226e-17
2.37486e-17
-6.68723e-18
3.95422e-18
-1.30998e-18
-2.95447e-16
1.10127e-16
0
0
1.36896e-17
-1.39207e-17
1.10783e-17
8.26294e-18
5.48608e-17
2.978e-17
-3.02422e-17
-5.18189e-19
-1.90156e-17
1.5563e-17
0
8.74916e-18
6.12933e-18
3.55688e-18
1.18404e-18
0
9.72052e-17
-9.27722e-17
3.01939e-17
3.30764e-17
-6.46767e-18
-2.21657e-17
-1.97953e-17
-6.92855e-17
2.96956e-17
-2.03579e-17
2.62341e-17
1.77819e-17
-2.42379e-17
2.57271e-17
1.80759e-17
-2.29081e-17
-3.28531e-18
0
-1.65962e-17
-7.67641e-17
2.8271e-17
2.72338e-17
-9.81822e-17
7.16143e-17
3.87677e-17
-3.96266e-17
3.26277e-17
-2.81826e-17
0
0
-2.85338e-17
5.22816e-17
-2.3725e-17
2.41249e-17
-2.62332e-17
4.58903e-18
-8.17312e-18
3.14643e-17
3.00677e-17
-2.82318e-17
2.38643e-17
-2.67297e-17
-4.42564e-17
0
0
0
0
0
0
1.4906e-17
-4.17687e-17
4.4175e-17
-1.55571e-17
1.9128e-17
9.40113e-18
-8.01712e-18
6.46124e-17
-1.15638e-16
1.45057e-16
-7.33761e-17
1.00797e-16
-8.10423e-17
1.54649e-16
-9.0351e-17
-5.41328e-17
5.53754e-17
0
1.76562e-17
-1.45624e-17
3.88134e-17
-1.18219e-17
-1.68548e-17
-3.83929e-17
2.77886e-18
6.89208e-18
1.00232e-16
3.0023e-17
0
-5.01643e-17
-4.23905e-17
9.93926e-17
1.25744e-17
-4.47383e-17
2.74843e-17
-2.13645e-17
0
-1.39768e-17
0
-1.27883e-17
1.06963e-17
-1.00405e-17
-3.37688e-18
2.46813e-18
0
1.40442e-16
-3.17376e-17
1.40234e-16
-1.10193e-16
-2.35661e-17
9.93711e-17
-5.95116e-17
2.41897e-18
2.03424e-18
-2.11757e-17
2.06363e-17
0
0
1.52261e-17
-6.03883e-18
4.11899e-18
1.21843e-17
-4.22908e-18
0
2.40758e-20
0
-3.06359e-17
1.88652e-16
-1.2908e-16
-1.48452e-16
8.19922e-17
-9.48166e-17
8.95837e-17
4.80017e-17
-3.88411e-17
1.64993e-17
-1.51403e-17
2.32048e-18
2.76463e-17
1.44757e-18
-1.13533e-17
1.12194e-17
-2.25955e-18
3.4544e-16
-1.11013e-16
5.91021e-17
-1.80202e-16
5.20527e-17
-8.69581e-17
4.5648e-17
0
0
-1.71208e-18
-2.24341e-18
-6.5518e-19
0
-2.33604e-17
-1.84692e-17
1.39818e-17
-1.0331e-18
1.60707e-18
4.35868e-18
0
-1.12254e-16
1.98256e-16
4.98853e-17
-1.69757e-16
4.84471e-17
-7.97737e-17
9.87078e-18
6.83706e-17
0
0
1.32253e-18
1.77179e-17
0
-1.70307e-17
-8.10265e-18
1.18572e-18
-4.45557e-18
-4.86395e-18
0
-7.28053e-17
1.17234e-17
1.34238e-16
1.08793e-16
-2.03243e-16
9.45645e-17
-7.27364e-17
3.81865e-17
-5.80389e-17
0
0
0
-2.91983e-17
9.03483e-18
-1.02127e-17
0
-6.44945e-19
3.26136e-18
-2.61682e-16
2.501e-16
2.82517e-16
-3.44181e-16
1.71802e-16
-1.63616e-16
0
7.59128e-17
-1.05869e-16
6.39597e-17
-5.25732e-17
4.48478e-17
3.78476e-17
3.01975e-17
2.44266e-17
0
0
0
0
2.85238e-16
-1.6988e-16
0
0
-6.15961e-17
1.58522e-16
-1.02159e-16
-7.96086e-17
7.87112e-17
6.33245e-17
1.10297e-16
-4.65339e-17
1.95334e-17
1.55571e-17
1.19669e-17
9.45577e-18
1.55791e-17
-7.72901e-19
7.87269e-19
-2.91077e-16
2.71689e-16
1.5283e-16
-7.83606e-17
1.85896e-16
-1.2004e-16
-1.00737e-16
-8.87622e-17
0
-1.30796e-16
4.82861e-18
5.08915e-17
-4.20752e-17
-3.51009e-17
-1.29571e-17
-1.41536e-17
-1.12372e-17
0
0
-1.00122e-16
0
8.18484e-17
-1.99233e-19
0
0
1.03913e-16
9.15901e-17
0
7.00334e-17
0
-7.73198e-17
-2.16242e-17
3.90185e-17
0
2.52523e-17
-3.59686e-18
3.66928e-18
0
2.10883e-16
0
1.59856e-16
-3.01369e-16
2.75787e-16
2.35056e-16
-5.56292e-18
0
5.26494e-18
7.83528e-17
0
-8.33466e-17
9.62636e-17
-8.58674e-17
-1.88191e-17
-2.04315e-17
-5.83775e-18
-1.01165e-18
-3.39503e-18
-2.00491e-16
2.90002e-16
-8.5128e-17
-2.29802e-16
-1.37588e-16
-1.23314e-16
-2.20232e-16
-9.30718e-17
5.50078e-18
3.63156e-17
-3.62474e-17
1.19438e-16
-5.26189e-17
1.0805e-16
-2.02482e-17
0
2.20268e-17
-1.26977e-17
3.4763e-18
4.33691e-16
-7.4182e-18
-3.49564e-16
3.03194e-16
-2.78857e-16
2.51337e-16
-5.93427e-18
-1.01629e-16
9.11869e-17
3.7947e-17
-4.30368e-18
-9.57241e-17
2.85901e-17
2.76556e-17
-8.81715e-18
8.91772e-18
-2.28144e-17
-1.57259e-18
-4.88363e-18
2.12904e-16
9.33835e-17
1.6894e-16
-1.53066e-16
-1.32494e-16
5.30463e-18
-1.0826e-16
2.63801e-16
6.66234e-18
1.27813e-16
7.57999e-17
-6.76048e-17
0
-4.91345e-17
0
0
2.9258e-17
1.31621e-17
5.72998e-18
2.02091e-16
0
1.66902e-16
1.52078e-16
-1.38888e-16
1.25754e-16
0
-1.03631e-16
-1.45258e-16
-1.29884e-16
-7.64708e-17
6.83693e-17
0
0
0
0
-2.74e-17
-1.92016e-17
0
-3.96026e-16
0
-6.27769e-18
-5.56484e-18
2.10094e-16
-1.23137e-16
-5.73587e-17
-5.74723e-17
1.45384e-16
0
3.87511e-17
-4.21574e-18
3.33462e-17
0
0
4.32039e-17
-3.1931e-18
2.30396e-17
-8.31222e-18
2.79798e-16
8.34285e-17
-8.25673e-17
-7.53371e-17
-2.70333e-16
1.89743e-16
2.33594e-16
-4.29954e-18
-9.80127e-17
9.50492e-17
2.02466e-17
-1.01308e-16
-8.44812e-17
-4.8907e-17
-5.14336e-17
-4.97599e-17
3.95163e-17
-1.87947e-18
8.51346e-18
-8.67587e-17
4.03023e-17
-1.9563e-16
3.47971e-17
-3.46705e-17
0
-1.15241e-16
-5.6496e-18
-1.06307e-16
6.48435e-18
1.03736e-16
7.84066e-17
-1.8825e-17
9.92793e-18
4.90293e-17
0
-8.11302e-17
-2.90936e-17
-6.08135e-19
1.74049e-16
-4.89337e-18
3.07136e-16
-1.48466e-16
2.41558e-19
4.06179e-18
1.22867e-16
-7.14214e-18
1.031e-16
-9.65848e-17
-9.05682e-17
0
8.67222e-17
7.05021e-17
9.51422e-19
-1.37857e-18
4.33791e-17
2.95755e-17
0
-1.24159e-16
0
-3.23818e-17
1.40961e-16
1.64093e-18
3.28842e-17
-1.18811e-16
1.12909e-16
1.1664e-16
1.11481e-16
1.06688e-16
0
-8.4249e-17
0
4.32067e-18
-4.4874e-18
0
-4.19008e-19
2.04516e-17
8.47071e-17
3.48263e-18
-7.07934e-17
2.16383e-16
-7.00226e-17
0
0
-1.28101e-16
-1.13013e-16
-1.08e-16
-1.92967e-16
-2.68953e-17
0
0
0
-8.64941e-18
9.15324e-18
5.79566e-17
-2.07606e-17
3.56242e-18
0
-1.48884e-16
-1.38753e-16
1.43726e-16
-1.42402e-16
-2.05009e-16
2.54558e-16
6.90122e-17
0
1.12518e-16
1.24823e-16
-2.69505e-17
1.45459e-16
-2.37529e-17
2.4721e-17
9.53665e-17
-5.50727e-17
0
-1.62263e-16
0
-1.56475e-16
1.53786e-16
0
2.82236e-16
1.33429e-16
-2.77448e-16
2.19252e-16
-1.59033e-18
-6.68135e-17
-1.20855e-16
0
1.63229e-16
-2.74661e-16
2.94417e-16
-3.7511e-16
0
0
1.61339e-16
-8.22372e-19
-2.02857e-18
-3.08351e-16
3.10203e-16
-1.50619e-16
1.50005e-16
1.47797e-16
-1.32743e-16
0
0
2.44511e-16
-2.48723e-16
-2.67212e-16
2.64492e-16
-2.57364e-16
2.78124e-16
-4.35436e-16
0
)
;

boundaryField
{
    up
    {
        type            calculated;
        value           nonuniform List<scalar> 
84
(
0
0
0
0
-1.49948e-17
2.7164e-17
-1.13924e-17
8.51345e-18
-7.41099e-18
0
-6.43399e-18
6.14668e-18
-4.61643e-18
2.51463e-19
2.13443e-19
3.6457e-18
0
0
-2.60513e-18
1.92064e-18
2.08547e-18
-2.02497e-18
1.95752e-19
0
8.4862e-19
3.49288e-19
-7.85688e-18
0
1.00512e-17
1.15105e-17
1.45325e-18
-2.47715e-18
9.53541e-19
0
-4.65126e-19
7.99494e-19
-7.18296e-19
1.13619e-18
0
-1.90009e-19
0
0
-9.67662e-20
1.93771e-19
-1.87227e-19
3.82941e-19
-7.31637e-19
7.89177e-19
1.36091e-20
-8.47195e-19
0
0
0
-1.24788e-17
-1.67098e-18
1.18404e-18
0
-8.17312e-18
-8.01712e-18
6.04652e-18
0
0
-2.25955e-18
4.35868e-18
-4.86395e-18
3.26136e-18
0
7.87269e-19
0
0
-3.39503e-18
3.4763e-18
-4.88363e-18
5.72998e-18
0
-8.31222e-18
8.51346e-18
-6.08135e-19
0
2.04516e-17
-2.07606e-17
0
0
0
)
;
    }
    low
    {
        type            calculated;
        value           nonuniform List<scalar> 
84
(
-3.22928e-16
3.23277e-16
-1.59294e-16
2.49601e-16
4.35735e-17
-1.13217e-17
9.46194e-17
7.83159e-18
0
4.05124e-16
-1.02714e-16
8.93234e-17
-9.65032e-17
-6.12015e-16
1.00035e-16
0
-9.31958e-17
5.85327e-18
-5.57084e-18
-7.64062e-17
3.8457e-17
1.04353e-16
1.74135e-16
-1.57619e-16
0
-3.05565e-17
-1.57042e-17
0
-1.43873e-16
-4.03517e-17
-1.34906e-16
-1.45965e-16
1.57921e-16
5.45513e-17
3.74206e-16
2.99699e-17
0
2.51995e-16
2.42441e-16
1.37725e-16
-7.31214e-17
3.00559e-17
3.00569e-17
0
1.19712e-16
2.73486e-16
2.21362e-16
1.74264e-17
0
-5.1853e-16
3.20887e-16
5.72509e-20
5.1234e-20
1.25799e-16
0
-2.94923e-16
0
-1.65962e-17
3.14643e-17
6.43135e-17
9.97011e-17
1.39941e-16
2.40758e-20
3.45007e-16
0
0
-2.61682e-16
2.84986e-16
-2.9089e-16
-1.00122e-16
2.10835e-16
-2.00491e-16
4.34144e-16
2.13248e-16
2.02091e-16
-3.96026e-16
2.79386e-16
-8.63265e-17
1.74049e-16
-1.23985e-16
8.47071e-17
3.87486e-18
-1.62263e-16
1.61426e-16
)
;
    }
    left
    {
        type            calculated;
        value           nonuniform List<scalar> 
19
(
-3.22754e-16
-1.57697e-16
1.59356e-16
2.76268e-18
-3.0565e-16
0
-1.43887e-16
-1.41858e-16
-8.84112e-18
-7.41753e-17
-7.49661e-19
-7.36022e-17
3.25944e-16
-7.25972e-17
3.39609e-16
2.92748e-16
1.74043e-16
2.55067e-16
0
)
;
    }
    right
    {
        type            calculated;
        value           nonuniform List<scalar> 
19
(
1.61339e-16
-7.24342e-19
-2.02857e-18
-3.08348e-16
3.1027e-16
-1.50619e-16
1.50005e-16
1.47797e-16
-1.32302e-16
0
0
2.46855e-16
-2.52032e-16
-2.67212e-16
2.64492e-16
-2.57364e-16
2.78124e-16
-4.70917e-16
0
)
;
    }
    frontAndBackPlanes
    {
        type            empty;
    }
}


// ************************************************************************* //
