/*--------------------------------*- C++ -*----------------------------------*\
  =========                 |
  \\      /  F ield         | OpenFOAM: The Open Source CFD Toolbox
   \\    /   O peration     | Website:  https://openfoam.org
    \\  /    A nd           | Version:  7
     \\/     M anipulation  |
\*---------------------------------------------------------------------------*/
FoamFile
{
    version     2.0;
    format      ascii;
    class       volScalarField;
    location    "0.459";
    object      gradTy;
}
// * * * * * * * * * * * * * * * * * * * * * * * * * * * * * * * * * * * * * //

dimensions      [0 -1 0 1 0 0 0];

internalField   nonuniform List<scalar> 
1596
(
-0.26626
-0.498486
-0.697048
-0.898865
-1.10657
-1.34616
-1.61019
-1.92934
-2.31838
-2.78831
-3.42568
-4.23409
-5.33727
-6.8862
-9.26085
-12.9341
-19.46
-31.4719
-74.3494
-0.812789
-1.01337
-1.16696
-1.32564
-1.49612
-1.70509
-1.94518
-2.24292
-2.61076
-3.0519
-3.63636
-4.35921
-5.30224
-6.53447
-8.24992
-10.551
-13.9549
-18.9494
-33.1247
-1.45617
-1.5386
-1.61364
-1.71389
-1.8375
-2.00595
-2.20931
-2.46934
-2.79412
-3.18142
-3.68669
-4.29675
-5.06683
-6.02914
-7.30056
-8.90104
-11.1107
-14.138
-20.6485
-2.13075
-2.04974
-2.02684
-2.05829
-2.12795
-2.24852
-2.40685
-2.61934
-2.89
-3.21309
-3.63194
-4.12899
-4.7418
-5.48376
-6.42792
-7.56287
-9.05204
-10.985
-14.3119
-2.75211
-2.51646
-2.39602
-2.35658
-2.36977
-2.43903
-2.54867
-2.70975
-2.92316
-3.18127
-3.51752
-3.91337
-4.39464
-4.96541
-5.67297
-6.49607
-7.53587
-8.82854
-10.7246
-3.2437
-2.9098
-2.71215
-2.60919
-2.56877
-2.58747
-2.64879
-2.75903
-2.91701
-3.11449
-3.37677
-3.68655
-4.0616
-4.50156
-5.03777
-5.64795
-6.39722
-7.29732
-8.48408
-3.5637
-3.20753
-2.96727
-2.81694
-2.73118
-2.70405
-2.72053
-2.78342
-2.89044
-3.03364
-3.23175
-3.46978
-3.75983
-4.09956
-4.50991
-4.97083
-5.52506
-6.17337
-6.9711
-3.71132
-3.39652
-3.1525
-2.97714
-2.85904
-2.79439
-2.77208
-2.793
-2.85482
-2.95057
-3.09377
-3.27218
-3.49385
-3.75574
-4.07172
-4.42492
-4.8435
-5.3236
-5.88828
-3.71827
-3.49199
-3.27822
-3.10057
-2.96458
-2.87216
-2.81797
-2.8028
-2.82516
-2.87958
-2.97575
-3.10412
-3.2699
-3.46991
-3.71317
-3.98576
-4.30602
-4.6683
-5.08178
-3.61203
-3.48071
-3.31974
-3.162
-3.02522
-2.91809
-2.84165
-2.79826
-2.78814
-2.80766
-2.86415
-2.95053
-3.07027
-3.22043
-3.40689
-3.61826
-3.86647
-4.14537
-4.4577
-3.47954
-3.41671
-3.30945
-3.18256
-3.05719
-2.94628
-2.85637
-2.79212
-2.7559
-2.74625
-2.76925
-2.82007
-2.90124
-3.01026
-3.15096
-3.314
-3.50699
-3.72384
-3.9641
-3.31695
-3.32408
-3.26944
-3.17771
-3.07088
-2.96397
-2.86749
-2.78839
-2.73134
-2.69711
-2.6914
-2.71147
-2.75947
-2.83352
-2.93618
-3.05977
-3.209
-3.3781
-3.56514
-3.11856
-3.18748
-3.18421
-3.1308
-3.04845
-2.95297
-2.85718
-2.77003
-2.69823
-2.64465
-2.61535
-2.60948
-2.62939
-2.67399
-2.74529
-2.83698
-2.95203
-3.08504
-3.23326
-2.9397
-3.0441
-3.08174
-3.06394
-3.00748
-2.92723
-2.83675
-2.74635
-2.66437
-2.5955
-2.54657
-2.5184
-2.51394
-2.53298
-2.57749
-2.64231
-2.72942
-2.83378
-2.95228
-2.77295
-2.90477
-2.9741
-2.98699
-2.95531
-2.89174
-2.80935
-2.71909
-2.6304
-2.54945
-2.48399
-2.43635
-2.41031
-2.40665
-2.42768
-2.46927
-2.53296
-2.6141
-2.70944
-2.61022
-2.7671
-2.86301
-2.90235
-2.89354
-2.84693
-2.77436
-2.68679
-2.59424
-2.50397
-2.42466
-2.35996
-2.31462
-2.29049
-2.29054
-2.31167
-2.35542
-2.41751
-2.4947
-2.4625
-2.63548
-2.75269
-2.81455
-2.82628
-2.79598
-2.73397
-2.65075
-2.55648
-2.45913
-2.36815
-2.28832
-2.2254
-2.18237
-2.1631
-2.16562
-2.19183
-2.23791
-2.30062
-2.33274
-2.51566
-2.6493
-2.73
-2.7598
-2.7446
-2.69309
-2.61501
-2.52036
-2.41747
-2.31638
-2.22279
-2.14337
-2.08222
-2.04429
-2.0289
-2.03876
-2.0707
-2.12152
-2.20543
-2.40658
-2.55676
-2.65459
-2.70085
-2.69966
-2.65831
-2.58562
-2.49128
-2.38376
-2.27345
-2.16678
-2.07121
-1.99182
-1.93474
-1.90072
-1.89386
-1.91207
-1.95251
-2.07787
-2.29925
-2.46728
-2.58201
-2.64405
-2.65646
-2.62535
-2.55871
-2.46571
-2.3548
-2.23655
-2.11787
-2.0068
-1.90918
-1.83216
-1.77796
-1.75278
-1.75652
-1.78751
-1.96984
-2.20338
-2.38751
-2.51845
-2.59555
-2.62104
-2.59999
-2.53962
-2.44857
-2.33507
-2.20978
-2.07986
-1.95372
-1.83758
-1.73921
-1.66186
-1.61418
-1.59959
-1.61986
-1.87619
-2.12083
-2.31955
-2.46588
-2.55756
-2.59579
-2.58475
-2.53094
-2.44241
-2.3271
-2.19559
-2.05519
-1.91454
-1.77991
-1.659
-1.55482
-1.47764
-1.43546
-1.43871
-1.79269
-2.05067
-2.26401
-2.42532
-2.5312
-2.58196
-2.58098
-2.53412
-2.4488
-2.3325
-2.19565
-2.04562
-1.89129
-1.73893
-1.5956
-1.46229
-1.34734
-1.25948
-1.22454
-1.72142
-1.99386
-2.22133
-2.39579
-2.51332
-2.57349
-2.57948
-2.53639
-2.45117
-2.3311
-2.18546
-2.02274
-1.85206
-1.68034
-1.51392
-1.35201
-1.19554
-1.04058
-0.888228
-1.66679
-1.95325
-2.19678
-2.38847
-2.52479
-2.6046
-2.63108
-2.60806
-2.54139
-2.43772
-2.30357
-2.14804
-1.97936
-1.80629
-1.63524
-1.46765
-1.29929
-1.11901
-0.904033
-1.63265
-1.92795
-2.17924
-2.37942
-2.52541
-2.61613
-2.65467
-2.6443
-2.58984
-2.49698
-2.36968
-2.21636
-2.04468
-1.86477
-1.68539
-1.51382
-1.34996
-1.19135
-1.02797
-1.6408
-1.94064
-2.1965
-2.40227
-2.55521
-2.65511
-2.70496
-2.70823
-2.66902
-2.59161
-2.47833
-2.3348
-2.16717
-1.98544
-1.80075
-1.62382
-1.45908
-1.30722
-1.16149
-1.69668
-1.99623
-2.25154
-2.45746
-2.61188
-2.71577
-2.77247
-2.78601
-2.76024
-2.69838
-2.60113
-2.47091
-2.31095
-2.12948
-1.93877
-1.75298
-1.58158
-1.42868
-1.28946
-1.79746
-2.09462
-2.3446
-2.5454
-2.69615
-2.79923
-2.85865
-2.87922
-2.86494
-2.81852
-2.73937
-2.62674
-2.47978
-2.30277
-2.10675
-1.90867
-1.72404
-1.56236
-1.42133
-1.94302
-2.23075
-2.46966
-2.66017
-2.80255
-2.90055
-2.95907
-2.98382
-2.97924
-2.94821
-2.88947
-2.79999
-2.67432
-2.51053
-2.31452
-2.10318
-1.89816
-1.71808
-1.56622
-2.13411
-2.40426
-2.62754
-2.80353
-2.9336
-3.02292
-3.07744
-3.10365
-3.10669
-3.0902
-3.05321
-2.99215
-2.89804
-2.76175
-2.5791
-2.36042
-2.1287
-1.91551
-1.73797
-2.35063
-2.60596
-2.81109
-2.96883
-3.08301
-3.16043
-3.2081
-3.23309
-3.24118
-3.23718
-3.2214
-3.19214
-3.14007
-3.05136
-2.90925
-2.70861
-2.4583
-2.19476
-1.96238
-2.60578
-2.84056
-3.02175
-3.15618
-3.25031
-3.31237
-3.35005
-3.3706
-3.38003
-3.3842
-3.38498
-3.38456
-3.37771
-3.35329
-3.28821
-3.16201
-2.94971
-2.65678
-2.3006
-2.9109
-3.11533
-3.26597
-3.37282
-3.44457
-3.49045
-3.51816
-3.53466
-3.5457
-3.55746
-3.57339
-3.5991
-3.63648
-3.68547
-3.73393
-3.76874
-3.75209
-3.65717
-3.45662
-3.26138
-3.42578
-3.53468
-3.60355
-3.64294
-3.66242
-3.66847
-3.66713
-3.66286
-3.65978
-3.66139
-3.67146
-3.694
-3.73422
-3.79541
-3.88528
-3.99938
-4.12999
-4.26145
-3.66716
-3.77158
-3.82739
-3.85225
-3.85628
-3.8482
-3.83274
-3.81496
-3.79811
-3.78445
-3.77763
-3.77869
-3.79051
-3.81514
-3.85615
-3.91646
-4.00323
-4.12244
-4.28429
-4.12314
-4.14704
-4.14321
-4.12351
-4.09453
-4.06232
-4.02965
-4.00006
-3.97552
-3.9571
-3.9475
-3.94614
-3.95415
-3.97087
-3.99626
-4.02634
-4.06065
-4.09416
-4.12459
-4.56029
-4.49982
-4.4348
-4.3694
-4.30608
-4.24766
-4.19504
-4.14979
-4.11256
-4.08332
-4.06318
-4.0509
-4.04626
-4.04786
-4.05483
-4.06411
-4.07538
-4.08616
-4.09578
-4.93495
-4.80587
-4.68833
-4.5828
-4.48899
-4.4071
-4.33639
-4.27675
-4.2277
-4.18839
-4.15881
-4.13752
-4.12374
-4.11605
-4.1135
-4.11393
-4.11691
-4.12078
-4.12489
-5.24274
-5.05556
-4.89393
-4.75491
-4.63575
-4.53437
-4.44862
-4.37699
-4.31813
-4.2706
-4.23363
-4.20577
-4.18591
-4.17269
-4.16508
-4.16143
-4.16104
-4.16259
-4.16531
-5.46858
-5.23639
-5.0408
-4.87658
-4.73874
-4.62323
-4.5267
-4.44658
-4.38087
-4.32776
-4.28597
-4.25408
-4.23077
-4.21471
-4.20473
-4.1994
-4.19765
-4.19823
-4.20012
-5.60813
-5.33761
-5.11904
-4.93983
-4.79166
-4.66863
-4.56649
-4.48201
-4.41285
-4.35697
-4.31287
-4.27915
-4.2544
-4.23736
-4.22685
-4.2216
-4.22046
-4.22226
-4.22587
-5.60816
-5.33767
-5.11911
-4.93991
-4.79173
-4.6687
-4.56656
-4.48209
-4.41292
-4.35704
-4.31293
-4.27921
-4.25446
-4.23742
-4.2269
-4.22166
-4.22052
-4.22231
-4.22592
-5.46864
-5.23652
-5.04097
-4.87676
-4.73893
-4.62343
-4.52689
-4.44677
-4.38106
-4.32794
-4.28615
-4.25426
-4.23094
-4.21488
-4.2049
-4.19958
-4.19784
-4.19843
-4.20035
-5.24284
-5.05576
-4.89419
-4.75521
-4.63606
-4.53469
-4.44893
-4.3773
-4.31844
-4.2709
-4.23392
-4.20606
-4.18619
-4.17296
-4.16535
-4.1617
-4.16131
-4.16287
-4.16561
-4.93507
-4.80612
-4.68866
-4.58317
-4.48938
-4.40751
-4.3368
-4.27716
-4.2281
-4.18878
-4.15918
-4.13787
-4.12407
-4.11636
-4.11378
-4.11419
-4.11714
-4.12099
-4.12508
-4.56043
-4.5001
-4.43517
-4.36982
-4.30653
-4.24814
-4.19552
-4.15027
-4.11303
-4.08379
-4.06363
-4.05132
-4.04665
-4.04821
-4.05512
-4.06435
-4.07556
-4.08628
-4.09584
-4.12329
-4.14733
-4.1436
-4.12397
-4.09503
-4.06284
-4.03019
-4.0006
-3.97606
-3.95764
-3.94801
-3.94662
-3.95458
-3.97122
-3.99649
-4.02643
-4.06056
-4.09389
-4.12413
-3.66732
-3.7719
-3.82785
-3.85283
-3.85695
-3.84896
-3.83358
-3.81589
-3.79912
-3.78554
-3.77882
-3.77998
-3.7919
-3.81662
-3.85768
-3.91789
-4.00431
-4.12275
-4.28321
-3.26148
-3.42586
-3.53475
-3.60362
-3.64299
-3.66242
-3.66841
-3.66698
-3.6626
-3.65936
-3.66076
-3.67055
-3.69271
-3.73244
-3.79308
-3.88242
-3.9964
-4.12777
-4.26144
-2.91096
-3.11548
-3.2662
-3.37314
-3.44499
-3.49098
-3.51879
-3.5354
-3.54655
-3.55843
-3.57449
-3.60038
-3.638
-3.68743
-3.73664
-3.77269
-3.7579
-3.66537
-3.46752
-2.60582
-2.84059
-3.02181
-3.15628
-3.25046
-3.31257
-3.35031
-3.37091
-3.3804
-3.38464
-3.38551
-3.38523
-3.37863
-3.35461
-3.29012
-3.16463
-2.95289
-2.66003
-2.30295
-2.35066
-2.60598
-2.81113
-2.9689
-3.08314
-3.16062
-3.20836
-3.23343
-3.24159
-3.2377
-3.22205
-3.19299
-3.14121
-3.05287
-2.91115
-2.71079
-2.46049
-2.19665
-1.96388
-2.13413
-2.40427
-2.62755
-2.80357
-2.9337
-3.02308
-3.07767
-3.10396
-3.10709
-3.09072
-3.0539
-2.99304
-2.89918
-2.76315
-2.58069
-2.36205
-2.13021
-1.9168
-1.73906
-1.94304
-2.23074
-2.46965
-2.66019
-2.80262
-2.90068
-2.95927
-2.9841
-2.97963
-2.94873
-2.89014
-2.80084
-2.67536
-2.51173
-2.31579
-2.10442
-1.89928
-1.71908
-1.56712
-1.79747
-2.0946
-2.34457
-2.54539
-2.69619
-2.79933
-2.85882
-2.87947
-2.8653
-2.81901
-2.73999
-2.62752
-2.4807
-2.30377
-2.10777
-1.90965
-1.72494
-1.56319
-1.42214
-1.69669
-1.99621
-2.25151
-2.45744
-2.6119
-2.71584
-2.77261
-2.78624
-2.76057
-2.69882
-2.6017
-2.47159
-2.31173
-2.1303
-1.9396
-1.75377
-1.58233
-1.42942
-1.29024
-1.64082
-1.94061
-2.19647
-2.40225
-2.55522
-2.65517
-2.70508
-2.70843
-2.66932
-2.59201
-2.47883
-2.3354
-2.16782
-1.98613
-1.80143
-1.62448
-1.45974
-1.30792
-1.1623
-1.63266
-1.92793
-2.17919
-2.37936
-2.52537
-2.61612
-2.6547
-2.64438
-2.58998
-2.49718
-2.36994
-2.21667
-2.04501
-1.86509
-1.68569
-1.51411
-1.35029
-1.19181
-1.02878
-1.66685
-1.9533
-2.19684
-2.38855
-2.5249
-2.60475
-2.63128
-2.60833
-2.54173
-2.43814
-2.30406
-2.1486
-1.97997
-1.80693
-1.6359
-1.46833
-1.29997
-1.11966
-0.904623
-1.72149
-1.99393
-2.22139
-2.39584
-2.51336
-2.57351
-2.57947
-2.53634
-2.45109
-2.33098
-2.18531
-2.02255
-1.85184
-1.68009
-1.51362
-1.35167
-1.19514
-1.04013
-0.887733
-1.79275
-2.05072
-2.26406
-2.42538
-2.53125
-2.58201
-2.58101
-2.53414
-2.44882
-2.33251
-2.19565
-2.0456
-1.89127
-1.7389
-1.59557
-1.46226
-1.34732
-1.25948
-1.22457
-1.87624
-2.12087
-2.31959
-2.46591
-2.55759
-2.59581
-2.58476
-2.53094
-2.44241
-2.32709
-2.19557
-2.05516
-1.91451
-1.77988
-1.65896
-1.55479
-1.47762
-1.43545
-1.43872
-1.96988
-2.20342
-2.38755
-2.51848
-2.59558
-2.62106
-2.6
-2.53962
-2.44856
-2.33506
-2.20976
-2.07984
-1.95369
-1.83756
-1.73919
-1.66184
-1.61417
-1.59958
-1.61986
-2.0779
-2.29928
-2.46731
-2.58204
-2.64407
-2.65648
-2.62536
-2.55871
-2.46571
-2.35479
-2.23654
-2.11786
-2.00678
-1.90916
-1.83214
-1.77795
-1.75277
-1.75652
-1.7875
-2.20546
-2.4066
-2.55679
-2.65461
-2.70087
-2.69968
-2.65831
-2.58562
-2.49127
-2.38375
-2.27344
-2.16677
-2.0712
-1.99181
-1.93473
-1.90071
-1.89385
-1.91206
-1.9525
-2.33277
-2.51568
-2.64932
-2.73001
-2.75982
-2.74461
-2.6931
-2.61501
-2.52035
-2.41746
-2.31637
-2.22278
-2.14336
-2.08221
-2.04428
-2.02889
-2.03876
-2.07069
-2.12151
-2.46252
-2.6355
-2.7527
-2.81456
-2.82628
-2.79599
-2.73398
-2.65075
-2.55648
-2.45912
-2.36815
-2.28832
-2.2254
-2.18237
-2.1631
-2.16561
-2.19182
-2.2379
-2.30061
-2.61023
-2.76711
-2.86302
-2.90236
-2.89355
-2.84693
-2.77436
-2.68679
-2.59424
-2.50397
-2.42466
-2.35996
-2.31461
-2.29049
-2.29053
-2.31167
-2.35541
-2.41751
-2.49469
-2.77295
-2.90478
-2.97411
-2.987
-2.95531
-2.89174
-2.80935
-2.7191
-2.6304
-2.54945
-2.48399
-2.43635
-2.41031
-2.40665
-2.42768
-2.46927
-2.53295
-2.61409
-2.70944
-2.93971
-3.04411
-3.08174
-3.06394
-3.00748
-2.92723
-2.83675
-2.74635
-2.66437
-2.5955
-2.54657
-2.5184
-2.51394
-2.53298
-2.57749
-2.64231
-2.72941
-2.83378
-2.95228
-3.11856
-3.18748
-3.18421
-3.1308
-3.04845
-2.95297
-2.85718
-2.77003
-2.69823
-2.64465
-2.61535
-2.60948
-2.62939
-2.67399
-2.74529
-2.83698
-2.95203
-3.08504
-3.23326
-3.31695
-3.32408
-3.26944
-3.17771
-3.07088
-2.96397
-2.86749
-2.78839
-2.73134
-2.69711
-2.6914
-2.71147
-2.75947
-2.83352
-2.93618
-3.05977
-3.209
-3.3781
-3.56514
-3.47954
-3.41671
-3.30945
-3.18256
-3.05719
-2.94628
-2.85637
-2.79212
-2.7559
-2.74625
-2.76925
-2.82007
-2.90124
-3.01026
-3.15096
-3.314
-3.50699
-3.72384
-3.9641
-3.61203
-3.48071
-3.31975
-3.162
-3.02522
-2.91809
-2.84165
-2.79826
-2.78814
-2.80766
-2.86415
-2.95053
-3.07027
-3.22043
-3.40689
-3.61826
-3.86647
-4.14538
-4.4577
-3.71828
-3.492
-3.27822
-3.10058
-2.96458
-2.87216
-2.81797
-2.8028
-2.82516
-2.87957
-2.97575
-3.10412
-3.2699
-3.46991
-3.71317
-3.98576
-4.30603
-4.6683
-5.08179
-3.71133
-3.39653
-3.1525
-2.97714
-2.85904
-2.79439
-2.77208
-2.793
-2.85482
-2.95057
-3.09377
-3.27218
-3.49385
-3.75573
-4.07172
-4.42492
-4.8435
-5.3236
-5.88828
-3.56371
-3.20754
-2.96728
-2.81694
-2.73118
-2.70405
-2.72053
-2.78342
-2.89044
-3.03364
-3.23175
-3.46978
-3.75982
-4.09955
-4.5099
-4.97083
-5.52506
-6.17337
-6.97111
-3.24371
-2.90981
-2.71216
-2.60919
-2.56877
-2.58747
-2.64879
-2.75903
-2.91701
-3.11449
-3.37677
-3.68655
-4.06159
-4.50155
-5.03777
-5.64795
-6.39721
-7.29732
-8.48409
-2.75212
-2.51647
-2.39603
-2.35659
-2.36977
-2.43903
-2.54867
-2.70975
-2.92316
-3.18127
-3.51752
-3.91336
-4.39463
-4.9654
-5.67297
-6.49606
-7.53587
-8.82854
-10.7246
-2.13076
-2.04975
-2.02685
-2.0583
-2.12795
-2.24853
-2.40686
-2.61934
-2.89001
-3.21309
-3.63194
-4.12899
-4.74179
-5.48376
-6.42792
-7.56286
-9.05203
-10.985
-14.3119
-1.45617
-1.5386
-1.61365
-1.71389
-1.8375
-2.00595
-2.20931
-2.46934
-2.79412
-3.18142
-3.68669
-4.29675
-5.06682
-6.02913
-7.30056
-8.90104
-11.1107
-14.138
-20.6485
-0.812788
-1.01337
-1.16696
-1.32564
-1.49613
-1.70509
-1.94518
-2.24292
-2.61076
-3.0519
-3.63636
-4.35921
-5.30224
-6.53447
-8.24992
-10.551
-13.9549
-18.9494
-33.1247
-0.266258
-0.498484
-0.697047
-0.898864
-1.10657
-1.34616
-1.61019
-1.92934
-2.31838
-2.78831
-3.42568
-4.23409
-5.33727
-6.88621
-9.26085
-12.9341
-19.46
-31.4719
-74.3494
)
;

boundaryField
{
    up
    {
        type            calculated;
        value           nonuniform List<scalar> 
84
(
-67.3732
-36.4885
-22.4095
-15.3294
-11.3669
-8.91823
-7.27965
-6.11596
-5.25384
-4.59116
-4.06905
-3.64859
-3.30088
-3.00762
-2.75518
-2.53293
-2.33292
-2.1491
-1.97627
-1.80837
-1.63821
-1.45271
-1.21756
-0.801643
-0.781032
-0.979224
-1.11907
-1.24811
-1.37845
-1.51911
-1.68065
-1.87538
-2.16598
-3.47026
-4.4205
-4.37863
-4.13159
-4.09716
-4.12521
-4.16597
-4.20096
-4.22802
-4.22807
-4.2012
-4.16627
-4.1254
-4.09721
-4.13107
-4.37644
-4.42058
-3.48321
-2.16812
-1.87669
-1.68169
-1.52
-1.37926
-1.2489
-1.11992
-0.9804
-0.781863
-0.801149
-1.21761
-1.45272
-1.63821
-1.80836
-1.97626
-2.14909
-2.33291
-2.53292
-2.75517
-3.00762
-3.30088
-3.64859
-4.06905
-4.59117
-5.25385
-6.11597
-7.27966
-8.91824
-11.3669
-15.3294
-22.4095
-36.4885
-67.3732
)
;
    }
    low
    {
        type            calculated;
        value           nonuniform List<scalar> 
84
(
-0.284997
-0.846606
-1.53056
-2.25743
-2.92869
-3.45397
-3.78176
-3.91397
-3.87838
-3.71706
-3.55482
-3.36352
-3.12679
-2.92667
-2.74783
-2.5693
-2.4083
-2.2752
-2.14078
-1.99609
-1.87534
-1.7723
-1.67694
-1.5943
-1.51864
-1.47529
-1.48433
-1.55356
-1.67165
-1.84
-2.0512
-2.28087
-2.55293
-2.87956
-3.24888
-3.6817
-4.17758
-4.64315
-5.03771
-5.36317
-5.60337
-5.7601
-5.76012
-5.60341
-5.36322
-5.03778
-4.64323
-4.17767
-3.68179
-3.24889
-2.87962
-2.55293
-2.28088
-2.05121
-1.84002
-1.67167
-1.55358
-1.48436
-1.47533
-1.51869
-1.59438
-1.67698
-1.77234
-1.87538
-1.99612
-2.14081
-2.27522
-2.40831
-2.56931
-2.74783
-2.92668
-3.12679
-3.36352
-3.55482
-3.71707
-3.87838
-3.91398
-3.78177
-3.45398
-2.9287
-2.25744
-1.53056
-0.846603
-0.284995
)
;
    }
    left
    {
        type            calculated;
        value           nonuniform List<scalar> 
19
(
-0.261082
-0.488889
-0.690862
-0.898563
-1.11389
-1.36232
-1.63727
-1.97119
-2.37964
-2.87881
-3.55971
-4.43048
-5.63187
-7.34473
-9.99576
-14.1643
-21.6603
-35.6249
-69.8837
)
;
    }
    right
    {
        type            calculated;
        value           nonuniform List<scalar> 
19
(
-0.26108
-0.488886
-0.690861
-0.898562
-1.11389
-1.36232
-1.63727
-1.97119
-2.37964
-2.87881
-3.55971
-4.43049
-5.63187
-7.34473
-9.99576
-14.1643
-21.6603
-35.6249
-69.8837
)
;
    }
    frontAndBackPlanes
    {
        type            empty;
    }
}


// ************************************************************************* //
