/*--------------------------------*- C++ -*----------------------------------*\
  =========                 |
  \\      /  F ield         | OpenFOAM: The Open Source CFD Toolbox
   \\    /   O peration     | Website:  https://openfoam.org
    \\  /    A nd           | Version:  7
     \\/     M anipulation  |
\*---------------------------------------------------------------------------*/
FoamFile
{
    version     2.0;
    format      ascii;
    class       volScalarField;
    location    "0.053";
    object      gradTx;
}
// * * * * * * * * * * * * * * * * * * * * * * * * * * * * * * * * * * * * * //

dimensions      [0 -1 0 1 0 0 0];

internalField   nonuniform List<scalar> 
1596
(
-0.135744
-0.678586
-1.18484
-1.58916
-1.88212
-2.06911
-2.17836
-2.23108
-2.24673
-2.24636
-2.23184
-2.21954
-2.22721
-2.28285
-2.42128
-2.7172
-3.27207
-4.28474
-6.1512
0.0443729
-0.524043
-1.00906
-1.38767
-1.66358
-1.8439
-1.95306
-2.00772
-2.02627
-2.02399
-2.00365
-1.97518
-1.94024
-1.90417
-1.86883
-1.83976
-1.80316
-1.71992
-1.48753
0.196375
-0.349247
-0.785147
-1.11923
-1.36348
-1.52673
-1.62852
-1.68246
-1.70399
-1.70493
-1.68871
-1.66164
-1.62073
-1.56348
-1.48418
-1.37797
-1.23113
-1.02034
-0.688432
0.234619
-0.211788
-0.563528
-0.834337
-1.03515
-1.17346
-1.26277
-1.31343
-1.33729
-1.34325
-1.33538
-1.31787
-1.28729
-1.23868
-1.16414
-1.05464
-0.89771
-0.679252
-0.369265
0.132765
-0.153586
-0.393693
-0.586834
-0.73548
-0.842588
-0.915014
-0.959257
-0.983239
-0.993082
-0.992962
-0.985727
-0.968958
-0.937844
-0.884882
-0.799661
-0.670396
-0.485942
-0.229044
-0.0810647
-0.18972
-0.306993
-0.414764
-0.50548
-0.576206
-0.627471
-0.661518
-0.6823
-0.693145
-0.697571
-0.697409
-0.691388
-0.675835
-0.644824
-0.588482
-0.495893
-0.356248
-0.156752
-0.350582
-0.306998
-0.308504
-0.331065
-0.361427
-0.391924
-0.418105
-0.438105
-0.452117
-0.46073
-0.466058
-0.468955
-0.468851
-0.463312
-0.44825
-0.415508
-0.355702
-0.258268
-0.111585
-0.61759
-0.468439
-0.37611
-0.322541
-0.295202
-0.284631
-0.28352
-0.286717
-0.291202
-0.295041
-0.298497
-0.301374
-0.303233
-0.30253
-0.29673
-0.279816
-0.24444
-0.181135
-0.0790328
-0.883301
-0.676057
-0.512506
-0.390763
-0.305868
-0.250683
-0.21765
-0.199571
-0.190798
-0.18697
-0.186143
-0.186807
-0.188048
-0.188661
-0.187095
-0.179284
-0.159967
-0.121491
-0.054291
-1.04016
-0.826566
-0.630604
-0.467032
-0.341121
-0.250892
-0.190867
-0.153617
-0.132167
-0.120541
-0.114988
-0.112833
-0.112485
-0.112718
-0.11246
-0.109116
-0.0992269
-0.0772393
-0.0355724
-1.17182
-0.962817
-0.751513
-0.55968
-0.401169
-0.280226
-0.194832
-0.138577
-0.104003
-0.0839822
-0.0732212
-0.0679031
-0.0656192
-0.0648285
-0.0645355
-0.06306
-0.0582481
-0.0464078
-0.0220735
-1.31309
-1.11233
-0.891208
-0.676099
-0.487585
-0.336298
-0.224464
-0.147601
-0.0983561
-0.0687049
-0.0519405
-0.0430251
-0.0385893
-0.0365452
-0.0356811
-0.0347453
-0.0323839
-0.0263054
-0.0129034
-1.36918
-1.19384
-0.98003
-0.758552
-0.554842
-0.384788
-0.254637
-0.162397
-0.101591
-0.0640144
-0.0421766
-0.0301834
-0.0239199
-0.020802
-0.0193379
-0.0184214
-0.0171245
-0.0140782
-0.00709169
-1.40536
-1.25324
-1.05006
-0.827293
-0.613772
-0.429791
-0.285143
-0.180266
-0.109706
-0.0653053
-0.0390602
-0.0243952
-0.0165785
-0.0125787
-0.0106169
-0.00957267
-0.00869769
-0.0071512
-0.00367228
-1.43672
-1.3031
-1.10931
-0.886353
-0.665283
-0.470022
-0.313394
-0.197982
-0.119261
-0.0691375
-0.0392132
-0.0223383
-0.0132653
-0.00857952
-0.00624673
-0.00506644
-0.00433893
-0.00348973
-0.0018016
-1.44162
-1.32827
-1.14542
-0.925078
-0.700302
-0.497965
-0.333347
-0.21077
-0.126476
-0.0724567
-0.0400543
-0.0217119
-0.0118239
-0.00670929
-0.00415687
-0.00289221
-0.00221719
-0.00167958
-0.000850014
-1.4148
-1.32249
-1.15278
-0.938351
-0.714163
-0.509512
-0.341546
-0.215827
-0.129111
-0.0734504
-0.0400593
-0.0211673
-0.0109986
-0.00575264
-0.00314327
-0.00186691
-0.00122867
-0.000834465
-0.000397652
-1.37469
-1.29704
-1.13929
-0.931804
-0.710605
-0.506866
-0.339078
-0.2135
-0.127066
-0.0717722
-0.0387481
-0.0201547
-0.0102016
-0.00509861
-0.0025781
-0.0013591
-0.000769664
-0.000453067
-0.000193986
-1.34691
-1.28102
-1.13043
-0.925652
-0.704543
-0.5003
-0.332546
-0.207744
-0.122523
-0.0684956
-0.0365442
-0.0187363
-0.00930295
-0.00451866
-0.00218228
-0.00106746
-0.000540821
-0.000278311
-0.00010449
-1.2581
-1.21411
-1.07944
-0.885805
-0.672737
-0.475053
-0.313219
-0.193746
-0.113004
-0.0624141
-0.0328714
-0.0166171
-0.00811827
-0.00386416
-0.00181416
-0.000849708
-0.000402464
-0.000188644
-6.3383e-05
-1.14303
-1.1194
-1.00322
-0.824747
-0.624313
-0.437663
-0.285637
-0.174532
-0.100421
-0.0546652
-0.0283597
-0.0141143
-0.00678308
-0.00317075
-0.001457
-0.000663369
-0.000301831
-0.000133817
-4.19055e-05
-1.00728
-0.999342
-0.902521
-0.743167
-0.560481
-0.389781
-0.251551
-0.15164
-0.0859467
-0.0460432
-0.0234947
-0.0114976
-0.00543131
-0.0024941
-0.00112446
-0.000500984
-0.000222089
-9.54402e-05
-2.88269e-05
-0.837212
-0.84025
-0.76514
-0.632014
-0.475791
-0.328909
-0.210326
-0.125327
-0.0700987
-0.0370183
-0.0186081
-0.00896754
-0.00417066
-0.00188513
-0.00083629
-0.000366552
-0.000160149
-6.8506e-05
-2.12979e-05
-0.624837
-0.609567
-0.540231
-0.434795
-0.319438
-0.215864
-0.135149
-0.0789169
-0.0432633
-0.0223778
-0.0110004
-0.00517221
-0.00233945
-0.00102421
-0.000437953
-0.000184399
-7.81229e-05
-3.40635e-05
-1.22824e-05
-0.419707
-0.448041
-0.433551
-0.377084
-0.296116
-0.211852
-0.139462
-0.0852519
-0.0488491
-0.0264401
-0.0136317
-0.00675589
-0.00323939
-0.00151396
-0.000695641
-0.000318086
-0.000148628
-7.6063e-05
-4.63073e-05
-0.1388
-0.146875
-0.1479
-0.137909
-0.117902
-0.0924104
-0.0667004
-0.0445887
-0.0278333
-0.0163418
-0.0090959
-0.00485125
-0.00249603
-0.00124917
-0.000612603
-0.000297538
-0.00014668
-7.98928e-05
-5.51171e-05
0.146309
0.138096
0.11098
0.0742008
0.0390801
0.0130651
-0.00195657
-0.00808183
-0.00882977
-0.00719381
-0.00502289
-0.00319076
-0.00189537
-0.00107525
-0.000589601
-0.000315797
-0.000168106
-9.64126e-05
-6.83119e-05
0.42402
0.411113
0.359156
0.281307
0.197411
0.1241
0.0697371
0.0347086
0.0148904
0.00505591
0.000888957
-0.000532066
-0.000797789
-0.000679071
-0.000481815
-0.000310216
-0.000186061
-0.000112959
-8.04318e-05
0.66112
0.637316
0.563482
0.454921
0.335245
0.225923
0.139676
0.0794179
0.0415763
0.0199723
0.00873085
0.00334616
0.000990697
6.45479e-05
-0.000226925
-0.00026103
-0.000200086
-0.000132246
-9.11771e-05
0.886413
0.844087
0.746453
0.610461
0.461412
0.322852
0.209844
0.127149
0.0721127
0.038381
0.0192354
0.00903073
0.00389296
0.00142666
0.000321807
-0.000113215
-0.000207264
-0.000166784
-0.000106615
1.0319
0.971995
0.859347
0.710145
0.548138
0.395651
0.26788
0.170709
0.102854
0.058819
0.0321102
0.0167466
0.00828565
0.00375592
0.00141005
0.000252839
-0.000193554
-0.000257158
-0.000161244
1.14832
1.07409
0.948773
0.790075
0.620201
0.459433
0.322049
0.214277
0.135931
0.0825584
0.0483187
0.0273354
0.0149175
0.00768853
0.00353115
0.0011463
-5.25194e-05
-0.000464253
-0.000396
1.23786
1.14608
1.00987
0.846105
0.674175
0.511333
0.370038
0.256195
0.170415
0.109357
0.0681505
0.0414332
0.0246057
0.0141053
0.0075481
0.00331381
0.000721867
-0.000620205
-0.000850303
1.26993
1.15571
1.00767
0.840964
0.671578
0.513163
0.375572
0.263529
0.177651
0.11523
0.0721211
0.0435596
0.02523
0.0136
0.00616293
0.00106828
-0.00252447
-0.0050304
-0.0063166
1.26592
1.14553
1.00289
0.849107
0.69494
0.549674
0.420473
0.311331
0.22358
0.156049
0.106209
0.07072
0.0461258
0.0293622
0.0179684
0.00989186
0.00377108
-0.00137287
-0.00599424
1.24907
1.12671
0.99085
0.84788
0.705141
0.569736
0.447487
0.342002
0.254871
0.185615
0.132533
0.093141
0.064571
0.0442033
0.0298179
0.019545
0.0119967
0.00613301
0.00115846
1.13976
1.00328
0.864789
0.727621
0.596705
0.476796
0.371441
0.28242
0.21003
0.153096
0.109719
0.0775816
0.0541818
0.0373277
0.0252097
0.0163502
0.00967819
0.00448403
0.000272368
0.970942
0.851498
0.732449
0.616264
0.506529
0.406623
0.318997
0.244807
0.184153
0.136048
0.0989935
0.0711695
0.0505855
0.0354836
0.0243969
0.0161025
0.00969928
0.00458648
0.000336303
0.787332
0.690048
0.592901
0.49867
0.41027
0.330192
0.26013
0.200807
0.152191
0.113449
0.0834082
0.0606514
0.0436304
0.0309738
0.0215352
0.0143452
0.00868914
0.00409486
0.000223052
0.582125
0.50866
0.436253
0.366772
0.302073
0.24372
0.192751
0.149571
0.114095
0.0857007
0.0635545
0.0466529
0.0338955
0.0243055
0.0170655
0.011476
0.00702259
0.00336837
0.000269162
0.362135
0.313511
0.267528
0.224371
0.184664
0.149088
0.118115
0.0919041
0.0703584
0.0530795
0.0395614
0.0292
0.0213346
0.015379
0.0108432
0.00730492
0.00445482
0.00209304
7.49313e-05
0.137806
0.117685
0.099607
0.0830248
0.0679566
0.0545714
0.0430023
0.0332778
0.0253361
0.019008
0.014088
0.0103394
0.00751008
0.00537807
0.0037594
0.00249706
0.00147626
0.000622899
-0.00011563
-0.13774
-0.117534
-0.0993988
-0.082786
-0.0677088
-0.054331
-0.0427809
-0.033082
-0.0251688
-0.018869
-0.0139751
-0.0102495
-0.00743965
-0.00532392
-0.0037188
-0.00246796
-0.00145723
-0.000612991
0.000116942
-0.362072
-0.313374
-0.267343
-0.22416
-0.184447
-0.148879
-0.117925
-0.0917371
-0.0702171
-0.0529633
-0.0394681
-0.0291265
-0.0212778
-0.015336
-0.0108116
-0.00728308
-0.00444155
-0.00208755
-7.67798e-05
-0.582059
-0.508523
-0.43607
-0.366564
-0.301859
-0.243516
-0.192567
-0.149411
-0.113961
-0.0855922
-0.0634685
-0.046586
-0.0338442
-0.0242668
-0.0170368
-0.0114554
-0.00700855
-0.00335992
-0.000265586
-0.787277
-0.689942
-0.592762
-0.498516
-0.410118
-0.330051
-0.260008
-0.200706
-0.152112
-0.113389
-0.0833632
-0.0606188
-0.0436073
-0.0309578
-0.0215245
-0.0143384
-0.00868556
-0.00409382
-0.000224097
-0.9709
-0.851415
-0.732342
-0.616147
-0.506416
-0.406525
-0.318918
-0.244748
-0.184113
-0.136022
-0.0989792
-0.0711627
-0.0505833
-0.035484
-0.0243987
-0.0161048
-0.0097016
-0.00458836
-0.000337194
-1.13974
-1.00323
-0.864722
-0.727551
-0.596645
-0.476754
-0.37142
-0.282418
-0.210042
-0.153117
-0.109743
-0.0776062
-0.054204
-0.0373465
-0.0252249
-0.0163619
-0.00968651
-0.00448896
-0.000273983
-1.24904
-1.12657
-0.990598
-0.84755
-0.704773
-0.569368
-0.447149
-0.34171
-0.254633
-0.185427
-0.13239
-0.0930336
-0.0644911
-0.0441434
-0.0297714
-0.0195074
-0.0119651
-0.00610826
-0.00114543
-1.2661
-1.14604
-1.00371
-0.850181
-0.696179
-0.550975
-0.42174
-0.31249
-0.224582
-0.156877
-0.106866
-0.0712254
-0.0465059
-0.0296453
-0.0181806
-0.0100565
-0.00390518
0.00126079
0.00590785
-1.26982
-1.15546
-1.00732
-0.840583
-0.671213
-0.51284
-0.375297
-0.263298
-0.177456
-0.115064
-0.0719792
-0.0434384
-0.025127
-0.0135128
-0.00608842
-0.00100277
0.0025878
0.00510465
0.00642138
-1.23792
-1.14623
-1.01013
-0.846459
-0.674596
-0.511777
-0.370461
-0.256565
-0.170716
-0.109587
-0.0683197
-0.0415537
-0.0246903
-0.0141642
-0.00758809
-0.00333788
-0.000731276
0.000622692
0.000859224
-1.14835
-1.07418
-0.948953
-0.790342
-0.62053
-0.459782
-0.322377
-0.214556
-0.13615
-0.0827204
-0.0484335
-0.0274149
-0.0149725
-0.0077267
-0.0035568
-0.00116047
4.93146e-05
0.000467167
0.000394701
-1.03194
-0.972097
-0.85954
-0.710426
-0.548472
-0.395992
-0.268188
-0.170959
-0.103041
-0.0589509
-0.0321995
-0.0168062
-0.00832555
-0.00378282
-0.00142754
-0.000262185
0.000191343
0.000258571
0.000158592
-0.886451
-0.844201
-0.746664
-0.610754
-0.461746
-0.323177
-0.210123
-0.127364
-0.0722653
-0.0384828
-0.0193007
-0.00907203
-0.00391915
-0.00144323
-0.000331695
0.000108499
0.000206322
0.000167368
0.000104735
-0.661158
-0.637438
-0.563697
-0.455205
-0.335551
-0.226205
-0.139905
-0.0795844
-0.0416878
-0.0200425
-0.00877322
-0.00337126
-0.00100545
-7.29751e-05
0.00022264
0.000259557
0.000200186
0.000132627
9.01709e-05
-0.42407
-0.411257
-0.359389
-0.28159
-0.197693
-0.12434
-0.0699175
-0.0348307
-0.0149663
-0.00510003
-0.000913421
0.000518974
0.000791057
0.000675959
0.000480843
0.000310433
0.000186658
0.000113333
8.0041e-05
-0.146357
-0.138245
-0.111207
-0.0744554
-0.0393123
-0.0132458
0.00183303
0.00800612
0.00878753
0.0071722
0.0050127
0.00318649
0.00189401
0.00107532
0.000590317
0.000316692
0.000168822
9.67845e-05
6.82708e-05
0.13868
0.146535
0.147423
0.137416
0.117484
0.0921062
0.0665043
0.0444745
0.0277724
0.016312
0.00908246
0.0048459
0.00249439
0.0012491
0.000613104
0.000298109
0.000147082
8.00826e-05
5.51657e-05
0.419771
0.448267
0.433909
0.377494
0.296497
0.212156
0.139677
0.0853894
0.0489306
0.0264856
0.0136563
0.00676888
0.00324627
0.00151766
0.000697667
0.000319198
0.00014922
7.63706e-05
4.64567e-05
0.624737
0.609263
0.539796
0.434333
0.319029
0.215549
0.13493
0.0787766
0.0431799
0.0223314
0.010976
0.00516
0.00233363
0.00102156
0.000436803
0.000183909
7.79033e-05
3.39583e-05
1.22463e-05
0.837251
0.840326
0.765235
0.632106
0.475866
0.328963
0.21036
0.125347
0.07011
0.0370244
0.0186112
0.0089691
0.00417143
0.00188551
0.000836466
0.000366629
0.000160178
6.85168e-05
2.13052e-05
1.00728
0.999342
0.902515
0.743158
0.560471
0.389774
0.251548
0.151639
0.0859481
0.046045
0.0234963
0.0114986
0.00543197
0.00249446
0.00112465
0.000501079
0.000222136
9.54653e-05
2.88346e-05
1.14303
1.1194
1.00322
0.82474
0.624305
0.437656
0.285634
0.174531
0.100421
0.0546667
0.028361
0.0141153
0.00678367
0.00317108
0.00145718
0.000663464
0.000301892
0.000133857
4.19142e-05
1.2581
1.21411
1.07944
0.885801
0.672732
0.475048
0.313216
0.193745
0.113004
0.0624148
0.0328724
0.0166179
0.00811883
0.00386452
0.00181437
0.000849852
0.000402585
0.000188738
6.34074e-05
1.34691
1.28103
1.13043
0.925654
0.704541
0.500297
0.332543
0.207741
0.122522
0.0684958
0.0365448
0.018737
0.00930351
0.00451906
0.00218257
0.00106771
0.000541085
0.000278536
0.000104551
1.37469
1.29704
1.1393
0.931807
0.710604
0.506863
0.339074
0.213497
0.127065
0.071772
0.0387485
0.0201553
0.0102022
0.0050991
0.00257853
0.00135959
0.000770242
0.000453567
0.000194115
1.4148
1.32249
1.15278
0.938354
0.714163
0.509509
0.341543
0.215824
0.12911
0.0734501
0.0400597
0.021168
0.0109993
0.00575328
0.003144
0.00186788
0.00122988
0.000835484
0.000397888
1.44162
1.32827
1.14542
0.925083
0.700304
0.497964
0.333345
0.210768
0.126475
0.0724564
0.0400546
0.0217125
0.0118246
0.00671014
0.00415814
0.0028941
0.00221953
0.00168143
0.000850363
1.43672
1.3031
1.10932
0.886359
0.665286
0.470022
0.313393
0.19798
0.11926
0.069137
0.0392133
0.0223387
0.013266
0.00858083
0.00624905
0.00506993
0.00434297
0.00349263
0.00180196
1.40536
1.25324
1.05006
0.827299
0.613776
0.429793
0.285144
0.180266
0.109706
0.0653051
0.0390602
0.0243957
0.0165796
0.0125811
0.0106211
0.00957844
0.0087037
0.00715484
0.00367229
1.36918
1.19385
0.980037
0.758559
0.554849
0.384792
0.25464
0.162399
0.101592
0.0640146
0.0421768
0.0301843
0.023922
0.0208061
0.0193444
0.0184294
0.0171315
0.0140812
0.00709077
1.31308
1.11233
0.891211
0.676103
0.487589
0.336302
0.224465
0.147601
0.0983561
0.0687047
0.0519407
0.0430266
0.0385928
0.0365514
0.0356894
0.0347536
0.0323889
0.0263052
0.0129009
1.17182
0.962823
0.75152
0.559688
0.401176
0.280232
0.194836
0.138579
0.104004
0.0839828
0.0732224
0.067906
0.0656244
0.0648359
0.0645429
0.0630641
0.0582461
0.0464013
0.0220695
1.04017
0.826574
0.630609
0.467036
0.341125
0.250896
0.19087
0.153619
0.132169
0.120543
0.11499
0.112836
0.11249
0.112723
0.112461
0.109109
0.0992128
0.0772251
0.0355684
0.883312
0.676062
0.512508
0.390764
0.305871
0.250686
0.217652
0.199572
0.190798
0.186971
0.186145
0.18681
0.188049
0.188658
0.187084
0.179262
0.15994
0.121472
0.0542896
0.617599
0.468443
0.376111
0.322541
0.295203
0.284631
0.283519
0.286716
0.291201
0.29504
0.298496
0.301372
0.303226
0.302514
0.296703
0.279781
0.244408
0.181121
0.0790372
0.35059
0.307003
0.308506
0.331066
0.361428
0.391923
0.418102
0.438102
0.452114
0.460727
0.466053
0.468945
0.468834
0.463283
0.448213
0.415471
0.35568
0.258268
0.111595
0.0810701
0.189726
0.307
0.414769
0.50548
0.576204
0.627467
0.661513
0.682294
0.693138
0.69756
0.697391
0.691362
0.675802
0.644791
0.588462
0.495896
0.356267
0.156766
-0.132762
0.153595
0.393704
0.586841
0.735481
0.842585
0.915009
0.959251
0.983232
0.993072
0.992947
0.985706
0.968932
0.937819
0.88487
0.799672
0.670429
0.485976
0.229054
-0.234619
0.211797
0.563539
0.834343
1.03515
1.17345
1.26276
1.31343
1.33728
1.34324
1.33537
1.31786
1.28727
1.23867
1.16416
1.05468
0.897759
0.679282
0.369263
-0.196377
0.349251
0.785149
1.11923
1.36347
1.52673
1.62852
1.68246
1.70398
1.70492
1.6887
1.66163
1.62074
1.5635
1.48422
1.37802
1.23117
1.02034
0.688417
-0.0443719
0.524039
1.00905
1.38766
1.66357
1.8439
1.95305
2.00772
2.02627
2.02399
2.00365
1.97519
1.94027
1.9042
1.86887
1.83978
1.80316
1.7199
1.48751
0.135748
0.678581
1.18483
1.58915
1.88211
2.0691
2.17836
2.23108
2.24674
2.24637
2.23185
2.21955
2.22722
2.28286
2.42127
2.71717
3.27202
4.28471
6.15121
)
;

boundaryField
{
    up
    {
        type            calculated;
        value           nonuniform List<scalar> 
84
(
-6.1512
-1.48753
-0.688432
-0.369265
-0.229044
-0.156752
-0.111585
-0.0790328
-0.054291
-0.0355724
-0.0220735
-0.0129034
-0.00709169
-0.00367228
-0.0018016
-0.000850014
-0.000397652
-0.000193986
-0.00010449
-6.3383e-05
-4.19055e-05
-2.88269e-05
-2.12979e-05
-1.22824e-05
-3.53141e-05
-4.65625e-05
-5.9669e-05
-7.1208e-05
-7.77273e-05
-7.55154e-05
-6.75762e-05
-8.10955e-05
-3.35041e-05
-0.00533193
-0.00571968
0.00118773
0.000315927
0.000368442
0.000245934
0.000281822
8.22627e-05
-0.000112386
0.000113723
-8.40428e-05
-0.000278212
-0.000246865
-0.000369208
-0.000317424
-0.00117481
0.00564148
0.00545487
3.91695e-05
7.12485e-05
5.91286e-05
7.07171e-05
7.54758e-05
7.0356e-05
5.94831e-05
4.66167e-05
3.54134e-05
1.22463e-05
2.13052e-05
2.88346e-05
4.19142e-05
6.34074e-05
0.000104551
0.000194115
0.000397888
0.000850363
0.00180196
0.00367229
0.00709077
0.0129009
0.0220695
0.0355684
0.0542896
0.0790372
0.111595
0.156766
0.229054
0.369263
0.688417
1.48751
6.15121
)
;
    }
    low
    {
        type            calculated;
        value           nonuniform List<scalar> 
84
(
-0.121034
0.0676994
0.231581
0.270121
0.153435
-0.084607
-0.377793
-0.660997
-0.932716
-1.08243
-1.21241
-1.35161
-1.39691
-1.42792
-1.45733
-1.45666
-1.42444
-1.38414
-1.35282
-1.25329
-1.13062
-0.98963
-0.814703
-0.601255
-0.397443
-0.129958
0.135998
0.399672
0.633323
0.864561
1.02106
1.14506
1.24308
1.28408
1.28579
1.27582
1.1729
1.0021
0.813215
0.601724
0.3747
0.142929
-0.142863
-0.374635
-0.601654
-0.813153
-1.00205
-1.17287
-1.27578
-1.28594
-1.28396
-1.24311
-1.14508
-1.02108
-0.864595
-0.63336
-0.399722
-0.136046
0.129839
0.397502
0.601162
0.814734
0.989629
1.13062
1.25329
1.35282
1.38414
1.42444
1.45666
1.45732
1.42792
1.39691
1.35161
1.21241
1.08244
0.932726
0.661005
0.377801
0.0846128
-0.153432
-0.270123
-0.231588
-0.0677055
0.121035
)
;
    }
    left
    {
        type            calculated;
        value           nonuniform List<scalar> 
19
(
-0.12499
-0.665072
-1.19003
-1.61525
-1.92586
-2.12476
-2.24163
-2.29977
-2.31853
-2.32292
-2.31401
-2.30906
-2.33187
-2.41876
-2.61208
-3.0121
-3.75636
-5.11946
-5.33043
)
;
    }
    right
    {
        type            calculated;
        value           nonuniform List<scalar> 
19
(
0.124994
0.665074
1.19003
1.61524
1.92585
2.12476
2.24162
2.29977
2.31853
2.32293
2.31402
2.30907
2.33188
2.41875
2.61205
3.01204
3.75631
5.11944
5.33046
)
;
    }
    frontAndBackPlanes
    {
        type            empty;
    }
}


// ************************************************************************* //
