/*--------------------------------*- C++ -*----------------------------------*\
  =========                 |
  \\      /  F ield         | OpenFOAM: The Open Source CFD Toolbox
   \\    /   O peration     | Website:  https://openfoam.org
    \\  /    A nd           | Version:  7
     \\/     M anipulation  |
\*---------------------------------------------------------------------------*/
FoamFile
{
    version     2.0;
    format      ascii;
    class       volScalarField;
    location    "0.069";
    object      T;
}
// * * * * * * * * * * * * * * * * * * * * * * * * * * * * * * * * * * * * * //

dimensions      [0 0 0 1 0 0 0];

internalField   nonuniform List<scalar> 
1596
(
5.9583
5.84064
5.72594
5.62736
5.54962
5.49218
5.45231
5.42505
5.40699
5.39244
5.37815
5.3592
5.32518
5.2625
5.15155
4.95316
4.59969
3.95998
2.77235
5.82302
5.4636
5.1419
4.87446
4.66589
4.51203
4.4045
4.33161
4.28386
4.24955
4.2208
4.1881
4.13496
4.04114
3.88186
3.61645
3.18963
2.51544
1.43843
5.67277
5.0855
4.58411
4.17596
3.86015
3.62761
3.46472
3.35484
3.28387
3.23653
3.20219
3.16941
3.12105
3.03683
2.8931
2.65415
2.27697
1.70498
0.845258
5.53975
4.75945
4.11005
3.58752
3.18456
2.88754
2.67863
2.53767
2.44714
2.38952
2.35245
2.32382
2.28777
2.22632
2.11899
1.93586
1.64283
1.19971
0.547433
5.4471
4.52214
3.75754
3.14359
2.6691
2.31763
2.06856
1.89946
1.79034
1.72213
1.68118
1.65511
1.62976
1.58994
1.51873
1.39173
1.1814
0.856718
0.376232
5.40201
4.38479
3.53642
2.85053
2.31635
1.91713
1.63116
1.43484
1.30651
1.22595
1.17837
1.15106
1.13127
1.10631
1.06257
0.980622
0.838312
0.610503
0.265356
5.39619
4.33441
3.43092
2.69003
2.10585
1.6639
1.34316
1.11991
0.971507
0.876872
0.820113
0.787999
0.768658
0.751273
0.72496
0.674604
0.582746
0.428922
0.187487
5.41399
4.34434
3.41034
2.62976
2.00455
1.52473
1.17152
0.922054
0.753392
0.643827
0.576437
0.537315
0.514914
0.499598
0.482493
0.452014
0.394779
0.294523
0.130553
5.4444
4.39116
3.44546
2.63806
1.97998
1.46708
1.08403
0.80961
0.621197
0.496717
0.418336
0.371367
0.344151
0.327616
0.314183
0.294938
0.259873
0.196526
0.0886517
5.47218
4.44552
3.50131
2.67871
1.99667
1.45708
1.0486
0.75221
0.546062
0.408016
0.319534
0.265182
0.232944
0.213876
0.201114
0.187602
0.165927
0.126885
0.0582634
5.49026
4.4888
3.55304
2.72459
2.02754
1.46875
1.04069
0.726709
0.506053
0.356784
0.259926
0.199437
0.162876
0.141187
0.127819
0.116902
0.102876
0.0791297
0.0368878
5.50747
4.52744
3.60071
2.77024
2.0633
1.49046
1.04737
0.719513
0.487284
0.329053
0.225568
0.160304
0.120386
0.0965319
0.0822416
0.072329
0.0624436
0.0478612
0.02251
5.52017
4.55626
3.63668
2.80556
2.09225
1.5098
1.05616
0.718481
0.478059
0.313548
0.205521
0.13708
0.0949951
0.0697456
0.0547766
0.0452632
0.0375906
0.0283059
0.0132941
5.52336
4.56672
3.65113
2.82011
2.10378
1.51645
1.05733
0.714554
0.469954
0.302353
0.19221
0.122392
0.0794397
0.0536786
0.0385049
0.0292969
0.0228776
0.0166013
0.00766778
5.52276
4.56469
3.64785
2.8154
2.0974
1.50841
1.04787
0.704092
0.458973
0.291272
0.181305
0.111791
0.0691657
0.0437061
0.0288172
0.0200251
0.0144266
0.00987393
0.00439574
5.52018
4.55396
3.63023
2.79347
2.07378
1.48518
1.02645
0.685246
0.44293
0.277899
0.170242
0.102579
0.0613552
0.0369122
0.0227485
0.0145472
0.0096095
0.00610431
0.00256651
5.51323
4.53224
3.59654
2.75282
2.0314
1.44526
0.991603
0.656586
0.420423
0.260828
0.157567
0.0932264
0.0543887
0.0315902
0.0185281
0.0110925
0.0067792
0.00398613
0.00156377
5.50329
4.5014
3.54886
2.69544
1.97199
1.39001
0.944311
0.618737
0.391742
0.240043
0.142998
0.0832248
0.0475738
0.0269065
0.0152233
0.00868261
0.00499285
0.00274608
0.0010074
5.49738
4.4723
3.49819
2.63112
1.90361
1.32572
0.889245
0.574997
0.359081
0.216883
0.127237
0.0728228
0.0408452
0.0225856
0.0124242
0.00683479
0.00375677
0.00196313
0.000682406
5.49383
4.44522
3.44612
2.56185
1.82825
1.25418
0.827961
0.526647
0.323424
0.192042
0.110712
0.0622245
0.0342331
0.0185316
0.00994945
0.00531792
0.0028251
0.00142206
0.000475946
5.48835
4.41519
3.38922
2.48586
1.74536
1.17564
0.76114
0.474524
0.285569
0.166164
0.0938785
0.0517052
0.0278662
0.014766
0.00774911
0.00403941
0.0020877
0.00102177
0.00033347
5.48472
4.38729
3.33322
2.40904
1.66044
1.09485
0.692581
0.421467
0.247513
0.140568
0.0775495
0.0417283
0.0219804
0.0113852
0.0058389
0.00297194
0.00149862
0.000716523
0.000229891
5.48523
4.36681
3.28488
2.33859
1.58029
1.01753
0.626692
0.370614
0.211325
0.116525
0.0624529
0.0326775
0.0167558
0.00845696
0.00422907
0.0020987
0.0010309
0.000480266
0.000151527
5.4897
4.35602
3.24894
2.28077
1.51141
0.949472
0.567981
0.325103
0.178982
0.0951621
0.0491674
0.0248131
0.0122863
0.00599684
0.00290343
0.00139336
0.000656873
0.00028724
8.02007e-05
5.50579
4.38311
3.27311
2.2952
1.51547
0.946105
0.561057
0.317685
0.172762
0.0906783
0.0462701
0.023095
0.0113376
0.00550395
0.00265963
0.00127549
0.000596188
0.00025015
5.97493e-05
5.52773
4.43772
3.34552
2.37005
1.58127
0.997095
0.596672
0.340455
0.186265
0.0982067
0.0502658
0.0251447
0.0123703
0.00602461
0.00292869
0.00142086
0.000677204
0.000292427
7.33288e-05
5.54163
4.48232
3.41382
2.44892
1.65736
1.06111
0.644839
0.373401
0.207002
0.11034
0.0569196
0.0285884
0.0140605
0.00681498
0.00328601
0.00158225
0.000753767
0.000329162
8.49594e-05
5.54745
4.51474
3.47425
2.52793
1.74109
1.1374
0.706526
0.418559
0.237346
0.129246
0.0679256
0.0346002
0.0171395
0.00828307
0.00393121
0.00184132
0.000850848
0.000363972
9.36546e-05
5.54935
4.54072
3.53109
2.60921
1.83326
1.22654
0.782855
0.477735
0.279517
0.157167
0.0852353
0.0446915
0.0226628
0.0110936
0.00523651
0.0023773
0.00103905
0.000417262
0.000101535
5.54835
4.56301
3.58644
2.6931
1.93278
1.32708
0.872948
0.551063
0.334582
0.195733
0.110632
0.0604905
0.0319359
0.0161799
0.00779221
0.00350971
0.00145894
0.000535067
0.000115383
5.54732
4.5871
3.64526
2.78263
2.0408
1.4391
0.976787
0.63904
0.403747
0.246714
0.146152
0.0839977
0.0467079
0.0249208
0.0125683
0.00582444
0.00239365
0.000814923
0.000150696
5.55262
4.62152
3.71512
2.88339
2.16093
1.56481
1.09589
0.743165
0.488855
0.312362
0.194308
0.117767
0.0693606
0.0393655
0.0211733
0.0104267
0.00445141
0.00147803
0.000234788
5.56037
4.66018
3.78963
2.98948
2.28812
1.70024
1.22761
0.862223
0.590088
0.394048
0.257335
0.164538
0.102817
0.0623642
0.0361809
0.0194184
0.009073
0.00320694
0.000422098
5.56929
4.70088
3.86646
3.0987
2.42046
1.84389
1.37104
0.996117
0.708318
0.493629
0.337946
0.227667
0.150838
0.0978859
0.0616169
0.0367155
0.0197588
0.00861852
0.00186012
5.57651
4.73513
3.93198
3.19349
2.53772
1.9743
1.50489
1.12497
0.825992
0.596415
0.424454
0.298274
0.206994
0.141553
0.0948045
0.0610818
0.0364403
0.0183039
0.00501776
5.57502
4.74394
3.95774
3.23778
2.59828
2.04652
1.58325
1.20415
0.901632
0.665413
0.485049
0.349813
0.249613
0.175883
0.121729
0.081449
0.0509172
0.0272275
0.00827576
5.56707
4.7348
3.95558
3.24618
2.61761
2.07514
1.61846
1.24292
0.941198
0.703494
0.52004
0.380723
0.275917
0.197408
0.138566
0.093817
0.0591545
0.0317998
0.00970724
5.56188
4.7299
3.95693
3.25635
2.6368
2.10199
1.65078
1.27826
0.977263
0.738357
0.552296
0.409464
0.300615
0.21784
0.154749
0.105887
0.0673503
0.0364642
0.0112249
5.56028
4.73023
3.96254
3.26873
2.65594
2.12683
1.67964
1.30928
1.00867
0.768647
0.580356
0.434549
0.322267
0.235839
0.169069
0.116609
0.0746512
0.0406283
0.0125881
5.55937
4.73102
3.96734
3.27862
2.6709
2.14609
1.70199
1.33333
1.0331
0.792321
0.602399
0.454357
0.339449
0.250182
0.180516
0.125194
0.0804977
0.0439595
0.0136804
5.55836
4.7306
3.96943
3.28414
2.67995
2.15822
1.7164
1.34909
1.04932
0.808188
0.617292
0.467831
0.351198
0.260025
0.188387
0.131096
0.0845044
0.0462302
0.0144216
5.55565
4.72703
3.96712
3.28395
2.68207
2.16241
1.72221
1.35599
1.05677
0.815724
0.624534
0.474497
0.357089
0.265011
0.192407
0.13413
0.0865764
0.047411
0.0148108
5.55567
4.72707
3.96717
3.28401
2.68214
2.16247
1.72228
1.35605
1.05682
0.815773
0.624576
0.474533
0.357119
0.265036
0.192427
0.134145
0.086587
0.0474173
0.014813
5.5584
4.73071
3.96958
3.28432
2.68015
2.15842
1.7166
1.34927
1.04948
0.808334
0.61742
0.467939
0.351289
0.2601
0.188447
0.131141
0.0845364
0.0462494
0.0144283
5.55944
4.73119
3.96759
3.27891
2.67122
2.14641
1.7023
1.33362
1.03337
0.792556
0.602602
0.454529
0.339592
0.250298
0.180609
0.125265
0.0805472
0.0439891
0.0136907
5.56037
4.73046
3.96287
3.26913
2.65637
2.12726
1.68007
1.30967
1.00902
0.768959
0.580624
0.434774
0.322454
0.23599
0.169188
0.116699
0.0747142
0.0406659
0.012601
5.56199
4.73019
3.95734
3.25685
2.63734
2.10254
1.65131
1.27875
0.977701
0.738738
0.55262
0.409734
0.300836
0.218018
0.154887
0.105991
0.0674225
0.036507
0.0112396
5.5672
4.73514
3.95607
3.24677
2.61825
2.07579
1.61908
1.24349
0.941704
0.70393
0.520406
0.381024
0.27616
0.197599
0.138714
0.0939258
0.059229
0.0318432
0.00972187
5.57517
4.74432
3.9583
3.23846
2.59902
2.04727
1.58396
1.2048
0.902204
0.665899
0.48545
0.350137
0.24987
0.176082
0.12188
0.0815584
0.0509909
0.0272703
0.00829046
5.5767
4.73569
3.93285
3.19458
2.53894
1.97555
1.5061
1.12608
0.826966
0.59724
0.425133
0.298819
0.207424
0.141889
0.0950638
0.0612802
0.0365871
0.0184001
0.00505518
5.56953
4.70154
3.86748
3.09996
2.42185
1.8453
1.37238
0.997322
0.709353
0.494485
0.338634
0.228207
0.151254
0.0982045
0.0618584
0.0368949
0.0198845
0.00869393
0.0018857
5.56057
4.66077
3.79055
2.99061
2.28935
1.70147
1.22874
0.863206
0.590903
0.394696
0.257834
0.164914
0.103095
0.0625681
0.0363278
0.0195194
0.00913472
0.00323553
0.000427156
5.55281
4.6221
3.71601
2.88448
2.1621
1.56595
1.09691
0.744026
0.489544
0.312889
0.194698
0.118049
0.0695607
0.0395057
0.0212692
0.0104879
0.00448457
0.00149007
0.000235485
5.5475
4.58765
3.64611
2.78366
2.04189
1.44014
0.977696
0.639783
0.404319
0.247135
0.146451
0.0842041
0.0468479
0.0250139
0.0126279
0.00585931
0.0024103
0.000819505
0.000150098
5.54851
4.56352
3.58724
2.69407
1.93378
1.32801
0.873743
0.551691
0.335048
0.196062
0.110856
0.0606379
0.0320307
0.0162392
0.00782723
0.00352804
0.00146631
0.000536274
0.000114618
5.5495
4.54119
3.53182
2.61009
1.83416
1.22736
0.783534
0.478254
0.279888
0.157419
0.0853987
0.0447939
0.022725
0.0111298
0.00525594
0.00238613
0.00104179
0.000417195
0.000100955
5.54757
4.51515
3.4749
2.52871
1.74187
1.1381
0.707088
0.418975
0.237633
0.129434
0.0680426
0.0346701
0.0171795
0.00830462
0.00394163
0.00184534
0.000851699
0.000363677
9.33364e-05
5.54174
4.48267
3.41438
2.44959
1.65802
1.06169
0.64529
0.373726
0.207221
0.110478
0.0570031
0.0286363
0.0140865
0.00682814
0.00329188
0.00158431
0.00075417
0.00032908
8.48721e-05
5.52782
4.43802
3.34598
2.37059
1.5818
0.997551
0.597026
0.340707
0.186432
0.0983101
0.0503266
0.0251788
0.0123884
0.00603354
0.00293269
0.00142243
0.000677761
0.000292647
7.34055e-05
5.5058
4.38318
3.27322
2.29534
1.51561
0.946229
0.561155
0.317756
0.172809
0.090708
0.0462874
0.0231044
0.0113423
0.00550596
0.0026603
0.00127559
0.000596121
0.000250051
5.96556e-05
5.48967
4.35594
3.24883
2.28064
1.51129
0.949369
0.5679
0.325043
0.178939
0.0951334
0.0491485
0.024801
0.0122786
0.00599209
0.00290053
0.00139165
0.000655906
0.000286713
7.99648e-05
5.48522
4.3668
3.28487
2.33859
1.58029
1.01754
0.626701
0.370621
0.21133
0.116527
0.0624528
0.0326766
0.0167547
0.00845594
0.00422827
0.00209815
0.00103056
0.000480067
0.000151433
5.48472
4.38728
3.33321
2.40903
1.66044
1.09485
0.692587
0.421472
0.247516
0.140569
0.0775496
0.0417279
0.0219798
0.0113846
0.00583846
0.00297164
0.00149844
0.000716424
0.000229844
5.48835
4.41518
3.38922
2.48586
1.74536
1.17564
0.761144
0.474526
0.285571
0.166165
0.0938791
0.0517054
0.0278662
0.0147659
0.00774902
0.00403935
0.0020877
0.00102179
0.000333461
5.49383
4.44522
3.44611
2.56185
1.82825
1.25418
0.827963
0.526648
0.323425
0.192043
0.110713
0.0622253
0.0342336
0.018532
0.00994971
0.00531815
0.00282533
0.00142225
0.000475993
5.49738
4.4723
3.49819
2.63112
1.90361
1.32572
0.889245
0.574997
0.359081
0.216884
0.127238
0.0728239
0.0408462
0.0225864
0.0124248
0.00683543
0.0037574
0.00196363
0.000682552
5.50329
4.5014
3.54886
2.69544
1.97199
1.39001
0.944309
0.618735
0.391742
0.240044
0.142999
0.0832261
0.0475751
0.0269077
0.0152245
0.00868391
0.00499418
0.00274712
0.00100772
5.51323
4.53224
3.59654
2.75282
2.0314
1.44526
0.9916
0.656584
0.420422
0.260829
0.157568
0.093228
0.0543905
0.0315921
0.0185303
0.0110949
0.00678173
0.00398809
0.00156434
5.52018
4.55396
3.63024
2.79347
2.07378
1.48517
1.02645
0.685243
0.442929
0.277899
0.170243
0.102581
0.0613576
0.0369151
0.0227521
0.0145515
0.00961393
0.00610762
0.00256739
5.52277
4.5647
3.64786
2.8154
2.0974
1.5084
1.04786
0.704089
0.458972
0.291272
0.181307
0.111793
0.0691691
0.0437107
0.0288231
0.0200321
0.0144337
0.00987891
0.00439687
5.52337
4.56673
3.65114
2.82012
2.10378
1.51645
1.05733
0.714551
0.469952
0.302353
0.192212
0.122396
0.0794449
0.0536859
0.0385143
0.0293077
0.0228878
0.0166079
0.00766887
5.52018
4.55626
3.63668
2.80556
2.09224
1.50979
1.05616
0.718478
0.478058
0.313549
0.205524
0.137085
0.095003
0.0697565
0.0547902
0.0452779
0.0376034
0.028313
0.0132945
5.50748
4.52745
3.60071
2.77024
2.0633
1.49046
1.04736
0.719511
0.487284
0.329055
0.225573
0.160311
0.120397
0.0965468
0.0822591
0.0723463
0.0624566
0.0478666
0.022509
5.49026
4.48881
3.55305
2.7246
2.02754
1.46875
1.04069
0.726708
0.506054
0.356788
0.259932
0.199448
0.16289
0.141206
0.127838
0.116918
0.102885
0.0791303
0.0368848
5.47218
4.44553
3.50132
2.67871
1.99667
1.45708
1.0486
0.75221
0.546065
0.408022
0.319543
0.265195
0.232961
0.213894
0.20113
0.18761
0.165926
0.126878
0.0582585
5.4444
4.39117
3.44546
2.63806
1.97998
1.46708
1.08403
0.809611
0.621201
0.496724
0.418346
0.37138
0.344166
0.327628
0.314188
0.294933
0.259859
0.19651
0.0886463
5.41399
4.34434
3.41033
2.62975
2.00455
1.52473
1.17152
0.922056
0.753396
0.643833
0.576446
0.537324
0.514921
0.499598
0.482482
0.451991
0.39475
0.294502
0.13055
5.39619
4.3344
3.43091
2.69003
2.10584
1.6639
1.34316
1.11991
0.97151
0.876876
0.820116
0.787999
0.768652
0.751255
0.72493
0.674566
0.58271
0.428902
0.187488
5.40201
4.38479
3.53642
2.85052
2.31635
1.91713
1.63116
1.43484
1.30651
1.22595
1.17837
1.15105
1.13125
1.10628
1.06253
0.980576
0.838278
0.610491
0.265361
5.4471
4.52214
3.75753
3.14359
2.6691
2.31763
2.06856
1.89946
1.79033
1.72212
1.68117
1.65509
1.62973
1.58989
1.51868
1.39169
1.18138
0.85672
0.376241
5.53975
4.75945
4.11005
3.58753
3.18456
2.88754
2.67862
2.53766
2.44713
2.38951
2.35243
2.32378
2.28773
2.22628
2.11895
1.93584
1.64283
1.19973
0.547443
5.67277
5.0855
4.58412
4.17597
3.86016
3.62761
3.46471
3.35483
3.28386
3.23652
3.20216
3.16938
3.12102
3.0368
2.89308
2.65415
2.27699
1.705
0.845263
5.82302
5.4636
5.14191
4.87447
4.66589
4.51203
4.4045
4.3316
4.28385
4.24954
4.22079
4.18809
4.13494
4.04113
3.88186
3.61646
3.18965
2.51545
1.43842
5.95829
5.84064
5.72594
5.62736
5.54962
5.49218
5.45231
5.42505
5.40699
5.39244
5.37815
5.35919
5.32518
5.26251
5.15156
4.95317
4.5997
3.95998
2.77235
)
;

boundaryField
{
    up
    {
        type            fixedValue;
        value           uniform 0;
    }
    low
    {
        type            fixedValue;
        value           uniform 6;
    }
    left
    {
        type            fixedValue;
        value           uniform 6;
    }
    right
    {
        type            fixedValue;
        value           uniform 6;
    }
    frontAndBackPlanes
    {
        type            empty;
    }
}


// ************************************************************************* //
