/*--------------------------------*- C++ -*----------------------------------*\
  =========                 |
  \\      /  F ield         | OpenFOAM: The Open Source CFD Toolbox
   \\    /   O peration     | Website:  https://openfoam.org
    \\  /    A nd           | Version:  7
     \\/     M anipulation  |
\*---------------------------------------------------------------------------*/
FoamFile
{
    version     2.0;
    format      ascii;
    class       volScalarField;
    location    "0.479";
    object      gradTx;
}
// * * * * * * * * * * * * * * * * * * * * * * * * * * * * * * * * * * * * * //

dimensions      [0 -1 0 1 0 0 0];

internalField   nonuniform List<scalar> 
1596
(
-0.2202
-1.11059
-2.00765
-2.84914
-3.64024
-4.38583
-5.11877
-5.85913
-6.63154
-7.48612
-8.43129
-9.52729
-10.8506
-12.5226
-14.6942
-17.7654
-22.3656
-29.8594
-43.0665
0.0498516
-0.921754
-1.79833
-2.58174
-3.29776
-3.955
-4.58225
-5.18866
-5.7917
-6.41487
-7.05402
-7.7377
-8.46961
-9.26004
-10.082
-10.8954
-11.5184
-11.5887
-10.3443
0.27168
-0.750413
-1.59351
-2.31269
-2.94934
-3.51806
-4.04296
-4.52944
-4.98831
-5.43037
-5.8472
-6.25071
-6.62685
-6.96141
-7.21457
-7.32388
-7.14065
-6.41162
-4.64928
0.307789
-0.659506
-1.4277
-2.06688
-2.61962
-3.10268
-3.53456
-3.91938
-4.26343
-4.57092
-4.83429
-5.05691
-5.22349
-5.31651
-5.30374
-5.13418
-4.70942
-3.87363
-2.33297
0.0940917
-0.689234
-1.3303
-1.86926
-2.33304
-2.73413
-3.08382
-3.38506
-3.6409
-3.85178
-4.01284
-4.12297
-4.17032
-4.14002
-4.01008
-3.74381
-3.2808
-2.52869
-1.31531
-0.350534
-0.853526
-1.32157
-1.74023
-2.10937
-2.43106
-2.70777
-2.94016
-3.12841
-3.27043
-3.3638
-3.40503
-3.38601
-3.29537
-3.11931
-2.83215
-2.39799
-1.76212
-0.824247
-0.94032
-1.13718
-1.40763
-1.69127
-1.96041
-2.20348
-2.41344
-2.5872
-2.72193
-2.81349
-2.86081
-2.85912
-2.80309
-2.68431
-2.49454
-2.21579
-1.82709
-1.29568
-0.562635
-1.55455
-1.48495
-1.56357
-1.71
-1.87821
-2.04413
-2.19209
-2.31435
-2.40497
-2.45792
-2.47232
-2.44275
-2.36562
-2.23469
-2.04525
-1.78469
-1.44093
-0.99416
-0.409497
-2.18495
-1.92788
-1.83746
-1.84807
-1.91104
-1.99516
-2.07854
-2.14873
-2.19666
-2.21438
-2.20012
-2.14801
-2.05523
-1.91693
-1.73048
-1.48694
-1.17944
-0.795834
-0.314972
-2.55367
-2.22791
-2.03753
-1.95064
-1.93066
-1.94727
-1.97688
-2.00404
-2.01748
-2.00789
-1.97228
-1.90474
-1.80272
-1.66248
-1.48266
-1.25714
-0.982268
-0.650894
-0.250131
-2.84631
-2.49325
-2.24442
-2.08715
-1.99924
-1.9561
-1.93603
-1.9226
-1.90335
-1.86805
-1.81246
-1.73058
-1.61987
-1.47726
-1.30212
-1.0903
-0.840136
-0.54771
-0.205396
-3.13845
-2.78639
-2.50386
-2.29397
-2.14763
-2.04808
-1.97796
-1.92181
-1.86711
-1.80322
-1.72485
-1.62584
-1.5034
-1.35483
-1.17983
-0.975582
-0.741648
-0.476128
-0.174612
-3.19728
-2.89508
-2.62214
-2.39747
-2.22357
-2.0917
-1.98978
-1.9048
-1.82534
-1.74114
-1.64649
-1.53538
-1.40496
-1.2529
-1.07927
-0.882352
-0.662627
-0.419633
-0.151008
-3.1903
-2.94222
-2.69656
-2.47622
-2.29135
-2.14028
-2.01619
-1.90925
-1.8098
-1.7085
-1.59966
-1.47748
-1.33916
-1.18269
-1.00845
-0.81563
-0.605436
-0.37848
-0.13387
-3.15591
-2.95696
-2.74456
-2.53963
-2.35536
-2.19513
-2.05665
-1.93348
-1.81808
-1.70236
-1.58099
-1.4485
-1.30212
-1.14013
-0.963207
-0.771314
-0.566331
-0.349742
-0.121724
-3.05009
-2.90231
-2.72874
-2.54938
-2.37806
-2.22105
-2.07929
-1.94928
-1.82564
-1.70161
-1.57251
-1.43321
-1.28107
-1.11457
-0.934712
-0.742211
-0.539731
-0.329651
-0.113045
-2.87315
-2.77261
-2.64005
-2.49306
-2.34464
-2.20213
-2.06836
-1.94196
-1.81929
-1.69485
-1.56462
-1.42378
-1.26978
-1.1012
-0.919263
-0.725414
-0.523295
-0.316464
-0.107072
-2.67457
-2.60404
-2.50709
-2.39305
-2.27186
-2.15038
-2.03213
-1.91703
-1.80268
-1.68455
-1.55914
-1.42183
-1.26996
-1.10193
-0.918883
-0.722764
-0.518291
-0.310662
-0.10374
-2.50911
-2.46362
-2.39525
-2.30941
-2.21297
-2.11171
-2.00929
-1.90651
-1.80192
-1.69181
-1.57308
-1.44115
-1.29304
-1.12659
-0.94225
-0.741741
-0.530477
-0.315644
-0.103917
-2.24074
-2.22609
-2.18838
-2.13436
-2.06921
-1.99726
-1.92147
-1.8426
-1.75951
-1.66879
-1.56745
-1.45076
-1.3153
-1.1581
-0.978357
-0.776586
-0.557798
-0.330961
-0.107321
-1.95219
-1.96252
-1.95276
-1.92888
-1.89496
-1.85416
-1.80853
-1.75847
-1.70269
-1.63774
-1.5604
-1.46564
-1.34949
-1.20807
-1.0389
-0.839978
-0.613411
-0.367208
-0.117665
-1.65765
-1.68558
-1.7001
-1.70444
-1.70119
-1.69237
-1.67914
-1.6614
-1.63752
-1.60376
-1.55633
-1.48974
-1.39944
-1.28091
-1.13027
-0.942449
-0.713635
-0.443732
-0.145227
-1.33672
-1.3754
-1.41063
-1.44212
-1.47035
-1.49592
-1.51904
-1.53893
-1.55348
-1.55836
-1.54877
-1.51843
-1.46207
-1.37504
-1.25335
-1.09065
-0.877222
-0.597962
-0.234256
-0.978616
-0.980892
-0.981392
-0.980174
-0.979357
-0.981557
-0.989493
-1.00448
-1.026
-1.05073
-1.07267
-1.08383
-1.07664
-1.04482
-0.983875
-0.888869
-0.751334
-0.550782
-0.246774
-0.658754
-0.756461
-0.882209
-1.02695
-1.18377
-1.34647
-1.51033
-1.67047
-1.82169
-1.9574
-2.06858
-2.14612
-2.1821
-2.1732
-2.11982
-2.02399
-1.88338
-1.68462
-1.39066
-0.229833
-0.292582
-0.380485
-0.487224
-0.607947
-0.738795
-0.877711
-1.02266
-1.17152
-1.32018
-1.46003
-1.58101
-1.67085
-1.72162
-1.73133
-1.70702
-1.65721
-1.59252
-1.51722
0.202532
0.124443
0.0158234
-0.116744
-0.267105
-0.430355
-0.603654
-0.785284
-0.974008
-1.16719
-1.3574
-1.53366
-1.68074
-1.78549
-1.84112
-1.85301
-1.832
-1.79224
-1.74148
0.640342
0.539573
0.403336
0.239944
0.0568745
-0.139947
-0.347097
-0.563277
-0.788462
-1.02207
-1.25916
-1.48942
-1.69579
-1.85925
-1.96551
-2.01455
-2.01771
-1.99293
-1.95201
1.04574
0.912665
0.742076
0.544754
0.329199
0.102032
-0.133294
-0.376228
-0.628361
-0.891801
-1.1653
-1.44162
-1.70432
-1.92971
-2.09379
-2.18626
-2.21446
-2.20004
-2.16213
1.48016
1.30973
1.10219
0.869721
0.621693
0.365376
0.104132
-0.162162
-0.436561
-0.723839
-1.02701
-1.34412
-1.66303
-1.95905
-2.19854
-2.35546
-2.42395
-2.42443
-2.3863
1.82806
1.6127
1.36521
1.09881
0.823538
0.546536
0.270332
-0.00630985
-0.287894
-0.581607
-0.894629
-1.23182
-1.5896
-1.94953
-2.27433
-2.52121
-2.65837
-2.68944
-2.64774
2.17443
1.91801
1.63118
1.33233
1.0325
0.73835
0.451414
0.169548
-0.11252
-0.403205
-0.712331
-1.05094
-1.42632
-1.83441
-2.24741
-2.61717
-2.88037
-2.99824
-2.98277
2.5195
2.2105
1.88109
1.55085
1.2299
0.923264
0.631016
0.350141
0.0752757
-0.201803
-0.491013
-0.806037
-1.16254
-1.57416
-2.03716
-2.5262
-2.96993
-3.27849
-3.3593
2.78138
2.39225
1.9969
1.61305
1.24772
0.903053
0.57691
0.265262
-0.037299
-0.338049
-0.645269
-0.971252
-1.33306
-1.75472
-2.25894
-2.86688
-3.56014
-4.27894
-4.9031
2.98636
2.55193
2.14226
1.76993
1.43593
1.13815
0.871636
0.63171
0.413561
0.212552
0.025244
-0.153052
-0.327896
-0.509258
-0.714266
-0.976812
-1.3377
-1.8462
-2.53471
3.17308
2.71324
2.30966
1.96039
1.65795
1.39573
1.16621
0.963853
0.78384
0.62203
0.476556
0.345586
0.228862
0.127088
0.0422318
-0.0258719
-0.0799583
-0.133667
-0.213286
3.09201
2.56328
2.11883
1.74296
1.42195
1.14583
0.905526
0.694631
0.508108
0.341765
0.193914
0.0629481
-0.0513791
-0.148328
-0.225518
-0.280492
-0.30909
-0.307795
-0.274948
2.78688
2.28709
1.87746
1.53813
1.25372
1.01318
0.80735
0.629742
0.475545
0.340941
0.224127
0.123477
0.0381322
-0.0323831
-0.088134
-0.129909
-0.158507
-0.17547
-0.182632
2.36996
1.93643
1.58413
1.2954
1.05622
0.85617
0.686942
0.542545
0.418632
0.311749
0.219946
0.141495
0.0750144
0.0193576
-0.0263868
-0.0635536
-0.0933165
-0.116863
-0.135414
1.81801
1.47636
1.20303
0.982109
0.801368
0.651796
0.526537
0.420612
0.330477
0.253309
0.187345
0.131068
0.0831254
0.0423972
0.0080024
-0.0210926
-0.0456864
-0.0663731
-0.0837863
1.16018
0.931419
0.753686
0.612814
0.499099
0.405878
0.328382
0.263214
0.208
0.160864
0.120574
0.0860952
0.0564677
0.0309063
0.0088024
-0.0104869
-0.0274218
-0.0422325
-0.0551592
0.449878
0.359901
0.292204
0.239217
0.196553
0.161471
0.13213
0.107247
0.0859422
0.0675238
0.0515237
0.0375554
0.0252535
0.0143168
0.00450356
-0.00443554
-0.0126888
-0.0203414
-0.0274637
-0.449663
-0.359454
-0.291626
-0.238575
-0.195893
-0.160823
-0.131515
-0.106681
-0.0854344
-0.0670811
-0.0511499
-0.0372521
-0.0250212
-0.0141554
-0.00441217
0.00445749
0.0126419
0.0202266
0.0272821
-1.15999
-0.931042
-0.753205
-0.612286
-0.498566
-0.405369
-0.327918
-0.262809
-0.207664
-0.160603
-0.120392
-0.0859929
-0.0564446
-0.0309606
-0.00893159
0.0102856
0.0271514
0.0418968
0.0547625
-1.81783
-1.47602
-1.20258
-0.981604
-0.800839
-0.65127
-0.526034
-0.420148
-0.330063
-0.252951
-0.187047
-0.130831
-0.0829454
-0.0422693
-0.00791891
0.0211409
0.04571
0.0663821
0.0837899
-2.36985
-1.93625
-1.58389
-1.29513
-1.05596
-0.855925
-0.686736
-0.542393
-0.418545
-0.311736
-0.220011
-0.141638
-0.0752306
-0.0196385
0.0260541
0.0631848
0.0929289
0.116473
0.135034
-2.78685
-2.28702
-1.87736
-1.53801
-1.25361
-1.01308
-0.80728
-0.62972
-0.475585
-0.341056
-0.224324
-0.123761
-0.0385006
0.0319391
0.0876327
0.129377
0.157981
0.17499
0.182241
-3.09208
-2.56337
-2.1189
-1.74301
-1.422
-1.1459
-0.905627
-0.694789
-0.508345
-0.342104
-0.194376
-0.0635534
0.0506144
0.147396
0.22443
0.279292
0.307874
0.306715
0.274181
-3.17317
-2.71312
-2.30921
-1.95955
-1.65669
-1.39403
-1.16408
-0.961283
-0.780846
-0.618619
-0.472733
-0.341355
-0.224219
-0.122029
-0.0367885
0.0315552
0.0854888
0.138184
0.21533
-2.98701
-2.55359
-2.14499
-1.77376
-1.44087
-1.14422
-0.878863
-0.640119
-0.423195
-0.223475
-0.0375579
0.139187
0.312212
0.491306
0.693362
0.951971
1.30787
1.81076
2.49415
-2.78122
-2.39175
-1.99594
-1.61157
-1.24569
-0.900459
-0.573758
-0.261569
0.0415027
0.342716
0.650332
0.976613
1.33859
1.76028
2.26451
2.87277
3.56726
4.28898
4.91839
-2.51975
-2.21105
-1.8819
-1.55187
-1.23109
-0.924602
-0.632482
-0.351728
-0.0769934
0.19993
0.488941
0.803712
1.15994
1.57134
2.03439
2.52403
2.96904
3.27932
3.36131
-2.1746
-1.91836
-1.63169
-1.33297
-1.03324
-0.739171
-0.452307
-0.170515
0.111464
0.402037
0.711026
1.04949
1.42479
1.83299
2.2464
2.61696
2.88116
2.99991
2.98491
-1.82821
-1.61303
-1.3657
-1.09943
-0.82426
-0.547339
-0.271204
0.00537288
0.28689
0.580532
0.893492
1.23067
1.58855
1.94878
2.2741
2.52165
2.65944
2.6909
2.64933
-1.4803
-1.31004
-1.10265
-0.870318
-0.622398
-0.366167
-0.10499
0.16125
0.435604
0.722854
1.02603
1.34323
1.66234
1.95872
2.19868
2.3561
2.42497
2.42566
2.38764
-1.04585
-0.912935
-0.742491
-0.545296
-0.329843
-0.102754
0.132515
0.375411
0.627528
0.89098
1.16454
1.441
1.70395
1.92969
2.09414
2.18696
2.21542
2.20116
2.16336
-0.640454
-0.539839
-0.403746
-0.240481
-0.0575143
0.139231
0.34633
0.562485
0.787675
1.02133
1.25852
1.48896
1.69559
1.85936
1.96594
2.01526
2.01864
1.99402
1.95324
-0.202621
-0.124681
-0.0162013
0.116243
0.266505
0.429684
0.602941
0.78456
0.97331
1.16657
1.35691
1.53336
1.68069
1.78572
1.84163
1.85377
1.83297
1.79341
1.74284
0.229645
0.292001
0.379469
0.485756
0.606036
0.736474
0.875034
1.0197
1.16836
1.31693
1.45681
1.57794
1.66802
1.71911
1.72918
1.7053
1.65601
1.5921
1.51802
0.658901
0.757002
0.883278
1.02865
1.18617
1.34959
1.51417
1.675
1.82683
1.96307
2.07469
2.15257
2.18878
2.18002
2.12669
2.03086
1.89018
1.69126
1.39701
0.978497
0.980411
0.980516
0.978904
0.977721
0.979606
0.987293
1.00211
1.02354
1.04825
1.07025
1.08154
1.07452
1.0429
0.982187
0.887433
0.750175
0.549946
0.246382
1.33682
1.37559
1.41093
1.44251
1.47082
1.49645
1.51961
1.53951
1.55405
1.55889
1.54924
1.51884
1.46241
1.3753
1.25354
1.09076
0.877249
0.597926
0.234213
1.6577
1.68563
1.70017
1.70453
1.70129
1.69248
1.67926
1.66151
1.63764
1.60387
1.55643
1.48982
1.3995
1.28095
1.13028
0.942436
0.713601
0.443694
0.145209
1.95223
1.96258
1.95283
1.92896
1.89506
1.85426
1.80864
1.75857
1.70279
1.63783
1.56047
1.4657
1.34954
1.2081
1.03891
0.839969
0.613393
0.367191
0.11766
2.24078
2.22615
2.18844
2.13443
2.06929
1.99734
1.92155
1.84268
1.75959
1.66887
1.5675
1.45081
1.31534
1.15812
0.978362
0.776582
0.557789
0.330954
0.107319
2.50915
2.46367
2.39532
2.30949
2.21305
2.11179
2.00938
1.90658
1.80199
1.69187
1.57313
1.44119
1.29307
1.12661
0.942257
0.741742
0.530474
0.315642
0.103917
2.67461
2.60408
2.50715
2.39311
2.27192
2.15045
2.0322
1.91709
1.80273
1.6846
1.55918
1.42186
1.26998
1.10194
0.918891
0.722767
0.518292
0.310662
0.10374
2.87318
2.77265
2.6401
2.49311
2.34469
2.20219
2.06842
1.94201
1.81934
1.69489
1.56465
1.42381
1.2698
1.10122
0.919271
0.725418
0.523298
0.316466
0.107073
3.05012
2.90235
2.72878
2.54942
2.37812
2.2211
2.07934
1.94933
1.82568
1.70165
1.57254
1.43323
1.28109
1.11458
0.934721
0.742218
0.539736
0.329654
0.113046
3.15592
2.95698
2.74459
2.53966
2.3554
2.19517
2.05669
1.93351
1.81811
1.70238
1.58101
1.44851
1.30214
1.14014
0.963217
0.771321
0.566336
0.349745
0.121725
3.19032
2.94224
2.69658
2.47625
2.29138
2.14031
2.01622
1.90927
1.80983
1.70852
1.59968
1.4775
1.33918
1.1827
1.00846
0.815638
0.605442
0.378484
0.133872
3.1973
2.89511
2.62217
2.3975
2.22359
2.09173
1.9898
1.90482
1.82536
1.74116
1.64651
1.5354
1.40497
1.25291
1.07928
0.882361
0.662635
0.419638
0.151009
3.13846
2.7864
2.50386
2.29398
2.14764
2.04809
1.97796
1.92182
1.86712
1.80323
1.72486
1.62584
1.50341
1.35484
1.17984
0.975587
0.741652
0.476131
0.174613
2.84633
2.49327
2.24444
2.08717
1.99925
1.95612
1.93604
1.92261
1.90336
1.86806
1.81247
1.73059
1.61987
1.47727
1.30213
1.0903
0.84014
0.547713
0.205397
2.5537
2.22794
2.03756
1.95066
1.93067
1.94728
1.97688
2.00404
2.01749
2.00789
1.97229
1.90474
1.80272
1.66248
1.48267
1.25714
0.982272
0.650897
0.250132
2.18499
1.92791
1.83748
1.84808
1.91105
1.99517
2.07854
2.14873
2.19666
2.21438
2.20012
2.14801
2.05523
1.91694
1.73049
1.48694
1.17944
0.795836
0.314973
1.55457
1.48497
1.56358
1.71001
1.87821
2.04413
2.19209
2.31434
2.40496
2.45792
2.47232
2.44275
2.36562
2.23469
2.04525
1.78468
1.44093
0.99416
0.409497
0.94034
1.1372
1.40764
1.69128
1.96041
2.20348
2.41344
2.58719
2.72192
2.81348
2.8608
2.85911
2.80308
2.68431
2.49453
2.21578
1.82709
1.29567
0.562634
0.350548
0.853536
1.32157
1.74024
2.10937
2.43105
2.70776
2.94015
3.1284
3.27042
3.36379
3.40502
3.386
3.29537
3.11931
2.83214
2.39798
1.76212
0.824246
-0.0940825
0.68924
1.3303
1.86926
2.33304
2.73412
3.08382
3.38505
3.64089
3.85177
4.01283
4.12296
4.17031
4.14001
4.01007
3.74381
3.2808
2.52869
1.31531
-0.307785
0.659509
1.4277
2.06688
2.61962
3.10267
3.53455
3.91937
4.26342
4.57091
4.83429
5.0569
5.22348
5.3165
5.30373
5.13418
4.70941
3.87363
2.33297
-0.271679
0.750412
1.59351
2.31269
2.94934
3.51806
4.04295
4.52943
4.98831
5.43036
5.84719
6.2507
6.62684
6.9614
7.21456
7.32387
7.14064
6.41162
4.64927
-0.0498515
0.921752
1.79833
2.58174
3.29776
3.955
4.58224
5.18866
5.7917
6.41486
7.05402
7.73769
8.46961
9.26004
10.082
10.8954
11.5184
11.5887
10.3443
0.220198
1.11059
2.00764
2.84914
3.64023
4.38583
5.11876
5.85913
6.63154
7.48612
8.4313
9.5273
10.8506
12.5226
14.6942
17.7654
22.3656
29.8594
43.0665
)
;

boundaryField
{
    up
    {
        type            calculated;
        value           nonuniform List<scalar> 
84
(
-43.0665
-10.3443
-4.64928
-2.33297
-1.31531
-0.824247
-0.562635
-0.409497
-0.314972
-0.250131
-0.205396
-0.174612
-0.151008
-0.13387
-0.121724
-0.113045
-0.107072
-0.10374
-0.103917
-0.107321
-0.117665
-0.145227
-0.234256
-0.246774
-1.20214
-1.44047
-1.67508
-1.88763
-2.09568
-2.31355
-2.55933
-2.84841
-3.15117
-4.92675
-2.64519
-0.219262
-0.275381
-0.182706
-0.135431
-0.083803
-0.0551723
-0.0274798
0.027298
0.0547758
0.0838068
0.135052
0.182314
0.27461
0.221236
2.60305
4.94522
3.15287
2.85025
2.56084
2.31486
2.09691
1.88889
1.6765
1.44186
1.208
0.246382
0.234213
0.145209
0.11766
0.107319
0.103917
0.10374
0.107073
0.113046
0.121725
0.133872
0.151009
0.174613
0.205397
0.250132
0.314973
0.409497
0.562634
0.824246
1.31531
2.33297
4.64927
10.3443
43.0665
)
;
    }
    low
    {
        type            calculated;
        value           nonuniform List<scalar> 
84
(
-0.199242
0.0803071
0.32158
0.362724
0.128933
-0.357014
-0.993703
-1.64378
-2.28632
-2.63318
-2.91189
-3.18508
-3.20532
-3.1742
-3.12446
-2.99833
-2.80535
-2.60376
-2.42974
-2.14576
-1.85171
-1.55891
-1.24331
-0.898487
-0.597395
-0.207836
0.177287
0.576074
0.959972
1.38894
1.74618
2.1007
2.46119
2.74684
2.97271
3.18626
3.13677
2.84231
2.42375
1.8635
1.19155
0.463312
-0.463096
-1.19135
-1.86331
-2.42361
-2.84224
-3.13679
-3.18628
-2.97325
-2.74669
-2.46139
-2.10085
-1.74633
-1.38907
-0.960087
-0.57619
-0.177378
0.207653
0.597539
0.898376
1.24341
1.55895
1.85175
2.1458
2.42979
2.60379
2.80538
2.99836
3.12448
3.17422
3.20535
3.18509
2.91191
2.63322
2.28635
1.6438
0.993725
0.357029
-0.128923
-0.362719
-0.321578
-0.0803058
0.199241
)
;
    }
    left
    {
        type            calculated;
        value           nonuniform List<scalar> 
19
(
-0.194916
-1.06476
-1.97875
-2.84785
-3.67169
-4.45122
-5.22258
-6.00958
-6.83704
-7.77018
-8.8162
-10.0453
-11.5607
-13.5297
-16.1448
-19.9722
-25.8857
-35.7907
-37.3558
)
;
    }
    right
    {
        type            calculated;
        value           nonuniform List<scalar> 
19
(
0.194913
1.06475
1.97874
2.84784
3.67168
4.45121
5.22258
6.00958
6.83704
7.77019
8.8162
10.0453
11.5607
13.5297
16.1448
19.9722
25.8857
35.7907
37.3558
)
;
    }
    frontAndBackPlanes
    {
        type            empty;
    }
}


// ************************************************************************* //
