/*--------------------------------*- C++ -*----------------------------------*\
  =========                 |
  \\      /  F ield         | OpenFOAM: The Open Source CFD Toolbox
   \\    /   O peration     | Website:  https://openfoam.org
    \\  /    A nd           | Version:  7
     \\/     M anipulation  |
\*---------------------------------------------------------------------------*/
FoamFile
{
    version     2.0;
    format      ascii;
    class       volScalarField;
    location    "0.431";
    object      gradTz;
}
// * * * * * * * * * * * * * * * * * * * * * * * * * * * * * * * * * * * * * //

dimensions      [0 -1 0 1 0 0 0];

internalField   nonuniform List<scalar> 
1596
(
-4.84135e-16
-2.36504e-16
2.39022e-16
4.04464e-18
-4.58656e-16
0
-2.16138e-16
-2.13084e-16
-1.24723e-17
-1.11337e-16
-1.13576e-18
-1.10447e-16
4.83954e-16
-1.08909e-16
5.09533e-16
4.39179e-16
2.61087e-16
3.29374e-16
0
4.85042e-16
0
6.91403e-16
-3.94125e-18
-2.14895e-16
2.13384e-16
4.35281e-16
1.17417e-17
2.07033e-16
-9.93778e-17
1.98014e-16
-3.30661e-18
-2.74151e-16
-1.70787e-16
-4.12101e-16
-4.01516e-16
-3.64951e-16
2.07491e-16
0
-2.39648e-16
0
-4.54881e-16
6.26624e-18
4.23937e-16
-1.15624e-16
7.18602e-18
-3.00396e-18
-3.19642e-18
-3.50044e-18
7.77513e-17
0
1.42259e-16
4.04643e-16
-3.9778e-17
3.17382e-17
7.47868e-17
1.15916e-16
0
3.74169e-16
-1.15088e-16
1.14668e-16
0
-1.1106e-16
-1.13743e-16
1.9929e-16
-1.78082e-16
0
0
-5.88932e-17
4.05371e-17
0
-1.19858e-16
-1.5413e-16
1.05841e-16
-1.06936e-16
-5.51295e-18
0
6.50996e-17
1.77956e-16
-1.64351e-16
0
-4.9603e-17
-1.49978e-16
0
2.26738e-16
-2.28139e-17
-2.06217e-17
-1.5644e-17
1.19372e-16
1.44873e-16
1.45885e-17
2.65522e-18
-1.14464e-16
5.79001e-18
5.28525e-17
-2.2519e-17
-1.69053e-17
-2.44652e-16
2.36905e-16
-2.12068e-16
-3.57196e-19
-1.93571e-16
5.48385e-18
-5.50205e-18
-1.56499e-16
0
-1.25815e-17
-1.40796e-16
-1.31011e-16
1.08317e-16
1.08153e-16
-1.4862e-18
-6.47675e-17
-5.36076e-17
4.0816e-17
1.41281e-16
-2.50693e-16
2.88195e-16
1.63671e-16
0
1.48012e-16
8.91878e-17
-4.32063e-17
1.99027e-16
-3.78155e-17
-1.57412e-16
1.56038e-18
-9.48915e-17
-1.08865e-16
-8.66378e-17
7.26129e-17
6.53376e-17
-8.66389e-19
-1.71276e-17
1.07956e-17
3.96638e-16
-4.80258e-16
0
0
-1.89164e-16
0
0
0
1.37378e-16
0
0
8.6586e-17
3.56904e-18
2.07764e-17
-6.32408e-17
0
3.36712e-17
1.28534e-17
0
-2.61797e-16
5.06851e-16
0
0
1.94813e-16
0
-7.82311e-17
7.81521e-17
-1.39831e-16
5.9232e-17
-5.96652e-17
0
8.62446e-17
7.9742e-17
0
-4.61312e-17
-3.44187e-17
-1.11847e-17
6.07731e-16
-2.87937e-16
0
-2.2137e-16
2.18893e-16
0
1.7423e-16
0
0
0
5.64685e-17
-5.67392e-17
0
-6.63496e-17
-1.93386e-17
0
3.28766e-18
2.68018e-17
0
-1.54263e-16
0
0
2.22445e-16
-4.21029e-16
1.67077e-17
6.95108e-18
-7.48193e-17
6.98182e-18
1.46177e-18
-6.04749e-17
-1.00138e-16
0
7.56803e-17
-1.45975e-17
1.48166e-17
3.67946e-17
-2.08774e-17
-9.81755e-18
1.35289e-16
-1.03587e-17
1.29604e-16
4.59709e-16
-1.86224e-17
-2.00273e-16
0
0
0
1.25093e-16
5.1891e-17
1.88558e-16
-4.55891e-17
-7.43265e-17
-4.613e-17
-2.41629e-17
1.06761e-17
-2.29929e-17
9.38341e-18
-1.45323e-16
1.42175e-16
-2.66655e-16
-4.54364e-16
4.27833e-16
1.79538e-16
-3.37371e-16
3.01689e-16
-2.68969e-16
6.98302e-17
5.59968e-17
-5.06273e-17
3.58009e-17
-3.09819e-17
8.92966e-17
0
-6.61043e-18
4.81408e-17
-7.11052e-18
-9.19213e-16
4.28643e-16
4.02425e-19
-1.04135e-16
9.75154e-18
1.75161e-16
-3.36287e-16
-1.45536e-16
1.28842e-16
-1.13226e-16
-9.94979e-17
0
-1.16189e-16
-3.48099e-17
-6.3612e-17
-3.78087e-17
2.98889e-18
-3.16125e-17
3.5425e-19
1.50235e-16
-1.37096e-16
3.53744e-19
-1.11656e-16
-2.9164e-16
2.78289e-16
3.74453e-19
1.41825e-16
-1.25444e-16
2.18775e-16
5.19308e-17
4.45595e-17
1.42261e-16
0
1.20418e-16
5.51714e-17
0
1.77516e-17
2.99187e-19
0
1.32999e-16
1.10967e-16
-2.27003e-16
2.83084e-16
-4.35507e-16
3.1728e-16
1.28721e-16
-1.44722e-17
-2.16588e-16
4.24476e-17
-4.22381e-17
-1.33779e-16
5.51229e-17
-2.63886e-17
-5.69007e-17
2.54294e-17
-1.56047e-17
5.6742e-18
-1.39961e-16
4.93282e-16
-3.65764e-16
2.09651e-16
0
0
-6.61855e-17
1.38328e-16
-1.07349e-16
2.04639e-16
0
0
9.22543e-17
-8.1814e-17
-6.06654e-17
1.89494e-17
-1.97039e-17
1.01526e-17
0
8.44231e-18
1.3087e-16
-1.11269e-16
-1.00431e-16
-1.71695e-16
-6.35402e-17
7.90838e-17
0
-1.0209e-16
-8.75281e-17
8.05083e-17
-6.85442e-17
5.76975e-17
0
2.28507e-17
4.74379e-17
0
0
0
-8.02958e-18
2.20794e-16
9.08851e-17
-3.00699e-16
8.72823e-17
7.76897e-17
0
0
9.74864e-17
-5.04689e-17
-7.7869e-17
6.62948e-17
-5.57978e-17
0
-1.61391e-17
1.48139e-17
0
-1.20201e-17
-4.14156e-18
-1.15059e-16
3.37709e-16
-4.18604e-16
-1.77633e-16
9.16047e-17
-7.41331e-17
6.51785e-17
0
-4.91527e-17
4.27516e-17
0
0
2.31671e-17
-2.31938e-17
7.39437e-18
-8.9571e-18
1.78735e-17
1.66321e-18
3.05e-18
5.77506e-17
-5.33541e-17
2.8424e-16
-1.84493e-16
-7.92854e-17
7.77429e-18
1.31544e-16
5.38963e-17
4.70318e-17
0
3.1178e-17
-2.91559e-17
2.42812e-17
-2.13622e-17
2.95322e-17
-5.14846e-17
-1.38966e-17
1.22027e-17
3.34506e-18
1.56984e-16
-1.5789e-16
0
1.604e-16
-8.31029e-17
-6.72095e-17
5.16018e-17
-1.6146e-16
0
-2.52908e-18
-3.45847e-17
-2.68695e-17
4.1645e-17
-2.73383e-18
-2.85423e-17
2.16852e-17
0
8.2913e-18
-3.24802e-18
2.62008e-16
-4.7786e-17
2.12235e-16
-1.66829e-16
1.00225e-16
1.71172e-17
-1.19496e-16
-4.52907e-17
8.3662e-17
-2.71749e-18
-5.58674e-17
4.88713e-17
-2.20316e-17
-3.12131e-17
0
0
0
-8.37428e-18
3.15656e-19
-2.36922e-16
2.31825e-16
1.22751e-19
3.81252e-17
3.42076e-17
-8.77203e-17
1.06773e-16
-9.24727e-17
8.22115e-17
-3.01813e-17
5.81915e-17
2.2162e-17
-9.71126e-18
5.70067e-19
-4.03213e-18
-7.13075e-18
0
0
0
0
0
1.20681e-16
-5.37952e-17
-1.89775e-16
0
0
-2.66056e-17
-4.58335e-17
4.00143e-17
0
-2.79504e-17
2.28755e-17
-8.05175e-17
9.38051e-17
-3.2468e-17
3.47336e-17
3.90342e-18
0
-4.5932e-17
4.64973e-17
0
-4.01327e-17
4.08778e-17
7.15128e-17
0
2.68597e-17
3.95984e-17
-1.72294e-16
0
-2.98289e-17
2.44774e-17
1.88771e-17
-1.46452e-17
2.19535e-17
0
-8.50806e-18
0
-2.36042e-17
-2.40074e-17
1.4242e-18
4.12353e-17
-1.14718e-16
0
-3.19208e-17
0
1.00021e-16
4.28928e-17
0
1.17964e-16
-1.28435e-16
1.17338e-17
-3.28073e-17
7.27453e-18
4.17048e-17
1.66284e-17
-1.31561e-17
0
4.92977e-17
-4.49473e-17
5.60954e-17
7.06101e-17
0
6.54359e-17
-6.28239e-17
-5.31783e-17
8.50561e-17
-1.2821e-16
-6.71246e-17
0
0
1.71541e-17
0
0
5.25962e-18
0
-2.16225e-16
1.65488e-16
0
1.95472e-18
-4.16543e-17
-2.37495e-18
3.89068e-17
3.03017e-17
-3.58205e-17
-1.01065e-16
1.69415e-16
-4.52093e-17
0
-2.44548e-17
0
0
0
-2.01876e-17
1.60858e-17
-6.05804e-17
5.7904e-17
1.59709e-16
-1.5771e-16
4.96813e-17
2.31051e-18
-3.95631e-17
3.55085e-17
6.29491e-17
5.06213e-17
-1.00385e-16
0
5.8548e-17
1.10578e-17
-2.797e-17
-6.54025e-17
5.44296e-17
-9.60573e-18
1.77686e-17
-2.02843e-16
3.0346e-16
-3.02389e-16
5.49796e-17
4.85313e-17
-4.69372e-17
4.02273e-17
-3.35646e-17
0
-3.04588e-17
5.20129e-17
2.26478e-17
3.77518e-17
5.13946e-17
-7.79311e-17
-4.82878e-19
0
-6.97321e-18
2.30513e-18
-2.19346e-16
-6.72751e-17
-1.21923e-16
6.39823e-17
-1.1015e-16
9.89947e-17
-5.99335e-17
5.30491e-17
-2.8771e-18
-2.89663e-18
-5.31203e-17
3.05634e-17
-1.96431e-17
5.86973e-17
-6.30121e-17
9.04548e-18
7.01313e-18
0
-3.92219e-18
2.37161e-16
-7.23758e-17
0
0
-1.13558e-16
2.23044e-16
-5.32401e-17
-1.08036e-17
9.10536e-17
-2.29288e-18
0
0
-2.36473e-17
0
-5.37388e-17
1.33075e-16
-9.32822e-17
0
1.50425e-18
8.1888e-17
1.55554e-16
0
-6.87179e-17
-5.85195e-17
-5.38423e-17
-5.50524e-17
2.37868e-17
-6.75057e-17
-3.83334e-17
0
0
2.93995e-17
0
0
-7.09108e-17
1.16419e-16
0
0
5.61768e-16
-6.24163e-17
-3.48441e-16
-1.97086e-16
2.66717e-16
8.78209e-17
5.33801e-17
0
-2.05281e-17
2.0698e-17
5.06166e-17
-1.65424e-17
-2.57983e-17
4.02534e-17
-4.28173e-17
-1.38433e-17
0
0
0
4.49864e-17
-3.62549e-16
3.56072e-16
-3.48948e-17
-2.77232e-16
4.38208e-16
-2.22274e-16
0
0
1.27322e-16
-1.0545e-16
0
-3.33585e-17
5.76592e-17
-6.81184e-18
1.71382e-17
5.31032e-18
4.99637e-20
1.1793e-18
0
0
0
3.07824e-16
-2.06047e-16
2.24438e-16
-3.51724e-16
1.01346e-16
0
-3.80293e-17
6.20768e-17
-6.34462e-17
-1.28487e-17
-4.86901e-19
-9.01637e-18
-1.41881e-18
-7.16018e-18
-1.98348e-18
-1.09557e-18
3.78415e-16
-6.79317e-16
3.24163e-16
0
9.12779e-17
-1.24176e-16
1.28191e-16
-1.01744e-16
0
-5.16104e-17
7.24043e-17
0
0
-3.76201e-19
0
-8.98489e-18
6.17453e-18
1.21014e-18
1.73627e-18
3.6303e-16
0
-1.49879e-16
1.67501e-16
-1.08125e-16
2.37511e-16
-1.13093e-16
-9.08795e-17
9.18286e-17
-9.4686e-18
0
0
6.23506e-18
-1.07686e-17
-7.53406e-18
1.43406e-17
-3.10397e-18
1.61431e-18
0
2.06241e-16
1.64655e-16
-3.79154e-18
-1.59316e-16
-1.64243e-17
-1.20385e-16
1.17876e-17
1.0249e-16
-5.37831e-18
9.6464e-18
0
0
-6.3874e-18
0
7.55346e-18
-8.08039e-18
0
1.03657e-18
-2.88686e-19
-1.09495e-16
-8.25033e-17
7.72183e-17
-9.01652e-18
-4.08561e-18
1.11912e-17
0
-3.01896e-18
4.59784e-17
-3.87203e-17
0
1.34477e-17
-2.57605e-18
-1.19392e-17
-1.09657e-18
-8.57322e-19
0
-8.09103e-19
0
4.51221e-17
-8.62391e-17
-1.59219e-18
3.7688e-17
3.52924e-17
-3.5107e-17
-2.545e-17
2.88301e-17
-1.00979e-17
7.88356e-18
-7.80964e-18
8.05051e-18
0
2.08795e-20
-8.05277e-19
2.90413e-18
-9.95665e-21
0
0
4.51237e-17
-4.49546e-17
-3.74912e-17
3.31828e-17
6.23799e-17
-6.27482e-17
-1.27253e-17
1.2755e-17
-1.01828e-17
1.02899e-17
-7.80984e-18
1.47824e-17
-4.14568e-18
-3.01251e-18
-9.31278e-19
3.07312e-19
7.38052e-19
1.95511e-19
-1.46658e-19
0
-1.07721e-17
6.54066e-17
-7.08216e-17
6.23653e-17
-5.52242e-17
0
4.55741e-17
-4.07209e-17
0
1.56059e-17
-1.97889e-17
-1.13926e-17
1.19402e-17
2.22214e-18
0
0
-8.09166e-19
2.94322e-19
1.79738e-16
-3.32829e-16
3.43643e-16
-3.0551e-16
1.20764e-16
-1.05448e-16
9.99391e-17
1.2171e-17
-4.58698e-17
4.1022e-17
0
-3.06294e-17
2.78511e-17
-5.38168e-18
-2.17658e-18
3.48083e-18
2.56636e-18
7.85545e-19
-2.84382e-19
4.09625e-16
0
-1.69405e-16
1.31552e-16
1.62351e-17
-1.27553e-16
2.27935e-16
-2.05067e-16
8.09539e-17
-3.55208e-17
3.63587e-17
7.26926e-18
1.27812e-17
5.24181e-18
-4.44921e-18
-5.49735e-19
-5.57972e-18
0
5.83874e-19
3.32441e-16
-3.74198e-16
0
3.54815e-17
1.56762e-16
-1.54019e-16
2.69721e-17
2.42957e-17
1.06511e-17
1.92824e-17
0
0
-2.2266e-17
4.23275e-17
-1.55643e-17
-5.64026e-18
6.17514e-18
4.98657e-19
-1.1161e-18
2.53333e-17
3.28692e-16
-3.89257e-17
-2.72163e-16
2.38751e-16
2.92365e-17
-2.63971e-17
-2.37297e-17
8.05491e-17
-9.99364e-17
6.20891e-17
-6.34579e-17
1.03687e-17
-1.27115e-17
2.41539e-17
-1.60274e-17
0
0
1.21156e-18
0
8.31546e-17
-2.56469e-16
2.92664e-16
-2.4553e-16
2.44945e-16
0
9.00492e-17
-9.04619e-17
-7.06781e-17
1.05515e-16
0
4.57014e-17
-5.76912e-17
-8.58888e-18
0
-1.00717e-18
-2.11788e-18
2.68398e-20
-7.78414e-16
3.74694e-16
0
-2.66658e-16
2.66632e-16
1.70408e-16
-1.12191e-16
4.82721e-17
0
-2.27368e-18
1.81565e-17
-1.65171e-17
-2.57595e-17
4.01849e-17
-4.27299e-17
0
9.95693e-18
-2.45106e-18
-1.30737e-18
4.81959e-16
-4.76937e-16
0
6.8978e-17
6.42843e-17
-5.9647e-17
0
-5.05896e-17
-4.55913e-17
0
-1.09686e-18
0
2.94069e-17
0
0
1.4719e-17
5.60246e-17
-7.20285e-17
0
8.88764e-20
7.24099e-17
-6.84346e-17
5.8846e-17
-2.97649e-16
1.15617e-16
0
1.08101e-17
3.08181e-17
0
-3.33974e-17
1.02976e-16
-1.08183e-16
1.9451e-17
0
-1.52258e-18
0
0
0
7.88838e-20
0
6.32507e-17
0
-1.0509e-16
1.0676e-16
0
4.19116e-17
-3.50601e-17
1.3039e-16
-6.35711e-17
2.4659e-17
-4.12083e-17
4.11181e-17
-6.30717e-17
-1.02958e-17
0
-7.8461e-18
0
1.89112e-16
-3.1935e-16
0
-5.51974e-17
5.11719e-17
0
0
-7.72479e-17
0
-3.04767e-17
-5.20444e-17
-2.26639e-17
3.77814e-17
0
2.30312e-17
0
0
1.74848e-17
-1.97899e-17
0
2.8173e-16
-2.26139e-16
5.11002e-17
-4.73855e-17
-2.06438e-17
6.05557e-17
7.12055e-17
-9.22531e-17
2.99735e-17
7.96446e-19
-3.21475e-17
1.33761e-16
-4.18785e-17
-1.05321e-16
3.74713e-17
-1.06353e-17
6.28018e-18
-2.09732e-18
-4.43586e-16
1.65448e-16
0
0
2.08154e-17
-2.11669e-17
1.70202e-17
1.28387e-17
8.46641e-17
4.62126e-17
-4.70528e-17
-6.8872e-19
-2.98873e-17
2.44707e-17
0
1.39242e-17
9.74806e-18
5.69787e-18
1.89568e-18
0
1.46325e-16
-1.39974e-16
4.56233e-17
5.02688e-17
-9.84167e-18
-3.39189e-17
-3.04208e-17
-1.07051e-16
4.61536e-17
-3.19691e-17
4.09776e-17
2.79483e-17
-3.84101e-17
4.07699e-17
2.89112e-17
-3.65511e-17
-5.26283e-18
0
-2.48912e-17
-1.15488e-16
4.26602e-17
4.12451e-17
-1.49367e-16
1.09153e-16
5.95692e-17
-6.08889e-17
5.04626e-17
-4.38021e-17
0
0
-4.5174e-17
8.29308e-17
-3.77304e-17
3.86583e-17
-4.20128e-17
7.38949e-18
-1.31651e-17
4.72401e-17
4.525e-17
-4.2625e-17
3.63075e-17
-4.05054e-17
-6.76126e-17
0
0
0
0
0
0
2.36548e-17
-6.66347e-17
7.04735e-17
-2.50008e-17
3.07354e-17
1.51687e-17
-1.29439e-17
9.69186e-17
-1.74341e-16
2.18756e-16
-1.11517e-16
1.53091e-16
-1.24272e-16
2.37665e-16
-1.39328e-16
-8.43604e-17
8.62969e-17
0
2.79314e-17
-2.31095e-17
6.20863e-17
-1.87353e-17
-2.69728e-17
-6.18888e-17
4.46272e-18
1.11404e-17
1.50296e-16
4.52038e-17
0
-7.60594e-17
-6.47078e-17
1.52074e-16
1.9635e-17
-6.91925e-17
4.26348e-17
-3.34398e-17
0
-2.21108e-17
0
-2.04537e-17
1.7152e-17
-1.61578e-17
-5.4411e-18
3.98922e-18
0
2.10661e-16
-4.77854e-17
2.12157e-16
-1.66775e-16
-3.58951e-17
1.52387e-16
-9.12322e-17
3.61749e-18
3.03265e-18
-3.32182e-17
3.23835e-17
0
0
2.43113e-17
-9.71098e-18
6.65021e-18
1.96269e-17
-6.80859e-18
0
3.47288e-20
0
-4.62821e-17
2.86438e-16
-1.96251e-16
-2.27513e-16
1.25787e-16
-1.46924e-16
1.39076e-16
7.50894e-17
-6.11558e-17
2.60796e-17
-2.39953e-17
3.6309e-18
4.41964e-17
2.37669e-18
-1.82602e-17
1.80362e-17
-3.6252e-18
5.18778e-16
-1.66854e-16
8.96338e-17
-2.72929e-16
7.92848e-17
-1.33381e-16
6.98508e-17
0
0
-2.60059e-18
-3.40438e-18
-9.92375e-19
0
-3.72355e-17
-2.95321e-17
2.24072e-17
-1.65545e-18
2.53685e-18
6.97603e-18
0
-1.69046e-16
2.99894e-16
7.6391e-17
-2.58145e-16
7.41326e-17
-1.22954e-16
1.46618e-17
1.05926e-16
0
0
2.05764e-18
2.79886e-17
0
-2.70567e-17
-1.29198e-17
1.89071e-18
-7.13212e-18
-7.75021e-18
0
-1.10001e-16
1.69654e-17
2.03172e-16
1.66035e-16
-3.10828e-16
1.44973e-16
-1.12604e-16
5.90068e-17
-9.0465e-17
0
0
0
-4.61712e-17
1.44775e-17
-1.62181e-17
0
-1.02418e-18
5.18366e-18
-3.93341e-16
3.76278e-16
4.27584e-16
-5.21107e-16
2.61928e-16
-2.49783e-16
0
1.17416e-16
-1.64057e-16
9.95217e-17
-8.21514e-17
7.03257e-17
5.95199e-17
4.77512e-17
3.86962e-17
0
0
0
0
4.28025e-16
-2.5583e-16
0
0
-9.37435e-17
2.42644e-16
-1.56472e-16
-1.23007e-16
1.2162e-16
9.85564e-17
1.7217e-16
-7.29697e-17
3.05072e-17
2.44071e-17
1.88519e-17
1.48231e-17
2.44734e-17
-1.21496e-18
1.23755e-18
-4.37151e-16
4.08754e-16
2.31261e-16
-1.18384e-16
2.83247e-16
-1.83017e-16
-1.54492e-16
-1.36671e-16
0
-2.03121e-16
7.25375e-18
7.93823e-17
-6.5966e-17
-5.51228e-17
-2.0324e-17
-2.22731e-17
-1.76674e-17
0
0
-1.50364e-16
0
1.23635e-16
-3.17706e-19
0
0
1.59363e-16
1.41025e-16
0
1.08628e-16
0
-1.20582e-16
-3.36466e-17
6.08141e-17
0
3.93312e-17
-5.60529e-18
5.71815e-18
0
3.16324e-16
0
2.41839e-16
-4.56704e-16
4.19009e-16
3.59038e-16
-8.26401e-18
0
7.84778e-18
1.21004e-16
0
-1.29332e-16
1.49788e-16
-1.33561e-16
-2.92729e-17
-3.18482e-17
-9.06639e-18
-1.5656e-18
-5.22167e-18
-3.01495e-16
4.36299e-16
-1.28582e-16
-3.48206e-16
-2.0922e-16
-1.88173e-16
-3.37085e-16
-1.43097e-16
8.15298e-18
5.61022e-17
-5.59968e-17
1.84924e-16
-8.13811e-17
1.67405e-16
-3.13665e-17
0
3.39353e-17
-1.95178e-17
5.35483e-18
6.50536e-16
-1.07828e-17
-5.27537e-16
4.59711e-16
-4.23759e-16
3.83129e-16
-8.71234e-18
-1.55723e-16
1.40026e-16
5.84796e-17
-6.5734e-18
-1.47878e-16
4.42932e-17
4.24018e-17
-1.35878e-17
1.37428e-17
-3.51487e-17
-2.30716e-18
-7.44764e-18
3.19355e-16
1.40627e-16
2.55147e-16
-2.31811e-16
-2.01558e-16
7.87017e-18
-1.65558e-16
4.03628e-16
9.81097e-18
1.96153e-16
1.16397e-16
-1.03835e-16
0
-7.56804e-17
0
0
4.46845e-17
2.01455e-17
8.74332e-18
3.03519e-16
0
2.51998e-16
2.30315e-16
-2.10801e-16
1.91504e-16
0
-1.5854e-16
-2.2232e-16
-1.99172e-16
-1.17427e-16
1.05009e-16
0
0
0
0
-4.18421e-17
-2.91488e-17
0
-5.94791e-16
0
-9.20801e-18
-8.1736e-18
3.18636e-16
-1.87312e-16
-8.73243e-17
-8.74775e-17
2.22089e-16
0
5.92318e-17
-6.46882e-18
5.07245e-17
0
0
6.55987e-17
-4.84456e-18
3.49722e-17
-1.25496e-17
4.20407e-16
1.25755e-16
-1.24457e-16
-1.13919e-16
-4.09852e-16
2.88177e-16
3.55253e-16
-6.1945e-18
-1.49526e-16
1.4467e-16
3.08495e-17
-1.54131e-16
-1.28741e-16
-7.41701e-17
-7.79492e-17
-7.55452e-17
5.97185e-17
-2.84244e-18
1.28534e-17
-1.30474e-16
6.07276e-17
-2.94959e-16
5.26397e-17
-5.24482e-17
0
-1.75107e-16
-8.2035e-18
-1.61366e-16
9.44968e-18
1.57412e-16
1.19234e-16
-2.85595e-17
1.53593e-17
7.43237e-17
0
-1.22441e-16
-4.38024e-17
-9.16121e-19
2.61342e-16
-7.36958e-18
4.62973e-16
-2.24055e-16
3.57196e-19
6.14516e-18
1.85952e-16
-1.04294e-17
1.56498e-16
-1.46599e-16
-1.37414e-16
0
1.3101e-16
1.0668e-16
1.43527e-18
-2.07897e-18
6.53915e-17
4.45284e-17
0
-1.86497e-16
0
-4.90103e-17
2.12655e-16
2.42882e-18
4.96693e-17
-1.79813e-16
1.70944e-16
1.76184e-16
1.68341e-16
1.61026e-16
0
-1.27274e-16
0
6.50453e-18
-6.75553e-18
0
-6.29326e-19
3.06929e-17
1.27047e-16
5.08926e-18
-1.06701e-16
3.25828e-16
-1.05514e-16
0
0
-1.93099e-16
-1.70704e-16
-1.63085e-16
-2.90934e-16
-4.0537e-17
0
0
0
-1.29933e-17
1.37501e-17
8.69724e-17
-3.11562e-17
5.1963e-18
0
-2.23894e-16
-2.09e-16
2.16267e-16
-2.14228e-16
-3.08542e-16
3.83526e-16
1.03724e-16
0
1.69466e-16
1.87604e-16
-4.05048e-17
2.18478e-16
-3.56661e-17
3.71197e-17
1.43091e-16
-8.26445e-17
0
-2.43432e-16
0
-2.34902e-16
2.30925e-16
0
4.24431e-16
2.00764e-16
-4.17074e-16
3.29234e-16
-2.41256e-18
-1.00395e-16
-1.81639e-16
0
2.44817e-16
-4.12101e-16
4.41692e-16
-5.62738e-16
0
0
2.42012e-16
-1.20011e-18
-2.96081e-18
-4.62795e-16
4.65434e-16
-2.26082e-16
2.2516e-16
2.21838e-16
-1.99533e-16
0
0
3.66734e-16
-3.73052e-16
-4.00987e-16
3.96844e-16
-3.86102e-16
4.17209e-16
-6.53155e-16
0
)
;

boundaryField
{
    up
    {
        type            calculated;
        value           nonuniform List<scalar> 
84
(
0
0
0
0
-2.2519e-17
4.0816e-17
-1.71276e-17
1.28534e-17
-1.11847e-17
0
-9.81755e-18
9.38341e-18
-7.11052e-18
3.5425e-19
2.99187e-19
5.6742e-18
0
0
-4.14156e-18
3.05e-18
3.34506e-18
-3.24802e-18
3.15656e-19
0
1.36464e-18
5.52469e-19
-1.26708e-17
0
1.60858e-17
1.8319e-17
2.30513e-18
-3.92219e-18
1.50425e-18
0
-7.31677e-19
1.22997e-18
-1.099e-18
1.73677e-18
0
-2.88821e-19
0
0
-1.46802e-19
2.94322e-19
-2.84382e-19
5.83874e-19
-1.1161e-18
1.21156e-18
2.68398e-20
-1.30737e-18
0
0
0
-1.97899e-17
-2.64799e-18
1.89568e-18
0
-1.31651e-17
-1.29439e-17
9.78069e-18
0
0
-3.6252e-18
6.97603e-18
-7.75021e-18
5.18366e-18
0
1.23755e-18
0
0
-5.22167e-18
5.35483e-18
-7.44764e-18
8.74332e-18
0
-1.25496e-17
1.28534e-17
-9.16121e-19
0
3.06929e-17
-3.11562e-17
0
0
0
)
;
    }
    low
    {
        type            calculated;
        value           nonuniform List<scalar> 
84
(
-4.84387e-16
4.85042e-16
-2.39195e-16
3.74539e-16
6.53516e-17
-1.69799e-17
1.41906e-16
1.13908e-17
0
6.08391e-16
-1.54263e-16
1.34972e-16
-1.45323e-16
-9.19133e-16
1.50235e-16
0
-1.39961e-16
8.44231e-18
-8.02958e-18
-1.15059e-16
5.77506e-17
1.56984e-16
2.61282e-16
-2.36922e-16
0
-4.5932e-17
-2.36042e-17
0
-2.16225e-16
-6.05804e-17
-2.0231e-16
-2.18893e-16
2.36818e-16
8.1888e-17
5.61695e-16
4.49864e-17
0
3.78415e-16
3.63633e-16
2.06586e-16
-1.09684e-16
4.51221e-17
4.51237e-17
0
1.79738e-16
4.10228e-16
3.32441e-16
2.5678e-17
0
-7.7834e-16
4.81959e-16
8.88764e-20
7.88838e-20
1.89112e-16
0
-4.42823e-16
0
-2.48912e-17
4.72401e-17
9.64858e-17
1.49527e-16
2.09935e-16
3.47288e-20
5.18149e-16
0
0
-3.93341e-16
4.27652e-16
-4.36872e-16
-1.50364e-16
3.16244e-16
-3.01495e-16
6.5117e-16
3.19845e-16
3.03519e-16
-5.94791e-16
4.19812e-16
-1.29848e-16
2.61342e-16
-1.86245e-16
1.27047e-16
5.64906e-18
-2.43432e-16
2.42139e-16
)
;
    }
    left
    {
        type            calculated;
        value           nonuniform List<scalar> 
19
(
-4.84135e-16
-2.36647e-16
2.39022e-16
4.04018e-18
-4.58754e-16
0
-2.16138e-16
-2.13084e-16
-1.31321e-17
-1.11337e-16
-1.13576e-18
-1.10447e-16
4.88924e-16
-1.08909e-16
5.09533e-16
4.39179e-16
2.61087e-16
3.826e-16
0
)
;
    }
    right
    {
        type            calculated;
        value           nonuniform List<scalar> 
19
(
2.42012e-16
-1.05684e-18
-2.96081e-18
-4.62791e-16
4.65533e-16
-2.26082e-16
2.2516e-16
2.21838e-16
-1.98873e-16
0
0
3.70255e-16
-3.78022e-16
-4.00987e-16
3.96844e-16
-3.86102e-16
4.17209e-16
-7.06381e-16
0
)
;
    }
    frontAndBackPlanes
    {
        type            empty;
    }
}


// ************************************************************************* //
