/*--------------------------------*- C++ -*----------------------------------*\
  =========                 |
  \\      /  F ield         | OpenFOAM: The Open Source CFD Toolbox
   \\    /   O peration     | Website:  https://openfoam.org
    \\  /    A nd           | Version:  7
     \\/     M anipulation  |
\*---------------------------------------------------------------------------*/
FoamFile
{
    version     2.0;
    format      ascii;
    class       volScalarField;
    location    "0.426";
    object      gradTx;
}
// * * * * * * * * * * * * * * * * * * * * * * * * * * * * * * * * * * * * * //

dimensions      [0 -1 0 1 0 0 0];

internalField   nonuniform List<scalar> 
1596
(
-0.229077
-1.15437
-2.08392
-2.95124
-3.76035
-4.51557
-5.25052
-5.98598
-6.74769
-7.58751
-8.51497
-9.59225
-10.8976
-12.5537
-14.7124
-17.7745
-22.369
-29.8601
-43.0664
0.0512683
-0.959396
-1.86908
-2.67819
-3.41249
-4.08043
-4.71158
-5.31561
-5.91095
-6.52233
-7.14654
-7.81362
-8.52852
-9.3028
-10.1104
-10.9122
-11.5267
-11.5917
-10.3447
0.28133
-0.783285
-1.65981
-2.40432
-3.05914
-3.63911
-4.16913
-4.65505
-5.10847
-5.5411
-5.94527
-6.33408
-6.69443
-7.0132
-7.25152
-7.34784
-7.15409
-6.41745
-4.6504
0.318185
-0.69121
-1.49145
-2.15472
-2.72487
-3.21917
-3.65682
-4.04232
-4.38258
-4.68252
-4.93516
-5.14479
-5.29689
-5.37484
-5.34727
-5.16405
-4.72746
-3.8823
-2.33502
0.0948944
-0.72481
-1.39413
-1.95468
-2.43434
-2.84604
-3.20159
-3.50424
-3.7575
-3.96231
-4.11426
-4.21295
-4.24714
-4.20269
-4.05837
-3.77826
-3.30267
-2.5399
-1.31827
-0.369556
-0.898635
-1.38875
-1.82514
-2.20774
-2.53876
-2.82086
-3.05492
-3.24136
-3.37841
-3.46403
-3.4952
-3.46429
-3.36053
-3.17074
-2.86991
-2.42282
-1.77545
-0.828019
-0.986614
-1.19714
-1.48178
-1.77807
-2.05738
-2.30782
-2.52215
-2.69733
-2.83061
-2.91794
-2.95859
-2.94803
-2.88131
-2.75045
-2.54774
-2.25573
-1.85408
-1.31065
-0.567077
-1.6309
-1.56307
-1.64756
-1.80094
-1.97544
-2.14624
-2.29708
-2.42008
-2.5092
-2.55836
-2.56689
-2.52943
-2.44268
-2.30067
-2.09915
-1.82587
-1.46937
-1.01035
-0.414468
-2.29406
-2.02916
-1.93635
-1.94743
-2.01185
-2.09734
-2.18119
-2.25064
-2.29635
-2.31015
-2.2904
-2.23113
-2.12966
-1.9813
-1.78372
-1.52823
-1.20845
-0.812702
-0.320296
-2.68479
-2.34686
-2.14881
-2.05755
-2.03505
-2.05
-2.0779
-2.10289
-2.11333
-2.09955
-2.05867
-1.98447
-1.8745
-1.72503
-1.53492
-1.29814
-1.01148
-0.66816
-0.255699
-2.99662
-2.62857
-2.36826
-2.20254
-2.10834
-2.06036
-2.03608
-2.01867
-1.99523
-1.95514
-1.89418
-1.80597
-1.68794
-1.53692
-1.35238
-1.13014
-0.868888
-0.564954
-0.211065
-3.30878
-2.94001
-2.64283
-2.42063
-2.26401
-2.15594
-2.07844
-2.01577
-1.95505
-1.8852
-1.80091
-1.69558
-1.56631
-1.41013
-1.22673
-1.01312
-0.769063
-0.492806
-0.180198
-3.37567
-3.05819
-2.77001
-2.53126
-2.34474
-2.20184
-2.09018
-1.99663
-1.90953
-1.81825
-1.71709
-1.59956
-1.46263
-1.30363
-1.1225
-0.917242
-0.688375
-0.435495
-0.156413
-3.37278
-3.11127
-2.85071
-2.61539
-2.41621
-2.252
-2.11597
-1.99841
-1.88959
-1.77994
-1.66379
-1.53496
-1.39039
-1.22767
-1.04693
-0.846947
-0.628821
-0.393095
-0.138947
-3.34047
-3.12985
-2.90324
-2.6829
-2.48301
-2.30776
-2.15522
-2.01931
-1.89266
-1.76709
-1.63744
-1.49788
-1.34543
-1.1779
-0.995587
-0.797924
-0.586507
-0.362591
-0.126299
-3.23201
-3.07479
-2.88822
-2.69369
-2.50613
-2.33278
-2.17526
-2.03064
-1.89395
-1.75857
-1.6201
-1.47321
-1.31508
-1.14373
-0.959694
-0.76301
-0.555862
-0.34022
-0.116948
-3.0474
-2.9397
-2.79575
-2.6344
-2.46976
-2.31025
-2.15955
-2.01707
-1.8798
-1.74261
-1.60191
-1.45291
-1.29294
-1.12018
-0.935353
-0.739115
-0.534415
-0.324167
-0.110113
-2.83893
-2.76259
-2.65564
-2.52818
-2.39108
-2.2523
-2.11628
-1.9839
-1.85355
-1.72133
-1.58433
-1.43817
-1.28024
-1.10866
-0.924099
-0.727635
-0.523081
-0.314704
-0.105664
-2.6648
-2.6145
-2.53698
-2.43819
-2.32579
-2.20661
-2.08533
-1.9638
-1.84158
-1.71576
-1.58404
-1.44232
-1.28782
-1.1183
-0.933818
-0.73526
-0.526952
-0.314805
-0.104341
-2.3807
-2.3628
-2.31723
-2.25131
-2.17089
-2.0812
-1.98624
-1.88786
-1.78604
-1.67836
-1.56277
-1.43529
-1.29291
-1.13281
-0.954022
-0.756412
-0.543895
-0.323873
-0.105813
-2.07439
-2.08258
-2.06605
-2.03122
-1.98272
-1.92451
-1.85961
-1.78949
-1.71409
-1.63104
-1.53822
-1.43156
-1.3077
-1.16316
-0.995604
-0.802737
-0.585881
-0.351492
-0.113428
-1.76115
-1.78742
-1.79591
-1.79005
-1.77283
-1.74693
-1.71441
-1.67622
-1.63196
-1.57906
-1.51496
-1.43524
-1.33619
-1.21387
-1.06481
-0.884126
-0.667878
-0.41523
-0.136475
-1.41948
-1.45643
-1.48608
-1.50803
-1.52299
-1.53206
-1.53621
-1.53561
-1.52936
-1.51436
-1.48707
-1.44245
-1.37612
-1.28419
-1.1632
-1.0073
-0.807393
-0.549223
-0.215018
-1.03816
-1.03562
-1.02794
-1.01541
-1.00071
-0.987175
-0.978359
-0.976414
-0.9817
-0.991723
-1.00127
-1.00312
-0.990171
-0.956495
-0.8978
-0.809397
-0.683335
-0.500716
-0.224399
-0.697578
-0.795058
-0.918168
-1.0568
-1.20338
-1.35141
-1.49634
-1.63387
-1.7599
-1.86929
-1.95471
-2.00895
-2.02565
-2.00278
-1.94157
-1.84466
-1.71024
-1.52623
-1.25862
-0.241756
-0.301465
-0.384616
-0.484448
-0.5959
-0.715071
-0.840095
-0.969257
-1.10099
-1.23198
-1.35451
-1.45971
-1.53631
-1.57724
-1.58088
-1.55422
-1.50525
-1.444
-1.37432
0.216911
0.141913
0.0375299
-0.0892813
-0.232116
-0.385943
-0.547945
-0.716525
-0.890756
-1.0685
-1.24296
-1.40419
-1.53795
-1.63211
-1.68045
-1.68848
-1.66649
-1.62804
-1.58038
0.680061
0.58207
0.449319
0.290488
0.113316
-0.0761074
-0.274279
-0.479893
-0.693035
-0.913376
-1.13634
-1.35244
-1.54551
-1.69768
-1.79553
-1.83949
-1.84046
-1.81578
-1.77671
1.10715
0.976153
0.80818
0.614368
0.403429
0.182107
-0.0460475
-0.280439
-0.522654
-0.77486
-1.03593
-1.29913
-1.54875
-1.76226
-1.91679
-2.00301
-2.02803
-2.01294
-1.97611
1.56244
1.39308
1.18707
0.956855
0.711957
0.459741
0.203672
-0.0563065
-0.323154
-0.60156
-0.894414
-1.19991
-1.5063
-1.78991
-2.01841
-2.16734
-2.23121
-2.23014
-2.19247
1.92382
1.70862
1.46193
1.19707
0.924107
0.650204
0.377924
0.10605
-0.169826
-0.456739
-0.761571
-1.089
-1.43535
-1.78272
-2.09501
-2.33149
-2.46169
-2.48981
-2.44812
2.28052
2.0238
1.73715
1.43908
1.14068
0.848525
0.564155
0.2854
0.00707081
-0.279092
-0.582538
-0.91388
-1.27986
-1.67624
-2.07568
-2.43197
-2.68407
-2.7955
-2.77831
2.63247
2.32252
1.99267
1.66255
1.34222
1.03658
0.745673
0.4664
0.193441
-0.0813309
-0.367511
-0.678325
-1.02865
-1.43125
-1.88174
-2.3554
-2.78283
-3.0781
-3.15288
2.89462
2.50362
2.10707
1.72263
1.35726
1.01298
0.687634
0.377146
0.0761417
-0.222597
-0.52716
-0.849511
-1.20604
-1.61973
-2.11174
-2.70185
-3.37089
-4.0606
-4.65464
3.09514
2.65961
2.24958
1.87735
1.54366
1.24613
0.979648
0.73932
0.520218
0.3176
0.127939
-0.0534604
-0.232112
-0.417752
-0.626804
-0.891871
-1.25155
-1.75226
-2.42354
3.27479
2.81503
2.41193
2.06307
1.76072
1.49799
1.26729
1.06292
0.880046
0.714474
0.564273
0.427634
0.30422
0.19468
0.100923
0.0227359
-0.0425062
-0.107852
-0.198515
3.17881
2.65047
2.20659
1.8311
1.51011
1.23351
0.992195
0.779672
0.590858
0.421515
0.269856
0.134275
0.0144384
-0.0889548
-0.173547
-0.236882
-0.274819
-0.283723
-0.261865
2.85534
2.3579
1.94998
1.61166
1.32758
1.08667
0.879792
0.700428
0.543753
0.40593
0.285113
0.17971
0.0888538
0.0121184
-0.0504542
-0.0995038
-0.135647
-0.160132
-0.174596
2.42102
1.99097
1.6409
1.3534
1.11462
0.914222
0.743968
0.597885
0.471643
0.361797
0.266402
0.183788
0.112612
0.0518128
0.000613678
-0.0421718
-0.0775492
-0.106487
-0.130071
1.85288
1.51469
1.2435
1.02375
0.8434
0.693566
0.567469
0.460173
0.368165
0.288646
0.219884
0.160419
0.108951
0.0644395
0.026114
-0.00694969
-0.0354322
-0.0597851
-0.0805608
1.18052
0.954142
0.777889
0.637821
0.524383
0.431001
0.352969
0.286921
0.230515
0.181895
0.139857
0.103409
0.0716277
0.0437815
0.0193322
-0.00229858
-0.0215022
-0.0384291
-0.0532767
0.457212
0.36794
0.300656
0.247856
0.205203
0.16999
0.140398
0.115163
0.0934125
0.0744647
0.0578611
0.0432284
0.0302133
0.0185309
0.00796132
-0.00172501
-0.0106948
-0.0190086
-0.0267239
-0.456993
-0.36748
-0.300057
-0.247184
-0.204504
-0.169296
-0.139732
-0.114541
-0.0928464
-0.0739626
-0.0574284
-0.0428686
-0.0299286
-0.0183225
-0.00782978
0.0017794
0.0106721
0.0189096
0.0265499
-1.18032
-0.953751
-0.777385
-0.637263
-0.523811
-0.430447
-0.352453
-0.28646
-0.23012
-0.181574
-0.139615
-0.103248
-0.071549
-0.0437854
-0.0194174
0.00213385
0.0212602
0.0381133
0.0528916
-1.8527
-1.51433
-1.24303
-1.02321
-0.842831
-0.692993
-0.566914
-0.459652
-0.367691
-0.288227
-0.219525
-0.160123
-0.108716
-0.0642615
-0.0259873
0.00703309
0.0354817
0.0598104
0.080571
-2.4209
-1.99077
-1.64063
-1.35311
-1.11432
-0.913931
-0.743711
-0.597677
-0.471496
-0.36172
-0.266402
-0.183866
-0.112765
-0.0520342
-0.000892545
0.0418494
0.0771988
0.106124
0.129709
-2.85529
-2.35781
-1.94986
-1.61152
-1.32743
-1.08653
-0.879673
-0.700351
-0.543733
-0.40598
-0.285242
-0.179924
-0.0891525
-0.0124944
0.050017
0.0990299
0.135169
0.159688
0.174227
-3.17887
-2.65054
-2.20664
-1.83113
-1.51013
-1.23354
-0.99225
-0.779778
-0.591037
-0.421789
-0.270248
-0.134804
-0.0151215
0.0881089
0.172548
0.23577
0.273684
0.28271
0.261141
-3.27487
-2.81488
-2.41144
-2.06218
-1.75939
-1.49622
-1.26508
-1.06029
-0.876992
-0.711015
-0.560419
-0.423392
-0.299591
-0.189663
-0.0955516
-0.0171557
0.0479128
0.112253
0.200508
-3.09579
-2.66129
-2.25235
-1.88123
-1.54867
-1.25226
-0.986914
-0.747738
-0.529819
-0.328436
-0.140099
0.0398306
0.216762
0.400256
0.606514
0.867852
1.22282
1.71824
2.38476
-2.89445
-2.50308
-2.10606
-1.72109
-1.35516
-1.01031
-0.684416
-0.373399
-0.0719019
0.227279
0.532214
0.85484
1.21152
1.62523
2.11725
2.70766
3.37791
4.07042
4.6695
-2.63272
-2.32307
-1.99348
-1.66357
-1.34342
-1.03792
-0.747135
-0.467978
-0.195141
0.0794856
0.365481
0.676061
1.02613
1.42854
1.8791
2.35336
2.78205
3.07898
3.15491
-2.28068
-2.02415
-1.73766
-1.43972
-1.14142
-0.849344
-0.565043
-0.286359
-0.00811195
0.277948
0.581269
0.912486
1.27841
1.6749
2.07476
2.43182
2.6849
2.79718
2.78044
-1.92397
-1.70895
-1.46243
-1.19769
-0.924832
-0.65101
-0.378797
-0.106983
0.168832
0.455684
0.760466
1.08789
1.43435
1.78202
2.09483
2.33196
2.46277
2.49127
2.4497
-1.56258
-1.39339
-1.18754
-0.957461
-0.712672
-0.460541
-0.204537
0.0553917
0.322202
0.60059
0.893461
1.19905
1.50565
1.78961
2.01858
2.16799
2.23223
2.23136
2.19379
-1.10727
-0.976429
-0.808606
-0.614923
-0.404087
-0.182844
0.0452569
0.279616
0.521819
0.774046
1.03519
1.29854
1.54841
1.76225
1.91716
2.00372
2.02898
2.01404
1.97731
-0.680176
-0.582345
-0.449744
-0.291044
-0.113976
0.0753708
0.273495
0.479089
0.692243
0.912638
1.13571
1.35199
1.54532
1.6978
1.79596
1.8402
1.84136
1.81683
1.77789
-0.217004
-0.142162
-0.0379252
0.0887585
0.231493
0.385248
0.547212
0.715787
0.89005
1.06787
1.24247
1.40389
1.53791
1.63234
1.68095
1.68921
1.66741
1.62914
1.58166
0.241556
0.30085
0.383546
0.48291
0.593913
0.712678
0.837362
0.966267
1.09784
1.22879
1.35139
1.45677
1.53365
1.57491
1.57892
1.55267
1.50419
1.44364
1.37508
0.697731
0.795626
0.919288
1.05857
1.20586
1.35461
1.50023
1.63841
1.765
1.87485
1.96062
2.01512
2.03197
2.00916
1.94794
1.85097
1.71645
1.53228
1.26438
1.03803
1.03511
1.02701
1.01407
0.998993
0.985138
0.976084
0.973985
0.979201
0.98924
0.998872
1.00086
0.988111
0.954657
0.896202
0.808052
0.682259
0.499947
0.224042
1.41958
1.45663
1.48639
1.50844
1.52348
1.5326
1.53678
1.53618
1.52991
1.51486
1.48752
1.44283
1.37643
1.28442
1.16336
1.00739
0.807416
0.549191
0.214979
1.76119
1.78747
1.79598
1.79013
1.77292
1.74703
1.71452
1.67633
1.63206
1.57915
1.51503
1.43531
1.33623
1.21389
1.06482
0.884109
0.667844
0.415193
0.136458
2.07443
2.08263
2.06611
2.03129
1.98281
1.9246
1.8597
1.78958
1.71417
1.63111
1.53828
1.4316
1.30773
1.16318
0.995603
0.802724
0.585861
0.351475
0.113422
2.38073
2.36285
2.31729
2.25138
2.17096
2.08128
1.98631
1.88793
1.78611
1.67842
1.56282
1.43533
1.29293
1.13282
0.954019
0.756402
0.543884
0.323864
0.10581
2.66484
2.61454
2.53704
2.43826
2.32586
2.20668
2.0854
1.96386
1.84163
1.71581
1.58408
1.44234
1.28784
1.11831
0.933816
0.735254
0.526945
0.3148
0.104339
2.83896
2.76263
2.65569
2.52823
2.39114
2.25235
2.11634
1.98395
1.8536
1.72136
1.58436
1.43819
1.28025
1.10867
0.924098
0.727632
0.523077
0.314702
0.105664
3.04742
2.93973
2.79579
2.63445
2.4698
2.3103
2.15959
2.01711
1.87983
1.74263
1.60193
1.45292
1.29294
1.12019
0.935353
0.739114
0.534414
0.324167
0.110113
3.23203
3.07482
2.88826
2.69373
2.50617
2.33282
2.17529
2.03068
1.89397
1.75859
1.62011
1.47323
1.31509
1.14374
0.959697
0.763011
0.555863
0.340221
0.116949
3.34048
3.12987
2.90326
2.68293
2.48304
2.30779
2.15525
2.01933
1.89268
1.76711
1.63745
1.49789
1.34543
1.1779
0.99559
0.797927
0.586509
0.362593
0.1263
3.37279
3.11128
2.85073
2.61541
2.41623
2.25202
2.11599
1.99842
1.8896
1.77995
1.6638
1.53497
1.3904
1.22768
1.04694
0.846951
0.628825
0.393098
0.138949
3.37569
3.05821
2.77003
2.53128
2.34476
2.20186
2.0902
1.99665
1.90954
1.81827
1.7171
1.59957
1.46264
1.30364
1.12251
0.917249
0.688382
0.4355
0.156415
3.30878
2.94001
2.64283
2.42063
2.26401
2.15594
2.07844
2.01577
1.95505
1.8852
1.80091
1.69559
1.56631
1.41013
1.22673
1.01313
0.769067
0.492809
0.180199
2.99664
2.6286
2.36828
2.20256
2.10835
2.06037
2.03609
2.01867
1.99524
1.95515
1.89418
1.80597
1.68794
1.53692
1.35238
1.13015
0.868894
0.564958
0.211067
2.68482
2.34689
2.14883
2.05757
2.03505
2.05
2.0779
2.10289
2.11333
2.09955
2.05867
1.98447
1.87451
1.72503
1.53492
1.29815
1.01149
0.668164
0.2557
2.29409
2.02919
1.93637
1.94744
2.01185
2.09734
2.18119
2.25064
2.29635
2.31015
2.2904
2.23113
2.12966
1.9813
1.78373
1.52824
1.20846
0.812705
0.320297
1.63092
1.56309
1.64757
1.80095
1.97545
2.14624
2.29707
2.42007
2.5092
2.55835
2.56689
2.52943
2.44268
2.30067
2.09915
1.82587
1.46937
1.01035
0.414468
0.986635
1.19715
1.48179
1.77808
2.05739
2.30782
2.52215
2.69732
2.8306
2.91794
2.95859
2.94802
2.88131
2.75044
2.54773
2.25573
1.85408
1.31065
0.567077
0.369571
0.898646
1.38875
1.82514
2.20774
2.53875
2.82086
3.05491
3.24136
3.3784
3.46403
3.4952
3.46429
3.36052
3.17074
2.86991
2.42282
1.77545
0.828019
-0.0948844
0.724817
1.39413
1.95468
2.43434
2.84604
3.20159
3.50424
3.7575
3.9623
4.11425
4.21295
4.24713
4.20268
4.05836
3.77826
3.30266
2.5399
1.31827
-0.31818
0.691214
1.49145
2.15472
2.72487
3.21916
3.65681
4.04231
4.38258
4.68252
4.93516
5.14478
5.29689
5.37483
5.34726
5.16404
4.72745
3.8823
2.33502
-0.281328
0.783285
1.65981
2.40432
3.05914
3.6391
4.16913
4.65505
5.10847
5.5411
5.94527
6.33407
6.69442
7.01319
7.25151
7.34783
7.15409
6.41744
4.6504
-0.0512678
0.959394
1.86907
2.67818
3.41249
4.08043
4.71158
5.3156
5.91095
6.52233
7.14654
7.81362
8.52852
9.3028
10.1104
10.9122
11.5267
11.5917
10.3447
0.229075
1.15436
2.08391
2.95123
3.76035
4.51556
5.25052
5.98598
6.74769
7.58751
8.51497
9.59225
10.8976
12.5537
14.7124
17.7745
22.369
29.8601
43.0664
)
;

boundaryField
{
    up
    {
        type            calculated;
        value           nonuniform List<scalar> 
84
(
-43.0664
-10.3447
-4.6504
-2.33502
-1.31827
-0.828019
-0.567077
-0.414468
-0.320296
-0.255699
-0.211065
-0.180198
-0.156413
-0.138947
-0.126299
-0.116948
-0.110113
-0.105664
-0.104341
-0.105813
-0.113428
-0.136475
-0.215018
-0.224399
-1.08715
-1.30316
-1.51775
-1.71502
-1.91158
-2.12114
-2.3611
-2.64652
-2.94932
-4.67052
-2.52701
-0.204142
-0.262211
-0.174633
-0.130071
-0.0805707
-0.0532872
-0.026739
0.0265648
0.0529023
0.0805812
0.129708
0.174263
0.261483
0.206069
2.48677
4.68843
2.95104
2.64836
2.3626
2.12243
1.91278
1.71622
1.51907
1.30446
1.09247
0.224042
0.214979
0.136458
0.113422
0.10581
0.104339
0.105664
0.110113
0.116949
0.1263
0.138949
0.156415
0.180199
0.211067
0.2557
0.320297
0.414468
0.567077
0.828019
1.31827
2.33502
4.6504
10.3447
43.0664
)
;
    }
    low
    {
        type            calculated;
        value           nonuniform List<scalar> 
84
(
-0.207172
0.0833258
0.333815
0.375941
0.131539
-0.376378
-1.04295
-1.72537
-2.402
-2.77042
-3.06812
-3.36077
-3.38714
-3.35876
-3.3101
-3.1799
-2.97797
-2.76598
-2.58249
-2.28143
-1.96896
-1.65729
-1.32107
-0.953682
-0.632862
-0.218571
0.190356
0.612706
1.01775
1.46808
1.84002
2.20589
2.5744
2.86146
3.08356
3.29065
3.22657
2.91331
2.47667
1.89961
1.21259
0.470912
-0.470691
-1.21239
-1.89941
-2.47653
-2.91322
-3.22658
-3.29067
-3.08411
-2.86129
-2.5746
-2.20603
-1.84016
-1.46821
-1.01787
-0.612825
-0.190451
0.218376
0.633011
0.953561
1.32116
1.65733
1.969
2.28147
2.58252
2.76601
2.97799
3.17993
3.31011
3.35877
3.38716
3.36077
3.06815
2.77046
2.40203
1.7254
1.04297
0.376395
-0.131528
-0.375935
-0.333813
-0.0833238
0.207171
)
;
    }
    left
    {
        type            calculated;
        value           nonuniform List<scalar> 
19
(
-0.202742
-1.10668
-2.05386
-2.94975
-3.79248
-4.58216
-5.35572
-6.13769
-6.95401
-7.87184
-8.8995
-10.1092
-11.606
-13.5589
-16.1612
-19.9797
-25.8879
-35.7907
-37.3555
)
;
    }
    right
    {
        type            calculated;
        value           nonuniform List<scalar> 
19
(
0.202739
1.10667
2.05385
2.94974
3.79247
4.58216
5.35572
6.13769
6.95401
7.87184
8.8995
10.1092
11.6061
13.5589
16.1612
19.9797
25.8879
35.7907
37.3555
)
;
    }
    frontAndBackPlanes
    {
        type            empty;
    }
}


// ************************************************************************* //
