/*--------------------------------*- C++ -*----------------------------------*\
  =========                 |
  \\      /  F ield         | OpenFOAM: The Open Source CFD Toolbox
   \\    /   O peration     | Website:  https://openfoam.org
    \\  /    A nd           | Version:  7
     \\/     M anipulation  |
\*---------------------------------------------------------------------------*/
FoamFile
{
    version     2.0;
    format      ascii;
    class       volScalarField;
    location    "0.426";
    object      T;
}
// * * * * * * * * * * * * * * * * * * * * * * * * * * * * * * * * * * * * * //

dimensions      [0 0 0 1 0 0 0];

internalField   nonuniform List<scalar> 
1596
(
6.98561
6.94413
6.90102
6.859
6.81848
6.77866
6.73857
6.69631
6.65054
6.59817
6.53682
6.46331
6.36984
6.24508
6.07092
5.80623
5.37384
4.61929
3.23331
6.93768
6.80828
6.68415
6.56655
6.4544
6.34523
6.23634
6.1238
6.00438
5.87255
5.72377
5.55265
5.34824
5.09649
4.77929
4.36079
3.78445
2.95212
1.67792
6.8809
6.66307
6.46379
6.27903
6.1049
5.93714
5.77165
5.60338
5.4281
5.23951
5.03256
4.80159
4.53627
4.22437
3.8519
3.39294
2.81063
2.04698
0.993261
6.82479
6.52415
6.25718
6.01368
5.78668
5.57027
5.35926
5.14798
4.93175
4.70422
4.46052
4.19543
3.90018
3.56504
3.18009
2.72745
2.18389
1.51595
0.660362
6.77823
6.40608
6.08016
5.78593
5.51404
5.2573
5.00975
4.76538
4.51934
4.26546
3.99924
3.71603
3.40847
3.06896
2.69054
2.26086
1.76523
1.18434
0.480883
6.74705
6.31883
5.94359
5.60599
5.29575
5.00504
4.72748
4.45693
4.18849
3.91625
3.63601
3.34359
3.03268
2.69722
2.33218
1.92878
1.47747
0.967027
0.37483
6.73209
6.26524
5.8509
5.4768
5.13349
4.81343
4.51022
4.21782
3.93139
3.64525
3.35545
3.0581
2.74764
2.419
2.06835
1.68915
1.27495
0.819117
0.30746
6.73002
6.24132
5.79831
5.39434
5.02255
4.67658
4.35058
4.03886
3.73678
3.43891
3.14148
2.84081
2.53181
2.21002
1.87235
1.5136
1.12921
0.715172
0.262218
6.73754
6.24144
5.77956
5.35207
4.95589
4.58673
4.23984
3.91019
3.59352
3.2847
2.98015
2.67631
2.3684
2.05233
1.72537
1.38318
1.02229
0.640218
0.230592
6.74764
6.25374
5.78157
5.33686
4.9206
4.53106
4.16509
3.81865
3.48807
3.16866
2.85703
2.54977
2.24228
1.93068
1.61241
1.28361
0.941436
0.584268
0.207522
6.7561
6.26858
5.7923
5.33602
4.90399
4.49713
4.11413
3.7522
3.40849
3.07887
2.76025
2.44935
2.14176
1.83369
1.52261
1.20493
0.87811
0.54097
0.190005
6.76648
6.28813
5.81148
5.34747
4.90294
4.48116
4.08272
3.70624
3.34987
3.01012
2.68433
2.36941
2.06107
1.75558
1.45036
1.14189
0.827741
0.506896
0.176444
6.77649
6.30885
5.83434
5.36548
4.9111
4.47652
4.06415
3.67408
3.30555
2.95586
2.62283
2.30363
1.99411
1.69054
1.39024
1.08966
0.786325
0.479164
0.165588
6.78324
6.32523
5.85413
5.38259
4.9207
4.4754
4.05075
3.64829
3.26839
2.90924
2.56922
2.24582
1.93505
1.63322
1.33747
1.04412
0.750551
0.45551
0.156502
6.78916
6.33928
5.8716
5.39841
4.93044
4.47587
4.04017
3.62622
3.23557
2.86733
2.52051
2.19299
1.88099
1.5808
1.28943
1.00297
0.718548
0.434626
0.148638
6.79491
6.35231
5.88766
5.41311
4.93979
4.47682
4.03086
3.60604
3.20504
2.82791
2.47438
2.14277
1.82954
1.53101
1.24399
0.964329
0.688801
0.415471
0.141571
6.79926
6.36279
5.90068
5.42482
4.94659
4.47582
4.02021
3.58502
3.17401
2.78821
2.42808
2.09245
1.77809
1.48138
1.19893
0.926296
0.659818
0.397056
0.134921
6.80265
6.37109
5.91093
5.43358
4.95056
4.47229
4.00734
3.56204
3.14118
2.74675
2.38
2.04032
1.72485
1.4301
1.15254
0.887367
0.630418
0.378613
0.128396
6.80773
6.38141
5.92287
5.44365
4.95553
4.4695
3.99496
3.53921
3.10808
2.70453
2.33062
1.98638
1.66942
1.37645
1.10386
0.846546
0.599748
0.359582
0.121798
6.81352
6.39326
5.93644
5.45514
4.96162
4.46746
3.98291
3.51621
3.07419
2.66079
2.27895
1.92941
1.61031
1.3187
1.05104
0.802008
0.566275
0.33897
0.114807
6.81794
6.40349
5.94844
5.46505
4.966
4.46353
3.96867
3.49062
3.03717
2.61327
2.22274
1.86708
1.54509
1.25428
0.99136
0.751041
0.527612
0.31517
0.106907
6.82216
6.41302
5.95954
5.47386
4.96905
4.45792
3.95231
3.46231
2.99668
2.56136
2.16107
1.79818
1.47217
1.18114
0.922248
0.690582
0.480554
0.285649
0.0972133
6.82671
6.42267
5.97038
5.482
4.97095
4.45064
3.93364
3.4309
2.95209
2.50415
2.09276
1.72116
1.38962
1.09685
0.840586
0.616582
0.420116
0.245417
0.0833296
6.83128
6.4319
5.98008
5.48826
4.97025
4.44003
3.91086
3.39449
2.90141
2.43951
2.01548
1.63349
1.29464
0.998282
0.742639
0.524105
0.339249
0.184738
0.0559284
6.83823
6.44945
6.00559
5.51896
5.00325
4.47243
3.9398
3.41733
2.91592
2.44408
2.00942
1.61717
1.26947
0.966429
0.706809
0.487198
0.304568
0.15679
0.042103
6.8457
6.47118
6.04118
5.56752
5.06326
4.54164
4.01539
3.49602
2.9942
2.51859
2.07727
1.67647
1.31952
1.00766
0.740325
0.51421
0.325682
0.171591
0.048645
6.84903
6.48252
6.06162
5.59763
5.10299
4.59016
4.07111
3.55659
3.05671
2.57983
2.13412
1.7265
1.36136
1.04122
0.766551
0.534403
0.340822
0.181863
0.0530828
6.84822
6.483
6.06602
5.60812
5.12103
4.61637
4.10514
3.59714
3.10156
2.62608
2.17857
1.76618
1.3942
1.06649
0.784907
0.547294
0.349698
0.187566
0.0555223
6.84451
6.47527
6.05814
5.60358
5.12257
4.62578
4.1231
3.62318
3.1341
2.66256
2.2157
1.8005
1.42277
1.08767
0.798824
0.555477
0.354195
0.189998
0.0565681
6.83804
6.46099
6.04117
5.58844
5.11293
4.62425
4.13111
3.64088
3.16042
2.69523
2.25146
1.83544
1.45298
1.11024
0.81281
0.562144
0.35626
0.190223
0.0566273
6.82974
6.44311
6.01959
5.56829
5.09845
4.61857
4.1361
3.65715
3.18731
2.73084
2.29269
1.87815
1.49235
1.14172
0.833614
0.572302
0.35875
0.189442
0.0560422
6.82228
6.42624
5.99909
5.54954
5.08596
4.61574
4.14509
3.6789
3.22156
2.77617
2.34647
1.9364
1.5498
1.19226
0.871727
0.595026
0.367454
0.189758
0.0549596
6.81454
6.40918
5.97899
5.53213
5.07603
4.61686
4.15964
3.70809
3.2656
2.83424
2.41671
2.0157
1.63337
1.27342
0.942408
0.647511
0.397421
0.199466
0.0536818
6.80642
6.39225
5.96021
5.51762
5.0707
4.62439
4.18251
3.74776
3.32267
2.90859
2.50751
2.12131
1.75079
1.39763
1.06557
0.758911
0.484907
0.253586
0.0714932
6.79694
6.37176
5.93556
5.49474
5.05429
4.61795
4.18845
3.76766
3.35746
2.95869
2.57305
2.2021
1.8462
1.50608
1.18345
0.879029
0.594783
0.335548
0.105532
6.78273
6.33786
5.88899
5.44116
4.99801
4.56215
4.13539
3.71884
3.31386
2.92088
2.54138
2.17677
1.82743
1.49419
1.17888
0.881941
0.604415
0.348474
0.113918
6.76488
6.29502
5.82886
5.36942
4.91883
4.47857
4.04958
3.63232
3.22769
2.83579
2.45794
2.09557
1.74914
1.4198
1.10993
0.820745
0.554335
0.314005
0.100347
6.74893
6.2571
5.77594
5.30657
4.84976
4.40601
3.97551
3.55818
3.15458
2.76456
2.38937
2.03048
1.68843
1.36453
1.06138
0.780342
0.523612
0.294472
0.093388
6.73648
6.22684
5.73333
5.25574
4.79382
4.34724
3.91563
3.49847
3.09605
2.70803
2.3356
1.98021
1.6424
1.32352
1.02619
0.751776
0.502413
0.281325
0.0888768
6.72663
6.20302
5.69992
5.21602
4.75024
4.30163
3.86935
3.45255
3.05131
2.66514
2.29515
1.94277
1.60849
1.29363
1.00084
0.731393
0.487418
0.272101
0.0857552
6.71945
6.18578
5.67594
5.18773
4.7194
4.26955
3.83698
3.42061
3.02037
2.63565
2.26751
1.91733
1.58558
1.27354
0.983836
0.717745
0.477367
0.265902
0.0836514
6.71429
6.17466
5.66128
5.17104
4.70166
4.25144
3.81899
3.4031
3.00361
2.61986
2.25289
1.90404
1.57375
1.2633
0.97529
0.71098
0.472455
0.262915
0.0826612
6.7143
6.17468
5.6613
5.17107
4.7017
4.25148
3.81902
3.40313
3.00364
2.61989
2.25291
1.90406
1.57377
1.26331
0.975304
0.710991
0.472462
0.262919
0.0826626
6.71947
6.18584
5.67602
5.18782
4.7195
4.26965
3.83708
3.42071
3.02046
2.63573
2.26759
1.9174
1.58564
1.27359
0.983882
0.717782
0.477394
0.265918
0.0836572
6.72667
6.20312
5.70005
5.21617
4.75039
4.30179
3.8695
3.4527
3.05145
2.66527
2.29528
1.94288
1.60859
1.29371
1.0009
0.731443
0.487453
0.272122
0.0857622
6.73653
6.22696
5.7335
5.25594
4.79402
4.34745
3.91583
3.49867
3.09623
2.7082
2.33575
1.98034
1.64252
1.32361
1.02627
0.75183
0.50245
0.281347
0.0888835
6.74899
6.25725
5.77614
5.3068
4.85001
4.40626
3.97576
3.55842
3.1548
2.76476
2.38955
2.03063
1.68855
1.36462
1.06145
0.780392
0.523644
0.294489
0.0933922
6.76494
6.29519
5.82909
5.36968
4.91911
4.47886
4.04986
3.63259
3.22794
2.83601
2.45813
2.09572
1.74926
1.41987
1.10997
0.820762
0.554334
0.313996
0.10034
6.7828
6.33804
5.88924
5.44145
4.99833
4.56247
4.1357
3.71913
3.31411
2.9211
2.54155
2.17689
1.82749
1.49419
1.17882
0.881839
0.604291
0.348364
0.113866
6.79703
6.37202
5.93597
5.49528
5.05494
4.61868
4.18926
3.76853
3.35838
2.95966
2.57405
2.20312
1.84724
1.50715
1.18453
0.880093
0.595771
0.336326
0.105881
6.80653
6.39255
5.9607
5.51828
5.07152
4.62535
4.1836
3.74896
3.32397
2.90997
2.50896
2.12282
1.75234
1.39919
1.06708
0.760294
0.486043
0.254345
0.0717736
6.81462
6.40943
5.9794
5.5327
5.07673
4.61769
4.16057
3.70912
3.2667
2.83541
2.41792
2.01693
1.63458
1.27457
0.943435
0.648336
0.39798
0.199743
0.0537325
6.82235
6.42647
5.99947
5.55006
5.08661
4.61651
4.14596
3.67985
3.22258
2.77724
2.34756
1.93748
1.55082
1.19318
0.872489
0.595587
0.367804
0.189928
0.0550037
6.8298
6.44331
6.01993
5.56877
5.09905
4.61928
4.13691
3.65804
3.18825
2.73181
2.29367
1.87909
1.49322
1.14247
0.834208
0.572726
0.359015
0.189579
0.0560827
6.83809
6.46116
6.04147
5.58887
5.11348
4.62491
4.13186
3.6417
3.16128
2.69611
2.25233
1.83627
1.45373
1.11086
0.8133
0.562495
0.356486
0.190347
0.056666
6.84456
6.47542
6.05841
5.60397
5.12307
4.62638
4.12379
3.62393
3.13489
2.66336
2.21648
1.80123
1.42342
1.08821
0.799248
0.555786
0.354401
0.190116
0.0566067
6.84826
6.48313
6.06626
5.60847
5.12148
4.61691
4.10576
3.59782
3.10227
2.62681
2.17927
1.76683
1.39477
1.06697
0.785287
0.547578
0.349894
0.187683
0.0555632
6.84906
6.48263
6.06182
5.59794
5.10339
4.59065
4.07167
3.55721
3.05736
2.58048
2.13475
1.72708
1.36187
1.04166
0.766902
0.534675
0.341018
0.181987
0.0531293
6.84572
6.47127
6.04136
5.56779
5.06361
4.54207
4.01589
3.49657
2.99478
2.51917
2.07783
1.677
1.31999
1.00806
0.740659
0.51448
0.325888
0.171729
0.0487023
6.83823
6.44946
6.00562
5.51901
5.00333
4.47252
3.9399
3.41744
2.91603
2.44418
2.00949
1.61722
1.26949
0.966425
0.706783
0.487156
0.304521
0.15675
0.042085
6.83127
6.43186
5.98002
5.48817
4.97014
4.4399
3.91071
3.39432
2.90123
2.43933
2.01529
1.6333
1.29445
0.998099
0.742469
0.523954
0.339126
0.184653
0.0558931
6.82671
6.42266
5.97035
5.48197
4.97092
4.4506
3.93359
3.43085
2.95205
2.50411
2.09273
1.72114
1.3896
1.09684
0.840582
0.616585
0.420125
0.245426
0.0833335
6.82216
6.413
5.95952
5.47384
4.96902
4.45788
3.95227
3.46228
2.99665
2.56133
2.16105
1.79816
1.47216
1.18113
0.922246
0.690584
0.480558
0.285653
0.0972146
6.81794
6.40348
5.94843
5.46503
4.96598
4.4635
3.96864
3.49059
3.03715
2.61325
2.22272
1.86707
1.54508
1.25427
0.991359
0.751042
0.527614
0.315171
0.106907
6.81352
6.39326
5.93643
5.45512
4.9616
4.46744
3.98288
3.51619
3.07417
2.66078
2.27894
1.9294
1.6103
1.31869
1.05104
0.802008
0.566276
0.33897
0.114807
6.80773
6.38141
5.92286
5.44364
4.95552
4.46948
3.99494
3.5392
3.10807
2.70452
2.33061
1.98637
1.66941
1.37645
1.10386
0.846545
0.599748
0.359582
0.121798
6.80264
6.37108
5.91093
5.43357
4.95055
4.47228
4.00733
3.56203
3.14117
2.74674
2.37999
2.04031
1.72485
1.4301
1.15254
0.887366
0.630418
0.378613
0.128396
6.79926
6.36278
5.90068
5.42481
4.94658
4.47582
4.0202
3.58501
3.174
2.78821
2.42808
2.09245
1.77809
1.48138
1.19893
0.926295
0.659817
0.397055
0.134921
6.79491
6.35231
5.88765
5.4131
4.93979
4.47682
4.03086
3.60604
3.20504
2.82791
2.47438
2.14277
1.82954
1.53101
1.24399
0.964328
0.688801
0.415471
0.141571
6.78916
6.33928
5.8716
5.39841
4.93044
4.47587
4.04017
3.62622
3.23557
2.86733
2.52051
2.19299
1.88099
1.5808
1.28943
1.00297
0.718547
0.434626
0.148637
6.78324
6.32523
5.85413
5.38259
4.9207
4.4754
4.05075
3.64829
3.26839
2.90924
2.56922
2.24582
1.93505
1.63322
1.33747
1.04412
0.750551
0.45551
0.156502
6.77649
6.30885
5.83434
5.36548
4.9111
4.47652
4.06415
3.67408
3.30555
2.95586
2.62283
2.30363
1.99411
1.69054
1.39024
1.08966
0.786325
0.479164
0.165588
6.76648
6.28813
5.81148
5.34747
4.90294
4.48116
4.08272
3.70624
3.34987
3.01012
2.68433
2.36941
2.06107
1.75558
1.45036
1.14189
0.827742
0.506896
0.176444
6.7561
6.26858
5.7923
5.33602
4.90399
4.49714
4.11413
3.7522
3.40849
3.07887
2.76025
2.44936
2.14176
1.83369
1.52261
1.20493
0.878111
0.540971
0.190006
6.74764
6.25374
5.78157
5.33686
4.9206
4.53106
4.16509
3.81865
3.48807
3.16866
2.85703
2.54977
2.24228
1.93068
1.61241
1.28361
0.941438
0.58427
0.207522
6.73754
6.24144
5.77956
5.35206
4.95589
4.58673
4.23984
3.91019
3.59352
3.2847
2.98015
2.67631
2.3684
2.05233
1.72537
1.38319
1.02229
0.64022
0.230593
6.73002
6.24132
5.79831
5.39434
5.02255
4.67658
4.35058
4.03885
3.73678
3.4389
3.14148
2.84081
2.53181
2.21002
1.87235
1.5136
1.12921
0.715173
0.262218
6.73209
6.26523
5.8509
5.47679
5.13349
4.81343
4.51022
4.21782
3.93139
3.64525
3.35545
3.0581
2.74764
2.419
2.06835
1.68915
1.27495
0.819118
0.307461
6.74705
6.31883
5.94359
5.60599
5.29574
5.00504
4.72748
4.45692
4.18849
3.91625
3.63601
3.34359
3.03268
2.69722
2.33218
1.92878
1.47747
0.967028
0.374831
6.77823
6.40608
6.08015
5.78592
5.51403
5.2573
5.00974
4.76537
4.51933
4.26546
3.99924
3.71603
3.40846
3.06896
2.69054
2.26086
1.76523
1.18434
0.480883
6.82479
6.52415
6.25718
6.01367
5.78668
5.57027
5.35926
5.14798
4.93175
4.70421
4.46051
4.19543
3.90017
3.56504
3.18009
2.72745
2.18389
1.51595
0.660362
6.8809
6.66307
6.46379
6.27903
6.1049
5.93713
5.77165
5.60338
5.4281
5.23951
5.03256
4.80158
4.53627
4.22437
3.8519
3.39294
2.81062
2.04698
0.993261
6.93768
6.80828
6.68415
6.56655
6.4544
6.34523
6.23634
6.1238
6.00438
5.87255
5.72377
5.55264
5.34823
5.09649
4.77928
4.36079
3.78444
2.95212
1.67792
6.98561
6.94413
6.90102
6.859
6.81848
6.77866
6.73857
6.69631
6.65054
6.59817
6.53682
6.46331
6.36984
6.24508
6.07092
5.80623
5.37384
4.61929
3.23331
)
;

boundaryField
{
    up
    {
        type            fixedValue;
        value           uniform 0;
    }
    low
    {
        type            fixedValue;
        value           uniform 7;
    }
    left
    {
        type            fixedValue;
        value           uniform 7;
    }
    right
    {
        type            fixedValue;
        value           uniform 7;
    }
    frontAndBackPlanes
    {
        type            empty;
    }
}


// ************************************************************************* //
