/*--------------------------------*- C++ -*----------------------------------*\
  =========                 |
  \\      /  F ield         | OpenFOAM: The Open Source CFD Toolbox
   \\    /   O peration     | Website:  https://openfoam.org
    \\  /    A nd           | Version:  7
     \\/     M anipulation  |
\*---------------------------------------------------------------------------*/
FoamFile
{
    version     2.0;
    format      ascii;
    class       volScalarField;
    location    "0.444";
    object      T;
}
// * * * * * * * * * * * * * * * * * * * * * * * * * * * * * * * * * * * * * //

dimensions      [0 0 0 1 0 0 0];

internalField   nonuniform List<scalar> 
1596
(
2.99392
2.97639
2.95816
2.94035
2.92312
2.90613
2.88897
2.87083
2.85113
2.82857
2.80213
2.77047
2.73027
2.67667
2.60193
2.48843
2.30308
1.97969
1.3857
2.97367
2.919
2.86647
2.81661
2.76892
2.72235
2.67574
2.62742
2.57602
2.51921
2.45506
2.3813
2.29328
2.18502
2.04876
1.86917
1.62201
1.26522
0.719105
2.9497
2.85765
2.77334
2.695
2.62095
2.54939
2.47855
2.4063
2.33085
2.24955
2.16027
2.06064
1.94628
1.81199
1.65183
1.4547
1.20484
0.877372
0.425693
2.92601
2.799
2.68605
2.58282
2.48631
2.39401
2.30371
2.213
2.11992
2.0218
1.9166
1.80214
1.67473
1.53027
1.36453
1.16992
0.936489
0.649909
0.283047
2.90638
2.74919
2.61134
2.48664
2.37108
2.26162
2.15572
2.05083
1.94492
1.83541
1.72042
1.59802
1.46514
1.31859
1.15544
0.970464
0.757386
0.507955
0.20617
2.89326
2.71246
2.55381
2.41078
2.27899
2.15511
2.03642
1.92035
1.80482
1.68737
1.56626
1.43977
1.30529
1.16027
1.00265
0.828725
0.634445
0.415025
0.160776
2.88701
2.68997
2.51487
2.35646
2.21071
2.07442
1.94486
1.81948
1.69626
1.57282
1.44753
1.31881
1.18436
1.04209
0.89044
0.726674
0.548089
0.351879
0.131976
2.8862
2.68005
2.49292
2.32196
2.16423
2.01702
1.87783
1.74427
1.61439
1.48592
1.35732
1.22708
1.09313
0.953628
0.807346
0.652141
0.486116
0.30761
0.112672
2.88944
2.68027
2.48529
2.30449
2.13654
1.97959
1.83162
1.6905
1.55444
1.42131
1.28963
1.15797
1.02437
0.887176
0.745306
0.596995
0.440824
0.275798
0.0992177
2.89376
2.68564
2.48643
2.29847
2.12214
1.95666
1.8007
1.65252
1.5106
1.37298
1.23828
1.10511
0.971603
0.836188
0.697872
0.5551
0.406734
0.252154
0.08944
2.89739
2.69208
2.49124
2.29852
2.11564
1.94294
1.77986
1.6252
1.47777
1.33584
1.19816
1.06341
0.929785
0.795765
0.660376
0.522177
0.380176
0.23395
0.0820507
2.90181
2.70048
2.49961
2.30374
2.11569
1.9368
1.76729
1.60655
1.45382
1.30763
1.16692
1.03044
0.896434
0.763417
0.630393
0.495963
0.359184
0.219711
0.0763626
2.90608
2.70937
2.50951
2.31171
2.11962
1.93543
1.76013
1.59373
1.43591
1.28556
1.14179
1.00347
0.868917
0.736639
0.605597
0.474378
0.34203
0.208196
0.0718372
2.90896
2.71641
2.5181
2.31928
2.12413
1.93552
1.75512
1.58355
1.42098
1.26666
1.11995
0.979839
0.844723
0.713111
0.583902
0.455631
0.32728
0.198423
0.0680704
2.91149
2.72246
2.52569
2.32628
2.12866
1.93623
1.75124
1.57489
1.40783
1.24969
1.10011
0.958251
0.822579
0.691614
0.564178
0.438719
0.314118
0.189824
0.0648239
2.91394
2.72806
2.53266
2.33277
2.133
1.9371
1.74785
1.56696
1.39556
1.23369
1.08127
0.93767
0.801449
0.671142
0.545488
0.422824
0.301881
0.181943
0.0619133
2.9158
2.73257
2.53833
2.33798
2.13622
1.9371
1.74383
1.5586
1.38298
1.21745
1.06223
0.916911
0.780184
0.65061
0.526848
0.407099
0.289909
0.174344
0.0591702
2.91725
2.73615
2.54281
2.34191
2.1382
1.93597
1.7388
1.54931
1.36953
1.20033
1.04228
0.895212
0.757987
0.629215
0.507493
0.390872
0.277673
0.166683
0.0564652
2.9194
2.74056
2.54797
2.34635
2.14055
1.93509
1.73389
1.53998
1.35584
1.18273
1.02161
0.872559
0.734658
0.60661
0.486981
0.373684
0.264782
0.158704
0.0537083
2.92184
2.74559
2.55378
2.35134
2.14331
1.93445
1.72902
1.53046
1.34166
1.16433
0.999764
0.848391
0.709523
0.582017
0.464472
0.354712
0.250543
0.149959
0.0507547
2.9237
2.74992
2.5589
2.35562
2.14528
1.93292
1.72312
1.51971
1.32599
1.14411
0.975749
0.82168
0.681502
0.554283
0.438748
0.332735
0.233882
0.139723
0.0473719
2.92547
2.75394
2.5636
2.35938
2.14661
1.93058
1.71619
1.50764
1.30865
1.12178
0.949146
0.791865
0.649866
0.522481
0.408647
0.306374
0.213358
0.126859
0.043162
2.92738
2.75799
2.56814
2.36278
2.14737
1.92742
1.70812
1.49406
1.28934
1.09695
0.919411
0.758253
0.613751
0.485525
0.372775
0.273819
0.186743
0.109137
0.0370545
2.92928
2.76183
2.57216
2.36531
2.14691
1.9227
1.69814
1.47815
1.26718
1.06865
0.885511
0.719716
0.57192
0.442031
0.32948
0.232881
0.150903
0.0822227
0.0248946
2.93218
2.76914
2.58277
2.37805
2.16057
1.93603
1.70995
1.48731
1.27274
1.06991
0.882186
0.711971
0.560363
0.427613
0.313379
0.216367
0.135426
0.0697725
0.0187438
2.93529
2.77817
2.59756
2.39825
2.18554
1.96488
1.74151
1.52023
1.30557
1.10124
0.9108
0.73707
0.581646
0.445249
0.327826
0.228114
0.144688
0.076312
0.0216507
2.93666
2.78282
2.60593
2.41059
2.20184
1.98482
1.76446
1.54525
1.33145
1.12666
0.934453
0.757932
0.599143
0.459346
0.338914
0.236732
0.151223
0.080797
0.0236095
2.93629
2.78288
2.60751
2.41457
2.20887
1.99518
1.77805
1.56156
1.3496
1.14546
0.952569
0.774128
0.612547
0.469652
0.346405
0.24202
0.15491
0.083211
0.0246665
2.93469
2.77945
2.60384
2.41213
2.20882
1.9983
1.78468
1.57156
1.36235
1.15992
0.967386
0.787857
0.62395
0.478037
0.351831
0.245141
0.156596
0.0841368
0.0250913
2.93191
2.77322
2.59629
2.40514
2.20395
1.9967
1.78699
1.57791
1.37234
1.17265
0.981526
0.801761
0.635966
0.486923
0.357191
0.247518
0.157154
0.0840541
0.0250674
2.92834
2.76543
2.58672
2.39596
2.19697
1.99327
1.78796
1.58359
1.38253
1.1866
0.997969
0.818961
0.651881
0.499614
0.365449
0.251354
0.15785
0.0835004
0.0247495
2.92511
2.75802
2.57755
2.3873
2.19076
1.99099
1.79058
1.59158
1.39585
1.20471
1.01979
0.842849
0.675592
0.520529
0.381184
0.260617
0.161219
0.0834043
0.0242062
2.92175
2.75049
2.56849
2.37917
2.1856
1.99037
1.79556
1.60275
1.41336
1.22829
1.04871
0.87582
0.710592
0.554695
0.411032
0.282789
0.173818
0.0873842
0.0235738
2.9182
2.74297
2.55996
2.37223
2.18238
1.99247
1.80411
1.61843
1.4365
1.2589
1.08651
0.920152
0.760228
0.607495
0.463621
0.330523
0.211403
0.110676
0.0312504
2.91406
2.73392
2.5489
2.36171
2.17442
1.9886
1.80541
1.62563
1.45005
1.27905
1.11337
0.953705
0.80025
0.653354
0.513792
0.381912
0.258606
0.146003
0.0459625
2.9079
2.71914
2.5285
2.33809
2.14945
1.96367
1.78149
1.60341
1.42998
1.26142
1.09836
0.941462
0.790904
0.647082
0.510821
0.382354
0.262163
0.15122
0.0494609
2.90018
2.70055
2.50232
2.30675
2.11475
1.92691
1.74364
1.56513
1.39177
1.22361
1.06124
0.905308
0.756047
0.613981
0.480181
0.355203
0.239983
0.135979
0.0434694
2.89326
2.68404
2.47922
2.27924
2.08442
1.89496
1.71093
1.5323
1.35932
1.19194
1.03072
0.876313
0.728997
0.589361
0.458568
0.337234
0.226335
0.127312
0.0403832
2.88784
2.67083
2.46056
2.25693
2.0598
1.86903
1.68445
1.50583
1.33333
1.16679
1.00677
0.853914
0.708484
0.571087
0.442899
0.324523
0.216912
0.121474
0.0383808
2.88354
2.66041
2.44592
2.23948
2.04061
1.8489
1.66398
1.48548
1.31346
1.14773
0.988775
0.837243
0.693381
0.557783
0.431615
0.315461
0.210252
0.117382
0.0369965
2.88041
2.65288
2.43542
2.22706
2.02705
1.83476
1.64967
1.47134
1.29974
1.13463
0.976489
0.825932
0.683192
0.548848
0.424062
0.309404
0.205798
0.114638
0.0360658
2.87817
2.64804
2.42902
2.21976
2.01927
1.82679
1.64175
1.46361
1.29233
1.12764
0.970005
0.820032
0.677941
0.544302
0.42027
0.306403
0.203621
0.113316
0.0356276
2.87818
2.64804
2.42903
2.21977
2.01928
1.82681
1.64176
1.46362
1.29234
1.12765
0.970015
0.820041
0.677949
0.544309
0.420275
0.306408
0.203624
0.113318
0.0356282
2.88042
2.6529
2.43545
2.2271
2.02709
1.8348
1.64972
1.47138
1.29978
1.13467
0.976522
0.825962
0.683218
0.548871
0.424081
0.309419
0.205809
0.114645
0.0360682
2.88356
2.66045
2.44598
2.23955
2.04068
1.84897
1.66404
1.48555
1.31352
1.14778
0.988825
0.837287
0.693419
0.557815
0.431641
0.315481
0.210266
0.117391
0.0369993
2.88786
2.67088
2.46063
2.25701
2.05989
1.86912
1.68453
1.50592
1.3334
1.16686
1.00684
0.853967
0.708528
0.571124
0.442927
0.324544
0.216926
0.121482
0.0383833
2.89329
2.6841
2.4793
2.27933
2.08452
1.89506
1.71103
1.5324
1.35941
1.19202
1.03079
0.876372
0.729045
0.589399
0.458595
0.337253
0.226346
0.127317
0.0403846
2.90021
2.70062
2.50241
2.30686
2.11487
1.92703
1.74376
1.56524
1.39187
1.22369
1.06131
0.905366
0.75609
0.614009
0.480195
0.355206
0.23998
0.135973
0.0434654
2.90793
2.71922
2.5286
2.33822
2.14958
1.9638
1.78162
1.60352
1.43008
1.2615
1.09843
0.941505
0.790923
0.647075
0.51079
0.382305
0.262106
0.151169
0.0494374
2.91409
2.73402
2.54907
2.36193
2.17469
1.98891
1.80576
1.626
1.45044
1.27946
1.11379
0.954138
0.800693
0.653807
0.514252
0.382368
0.259031
0.146338
0.0461134
2.91824
2.7431
2.56017
2.37251
2.18272
1.99288
1.80457
1.61894
1.43705
1.25949
1.08713
0.920799
0.760892
0.608163
0.464271
0.331119
0.211893
0.111005
0.031372
2.92178
2.75059
2.56867
2.37941
2.18589
1.99072
1.79596
1.60319
1.41383
1.22879
1.04923
0.876346
0.711113
0.55519
0.411474
0.283145
0.174059
0.0875038
0.0235956
2.92514
2.75812
2.57771
2.38752
2.19103
1.99131
1.79095
1.59199
1.39628
1.20516
1.02026
0.843309
0.67603
0.520924
0.381511
0.260858
0.16137
0.0834773
0.0242252
2.92837
2.76552
2.58686
2.39616
2.19722
1.99357
1.7883
1.58397
1.38293
1.18702
0.998384
0.819363
0.652252
0.499935
0.365703
0.251536
0.157963
0.0835596
0.0247669
2.93193
2.7733
2.59641
2.40532
2.20419
1.99698
1.78731
1.57826
1.37271
1.17303
0.981898
0.802114
0.636284
0.487192
0.357401
0.247668
0.157251
0.0841075
0.0250841
2.93471
2.77952
2.60396
2.41229
2.20903
1.99856
1.78497
1.57188
1.36268
1.16026
0.967719
0.788169
0.624227
0.478269
0.352013
0.245274
0.156685
0.0841877
0.0251081
2.93631
2.78294
2.6076
2.41471
2.20906
1.99541
1.77831
1.56185
1.3499
1.14576
0.952867
0.774405
0.612791
0.469857
0.346568
0.242142
0.154995
0.0832618
0.0246843
2.93668
2.78287
2.60602
2.41071
2.20201
1.98502
1.7647
1.54551
1.33172
1.12693
0.93472
0.758179
0.599363
0.459532
0.339065
0.236849
0.151308
0.0808507
0.0236299
2.9353
2.77821
2.59764
2.39836
2.18569
1.96506
1.74172
1.52046
1.30581
1.10149
0.911038
0.737293
0.581845
0.445421
0.32797
0.228231
0.144777
0.0763726
0.021676
2.93218
2.76914
2.58278
2.37807
2.1606
1.93607
1.70999
1.48735
1.27278
1.06995
0.882215
0.711989
0.560369
0.427608
0.313365
0.216347
0.135404
0.0697541
0.0187357
2.92928
2.76181
2.57213
2.36528
2.14687
1.92264
1.69807
1.47807
1.2671
1.06856
0.885426
0.71963
0.571836
0.44195
0.329404
0.232814
0.150848
0.0821847
0.0248788
2.92738
2.75798
2.56813
2.36277
2.14735
1.9274
1.7081
1.49404
1.28932
1.09693
0.919394
0.75824
0.613741
0.485519
0.372772
0.273819
0.186746
0.109141
0.0370561
2.92547
2.75393
2.56359
2.35936
2.1466
1.93057
1.71617
1.50762
1.30863
1.12177
0.949134
0.791855
0.649859
0.522477
0.408645
0.306374
0.213359
0.126861
0.0431625
2.9237
2.74992
2.55889
2.35561
2.14527
1.93291
1.72311
1.5197
1.32598
1.14409
0.97574
0.821673
0.681496
0.55428
0.438746
0.332735
0.233882
0.139724
0.0473719
2.92184
2.74559
2.55377
2.35133
2.1433
1.93444
1.72901
1.53045
1.34165
1.16432
0.999757
0.848386
0.709519
0.582014
0.464471
0.354712
0.250543
0.149959
0.0507547
2.9194
2.74055
2.54796
2.34634
2.14054
1.93508
1.73388
1.53997
1.35583
1.18273
1.0216
0.872555
0.734655
0.606608
0.48698
0.373684
0.264781
0.158704
0.0537082
2.91724
2.73615
2.54281
2.3419
2.13819
1.93597
1.73879
1.5493
1.36952
1.20032
1.04228
0.895209
0.757985
0.629214
0.507492
0.390871
0.277672
0.166683
0.0564651
2.9158
2.73256
2.53833
2.33798
2.13621
1.9371
1.74383
1.55859
1.38298
1.21745
1.06223
0.916909
0.780183
0.650609
0.526847
0.407098
0.289908
0.174344
0.0591701
2.91394
2.72805
2.53266
2.33277
2.133
1.9371
1.74785
1.56696
1.39556
1.23369
1.08127
0.937668
0.801449
0.671141
0.545488
0.422823
0.301881
0.181943
0.0619132
2.91149
2.72245
2.52569
2.32628
2.12866
1.93623
1.75124
1.57489
1.40783
1.24969
1.10011
0.958251
0.822579
0.691613
0.564177
0.438719
0.314118
0.189824
0.0648239
2.90896
2.71641
2.5181
2.31928
2.12413
1.93552
1.75511
1.58355
1.42098
1.26666
1.11995
0.979839
0.844723
0.713111
0.583902
0.45563
0.32728
0.198423
0.0680704
2.90608
2.70937
2.50951
2.31171
2.11962
1.93543
1.76013
1.59373
1.43591
1.28556
1.14179
1.00347
0.868917
0.736639
0.605597
0.474378
0.34203
0.208196
0.0718373
2.90181
2.70048
2.49961
2.30374
2.11569
1.9368
1.76729
1.60655
1.45382
1.30764
1.16692
1.03044
0.896435
0.763418
0.630394
0.495963
0.359185
0.219712
0.0763627
2.89739
2.69208
2.49124
2.29852
2.11564
1.94294
1.77986
1.6252
1.47777
1.33584
1.19816
1.06341
0.929786
0.795766
0.660377
0.522178
0.380177
0.23395
0.0820509
2.89376
2.68564
2.48643
2.29847
2.12214
1.95666
1.8007
1.65252
1.5106
1.37298
1.23828
1.10511
0.971603
0.836189
0.697873
0.555101
0.406734
0.252154
0.0894402
2.88944
2.68027
2.48529
2.30449
2.13654
1.97959
1.83162
1.6905
1.55444
1.42131
1.28963
1.15797
1.02437
0.887177
0.745306
0.596995
0.440825
0.275798
0.099218
2.8862
2.68005
2.49292
2.32196
2.16423
2.01702
1.87783
1.74427
1.61439
1.48592
1.35732
1.22708
1.09313
0.953628
0.807346
0.652141
0.486116
0.307611
0.112673
2.88701
2.68997
2.51487
2.35646
2.21071
2.07442
1.94486
1.81948
1.69626
1.57281
1.44753
1.31881
1.18436
1.04209
0.89044
0.726674
0.548089
0.351879
0.131976
2.89326
2.71245
2.5538
2.41078
2.27899
2.15511
2.03642
1.92035
1.80482
1.68737
1.56626
1.43977
1.30528
1.16027
1.00265
0.828725
0.634445
0.415025
0.160776
2.90638
2.74919
2.61134
2.48664
2.37108
2.26162
2.15571
2.05083
1.94492
1.83541
1.72042
1.59802
1.46514
1.31859
1.15544
0.970463
0.757386
0.507955
0.20617
2.92601
2.799
2.68605
2.58282
2.48631
2.39401
2.3037
2.213
2.11992
2.0218
1.9166
1.80214
1.67473
1.53026
1.36453
1.16992
0.936489
0.649909
0.283047
2.9497
2.85765
2.77333
2.69499
2.62095
2.54938
2.47855
2.4063
2.33085
2.24955
2.16027
2.06064
1.94628
1.81199
1.65182
1.4547
1.20483
0.877372
0.425693
2.97367
2.919
2.86647
2.81661
2.76892
2.72235
2.67574
2.62742
2.57602
2.5192
2.45506
2.3813
2.29328
2.18502
2.04876
1.86917
1.62201
1.26522
0.719105
2.99392
2.97639
2.95816
2.94035
2.92312
2.90613
2.88897
2.87083
2.85113
2.82857
2.80213
2.77047
2.73027
2.67667
2.60193
2.48843
2.30308
1.97969
1.3857
)
;

boundaryField
{
    up
    {
        type            fixedValue;
        value           uniform 0;
    }
    low
    {
        type            fixedValue;
        value           uniform 3;
    }
    left
    {
        type            fixedValue;
        value           uniform 3;
    }
    right
    {
        type            fixedValue;
        value           uniform 3;
    }
    frontAndBackPlanes
    {
        type            empty;
    }
}


// ************************************************************************* //
