/*--------------------------------*- C++ -*----------------------------------*\
  =========                 |
  \\      /  F ield         | OpenFOAM: The Open Source CFD Toolbox
   \\    /   O peration     | Website:  https://openfoam.org
    \\  /    A nd           | Version:  7
     \\/     M anipulation  |
\*---------------------------------------------------------------------------*/
FoamFile
{
    version     2.0;
    format      ascii;
    class       volScalarField;
    location    "0.471";
    object      gradTy;
}
// * * * * * * * * * * * * * * * * * * * * * * * * * * * * * * * * * * * * * //

dimensions      [0 -1 0 1 0 0 0];

internalField   nonuniform List<scalar> 
1596
(
-0.396139
-0.741828
-1.03781
-1.33914
-1.64983
-2.0087
-2.40477
-2.88389
-3.4682
-4.17423
-5.13154
-6.34561
-8.00186
-10.3266
-13.8897
-19.4003
-29.1898
-47.2079
-111.524
-1.20927
-1.50824
-1.73797
-1.97597
-2.23222
-2.54647
-2.90777
-3.35571
-3.90891
-4.57222
-5.45033
-6.53599
-7.95173
-9.80102
-12.3748
-15.8269
-20.9329
-28.4245
-49.6871
-2.16635
-2.28991
-2.40342
-2.55521
-2.74249
-2.99717
-3.30444
-3.69669
-4.186
-4.76902
-5.52863
-6.44521
-7.6014
-9.04558
-10.953
-13.3537
-16.6679
-21.2083
-30.9735
-3.16948
-3.05033
-3.01869
-3.06876
-3.17639
-3.36039
-3.6011
-3.92288
-4.33171
-4.81894
-5.44929
-6.19654
-7.11689
-8.23048
-9.64681
-11.349
-13.582
-16.4806
-21.4699
-4.09291
-3.74421
-3.568
-3.51314
-3.53725
-3.64533
-3.81394
-4.05942
-4.38306
-4.77341
-5.28029
-5.87606
-6.5993
-7.45617
-8.51754
-9.75178
-11.3106
-13.2484
-16.0911
-4.82272
-4.32842
-4.03783
-3.88889
-3.83367
-3.86689
-3.96388
-4.1339
-4.3751
-4.67511
-5.07156
-5.53864
-6.10285
-6.76371
-7.56815
-8.483
-9.60585
-10.9546
-12.7331
-5.29682
-4.76991
-4.41634
-4.1973
-4.07496
-4.04029
-4.07084
-4.17059
-4.33605
-4.5553
-4.85607
-5.21603
-5.65315
-6.16399
-6.77984
-7.47093
-8.30124
-9.27219
-10.4669
-5.5143
-5.04931
-4.69044
-4.43444
-4.26427
-4.17403
-4.1471
-4.18462
-4.28297
-4.43169
-4.65072
-4.92181
-5.25686
-5.65135
-6.12598
-6.65572
-7.28269
-8.00135
-8.84643
-5.52257
-5.1894
-4.8757
-4.61651
-4.41993
-4.28861
-4.21449
-4.19853
-4.23838
-4.32577
-4.47491
-4.67155
-4.92333
-5.22551
-5.59147
-6.00062
-6.48033
-7.02238
-7.6407
-5.3627
-5.17073
-4.93561
-4.70608
-4.50846
-4.3554
-4.24837
-4.19064
-4.18235
-4.21802
-4.30827
-4.44254
-4.62585
-4.85379
-5.13504
-5.45278
-5.82473
-6.24195
-6.70867
-5.16405
-5.07381
-4.91851
-4.73488
-4.55429
-4.39572
-4.26881
-4.18021
-4.13331
-4.12578
-4.16638
-4.24792
-4.37396
-4.54076
-4.75388
-4.99958
-5.28909
-5.61352
-5.97234
-4.92093
-4.93449
-4.8573
-4.72591
-4.57291
-4.42039
-4.28383
-4.17334
-4.09564
-4.05175
-4.04986
-4.08584
-4.1627
-4.27759
-4.4342
-4.62118
-4.84547
-5.09861
-5.37785
-4.62498
-4.73005
-4.72902
-4.65449
-4.53784
-4.40234
-4.26689
-4.14455
-4.04506
-3.97257
-3.93579
-3.93336
-3.96863
-4.03987
-4.14995
-4.28958
-4.46303
-4.66241
-4.88372
-4.35833
-4.51582
-4.57535
-4.55361
-4.47538
-4.36254
-4.23504
-4.10797
-3.99347
-3.89838
-3.83255
-3.79711
-3.79628
-3.82966
-3.90004
-3.9998
-4.13178
-4.28859
-4.46563
-4.1099
-4.30783
-4.41423
-4.43794
-4.39648
-4.30843
-4.19301
-4.06623
-3.94186
-3.8289
-3.7386
-3.67432
-3.6415
-3.64123
-3.67681
-3.74213
-3.83939
-3.96172
-4.10437
-3.8677
-4.10253
-4.24817
-4.31105
-4.30352
-4.24066
-4.13988
-4.01717
-3.88714
-3.76041
-3.64958
-3.55997
-3.49848
-3.46781
-3.47225
-3.50723
-3.57493
-3.66905
-3.78478
-3.64799
-3.90644
-4.08349
-4.17969
-4.2026
-4.164
-4.07897
-3.96278
-3.83028
-3.69304
-3.56489
-3.45276
-3.36508
-3.30625
-3.28193
-3.28923
-3.33091
-3.40133
-3.49565
-3.45513
-3.72806
-3.92933
-4.05338
-4.10311
-4.08697
-4.0176
-3.90914
-3.77613
-3.6307
-3.48748
-3.35478
-3.24243
-3.15647
-3.10426
-3.0848
-3.10216
-3.1516
-3.22837
-3.26607
-3.56579
-3.79143
-3.94083
-4.01499
-4.01974
-3.96556
-3.86524
-3.73277
-3.58048
-3.42351
-3.27122
-3.13461
-3.02123
-2.94021
-2.89276
-2.88507
-2.91405
-2.97549
-3.07683
-3.4063
-3.65825
-3.83267
-3.93026
-3.95531
-3.91649
-3.82528
-3.69493
-3.53762
-3.36878
-3.19844
-3.03846
-2.89752
-2.78634
-2.70837
-2.67304
-2.68032
-2.72775
-2.91667
-3.26398
-3.53969
-3.73811
-3.85813
-3.90272
-3.87902
-3.79732
-3.67
-3.5089
-3.32952
-3.14223
-2.95945
-2.7904
-2.64677
-2.53356
-2.46402
-2.44353
-2.47493
-2.77798
-3.14159
-3.43884
-3.66011
-3.80187
-3.86556
-3.85695
-3.78522
-3.66184
-3.49811
-3.30942
-3.10631
-2.90151
-2.7043
-2.52625
-2.37204
-2.25742
-2.19483
-2.20042
-2.65444
-3.03774
-3.35665
-3.60021
-3.76317
-3.8457
-3.8523
-3.79117
-3.67277
-3.50769
-3.31101
-3.09333
-2.86772
-2.64342
-2.43107
-2.23219
-2.05967
-1.92712
-1.87433
-2.54916
-2.95388
-3.29379
-3.55697
-3.73744
-3.83418
-3.8514
-3.7961
-3.67801
-3.50729
-3.29733
-3.06032
-2.80971
-2.5557
-2.30781
-2.06488
-1.82849
-1.59294
-1.36024
-2.46864
-2.89422
-3.25799
-3.5468
-3.75524
-3.88129
-3.92917
-3.90402
-3.81386
-3.66797
-3.47554
-3.24965
-3.00238
-2.7467
-2.49219
-2.24101
-1.98682
-1.7128
-1.38444
-2.41862
-2.85742
-3.23274
-3.53408
-3.75674
-3.89881
-3.96442
-3.95788
-3.88574
-3.75584
-3.57353
-3.35088
-3.09909
-2.83321
-2.5664
-2.30963
-2.06292
-1.82265
-1.57383
-2.43142
-2.87726
-3.25957
-3.5693
-3.80225
-3.95785
-4.04012
-4.05374
-4.00423
-3.89733
-3.73598
-3.52807
-3.28248
-3.0141
-2.73963
-2.47528
-2.22787
-1.99859
-1.77739
-2.5152
-2.9611
-3.34294
-3.6531
-3.8883
-4.04978
-4.1421
-4.17084
-4.1412
-4.0574
-3.91999
-3.73202
-3.49803
-3.23018
-2.9469
-2.66956
-2.41262
-2.18241
-1.97183
-2.66592
-3.10885
-3.48323
-3.78607
-4.01594
-4.17616
-4.27236
-4.31136
-4.29865
-4.23777
-4.12734
-3.96572
-3.7513
-3.49025
-3.19917
-2.90358
-2.62709
-2.38415
-2.17147
-2.8835
-3.3131
-3.67154
-3.95938
-4.1769
-4.32948
-4.42415
-4.46911
-4.47061
-4.4325
-4.35249
-4.22554
-4.04314
-3.80209
-3.51118
-3.19584
-2.8889
-2.61863
-2.39013
-3.16924
-3.57342
-3.90908
-4.17559
-4.37485
-4.51439
-4.60285
-4.64967
-4.6622
-4.64553
-4.59792
-4.51355
-4.37863
-4.17912
-3.90855
-3.58238
-3.23546
-2.91553
-2.6487
-3.49342
-3.87618
-4.18525
-4.42478
-4.60034
-4.72196
-4.79987
-4.84447
-4.86412
-4.86577
-4.84965
-4.81288
-4.74118
-4.61348
-4.40431
-4.10571
-3.73108
-3.33546
-2.98617
-3.87577
-4.22847
-4.50221
-4.70708
-4.85263
-4.95106
-5.01367
-5.05115
-5.07229
-5.08567
-5.09397
-5.10021
-5.09642
-5.06563
-4.97288
-4.78707
-4.47038
-4.03088
-3.49487
-4.33329
-4.64119
-4.86956
-5.03327
-5.14523
-5.21916
-5.26642
-5.29732
-5.32032
-5.34451
-5.37499
-5.42007
-5.48249
-5.56217
-5.64076
-5.69836
-5.6779
-5.53869
-5.23928
-4.85927
-5.10777
-5.27392
-5.38086
-5.44426
-5.47838
-5.49277
-5.49641
-5.49581
-5.49703
-5.50523
-5.52595
-5.56519
-5.63075
-5.72766
-5.86751
-6.0438
-6.24493
-6.44739
-5.46863
-5.62776
-5.71468
-5.75579
-5.76616
-5.75881
-5.74069
-5.7193
-5.69936
-5.68416
-5.67912
-5.68563
-5.70801
-5.74929
-5.81485
-5.90906
-6.04282
-6.22519
-6.47166
-6.15369
-6.1925
-6.1902
-6.16458
-6.12542
-6.08174
-6.0376
-5.99818
-5.96634
-5.94357
-5.93383
-5.93614
-5.95217
-5.98083
-6.02208
-6.06989
-6.12361
-6.17571
-6.22281
-6.81113
-6.72352
-6.62945
-6.53521
-6.44441
-6.36122
-6.28685
-6.2236
-6.1723
-6.13282
-6.10673
-6.09205
-6.08844
-6.09372
-6.10658
-6.12244
-6.14086
-6.15815
-6.1734
-7.37524
-7.1845
-7.01149
-6.85687
-6.72013
-6.60147
-6.49968
-6.4145
-6.34508
-6.29006
-6.24934
-6.22067
-6.20284
-6.19368
-6.19178
-6.1939
-6.19947
-6.20603
-6.2127
-7.83893
-7.56073
-7.32135
-7.11628
-6.94128
-6.79316
-6.66854
-6.56508
-6.48063
-6.41294
-6.36079
-6.3219
-6.29458
-6.27679
-6.26698
-6.2627
-6.26295
-6.26582
-6.27022
-8.17923
-7.83323
-7.54269
-7.29963
-7.09644
-6.92694
-6.78597
-6.66956
-6.57461
-6.49832
-6.4387
-6.39353
-6.36082
-6.33855
-6.325
-6.31802
-6.31609
-6.31737
-6.32042
-8.38929
-7.98569
-7.6606
-7.39496
-7.17618
-6.99529
-6.8458
-6.72275
-6.6225
-6.54194
-6.47872
-6.4307
-6.39572
-6.37189
-6.35743
-6.35051
-6.34943
-6.35248
-6.35806
-8.38935
-7.98578
-7.6607
-7.39508
-7.17629
-6.99541
-6.84591
-6.72286
-6.62261
-6.54204
-6.47882
-6.43079
-6.39582
-6.37198
-6.35752
-6.35059
-6.34951
-6.35255
-6.35813
-8.17932
-7.83342
-7.54294
-7.2999
-7.09674
-6.92724
-6.78626
-6.66984
-6.5749
-6.49859
-6.43896
-6.39379
-6.36107
-6.3388
-6.32525
-6.31828
-6.31636
-6.31766
-6.32074
-7.83907
-7.56103
-7.32174
-7.11672
-6.94175
-6.79363
-6.66901
-6.56555
-6.48109
-6.41339
-6.36122
-6.32232
-6.29499
-6.27719
-6.26738
-6.26309
-6.26335
-6.26623
-6.27065
-7.37542
-7.18487
-7.01198
-6.85743
-6.72072
-6.60208
-6.50029
-6.4151
-6.34567
-6.29064
-6.24989
-6.22119
-6.20332
-6.19413
-6.19219
-6.19427
-6.1998
-6.20633
-6.21296
-6.81134
-6.72393
-6.63
-6.53584
-6.44509
-6.36193
-6.28757
-6.22432
-6.17301
-6.13351
-6.10739
-6.09267
-6.08901
-6.09422
-6.107
-6.12278
-6.1411
-6.1583
-6.17346
-6.15391
-6.19294
-6.19079
-6.16527
-6.12617
-6.08253
-6.03841
-5.999
-5.96715
-5.94437
-5.9346
-5.93686
-5.9528
-5.98134
-6.02241
-6.07
-6.12345
-6.17526
-6.22206
-5.46887
-5.62825
-5.71537
-5.75665
-5.76717
-5.75995
-5.74195
-5.72068
-5.70087
-5.68579
-5.6809
-5.68756
-5.71009
-5.7515
-5.81712
-5.91118
-6.0444
-6.2256
-6.46996
-4.85943
-5.10789
-5.27404
-5.38097
-5.44433
-5.47838
-5.49268
-5.49618
-5.49541
-5.49638
-5.50426
-5.52455
-5.56322
-5.62804
-5.72409
-5.86315
-6.03925
-6.24151
-6.4473
-4.33338
-4.64142
-4.8699
-5.03375
-5.14586
-5.21994
-5.26736
-5.29841
-5.32158
-5.34593
-5.37662
-5.42195
-5.48476
-5.56508
-5.64481
-5.70428
-5.68663
-5.55103
-5.25573
-3.87583
-4.22853
-4.5023
-4.70723
-4.85286
-4.95136
-5.01405
-5.0516
-5.07282
-5.08631
-5.09473
-5.10119
-5.09777
-5.06759
-4.97574
-4.79099
-4.47516
-4.03577
-3.49839
-3.49347
-3.87621
-4.18531
-4.42489
-4.60053
-4.72224
-4.80025
-4.84496
-4.86472
-4.86653
-4.85062
-4.81414
-4.74288
-4.61574
-4.40716
-4.10898
-3.73437
-3.33831
-2.98841
-3.16928
-3.57342
-3.9091
-4.17566
-4.37499
-4.51462
-4.60318
-4.65012
-4.66279
-4.64631
-4.59893
-4.51487
-4.38032
-4.1812
-3.91092
-3.58482
-3.23772
-2.91747
-2.65035
-2.88353
-3.31309
-3.67153
-3.95941
-4.17699
-4.32966
-4.42445
-4.46953
-4.47118
-4.43325
-4.35348
-4.2268
-4.04468
-3.80387
-3.51308
-3.19769
-2.89058
-2.62012
-2.39149
-2.66594
-3.10882
-3.48319
-3.78606
-4.01599
-4.1763
-4.27261
-4.31174
-4.29918
-4.23848
-4.12826
-3.96688
-3.75266
-3.49174
-3.2007
-2.90504
-2.62843
-2.3854
-2.17269
-2.51522
-2.96107
-3.34289
-3.65307
-3.88833
-4.04989
-4.14231
-4.17118
-4.14169
-4.05806
-3.92083
-3.73304
-3.49919
-3.23141
-2.94814
-2.67075
-2.41375
-2.18352
-1.973
-2.43144
-2.87723
-3.25952
-3.56927
-3.80226
-3.95793
-4.0403
-4.05404
-4.00466
-3.89792
-3.73672
-3.52894
-3.28345
-3.01512
-2.74064
-2.47627
-2.22887
-1.99965
-1.77862
-2.41863
-2.85739
-3.23267
-3.53401
-3.75668
-3.89879
-3.96446
-3.958
-3.88594
-3.75614
-3.5739
-3.35132
-3.09957
-2.83368
-2.56683
-2.31006
-2.06341
-1.82335
-1.57505
-2.46874
-2.8943
-3.25808
-3.54692
-3.75541
-3.88152
-3.92949
-3.90443
-3.81437
-3.6686
-3.47627
-3.25049
-3.0033
-2.74767
-2.4932
-2.24204
-1.98785
-1.7138
-1.38534
-2.54926
-2.95399
-3.29389
-3.55706
-3.7375
-3.8342
-3.85138
-3.79604
-3.67789
-3.50713
-3.2971
-3.06004
-2.80937
-2.55531
-2.30735
-2.06436
-1.82789
-1.59225
-1.35948
-2.65452
-3.03782
-3.35673
-3.6003
-3.76325
-3.84577
-3.85236
-3.79121
-3.6728
-3.5077
-3.311
-3.0933
-2.86768
-2.64338
-2.43102
-2.23214
-2.05964
-1.92712
-1.87438
-2.77805
-3.14165
-3.4389
-3.66017
-3.80191
-3.86559
-3.85697
-3.78523
-3.66183
-3.49809
-3.30938
-3.10626
-2.90146
-2.70424
-2.52619
-2.37199
-2.25739
-2.19482
-2.20043
-2.91673
-3.26404
-3.53974
-3.73816
-3.85817
-3.90275
-3.87903
-3.79732
-3.66999
-3.50888
-3.32949
-3.1422
-2.95941
-2.79036
-2.64673
-2.53353
-2.464
-2.44352
-2.47493
-3.07688
-3.40635
-3.65829
-3.83271
-3.9303
-3.95533
-3.9165
-3.82529
-3.69492
-3.53761
-3.36876
-3.19841
-3.03843
-2.89748
-2.78631
-2.70835
-2.67302
-2.68031
-2.72774
-3.26612
-3.56583
-3.79147
-3.94086
-4.01502
-4.01976
-3.96557
-3.86524
-3.73277
-3.58046
-3.42349
-3.2712
-3.13459
-3.02121
-2.94019
-2.89274
-2.88506
-2.91404
-2.97548
-3.45516
-3.72809
-3.92936
-4.0534
-4.10313
-4.08698
-4.01761
-3.90914
-3.77613
-3.63069
-3.48746
-3.35476
-3.24241
-3.15645
-3.10424
-3.08479
-3.10215
-3.15158
-3.22836
-3.64802
-3.90646
-4.08352
-4.17971
-4.20261
-4.16402
-4.07898
-3.96278
-3.83027
-3.69304
-3.56488
-3.45275
-3.36507
-3.30624
-3.28192
-3.28922
-3.3309
-3.40132
-3.49564
-3.86772
-4.10255
-4.24819
-4.31107
-4.30353
-4.24067
-4.13989
-4.01717
-3.88714
-3.76041
-3.64957
-3.55996
-3.49847
-3.4678
-3.47224
-3.50723
-3.57492
-3.66905
-3.78477
-4.10991
-4.30784
-4.41424
-4.43795
-4.39649
-4.30843
-4.19302
-4.06623
-3.94186
-3.8289
-3.7386
-3.67432
-3.6415
-3.64123
-3.6768
-3.74213
-3.83938
-3.96172
-4.10436
-4.35833
-4.51583
-4.57536
-4.55361
-4.47539
-4.36254
-4.23504
-4.10797
-3.99348
-3.89838
-3.83255
-3.79711
-3.79628
-3.82966
-3.90004
-3.9998
-4.13178
-4.28858
-4.46563
-4.62499
-4.73006
-4.72902
-4.65449
-4.53784
-4.40234
-4.26689
-4.14455
-4.04506
-3.97258
-3.93579
-3.93337
-3.96863
-4.03987
-4.14996
-4.28958
-4.46303
-4.66241
-4.88372
-4.92093
-4.93449
-4.8573
-4.7259
-4.57291
-4.42038
-4.28383
-4.17334
-4.09564
-4.05175
-4.04986
-4.08584
-4.1627
-4.27759
-4.43419
-4.62118
-4.84547
-5.09861
-5.37785
-5.16405
-5.07381
-4.91851
-4.73488
-4.55429
-4.39573
-4.26881
-4.18021
-4.13331
-4.12578
-4.16638
-4.24792
-4.37396
-4.54075
-4.75388
-4.99958
-5.28909
-5.61352
-5.97234
-5.3627
-5.17074
-4.93562
-4.70609
-4.50846
-4.3554
-4.24837
-4.19064
-4.18235
-4.21801
-4.30826
-4.44253
-4.62584
-4.85379
-5.13504
-5.45278
-5.82474
-6.24196
-6.70867
-5.52258
-5.18941
-4.87571
-4.61651
-4.41993
-4.28861
-4.21449
-4.19853
-4.23838
-4.32577
-4.47491
-4.67155
-4.92333
-5.2255
-5.59147
-6.00062
-6.48033
-7.02238
-7.6407
-5.51431
-5.04932
-4.69044
-4.43445
-4.26427
-4.17403
-4.1471
-4.18462
-4.28297
-4.43169
-4.65071
-4.9218
-5.25686
-5.65135
-6.12598
-6.65572
-7.28269
-8.00135
-8.84644
-5.29684
-4.76993
-4.41634
-4.19731
-4.07496
-4.04029
-4.07084
-4.17059
-4.33605
-4.55529
-4.85606
-5.21602
-5.65314
-6.16398
-6.77983
-7.47092
-8.30123
-9.27219
-10.4669
-4.82274
-4.32843
-4.03783
-3.88889
-3.83368
-3.86689
-3.96388
-4.1339
-4.3751
-4.6751
-5.07156
-5.53864
-6.10285
-6.76371
-7.56814
-8.48299
-9.60585
-10.9546
-12.7331
-4.09292
-3.74422
-3.56801
-3.51314
-3.53726
-3.64533
-3.81394
-4.05942
-4.38306
-4.77341
-5.28029
-5.87606
-6.59929
-7.45616
-8.51754
-9.75177
-11.3106
-13.2484
-16.0911
-3.16949
-3.05034
-3.0187
-3.06877
-3.17639
-3.3604
-3.6011
-3.92288
-4.33171
-4.81894
-5.44929
-6.19654
-7.11689
-8.23048
-9.64681
-11.349
-13.582
-16.4806
-21.4699
-2.16635
-2.28992
-2.40342
-2.55522
-2.74249
-2.99718
-3.30444
-3.69669
-4.186
-4.76902
-5.52863
-6.44521
-7.6014
-9.04558
-10.953
-13.3537
-16.6679
-21.2083
-30.9735
-1.20927
-1.50824
-1.73797
-1.97597
-2.23222
-2.54647
-2.90777
-3.35571
-3.90891
-4.57222
-5.45033
-6.53599
-7.95173
-9.80102
-12.3748
-15.8269
-20.9328
-28.4245
-49.6871
-0.396137
-0.741826
-1.03781
-1.33914
-1.64983
-2.0087
-2.40477
-2.88389
-3.4682
-4.17423
-5.13154
-6.34561
-8.00186
-10.3266
-13.8897
-19.4003
-29.1898
-47.2079
-111.524
)
;

boundaryField
{
    up
    {
        type            calculated;
        value           nonuniform List<scalar> 
84
(
-101.06
-54.7327
-33.6147
-22.9956
-17.0537
-13.3834
-10.9287
-9.18692
-7.89776
-6.90791
-6.1289
-5.50227
-4.98454
-4.54817
-4.17264
-3.84194
-3.54407
-3.26984
-3.01137
-2.7594
-2.50292
-2.2219
-1.86376
-1.22775
-1.19627
-1.49955
-1.71298
-1.90925
-2.10676
-2.31919
-2.56246
-2.85516
-3.29201
-5.26136
-6.68924
-6.61495
-6.23379
-6.17574
-6.21335
-6.27131
-6.32174
-6.36134
-6.3614
-6.32209
-6.27175
-6.21361
-6.17578
-6.23296
-6.61157
-6.68928
-5.28091
-3.29523
-2.85711
-2.56402
-2.32053
-2.10798
-1.91045
-1.71426
-1.50134
-1.19754
-1.22699
-1.86383
-2.22191
-2.50292
-2.75939
-3.01136
-3.26983
-3.54405
-3.84193
-4.17263
-4.54816
-4.98454
-5.50228
-6.1289
-6.90791
-7.89777
-9.18693
-10.9288
-13.3834
-17.0537
-22.9956
-33.6147
-54.7327
-101.06
)
;
    }
    low
    {
        type            calculated;
        value           nonuniform List<scalar> 
84
(
-0.423982
-1.25945
-2.27674
-3.35748
-4.35495
-5.13466
-5.62016
-5.81456
-5.75948
-5.51774
-5.27486
-4.98914
-4.63636
-4.33823
-4.07195
-3.80643
-3.56711
-3.36937
-3.16987
-2.95532
-2.7764
-2.62382
-2.48276
-2.36062
-2.24894
-2.18521
-2.19922
-2.30266
-2.47887
-2.73008
-3.04548
-3.38904
-3.79641
-4.28587
-4.8399
-5.48957
-6.23423
-6.93425
-7.52827
-8.01856
-8.38048
-8.61633
-8.61636
-8.38053
-8.01864
-7.52838
-6.93437
-6.23436
-5.48971
-4.83991
-4.28597
-3.79642
-3.38906
-3.0455
-2.73011
-2.47889
-2.30269
-2.19927
-2.18527
-2.24901
-2.36074
-2.48282
-2.62389
-2.77646
-2.95537
-3.16992
-3.36941
-3.56714
-3.80645
-4.07196
-4.33824
-4.63637
-4.98914
-5.27486
-5.51774
-5.75949
-5.81457
-5.62017
-5.13467
-4.35496
-3.35749
-2.27674
-1.25944
-0.423979
)
;
    }
    left
    {
        type            calculated;
        value           nonuniform List<scalar> 
19
(
-0.388439
-0.727553
-1.02861
-1.3387
-1.66076
-2.03286
-2.44529
-2.94654
-3.56001
-4.30995
-5.33262
-6.64034
-8.44396
-11.0147
-14.9923
-21.246
-32.4905
-53.4375
-104.826
)
;
    }
    right
    {
        type            calculated;
        value           nonuniform List<scalar> 
19
(
-0.388436
-0.72755
-1.02861
-1.3387
-1.66076
-2.03286
-2.44529
-2.94654
-3.56002
-4.30996
-5.33262
-6.64034
-8.44396
-11.0147
-14.9923
-21.246
-32.4904
-53.4375
-104.826
)
;
    }
    frontAndBackPlanes
    {
        type            empty;
    }
}


// ************************************************************************* //
