/*--------------------------------*- C++ -*----------------------------------*\
  =========                 |
  \\      /  F ield         | OpenFOAM: The Open Source CFD Toolbox
   \\    /   O peration     | Website:  https://openfoam.org
    \\  /    A nd           | Version:  7
     \\/     M anipulation  |
\*---------------------------------------------------------------------------*/
FoamFile
{
    version     2.0;
    format      ascii;
    class       volScalarField;
    location    "0.449";
    object      gradTz;
}
// * * * * * * * * * * * * * * * * * * * * * * * * * * * * * * * * * * * * * //

dimensions      [0 -1 0 1 0 0 0];

internalField   nonuniform List<scalar> 
1596
(
-6.45515e-16
-3.15408e-16
3.18689e-16
5.32379e-18
-6.11728e-16
0
-2.88386e-16
-2.84308e-16
-1.65459e-17
-1.48498e-16
-1.52186e-18
-1.47291e-16
6.45271e-16
-1.45221e-16
6.79453e-16
5.85608e-16
3.48129e-16
4.39163e-16
0
6.46807e-16
0
9.22477e-16
-5.20751e-18
-2.86898e-16
2.84903e-16
5.8089e-16
1.5567e-17
2.76334e-16
-1.32617e-16
2.64228e-16
-4.43083e-18
-3.6579e-16
-2.27846e-16
-5.49538e-16
-5.35391e-16
-4.86615e-16
2.76648e-16
0
-3.19689e-16
0
-6.07149e-16
8.27966e-18
5.66273e-16
-1.54225e-16
9.47513e-18
-4.01747e-18
-4.2832e-18
-4.69564e-18
1.0392e-16
0
1.89814e-16
5.39972e-16
-5.3075e-17
4.23308e-17
9.97551e-17
1.54564e-16
0
4.98992e-16
-1.5365e-16
1.53089e-16
0
-1.48315e-16
-1.51815e-16
2.66361e-16
-2.38269e-16
0
0
-7.8483e-17
5.41769e-17
0
-1.59984e-16
-2.05814e-16
1.41283e-16
-1.42633e-16
-7.35391e-18
0
8.67995e-17
2.376e-16
-2.19681e-16
0
-6.63654e-17
-2.00591e-16
0
3.03402e-16
-3.05433e-17
-2.76046e-17
-2.06848e-17
1.59807e-16
1.93828e-16
1.94945e-17
3.39976e-18
-1.52795e-16
7.73024e-18
7.05411e-17
-3.0042e-17
-2.25404e-17
-3.26675e-16
3.16601e-16
-2.83761e-16
-4.72893e-19
-2.59377e-16
7.34886e-18
-7.37326e-18
-2.09894e-16
0
-1.65958e-17
-1.88465e-16
-1.7529e-16
1.45039e-16
1.44559e-16
-1.98709e-18
-8.65637e-17
-7.15489e-17
5.44654e-17
1.88375e-16
-3.34868e-16
3.8543e-16
2.19028e-16
0
1.98291e-16
1.1962e-16
-5.79629e-17
2.66964e-16
-5.07504e-17
-2.11081e-16
2.10125e-18
-1.27338e-16
-1.45775e-16
-1.16107e-16
9.72408e-17
8.73257e-17
-1.15756e-18
-2.28613e-17
1.41673e-17
5.29712e-16
-6.42317e-16
0
0
-2.53862e-16
0
0
0
1.84753e-16
0
0
1.16164e-16
4.81007e-18
2.76972e-17
-8.46747e-17
0
4.50835e-17
1.71916e-17
0
-3.49966e-16
6.7775e-16
0
0
2.61443e-16
0
-1.05222e-16
1.05116e-16
-1.88052e-16
7.97141e-17
-8.02971e-17
0
1.16059e-16
1.07042e-16
0
-6.19293e-17
-4.60852e-17
-1.49569e-17
8.10812e-16
-3.84412e-16
0
-2.96763e-16
2.93442e-16
0
2.34361e-16
0
0
0
7.61155e-17
-7.64804e-17
0
-8.92702e-17
-2.60408e-17
0
4.30409e-18
3.6012e-17
0
-2.05816e-16
0
0
2.98275e-16
-5.64945e-16
2.21019e-17
9.2648e-18
-1.00835e-16
9.33417e-18
1.85413e-18
-8.16179e-17
-1.35313e-16
0
1.02236e-16
-1.96823e-17
1.99777e-17
4.94882e-17
-2.80415e-17
-1.31999e-17
1.81044e-16
-1.35573e-17
1.73415e-16
6.16304e-16
-2.45466e-17
-2.69015e-16
0
0
0
1.68892e-16
7.01622e-17
2.55011e-16
-6.16565e-17
-1.00407e-16
-6.24406e-17
-3.26382e-17
1.44144e-17
-3.10277e-17
1.2619e-17
-1.94154e-16
1.89932e-16
-3.56509e-16
-6.0918e-16
5.7413e-16
2.41627e-16
-4.54387e-16
4.06949e-16
-3.6331e-16
9.43076e-17
7.57673e-17
-6.84658e-17
4.86106e-17
-4.19725e-17
1.20875e-16
0
-8.93759e-18
6.50501e-17
-9.60477e-18
-1.22638e-15
5.72396e-16
5.43414e-19
-1.39819e-16
1.28507e-17
2.35821e-16
-4.52998e-16
-1.96515e-16
1.74266e-16
-1.53375e-16
-1.34949e-16
0
-1.57696e-16
-4.72535e-17
-8.64204e-17
-5.13554e-17
4.06078e-18
-4.2812e-17
4.56181e-19
2.00438e-16
-1.83163e-16
4.77719e-19
-1.49663e-16
-3.91896e-16
3.74199e-16
4.23221e-19
1.91504e-16
-1.69671e-16
2.96493e-16
7.03647e-17
6.05052e-17
1.93422e-16
0
1.63802e-16
7.50226e-17
0
2.40745e-17
3.83959e-19
0
1.77689e-16
1.48757e-16
-3.04026e-16
3.80444e-16
-5.86059e-16
4.27608e-16
1.74112e-16
-1.92846e-17
-2.93596e-16
5.77113e-17
-5.74265e-17
-1.82192e-16
7.51916e-17
-3.59062e-17
-7.75059e-17
3.469e-17
-2.12724e-17
7.70457e-18
-1.86729e-16
6.59551e-16
-4.88919e-16
2.81071e-16
0
0
-8.94696e-17
1.86806e-16
-1.45591e-16
2.77736e-16
0
0
1.25791e-16
-1.11618e-16
-8.29288e-17
2.58875e-17
-2.68728e-17
1.38287e-17
0
1.10261e-17
1.746e-16
-1.48902e-16
-1.34638e-16
-2.30902e-16
-8.60411e-17
1.06491e-16
0
-1.38554e-16
-1.19086e-16
1.09668e-16
-9.35512e-17
7.88755e-17
0
3.12175e-17
6.49897e-17
0
0
0
-1.04837e-17
2.95468e-16
1.22133e-16
-4.02896e-16
1.17272e-16
1.04608e-16
0
0
1.32386e-16
-6.85183e-17
-1.06073e-16
9.04811e-17
-7.62786e-17
0
-2.21367e-17
2.03946e-17
0
-1.65079e-17
-5.68343e-18
-1.53716e-16
4.51182e-16
-5.59938e-16
-2.38409e-16
1.22825e-16
-9.98434e-17
8.80029e-17
0
-6.67151e-17
5.81481e-17
0
0
3.17543e-17
-3.17908e-17
1.016e-17
-1.22458e-17
2.45997e-17
2.25329e-18
4.18317e-18
7.70446e-17
-7.12782e-17
3.80602e-16
-2.47117e-16
-1.06535e-16
1.02539e-17
1.77394e-16
7.29746e-17
6.38363e-17
0
4.25979e-17
-3.98554e-17
3.32609e-17
-2.93126e-17
4.06442e-17
-7.08815e-17
-1.91241e-17
1.67971e-17
4.61076e-18
2.09618e-16
-2.1073e-16
0
2.15281e-16
-1.11421e-16
-9.05244e-17
6.98784e-17
-2.18411e-16
0
-3.38907e-18
-4.71527e-17
-3.67704e-17
5.71532e-17
-3.72182e-18
-3.92819e-17
2.98771e-17
0
1.14497e-17
-4.477e-18
3.49381e-16
-6.38351e-17
2.84199e-16
-2.23441e-16
1.3488e-16
2.34862e-17
-1.61148e-16
-6.14128e-17
1.13592e-16
-3.62495e-18
-7.63482e-17
6.69058e-17
-3.02043e-17
-4.29369e-17
0
0
0
-1.15646e-17
4.36194e-19
-3.16226e-16
3.09507e-16
1.5861e-19
5.11055e-17
4.59613e-17
-1.1824e-16
1.44163e-16
-1.25196e-16
1.11537e-16
-4.11589e-17
7.94154e-17
3.03401e-17
-1.33133e-17
7.88343e-19
-5.5633e-18
-9.84322e-18
0
0
0
0
0
1.61643e-16
-7.16884e-17
-2.54664e-16
0
0
-3.5993e-17
-6.2222e-17
5.44294e-17
0
-3.82644e-17
3.13963e-17
-1.10782e-16
1.29146e-16
-4.48189e-17
4.79581e-17
5.39588e-18
0
-6.13077e-17
6.20623e-17
0
-5.37682e-17
5.47751e-17
9.6116e-17
0
3.63367e-17
5.38701e-17
-2.34051e-16
0
-4.07382e-17
3.35123e-17
2.59419e-17
-2.01668e-17
3.02623e-17
0
-1.17562e-17
0
-3.15042e-17
-3.20798e-17
1.9033e-18
5.52455e-17
-1.53975e-16
0
-4.30131e-17
0
1.35475e-16
5.82774e-17
0
1.61072e-16
-1.75693e-16
1.59615e-17
-4.51832e-17
9.88542e-18
5.74523e-17
2.29642e-17
-1.81678e-17
0
6.58341e-17
-6.01492e-17
7.50911e-17
9.47484e-17
0
8.82054e-17
-8.4747e-17
-7.19919e-17
1.15485e-16
-1.74107e-16
-9.14641e-17
0
0
2.35515e-17
0
0
7.24482e-18
0
-2.88578e-16
2.20825e-16
0
2.56353e-18
-5.59208e-17
-3.19401e-18
5.23586e-17
4.09515e-17
-4.82615e-17
-1.36884e-16
2.30058e-16
-6.13373e-17
0
-3.33768e-17
0
0
0
-2.77979e-17
2.21468e-17
-8.08092e-17
7.7321e-17
2.13611e-16
-2.11044e-16
6.65653e-17
3.06434e-18
-5.32441e-17
4.78791e-17
8.50475e-17
6.85496e-17
-1.35955e-16
0
7.97422e-17
1.52566e-17
-3.81718e-17
-8.95387e-17
7.45513e-17
-1.32123e-17
2.44136e-17
-2.7042e-16
4.05373e-16
-4.04042e-16
7.35816e-17
6.50733e-17
-6.29863e-17
5.40305e-17
-4.51849e-17
0
-4.11306e-17
7.04531e-17
3.06796e-17
5.12208e-17
6.9977e-17
-1.06175e-16
-5.98625e-19
0
-9.56517e-18
3.15994e-18
-2.92422e-16
-8.98266e-17
-1.63056e-16
8.551e-17
-1.47587e-16
1.32846e-16
-8.04879e-17
7.13925e-17
-3.81626e-18
-3.84302e-18
-7.18413e-17
4.12802e-17
-2.67088e-17
7.97337e-17
-8.55949e-17
1.23718e-17
9.55034e-18
0
-5.37182e-18
3.16173e-16
-9.66227e-17
0
0
-1.52152e-16
2.98981e-16
-7.14363e-17
-1.45327e-17
1.22616e-16
-3.08628e-18
0
0
-3.20209e-17
0
-7.29186e-17
1.80751e-16
-1.26766e-16
0
2.05645e-18
1.09225e-16
2.07657e-16
0
-9.1894e-17
-7.84129e-17
-7.22768e-17
-7.38394e-17
3.19666e-17
-9.07831e-17
-5.16386e-17
0
0
3.9668e-17
0
0
-9.60904e-17
1.57728e-16
0
0
7.49286e-16
-8.29834e-17
-4.6531e-16
-2.63658e-16
3.56774e-16
1.17651e-16
7.15965e-17
0
-2.75879e-17
2.78731e-17
6.81015e-17
-2.22713e-17
-3.4809e-17
5.43247e-17
-5.77848e-17
-1.87271e-17
0
0
0
6.00028e-17
-4.84056e-16
4.7545e-16
-4.66405e-17
-3.71009e-16
5.86692e-16
-2.97723e-16
0
0
1.71072e-16
-1.41738e-16
0
-4.49292e-17
7.76282e-17
-9.19299e-18
2.30919e-17
7.16064e-18
6.68177e-20
1.5917e-18
0
0
0
4.11524e-16
-2.75435e-16
3.00489e-16
-4.71008e-16
1.35784e-16
0
-5.10407e-17
8.33861e-17
-8.52256e-17
-1.72843e-17
-6.73398e-19
-1.21413e-17
-1.91703e-18
-9.63923e-18
-2.6684e-18
-1.47475e-18
5.04833e-16
-9.06534e-16
4.32723e-16
0
1.22085e-16
-1.66077e-16
1.71661e-16
-1.36248e-16
0
-6.92265e-17
9.71232e-17
0
0
-5.2068e-19
0
-1.20751e-17
8.30009e-18
1.63199e-18
2.33642e-18
4.84031e-16
0
-2.00162e-16
2.23701e-16
-1.44575e-16
3.17645e-16
-1.51294e-16
-1.21708e-16
1.2298e-16
-1.26869e-17
0
0
8.36306e-18
-1.44596e-17
-1.01146e-17
1.92562e-17
-4.16782e-18
2.16938e-18
0
2.74992e-16
2.19751e-16
-4.95417e-18
-2.12741e-16
-2.19513e-17
-1.60998e-16
1.56972e-17
1.37137e-16
-7.20048e-18
1.29251e-17
0
0
-8.5674e-18
0
1.01327e-17
-1.08396e-17
0
1.39056e-18
-3.87365e-19
-1.45996e-16
-1.10103e-16
1.03047e-16
-1.20423e-17
-5.45883e-18
1.49612e-17
0
-4.03923e-18
6.15573e-17
-5.18398e-17
0
1.8021e-17
-3.44884e-18
-1.6003e-17
-1.46999e-18
-1.14939e-18
0
-1.08534e-18
0
6.01878e-17
-1.15058e-16
-2.14979e-18
5.03171e-17
4.71622e-17
-4.69169e-17
-3.40409e-17
3.85633e-17
-1.35172e-17
1.05522e-17
-1.04608e-17
1.07834e-17
0
2.79825e-20
-1.07928e-18
3.89298e-18
-1.33476e-20
0
0
6.01899e-17
-5.99643e-17
-5.00544e-17
4.43007e-17
8.33619e-17
-8.3854e-17
-1.70209e-17
1.70606e-17
-1.36309e-17
1.37743e-17
-1.0461e-17
1.98027e-17
-5.55361e-18
-4.03696e-18
-1.24831e-18
4.11854e-19
9.89374e-19
2.62104e-19
-1.96612e-19
0
-1.43728e-17
8.73311e-17
-9.45571e-17
8.33495e-17
-7.38021e-17
0
6.0992e-17
-5.44942e-17
0
2.09076e-17
-2.65136e-17
-1.52703e-17
1.60042e-17
2.97998e-18
0
0
-1.08542e-18
3.94822e-19
2.39763e-16
-4.44084e-16
4.58745e-16
-4.08052e-16
1.61332e-16
-1.41024e-16
1.3365e-16
1.62927e-17
-6.1429e-17
5.49391e-17
0
-4.10666e-17
3.73385e-17
-7.2202e-18
-2.91889e-18
4.67165e-18
3.44475e-18
1.05373e-18
-3.81488e-19
5.46175e-16
0
-2.26231e-16
1.75673e-16
2.16985e-17
-1.7063e-16
3.05005e-16
-2.74552e-16
1.08408e-16
-4.76152e-17
4.87384e-17
9.74728e-18
1.71566e-17
7.03255e-18
-5.97572e-18
-7.36055e-19
-7.49091e-18
0
7.84749e-19
4.43517e-16
-4.99226e-16
0
4.74042e-17
2.09652e-16
-2.06011e-16
3.61168e-17
3.25546e-17
1.42721e-17
2.58691e-17
0
0
-2.98895e-17
5.68592e-17
-2.09135e-17
-7.58182e-18
8.30083e-18
6.7055e-19
-1.50046e-18
3.34824e-17
4.38518e-16
-5.19898e-17
-3.63859e-16
3.1918e-16
3.91225e-17
-3.53469e-17
-3.17961e-17
1.08067e-16
-1.34077e-16
8.34021e-17
-8.52408e-17
1.39543e-17
-1.70784e-17
3.2512e-17
-2.15683e-17
0
0
1.63412e-18
0
1.10988e-16
-3.42718e-16
3.91061e-16
-3.28603e-16
3.2782e-16
0
1.20812e-16
-1.21365e-16
-9.49698e-17
1.41825e-16
0
6.15324e-17
-7.76706e-17
-1.15655e-17
0
-1.3588e-18
-2.86453e-18
4.03228e-20
-1.03825e-15
4.99985e-16
0
-3.56695e-16
3.56659e-16
2.28354e-16
-1.50349e-16
6.48119e-17
0
-3.05838e-18
2.44998e-17
-2.22371e-17
-3.47562e-17
5.42315e-17
-5.76661e-17
0
1.34808e-17
-3.33484e-18
-1.76803e-18
6.4303e-16
-6.36505e-16
0
9.22674e-17
8.60821e-17
-7.99201e-17
0
-6.79234e-17
-6.13361e-17
0
-1.41214e-18
0
3.96775e-17
0
0
1.99573e-17
7.60039e-17
-9.76872e-17
0
1.20524e-19
9.66681e-17
-9.14627e-17
7.88287e-17
-3.98632e-16
1.54942e-16
0
1.45414e-17
4.1463e-17
0
-4.50363e-17
1.39217e-16
-1.46255e-16
2.63734e-17
0
-2.02089e-18
0
0
0
1.06529e-19
0
8.45344e-17
0
-1.40899e-16
1.43139e-16
0
5.64178e-17
-4.72768e-17
1.76009e-16
-8.58488e-17
3.34036e-17
-5.59097e-17
5.58973e-17
-8.56746e-17
-1.3999e-17
0
-1.07346e-17
0
2.52425e-16
-4.26238e-16
0
-7.38894e-17
6.86008e-17
0
0
-1.04029e-16
0
-4.11544e-17
-7.04952e-17
-3.0701e-17
5.12602e-17
0
3.14248e-17
0
0
2.39415e-17
-2.71258e-17
0
3.76371e-16
-3.02143e-16
6.84047e-17
-6.35248e-17
-2.77484e-17
8.14611e-17
9.59721e-17
-1.24653e-16
4.05113e-17
9.84299e-19
-4.37032e-17
1.81983e-16
-5.69918e-17
-1.43808e-16
5.123e-17
-1.45978e-17
8.61439e-18
-2.88816e-18
-5.91726e-16
2.2077e-16
0
0
2.79424e-17
-2.84142e-17
2.29657e-17
1.74197e-17
1.14489e-16
6.26626e-17
-6.38858e-17
-8.54832e-19
-4.07829e-17
3.33979e-17
0
1.91181e-17
1.338e-17
7.84838e-18
2.61049e-18
0
1.95445e-16
-1.87179e-16
6.10538e-17
6.74648e-17
-1.32164e-17
-4.56766e-17
-4.10521e-17
-1.4485e-16
6.26332e-17
-4.36054e-17
5.5746e-17
3.81371e-17
-5.26264e-17
5.58597e-17
3.97923e-17
-5.02484e-17
-7.24914e-18
0
-3.31861e-17
-1.54211e-16
5.705e-17
5.52584e-17
-2.00564e-16
1.46703e-16
8.03846e-17
-8.21654e-17
6.8315e-17
-5.9442e-17
0
0
-6.18647e-17
1.1368e-16
-5.17852e-17
5.32547e-17
-5.78604e-17
1.02029e-17
-1.81799e-17
6.30158e-17
6.04326e-17
-5.70197e-17
4.87548e-17
-5.42839e-17
-9.09801e-17
0
0
0
0
0
0
3.24324e-17
-9.15959e-17
9.68727e-17
-3.44865e-17
4.23939e-17
2.09617e-17
-1.78921e-17
1.29225e-16
-2.33048e-16
2.92461e-16
-1.49669e-16
2.05401e-16
-1.67534e-16
3.20753e-16
-1.88359e-16
-1.14642e-16
1.17274e-16
0
3.82382e-17
-3.16847e-17
8.54524e-17
-2.56719e-17
-3.71329e-17
-8.54873e-17
6.15414e-18
1.54062e-17
2.00359e-16
6.03856e-17
0
-1.01962e-16
-8.70383e-17
2.04793e-16
2.67094e-17
-9.36808e-17
5.78091e-17
-4.5543e-17
0
-3.02699e-17
0
-2.81512e-17
2.36361e-17
-2.2304e-17
-7.51615e-18
5.51692e-18
0
2.8088e-16
-6.38342e-17
2.84098e-16
-2.23371e-16
-4.82311e-17
2.05452e-16
-1.2298e-16
4.81539e-18
4.02867e-18
-4.52933e-17
4.41614e-17
0
0
3.34342e-17
-1.34003e-17
9.19303e-18
2.71064e-17
-9.40141e-18
0
4.52774e-20
0
-6.19315e-17
3.84267e-16
-2.63458e-16
-3.06649e-16
1.69629e-16
-1.99119e-16
1.88659e-16
1.02243e-16
-8.35382e-17
3.56919e-17
-3.28822e-17
4.94484e-18
6.08195e-17
3.3118e-18
-2.52015e-17
2.4887e-17
-4.99751e-18
6.92122e-16
-2.22699e-16
1.20178e-16
-3.65689e-16
1.06534e-16
-1.79856e-16
9.4077e-17
0
0
-3.48842e-18
-4.56552e-18
-1.32964e-18
0
-5.11682e-17
-4.06439e-17
3.08717e-17
-2.2807e-18
3.46901e-18
9.60523e-18
0
-2.25846e-16
4.01565e-16
1.02923e-16
-3.46589e-16
9.98426e-17
-1.66199e-16
1.94458e-17
1.4355e-16
0
0
2.79434e-18
3.82937e-17
0
-3.71197e-17
-1.77566e-17
2.5986e-18
-9.82068e-18
-1.06477e-17
0
-1.47209e-16
2.21962e-17
2.72134e-16
2.23326e-16
-4.18522e-16
1.9544e-16
-1.52545e-16
7.98623e-17
-1.22965e-16
0
0
0
-6.31986e-17
1.99459e-17
-2.2245e-17
0
-1.4047e-18
7.11269e-18
-5.25011e-16
5.02472e-16
5.72713e-16
-6.98112e-16
3.52129e-16
-3.36031e-16
0
1.58993e-16
-2.22354e-16
1.35162e-16
-1.11799e-16
9.58687e-17
8.12509e-17
6.53613e-17
5.3013e-17
0
0
0
0
5.70814e-16
-3.41797e-16
0
0
-1.25916e-16
3.26857e-16
-2.10846e-16
-1.66477e-16
1.64601e-16
1.33863e-16
2.34181e-16
-9.9473e-17
4.14999e-17
3.32757e-17
2.57542e-17
2.02e-17
3.33858e-17
-1.65793e-18
1.68875e-18
-5.83234e-16
5.45838e-16
3.09728e-16
-1.58423e-16
3.80679e-16
-2.46047e-16
-2.0831e-16
-1.84645e-16
0
-2.75574e-16
9.67658e-18
1.07927e-16
-8.9912e-17
-7.51914e-17
-2.77057e-17
-3.0411e-17
-2.41113e-17
0
0
-2.00609e-16
0
1.65438e-16
-4.36617e-19
0
0
2.14878e-16
1.90527e-16
0
1.47289e-16
0
-1.63924e-16
-4.56845e-17
8.26411e-17
0
5.34266e-17
-7.616e-18
7.76934e-18
0
4.21766e-16
0
3.2386e-16
-6.12122e-16
5.62323e-16
4.83128e-16
-1.09668e-17
0
1.04274e-17
1.6371e-16
0
-1.75375e-16
2.03389e-16
-1.81314e-16
-3.97389e-17
-4.32793e-17
-1.22978e-17
-2.1198e-18
-7.04823e-18
-4.02513e-16
5.8262e-16
-1.72052e-16
-4.6667e-16
-2.80901e-16
-2.53086e-16
-4.54042e-16
-1.93172e-16
1.08013e-17
7.59099e-17
-7.57673e-17
2.50478e-16
-1.10166e-16
2.26809e-16
-4.24934e-17
0
4.58463e-17
-2.6338e-17
7.23349e-18
8.67382e-16
-1.41419e-17
-7.05565e-16
6.16307e-16
-5.68745e-16
5.1501e-16
-1.14859e-17
-2.09856e-16
1.88899e-16
7.90285e-17
-8.84581e-18
-2.00075e-16
6.00116e-17
5.71484e-17
-1.83599e-17
1.85693e-17
-4.74856e-17
-3.03985e-18
-1.00106e-17
4.25807e-16
1.8788e-16
3.41382e-16
-3.10587e-16
-2.70659e-16
1.04391e-17
-2.22892e-16
5.4354e-16
1.29517e-17
2.64528e-16
1.5701e-16
-1.40077e-16
0
-1.02236e-16
0
0
6.01074e-17
2.71274e-17
1.17555e-17
4.04954e-16
0
3.37116e-16
3.08582e-16
-2.8274e-16
2.57287e-16
0
-2.13478e-16
-2.99415e-16
-2.6849e-16
-1.58399e-16
1.41661e-16
0
0
0
0
-5.62808e-17
-3.90919e-17
0
-7.93567e-16
0
-1.2139e-17
-1.0784e-17
4.2721e-16
-2.51503e-16
-1.17295e-16
-1.17487e-16
2.9881e-16
0
7.97138e-17
-8.72345e-18
6.80993e-17
0
0
8.79866e-17
-6.4954e-18
4.68999e-17
-1.67852e-17
5.61026e-16
1.68088e-16
-1.66353e-16
-1.52512e-16
-5.49403e-16
3.86634e-16
4.76932e-16
-8.08262e-18
-2.01046e-16
1.9429e-16
4.14519e-17
-2.06949e-16
-1.72996e-16
-9.9427e-17
-1.04458e-16
-1.01323e-16
7.99138e-17
-3.80505e-18
1.71916e-17
-1.74194e-16
8.11552e-17
-3.94299e-16
7.04846e-17
-7.02281e-17
0
-2.34981e-16
-1.07523e-17
-2.16422e-16
1.2411e-17
2.1108e-16
1.60057e-16
-3.8292e-17
2.07896e-17
9.96111e-17
0
-1.63738e-16
-5.8507e-17
-1.22401e-18
3.48637e-16
-9.84597e-18
6.18822e-16
-2.99647e-16
4.72892e-19
8.22859e-18
2.49034e-16
-1.37134e-17
2.09893e-16
-1.96609e-16
-1.84253e-16
0
1.7529e-16
1.42849e-16
1.919e-18
-2.7792e-18
8.73974e-17
5.94771e-17
0
-2.48837e-16
0
-6.56418e-17
2.84353e-16
3.21714e-18
6.64541e-17
-2.40812e-16
2.28975e-16
2.3572e-16
2.25195e-16
2.15357e-16
0
-1.70291e-16
0
8.68796e-18
-9.02322e-18
0
-8.39613e-19
4.09332e-17
1.69386e-16
6.69594e-18
-1.4261e-16
4.35271e-16
-1.41004e-16
0
0
-2.58093e-16
-2.28389e-16
-2.18164e-16
-3.88888e-16
-5.41768e-17
0
0
0
-1.73365e-17
1.83464e-17
1.15986e-16
-4.15508e-17
6.82966e-18
0
-2.98903e-16
-2.79245e-16
2.88806e-16
-2.86051e-16
-4.12068e-16
5.12483e-16
1.38434e-16
0
2.26407e-16
2.50379e-16
-5.40578e-17
2.91491e-16
-4.75783e-17
4.95174e-17
1.90813e-16
-1.10214e-16
0
-3.24602e-16
0
-3.13329e-16
3.08064e-16
0
5.66621e-16
2.68094e-16
-5.56693e-16
4.39214e-16
-3.23484e-18
-1.33976e-16
-2.42418e-16
0
3.26406e-16
-5.49537e-16
5.88964e-16
-7.50361e-16
0
0
3.22686e-16
-1.57802e-18
-3.89316e-18
-6.17239e-16
6.20665e-16
-3.01544e-16
3.00314e-16
2.95878e-16
-2.66319e-16
0
0
4.88957e-16
-4.97381e-16
-5.34758e-16
5.29191e-16
-5.14837e-16
5.56293e-16
-8.70873e-16
0
)
;

boundaryField
{
    up
    {
        type            calculated;
        value           nonuniform List<scalar> 
84
(
0
0
0
0
-3.0042e-17
5.44654e-17
-2.28613e-17
1.71916e-17
-1.49569e-17
0
-1.31999e-17
1.2619e-17
-9.60477e-18
4.56181e-19
3.83959e-19
7.70457e-18
0
0
-5.68343e-18
4.18317e-18
4.61076e-18
-4.477e-18
4.36194e-19
0
1.88383e-18
7.57322e-19
-1.75067e-17
0
2.21468e-17
2.51531e-17
3.15994e-18
-5.37182e-18
2.05645e-18
0
-9.99292e-19
1.66078e-18
-1.47972e-18
2.33732e-18
0
-3.87587e-19
0
0
-1.96809e-19
3.94822e-19
-3.81488e-19
7.84749e-19
-1.50046e-18
1.63412e-18
4.03228e-20
-1.76803e-18
0
0
0
-2.71258e-17
-3.62787e-18
2.61049e-18
0
-1.81799e-17
-1.78921e-17
1.35293e-17
0
0
-4.99751e-18
9.60523e-18
-1.06477e-17
7.11269e-18
0
1.68875e-18
0
0
-7.04823e-18
7.23349e-18
-1.00106e-17
1.17555e-17
0
-1.67852e-17
1.71916e-17
-1.22401e-18
0
4.09332e-17
-4.15508e-17
0
0
0
)
;
    }
    low
    {
        type            calculated;
        value           nonuniform List<scalar> 
84
(
-6.45846e-16
6.46807e-16
-3.19096e-16
4.99477e-16
8.71294e-17
-2.2638e-17
1.89193e-16
1.4945e-17
0
8.11669e-16
-2.05816e-16
1.80638e-16
-1.94154e-16
-1.22627e-15
2.00438e-16
0
-1.86729e-16
1.10261e-17
-1.04837e-17
-1.53716e-16
7.70446e-17
2.09618e-16
3.48431e-16
-3.16226e-16
0
-6.13077e-17
-3.15042e-17
0
-2.88578e-16
-8.08092e-17
-2.69715e-16
-2.91821e-16
3.15714e-16
1.09225e-16
7.49182e-16
6.00028e-17
0
5.04833e-16
4.84826e-16
2.75447e-16
-1.46247e-16
6.01878e-17
6.01899e-17
0
2.39763e-16
5.46969e-16
4.43517e-16
3.39315e-17
0
-1.03815e-15
6.4303e-16
1.20524e-19
1.06529e-19
2.52425e-16
0
-5.90724e-16
0
-3.31861e-17
6.30158e-17
1.28659e-16
1.99354e-16
2.79931e-16
4.52774e-20
6.91297e-16
0
0
-5.25011e-16
5.70321e-16
-5.82862e-16
-2.00609e-16
4.21653e-16
-4.02513e-16
8.68195e-16
4.2644e-16
4.04954e-16
-7.93567e-16
5.60249e-16
-1.73375e-16
3.48637e-16
-2.48507e-16
1.69386e-16
7.42249e-18
-3.24602e-16
3.22851e-16
)
;
    }
    left
    {
        type            calculated;
        value           nonuniform List<scalar> 
19
(
-6.45515e-16
-3.15596e-16
3.18689e-16
5.3181e-18
-6.11857e-16
0
-2.88386e-16
-2.84308e-16
-1.74243e-17
-1.48498e-16
-1.52186e-18
-1.47291e-16
6.51904e-16
-1.45221e-16
6.79453e-16
5.85608e-16
3.48129e-16
5.10133e-16
0
)
;
    }
    right
    {
        type            calculated;
        value           nonuniform List<scalar> 
19
(
3.22686e-16
-1.3897e-18
-3.89316e-18
-6.17233e-16
6.20795e-16
-3.01544e-16
3.00314e-16
2.95878e-16
-2.6544e-16
0
0
4.93656e-16
-5.04014e-16
-5.34758e-16
5.29191e-16
-5.14837e-16
5.56293e-16
-9.41844e-16
0
)
;
    }
    frontAndBackPlanes
    {
        type            empty;
    }
}


// ************************************************************************* //
