/*--------------------------------*- C++ -*----------------------------------*\
  =========                 |
  \\      /  F ield         | OpenFOAM: The Open Source CFD Toolbox
   \\    /   O peration     | Website:  https://openfoam.org
    \\  /    A nd           | Version:  7
     \\/     M anipulation  |
\*---------------------------------------------------------------------------*/
FoamFile
{
    version     2.0;
    format      ascii;
    class       volScalarField;
    location    "0.231";
    object      gradTz;
}
// * * * * * * * * * * * * * * * * * * * * * * * * * * * * * * * * * * * * * //

dimensions      [0 -1 0 1 0 0 0];

internalField   nonuniform List<scalar> 
1596
(
-3.22728e-16
-1.5677e-16
1.59437e-16
3.59308e-18
-3.03342e-16
0
-1.41407e-16
-1.3944e-16
-9.45265e-18
-7.35692e-17
-6.5793e-19
-7.3237e-17
3.22636e-16
-7.24856e-17
3.38614e-16
2.92272e-16
1.73866e-16
2.19626e-16
0
3.2229e-16
0
4.53147e-16
-3.26104e-18
-1.38427e-16
1.37178e-16
2.83392e-16
9.02e-18
1.3414e-16
-6.47038e-17
1.29155e-16
-1.91134e-18
-1.7924e-16
-1.12043e-16
-2.73747e-16
-2.67155e-16
-2.43101e-16
1.38416e-16
0
-1.57771e-16
0
-2.95051e-16
5.17672e-18
2.69496e-16
-7.61982e-17
6.11262e-18
-1.86825e-18
-1.87358e-18
-1.97733e-18
4.84697e-17
0
9.29719e-17
2.63533e-16
-2.59919e-17
2.09701e-17
4.92947e-17
7.7152e-17
0
2.48189e-16
-7.42309e-17
7.39598e-17
0
-7.1024e-17
-7.36624e-17
1.24536e-16
-1.08078e-16
0
0
-3.96877e-17
2.53147e-17
0
-7.75046e-17
-9.85252e-17
6.83065e-17
-7.05458e-17
-3.62781e-18
0
4.33998e-17
1.14765e-16
-1.0296e-16
0
-3.0214e-17
-9.20883e-17
0
1.3721e-16
-1.36217e-17
-1.23377e-17
-1.25185e-17
7.11664e-17
8.77741e-17
9.13939e-18
3.61819e-18
-7.38538e-17
3.71774e-18
3.42346e-17
-1.47731e-17
-1.12702e-17
-1.57432e-16
1.49128e-16
-1.29432e-16
-2.82485e-19
-1.13531e-16
3.195e-18
-3.2056e-18
-8.9056e-17
0
-1.04119e-17
-8.42121e-17
-7.92723e-17
6.41251e-17
6.72862e-17
-9.16611e-19
-4.03578e-17
-3.47237e-17
2.65861e-17
9.41873e-17
-1.60199e-16
1.78657e-16
9.95525e-17
0
8.72464e-17
5.09761e-17
-2.45084e-17
1.12877e-16
-2.11381e-17
-8.9769e-17
7.95282e-19
-5.29571e-17
-6.44245e-17
-5.01051e-17
4.28403e-17
4.07131e-17
-5.44841e-19
-1.10714e-17
9.72229e-18
2.54706e-16
-2.97854e-16
0
0
-1.0727e-16
0
0
0
7.27702e-17
0
0
4.86504e-17
1.76448e-18
1.37081e-17
-3.74938e-17
0
1.99539e-17
7.84403e-18
0
-1.64631e-16
3.1634e-16
0
0
1.10473e-16
0
-4.15898e-17
4.15478e-17
-7.40696e-17
3.06941e-17
-3.09186e-17
0
4.45972e-17
4.40803e-17
0
-2.54273e-17
-2.03867e-17
-6.8604e-18
3.99824e-16
-1.86714e-16
0
-1.30136e-16
1.2868e-16
0
9.36809e-17
0
0
0
2.81237e-17
-2.82585e-17
0
-3.44846e-17
-9.82109e-18
0
3.00801e-18
1.4418e-17
0
-1.01491e-16
0
0
1.30435e-16
-2.4259e-16
1.31523e-17
5.03167e-18
-3.81482e-17
4.46879e-18
1.66189e-18
-2.9401e-17
-4.68872e-17
0
3.53948e-17
-7.15145e-18
7.25879e-18
1.92654e-17
-1.13407e-17
-5.1868e-18
8.34264e-17
-9.49434e-18
8.01496e-17
2.71682e-16
-1.54576e-17
-1.12762e-16
0
0
0
6.05517e-17
2.40283e-17
8.64182e-17
-2.08519e-17
-3.47616e-17
-2.04578e-17
-1.12872e-17
5.04114e-18
-1.10054e-17
4.92798e-18
-9.29173e-17
9.1078e-17
-1.67822e-16
-2.68391e-16
2.476e-16
9.66295e-17
-1.77975e-16
1.52612e-16
-1.30747e-16
3.41433e-17
2.57915e-17
-2.33226e-17
1.48016e-17
-1.34676e-17
3.95868e-17
0
-3.00592e-18
2.22496e-17
-3.31347e-18
-6.05019e-16
2.76893e-16
2.23575e-19
-5.95664e-17
8.14726e-18
9.38065e-17
-1.77741e-16
-7.23201e-17
6.10936e-17
-5.1359e-17
-4.3371e-17
0
-4.88638e-17
-1.45022e-17
-2.57458e-17
-1.53026e-17
1.20309e-18
-1.37764e-17
3.61758e-19
9.88833e-17
-8.76317e-17
1.69938e-19
-6.64725e-17
-1.63974e-16
1.54086e-16
7.13961e-19
7.04759e-17
-5.94826e-17
9.83436e-17
2.32079e-17
1.88546e-17
5.74329e-17
0
4.72752e-17
2.17306e-17
0
7.45102e-18
3.01536e-19
0
8.50129e-17
6.59e-17
-1.37645e-16
1.58822e-16
-2.36915e-16
1.66322e-16
6.15401e-17
-9.66026e-18
-9.74001e-17
1.74958e-17
-1.74095e-17
-5.20593e-17
2.04443e-17
-1.03085e-17
-2.15233e-17
9.21733e-18
-5.74196e-18
2.30723e-18
-9.21029e-17
3.0993e-16
-2.31176e-16
1.24163e-16
0
0
-3.22579e-17
6.91339e-17
-4.79915e-17
8.98206e-17
0
0
3.48894e-17
-3.0306e-17
-2.11593e-17
6.69033e-18
-7.1877e-18
3.809e-18
0
8.02018e-18
8.61375e-17
-6.86011e-17
-5.96171e-17
-9.47607e-17
-2.95178e-17
4.23623e-17
0
-4.49621e-17
-3.5938e-17
3.2047e-17
-2.57715e-17
2.06104e-17
0
8.11728e-18
1.55956e-17
0
0
0
-7.69449e-18
1.35883e-16
5.07609e-17
-1.80205e-16
4.90619e-17
4.16383e-17
0
0
4.23084e-17
-2.21042e-17
-3.09964e-17
2.49257e-17
-1.99318e-17
0
-5.16948e-18
4.30785e-18
0
-3.6654e-18
-1.28584e-18
-7.3418e-17
2.15448e-16
-2.5994e-16
-1.02269e-16
5.38746e-17
-3.93209e-17
3.2571e-17
0
-2.15544e-17
1.77841e-17
0
0
7.71575e-18
-7.72464e-18
2.26518e-18
-3.09453e-18
5.17411e-18
6.81834e-19
9.59865e-19
3.80111e-17
-3.40346e-17
1.72277e-16
-1.11006e-16
-4.42814e-17
6.08498e-18
6.74519e-17
2.50373e-17
2.06244e-17
0
1.14422e-17
-1.05643e-17
8.2711e-18
-6.90421e-18
8.68198e-18
-1.48762e-17
-4.02857e-18
3.50498e-18
9.23567e-19
1.01254e-16
-1.02904e-16
0
9.19211e-17
-4.87233e-17
-3.54779e-17
2.37576e-17
-7.66574e-17
0
-1.38201e-18
-1.33964e-17
-9.40313e-18
1.33949e-17
-1.09427e-18
-8.39099e-18
6.14009e-18
0
2.17601e-18
-8.96776e-19
1.74251e-16
-3.04973e-17
1.28089e-16
-1.00229e-16
5.37453e-17
4.85189e-18
-6.08732e-17
-2.01147e-17
3.59371e-17
-1.63235e-18
-2.01189e-17
1.67923e-17
-7.26809e-18
-9.30573e-18
0
0
0
-2.19613e-18
8.11482e-20
-1.5418e-16
1.49925e-16
1.10349e-19
2.23945e-17
1.90289e-17
-4.50595e-17
5.25856e-17
-4.2485e-17
3.56982e-17
-1.14449e-17
2.16715e-17
7.51317e-18
-3.15195e-18
1.55526e-19
-1.07898e-18
-1.89305e-18
0
0
0
0
0
7.21825e-17
-3.61116e-17
-1.08447e-16
0
0
-1.23574e-17
-1.95325e-17
1.60746e-17
0
-9.47548e-18
7.21374e-18
-2.35386e-17
2.69311e-17
-8.59085e-18
9.13307e-18
9.8845e-19
0
-2.98661e-17
3.02337e-17
0
-2.38144e-17
2.41188e-17
3.92177e-17
0
1.24754e-17
1.58353e-17
-7.1538e-17
0
-1.06608e-17
8.16479e-18
5.69671e-18
-4.16617e-18
6.03931e-18
0
-2.17965e-18
0
-1.53625e-17
-1.51844e-17
8.98802e-19
2.44687e-17
-6.5002e-17
0
-1.6315e-17
0
4.46759e-17
1.76649e-17
0
4.22903e-17
-4.37823e-17
4.58139e-18
-9.1941e-18
2.83187e-18
1.16422e-17
4.32356e-18
-3.42618e-18
0
3.16472e-17
-2.74146e-17
3.39532e-17
4.02019e-17
0
3.3118e-17
-3.11329e-17
-2.40119e-17
3.53986e-17
-5.30645e-17
-2.53275e-17
0
0
5.25814e-18
0
0
1.46586e-18
0
-1.40865e-16
1.08261e-16
0
1.76973e-18
-2.33796e-17
-1.27325e-18
2.04797e-17
1.42882e-17
-1.81861e-17
-4.47964e-17
6.99202e-17
-1.90384e-17
0
-8.75641e-18
0
0
0
-5.67489e-18
4.53704e-18
-3.99673e-17
3.72321e-17
9.86159e-17
-9.61526e-17
2.93233e-17
1.73242e-18
-2.07996e-17
1.77289e-17
2.97848e-17
2.24493e-17
-4.43152e-17
0
2.21555e-17
2.74978e-18
-1.00258e-17
-2.14868e-17
1.76523e-17
-2.77514e-18
5.29088e-18
-1.35683e-16
1.93244e-16
-1.91391e-16
3.33741e-17
2.80386e-17
-2.6568e-17
2.22391e-17
-1.7416e-17
0
-1.45168e-17
2.2847e-17
9.89295e-18
1.57936e-17
1.95602e-17
-2.91779e-17
-5.88571e-19
0
-2.17097e-18
7.29413e-19
-1.46702e-16
-4.33353e-17
-7.53904e-17
4.02358e-17
-6.48589e-17
5.59179e-17
-3.31957e-17
2.7766e-17
-2.04972e-18
-2.03749e-18
-2.42332e-17
1.44204e-17
-7.74585e-18
2.37479e-17
-2.54936e-17
3.02643e-18
2.65368e-18
0
-1.27182e-18
1.58617e-16
-4.67717e-17
0
0
-6.67697e-17
1.29586e-16
-3.01376e-17
-5.7043e-18
4.66778e-17
-1.22087e-18
0
0
-1.04112e-17
0
-2.23551e-17
5.39145e-17
-3.72913e-17
0
5.11874e-19
5.40933e-17
1.00623e-16
0
-4.24892e-17
-3.42885e-17
-3.00445e-17
-3.13941e-17
1.2864e-17
-3.58028e-17
-1.93837e-17
0
0
1.41911e-17
0
0
-3.05427e-17
5.04108e-17
0
0
3.71262e-16
-4.45871e-17
-2.23349e-16
-1.20503e-16
1.63556e-16
5.17067e-17
3.04405e-17
0
-1.10577e-17
1.05969e-17
2.6363e-17
-8.47003e-18
-1.24528e-17
1.92769e-17
-2.05047e-17
-6.23328e-18
0
0
0
2.9731e-17
-2.33426e-16
2.28742e-16
-2.18095e-17
-1.67597e-16
2.61747e-16
-1.31124e-16
0
0
6.87413e-17
-5.63422e-17
0
-1.68163e-17
2.93572e-17
-3.25363e-18
8.53244e-18
2.59118e-18
2.93044e-20
5.61797e-19
0
0
0
1.91164e-16
-1.28271e-16
1.337e-16
-2.08208e-16
5.91411e-17
0
-2.10941e-17
3.35794e-17
-3.43202e-17
-6.68362e-18
-7.88986e-20
-4.55822e-18
-6.58151e-19
-3.63729e-18
-1.02403e-18
-5.57561e-19
2.4862e-16
-4.4266e-16
2.09458e-16
0
5.57983e-17
-7.60622e-17
7.57301e-17
-6.00641e-17
0
-2.89736e-17
4.06196e-17
0
0
-5.33153e-20
0
-4.76108e-18
3.25256e-18
5.87142e-19
8.90916e-19
2.42132e-16
0
-9.5545e-17
1.06703e-16
-6.65661e-17
1.45291e-16
-6.85699e-17
-5.33359e-17
5.3893e-17
-5.46328e-18
0
0
3.48085e-18
-5.84506e-18
-4.0993e-18
7.76434e-18
-1.68081e-18
8.56183e-19
0
1.37445e-16
1.06855e-16
-3.93616e-18
-1.01797e-16
-1.02336e-17
-7.35218e-17
8.13217e-18
6.16116e-17
-3.17364e-18
5.56587e-18
0
0
-3.5659e-18
0
4.18942e-18
-4.48168e-18
0
5.73707e-19
-1.58858e-19
-7.29474e-17
-5.36179e-17
5.02134e-17
-5.72716e-18
-2.56246e-18
6.90267e-18
0
-1.81417e-18
2.70781e-17
-2.28038e-17
0
7.68165e-18
-1.51744e-18
-6.77186e-18
-6.18782e-19
-4.82187e-19
0
-4.48638e-19
0
2.97258e-17
-5.64641e-17
-6.77866e-19
2.41762e-17
2.20177e-17
-2.18668e-17
-1.54265e-17
1.74592e-17
-5.96741e-18
4.67054e-18
-4.52073e-18
4.66016e-18
0
1.18707e-20
-4.56264e-19
1.63912e-18
-5.6071e-21
0
0
2.97268e-17
-2.96154e-17
-2.40494e-17
2.13092e-17
3.88896e-17
-3.91192e-17
-7.71354e-18
7.73194e-18
-6.01795e-18
6.08109e-18
-4.5209e-18
8.5254e-18
-2.39115e-18
-1.71815e-18
-5.26403e-19
1.74751e-19
4.16161e-19
1.1e-19
-8.24903e-20
0
-7.04301e-18
4.18753e-17
-4.54029e-17
3.88081e-17
-3.441e-17
0
2.71759e-17
-2.43157e-17
0
8.99199e-18
-1.13812e-17
-6.4621e-18
6.77269e-18
1.24247e-18
0
0
-4.48716e-19
1.63015e-19
1.18285e-16
-2.17576e-16
2.21426e-16
-1.93906e-16
7.61538e-17
-6.43672e-17
6.10982e-17
7.22752e-18
-2.68392e-17
2.39756e-17
0
-1.72874e-17
1.57486e-17
-2.98135e-18
-1.217e-18
1.90719e-18
1.40113e-18
4.35618e-19
-1.5751e-19
2.72971e-16
0
-1.08107e-16
8.4031e-17
1.0116e-17
-7.74384e-17
1.37152e-16
-1.21406e-16
4.76071e-17
-2.02514e-17
2.07291e-17
4.09698e-18
7.00434e-18
2.90387e-18
-2.39654e-18
-3.19055e-19
-3.03272e-18
0
3.08543e-19
2.18193e-16
-2.45608e-16
0
2.23787e-17
9.61385e-17
-9.40934e-17
1.59771e-17
1.41154e-17
6.15949e-18
1.0799e-17
0
0
-1.21775e-17
2.27469e-17
-8.30181e-18
-2.97171e-18
3.25352e-18
2.60266e-19
-5.86112e-19
2.06663e-17
2.15766e-16
-2.48206e-17
-1.68881e-16
1.48293e-16
1.76617e-17
-1.56365e-17
-1.37866e-17
4.51709e-17
-5.60291e-17
3.35905e-17
-3.4331e-17
5.32056e-18
-6.81254e-18
1.23287e-17
-8.22608e-18
0
0
5.8723e-19
0
5.39859e-17
-1.61411e-16
1.84505e-16
-1.48199e-16
1.47846e-16
0
5.07241e-17
-5.09566e-17
-3.80787e-17
5.63857e-17
0
2.32415e-17
-2.93798e-17
-4.34312e-18
0
-4.84977e-19
-9.57343e-19
-2.24724e-20
-5.14389e-16
2.44959e-16
0
-1.63529e-16
1.63512e-16
9.9571e-17
-6.54213e-17
2.67518e-17
0
-1.1937e-18
8.77049e-18
-8.45888e-18
-1.24372e-17
1.92501e-17
-2.04692e-17
0
4.38827e-18
-9.44083e-19
-5.93431e-19
3.162e-16
-3.10754e-16
0
4.23801e-17
3.83818e-17
-3.49866e-17
0
-2.80362e-17
-2.39499e-17
0
-1.17121e-18
0
1.41982e-17
0
0
6.24647e-18
2.34356e-17
-3.03597e-17
0
3.85849e-20
4.67945e-17
-4.30131e-17
3.48295e-17
-1.77168e-16
6.76467e-17
0
5.70859e-18
1.61587e-17
0
-1.64337e-17
4.73025e-17
-4.9694e-17
8.26241e-18
0
-9.91785e-19
0
0
0
3.91796e-20
0
3.97548e-17
0
-6.08221e-17
6.1789e-17
0
2.17931e-17
-1.73541e-17
6.27189e-17
-3.02062e-17
1.07743e-17
-1.72448e-17
1.62881e-17
-2.5527e-17
-4.06002e-18
0
-2.61848e-18
0
1.22779e-16
-2.07674e-16
0
-3.33403e-17
2.97609e-17
0
0
-3.97555e-17
0
-1.45282e-17
-2.28661e-17
-9.90255e-18
1.58107e-17
0
8.28643e-18
0
0
5.70421e-18
-6.28067e-18
0
1.79149e-16
-1.43356e-16
3.08655e-17
-2.75588e-17
-1.12058e-17
3.21967e-17
3.59114e-17
-4.34893e-17
1.40125e-17
1.09826e-18
-1.27738e-17
5.21781e-17
-1.62103e-17
-3.71998e-17
1.27776e-17
-3.25943e-18
1.95609e-18
-5.88108e-19
-2.9244e-16
1.08262e-16
0
0
1.17147e-17
-1.19125e-17
8.38885e-18
5.40195e-18
3.91553e-17
1.98412e-17
-1.95777e-17
-8.55449e-19
-1.08084e-17
8.76503e-18
0
4.2425e-18
2.9875e-18
1.5886e-18
5.31567e-19
0
9.34973e-17
-8.69529e-17
2.78278e-17
2.85161e-17
-5.49278e-18
-1.7581e-17
-1.49069e-17
-4.89074e-17
1.95204e-17
-1.1735e-17
1.62002e-17
1.01072e-17
-1.24404e-17
1.32047e-17
8.24714e-18
-1.07661e-17
-1.46731e-18
0
-1.66191e-17
-7.4328e-17
2.64637e-17
2.44753e-17
-8.37288e-17
5.97697e-17
2.93748e-17
-3.00255e-17
2.27891e-17
-1.85258e-17
0
0
-1.4912e-17
2.66662e-17
-1.17029e-17
1.07953e-17
-1.18113e-17
1.93193e-18
-3.42963e-18
3.11538e-17
2.90114e-17
-2.62893e-17
2.03723e-17
-2.38911e-17
-3.59924e-17
0
0
0
0
0
0
7.63006e-18
-1.99102e-17
2.10572e-17
-6.73837e-18
8.31173e-18
3.87535e-18
-3.28155e-18
6.46124e-17
-1.09456e-16
1.3687e-16
-6.34861e-17
8.78792e-17
-6.33505e-17
1.17788e-16
-6.61019e-17
-3.48962e-17
3.56972e-17
0
9.46983e-18
-7.45417e-18
1.79804e-17
-6.1294e-18
-7.73934e-18
-1.60685e-17
1.21763e-18
2.78522e-18
1.00594e-16
2.88493e-17
0
-4.46416e-17
-3.49875e-17
7.98843e-17
7.86946e-18
-3.18043e-17
1.88309e-17
-1.31835e-17
0
-7.49644e-18
0
-5.97905e-18
4.82489e-18
-4.30941e-18
-1.42084e-18
9.97113e-19
0
1.40449e-16
-3.04969e-17
1.28039e-16
-1.00211e-16
-1.99987e-17
7.81514e-17
-4.6868e-17
2.42392e-18
1.98841e-18
-1.28566e-17
1.23867e-17
0
0
7.3029e-18
-2.61521e-18
1.68847e-18
5.14388e-18
-1.79052e-18
0
2.91983e-20
0
-2.84152e-17
1.65939e-16
-1.11969e-16
-1.17963e-16
6.45195e-17
-6.64527e-17
6.14414e-17
3.00966e-17
-2.25167e-17
9.08724e-18
-8.05977e-18
1.43262e-18
1.30468e-17
4.47229e-19
-4.89525e-18
4.84281e-18
-9.97653e-19
3.41262e-16
-1.08736e-16
5.26757e-17
-1.62963e-16
4.42811e-17
-6.87855e-17
3.70457e-17
0
0
-1.41875e-18
-1.9407e-18
-5.72766e-19
0
-1.15009e-17
-8.68218e-18
6.34468e-18
-4.65666e-19
8.57529e-19
1.98376e-18
0
-1.07856e-16
1.81921e-16
4.00816e-17
-1.47488e-16
3.93208e-17
-5.99004e-17
1.03624e-17
4.84154e-17
0
0
8.91563e-19
9.85806e-18
0
-8.66369e-18
-3.91843e-18
5.7692e-19
-2.0259e-18
-2.3369e-18
0
-6.77034e-17
1.55788e-17
1.22701e-16
9.10627e-17
-1.66553e-16
7.54791e-17
-5.20436e-17
2.79174e-17
-3.82585e-17
0
0
0
-1.57997e-17
4.11674e-18
-5.19485e-18
0
-3.22875e-19
1.61438e-18
-2.56372e-16
2.4281e-16
2.58401e-16
-3.13563e-16
1.4566e-16
-1.36807e-16
0
5.48871e-17
-7.48825e-17
4.31669e-17
-3.34149e-17
2.71627e-17
2.19727e-17
1.63403e-17
1.28195e-17
0
0
0
0
2.84146e-16
-1.63416e-16
0
0
-5.32545e-17
1.28896e-16
-8.24931e-17
-5.81608e-17
5.75052e-17
4.23957e-17
7.0824e-17
-2.81839e-17
1.20947e-17
9.09e-18
6.65592e-18
5.50507e-18
8.87081e-18
-4.35374e-19
4.43468e-19
-2.87677e-16
2.63936e-16
1.40227e-16
-7.30654e-17
1.58757e-16
-1.01849e-16
-8.0012e-17
-6.72827e-17
0
-8.91118e-17
4.5427e-18
3.24612e-17
-2.52041e-17
-2.04444e-17
-7.55612e-18
-7.90652e-18
-6.33133e-18
0
0
-9.8966e-17
0
7.644e-17
-1.01777e-19
0
0
8.25349e-17
6.94263e-17
0
4.83815e-17
0
-4.93277e-17
-1.39047e-17
2.46182e-17
0
1.59063e-17
-2.24378e-18
2.28896e-18
0
2.10883e-16
0
1.46941e-16
-2.72298e-16
2.4234e-16
1.94606e-16
-6.24431e-18
0
5.34634e-18
5.6645e-17
0
-5.58634e-17
6.22974e-17
-5.54817e-17
-1.21013e-17
-1.27527e-17
-3.79653e-18
-6.85164e-19
-2.47868e-18
-1.95707e-16
2.81808e-16
-7.95242e-17
-2.07569e-16
-1.19724e-16
-1.03155e-16
-1.77395e-16
-7.08172e-17
5.89443e-18
2.584e-17
-2.57915e-17
8.20072e-17
-3.6304e-17
7.27816e-17
-1.36347e-17
0
1.57639e-17
-9.34419e-18
2.49308e-18
4.33691e-16
-9.62843e-18
-3.29075e-16
2.71683e-16
-2.43566e-16
2.1171e-16
-6.96131e-18
-7.99719e-17
6.96367e-17
2.76327e-17
-3.59729e-18
-6.73267e-17
1.9386e-17
2.09681e-17
-6.29507e-18
6.36687e-18
-1.63276e-17
-1.82835e-18
-3.9645e-18
2.12904e-16
8.98483e-17
1.57742e-16
-1.38427e-16
-1.139e-16
6.1578e-18
-8.71163e-17
2.10873e-16
7.3766e-18
9.74931e-17
5.70868e-17
-5.05953e-17
0
-3.53947e-17
0
0
2.33167e-17
1.02122e-17
4.61943e-18
1.99575e-16
0
1.55845e-16
1.37534e-16
-1.2204e-16
1.06512e-16
0
-8.26563e-17
-1.14624e-16
-9.98735e-17
-5.75921e-17
5.11674e-17
0
0
0
0
-2.18672e-17
-1.65128e-17
0
-3.91033e-16
0
-7.8937e-18
-6.97493e-18
1.85981e-16
-1.04691e-16
-4.80664e-17
-4.83004e-17
1.16811e-16
0
3.06939e-17
-3.23151e-18
2.79202e-17
0
0
3.70468e-17
-2.76435e-18
1.98325e-17
-7.65864e-18
2.74952e-16
7.91647e-17
-7.83475e-17
-6.91151e-17
-2.39633e-16
1.64529e-16
1.98607e-16
-5.67781e-18
-7.992e-17
7.93736e-17
1.66513e-17
-8.48326e-17
-6.92743e-17
-4.25616e-17
-4.51492e-17
-4.27237e-17
3.59577e-17
-1.69411e-18
7.84406e-18
-8.44325e-17
3.83395e-17
-1.84644e-16
3.15699e-17
-3.14551e-17
0
-9.88503e-17
-7.27331e-18
-9.18255e-17
8.22434e-18
8.97687e-17
6.60147e-17
-1.63151e-17
6.43031e-18
4.29045e-17
0
-7.51126e-17
-2.77665e-17
-5.76116e-19
1.72076e-16
-4.67617e-18
2.90439e-16
-1.38296e-16
2.82485e-19
3.66817e-18
1.10232e-16
-9.00053e-18
8.90556e-17
-8.33856e-17
-7.84924e-17
0
7.92721e-17
6.31312e-17
8.85202e-19
-1.28795e-18
4.07487e-17
2.82224e-17
0
-1.2226e-16
0
-2.92233e-17
1.31872e-16
1.90538e-18
3.02543e-17
-1.06593e-16
1.00722e-16
1.06953e-16
1.02537e-16
9.86887e-17
0
-7.70114e-17
0
4.1266e-18
-4.28584e-18
0
-4.12254e-19
2.03246e-17
8.48111e-17
4.5228e-18
-6.69198e-17
2.06631e-16
-6.62967e-17
0
0
-1.20524e-16
-1.03626e-16
-9.93353e-17
-1.80973e-16
-2.53147e-17
0
0
0
-8.48995e-18
8.98449e-18
5.7648e-17
-2.06353e-17
4.69614e-18
0
-1.44436e-16
-1.31944e-16
1.38384e-16
-1.37419e-16
-1.96764e-16
2.41029e-16
6.73181e-17
0
1.06894e-16
1.21764e-16
-2.62918e-17
1.43042e-16
-2.34458e-17
2.44014e-17
9.50273e-17
-5.4781e-17
0
-1.61969e-16
0
-1.54978e-16
1.51831e-16
0
2.7361e-16
1.28433e-16
-2.70123e-16
2.16312e-16
-1.37752e-18
-6.53664e-17
-1.17893e-16
0
1.63443e-16
-2.73747e-16
2.93862e-16
-3.7451e-16
0
0
1.61313e-16
-1.08564e-18
-2.67191e-18
-3.06215e-16
3.0917e-16
-1.49379e-16
1.4877e-16
1.46628e-16
-1.29321e-16
0
0
2.4478e-16
-2.48997e-16
-2.65796e-16
2.63612e-16
-2.56899e-16
2.77932e-16
-4.35435e-16
0
)
;

boundaryField
{
    up
    {
        type            calculated;
        value           nonuniform List<scalar> 
84
(
0
0
0
0
-1.47731e-17
2.65861e-17
-1.10714e-17
7.84403e-18
-6.8604e-18
0
-5.1868e-18
4.92798e-18
-3.31347e-18
3.61758e-19
3.01536e-19
2.30723e-18
0
0
-1.28584e-18
9.59865e-19
9.23567e-19
-8.96776e-19
8.11482e-20
0
3.62826e-19
1.75445e-19
-3.25052e-18
0
4.53704e-18
5.55473e-18
7.29413e-19
-1.27182e-18
5.11874e-19
0
-2.51187e-19
5.80075e-19
-5.55969e-19
8.88991e-19
0
-1.5848e-19
0
0
-8.25215e-20
1.63015e-19
-1.5751e-19
3.08543e-19
-5.86112e-19
5.8723e-19
-2.24724e-20
-5.93431e-19
0
0
0
-6.28067e-18
-8.52183e-19
5.31567e-19
0
-3.42963e-18
-3.28155e-18
2.42359e-18
0
0
-9.97653e-19
1.98376e-18
-2.3369e-18
1.61438e-18
0
4.43468e-19
0
0
-2.47868e-18
2.49308e-18
-3.9645e-18
4.61943e-18
0
-7.65864e-18
7.84406e-18
-5.76116e-19
0
2.03246e-17
-2.06353e-17
0
0
0
)
;
    }
    low
    {
        type            calculated;
        value           nonuniform List<scalar> 
84
(
-3.22965e-16
3.2229e-16
-1.57338e-16
2.4854e-16
4.36368e-17
-1.13402e-17
9.47743e-17
1.02834e-17
0
4.00477e-16
-1.01491e-16
8.30674e-17
-9.29173e-17
-6.05027e-16
9.88833e-17
0
-9.21029e-17
8.02018e-18
-7.69449e-18
-7.3418e-17
3.80111e-17
1.01254e-16
1.7359e-16
-1.5418e-16
0
-2.98661e-17
-1.53625e-17
0
-1.40865e-16
-3.99673e-17
-1.35259e-16
-1.46368e-16
1.58395e-16
5.40933e-17
3.71286e-16
2.9731e-17
0
2.4862e-16
2.42662e-16
1.37735e-16
-7.3102e-17
2.97258e-17
2.97268e-17
0
1.18285e-16
2.735e-16
2.18193e-16
2.10254e-17
0
-5.14413e-16
3.162e-16
3.85849e-20
3.91796e-20
1.22779e-16
0
-2.91758e-16
0
-1.66191e-17
3.11538e-17
6.42066e-17
9.98833e-17
1.39788e-16
2.91983e-20
3.40718e-16
0
0
-2.56372e-16
2.83881e-16
-2.87503e-16
-9.8966e-17
2.10891e-16
-1.95707e-16
4.34409e-16
2.1341e-16
1.99575e-16
-3.91033e-16
2.74391e-16
-8.38455e-17
1.72076e-16
-1.22023e-16
8.48111e-17
5.1287e-18
-1.61969e-16
1.61432e-16
)
;
    }
    left
    {
        type            calculated;
        value           nonuniform List<scalar> 
19
(
-3.22728e-16
-1.56896e-16
1.59437e-16
3.59417e-18
-3.03429e-16
0
-1.41407e-16
-1.3944e-16
-9.91878e-18
-7.35692e-17
-6.5793e-19
-7.3237e-17
3.25885e-16
-7.24856e-17
3.38614e-16
2.92272e-16
1.73866e-16
2.55069e-16
0
)
;
    }
    right
    {
        type            calculated;
        value           nonuniform List<scalar> 
19
(
1.61313e-16
-9.5979e-19
-2.67191e-18
-3.06216e-16
3.09257e-16
-1.49379e-16
1.4877e-16
1.46628e-16
-1.28855e-16
0
0
2.47092e-16
-2.52246e-16
-2.65796e-16
2.63612e-16
-2.56899e-16
2.77932e-16
-4.70878e-16
0
)
;
    }
    frontAndBackPlanes
    {
        type            empty;
    }
}


// ************************************************************************* //
