/*--------------------------------*- C++ -*----------------------------------*\
  =========                 |
  \\      /  F ield         | OpenFOAM: The Open Source CFD Toolbox
   \\    /   O peration     | Website:  https://openfoam.org
    \\  /    A nd           | Version:  7
     \\/     M anipulation  |
\*---------------------------------------------------------------------------*/
FoamFile
{
    version     2.0;
    format      ascii;
    class       volScalarField;
    location    "0.492";
    object      gradTz;
}
// * * * * * * * * * * * * * * * * * * * * * * * * * * * * * * * * * * * * * //

dimensions      [0 -1 0 1 0 0 0];

internalField   nonuniform List<scalar> 
1596
(
-6.4552e-16
-3.15547e-16
3.18674e-16
5.18625e-18
-6.12098e-16
0
-2.88788e-16
-2.84696e-16
-1.63809e-17
-1.48594e-16
-1.53678e-18
-1.47347e-16
6.45271e-16
-1.45237e-16
6.79599e-16
5.85676e-16
3.48154e-16
4.39157e-16
0
6.46976e-16
0
9.23684e-16
-5.11366e-18
-2.87636e-16
2.85682e-16
5.8191e-16
1.53924e-17
2.76907e-16
-1.32841e-16
2.64638e-16
-4.47442e-18
-3.66288e-16
-2.28099e-16
-5.49672e-16
-5.3546e-16
-4.86641e-16
2.76636e-16
0
-3.20007e-16
0
-6.08429e-16
8.13066e-18
5.68313e-16
-1.54343e-16
9.26295e-18
-4.04259e-18
-4.32628e-18
-4.75255e-18
1.04414e-16
0
1.90078e-16
5.40848e-16
-5.31483e-17
4.23563e-17
9.98313e-17
1.5458e-16
0
4.99194e-16
-1.5405e-16
1.53487e-16
0
-1.48783e-16
-1.52126e-16
2.67634e-16
-2.39911e-16
0
0
-7.83984e-17
5.44279e-17
0
-1.60323e-16
-2.06413e-16
1.41598e-16
-1.42734e-16
-7.36035e-18
0
8.67995e-17
2.38256e-16
-2.20781e-16
0
-6.68211e-17
-2.01828e-16
0
3.05556e-16
-3.07916e-17
-2.78207e-17
-2.03367e-17
1.61078e-16
1.95138e-16
1.95789e-17
3.12258e-18
-1.53139e-16
7.75017e-18
7.06793e-17
-3.00743e-17
-2.25404e-17
-3.27625e-16
3.18064e-16
-2.85783e-16
-4.66249e-19
-2.61947e-16
7.42289e-18
-7.44753e-18
-2.12346e-16
0
-1.62337e-17
-1.8992e-16
-1.76491e-16
1.46255e-16
1.45256e-16
-1.99787e-18
-8.69689e-17
-7.16891e-17
5.45508e-17
1.88375e-16
-3.36106e-16
3.87795e-16
2.20636e-16
0
2.0018e-16
1.2103e-16
-5.86731e-17
2.70148e-16
-5.14088e-17
-2.1346e-16
2.14299e-18
-1.28958e-16
-1.47002e-16
-1.17273e-16
9.80753e-17
8.77344e-17
-1.16221e-18
-2.29091e-17
1.37066e-17
5.31459e-16
-6.46319e-16
0
0
-2.57182e-16
0
0
0
1.87928e-16
0
0
1.17586e-16
4.91297e-18
2.76833e-17
-8.5371e-17
0
4.54546e-17
1.72969e-17
0
-3.51805e-16
6.8171e-16
0
0
2.64862e-16
0
-1.07064e-16
1.06955e-16
-1.91284e-16
8.1193e-17
-8.17868e-17
0
1.18189e-16
1.08468e-16
0
-6.27637e-17
-4.64662e-17
-1.50429e-17
8.11842e-16
-3.85424e-16
0
-3.00027e-16
2.96669e-16
0
2.38536e-16
0
0
0
7.77736e-17
-7.81464e-17
0
-9.08754e-17
-2.65524e-17
0
4.14221e-18
3.65605e-17
0
-2.06086e-16
0
0
3.01708e-16
-5.72235e-16
2.17506e-17
9.26769e-18
-1.03018e-16
9.38842e-18
1.65357e-18
-8.36104e-17
-1.38945e-16
0
1.04913e-16
-2.0121e-17
2.0423e-17
5.03416e-17
-2.84481e-17
-1.34181e-17
1.82398e-16
-1.30353e-17
1.74663e-16
6.23182e-16
-2.3971e-17
-2.73074e-16
0
0
0
1.73158e-16
7.21381e-17
2.62303e-16
-6.34201e-17
-1.03036e-16
-6.43278e-17
-3.34843e-17
1.4775e-17
-3.17702e-17
1.28334e-17
-1.94953e-16
1.90682e-16
-3.58498e-16
-6.1607e-16
5.81688e-16
2.46219e-16
-4.63716e-16
4.16554e-16
-3.72879e-16
9.67614e-17
7.80201e-17
-7.04187e-17
5.03961e-17
-4.3316e-17
1.2454e-16
0
-9.18648e-18
6.67837e-17
-9.85393e-18
-1.22795e-15
5.74186e-16
5.57933e-19
-1.41815e-16
1.25433e-17
2.40484e-16
-4.62469e-16
-2.01577e-16
1.79346e-16
-1.58309e-16
-1.39629e-16
0
-1.63362e-16
-4.89657e-17
-8.96866e-17
-5.32737e-17
4.21456e-18
-4.41487e-17
4.22342e-19
2.00693e-16
-1.83919e-16
4.89913e-19
-1.51282e-16
-3.98147e-16
3.80667e-16
2.6008e-19
1.96436e-16
-1.74617e-16
3.06329e-16
7.2663e-17
6.27448e-17
2.01079e-16
0
1.70424e-16
7.79986e-17
0
2.48959e-17
3.52268e-19
0
1.78423e-16
1.50402e-16
-3.06807e-16
3.86607e-16
-5.97127e-16
4.37002e-16
1.79225e-16
-1.92609e-17
-3.03488e-16
6.00025e-17
-5.97065e-17
-1.90037e-16
7.86741e-17
-3.73801e-17
-8.08553e-17
3.62956e-17
-2.22251e-17
7.98652e-18
-1.86962e-16
6.63328e-16
-4.91447e-16
2.84226e-16
0
0
-9.19868e-17
1.91682e-16
-1.50658e-16
2.87805e-16
0
0
1.31523e-16
-1.16826e-16
-8.71321e-17
2.71653e-17
-2.81029e-17
1.44242e-17
0
1.05549e-17
1.74818e-16
-1.50014e-16
-1.36137e-16
-2.34961e-16
-8.87612e-17
1.08643e-16
0
-1.43576e-16
-1.24003e-16
1.14469e-16
-9.80125e-17
8.28967e-17
0
3.2761e-17
6.85793e-17
0
0
0
-1.00295e-17
2.97665e-16
1.24083e-16
-4.06917e-16
1.19109e-16
1.06708e-16
0
0
1.37349e-16
-7.10501e-17
-1.10716e-16
9.4796e-17
-8.01673e-17
0
-2.34146e-17
2.173e-17
0
-1.75025e-17
-6.0166e-18
-1.54336e-16
4.53024e-16
-5.63609e-16
-2.41612e-16
1.24226e-16
-1.01892e-16
9.02592e-17
0
-6.91441e-17
6.05148e-17
0
0
3.3546e-17
-3.35846e-17
1.07837e-17
-1.28693e-17
2.61935e-17
2.32459e-18
4.42354e-18
7.71332e-17
-7.15613e-17
3.83895e-16
-2.49412e-16
-1.08212e-16
1.00201e-17
1.81499e-16
7.52623e-17
6.61605e-17
0
4.47235e-17
-4.18863e-17
3.50969e-17
-3.10331e-17
4.3277e-17
-7.55219e-17
-2.03584e-17
1.78894e-17
4.92358e-18
2.10239e-16
-2.11156e-16
0
2.18165e-16
-1.12676e-16
-9.23907e-17
7.20872e-17
-2.2484e-16
0
-3.42076e-18
-4.92998e-17
-3.87256e-17
6.0526e-17
-3.88015e-18
-4.18265e-17
3.18785e-17
0
1.22704e-17
-4.78076e-18
3.49455e-16
-6.40785e-17
2.86672e-16
-2.25476e-16
1.37421e-16
2.48471e-17
-1.64869e-16
-6.35177e-17
1.17792e-16
-3.62457e-18
-8.01858e-17
7.05136e-17
-3.19205e-17
-4.56749e-17
0
0
0
-1.23941e-17
4.68067e-19
-3.16893e-16
3.10328e-16
1.47538e-19
5.16559e-17
4.66756e-17
-1.20849e-16
1.47834e-16
-1.29083e-16
1.15475e-16
-4.3048e-17
8.31814e-17
3.19728e-17
-1.40673e-17
8.47618e-19
-5.95177e-18
-1.05404e-17
0
0
0
0
0
1.63128e-16
-7.16067e-17
-2.57965e-16
0
0
-3.7051e-17
-6.44981e-17
5.66372e-17
0
-4.03235e-17
3.32494e-17
-1.17881e-16
1.3759e-16
-4.79936e-17
5.13797e-17
5.79375e-18
0
-6.14385e-17
6.21947e-17
0
-5.42882e-17
5.53216e-17
9.76659e-17
0
3.74048e-17
5.6068e-17
-2.42902e-16
0
-4.27244e-17
3.5317e-17
2.75406e-17
-2.14935e-17
3.2318e-17
0
-1.26129e-17
0
-3.15684e-17
-3.22204e-17
1.91206e-18
5.57797e-17
-1.56029e-16
0
-4.39278e-17
0
1.39777e-16
6.04998e-17
0
1.68849e-16
-1.84845e-16
1.6607e-17
-4.81661e-17
1.02626e-17
6.12773e-17
2.46114e-17
-1.94687e-17
0
6.60428e-17
-6.05903e-17
7.56885e-17
9.59601e-17
0
9.0143e-17
-8.6733e-17
-7.42029e-17
1.19717e-16
-1.80548e-16
-9.54854e-17
0
0
2.49543e-17
0
0
7.72532e-18
0
-2.89135e-16
2.21176e-16
0
2.4769e-18
-5.66884e-17
-3.24925e-18
5.33312e-17
4.20646e-17
-4.92692e-17
-1.41207e-16
2.38554e-16
-6.34874e-17
0
-3.49547e-17
0
0
0
-2.96221e-17
2.35941e-17
-8.08797e-17
7.75529e-17
2.14943e-16
-2.12576e-16
6.7214e-17
3.0319e-18
-5.42376e-17
4.89576e-17
8.73031e-17
7.06864e-17
-1.40228e-16
0
8.31692e-17
1.63169e-17
-3.99707e-17
-9.43396e-17
7.86211e-17
-1.4049e-17
2.59049e-17
-2.70343e-16
4.06893e-16
-4.05756e-16
7.41325e-17
6.58036e-17
-6.37944e-17
5.48211e-17
-4.60524e-17
0
-4.21761e-17
7.26868e-17
3.16561e-17
5.30162e-17
7.29368e-17
-1.10804e-16
-5.01784e-19
0
-1.01165e-17
3.33788e-18
-2.92344e-16
-9.00795e-17
-1.64039e-16
8.59096e-17
-1.49029e-16
1.34553e-16
-8.16423e-17
7.27182e-17
-3.77401e-18
-3.8018e-18
-7.38881e-17
4.23449e-17
-2.77633e-17
8.2722e-17
-8.88029e-17
1.30103e-17
9.95727e-18
0
-5.66433e-18
3.16088e-16
-9.68651e-17
0
0
-1.5363e-16
3.0215e-16
-7.23341e-17
-1.47887e-17
1.25044e-16
-3.14543e-18
0
0
-3.30135e-17
0
-7.54874e-17
1.87491e-16
-1.31624e-16
0
2.16059e-18
1.09306e-16
2.08159e-16
0
-9.24313e-17
-7.91828e-17
-7.32484e-17
-7.47078e-17
3.24673e-17
-9.2332e-17
-5.26943e-17
0
0
4.06077e-17
0
0
-9.92101e-17
1.62786e-16
0
0
7.49808e-16
-8.25107e-17
-4.66743e-16
-2.65401e-16
3.5906e-16
1.18757e-16
7.24385e-17
0
-2.80203e-17
2.84255e-17
6.93227e-17
-2.27e-17
-3.56335e-17
5.56346e-17
-5.91782e-17
-1.92698e-17
0
0
0
6.00444e-17
-4.8536e-16
4.76812e-16
-4.68662e-17
-3.73715e-16
5.91474e-16
-3.00413e-16
0
0
1.73673e-16
-1.44e-16
0
-4.58287e-17
7.91202e-17
-9.41438e-18
2.35723e-17
7.32093e-18
6.71782e-20
1.63039e-18
0
0
0
4.13681e-16
-2.76829e-16
3.02934e-16
-4.7504e-16
1.37079e-16
0
-5.1703e-17
8.46069e-17
-8.64733e-17
-1.75876e-17
-7.22715e-19
-1.2379e-17
-1.96783e-18
-9.8227e-18
-2.71548e-18
-1.50253e-18
5.05383e-16
-9.08067e-16
4.3372e-16
0
1.22834e-16
-1.67078e-16
1.73117e-16
-1.37407e-16
0
-7.00378e-17
9.82728e-17
0
0
-5.59471e-19
0
-1.22629e-17
8.43315e-18
1.66889e-18
2.37885e-18
4.84015e-16
0
-2.00797e-16
2.2442e-16
-1.45374e-16
3.19532e-16
-1.52281e-16
-1.22758e-16
1.2404e-16
-1.28083e-17
0
0
8.46018e-18
-1.46591e-17
-1.02504e-17
1.95221e-17
-4.22511e-18
2.20282e-18
0
2.74999e-16
2.20163e-16
-4.75675e-18
-2.13365e-16
-2.20535e-17
-1.61944e-16
1.56589e-17
1.38081e-16
-7.25774e-18
1.30488e-17
0
0
-8.66689e-18
0
1.02526e-17
-1.09678e-17
0
1.40709e-18
-3.92152e-19
-1.46003e-16
-1.10294e-16
1.03222e-16
-1.20819e-17
-5.48089e-18
1.50384e-17
0
-4.06633e-18
6.2049e-17
-5.22533e-17
0
1.81975e-17
-3.47624e-18
-1.61664e-17
-1.48534e-18
-1.16161e-18
0
-1.09807e-18
0
6.02363e-17
-1.15198e-16
-2.20201e-18
5.04463e-17
4.73676e-17
-4.7126e-17
-3.42499e-17
3.88024e-17
-1.36209e-17
1.06314e-17
-1.05537e-17
1.08792e-17
0
2.82603e-20
-1.0901e-18
3.93336e-18
-1.34875e-20
0
0
6.02384e-17
-6.00126e-17
-5.0183e-17
4.44112e-17
8.37283e-17
-8.42225e-17
-1.71254e-17
1.71653e-17
-1.37354e-17
1.38799e-17
-1.0554e-17
1.9983e-17
-5.60413e-18
-4.07631e-18
-1.26112e-18
4.15938e-19
9.99669e-19
2.64865e-19
-1.98687e-19
0
-1.43921e-17
8.75691e-17
-9.4807e-17
8.37303e-17
-7.41324e-17
0
6.14324e-17
-5.48825e-17
0
2.11017e-17
-2.67631e-17
-1.54261e-17
1.61676e-17
3.01336e-18
0
0
-1.09814e-18
3.99488e-19
2.39981e-16
-4.44694e-16
4.59829e-16
-4.09429e-16
1.61944e-16
-1.41855e-16
1.34425e-16
1.64191e-17
-6.19543e-17
5.54133e-17
0
-4.15108e-17
3.7736e-17
-7.30751e-18
-2.95159e-18
4.73145e-18
3.48968e-18
1.06609e-18
-3.85996e-19
5.46191e-16
0
-2.2693e-16
1.76201e-16
2.17995e-17
-1.71727e-16
3.07144e-16
-2.76764e-16
1.09326e-16
-4.81129e-17
4.92478e-17
9.85471e-18
1.73825e-17
7.1176e-18
-6.06121e-18
-7.41942e-19
-7.5915e-18
0
7.97079e-19
4.44034e-16
-4.99807e-16
0
4.75919e-17
2.10902e-16
-2.07295e-16
3.64204e-17
3.28705e-17
1.44107e-17
2.61832e-17
0
0
-3.02853e-17
5.76922e-17
-2.12314e-17
-7.70324e-18
8.43376e-18
6.81768e-19
-1.52481e-18
3.28989e-17
4.39035e-16
-5.21655e-17
-3.65785e-16
3.2085e-16
3.93992e-17
-3.5644e-17
-3.21047e-17
1.09388e-16
-1.35714e-16
8.46221e-17
-8.64877e-17
1.42115e-17
-1.73344e-17
3.31216e-17
-2.19623e-17
0
0
1.67155e-18
0
1.11217e-16
-3.44224e-16
3.92727e-16
-3.31039e-16
3.3025e-16
0
1.22291e-16
-1.22852e-16
-9.6424e-17
1.44087e-16
0
6.27222e-17
-7.91621e-17
-1.17917e-17
0
-1.39063e-18
-2.94649e-18
4.97058e-20
-1.03899e-15
5.00765e-16
0
-3.58979e-16
3.58943e-16
2.30625e-16
-1.51862e-16
6.57064e-17
0
-3.11183e-18
2.50844e-17
-2.26647e-17
-3.55788e-17
5.55379e-17
-5.90552e-17
0
1.38944e-17
-3.47069e-18
-1.81812e-18
6.43863e-16
-6.3768e-16
0
9.2859e-17
8.68189e-17
-8.06975e-17
0
-6.88609e-17
-6.24315e-17
0
-1.30772e-18
0
4.06166e-17
0
0
2.06296e-17
7.86477e-17
-1.01028e-16
0
1.24683e-19
9.69105e-17
-9.18952e-17
7.95623e-17
-4.02157e-16
1.56511e-16
0
1.47975e-17
4.22072e-17
0
-4.60521e-17
1.43075e-16
-1.50309e-16
2.72623e-17
0
-1.99921e-18
0
0
0
1.09325e-19
0
8.49341e-17
0
-1.42459e-16
1.44724e-16
0
5.74932e-17
-4.83424e-17
1.8035e-16
-8.80387e-17
3.44661e-17
-5.78682e-17
5.80803e-17
-8.88832e-17
-1.45509e-17
0
-1.12954e-17
0
2.52978e-16
-4.27115e-16
0
-7.44761e-17
6.93459e-17
0
0
-1.06103e-16
0
-4.21999e-17
-7.27288e-17
-3.16775e-17
5.30558e-17
0
3.28912e-17
0
0
2.52335e-17
-2.86475e-17
0
3.77836e-16
-3.03395e-16
6.89479e-17
-6.42147e-17
-2.81972e-17
8.29106e-17
9.8051e-17
-1.27988e-16
4.16164e-17
8.2021e-19
-4.54129e-17
1.89395e-16
-5.93455e-17
-1.50735e-16
5.38329e-17
-1.54587e-17
9.11061e-18
-3.07809e-18
-5.92283e-16
2.21114e-16
0
0
2.83216e-17
-2.87998e-17
2.3517e-17
1.80329e-17
1.17736e-16
6.4788e-17
-6.62269e-17
-7.19078e-19
-4.26951e-17
3.49759e-17
0
2.02585e-17
1.4169e-17
8.36868e-18
2.78216e-18
0
1.96138e-16
-1.88277e-16
6.15014e-17
6.83509e-17
-1.34062e-17
-4.65876e-17
-4.20454e-17
-1.49145e-16
6.48653e-17
-4.56139e-17
5.80132e-17
3.99252e-17
-5.55369e-17
5.89491e-17
4.23673e-17
-5.33771e-17
-7.72972e-18
0
-3.31818e-17
-1.54669e-16
5.73913e-17
5.57926e-17
-2.03408e-16
1.49061e-16
8.23297e-17
-8.41536e-17
7.04123e-17
-6.15604e-17
0
0
-6.52285e-17
1.20084e-16
-5.48371e-17
5.67989e-17
-6.16792e-17
1.09302e-17
-1.94813e-17
6.30741e-17
6.06321e-17
-5.73953e-17
4.94523e-17
-5.4843e-17
-9.26618e-17
0
0
0
0
0
0
3.42761e-17
-9.72857e-17
1.0289e-16
-3.68777e-17
4.53274e-17
2.24934e-17
-1.92094e-17
1.29225e-16
-2.34245e-16
2.94047e-16
-1.51655e-16
2.07992e-16
-1.71276e-16
3.28629e-16
-1.93637e-16
-1.19073e-16
1.21806e-16
0
4.02955e-17
-3.3486e-17
9.09884e-17
-2.70991e-17
-3.95566e-17
-9.16587e-17
6.57708e-18
1.65557e-17
2.00289e-16
6.06158e-17
0
-1.03076e-16
-8.85867e-17
2.08922e-16
2.77955e-17
-9.65969e-17
5.97818e-17
-4.75126e-17
0
-3.18985e-17
0
-2.99763e-17
2.52285e-17
-2.38848e-17
-8.05996e-18
5.92884e-18
0
2.80878e-16
-6.40776e-17
2.86578e-16
-2.25413e-16
-4.89873e-17
2.10089e-16
-1.25708e-16
4.7984e-18
3.99401e-18
-4.73637e-17
4.61896e-17
0
0
3.55486e-17
-1.43405e-17
9.87112e-18
2.90555e-17
-1.00737e-17
0
4.30387e-20
0
-6.23819e-17
3.89056e-16
-2.67109e-16
-3.134e-16
1.73548e-16
-2.05739e-16
1.9529e-16
1.06625e-16
-8.76681e-17
3.75941e-17
-3.47229e-17
5.15883e-18
6.47459e-17
3.61018e-18
-2.69785e-17
2.66304e-17
-5.33785e-18
6.92969e-16
-2.23158e-16
1.21536e-16
-3.69324e-16
1.08211e-16
-1.83991e-16
9.60099e-17
0
0
-3.52906e-18
-4.61877e-18
-1.34283e-18
0
-5.43239e-17
-4.32766e-17
3.29397e-17
-2.43314e-18
3.64689e-18
1.02353e-17
0
-2.26764e-16
4.05049e-16
1.05114e-16
-3.51494e-16
1.01892e-16
-1.70848e-16
1.92257e-17
1.48323e-16
0
0
2.8992e-18
4.03137e-17
0
-3.92811e-17
-1.88554e-17
2.75966e-18
-1.04661e-17
-1.12972e-17
0
-1.48316e-16
2.13249e-17
2.7467e-16
2.27319e-16
-4.26915e-16
1.99846e-16
-1.57504e-16
8.23077e-17
-1.27806e-16
0
0
0
-6.65819e-17
2.12813e-17
-2.35291e-17
0
-1.48544e-18
7.52801e-18
-5.26148e-16
5.04043e-16
5.78045e-16
-7.04882e-16
3.58071e-16
-3.42169e-16
0
1.64018e-16
-2.29801e-16
1.40255e-16
-1.1647e-16
1.00203e-16
8.51508e-17
6.88604e-17
5.59426e-17
0
0
0
0
5.71047e-16
-3.43209e-16
0
0
-1.27815e-16
3.33713e-16
-2.15408e-16
-1.71562e-16
1.69628e-16
1.38925e-16
2.43703e-16
-1.0397e-16
4.31855e-17
3.47782e-17
2.70255e-17
2.10905e-17
3.4931e-17
-1.73569e-18
1.76795e-18
-5.83985e-16
5.47545e-16
3.12562e-16
-1.59607e-16
3.86881e-16
-2.50212e-16
-2.13081e-16
-1.89613e-16
0
-2.85333e-16
9.68209e-18
1.12203e-16
-9.39381e-17
-7.86739e-17
-2.89487e-17
-3.18744e-17
-2.52477e-17
0
0
-2.00862e-16
0
1.6665e-16
-4.63692e-19
0
0
2.198e-16
1.95654e-16
0
1.52325e-16
0
-1.7038e-16
-4.73599e-17
8.58153e-17
0
5.54294e-17
-7.9051e-18
8.06426e-18
0
4.21766e-16
0
3.26749e-16
-6.18659e-16
5.69803e-16
4.92176e-16
-1.08665e-17
0
1.03483e-17
1.68566e-16
0
-1.81354e-16
2.10883e-16
-1.87901e-16
-4.11801e-17
-4.49379e-17
-1.2722e-17
-2.18504e-18
-7.2206e-18
-4.03579e-16
5.84441e-16
-1.73302e-16
-4.71579e-16
-2.84882e-16
-2.57573e-16
-4.63446e-16
-1.98028e-16
1.0655e-17
7.81668e-17
-7.802e-17
2.58438e-16
-1.13527e-16
2.34114e-16
-4.38536e-17
0
4.70504e-17
-2.69678e-17
7.42167e-18
8.67382e-16
-1.36603e-17
-7.10033e-16
6.23186e-16
-5.76379e-16
5.23532e-16
-1.12155e-17
-2.14384e-16
1.93367e-16
8.11732e-17
-9.0141e-18
-2.05971e-16
6.19503e-17
5.83748e-17
-1.88485e-17
1.90635e-17
-4.87328e-17
-2.96385e-18
-1.01704e-17
4.25807e-16
1.88653e-16
3.43811e-16
-3.13658e-16
-2.74562e-16
1.03365e-17
-2.27257e-16
5.54456e-16
1.26764e-17
2.7058e-16
1.60671e-16
-1.4336e-16
0
-1.04913e-16
0
0
6.11588e-17
2.76596e-17
1.19499e-17
4.05489e-16
0
3.39394e-16
3.11633e-16
-2.86135e-16
2.61251e-16
0
-2.17719e-16
-3.05457e-16
-2.74407e-16
-1.62093e-16
1.44981e-16
0
0
0
0
-5.7259e-17
-3.95403e-17
0
-7.94614e-16
0
-1.18634e-17
-1.05583e-17
4.32003e-16
-2.55045e-16
-1.19029e-16
-1.19199e-16
3.04231e-16
0
8.11927e-17
-8.92328e-18
6.90253e-17
0
0
8.90188e-17
-6.56645e-18
4.74343e-17
-1.68881e-17
5.6201e-16
1.68929e-16
-1.67185e-16
-1.53772e-16
-5.55336e-16
3.91478e-16
4.83501e-16
-7.7153e-18
-2.04421e-16
1.9708e-16
4.20888e-17
-2.09817e-16
-1.75668e-16
-1.00482e-16
-1.05495e-16
-1.02501e-16
8.0482e-17
-3.8348e-18
1.72969e-17
-1.74658e-16
8.15292e-17
-3.96357e-16
7.10855e-17
-7.08269e-17
0
-2.38004e-16
-1.03704e-17
-2.1895e-16
1.20259e-17
2.1346e-16
1.622e-16
-3.87133e-17
2.14087e-17
1.00624e-16
0
-1.64688e-16
-5.87097e-17
-1.22892e-18
3.49003e-16
-9.88598e-18
6.21893e-16
-3.01468e-16
4.66248e-19
8.29884e-18
2.51226e-16
-1.33217e-17
2.12345e-16
-1.98885e-16
-1.86309e-16
0
1.7649e-16
1.44051e-16
1.92941e-18
-2.79338e-18
8.78062e-17
5.96838e-17
0
-2.49189e-16
0
-6.62366e-17
2.85984e-16
3.1753e-18
6.69104e-17
-2.42932e-16
2.31066e-16
2.37324e-16
2.26658e-16
2.1665e-16
0
-1.71457e-16
0
8.71777e-18
-9.05418e-18
0
-8.40604e-19
4.09513e-17
1.69367e-16
6.51654e-18
-1.43296e-16
4.36936e-16
-1.41641e-16
0
0
-2.59336e-16
-2.29943e-16
-2.19581e-16
-3.90814e-16
-5.44278e-17
0
0
0
-1.73602e-17
1.83715e-17
1.1603e-16
-4.15687e-17
6.63186e-18
0
-2.99656e-16
-2.80398e-16
2.89703e-16
-2.86873e-16
-4.13415e-16
5.14693e-16
1.387e-16
0
2.27299e-16
2.50851e-16
-5.41581e-17
2.91856e-16
-4.76238e-17
4.95648e-17
1.90862e-16
-1.10256e-16
0
-3.24651e-16
0
-3.1358e-16
3.08389e-16
0
5.68037e-16
2.68905e-16
-5.57869e-16
4.39676e-16
-3.27103e-18
-1.34201e-16
-2.42876e-16
0
3.26371e-16
-5.49671e-16
5.89044e-16
-7.50447e-16
0
0
3.2269e-16
-1.53387e-18
-3.78415e-18
-6.17593e-16
6.20836e-16
-3.01745e-16
3.00514e-16
2.96063e-16
-2.66861e-16
0
0
4.88917e-16
-4.9734e-16
-5.34969e-16
5.2932e-16
-5.14904e-16
5.5632e-16
-8.70873e-16
0
)
;

boundaryField
{
    up
    {
        type            calculated;
        value           nonuniform List<scalar> 
84
(
0
0
0
0
-3.00743e-17
5.45508e-17
-2.29091e-17
1.72969e-17
-1.50429e-17
0
-1.34181e-17
1.28334e-17
-9.85393e-18
4.22342e-19
3.52268e-19
7.98652e-18
0
0
-6.0166e-18
4.42354e-18
4.92358e-18
-4.78076e-18
4.68067e-19
0
2.01741e-18
7.99906e-19
-1.87791e-17
0
2.35941e-17
2.66545e-17
3.33788e-18
-5.66433e-18
2.16059e-18
0
-1.04772e-18
1.70253e-18
-1.50833e-18
2.38021e-18
0
-3.92457e-19
0
0
-1.98893e-19
3.99488e-19
-3.85996e-19
7.97079e-19
-1.52481e-18
1.67155e-18
4.97058e-20
-1.81812e-18
0
0
0
-2.86475e-17
-3.82793e-18
2.78216e-18
0
-1.94813e-17
-1.92094e-17
1.45457e-17
0
0
-5.33785e-18
1.02353e-17
-1.12972e-17
7.52801e-18
0
1.76795e-18
0
0
-7.2206e-18
7.42167e-18
-1.01704e-17
1.19499e-17
0
-1.68881e-17
1.72969e-17
-1.22892e-18
0
4.09513e-17
-4.15687e-17
0
0
0
)
;
    }
    low
    {
        type            calculated;
        value           nonuniform List<scalar> 
84
(
-6.4584e-16
6.46976e-16
-3.19436e-16
4.99661e-16
8.71172e-17
-2.26343e-17
1.8916e-16
1.44514e-17
0
8.12652e-16
-2.06086e-16
1.82024e-16
-1.94953e-16
-1.22783e-15
2.00693e-16
0
-1.86962e-16
1.05549e-17
-1.00295e-17
-1.54336e-16
7.71332e-17
2.10239e-16
3.48542e-16
-3.16893e-16
0
-6.14385e-17
-3.15684e-17
0
-2.89135e-16
-8.08797e-17
-2.69651e-16
-2.91748e-16
3.15628e-16
1.09306e-16
7.49692e-16
6.00444e-17
0
5.05383e-16
4.8479e-16
2.75445e-16
-1.4625e-16
6.02363e-17
6.02384e-17
0
2.39981e-16
5.46966e-16
4.44034e-16
3.33268e-17
0
-1.03887e-15
6.43863e-16
1.24683e-19
1.09325e-19
2.52978e-16
0
-5.91311e-16
0
-3.31818e-17
6.30741e-17
1.28681e-16
1.99323e-16
2.79965e-16
4.30387e-20
6.92174e-16
0
0
-5.26148e-16
5.70563e-16
-5.83615e-16
-2.00862e-16
4.21642e-16
-4.03579e-16
8.68129e-16
4.26399e-16
4.05489e-16
-7.94614e-16
5.61265e-16
-1.73872e-16
3.49003e-16
-2.48871e-16
1.69367e-16
7.20279e-18
-3.24651e-16
3.22851e-16
)
;
    }
    left
    {
        type            calculated;
        value           nonuniform List<scalar> 
19
(
-6.4552e-16
-3.1573e-16
3.18674e-16
5.18121e-18
-6.12225e-16
0
-2.88788e-16
-2.84696e-16
-1.72568e-17
-1.48594e-16
-1.53678e-18
-1.47347e-16
6.51915e-16
-1.45237e-16
6.79599e-16
5.85676e-16
3.48154e-16
5.10133e-16
0
)
;
    }
    right
    {
        type            calculated;
        value           nonuniform List<scalar> 
19
(
3.2269e-16
-1.35102e-18
-3.78415e-18
-6.17588e-16
6.20963e-16
-3.01745e-16
3.00514e-16
2.96063e-16
-2.65985e-16
0
0
4.93623e-16
-5.03983e-16
-5.34969e-16
5.2932e-16
-5.14904e-16
5.5632e-16
-9.4185e-16
0
)
;
    }
    frontAndBackPlanes
    {
        type            empty;
    }
}


// ************************************************************************* //
