/*--------------------------------*- C++ -*----------------------------------*\
  =========                 |
  \\      /  F ield         | OpenFOAM: The Open Source CFD Toolbox
   \\    /   O peration     | Website:  https://openfoam.org
    \\  /    A nd           | Version:  7
     \\/     M anipulation  |
\*---------------------------------------------------------------------------*/
FoamFile
{
    version     2.0;
    format      ascii;
    class       volScalarField;
    location    "0.258";
    object      gradTz;
}
// * * * * * * * * * * * * * * * * * * * * * * * * * * * * * * * * * * * * * //

dimensions      [0 -1 0 1 0 0 0];

internalField   nonuniform List<scalar> 
1596
(
-8.06837e-16
-3.92468e-16
3.98541e-16
8.43933e-18
-7.5983e-16
0
-3.55158e-16
-3.50205e-16
-2.29271e-17
-1.84327e-16
-1.70536e-18
-1.83339e-16
8.06589e-16
-1.8129e-16
8.47217e-16
7.31008e-16
4.34788e-16
5.49038e-16
0
8.06367e-16
0
1.13756e-15
-7.76401e-18
-3.49002e-16
3.46016e-16
7.12628e-16
2.18157e-17
3.37735e-16
-1.62719e-16
3.24661e-16
-4.95769e-18
-4.50307e-16
-2.81248e-16
-6.84995e-16
-6.6822e-16
-6.07881e-16
3.45984e-16
0
-3.95612e-16
0
-7.42552e-16
1.23318e-17
6.81625e-16
-1.91068e-16
1.45063e-17
-4.74453e-18
-4.8332e-18
-5.1542e-18
1.23237e-16
0
2.33598e-16
6.62733e-16
-6.53109e-17
5.2545e-17
1.23594e-16
1.9296e-16
0
6.21218e-16
-1.87055e-16
1.86372e-16
0
-1.79374e-16
-1.85513e-16
3.16365e-16
-2.76577e-16
0
0
-9.90088e-17
6.43361e-17
0
-1.95261e-16
-2.48946e-16
1.72178e-16
-1.76837e-16
-9.09965e-18
0
1.08499e-16
2.89135e-16
-2.61223e-16
0
-7.72206e-17
-2.34931e-16
0
3.51382e-16
-3.49993e-17
-3.16909e-17
-3.0109e-17
1.82992e-16
2.2479e-16
2.32107e-17
7.92941e-18
-1.86172e-16
9.38336e-18
8.62152e-17
-3.70846e-17
-2.81755e-17
-3.96851e-16
3.77924e-16
-3.30414e-16
-6.79512e-19
-2.92784e-16
8.25771e-18
-8.28512e-18
-2.31575e-16
0
-2.4934e-17
-2.16359e-16
-2.03084e-16
1.65191e-16
1.71182e-16
-2.33712e-18
-1.02635e-16
-8.74469e-17
6.68587e-17
2.35468e-16
-4.04342e-16
4.54191e-16
2.5437e-16
0
2.24726e-16
1.32318e-16
-6.37466e-17
2.93766e-16
-5.52146e-17
-2.33389e-16
2.12663e-18
-1.38456e-16
-1.65979e-16
-1.29842e-16
1.10461e-16
1.03539e-16
-1.38242e-18
-2.78964e-17
2.29224e-17
6.4214e-16
-7.56979e-16
0
0
-2.78649e-16
0
0
0
1.92583e-16
0
0
1.26978e-16
4.76045e-18
3.44375e-17
-9.65575e-17
0
5.13926e-17
2.00538e-17
0
-4.16934e-16
8.02595e-16
0
0
2.8697e-16
0
-1.09857e-16
1.09746e-16
-1.96021e-16
8.17134e-17
-8.23111e-17
0
1.18852e-16
1.15537e-16
0
-6.66978e-17
-5.25139e-17
-1.75169e-17
1.00237e-15
-4.69554e-16
0
-3.34706e-16
3.3096e-16
0
2.4626e-16
0
0
0
7.55824e-17
-7.59447e-17
0
-9.17837e-17
-2.62943e-17
0
7.11586e-18
3.80522e-17
0
-2.54425e-16
0
0
3.3551e-16
-6.26606e-16
3.17817e-17
1.22355e-17
-1.01633e-16
1.12488e-17
3.92911e-18
-7.93765e-17
-1.27869e-16
0
9.66794e-17
-1.93213e-17
1.96113e-17
5.11926e-17
-2.98584e-17
-1.37516e-17
2.12057e-16
-2.24081e-17
2.03599e-16
6.97225e-16
-3.70461e-17
-2.92704e-16
0
0
0
1.63502e-16
6.56519e-17
2.36871e-16
-5.71988e-17
-9.49499e-17
-5.6623e-17
-3.08573e-17
1.37466e-17
-2.99097e-17
1.30846e-17
-2.34328e-16
2.29588e-16
-4.24683e-16
-6.88744e-16
6.38259e-16
2.53401e-16
-4.69004e-16
4.06401e-16
-3.51777e-16
9.17153e-17
7.04107e-17
-6.38097e-17
4.15984e-17
-3.74441e-17
1.09564e-16
0
-8.27447e-18
6.0992e-17
-9.06554e-18
-1.51655e-15
6.96782e-16
5.74065e-19
-1.53932e-16
1.94956e-17
2.46137e-16
-4.67769e-16
-1.93164e-16
1.65108e-16
-1.40409e-16
-1.19851e-16
0
-1.36612e-16
-4.06719e-17
-7.28143e-17
-4.33147e-17
3.40972e-18
-3.83155e-17
8.59909e-19
2.47865e-16
-2.2102e-16
4.62475e-19
-1.70234e-16
-4.25279e-16
4.01018e-16
1.66803e-18
1.88238e-16
-1.60754e-16
2.69297e-16
6.37562e-17
5.24771e-17
1.62026e-16
0
1.34637e-16
6.18975e-17
0
2.09172e-17
7.25461e-19
0
2.14415e-16
1.6886e-16
-3.51095e-16
4.12082e-16
-6.18985e-16
4.38289e-16
1.65736e-16
-2.42238e-17
-2.66415e-16
4.89449e-17
-4.87034e-17
-1.48008e-16
5.88642e-17
-2.93805e-17
-6.18706e-17
2.67878e-17
-1.66369e-17
6.52774e-18
-2.30896e-16
7.8462e-16
-5.84496e-16
3.18392e-16
0
0
-8.64342e-17
1.84154e-16
-1.31302e-16
2.46824e-16
0
0
9.98246e-17
-8.724e-17
-6.1892e-17
1.95271e-17
-2.08571e-17
1.09885e-17
0
1.88005e-17
2.15925e-16
-1.7439e-16
-1.52768e-16
-2.46809e-16
-8.00794e-17
1.11077e-16
0
-1.23399e-16
-1.00393e-16
9.01749e-17
-7.35936e-17
5.96692e-17
0
2.36293e-17
4.62827e-17
0
0
0
-1.79997e-17
3.45674e-16
1.31999e-16
-4.61024e-16
1.27328e-16
1.09181e-16
0
0
1.16507e-16
-6.07189e-17
-8.72187e-17
7.11784e-17
-5.77046e-17
0
-1.54224e-17
1.31471e-17
0
-1.10988e-17
-3.87865e-18
-1.85314e-16
5.43804e-16
-6.60015e-16
-2.64041e-16
1.38466e-16
-1.03429e-16
8.6843e-17
0
-5.92415e-17
4.94828e-17
0
0
2.27175e-17
-2.27437e-17
6.82793e-18
-9.08321e-18
1.5847e-17
1.94149e-18
2.88653e-18
9.52976e-17
-8.59236e-17
4.39851e-16
-2.83887e-16
-1.1518e-16
1.48644e-17
1.7888e-16
6.79377e-17
5.66852e-17
0
3.28444e-17
-3.04123e-17
2.41939e-17
-2.04779e-17
2.64175e-17
-4.55235e-17
-1.23383e-17
1.07646e-17
2.86554e-18
2.55003e-16
-2.58561e-16
0
2.37741e-16
-1.25395e-16
-9.34723e-17
6.46575e-17
-2.06995e-16
0
-3.66358e-18
-3.79721e-17
-2.73249e-17
3.97796e-17
-3.08273e-18
-2.55321e-17
1.88833e-17
0
6.83493e-18
-2.78241e-18
4.35864e-16
-7.69982e-17
3.27507e-16
-2.56534e-16
1.4119e-16
1.53608e-17
-1.61843e-16
-5.52318e-17
9.94554e-17
-4.24065e-18
-5.81452e-17
4.90801e-17
-2.14642e-17
-2.82138e-17
0
0
0
-6.89948e-18
2.56281e-19
-3.87555e-16
3.77391e-16
2.70111e-19
5.76389e-17
4.95843e-17
-1.19633e-16
1.41011e-16
-1.15823e-16
9.86847e-17
-3.26896e-17
6.21559e-17
2.20839e-17
-9.37385e-18
4.76974e-19
-3.37514e-18
-5.92687e-18
0
0
0
0
0
1.85018e-16
-9.02305e-17
-2.80952e-16
0
0
-3.36467e-17
-5.42602e-17
4.53481e-17
0
-2.78518e-17
2.15959e-17
-7.18946e-17
8.26337e-17
-2.69331e-17
2.86736e-17
3.13496e-18
0
-7.50915e-17
7.60157e-17
0
-6.11692e-17
6.20538e-17
1.02621e-16
0
3.3968e-17
4.47352e-17
-2.00261e-16
0
-3.09951e-17
2.41539e-17
1.72669e-17
-1.2821e-17
1.87562e-17
0
-6.8941e-18
0
-3.86178e-17
-3.8426e-17
2.27557e-18
6.28497e-17
-1.6881e-16
0
-4.34461e-17
0
1.22936e-16
4.95765e-17
0
1.22915e-16
-1.28853e-16
1.30757e-17
-2.84627e-17
8.13055e-18
3.6051e-17
1.36288e-17
-1.07963e-17
0
7.98082e-17
-6.99689e-17
8.68127e-17
1.04306e-16
0
8.84085e-17
-8.35553e-17
-6.59202e-17
9.91986e-17
-1.48927e-16
-7.27409e-17
0
0
1.59077e-17
0
0
4.54541e-18
0
-3.54032e-16
2.71827e-16
0
4.17534e-18
-6.08832e-17
-3.3525e-18
5.41742e-17
3.88233e-17
-4.85743e-17
-1.23638e-16
1.96455e-16
-5.32583e-17
0
-2.5509e-17
0
0
0
-1.75621e-17
1.403e-17
-1.00158e-16
9.38598e-17
2.50985e-16
-2.45452e-16
7.54445e-17
4.22823e-18
-5.50377e-17
4.7515e-17
8.09018e-17
6.19875e-17
-1.2252e-16
0
6.36683e-17
8.91095e-18
-2.92028e-17
-6.39824e-17
5.27363e-17
-8.53545e-18
1.61486e-17
-3.38948e-16
4.88268e-16
-4.84279e-16
8.52929e-17
7.25205e-17
-6.90552e-17
5.81394e-17
-4.62589e-17
0
-3.93898e-17
6.32544e-17
2.74403e-17
4.42853e-17
5.61533e-17
-8.40983e-17
-1.41878e-18
0
-6.55357e-18
2.19359e-18
-3.66485e-16
-1.09203e-16
-1.91826e-16
1.01972e-16
-1.66988e-16
1.45443e-16
-8.67569e-17
7.3589e-17
-5.09118e-18
-5.08084e-18
-6.64983e-17
3.92519e-17
-2.20477e-17
6.71616e-17
-7.20987e-17
8.9838e-18
7.63106e-18
0
-3.80129e-18
3.96251e-16
-1.17778e-16
0
0
-1.71999e-16
3.34795e-16
-7.83588e-17
-1.50916e-17
1.24406e-16
-3.21256e-18
0
0
-2.88324e-17
0
-6.28017e-17
1.5245e-16
-1.05794e-16
0
1.51193e-18
1.35521e-16
2.53329e-16
0
-1.08136e-16
-8.84205e-17
-7.84199e-17
-8.15079e-17
3.38408e-17
-9.46489e-17
-5.18706e-17
0
0
3.84341e-17
0
0
-8.50877e-17
1.40247e-16
0
0
9.30035e-16
-1.09741e-16
-5.6355e-16
-3.07547e-16
4.17119e-16
1.33193e-16
7.90321e-17
0
-2.91312e-17
2.82542e-17
7.0066e-17
-2.26052e-17
-3.37262e-17
5.23294e-17
-5.56624e-17
-1.71771e-17
0
0
0
7.44782e-17
-5.88391e-16
5.76893e-16
-5.53768e-17
-4.29027e-16
6.72049e-16
-3.3772e-16
0
0
1.81089e-16
-1.48814e-16
0
-4.50876e-17
7.85253e-17
-8.84206e-18
2.29555e-17
7.00557e-18
7.60629e-20
1.5278e-18
0
0
0
4.86201e-16
-3.26048e-16
3.43631e-16
-5.35997e-16
1.52805e-16
0
-5.5221e-17
8.84862e-17
-9.04382e-17
-1.77848e-17
-3.17769e-19
-1.22182e-17
-1.80094e-18
-9.74159e-18
-2.73261e-18
-1.49284e-18
6.23734e-16
-1.11276e-15
5.27622e-16
0
1.42528e-16
-1.94179e-16
1.9513e-16
-1.548e-16
0
-7.56742e-17
1.06096e-16
0
0
-2.31349e-19
0
-1.26259e-17
8.63757e-18
1.59025e-18
2.38078e-18
6.05263e-16
0
-2.41519e-16
2.69774e-16
-1.69765e-16
3.71155e-16
-1.75571e-16
-1.37738e-16
1.39177e-16
-1.41764e-17
0
0
9.11323e-18
-1.54071e-17
-1.08031e-17
2.04862e-17
-4.43513e-18
2.27037e-18
0
3.43644e-16
2.68931e-16
-8.97117e-18
-2.57207e-16
-2.60219e-17
-1.87955e-16
2.01626e-17
1.58165e-16
-8.18909e-18
1.44426e-17
0
0
-9.3359e-18
0
1.09919e-17
-1.17588e-17
0
1.50638e-18
-4.17674e-19
-1.82399e-16
-1.34906e-16
1.26322e-16
-1.44936e-17
-6.50689e-18
1.76033e-17
0
-4.65941e-18
6.9919e-17
-5.88831e-17
0
2.00025e-17
-3.91821e-18
-1.76681e-17
-1.61698e-18
-1.26119e-18
0
-1.17749e-18
0
7.45371e-17
-1.41804e-16
-1.9348e-18
6.10349e-17
5.59904e-17
-5.56301e-17
-3.95314e-17
4.47509e-17
-1.53975e-17
1.20434e-17
-1.17313e-17
1.20932e-17
0
3.09599e-20
-1.19138e-18
4.2835e-18
-1.4663e-20
0
0
7.45397e-17
-7.42603e-17
-6.07151e-17
5.37823e-17
9.89137e-17
-9.94977e-17
-1.97664e-17
1.98132e-17
-1.55277e-17
1.56907e-17
-1.17318e-17
2.21463e-17
-6.2113e-18
-4.47711e-18
-1.37514e-18
4.55743e-19
1.08791e-18
2.87733e-19
-2.15792e-19
0
-1.76931e-17
1.05765e-16
-1.14635e-16
9.87446e-17
-8.75249e-17
0
6.99369e-17
-6.25542e-17
0
2.33586e-17
-2.95787e-17
-1.68598e-17
1.76701e-17
3.25363e-18
0
0
-1.17767e-18
4.27968e-19
2.9666e-16
-5.46591e-16
5.58284e-16
-4.90778e-16
1.9307e-16
-1.64577e-16
1.56155e-16
1.86107e-17
-6.94018e-17
6.20146e-17
0
-4.51368e-17
4.11028e-17
-7.82185e-18
-3.18692e-18
5.01851e-18
3.69034e-18
1.14329e-18
-4.13514e-19
6.82494e-16
0
-2.73201e-16
2.12315e-16
2.57227e-17
-1.98215e-16
3.51875e-16
-3.12808e-16
1.22883e-16
-5.27045e-17
5.39476e-17
1.06987e-17
1.84159e-17
7.61857e-18
-6.32992e-18
-8.28518e-19
-7.99568e-18
0
8.18892e-19
5.47533e-16
-6.16322e-16
0
5.67158e-17
2.45349e-16
-2.40364e-16
4.11315e-17
3.6521e-17
1.59644e-17
2.82092e-17
0
0
-3.20378e-17
6.00941e-17
-2.19733e-17
-7.89138e-18
8.63974e-18
6.92758e-19
-1.55784e-18
4.944e-17
5.414e-16
-6.27146e-17
-4.29618e-16
3.77147e-16
4.52405e-17
-4.02547e-17
-3.56701e-17
1.17917e-16
-1.46281e-16
8.85128e-17
-9.04641e-17
1.42092e-17
-1.80048e-17
3.29749e-17
-2.19745e-17
0
0
1.5904e-18
0
1.35811e-16
-4.09108e-16
4.67451e-16
-3.79516e-16
3.78612e-16
0
1.32185e-16
-1.3279e-16
-1.00374e-16
1.48924e-16
0
6.21819e-17
-7.85819e-17
-1.1641e-17
0
-1.31548e-18
-2.63627e-18
-3.86555e-20
-1.28861e-15
6.1519e-16
0
-4.17044e-16
4.17002e-16
2.56974e-16
-1.68933e-16
6.99557e-17
0
-3.16547e-18
2.37394e-17
-2.25743e-17
-3.36818e-17
5.22528e-17
-5.55621e-17
0
1.21563e-17
-2.70648e-18
-1.63238e-18
7.93436e-16
-7.81028e-16
0
1.08012e-16
9.8504e-17
-9.01999e-17
0
-7.33142e-17
-6.3457e-17
0
-2.74166e-18
0
3.8451e-17
0
0
1.74622e-17
6.5756e-17
-8.50229e-17
0
1.07519e-19
1.17835e-16
-1.09023e-16
8.95678e-17
-4.54997e-16
1.74457e-16
0
1.51024e-17
4.28371e-17
0
-4.427e-17
1.29635e-16
-1.36189e-16
2.30876e-17
0
-2.54208e-18
0
0
0
1.05135e-19
0
1.00764e-16
0
-1.57252e-16
1.59752e-16
0
5.78531e-17
-4.66494e-17
1.69805e-16
-8.20399e-17
2.9883e-17
-4.83509e-17
4.63121e-17
-7.21869e-17
-1.15562e-17
0
-7.76981e-18
0
3.08826e-16
-5.22164e-16
0
-8.5303e-17
7.68421e-17
0
0
-1.05793e-16
0
-3.94188e-17
-6.33038e-17
-2.74652e-17
4.43301e-17
0
2.41214e-17
0
0
1.70237e-17
-1.88726e-17
0
4.52799e-16
-3.62594e-16
7.89711e-17
-7.11562e-17
-2.94213e-17
8.49601e-17
9.60187e-17
-1.18242e-16
3.81822e-17
2.55375e-18
-3.62716e-17
1.48794e-16
-4.63191e-17
-1.0877e-16
3.76938e-17
-9.8746e-18
5.90426e-18
-1.82146e-18
-7.32967e-16
2.71814e-16
0
0
3.04827e-17
-3.09975e-17
2.25421e-17
1.51238e-17
1.06942e-16
5.52047e-17
-5.48674e-17
-2.04169e-18
-3.13885e-17
2.55321e-17
0
1.28647e-17
9.05079e-18
4.92553e-18
1.64634e-18
0
2.36039e-16
-2.20966e-16
7.1023e-17
7.40461e-17
-1.43193e-17
-4.66717e-17
-4.01237e-17
-1.33912e-16
5.4467e-17
-3.3939e-17
4.59716e-17
2.93521e-17
-3.71309e-17
3.94122e-17
2.54174e-17
-3.29194e-17
-4.54946e-18
0
-4.15339e-17
-1.87327e-16
6.72727e-17
6.28662e-17
-2.18006e-16
1.56491e-16
7.889e-17
-8.06377e-17
6.25611e-17
-5.16919e-17
0
0
-4.42522e-17
7.96544e-17
-3.52813e-17
3.34256e-17
-3.65155e-17
6.08247e-18
-1.08063e-17
7.80769e-17
7.3181e-17
-6.69098e-17
5.30188e-17
-6.14424e-17
-9.48558e-17
0
0
0
0
0
0
2.27381e-17
-6.05321e-17
6.40193e-17
-2.10395e-17
2.5923e-17
1.22659e-17
-1.04057e-17
1.61531e-16
-2.77417e-16
3.47177e-16
-1.64621e-16
2.27421e-16
-1.68592e-16
3.15589e-16
-1.78972e-16
-9.7683e-17
9.99253e-17
0
2.78347e-17
-2.22139e-17
5.50446e-17
-1.8215e-17
-2.37614e-17
-5.06144e-17
3.78825e-18
8.86086e-18
2.51263e-16
7.28374e-17
0
-1.14905e-16
-9.17889e-17
2.11001e-16
2.2236e-17
-8.66772e-17
5.18292e-17
-3.72773e-17
0
-2.20343e-17
0
-1.8232e-17
1.48637e-17
-1.3466e-17
-4.46505e-18
3.17263e-18
0
3.5112e-16
-7.69972e-17
3.2737e-16
-2.56462e-16
-5.20704e-17
2.07443e-16
-1.24406e-16
6.09354e-18
5.06752e-18
-3.6441e-17
3.52576e-17
0
0
2.20985e-17
-8.15275e-18
5.34959e-18
1.61549e-17
-5.62154e-18
0
7.16596e-20
0
-7.23657e-17
4.28118e-16
-2.89848e-16
-3.12135e-16
1.71095e-16
-1.81541e-16
1.6878e-16
8.46161e-17
-6.46116e-17
2.64451e-17
-2.36715e-17
4.05298e-18
3.96499e-17
1.55351e-18
-1.52792e-17
1.51235e-17
-3.09779e-18
8.55658e-16
-2.73207e-16
1.35443e-16
-4.17495e-16
1.15179e-16
-1.82073e-16
9.74452e-17
0
0
-3.75023e-18
-5.05175e-18
-1.48954e-18
0
-3.45257e-17
-2.6418e-17
1.95124e-17
-1.43672e-18
2.53799e-18
6.11059e-18
0
-2.72235e-16
4.64312e-16
1.0574e-16
-3.81417e-16
1.03428e-16
-1.60588e-16
2.58286e-17
1.31731e-16
0
0
2.45866e-18
2.8597e-17
0
-2.58217e-17
-1.18474e-17
1.7395e-18
-6.24135e-18
-7.09768e-18
0
-1.72204e-16
3.67832e-17
3.13355e-16
2.37616e-16
-4.36769e-16
1.9923e-16
-1.41188e-16
7.53235e-17
-1.06037e-16
0
0
0
-4.62941e-17
1.26407e-17
-1.5498e-17
0
-9.70206e-19
4.86586e-18
-6.44021e-16
6.11254e-16
6.59757e-16
-8.01367e-16
3.78762e-16
-3.56921e-16
0
1.48498e-16
-2.03743e-16
1.18853e-16
-9.35927e-17
7.71236e-17
6.31648e-17
4.78784e-17
3.79219e-17
0
0
0
0
7.11002e-16
-4.1226e-16
0
0
-1.37796e-16
3.38573e-16
-2.17053e-16
-1.56969e-16
1.552e-16
1.17072e-16
1.97922e-16
-8.00231e-17
3.42966e-17
2.61907e-17
1.94267e-17
1.59139e-17
2.57807e-17
-1.26957e-18
1.29317e-18
-7.21136e-16
6.64281e-16
3.57681e-16
-1.85666e-16
4.12003e-16
-2.64736e-16
-2.11463e-16
-1.79984e-16
0
-2.45298e-16
1.16186e-17
9.11088e-17
-7.19335e-17
-5.88642e-17
-2.17992e-17
-2.3086e-17
-1.84532e-17
0
0
-2.48079e-16
0
1.94158e-16
-3.04464e-19
0
0
2.18131e-16
1.85718e-16
0
1.32707e-16
0
-1.38492e-16
-3.90879e-17
6.95374e-17
0
4.50261e-17
-6.37137e-18
6.49965e-18
0
5.27207e-16
0
3.74651e-16
-6.97116e-16
6.24713e-16
5.09243e-16
-1.51694e-17
0
1.34282e-17
1.53696e-16
0
-1.55096e-16
1.74626e-16
-1.5575e-16
-3.40399e-17
-3.61833e-17
-1.0661e-17
-1.90409e-18
-6.75142e-18
-4.91984e-16
7.09177e-16
-2.01985e-16
-5.31566e-16
-3.09399e-16
-2.69253e-16
-4.67765e-16
-1.89645e-16
1.46193e-17
7.05431e-17
-7.04106e-17
2.26336e-16
-1.00204e-16
2.02267e-16
-3.79088e-17
0
4.31603e-17
-2.53936e-17
6.82235e-18
1.08423e-15
-2.28061e-17
-8.34435e-16
6.97229e-16
-6.29164e-16
5.52037e-16
-1.69e-17
-2.12506e-16
1.86633e-16
7.50524e-17
-9.38115e-18
-1.8472e-16
5.37269e-17
5.65384e-17
-1.72435e-17
1.74402e-17
-4.47036e-17
-4.4657e-18
-1.04914e-17
5.32259e-16
2.26647e-16
4.00793e-16
-3.54625e-16
-2.95582e-16
1.47921e-17
-2.30167e-16
5.5817e-16
1.82392e-17
2.61712e-16
1.53906e-16
-1.36714e-16
0
-9.66792e-17
0
0
6.20116e-17
2.73579e-17
1.22471e-17
5.00402e-16
0
3.96146e-16
3.52336e-16
-3.15142e-16
2.77595e-16
0
-2.19042e-16
-3.04882e-16
-2.67597e-16
-1.55269e-16
1.3826e-16
0
0
0
0
-5.81339e-17
-4.30163e-17
0
-9.80511e-16
0
-1.86977e-17
-1.65081e-17
4.79434e-16
-2.72968e-16
-1.25899e-16
-1.26412e-16
3.09456e-16
0
8.17129e-17
-8.65957e-18
7.32679e-17
0
0
9.65822e-17
-7.18834e-18
5.16507e-17
-1.95798e-17
6.90271e-16
2.0049e-16
-1.9842e-16
-1.76496e-16
-6.17778e-16
4.26701e-16
5.18064e-16
-1.35302e-17
-2.10936e-16
2.08295e-16
4.38903e-17
-2.22534e-16
-1.82775e-16
-1.10512e-16
-1.16954e-16
-1.11343e-16
9.22401e-17
-4.35712e-18
2.00538e-17
-2.12482e-16
9.70566e-17
-4.68426e-16
8.09288e-17
-8.06344e-17
0
-2.57309e-16
-1.73196e-17
-2.38777e-16
1.96018e-17
2.33388e-16
1.72921e-16
-4.24072e-17
1.82686e-17
1.11234e-16
0
-1.91771e-16
-7.03088e-17
-1.46177e-18
4.31424e-16
-1.18264e-17
7.36553e-16
-3.52183e-16
6.79512e-19
9.41963e-18
2.83672e-16
-2.14373e-17
2.31574e-16
-2.16899e-16
-2.03986e-16
0
2.03083e-16
1.62647e-16
2.25704e-18
-3.28023e-18
1.03628e-16
7.14659e-17
0
-3.06836e-16
0
-7.50108e-17
3.35434e-16
4.58883e-18
7.73238e-17
-2.74306e-16
2.59637e-16
2.73706e-16
2.62205e-16
2.51989e-16
0
-1.97292e-16
0
1.04469e-17
-1.085e-17
0
-1.03525e-18
5.0899e-17
2.11963e-16
1.06355e-17
-1.6977e-16
5.22897e-16
-1.68153e-16
0
0
-3.06285e-16
-2.65193e-16
-2.54018e-16
-4.60357e-16
-6.4336e-17
0
0
0
-2.13335e-17
2.25762e-17
1.44333e-16
-5.16746e-17
1.10108e-17
0
-3.63987e-16
-3.34287e-16
3.49448e-16
-3.46821e-16
-4.97342e-16
6.11476e-16
1.69427e-16
0
2.70972e-16
3.06466e-16
-6.61745e-17
3.59243e-16
-5.88241e-17
6.12215e-17
2.37802e-16
-1.37154e-16
0
-4.05115e-16
0
-3.88425e-16
3.80861e-16
0
6.89705e-16
3.24382e-16
-6.80167e-16
5.42747e-16
-3.58187e-18
-1.64385e-16
-2.96722e-16
0
4.08466e-16
-6.84994e-16
7.35037e-16
-9.36688e-16
0
0
4.033e-16
-2.54175e-18
-6.26045e-18
-7.66941e-16
7.73606e-16
-3.74269e-16
3.72744e-16
3.67349e-16
-3.25584e-16
0
0
6.11768e-16
-6.22307e-16
-6.65456e-16
6.59634e-16
-6.42567e-16
6.94963e-16
-1.08859e-15
0
)
;

boundaryField
{
    up
    {
        type            calculated;
        value           nonuniform List<scalar> 
84
(
0
0
0
0
-3.70846e-17
6.68587e-17
-2.78964e-17
2.00538e-17
-1.75169e-17
0
-1.37516e-17
1.30846e-17
-9.06554e-18
8.59909e-19
7.25461e-19
6.52774e-18
0
0
-3.87865e-18
2.88653e-18
2.86554e-18
-2.78241e-18
2.56281e-19
0
1.13685e-18
5.28146e-19
-1.02813e-17
0
1.403e-17
1.68769e-17
2.19359e-18
-3.80129e-18
1.51193e-18
0
-7.44214e-19
1.58136e-18
-1.49073e-18
2.37709e-18
0
-4.16986e-19
0
0
-2.1591e-19
4.27968e-19
-4.13514e-19
8.18892e-19
-1.55784e-18
1.5904e-18
-3.86555e-20
-1.63238e-18
0
0
0
-1.88726e-17
-2.55031e-18
1.64634e-18
0
-1.08063e-17
-1.04057e-17
7.72787e-18
0
0
-3.09779e-18
6.11059e-18
-7.09768e-18
4.86586e-18
0
1.29317e-18
0
0
-6.75142e-18
6.82235e-18
-1.04914e-17
1.22471e-17
0
-1.95798e-17
2.00538e-17
-1.46177e-18
0
5.0899e-17
-5.16746e-17
0
0
0
)
;
    }
    low
    {
        type            calculated;
        value           nonuniform List<scalar> 
84
(
-8.07387e-16
8.06367e-16
-3.94607e-16
6.22034e-16
1.09053e-16
-2.83392e-17
2.36844e-16
2.42394e-17
0
1.0039e-15
-2.54425e-16
2.11231e-16
-2.34328e-16
-1.51653e-15
2.47865e-16
0
-2.30896e-16
1.88005e-17
-1.79997e-17
-1.85314e-16
9.52976e-17
2.55003e-16
4.34301e-16
-3.87555e-16
0
-7.50915e-17
-3.86178e-17
0
-3.54032e-16
-1.00158e-16
-3.37925e-16
-3.65668e-16
3.9569e-16
1.35521e-16
9.30052e-16
7.44782e-17
0
6.23734e-16
6.06511e-16
3.44331e-16
-1.82768e-16
7.45371e-17
7.45397e-17
0
2.9666e-16
6.83742e-16
5.47533e-16
5.02629e-17
0
-1.28862e-15
7.93436e-16
1.07519e-19
1.05135e-19
3.08826e-16
0
-7.31359e-16
0
-4.15339e-17
7.80769e-17
1.60579e-16
2.49589e-16
3.49557e-16
7.16596e-20
8.54352e-16
0
0
-6.44021e-16
7.10337e-16
-7.20686e-16
-2.48079e-16
5.27192e-16
-4.91984e-16
1.08588e-15
5.33439e-16
5.00402e-16
-9.80511e-16
6.88954e-16
-2.11106e-16
4.31424e-16
-3.06283e-16
2.11963e-16
1.20161e-17
-4.05115e-16
4.03575e-16
)
;
    }
    left
    {
        type            calculated;
        value           nonuniform List<scalar> 
19
(
-8.06837e-16
-3.92766e-16
3.98541e-16
8.4367e-18
-7.60032e-16
0
-3.55158e-16
-3.50205e-16
-2.40727e-17
-1.84327e-16
-1.70536e-18
-1.83339e-16
8.14749e-16
-1.8129e-16
8.47217e-16
7.31008e-16
4.34788e-16
6.37671e-16
0
)
;
    }
    right
    {
        type            calculated;
        value           nonuniform List<scalar> 
19
(
4.033e-16
-2.24406e-18
-6.26045e-18
-7.66939e-16
7.73807e-16
-3.74269e-16
3.72744e-16
3.67349e-16
-3.24438e-16
0
0
6.17565e-16
-6.30466e-16
-6.65456e-16
6.59634e-16
-6.42567e-16
6.94963e-16
-1.17722e-15
0
)
;
    }
    frontAndBackPlanes
    {
        type            empty;
    }
}


// ************************************************************************* //
