/*--------------------------------*- C++ -*----------------------------------*\
  =========                 |
  \\      /  F ield         | OpenFOAM: The Open Source CFD Toolbox
   \\    /   O peration     | Website:  https://openfoam.org
    \\  /    A nd           | Version:  7
     \\/     M anipulation  |
\*---------------------------------------------------------------------------*/
FoamFile
{
    version     2.0;
    format      ascii;
    class       volScalarField;
    location    "0.193";
    object      gradTx;
}
// * * * * * * * * * * * * * * * * * * * * * * * * * * * * * * * * * * * * * //

dimensions      [0 -1 0 1 0 0 0];

internalField   nonuniform List<scalar> 
1596
(
-0.298716
-1.49807
-2.67752
-3.73118
-4.64831
-5.42365
-6.09319
-6.68042
-7.21874
-7.77135
-8.35825
-9.05584
-9.95203
-11.1708
-12.8557
-15.3593
-19.2212
-25.6042
-36.9128
0.0667634
-1.24378
-2.40501
-3.40105
-4.25266
-4.96302
-5.56501
-6.07062
-6.50525
-6.90284
-7.26995
-7.64939
-8.05954
-8.52593
-9.03945
-9.57845
-9.99385
-9.97748
-8.87199
0.367131
-1.00877
-2.13044
-3.0563
-3.83116
-4.46858
-4.99718
-5.42498
-5.76925
-6.04885
-6.26387
-6.43793
-6.56961
-6.65976
-6.68661
-6.60933
-6.31012
-5.57948
-4.00183
0.417668
-0.877254
-1.89821
-2.72636
-3.41057
-3.96892
-4.42385
-4.78173
-5.05359
-5.24937
-5.36765
-5.42051
-5.4021
-5.30694
-5.11744
-4.80108
-4.28364
-3.44152
-2.0292
0.133603
-0.904541
-1.74938
-2.44559
-3.02347
-3.49666
-3.87881
-4.17443
-4.38954
-4.52806
-4.58917
-4.57745
-4.48728
-4.31228
-4.04115
-3.65129
-3.10023
-2.31912
-1.16877
-0.458706
-1.1123
-1.71607
-2.24707
-2.7023
-3.08286
-3.39141
-3.62914
-3.79753
-3.89594
-3.92427
-3.88191
-3.76421
-3.56492
-3.27733
-2.88554
-2.36656
-1.68286
-0.757218
-1.24506
-1.48364
-1.81267
-2.15431
-2.47238
-2.75171
-2.98323
-3.16326
-3.28885
-3.35556
-3.36331
-3.30778
-3.18483
-2.98821
-2.7137
-2.34922
-1.88264
-1.29343
-0.539119
-2.06677
-1.94778
-2.0115
-2.15924
-2.33422
-2.50709
-2.65861
-2.77953
-2.86274
-2.90062
-2.89225
-2.83073
-2.71188
-2.52918
-2.27939
-1.9524
-1.54167
-1.03555
-0.410688
-2.916
-2.54648
-2.37603
-2.32955
-2.35051
-2.40307
-2.46172
-2.51224
-2.54388
-2.54633
-2.51701
-2.44717
-2.33188
-2.16403
-1.94015
-1.6509
-1.29194
-0.855781
-0.328828
-3.42596
-2.96675
-2.65922
-2.47418
-2.37344
-2.32494
-2.30284
-2.29049
-2.27514
-2.24497
-2.19583
-2.11814
-2.00627
-1.8528
-1.65385
-1.40066
-1.08971
-0.7156
-0.269851
-3.84375
-3.34838
-2.95927
-2.67204
-2.46872
-2.32706
-2.22571
-2.14857
-2.08259
-2.0155
-1.94191
-1.85186
-1.73905
-1.59573
-1.41735
-1.19532
-0.926021
-0.604743
-0.225495
-4.27278
-3.77603
-3.33653
-2.96927
-2.67399
-2.44065
-2.25559
-2.10611
-1.98068
-1.86764
-1.76088
-1.65037
-1.52913
-1.38897
-1.22448
-1.02695
-0.792082
-0.515029
-0.190599
-4.3976
-3.96759
-3.53935
-3.14714
-2.80553
-2.51602
-2.27341
-2.07009
-1.89771
-1.74655
-1.6109
-1.4815
-1.35129
-1.21217
-1.0583
-0.881128
-0.675856
-0.437464
-0.161007
-4.43822
-4.08029
-3.68698
-3.29587
-2.93082
-2.60315
-2.31573
-2.06689
-1.85234
-1.66515
-1.50082
-1.35126
-1.2097
-1.06831
-0.920996
-0.759367
-0.57816
-0.372101
-0.136228
-4.44487
-4.15188
-3.801
-3.42562
-3.0527
-2.70039
-2.37846
-2.09122
-1.83886
-1.61776
-1.42527
-1.25473
-1.09997
-0.953574
-0.809305
-0.658939
-0.496801
-0.317339
-0.115428
-4.35253
-4.12948
-3.83015
-3.48575
-3.12321
-2.76435
-2.42392
-2.11134
-1.83125
-1.58351
-1.36774
-1.17907
-1.01224
-0.860461
-0.717612
-0.575735
-0.428909
-0.271401
-0.0979251
-4.15503
-3.99915
-3.75687
-3.45516
-3.11895
-2.77112
-2.42923
-2.10655
-1.81145
-1.54714
-1.31568
-1.11417
-0.938565
-0.782906
-0.641424
-0.506565
-0.372368
-0.233067
-0.0833075
-3.91787
-3.80553
-3.61391
-3.3572
-3.05505
-2.72899
-2.39757
-2.07642
-1.77682
-1.50482
-1.26477
-1.05576
-0.875013
-0.71753
-0.578012
-0.449375
-0.325754
-0.201479
-0.0712614
-3.71933
-3.64176
-3.48865
-3.26803
-2.99463
-2.68794
-2.36678
-2.04836
-1.74624
-1.46883
-1.22243
-1.00783
-0.823337
-0.664754
-0.527128
-0.403682
-0.288585
-0.17627
-0.0616009
-3.3582
-3.32758
-3.22045
-3.04589
-2.81522
-2.5449
-2.25239
-1.95494
-1.66723
-1.3993
-1.15902
-0.948775
-0.768091
-0.613745
-0.481364
-0.364625
-0.257852
-0.155753
-0.0537261
-2.95192
-2.95837
-2.89293
-2.76249
-2.57576
-2.3462
-2.08929
-1.82137
-1.55725
-1.3078
-1.08182
-0.88293
-0.711684
-0.565814
-0.441571
-0.333058
-0.234581
-0.140843
-0.0479176
-2.52285
-2.55284
-2.52173
-2.43152
-2.28774
-2.10081
-1.88393
-1.65185
-1.41875
-1.19555
-0.9913
-0.81039
-0.654084
-0.521008
-0.408129
-0.310053
-0.220833
-0.13424
-0.0456522
-2.04167
-2.08271
-2.07935
-2.02761
-1.92887
-1.78982
-1.62072
-1.43391
-1.24213
-1.05553
-0.882669
-0.728203
-0.593773
-0.478878
-0.381505
-0.297283
-0.220335
-0.142751
-0.0548438
-1.49392
-1.4727
-1.41898
-1.33372
-1.22289
-1.09495
-0.959592
-0.825583
-0.70045
-0.588793
-0.492715
-0.412026
-0.344713
-0.288355
-0.240525
-0.198326
-0.157758
-0.11208
-0.0499384
-0.998389
-1.10595
-1.21515
-1.30394
-1.35772
-1.36865
-1.3368
-1.26763
-1.17116
-1.05833
-0.938797
-0.820793
-0.708892
-0.606932
-0.517314
-0.441185
-0.37661
-0.318661
-0.256215
-0.336288
-0.383036
-0.442315
-0.502013
-0.553071
-0.589226
-0.608349
-0.610701
-0.599616
-0.579102
-0.551732
-0.520424
-0.484968
-0.446272
-0.405808
-0.367315
-0.332971
-0.305208
-0.283408
0.327168
0.270249
0.187484
0.0899872
-0.0114637
-0.107836
-0.193282
-0.264689
-0.322179
-0.367431
-0.4012
-0.424686
-0.436088
-0.43462
-0.420815
-0.399444
-0.375024
-0.35295
-0.334881
0.987508
0.909734
0.795352
0.656647
0.505755
0.353529
0.208175
0.074812
-0.0447153
-0.150726
-0.243052
-0.321616
-0.383004
-0.423794
-0.441802
-0.440984
-0.427407
-0.409767
-0.392581
1.58123
1.46929
1.31633
1.13655
0.942482
0.745341
0.553811
0.373267
0.205925
0.051547
-0.0898468
-0.217931
-0.328282
-0.414527
-0.469878
-0.49468
-0.494282
-0.48063
-0.462467
2.19192
2.03691
1.83986
1.61552
1.37682
1.13538
0.900001
0.675878
0.465057
0.26677
0.0801374
-0.0955915
-0.256572
-0.394692
-0.497825
-0.559596
-0.580233
-0.572921
-0.552238
2.64652
2.44264
2.20332
1.94272
1.67339
1.40566
1.14669
0.899973
0.666287
0.443564
0.229444
0.0210133
-0.180395
-0.367696
-0.525029
-0.637484
-0.693341
-0.699783
-0.674742
3.06618
2.82105
2.54083
2.24519
1.94732
1.65628
1.37756
1.11308
0.86251
0.62272
0.390099
0.159196
-0.0728875
-0.304199
-0.520712
-0.702942
-0.82289
-0.869148
-0.8519
3.44819
3.14902
2.82523
2.4967
2.17502
1.86685
1.57548
1.30108
1.04237
0.795584
0.556665
0.3187
0.0748281
-0.180686
-0.442918
-0.700104
-0.916241
-1.05415
-1.07714
3.68648
3.30589
2.91684
2.53677
2.17428
1.83313
1.51441
1.21686
0.938489
0.675375
0.423336
0.175431
-0.0769912
-0.345678
-0.638499
-0.963524
-1.30474
-1.63086
-1.88276
3.82478
3.4114
3.01944
2.65928
2.33155
2.03376
1.7622
1.51287
1.28228
1.067
0.86446
0.671496
0.484315
0.296982
0.101385
-0.119193
-0.380403
-0.699959
-1.08358
3.92025
3.49567
3.11842
2.78373
2.48408
2.2131
1.96514
1.73589
1.52229
1.32176
1.13303
0.955273
0.787686
0.630131
0.483232
0.345902
0.216244
0.0877226
-0.0522089
3.69326
3.20968
2.7983
2.44294
2.13155
1.85566
1.60842
1.38464
1.18051
0.992622
0.818978
0.658134
0.508718
0.37035
0.243941
0.130562
0.0324938
-0.0473092
-0.107521
3.22872
2.79209
2.42601
2.11359
1.84276
1.60491
1.3933
1.20283
1.02987
0.87132
0.725374
0.590785
0.466319
0.351426
0.246272
0.150757
0.0651141
-0.010035
-0.0749198
2.67289
2.30887
2.00242
1.74144
1.51626
1.31949
1.1453
0.989205
0.848027
0.719059
0.600686
0.491746
0.391028
0.297836
0.21203
0.133251
0.0614828
-0.00277706
-0.0596563
2.00679
1.72737
1.49429
1.29751
1.12897
0.982538
0.853489
0.738228
0.634243
0.539405
0.452436
0.372399
0.298309
0.229576
0.166052
0.107457
0.05382
0.00561936
-0.0371489
1.26128
1.07512
0.924702
0.80017
0.694785
0.603905
0.524201
0.453236
0.389348
0.331144
0.277784
0.228643
0.183067
0.140651
0.101278
0.0647588
0.0311234
0.000723495
-0.026371
0.483489
0.407956
0.349172
0.301188
0.260748
0.225894
0.195334
0.168161
0.143758
0.121609
0.101381
0.0828161
0.0656392
0.0496577
0.0347772
0.0208805
0.00792963
-0.00398442
-0.0148463
-0.483258
-0.407436
-0.348454
-0.300339
-0.259816
-0.224918
-0.194347
-0.167187
-0.14282
-0.120724
-0.100567
-0.0820857
-0.0650044
-0.0491287
-0.034362
-0.0205855
-0.00775868
0.00403083
0.0147704
-1.26107
-1.07465
-0.92407
-0.799425
-0.693972
-0.603059
-0.52335
-0.452405
-0.388556
-0.33041
-0.277121
-0.228065
-0.182585
-0.140273
-0.101012
-0.0646108
-0.0310963
-0.000816638
0.0261615
-2.00657
-1.72693
-1.49367
-1.29677
-1.12815
-0.981672
-0.852607
-0.737354
-0.633397
-0.538606
-0.451698
-0.371733
-0.297725
-0.229079
-0.165647
-0.107145
-0.0535992
-0.00548492
0.0372037
-2.67272
-2.30855
-2.00199
-1.74092
-1.51568
-1.31889
-1.1447
-0.988615
-0.847469
-0.718549
-0.600236
-0.491365
-0.390724
-0.297614
-0.211892
-0.133195
-0.0615066
0.00267991
0.0594929
-3.22861
-2.79188
-2.42571
-2.11321
-1.84234
-1.60446
-1.39284
-1.20238
-1.02945
-0.870938
-0.725045
-0.590519
-0.466122
-0.351302
-0.246221
-0.150774
-0.0651889
0.00991766
0.07478
-3.69325
-3.20962
-2.79816
-2.44274
-2.13131
-1.8554
-1.60816
-1.38439
-1.1803
-0.992465
-0.818885
-0.658116
-0.508785
-0.37051
-0.244194
-0.130895
-0.0328727
0.0469441
0.107239
-3.92023
-3.49533
-3.11765
-2.78252
-2.48243
-2.21105
-1.96275
-1.73322
-1.5194
-1.31871
-1.12986
-0.952021
-0.784368
-0.626759
-0.47983
-0.342548
-0.21313
-0.0852606
0.0533391
-3.82545
-3.4132
-3.02239
-2.66335
-2.33664
-2.03978
-1.76901
-1.52035
-1.29032
-1.0755
-0.873389
-0.68084
-0.494137
-0.307444
-0.112746
0.106549
0.366123
0.683936
1.06629
-3.68619
-3.3051
-2.9155
-2.53489
-2.1719
-1.83032
-1.51125
-1.21342
-0.934855
-0.671621
-0.41953
-0.171636
0.0807164
0.349295
0.642044
0.967192
1.30903
1.63662
1.8911
-3.44841
-3.14957
-2.82605
-2.49773
-2.17623
-1.86817
-1.57689
-1.30254
-1.04386
-0.797094
-0.558189
-0.320239
-0.0763714
0.179194
0.441617
0.699251
0.916138
1.05498
1.07864
-3.06632
-2.82139
-2.54135
-2.24584
-1.94808
-1.65712
-1.37846
-1.11402
-0.863469
-0.623687
-0.391062
-0.160133
0.0720222
0.3035
0.520326
0.70303
0.82353
0.870238
0.853212
-2.64666
-2.44299
-2.20386
-1.9434
-1.67419
-1.40654
-1.14762
-0.900925
-0.667234
-0.444482
-0.23031
-0.0217897
0.179767
0.367301
0.52496
0.637793
0.69399
0.700638
0.675647
-2.19206
-2.03726
-1.84041
-1.61623
-1.37766
-1.1363
-0.900962
-0.676842
-0.465991
-0.267641
-0.0809128
0.0949514
0.256119
0.394482
0.497895
0.559935
0.580773
0.573565
0.552915
-1.58136
-1.46962
-1.31685
-1.13724
-0.943289
-0.746224
-0.554722
-0.374163
-0.206767
-0.0523015
0.0892124
0.217451
0.327992
0.414454
0.470022
0.495006
0.49473
0.481141
0.463005
-0.987647
-0.910085
-0.795904
-0.657367
-0.506596
-0.354436
-0.209093
-0.0756912
0.0439171
0.150043
0.242512
0.321243
0.382815
0.423791
0.441968
0.441281
0.427789
0.410196
0.393039
-0.327289
-0.270584
-0.188022
-0.090691
0.0106476
0.106969
0.192423
0.263892
0.321484
0.36687
0.400789
0.424438
0.436002
0.434687
0.421007
0.39973
0.375371
0.353338
0.335306
0.336
0.382172
0.440859
0.500031
0.550689
0.586607
0.605666
0.608107
0.597234
0.577017
0.549986
0.519032
0.483915
0.44552
0.405303
0.367008
0.332825
0.305229
0.283668
0.998584
1.1067
1.21657
1.30604
1.36044
1.37184
1.3403
1.27124
1.17472
1.06171
0.941895
0.82357
0.711333
0.609058
0.519161
0.442805
0.378055
0.319972
0.257408
1.4937
1.47194
1.41765
1.33192
1.22074
1.09261
0.957198
0.823273
0.698321
0.58691
0.491103
0.410689
0.343635
0.287508
0.239876
0.197844
0.157416
0.111863
0.0498496
2.04179
2.08295
2.07971
2.02806
1.92937
1.79033
1.6212
1.43433
1.24247
1.05579
0.882854
0.728322
0.593841
0.478911
0.381515
0.29728
0.220325
0.14274
0.0548402
2.52287
2.55286
2.52176
2.43155
2.28777
2.10084
1.88395
1.65186
1.41875
1.19553
0.991273
0.810357
0.654051
0.520977
0.408102
0.310031
0.220817
0.134231
0.0456512
2.95194
2.95839
2.89295
2.76251
2.57578
2.34621
2.0893
1.82137
1.55724
1.30778
1.08179
0.882903
0.711658
0.565791
0.441553
0.333044
0.234573
0.140839
0.0479168
3.3582
3.32759
3.22047
3.0459
2.81524
2.54491
2.25239
1.95493
1.66722
1.39928
1.159
0.948754
0.768071
0.613729
0.481352
0.364616
0.257847
0.155751
0.0537254
3.71934
3.64178
3.48867
3.26805
2.99464
2.68795
2.36678
2.04836
1.74623
1.46881
1.22241
1.00781
0.823323
0.664743
0.52712
0.403676
0.288581
0.176268
0.0616002
3.91788
3.80554
3.61392
3.35722
3.05506
2.72899
2.39756
2.07641
1.77681
1.5048
1.26476
1.05575
0.875002
0.717521
0.578005
0.449369
0.325749
0.201476
0.0712605
4.15503
3.99916
3.75688
3.45517
3.11896
2.77112
2.42923
2.10654
1.81144
1.54713
1.31566
1.11416
0.938555
0.782898
0.641416
0.506559
0.372363
0.233063
0.0833064
4.35254
4.1295
3.83017
3.48577
3.12322
2.76436
2.42391
2.11134
1.83124
1.5835
1.36773
1.17905
1.01223
0.860452
0.717603
0.575726
0.428902
0.271397
0.0979239
4.44487
4.15189
3.80101
3.42563
3.05271
2.70038
2.37845
2.09121
1.83885
1.61775
1.42526
1.25472
1.09996
0.953562
0.809293
0.658928
0.496792
0.317333
0.115427
4.43823
4.0803
3.68699
3.29588
2.93083
2.60315
2.31572
2.06688
1.85233
1.66514
1.50081
1.35124
1.20968
1.06829
0.920981
0.759354
0.57815
0.372095
0.136227
4.39761
3.96761
3.53937
3.14715
2.80553
2.51602
2.2734
2.07008
1.8977
1.74654
1.61089
1.48149
1.35128
1.21215
1.05829
0.881115
0.675847
0.43746
0.161008
4.27277
3.77603
3.33653
2.96926
2.67398
2.44063
2.25557
2.10609
1.98066
1.86763
1.76086
1.65036
1.52911
1.38895
1.22447
1.02694
0.792075
0.515027
0.1906
3.84378
3.3484
2.95929
2.67205
2.46872
2.32706
2.2257
2.14856
2.08258
2.01549
1.94189
1.85184
1.73903
1.59571
1.41734
1.19531
0.926019
0.604745
0.225498
3.42599
2.96677
2.65923
2.47419
2.37344
2.32494
2.30283
2.29048
2.27513
2.24496
2.19582
2.11813
2.00625
1.85279
1.65385
1.40066
1.08972
0.715606
0.269855
2.91603
2.54649
2.37603
2.32955
2.35051
2.40307
2.46172
2.51223
2.54387
2.54632
2.51699
2.44716
2.33187
2.16402
1.94015
1.6509
1.29195
0.855789
0.328831
2.06679
1.94779
2.0115
2.15924
2.33422
2.50708
2.6586
2.77953
2.86273
2.90061
2.89224
2.83073
2.71187
2.52918
2.2794
1.95241
1.54168
1.03556
0.41069
1.24507
1.48365
1.81267
2.15431
2.47239
2.75171
2.98322
3.16325
3.28884
3.35556
3.36331
3.30778
3.18483
2.98822
2.71372
2.34924
1.88266
1.29344
0.539119
0.458718
1.11231
1.71608
2.24708
2.70231
3.08286
3.39141
3.62914
3.79753
3.89594
3.92427
3.88192
3.76422
3.56494
3.27735
2.88556
2.36658
1.68287
0.757217
-0.133596
0.904551
1.7494
2.4456
3.02348
3.49666
3.87881
4.17443
4.38954
4.52806
4.58917
4.57746
4.48729
4.31229
4.04117
3.65131
3.10024
2.31912
1.16876
-0.417667
0.877261
1.89822
2.72636
3.41057
3.96892
4.42385
4.78173
5.0536
5.24938
5.36766
5.42053
5.40212
5.30695
5.11745
4.80109
4.28363
3.44151
2.0292
-0.367133
1.00877
2.13044
3.0563
3.83115
4.46858
4.99718
5.42498
5.76925
6.04886
6.26388
6.43794
6.56962
6.65977
6.68661
6.60932
6.31011
5.57947
4.00182
-0.0667635
1.24378
2.405
3.40104
4.25265
4.96302
5.56502
6.07062
6.50526
6.90285
7.26996
7.6494
8.05954
8.52593
9.03944
9.57843
9.99383
9.97747
8.87199
0.298718
1.49807
2.67752
3.73118
4.64831
5.42365
6.09319
6.68043
7.21874
7.77135
8.35825
9.05584
9.95202
11.1708
12.8557
15.3593
19.2212
25.6042
36.9128
)
;

boundaryField
{
    up
    {
        type            calculated;
        value           nonuniform List<scalar> 
84
(
-36.9128
-8.87199
-4.00183
-2.0292
-1.16877
-0.757218
-0.539119
-0.410688
-0.328828
-0.269851
-0.225495
-0.190599
-0.161007
-0.136228
-0.115428
-0.0979251
-0.0833075
-0.0712614
-0.0616009
-0.0537261
-0.0479176
-0.0456522
-0.0548438
-0.0499384
-0.217954
-0.263113
-0.313671
-0.368399
-0.433705
-0.516767
-0.627909
-0.778972
-0.962319
-1.8503
-1.11618
-0.0541068
-0.107159
-0.0746537
-0.0595057
-0.0370932
-0.0263511
-0.0148464
0.0147705
0.026142
0.0371485
0.0593434
0.0745153
0.106878
0.0552085
1.0985
1.86011
0.96367
0.780106
0.628737
0.517402
0.434219
0.368843
0.314092
0.26348
0.219027
0.0498496
0.0548402
0.0456512
0.0479168
0.0537254
0.0616002
0.0712605
0.0833064
0.0979239
0.115427
0.136227
0.161008
0.1906
0.225498
0.269855
0.328831
0.41069
0.539119
0.757217
1.16876
2.0292
4.00182
8.87199
36.9128
)
;
    }
    low
    {
        type            calculated;
        value           nonuniform List<scalar> 
84
(
-0.269051
0.111793
0.439739
0.496465
0.183063
-0.467841
-1.32014
-2.19271
-3.06156
-3.54563
-3.94904
-4.35794
-4.43484
-4.44622
-4.4346
-4.31507
-4.09411
-3.85076
-3.63722
-3.24816
-2.82795
-2.39563
-1.91683
-1.38414
-0.912377
-0.305206
0.291769
0.899673
1.46897
2.08039
2.55609
2.99359
3.40107
3.67207
3.83616
3.96191
3.76647
3.3066
2.74213
2.06176
1.29763
0.498672
-0.498439
-1.29741
-2.06152
-2.74194
-3.30646
-3.76642
-3.96185
-3.83673
-3.67178
-3.40125
-2.99371
-2.55623
-2.08053
-1.4691
-0.89982
-0.291893
0.304925
0.912569
1.38393
1.91693
2.39565
2.82796
3.24817
3.63723
3.85077
4.09412
4.31509
4.4346
4.44622
4.43486
4.35792
3.94906
3.54566
3.06159
2.19273
1.32016
0.467855
-0.183056
-0.496466
-0.439746
-0.111798
0.269052
)
;
    }
    left
    {
        type            calculated;
        value           nonuniform List<scalar> 
19
(
-0.265494
-1.43928
-2.64342
-3.73414
-4.69121
-5.50297
-6.20799
-6.83364
-7.41306
-8.02493
-8.68884
-9.49009
-10.5426
-12.011
-14.0749
-17.2291
-22.2223
-30.6787
-32.0146
)
;
    }
    right
    {
        type            calculated;
        value           nonuniform List<scalar> 
19
(
0.265497
1.43929
2.64343
3.73414
4.69121
5.50297
6.20799
6.83364
7.41307
8.02493
8.68883
9.49008
10.5426
12.011
14.0748
17.2291
22.2223
30.6787
32.0146
)
;
    }
    frontAndBackPlanes
    {
        type            empty;
    }
}


// ************************************************************************* //
