/*--------------------------------*- C++ -*----------------------------------*\
  =========                 |
  \\      /  F ield         | OpenFOAM: The Open Source CFD Toolbox
   \\    /   O peration     | Website:  https://openfoam.org
    \\  /    A nd           | Version:  7
     \\/     M anipulation  |
\*---------------------------------------------------------------------------*/
FoamFile
{
    version     2.0;
    format      ascii;
    class       volScalarField;
    location    "0.13";
    object      gradTx;
}
// * * * * * * * * * * * * * * * * * * * * * * * * * * * * * * * * * * * * * //

dimensions      [0 -1 0 1 0 0 0];

internalField   nonuniform List<scalar> 
1596
(
-0.0658286
-0.329902
-0.587022
-0.811631
-0.999609
-1.14881
-1.26666
-1.35827
-1.43111
-1.49852
-1.56525
-1.64718
-1.76182
-1.93268
-2.18596
-2.58241
-3.21247
-4.2693
-6.15192
0.0158372
-0.270804
-0.523131
-0.735758
-0.911782
-1.05117
-1.16081
-1.24355
-1.30531
-1.35369
-1.39096
-1.42647
-1.46496
-1.51273
-1.57019
-1.63578
-1.6861
-1.67064
-1.47968
0.0835038
-0.213056
-0.454146
-0.650646
-0.81104
-0.937706
-1.03668
-1.11002
-1.16192
-1.19689
-1.2158
-1.22403
-1.22227
-1.21191
-1.19069
-1.15351
-1.08236
-0.943936
-0.669899
0.0965382
-0.176064
-0.391214
-0.564392
-0.704955
-0.816301
-0.903139
-0.967113
-1.01103
-1.03742
-1.04663
-1.04152
-1.02146
-0.986124
-0.933343
-0.858845
-0.751628
-0.592857
-0.343127
0.0374135
-0.173118
-0.345481
-0.487143
-0.603483
-0.696952
-0.77036
-0.82485
-0.86205
-0.8831
-0.888229
-0.878557
-0.853102
-0.810843
-0.750106
-0.667631
-0.557258
-0.409008
-0.201308
-0.0864932
-0.209846
-0.326092
-0.428897
-0.516835
-0.589765
-0.648187
-0.692449
-0.723108
-0.74023
-0.74399
-0.734287
-0.710029
-0.669816
-0.612286
-0.534697
-0.433599
-0.303729
-0.133596
-0.249389
-0.282863
-0.337478
-0.396764
-0.452982
-0.502809
-0.54441
-0.577057
-0.600312
-0.613373
-0.616251
-0.608001
-0.587442
-0.55291
-0.503125
-0.435494
-0.347855
-0.237184
-0.097308
-0.41757
-0.376904
-0.374068
-0.389951
-0.413481
-0.438823
-0.462272
-0.481981
-0.496626
-0.504713
-0.505965
-0.498884
-0.482177
-0.454
-0.413021
-0.356645
-0.283198
-0.190568
-0.0752009
-0.589842
-0.499794
-0.448026
-0.421645
-0.410679
-0.408578
-0.410738
-0.414432
-0.417635
-0.418296
-0.415713
-0.408003
-0.393684
-0.370753
-0.337729
-0.291953
-0.231797
-0.155361
-0.0601681
-0.692437
-0.586938
-0.507861
-0.452249
-0.41459
-0.389703
-0.373322
-0.362454
-0.354762
-0.34793
-0.340899
-0.331623
-0.318492
-0.299465
-0.27297
-0.236397
-0.188081
-0.126155
-0.0485634
-0.777145
-0.666997
-0.572598
-0.496034
-0.436304
-0.390725
-0.356344
-0.330556
-0.311097
-0.295621
-0.28279
-0.270491
-0.256988
-0.240223
-0.218538
-0.189407
-0.151083
-0.10165
-0.0391662
-0.865574
-0.757184
-0.653822
-0.56117
-0.481939
-0.416312
-0.363266
-0.32118
-0.288256
-0.262331
-0.241897
-0.224791
-0.209126
-0.192792
-0.174023
-0.150371
-0.120012
-0.0809749
-0.0313068
-0.894319
-0.800941
-0.701128
-0.603995
-0.515136
-0.437282
-0.371367
-0.317082
-0.273429
-0.238716
-0.211522
-0.189787
-0.171595
-0.154862
-0.137793
-0.118085
-0.0939275
-0.0633995
-0.024593
-0.907603
-0.829749
-0.737898
-0.64145
-0.547698
-0.461478
-0.385535
-0.321001
-0.267847
-0.225004
-0.191297
-0.164832
-0.143704
-0.125861
-0.109486
-0.0924085
-0.072857
-0.0489999
-0.0190239
-0.91534
-0.851138
-0.768355
-0.675271
-0.579664
-0.487834
-0.404066
-0.330902
-0.269356
-0.219068
-0.17922
-0.148114
-0.123882
-0.104494
-0.088103
-0.0726353
-0.0563623
-0.0375555
-0.0145245
-0.903779
-0.854251
-0.782265
-0.695514
-0.601686
-0.507911
-0.419605
-0.340549
-0.272766
-0.216642
-0.171802
-0.136798
-0.109847
-0.0889531
-0.0722595
-0.0577665
-0.043795
-0.0287233
-0.0109988
-0.870747
-0.835583
-0.775663
-0.697714
-0.60897
-0.516869
-0.427539
-0.34572
-0.274326
-0.214459
-0.166228
-0.128476
-0.0995559
-0.0775397
-0.0605833
-0.0467568
-0.0344341
-0.022096
-0.00832641
-0.828983
-0.803434
-0.754426
-0.685899
-0.603947
-0.515816
-0.427973
-0.345823
-0.272997
-0.211228
-0.161086
-0.121713
-0.09162
-0.0689648
-0.0519347
-0.0386621
-0.0275728
-0.0172372
-0.00635959
-0.794545
-0.776612
-0.735787
-0.674639
-0.598246
-0.513526
-0.427146
-0.344992
-0.27127
-0.208221
-0.156784
-0.116341
-0.0855164
-0.0625184
-0.0455437
-0.0327564
-0.0226117
-0.0137434
-0.00494792
-0.724348
-0.717274
-0.686974
-0.636048
-0.56878
-0.491477
-0.410646
-0.332335
-0.261116
-0.199634
-0.149174
-0.109393
-0.0790909
-0.0566005
-0.0401934
-0.0281099
-0.0188661
-0.011173
-0.00392566
-0.642338
-0.644003
-0.623545
-0.582857
-0.525504
-0.457092
-0.383751
-0.31142
-0.244802
-0.186789
-0.13891
-0.101065
-0.0722415
-0.0509281
-0.0355111
-0.0243375
-0.0160008
-0.0092881
-0.00319226
-0.553167
-0.560388
-0.548185
-0.517165
-0.470008
-0.411495
-0.347188
-0.282665
-0.22253
-0.169735
-0.125932
-0.0912213
-0.0647739
-0.0452652
-0.0312431
-0.0212027
-0.0138374
-0.00799582
-0.00271987
-0.45042
-0.460212
-0.454888
-0.433552
-0.397707
-0.351012
-0.298157
-0.244041
-0.192896
-0.147548
-0.109658
-0.0795024
-0.0564588
-0.0394515
-0.0272668
-0.0186272
-0.0123832
-0.00745017
-0.00277028
-0.330937
-0.326966
-0.312553
-0.288273
-0.25632
-0.21977
-0.181875
-0.145472
-0.112746
-0.0848997
-0.0623877
-0.0449688
-0.0319481
-0.0225011
-0.0158269
-0.0111723
-0.00785654
-0.00516767
-0.00223941
-0.22128
-0.243803
-0.262368
-0.271518
-0.26861
-0.253635
-0.22886
-0.197764
-0.164285
-0.131745
-0.102493
-0.0778426
-0.057991
-0.0426614
-0.031274
-0.0231516
-0.0175302
-0.0136457
-0.0105422
-0.0740567
-0.0827147
-0.0927826
-0.101387
-0.10648
-0.106919
-0.102654
-0.0943768
-0.0834778
-0.0714295
-0.0594462
-0.0485242
-0.0389714
-0.0309327
-0.0243822
-0.0193371
-0.0156567
-0.0132334
-0.011781
0.0737369
0.064179
0.0488205
0.0301983
0.0110391
-0.00625108
-0.020025
-0.0294917
-0.0348236
-0.0367673
-0.0362168
-0.0341933
-0.0312251
-0.0277445
-0.0240511
-0.0205914
-0.0176488
-0.0155143
-0.0141629
0.220017
0.207127
0.184985
0.156268
0.12416
0.0918721
0.0621225
0.0367341
0.0164647
0.00118876
-0.00965398
-0.0169861
-0.0213985
-0.0234064
-0.0234116
-0.0221233
-0.0201995
-0.0183998
-0.017047
0.349919
0.330667
0.300549
0.262549
0.219955
0.176222
0.134464
0.0969463
0.0649226
0.0386598
0.0178732
0.00179092
-0.0101077
-0.0182145
-0.022729
-0.0243117
-0.0237784
-0.0223749
-0.020914
0.481007
0.452966
0.413348
0.365253
0.312131
0.257613
0.205001
0.156728
0.114278
0.0781005
0.048056
0.023423
0.0036914
-0.0113996
-0.0216608
-0.0273523
-0.0290239
-0.0282567
-0.0265353
0.575272
0.537537
0.489517
0.434126
0.374672
0.314437
0.256347
0.202516
0.154295
0.112101
0.0758433
0.0448037
0.0184294
-0.00349283
-0.020337
-0.0316364
-0.0369445
-0.0375123
-0.0353131
0.659165
0.613383
0.557268
0.49492
0.429776
0.36479
0.302465
0.244521
0.192084
0.145443
0.104477
0.0683681
0.0363393
0.00787785
-0.0163577
-0.0353935
-0.0472205
-0.0515379
-0.0498272
0.732206
0.675798
0.611228
0.542659
0.473183
0.405165
0.340524
0.280482
0.225868
0.176796
0.133117
0.0939561
0.0582844
0.0250244
-0.00576989
-0.0336421
-0.0555414
-0.0687061
-0.0704458
0.772823
0.700762
0.62413
0.54669
0.47095
0.398621
0.331026
0.268913
0.212769
0.162506
0.11781
0.0777476
0.041075
0.00612779
-0.0281917
-0.063114
-0.0970919
-0.127375
-0.148534
0.791223
0.7137
0.637406
0.564617
0.496078
0.432018
0.372561
0.317687
0.26743
0.221664
0.180262
0.142861
0.108856
0.0773329
0.0471992
0.016419
-0.0165888
-0.0534655
-0.0943699
0.800094
0.72108
0.647992
0.580254
0.517065
0.457921
0.402554
0.350844
0.302849
0.258557
0.218007
0.181175
0.147807
0.117645
0.0904564
0.0657356
0.0429504
0.0212008
-0.00095129
0.744629
0.654894
0.576068
0.505627
0.442004
0.384275
0.331822
0.284192
0.241093
0.202162
0.167112
0.135663
0.107366
0.0818758
0.0589859
0.0385013
0.0204079
0.00489157
-0.00803287
0.644076
0.564368
0.495174
0.434005
0.379301
0.330063
0.285587
0.245344
0.208984
0.176125
0.146494
0.119838
0.0957853
0.0740443
0.0544259
0.036713
0.0207784
0.00664406
-0.0057775
0.528364
0.462833
0.40551
0.354886
0.309813
0.26945
0.233162
0.200447
0.170961
0.144344
0.120344
0.0987278
0.0791764
0.0614385
0.045352
0.0307285
0.0174634
0.00558707
-0.00495833
0.393873
0.344038
0.300786
0.262896
0.229393
0.199551
0.172822
0.148783
0.127142
0.107603
0.0899688
0.074057
0.0596272
0.0464931
0.034542
0.0236412
0.0137273
0.00484111
-0.00304709
0.246323
0.213168
0.18537
0.161514
0.140678
0.122259
0.10584
0.0911152
0.0778805
0.0659371
0.0551533
0.0454098
0.0365537
0.0284675
0.0210821
0.0143165
0.00813605
0.00257546
-0.00237326
0.0940757
0.080444
0.0694809
0.0602287
0.0522023
0.0451332
0.038855
0.0332516
0.0282448
0.0237576
0.0197354
0.0161261
0.0128651
0.00989994
0.00719472
0.00471033
0.00242521
0.000344686
-0.00153683
-0.0940308
-0.0803409
-0.069337
-0.0600572
-0.0520137
-0.0449361
-0.0386563
-0.0330569
-0.0280586
-0.0235835
-0.0195762
-0.0159839
-0.0127417
-0.00979661
-0.00711243
-0.00464984
-0.00238697
-0.0003286
0.00153122
-0.24628
-0.213075
-0.185242
-0.161362
-0.140511
-0.122085
-0.105666
-0.0909457
-0.0777196
-0.065788
-0.0550186
-0.0452913
-0.036453
-0.0283859
-0.0210205
-0.0142756
-0.00811627
-0.00257663
0.00235174
-0.393829
-0.343946
-0.300659
-0.262744
-0.229225
-0.199374
-0.172644
-0.148609
-0.126975
-0.107448
-0.0898268
-0.0739302
-0.0595167
-0.0463998
-0.034466
-0.0235826
-0.0136855
-0.00481554
0.00305758
-0.528329
-0.462765
-0.405416
-0.354774
-0.30969
-0.269322
-0.233034
-0.200323
-0.170845
-0.144238
-0.120249
-0.0986465
-0.079109
-0.0613855
-0.0453134
-0.0307042
-0.0174528
-0.00558941
0.004944
-0.644051
-0.564319
-0.495104
-0.43392
-0.379206
-0.329963
-0.285487
-0.245248
-0.208894
-0.176045
-0.146424
-0.11978
-0.0957382
-0.0740091
-0.0544023
-0.0367003
-0.0207754
-0.00664893
0.00576712
-0.744622
-0.654871
-0.576029
-0.505575
-0.441944
-0.384212
-0.331761
-0.284136
-0.241045
-0.202123
-0.167085
-0.135646
-0.107361
-0.081881
-0.0590013
-0.0385254
-0.0204371
-0.0049203
0.00801057
-0.800084
-0.720999
-0.647826
-0.580002
-0.516739
-0.457535
-0.402124
-0.350389
-0.302383
-0.258094
-0.217555
-0.180741
-0.147391
-0.117248
-0.0900766
-0.0653772
-0.0426274
-0.0209494
0.00106877
-0.791353
-0.714049
-0.637978
-0.565396
-0.497036
-0.433119
-0.373767
-0.318961
-0.268736
-0.222975
-0.181559
-0.144133
-0.110105
-0.0785714
-0.0484529
-0.0177247
0.0152005
0.0519909
0.092868
-0.772757
-0.700594
-0.623857
-0.546324
-0.47051
-0.398127
-0.330499
-0.268371
-0.212226
-0.161975
-0.117298
-0.0772605
-0.0406153
-0.00569543
0.0286046
0.0635292
0.0975606
0.127985
0.149398
-0.732248
-0.675902
-0.611386
-0.542862
-0.473422
-0.405428
-0.340801
-0.280764
-0.226144
-0.177059
-0.133364
-0.0941845
-0.0584919
-0.0252064
0.00562441
0.0335545
0.0555362
0.068797
0.0706089
-0.65919
-0.613447
-0.557369
-0.495053
-0.429936
-0.364969
-0.302655
-0.244714
-0.192273
-0.145621
-0.10464
-0.0685128
-0.0364613
-0.00797032
0.0163057
0.0353951
0.0472808
0.0516436
0.049951
-0.575299
-0.537605
-0.489624
-0.434267
-0.37484
-0.314624
-0.256543
-0.202711
-0.154479
-0.112269
-0.0759902
-0.0449264
-0.0185244
0.00343013
0.020312
0.0316526
0.0369974
0.0375872
0.0353894
-0.481034
-0.453036
-0.413461
-0.365403
-0.312309
-0.257809
-0.205202
-0.156922
-0.114456
-0.0782567
-0.0481864
-0.0235258
-0.00376511
0.0113565
0.0216488
0.0273693
0.0290628
0.0283069
0.0265856
-0.349944
-0.330736
-0.300661
-0.262697
-0.22013
-0.17641
-0.134653
-0.0971238
-0.0650803
-0.0387925
-0.0179789
-0.00186944
0.0100557
0.0181882
0.0227261
0.0243281
0.0238077
0.0224103
0.0209495
-0.220046
-0.207203
-0.185106
-0.156426
-0.124341
-0.0920623
-0.0623068
-0.0369008
-0.0166065
-0.00130209
0.00956887
0.0169273
0.0213635
0.0233922
0.0234146
0.022139
0.020223
0.0184269
0.0170741
-0.073763
-0.0642536
-0.0489405
-0.0303533
-0.0112136
0.00607387
0.0198599
0.0293492
0.0347089
0.0366815
0.0361575
0.0341569
0.0312077
0.0277422
0.0240602
0.020608
0.0176696
0.0155371
0.0141862
0.0739929
0.082525
0.0924725
0.100984
0.106025
0.106456
0.10222
0.0939985
0.0831674
0.0711886
0.0592681
0.0483994
0.0388888
0.030882
0.024354
0.0193242
0.0156537
0.013238
0.0117951
0.221321
0.243959
0.262651
0.271917
0.269094
0.254162
0.229388
0.198259
0.164723
0.132114
0.102792
0.0780786
0.058173
0.0428004
0.0313805
0.0232349
0.0175975
0.0137025
0.010591
0.330887
0.326796
0.31227
0.287906
0.255906
0.219347
0.181475
0.145117
0.112446
0.0846581
0.0622
0.0448276
0.0318452
0.0224282
0.0157768
0.0111389
0.00783542
0.00515565
0.00223507
0.450444
0.460261
0.454959
0.433637
0.397795
0.351095
0.298228
0.244096
0.192936
0.147573
0.109672
0.0795091
0.056461
0.0394514
0.0272659
0.0186263
0.0123825
0.00744994
0.00277051
0.553169
0.56039
0.548187
0.517167
0.470008
0.411494
0.347184
0.28266
0.222524
0.169728
0.125926
0.0912161
0.0647699
0.0452625
0.0312416
0.0212021
0.0138374
0.00799612
0.00272017
0.64234
0.644006
0.623548
0.582858
0.525504
0.45709
0.383748
0.311415
0.244797
0.186784
0.138905
0.101061
0.0722394
0.050927
0.035511
0.0243379
0.0160014
0.0092887
0.00319249
0.724348
0.717276
0.686976
0.636049
0.56878
0.491475
0.410643
0.332331
0.261112
0.19963
0.149171
0.109391
0.07909
0.0566005
0.0401941
0.0281109
0.0188672
0.0111738
0.00392589
0.794547
0.776616
0.73579
0.674641
0.598247
0.513525
0.427144
0.344989
0.271267
0.208218
0.156782
0.11634
0.0855164
0.0625192
0.045545
0.0327579
0.0226131
0.0137443
0.00494813
0.828984
0.803437
0.754429
0.685901
0.603949
0.515815
0.427972
0.345821
0.272995
0.211227
0.161085
0.121712
0.0916207
0.0689662
0.0519364
0.0386638
0.0275741
0.0172379
0.00635975
0.870748
0.835584
0.775665
0.697716
0.608971
0.516869
0.427538
0.345718
0.274325
0.214458
0.166228
0.128476
0.099557
0.0775414
0.0605851
0.0467584
0.0344352
0.0220965
0.00832643
0.903781
0.854254
0.782268
0.695517
0.601688
0.507911
0.419605
0.340548
0.272765
0.216641
0.171802
0.136799
0.109848
0.0889547
0.072261
0.0577676
0.0437954
0.0287231
0.0109987
0.91534
0.851139
0.768357
0.675273
0.579665
0.487834
0.404065
0.330902
0.269355
0.219068
0.17922
0.148115
0.123883
0.104495
0.0881035
0.0726351
0.0563615
0.0375545
0.014524
0.907604
0.829751
0.737901
0.641452
0.5477
0.461478
0.385535
0.321001
0.267847
0.225004
0.191298
0.164833
0.143704
0.12586
0.109485
0.0924066
0.0728546
0.048998
0.0190234
0.894322
0.800944
0.701132
0.603998
0.515139
0.437284
0.371368
0.317082
0.27343
0.238717
0.211522
0.189787
0.171593
0.15486
0.137789
0.118081
0.0939236
0.0633969
0.0245924
0.865572
0.757183
0.653822
0.561169
0.481937
0.416311
0.363265
0.321179
0.288255
0.26233
0.241895
0.224789
0.209122
0.192787
0.174017
0.150365
0.120007
0.0809721
0.0313064
0.777149
0.667002
0.572601
0.496036
0.436305
0.390726
0.356345
0.330556
0.311097
0.29562
0.282788
0.270487
0.256982
0.240217
0.218531
0.1894
0.151078
0.101648
0.0391664
0.692444
0.586943
0.507864
0.45225
0.41459
0.389703
0.373322
0.362454
0.35476
0.347927
0.340894
0.331617
0.318484
0.299457
0.272962
0.236391
0.188078
0.126154
0.0485641
0.589848
0.499797
0.448027
0.421646
0.41068
0.408579
0.410738
0.414431
0.417632
0.418292
0.415707
0.407996
0.393676
0.370745
0.337722
0.291949
0.231796
0.155362
0.0601693
0.417575
0.376906
0.374069
0.389952
0.413482
0.438823
0.462272
0.481979
0.496622
0.504707
0.505958
0.498877
0.48217
0.453994
0.413018
0.356645
0.2832
0.19057
0.0752021
0.249392
0.282866
0.337481
0.396766
0.452984
0.50281
0.544409
0.577055
0.600308
0.613367
0.616245
0.607995
0.587438
0.552908
0.503125
0.435498
0.34786
0.237188
0.0973088
0.0864956
0.209849
0.326095
0.4289
0.516837
0.589765
0.648186
0.692446
0.723104
0.740225
0.743986
0.734284
0.710028
0.669818
0.612291
0.534704
0.433606
0.303733
0.133596
-0.0374121
0.173121
0.345484
0.487146
0.603485
0.696952
0.770359
0.824848
0.862047
0.883097
0.888227
0.878557
0.853104
0.810849
0.750114
0.667639
0.557264
0.40901
0.201307
-0.0965379
0.176067
0.391216
0.564394
0.704955
0.8163
0.903138
0.967111
1.01103
1.03742
1.04663
1.04152
1.02146
0.986131
0.933351
0.858852
0.751631
0.592856
0.343125
-0.0835042
0.213056
0.454146
0.650645
0.811038
0.937705
1.03668
1.11002
1.16192
1.1969
1.2158
1.22404
1.22227
1.21192
1.19069
1.15351
1.08236
0.943932
0.669897
-0.0158371
0.270803
0.523129
0.735754
0.911779
1.05117
1.16081
1.24355
1.30531
1.35369
1.39097
1.42648
1.46497
1.51274
1.57019
1.63578
1.68609
1.67064
1.47967
0.0658294
0.329901
0.58702
0.811628
0.999607
1.14881
1.26666
1.35827
1.43111
1.49852
1.56525
1.64718
1.76182
1.93267
2.18595
2.58241
3.21247
4.26929
6.15192
)
;

boundaryField
{
    up
    {
        type            calculated;
        value           nonuniform List<scalar> 
84
(
-6.15192
-1.47968
-0.669899
-0.343127
-0.201308
-0.133596
-0.097308
-0.0752009
-0.0601681
-0.0485634
-0.0391662
-0.0313068
-0.024593
-0.0190239
-0.0145245
-0.0109988
-0.00832641
-0.00635959
-0.00494792
-0.00392566
-0.00319226
-0.00271987
-0.00277028
-0.00223941
-0.00882099
-0.0107179
-0.0129619
-0.0155634
-0.0189711
-0.0238627
-0.0313698
-0.0430745
-0.0590471
-0.142623
-0.0959558
-0.00104535
-0.00793797
-0.00571613
-0.00492266
-0.00303196
-0.00236659
-0.00153504
0.00152945
0.00234516
0.00304254
0.00490858
0.00570606
0.00791602
0.00116043
0.0944432
0.14363
0.0591978
0.0431762
0.0314333
0.0239052
0.0190015
0.0155873
0.0129832
0.0107357
0.00886323
0.00223507
0.00277051
0.00272017
0.00319249
0.00392589
0.00494813
0.00635975
0.00832643
0.0109987
0.014524
0.0190234
0.0245924
0.0313064
0.0391664
0.0485641
0.0601693
0.0752021
0.0973088
0.133596
0.201307
0.343125
0.669897
1.47967
6.15192
)
;
    }
    low
    {
        type            calculated;
        value           nonuniform List<scalar> 
84
(
-0.0591855
0.0260175
0.0997111
0.113877
0.0481335
-0.0884416
-0.265145
-0.443615
-0.619659
-0.716951
-0.799097
-0.884151
-0.904015
-0.912219
-0.917037
-0.900501
-0.862943
-0.820009
-0.782376
-0.705772
-0.620047
-0.529306
-0.42611
-0.308964
-0.203595
-0.0675762
0.0663409
0.201855
0.327201
0.45929
0.558738
0.646864
0.725487
0.772825
0.79627
0.810929
0.761225
0.660933
0.542947
0.405223
0.253728
0.0971413
-0.0970961
-0.253684
-0.405176
-0.542908
-0.660902
-0.761211
-0.810912
-0.796379
-0.772761
-0.725519
-0.646886
-0.558763
-0.459318
-0.327227
-0.201886
-0.0663675
0.0675139
0.203634
0.308917
0.42613
0.529308
0.620048
0.705771
0.782377
0.820011
0.862944
0.900503
0.917037
0.912221
0.904018
0.884148
0.799101
0.716957
0.619664
0.443619
0.265148
0.0884444
-0.0481321
-0.113877
-0.099713
-0.0260189
0.0591858
)
;
    }
    left
    {
        type            calculated;
        value           nonuniform List<scalar> 
19
(
-0.0588506
-0.317997
-0.581173
-0.814279
-1.0109
-1.16739
-1.29158
-1.38935
-1.46807
-1.54402
-1.62198
-1.71933
-1.85839
-2.06972
-2.38564
-2.89065
-3.71
-5.11345
-5.33498
)
;
    }
    right
    {
        type            calculated;
        value           nonuniform List<scalar> 
19
(
0.0588515
0.317998
0.581173
0.814277
1.0109
1.16739
1.29158
1.38935
1.46807
1.54403
1.62198
1.71933
1.85839
2.06971
2.38563
2.89064
3.71
5.11345
5.33499
)
;
    }
    frontAndBackPlanes
    {
        type            empty;
    }
}


// ************************************************************************* //
