/*--------------------------------*- C++ -*----------------------------------*\
  =========                 |
  \\      /  F ield         | OpenFOAM: The Open Source CFD Toolbox
   \\    /   O peration     | Website:  https://openfoam.org
    \\  /    A nd           | Version:  7
     \\/     M anipulation  |
\*---------------------------------------------------------------------------*/
FoamFile
{
    version     2.0;
    format      ascii;
    class       volScalarField;
    location    "0.325";
    object      gradTx;
}
// * * * * * * * * * * * * * * * * * * * * * * * * * * * * * * * * * * * * * //

dimensions      [0 -1 0 1 0 0 0];

internalField   nonuniform List<scalar> 
1596
(
-0.257136
-1.2931
-2.32617
-3.27649
-4.1444
-4.93207
-5.67538
-6.39694
-7.12587
-7.91932
-8.79028
-9.80722
-11.0539
-12.6579
-14.7742
-17.8056
-22.3809
-29.8625
-43.0661
0.0565003
-1.07699
-2.0914
-2.98263
-3.77624
-4.47985
-5.12534
-5.72366
-6.29613
-6.87119
-7.44842
-8.06268
-8.72285
-9.44469
-10.2055
-10.9691
-11.5553
-11.6021
-10.3459
0.313384
-0.88293
-1.86383
-2.68838
-3.40153
-4.01863
-4.56686
-5.05315
-5.49138
-5.89597
-6.26138
-6.6044
-6.9149
-7.18322
-7.37362
-7.42762
-7.19927
-6.43726
-4.65433
0.353588
-0.783341
-1.68175
-2.41986
-3.04515
-3.5761
-4.03389
-4.42398
-4.75495
-5.03366
-5.25474
-5.42522
-5.53285
-5.56376
-5.48933
-5.2623
-4.78732
-3.91135
-2.342
0.101761
-0.824626
-1.57816
-2.20422
-2.73311
-3.17889
-3.55463
-3.86433
-4.11262
-4.30167
-4.42833
-4.49406
-4.48931
-4.40207
-4.21343
-3.88993
-3.37422
-2.57698
-1.32821
-0.421861
-1.02343
-1.57657
-2.06482
-2.48789
-2.84812
-3.14852
-3.39032
-3.57454
-3.7
-3.76559
-3.76938
-3.70497
-3.56309
-3.33246
-2.99001
-2.50271
-1.81882
-0.840479
-1.11928
-1.3631
-1.685
-2.01598
-2.32426
-2.59675
-2.82547
-3.00728
-3.13943
-3.21795
-3.2427
-3.20956
-3.11441
-2.95018
-2.71061
-2.3797
-1.939
-1.35842
-0.581488
-1.85059
-1.78024
-1.87579
-2.04512
-2.23539
-2.41934
-2.579
-2.70589
-2.79346
-2.83518
-2.83076
-2.77464
-2.66391
-2.49307
-2.25884
-1.94991
-1.55639
-1.0607
-0.43024
-2.60717
-2.3123
-2.20569
-2.21237
-2.27668
-2.36345
-2.44766
-2.51553
-2.55684
-2.56255
-2.53112
-2.45588
-2.33418
-2.16126
-1.93532
-1.64805
-1.29426
-0.863559
-0.336723
-3.05907
-2.67969
-2.4525
-2.34191
-2.30646
-2.31239
-2.33285
-2.35083
-2.35359
-2.33035
-2.27815
-2.18972
-2.06231
-1.89175
-1.67704
-1.41207
-1.09445
-0.718295
-0.272307
-3.42393
-3.0078
-2.70783
-2.51066
-2.39169
-2.3242
-2.28382
-2.2527
-2.21693
-2.16468
-2.09152
-1.98981
-1.85642
-1.68737
-1.4819
-1.2353
-0.946658
-0.612805
-0.227291
-3.79189
-3.37164
-3.02664
-2.76204
-2.56873
-2.42953
-2.32554
-2.2405
-2.16075
-2.07416
-1.97518
-1.85584
-1.7124
-1.54079
-1.34004
-1.1062
-0.838943
-0.536581
-0.195391
-3.88139
-3.5176
-3.18083
-2.8951
-2.66507
-2.48326
-2.33732
-2.21428
-2.10221
-1.98974
-1.87105
-1.73836
-1.58773
-1.41515
-1.2196
-0.997738
-0.749627
-0.4745
-0.170254
-3.89085
-3.58923
-3.28199
-2.9978
-2.75045
-2.54103
-2.36376
-2.20985
-2.06994
-1.93419
-1.79709
-1.65138
-1.49306
-1.31828
-1.1259
-0.913051
-0.679917
-0.426277
-0.151031
-3.86618
-3.62119
-3.35075
-3.08111
-2.82981
-2.60407
-2.4039
-2.22492
-2.06084
-1.90383
-1.74923
-1.5905
-1.4238
-1.24545
-1.05424
-0.84762
-0.62581
-0.388861
-0.136221
-3.75267
-3.56804
-3.34196
-3.09968
-2.85959
-2.63242
-2.42241
-2.22906
-2.04919
-1.87719
-1.70966
-1.54102
-1.36779
-1.18661
-0.996313
-0.794698
-0.58207
-0.358714
-0.124393
-3.54908
-3.42106
-3.24302
-3.03719
-2.82098
-2.60643
-2.40026
-2.20488
-2.0197
-1.8413
-1.66762
-1.49421
-1.3181
-1.13632
-0.947864
-0.750924
-0.546074
-0.333985
-0.114775
-3.31535
-3.22312
-3.08692
-2.91869
-2.73199
-2.53819
-2.34502
-2.15666
-1.97452
-1.79698
-1.62326
-1.44996
-1.27464
-1.09467
-0.909135
-0.716562
-0.517899
-0.314481
-0.107119
-3.11936
-3.05645
-2.95288
-2.81568
-2.65464
-2.47977
-2.29913
-2.1182
-1.93996
-1.7644
-1.59182
-1.41978
-1.2462
-1.06859
-0.885756
-0.696157
-0.500876
-0.302073
-0.101837
-2.79239
-2.76697
-2.69992
-2.59971
-2.47382
-2.33026
-2.17623
-2.01725
-1.85702
-1.69644
-1.53658
-1.37574
-1.21224
-1.04366
-0.868424
-0.684504
-0.492635
-0.295792
-0.0984923
-2.43647
-2.44085
-2.4068
-2.3415
-2.25086
-2.14111
-2.01821
-1.88721
-1.75185
-1.61343
-1.47331
-1.33026
-1.18281
-1.0286
-0.865469
-0.690215
-0.501821
-0.302468
-0.0994391
-2.07
-2.09428
-2.08808
-2.05491
-1.99855
-1.9235
-1.83445
-1.73566
-1.63056
-1.52037
-1.40631
-1.28723
-1.16174
-1.02758
-0.882217
-0.721051
-0.539591
-0.334865
-0.111349
-1.66818
-1.70324
-1.7201
-1.71759
-1.69665
-1.6596
-1.60963
-1.54984
-1.48298
-1.40975
-1.33055
-1.24391
-1.14813
-1.04127
-0.921246
-0.783311
-0.619733
-0.41828
-0.163309
-1.21842
-1.20512
-1.17764
-1.13665
-1.08603
-1.03084
-0.976748
-0.928113
-0.887722
-0.855464
-0.828457
-0.801832
-0.770103
-0.728513
-0.673449
-0.600922
-0.504273
-0.368626
-0.165322
-0.816017
-0.916433
-1.03615
-1.16141
-1.28221
-1.39087
-1.48329
-1.55702
-1.61142
-1.64589
-1.65833
-1.64714
-1.6104
-1.54947
-1.46757
-1.36841
-1.2511
-1.10656
-0.908431
-0.278964
-0.333158
-0.407005
-0.492041
-0.582092
-0.672644
-0.76194
-0.848914
-0.933529
-1.0147
-1.0876
-1.14701
-1.18489
-1.19683
-1.18249
-1.14858
-1.10158
-1.04955
-0.994936
0.259796
0.190744
0.0942472
-0.0213224
-0.148361
-0.280931
-0.415762
-0.551188
-0.686918
-0.82213
-0.952065
-1.06998
-1.16488
-1.22783
-1.25461
-1.25105
-1.22599
-1.19103
-1.15182
0.800513
0.707764
0.580803
0.429657
0.263271
0.0887575
-0.0895903
-0.269956
-0.452392
-0.637103
-0.820697
-0.996219
-1.15058
-1.26959
-1.34269
-1.37169
-1.36628
-1.34198
-1.30829
1.29438
1.16667
1.00203
0.812886
0.608975
0.397942
0.184164
-0.0311251
-0.249099
-0.471876
-0.698702
-0.924492
-1.13604
-1.31464
-1.44117
-1.50911
-1.52513
-1.50855
-1.47543
1.81423
1.64519
1.43934
1.21012
0.967937
0.720947
0.473453
0.226095
-0.0234217
-0.279277
-0.543975
-0.816328
-1.0861
-1.333
-1.52914
-1.65472
-1.70556
-1.70077
-1.66554
2.21776
2.00021
1.75161
1.48578
1.21344
0.94218
0.675181
0.411726
0.148059
-0.122153
-0.404859
-0.704302
-1.01692
-1.32683
-1.602
-1.80787
-1.91822
-1.93872
-1.89857
2.60732
2.34687
2.05651
1.75549
1.4554
1.16306
0.880424
0.605653
0.334117
0.0582682
-0.230151
-0.540563
-0.878369
-1.23923
-1.59786
-1.91401
-2.13379
-2.22735
-2.20685
2.98192
2.66615
2.33084
1.99601
1.67201
1.36374
1.07145
0.792192
0.521021
0.250322
-0.0284333
-0.32711
-0.658408
-1.0329
-1.44483
-1.87177
-2.25076
-2.50743
-2.56609
3.24663
2.84682
2.44254
2.05159
1.68108
1.33299
1.00543
0.694409
0.39487
0.0999313
-0.197831
-0.50937
-0.849161
-1.23727
-1.69076
-2.22574
-2.82172
-3.42533
-3.93216
3.43536
2.99324
2.57822
2.20201
1.86484
1.56368
1.2931
1.04779
0.822596
0.612603
0.414137
0.222586
0.0326683
-0.16457
-0.38346
-0.652813
-1.00501
-1.47849
-2.09512
3.59531
3.13249
2.72716
2.37566
2.06955
1.80137
1.56336
1.3496
1.15519
0.975981
0.809913
0.655314
0.511667
0.379485
0.260526
0.154458
0.058969
-0.0372988
-0.156497
3.4546
2.92391
2.47815
2.10017
1.77573
1.49444
1.24718
1.02729
0.829616
0.649842
0.485924
0.336247
0.200212
0.078361
-0.0270736
-0.113707
-0.17753
-0.214661
-0.223227
3.07483
2.5812
2.17524
1.83688
1.55092
1.3063
1.09402
0.90752
0.74198
0.593528
0.4602
0.340487
0.233465
0.138811
0.0568216
-0.0127687
-0.0700997
-0.115634
-0.150471
2.58638
2.164
1.81799
1.53172
1.29188
1.08845
0.913421
0.760912
0.626664
0.507266
0.400783
0.30569
0.220729
0.145048
0.0782156
0.0194356
-0.0318501
-0.076012
-0.113767
1.96692
1.63697
1.37026
1.1522
0.971409
0.819376
0.689586
0.577233
0.478915
0.391902
0.314539
0.245523
0.183675
0.128161
0.0785015
0.0340616
-0.00552249
-0.0403116
-0.0706374
1.24759
1.02698
0.853925
0.715162
0.601574
0.506869
0.426526
0.35729
0.296906
0.243581
0.196184
0.153832
0.115701
0.0811947
0.049962
0.0215959
-0.0041091
-0.0270846
-0.0474122
0.481569
0.393875
0.327363
0.274707
0.231719
0.195797
0.165196
0.138696
0.115461
0.0948318
0.0763751
0.0597521
0.0446383
0.0307891
0.0180421
0.00621838
-0.00479155
-0.0149805
-0.0243721
-0.481337
-0.393379
-0.326701
-0.273949
-0.230912
-0.194976
-0.164387
-0.13792
-0.114733
-0.0941644
-0.0757785
-0.0592343
-0.0442059
-0.0304478
-0.0177958
-0.00607036
0.00483932
0.0149282
0.0242213
-1.24738
-1.02655
-0.853359
-0.714518
-0.600896
-0.50619
-0.425868
-0.356675
-0.296348
-0.243092
-0.195772
-0.153506
-0.115466
-0.0810557
-0.0499212
-0.0216547
0.00395049
0.0268287
0.0470636
-1.96672
-1.63657
-1.36972
-1.15157
-0.970729
-0.818675
-0.688888
-0.576558
-0.478279
-0.391317
-0.314015
-0.245065
-0.183289
-0.127846
-0.0782559
-0.0338813
0.00564394
0.0403823
0.0706661
-2.58624
-2.16375
-1.81766
-1.53133
-1.29147
-1.08803
-0.913024
-0.76055
-0.626353
-0.507018
-0.400607
-0.305592
-0.22071
-0.145107
-0.0783468
-0.0196298
0.0316042
0.0757262
0.113454
-3.07476
-2.58107
-2.17505
-1.83665
-1.55066
-1.30603
-1.09376
-0.907295
-0.741801
-0.593408
-0.46015
-0.340516
-0.233577
-0.139004
-0.0570856
0.0124509
0.069753
0.11529
0.150164
-3.45464
-2.92394
-2.47814
-2.10012
-1.77566
-1.49436
-1.24711
-1.02726
-0.829647
-0.649953
-0.486135
-0.336578
-0.200678
-0.078974
0.0263187
0.112839
0.176622
0.213835
0.222623
-3.59536
-3.13226
-2.72656
-2.37462
-2.06806
-1.79942
-1.56098
-1.3468
-1.152
-0.97243
-0.806022
-0.651099
-0.507139
-0.374652
-0.255425
-0.149228
-0.0539575
0.0413456
0.158335
-3.43604
-2.99501
-2.58114
-2.20609
-1.87006
-1.57001
-1.30052
-1.05627
-0.832128
-0.623198
-0.425843
-0.235506
-0.0469994
0.148474
0.365054
0.631314
0.979616
1.44878
2.06166
-3.24641
-2.84617
-2.44138
-2.04986
-1.67878
-1.33013
-1.00204
-0.690531
-0.39056
-0.0952507
0.202806
0.514547
0.854427
1.24252
1.696
2.23125
2.82833
3.4345
3.94587
-2.98216
-2.66672
-2.33167
-1.99706
-1.67324
-1.3651
-1.07293
-0.793766
-0.522692
-0.252104
0.0265116
0.325014
0.656124
1.0305
1.44256
1.87009
2.25026
2.50846
2.5682
-2.60748
-2.34723
-2.05703
-1.75615
-1.45616
-1.16389
-0.881323
-0.606612
-0.335142
-0.0593705
0.228959
0.539288
0.877074
1.23807
1.59713
1.91401
2.1347
2.22903
2.20894
-2.21791
-2.00056
-1.75212
-1.48644
-1.2142
-0.943021
-0.676083
-0.412676
-0.149052
0.121123
0.403807
0.703276
1.01602
1.32623
1.60189
1.80837
1.91929
1.94014
1.90009
-1.81437
-1.64553
-1.43985
-1.21077
-0.968703
-0.721797
-0.47436
-0.22704
0.0224582
0.278317
0.543056
0.815518
1.0855
1.33275
1.52933
1.65535
1.70653
1.70192
1.66677
-1.2945
-1.16697
-1.0025
-0.813493
-0.609692
-0.398736
-0.185005
0.0302636
0.248244
0.471061
0.697973
0.92392
1.13571
1.31463
1.44151
1.50976
1.526
1.50955
1.47651
-0.800639
-0.708069
-0.581277
-0.430275
-0.264001
-0.0895624
0.0887459
0.269107
0.451574
0.636357
0.820074
0.995783
1.15039
1.26969
1.34307
1.37232
1.36708
1.34289
1.30931
-0.2599
-0.191024
-0.0946948
0.0207323
0.147663
0.280164
0.414965
0.550404
0.686185
0.821495
0.951575
1.06968
1.16482
1.22802
1.25504
1.25168
1.22678
1.19195
1.15288
0.27873
0.332444
0.405772
0.490295
0.579879
0.670043
0.759054
0.845856
0.930421
1.01166
1.08474
1.14443
1.18266
1.19497
1.18101
1.14747
1.10087
1.04936
0.995568
0.816188
0.917082
1.03742
1.16338
1.28491
1.39427
1.48732
1.56157
1.61635
1.65108
1.66365
1.65248
1.61566
1.55461
1.47254
1.37321
1.25572
1.11099
0.912599
1.21825
1.2045
1.17655
1.1351
1.08408
1.02858
0.97429
0.925561
0.885175
0.853011
0.826166
0.799751
0.768261
0.726922
0.672107
0.599825
0.503418
0.368028
0.165051
1.66829
1.70346
1.72043
1.71802
1.69716
1.66017
1.61021
1.55041
1.4835
1.41021
1.33094
1.24423
1.14837
1.04144
0.921355
0.783365
0.619738
0.418253
0.163286
2.07003
2.09432
2.08813
2.05497
1.99862
1.92358
1.83453
1.73574
1.63063
1.52043
1.40635
1.28726
1.16175
1.02757
0.882201
0.721024
0.539559
0.334838
0.11134
2.4365
2.44089
2.40685
2.34156
2.25093
2.14117
2.01827
1.88726
1.7519
1.61346
1.47334
1.33027
1.18281
1.02859
0.865453
0.690194
0.501802
0.302454
0.0994355
2.79241
2.767
2.69996
2.59975
2.47387
2.33031
2.17627
2.01729
1.85705
1.69646
1.53659
1.37575
1.21224
1.04364
0.868408
0.684489
0.492622
0.295784
0.0984901
3.11939
3.05649
2.95292
2.81572
2.65468
2.47981
2.29917
2.11822
1.93998
1.76441
1.59183
1.41977
1.2462
1.06858
0.885743
0.696145
0.500867
0.302068
0.101835
3.31537
3.22315
3.08695
2.91872
2.73202
2.53822
2.34504
2.15668
1.97453
1.79699
1.62326
1.44995
1.27463
1.09466
0.909123
0.716551
0.517892
0.314477
0.107118
3.5491
3.42108
3.24304
3.03721
2.821
2.60645
2.40027
2.20488
2.0197
1.8413
1.66761
1.4942
1.31809
1.13631
0.947853
0.750916
0.546068
0.333982
0.114774
3.75269
3.56806
3.34198
3.0997
2.85961
2.63244
2.42242
2.22907
2.04919
1.87719
1.70965
1.54101
1.36778
1.1866
0.996304
0.794691
0.582065
0.358712
0.124393
3.86618
3.62121
3.35077
3.08112
2.82982
2.60408
2.4039
2.22492
2.06083
1.90382
1.74922
1.59049
1.42379
1.24544
1.05423
0.847614
0.625806
0.388859
0.136221
3.89087
3.58925
3.28201
2.99781
2.75046
2.54103
2.36376
2.20985
2.06993
1.93418
1.79708
1.65137
1.49305
1.31827
1.12589
0.913047
0.679915
0.426277
0.151031
3.88141
3.51762
3.18085
2.89511
2.66508
2.48326
2.33732
2.21428
2.1022
1.98974
1.87104
1.73836
1.58772
1.41515
1.21959
0.997737
0.749628
0.474501
0.170255
3.79188
3.37164
3.02664
2.76204
2.56872
2.42952
2.32553
2.24048
2.16074
2.07415
1.97517
1.85583
1.71239
1.54079
1.34004
1.10619
0.838942
0.536582
0.195391
3.42395
3.00782
2.70784
2.51067
2.3917
2.3242
2.28382
2.2527
2.21693
2.16468
2.09152
1.98981
1.85642
1.68737
1.4819
1.2353
0.946661
0.612808
0.227292
3.0591
2.67972
2.45251
2.34192
2.30647
2.31239
2.33285
2.35082
2.35358
2.33035
2.27815
2.18972
2.06231
1.89175
1.67704
1.41208
1.09445
0.718299
0.272308
2.6072
2.31233
2.2057
2.21238
2.27669
2.36345
2.44766
2.51553
2.55684
2.56254
2.53112
2.45589
2.33419
2.16126
1.93533
1.64806
1.29426
0.863563
0.336724
1.85061
1.78025
1.8758
2.04513
2.23539
2.41934
2.579
2.70588
2.79346
2.83518
2.83076
2.77464
2.66391
2.49307
2.25885
1.94992
1.55639
1.06071
0.43024
1.1193
1.36311
1.68501
2.01598
2.32426
2.59675
2.82547
3.00728
3.13943
3.21795
3.2427
3.20957
3.11441
2.95018
2.71062
2.3797
1.939
1.35842
0.581487
0.421874
1.02343
1.57657
2.06483
2.48789
2.84812
3.14852
3.39032
3.57454
3.7
3.76559
3.76939
3.70497
3.5631
3.33246
2.99001
2.50271
1.81882
0.840478
-0.101753
0.824633
1.57817
2.20422
2.73312
3.17889
3.55463
3.86433
4.11262
4.30167
4.42833
4.49406
4.48931
4.40207
4.21343
3.88993
3.37422
2.57698
1.3282
-0.353586
0.783345
1.68175
2.41986
3.04515
3.5761
4.03389
4.42398
4.75495
5.03366
5.25474
5.42522
5.53285
5.56376
5.48933
5.26229
4.78731
3.91134
2.342
-0.313386
0.88293
1.86383
2.68838
3.40153
4.01863
4.56686
5.05315
5.49138
5.89597
6.26138
6.60439
6.9149
7.18321
7.37362
7.42761
7.19926
6.43725
4.65433
-0.056501
1.07699
2.0914
2.98262
3.77624
4.47985
5.12534
5.72366
6.29613
6.87119
7.44842
8.06267
8.72285
9.44468
10.2055
10.9691
11.5553
11.6021
10.3459
0.257137
1.2931
2.32617
3.27649
4.1444
4.93207
5.67538
6.39694
7.12587
7.91932
8.79028
9.80722
11.0539
12.6578
14.7742
17.8055
22.3809
29.8625
43.0661
)
;

boundaryField
{
    up
    {
        type            calculated;
        value           nonuniform List<scalar> 
84
(
-43.0661
-10.3459
-4.65433
-2.342
-1.32821
-0.840479
-0.581488
-0.43024
-0.336723
-0.272307
-0.227291
-0.195391
-0.170254
-0.151031
-0.136221
-0.124393
-0.114775
-0.107119
-0.101837
-0.0984923
-0.0994391
-0.111349
-0.163309
-0.165322
-0.782021
-0.939056
-1.10012
-1.25515
-1.41784
-1.60018
-1.81771
-2.08483
-2.37813
-3.92782
-2.17879
-0.16113
-0.223336
-0.150403
-0.113717
-0.0706275
-0.0474146
-0.0243838
0.024233
0.0470662
0.0706565
0.113404
0.150096
0.222729
0.162912
2.14418
3.94424
2.37998
2.08665
1.81915
1.60138
1.41891
1.25618
1.10121
0.940081
0.785846
0.165051
0.163286
0.11134
0.0994355
0.0984901
0.101835
0.107118
0.114774
0.124393
0.136221
0.151031
0.170255
0.195391
0.227292
0.272308
0.336724
0.43024
0.581487
0.840478
1.3282
2.342
4.65433
10.3459
43.0661
)
;
    }
    low
    {
        type            calculated;
        value           nonuniform List<scalar> 
84
(
-0.232188
0.0935304
0.373753
0.419835
0.143757
-0.429687
-1.18409
-1.95987
-2.73331
-3.16127
-3.51135
-3.85834
-3.90218
-3.88276
-3.83939
-3.70055
-3.4763
-3.23775
-3.0301
-2.68222
-2.31793
-1.95222
-1.55583
-1.12159
-0.741574
-0.252289
0.229354
0.72394
1.19406
1.71037
2.12804
2.5298
2.92437
3.21742
3.42996
3.61932
3.51162
3.14076
2.64798
2.01766
1.28199
0.496157
-0.495924
-1.28177
-2.01744
-2.64782
-3.14065
-3.51161
-3.61931
-3.43053
-3.21721
-2.92457
-2.52994
-2.12819
-1.71051
-1.19418
-0.724071
-0.22946
0.252061
0.741742
1.12143
1.55593
1.95226
2.31796
2.68225
3.03013
3.23777
3.47631
3.70057
3.8394
3.88277
3.90219
3.85833
3.51137
3.1613
2.73334
1.9599
1.18411
0.429702
-0.143749
-0.419835
-0.373758
-0.093533
0.232188
)
;
    }
    left
    {
        type            calculated;
        value           nonuniform List<scalar> 
19
(
-0.227759
-1.24
-2.29295
-3.27498
-4.17929
-5.00315
-5.78563
-6.55334
-7.33546
-8.20507
-9.17413
-10.3212
-11.7576
-13.6573
-16.2171
-20.0056
-25.8961
-35.7909
-37.3544
)
;
    }
    right
    {
        type            calculated;
        value           nonuniform List<scalar> 
19
(
0.22776
1.24
2.29295
3.27498
4.17929
5.00315
5.78563
6.55334
7.33546
8.20507
9.17412
10.3211
11.7576
13.6573
16.217
20.0056
25.8961
35.7909
37.3544
)
;
    }
    frontAndBackPlanes
    {
        type            empty;
    }
}


// ************************************************************************* //
