/*--------------------------------*- C++ -*----------------------------------*\
  =========                 |
  \\      /  F ield         | OpenFOAM: The Open Source CFD Toolbox
   \\    /   O peration     | Website:  https://openfoam.org
    \\  /    A nd           | Version:  7
     \\/     M anipulation  |
\*---------------------------------------------------------------------------*/
FoamFile
{
    version     2.0;
    format      ascii;
    class       volScalarField;
    location    "0.024";
    object      gradTz;
}
// * * * * * * * * * * * * * * * * * * * * * * * * * * * * * * * * * * * * * //

dimensions      [0 -1 0 1 0 0 0];

internalField   nonuniform List<scalar> 
1596
(
-3.22301e-16
-1.38467e-16
1.59945e-16
1.9937e-17
-2.67102e-16
0
-1.06037e-16
-1.05312e-16
-2.63708e-17
-6.45496e-17
5.61804e-20
-6.58645e-17
3.22636e-16
-6.84267e-17
3.03749e-16
2.71124e-16
1.63846e-16
2.2311e-16
0
3.01703e-16
0
3.20941e-16
-8.6268e-18
-6.80908e-17
7.03751e-17
1.93601e-16
2.41947e-17
8.38873e-17
-4.20736e-17
8.51926e-17
3.1733e-19
-1.14624e-16
-7.29182e-17
-2.41903e-16
-2.45869e-16
-2.32501e-16
1.41841e-16
0
-1.24053e-16
0
-1.67766e-16
1.2285e-17
1.04517e-16
-5.51184e-17
1.21062e-17
-2.8262e-19
-7.81341e-20
6.60221e-20
1.27541e-17
0
5.91535e-17
1.46078e-16
-1.46498e-17
1.48911e-17
3.22643e-17
7.04678e-17
0
2.28247e-16
-4.0044e-17
3.98978e-17
0
-2.97505e-17
-3.41203e-17
3.87323e-17
-1.90917e-17
0
0
-2.6156e-17
6.77786e-18
0
-3.62701e-17
-3.27547e-17
2.65338e-17
-4.75921e-17
-2.22291e-18
0
4.33998e-17
7.31279e-17
-3.66757e-17
0
-4.8874e-18
-1.8284e-17
0
2.28598e-17
-1.62296e-18
-1.5723e-18
-1.07852e-17
7.86927e-18
1.18997e-17
1.97065e-18
1.11746e-17
-2.84798e-17
1.22362e-18
1.38287e-17
-8.27694e-18
-1.12702e-17
-9.52217e-17
5.86164e-17
-3.18298e-17
-3.21189e-19
-1.00811e-17
2.18123e-19
-2.18847e-19
-4.23569e-18
0
-5.37486e-18
-9.86595e-18
-1.04588e-17
5.04744e-18
1.25098e-17
-1.32062e-19
-6.97857e-18
-1.40263e-17
1.27131e-17
9.41873e-17
-1.02052e-16
7.18412e-17
2.10641e-17
0
8.25294e-18
2.77645e-18
-1.05362e-18
5.02746e-18
-6.62753e-19
-4.53727e-18
-9.29029e-21
-1.56634e-18
-5.03465e-18
-2.32519e-18
2.65956e-18
7.04e-18
-1.11308e-19
-4.23385e-18
2.98698e-17
1.74179e-16
-1.28779e-16
0
0
-8.98055e-18
0
0
0
8.71678e-19
0
0
1.64727e-18
-2.14872e-20
1.57661e-18
-2.48757e-18
0
1.3234e-18
9.38623e-19
0
-9.38186e-17
1.61077e-16
0
0
9.24872e-18
0
-7.49146e-19
7.48389e-19
-8.87242e-19
2.23065e-19
-2.24697e-19
0
3.05897e-19
9.09269e-19
0
-4.5037e-19
-1.34051e-18
-8.75579e-19
3.61725e-16
-1.49234e-16
0
-3.22051e-17
3.18446e-17
0
4.94279e-18
0
0
0
1.05444e-19
-1.0595e-19
0
-2.60863e-19
-4.25176e-20
0
2.87834e-19
1.75474e-19
0
-9.17935e-17
0
0
3.42351e-17
-5.12442e-17
9.01778e-18
3.26705e-18
-7.72558e-19
4.51049e-19
7.64168e-20
-1.3389e-19
-7.79199e-20
0
4.09166e-20
-1.52166e-20
1.5445e-20
1.38926e-19
-1.55208e-19
-5.25235e-20
3.61151e-17
-2.68954e-17
4.07135e-17
8.33296e-17
-1.68824e-17
-1.83441e-17
0
0
0
3.70224e-19
5.24637e-20
1.07937e-19
-2.40872e-20
-4.01846e-20
-8.9815e-21
-1.03284e-20
5.38793e-21
-1.83711e-20
4.73054e-20
-6.57324e-17
6.88757e-17
-1.02949e-16
-8.30976e-17
6.09728e-17
9.09394e-18
-1.30286e-17
5.72652e-18
-2.37161e-18
5.4381e-19
1.2916e-19
-3.89251e-20
1.56887e-21
-4.65176e-21
1.82845e-20
0
-1.72511e-21
2.27769e-20
-4.2965e-21
-5.49084e-16
2.14828e-16
-2.26303e-19
-1.2745e-17
1.03705e-17
8.93817e-18
-1.43224e-17
-2.35951e-18
9.50381e-19
-3.62328e-19
-1.3368e-19
0
-3.09379e-20
-6.36481e-21
-3.66356e-21
-1.48262e-21
4.35581e-23
-5.3869e-21
2.95548e-21
8.93367e-17
-6.07833e-17
-5.99394e-19
-2.242e-17
-2.93226e-17
2.31571e-17
2.18448e-19
2.29934e-18
-9.25322e-19
6.84655e-19
8.70333e-20
4.2681e-20
3.17213e-20
0
5.6143e-21
1.66136e-21
0
1.25858e-21
8.14531e-22
0
5.89668e-17
2.09441e-17
-5.67527e-17
2.77179e-17
-2.95862e-17
1.27249e-17
1.4391e-18
-8.58171e-19
-8.79109e-19
3.77024e-20
-3.75164e-20
-2.68552e-20
4.20558e-21
-1.33438e-21
-1.37931e-21
2.28148e-22
-1.27299e-22
2.93601e-22
-8.21073e-17
1.80317e-16
-1.42837e-16
3.72225e-17
0
0
-1.02324e-18
2.99067e-18
-4.80518e-19
7.13526e-19
0
0
1.55908e-20
-7.67167e-21
-1.49226e-21
4.12953e-22
-1.90643e-22
9.29836e-23
0
2.52656e-17
7.72152e-17
-3.19155e-17
-1.90352e-17
-1.29654e-17
2.92994e-18
3.94718e-18
0
-3.90608e-19
-3.18587e-20
6.56776e-20
-2.21493e-20
7.29423e-21
0
7.46751e-22
5.4895e-22
0
0
0
-2.51024e-17
5.36141e-17
-4.01683e-18
-5.99487e-17
7.25939e-18
3.76097e-18
0
0
3.07268e-19
-1.93343e-19
-6.35245e-20
2.14224e-20
-7.05407e-21
0
-2.03617e-22
1.27164e-22
0
-1.81168e-23
-5.13262e-24
-4.59346e-17
1.40476e-16
-1.22113e-16
-2.02053e-17
1.29659e-17
-2.66278e-18
1.08248e-18
0
-1.49748e-19
6.86112e-20
0
0
1.349e-21
-1.35055e-21
6.60095e-23
-1.2337e-22
3.26463e-23
8.0168e-24
3.90571e-24
3.2967e-17
-2.03342e-17
5.86422e-17
-3.43738e-17
-4.9825e-18
1.39324e-18
2.98356e-18
3.021e-19
1.43286e-19
0
8.91059e-21
-8.13691e-21
2.57846e-21
-8.66047e-22
1.99025e-22
-1.71887e-22
-2.09812e-23
1.21162e-23
1.4843e-24
6.92431e-17
-7.96312e-17
0
1.42388e-17
-9.33331e-18
-1.99445e-18
1.47973e-19
-1.21204e-18
0
-4.78531e-21
-1.81175e-20
-3.42264e-21
1.57168e-21
-3.34373e-22
-1.92354e-22
5.82355e-23
0
3.04079e-24
-1.44125e-24
1.69382e-16
-1.69982e-17
3.47056e-17
-2.58711e-17
3.21992e-18
-2.33603e-18
-1.81745e-18
-1.11559e-19
1.4732e-19
-1.40765e-20
-7.60333e-21
4.44608e-21
-1.01786e-21
-2.84137e-22
0
0
0
-3.0349e-24
7.86619e-26
-1.13918e-16
1.01829e-16
-3.76894e-19
3.36e-18
1.49946e-18
-1.22548e-18
8.75732e-19
-2.90621e-19
1.00442e-19
-6.41126e-21
1.04513e-20
7.37553e-22
-1.35268e-22
2.25411e-24
3.9636e-24
-4.86402e-24
0
0
0
0
0
1.44365e-17
-1.67096e-17
-1.09031e-17
0
0
-5.09665e-20
-3.486e-20
9.25658e-21
0
-9.30189e-22
2.72527e-22
-2.62331e-22
2.44812e-22
-1.75728e-23
1.84255e-23
7.52609e-25
0
-2.12576e-17
2.15192e-17
0
-3.70021e-18
2.4248e-18
1.90709e-18
0
5.14532e-20
6.98384e-21
-5.97144e-20
0
-7.887e-22
2.3603e-22
7.65446e-23
-2.40736e-23
1.62495e-23
0
-1.87265e-24
0
-1.10662e-17
-6.31977e-18
4.02962e-19
3.80187e-18
-4.74758e-18
0
-2.22142e-19
0
7.59159e-20
9.75152e-21
0
2.67562e-21
-1.59079e-21
2.18097e-22
1.22355e-23
3.70966e-23
2.64385e-23
4.17769e-24
-3.33452e-24
0
1.8157e-17
-7.26226e-18
8.19813e-18
3.18753e-18
0
4.07667e-19
-2.83372e-19
-4.44072e-20
1.78591e-20
-2.36656e-20
-2.21169e-21
0
0
2.36488e-23
0
0
1.91904e-24
0
-1.04811e-16
8.49727e-17
0
2.05221e-18
-1.03297e-18
-4.50749e-20
5.25313e-19
2.97228e-20
-1.51902e-19
-7.31528e-20
3.08046e-20
-7.53764e-21
0
-1.22343e-22
0
0
0
-7.87083e-24
6.42971e-24
-3.53097e-17
2.28798e-17
3.49817e-17
-2.77798e-17
4.49891e-18
7.60185e-19
-5.19826e-19
1.87828e-19
1.26137e-19
3.22511e-20
-5.6304e-20
0
1.13694e-21
-8.76263e-22
-1.51724e-22
5.81276e-23
-3.92605e-23
-9.71986e-24
3.94809e-24
-1.40719e-16
1.10037e-16
-9.97015e-17
9.48353e-18
4.15197e-18
-2.97708e-18
1.45303e-18
-3.84273e-19
0
-7.00433e-20
2.48636e-20
8.48704e-21
5.35917e-21
7.3618e-22
-8.36333e-22
-2.91184e-23
0
6.87893e-24
-4.81097e-24
-1.51474e-16
-2.86158e-17
-2.92941e-17
1.94e-17
-1.18146e-17
5.48147e-18
-2.42478e-18
7.5416e-19
-1.52955e-19
-9.95916e-20
-4.81237e-20
4.07778e-20
1.82545e-21
3.07566e-21
-3.30175e-21
-2.20727e-22
6.70604e-24
0
2.92477e-23
1.63776e-16
-3.30315e-17
0
0
-1.27126e-17
2.00997e-17
-3.0528e-18
-1.71654e-19
8.33433e-19
-6.07996e-20
0
0
-8.42411e-21
0
-3.97688e-21
4.99583e-21
-2.25648e-21
0
-2.77386e-23
4.9286e-17
7.20562e-17
0
-1.65442e-17
-5.95951e-18
-6.18095e-19
-3.27167e-18
5.47253e-19
-1.09321e-18
-1.64971e-19
0
0
4.83621e-20
0
0
-8.74389e-21
1.82056e-20
0
0
3.41076e-16
-6.91847e-17
-1.43663e-16
-3.98328e-17
5.6596e-17
9.17379e-18
3.17229e-18
0
-3.70366e-19
2.06541e-19
3.82067e-19
-9.3172e-20
-4.24381e-20
4.17577e-20
-4.44174e-20
-4.50164e-21
0
0
0
2.72271e-17
-1.57579e-16
1.50082e-16
-9.44441e-18
-4.38202e-17
5.67641e-17
-2.23536e-17
0
0
1.86408e-18
-1.25916e-18
0
-7.94509e-20
1.58526e-19
-3.55779e-21
2.14163e-20
4.39077e-21
1.43262e-22
5.77311e-22
0
0
0
7.37401e-17
-5.13115e-17
2.42409e-17
-3.35498e-17
7.03837e-18
0
-7.5631e-19
6.10103e-19
-6.23561e-19
-5.09618e-20
7.71676e-21
-1.46198e-20
-9.71024e-22
-8.62159e-21
-2.32499e-21
-1.08951e-21
2.10671e-16
-3.38704e-16
1.4247e-16
0
1.46649e-17
-2.11243e-17
9.98073e-18
-7.66256e-18
0
-9.26529e-19
1.36837e-18
0
0
8.54789e-21
0
-1.77444e-20
1.10697e-20
4.5387e-22
1.90843e-21
2.43342e-16
0
-5.09824e-17
5.61133e-17
-1.85928e-17
3.5736e-17
-1.37028e-17
-4.77199e-18
4.82183e-18
-2.56782e-19
0
0
4.70306e-20
-4.60744e-20
-2.30717e-20
3.93644e-20
-7.48837e-21
2.60936e-21
0
1.36856e-16
7.37773e-17
-1.77211e-17
-5.44468e-17
-3.45218e-18
-1.53665e-17
5.67474e-18
8.70542e-18
-2.41547e-19
2.61604e-19
0
0
-4.81797e-20
0
2.82945e-20
-3.02683e-20
0
2.69793e-21
-6.95269e-22
-7.23548e-17
-3.7168e-17
3.50805e-17
-2.66999e-18
-8.88223e-19
1.69553e-18
0
-2.12686e-19
1.80605e-18
-1.51071e-18
0
1.50502e-19
-6.80842e-20
-9.24797e-20
-5.34504e-21
-3.32666e-21
0
-2.15617e-21
0
2.52568e-17
-4.37945e-17
3.40254e-18
1.31685e-17
6.74082e-18
-6.45537e-18
-2.27271e-18
2.51559e-18
-3.98794e-19
3.33174e-19
-1.35123e-19
1.39291e-19
0
1.39913e-22
-3.38155e-21
1.27064e-20
-3.42859e-23
0
0
2.52578e-17
-2.51632e-17
-1.3093e-17
1.18239e-17
1.16984e-17
-1.17675e-17
-1.13648e-18
1.14085e-18
-4.02841e-19
4.06752e-19
-1.35146e-19
2.18114e-19
-5.86343e-20
-2.45584e-20
-4.26439e-21
1.98688e-21
2.81019e-21
6.24414e-22
-4.57561e-22
0
-5.39656e-18
2.23352e-17
-2.4886e-17
1.15985e-17
-1.05342e-17
0
2.66829e-18
-2.45828e-18
0
2.60112e-19
-3.14746e-19
-8.82945e-20
9.25383e-20
9.85201e-21
0
0
-2.1587e-21
7.4999e-22
1.00305e-16
-1.68242e-16
1.36811e-16
-9.21732e-17
3.15993e-17
-1.31858e-17
1.298e-17
7.93008e-19
-1.72145e-18
1.49919e-18
0
-3.1311e-19
2.85071e-19
-2.80317e-20
-9.65004e-21
1.01852e-20
6.24056e-21
2.09569e-21
-7.24661e-22
2.71761e-16
0
-5.85942e-17
4.58509e-17
3.41333e-18
-1.58319e-17
2.32167e-17
-1.38013e-17
4.40347e-18
-7.63402e-19
7.81409e-19
8.24862e-20
8.14138e-20
2.73032e-20
-1.34953e-20
-3.04611e-21
-1.35213e-20
0
8.74476e-22
1.82641e-16
-2.05722e-16
0
1.014e-17
2.7543e-17
-2.51152e-17
2.35951e-18
1.35532e-18
4.13068e-19
4.13771e-19
0
0
-1.23451e-19
1.76255e-19
-5.21935e-20
-1.01338e-20
1.10949e-20
6.57888e-22
-1.57071e-21
5.78705e-17
1.82425e-16
-1.44755e-17
-6.41106e-17
5.74939e-17
3.89966e-18
-2.30921e-18
-1.32374e-18
2.15401e-18
-2.57337e-18
6.11175e-19
-6.24649e-19
2.24164e-20
-6.21006e-20
4.02212e-20
-2.70666e-20
0
0
7.18431e-22
0
4.02261e-17
-7.99457e-17
9.35044e-17
-3.7872e-17
3.77818e-17
0
3.48624e-18
-3.50221e-18
-9.61464e-19
1.26224e-18
0
1.28684e-19
-1.5899e-19
-1.39623e-20
0
-6.03641e-22
-5.18107e-22
-3.33981e-22
-4.71639e-16
1.99856e-16
0
-5.66276e-17
5.66219e-17
1.57375e-17
-9.9471e-18
1.65678e-18
0
-2.3071e-20
1.61053e-20
-9.3341e-20
-4.25564e-20
4.18785e-20
-4.45307e-20
0
2.12392e-21
4.37285e-22
-3.78427e-22
2.68061e-16
-2.43614e-16
0
1.50824e-17
8.85797e-18
-5.92775e-18
0
-1.73632e-18
-6.03887e-19
0
-8.89803e-20
0
4.85822e-20
0
0
1.80812e-21
3.71994e-21
-6.31651e-21
0
-3.25767e-19
3.30547e-17
-2.08439e-17
6.69403e-18
-4.06581e-17
1.16995e-17
0
1.72181e-19
3.78495e-19
0
-1.13071e-19
8.47184e-20
-8.90016e-20
3.01149e-21
0
-1.3454e-21
0
0
0
-3.10652e-19
0
1.9265e-17
0
-8.77219e-18
8.91164e-18
0
5.05742e-19
-1.71848e-19
3.84297e-19
-1.36519e-19
9.28643e-21
-5.88332e-21
3.67464e-22
-3.32563e-21
-2.28044e-22
0
4.45426e-23
0
8.96858e-17
-1.54911e-16
0
-8.35335e-18
4.13324e-18
0
0
-7.77483e-19
0
-7.0331e-20
-2.49832e-20
-8.53509e-21
5.39406e-21
0
4.85916e-23
0
0
-5.77165e-23
2.92763e-23
0
9.72899e-17
-7.43217e-17
7.73329e-18
-3.82741e-18
-5.26587e-19
1.05613e-18
4.75698e-19
-1.78052e-19
5.27156e-20
1.16648e-20
-1.98047e-21
6.36836e-21
-1.14669e-21
-2.35997e-22
-5.14707e-24
2.20914e-24
-6.93956e-24
-1.56289e-24
-2.56385e-16
8.57254e-17
0
0
9.072e-19
-9.2252e-19
-7.48337e-21
-1.04917e-19
9.7029e-20
1.61433e-20
-1.1682e-20
-1.40092e-21
-3.29047e-22
1.22201e-22
0
5.79353e-24
-2.02483e-24
2.17545e-24
1.41263e-24
0
5.10604e-17
-3.11583e-17
7.37542e-18
2.17272e-18
-3.45881e-19
-3.17854e-19
-1.06805e-19
-1.11144e-19
1.25143e-20
5.08239e-22
3.57164e-21
3.07699e-22
-8.42712e-23
8.94487e-23
1.84153e-23
-2.18486e-23
-2.00935e-24
0
-1.64971e-17
-4.45893e-17
8.66098e-18
3.80491e-18
-5.39477e-18
2.73772e-18
2.51782e-19
-2.57359e-19
4.22291e-20
-1.18767e-20
0
0
-2.99432e-22
4.09305e-22
-1.0128e-22
2.48232e-23
-2.71955e-23
2.02386e-24
-3.50293e-24
2.68503e-17
1.62049e-17
-7.95355e-18
1.2116e-18
-3.52307e-18
-1.01791e-18
0
0
0
0
0
0
2.50531e-22
-1.9955e-22
2.11046e-22
-1.39749e-23
2.01633e-23
3.28482e-24
-2.51672e-24
6.46124e-17
-4.68514e-17
5.52877e-17
-5.93549e-18
9.54569e-18
-1.27818e-18
1.6989e-18
-4.80715e-19
-4.04876e-20
4.1417e-20
0
9.28851e-22
-2.44755e-22
1.87817e-22
-1.40809e-22
-5.01346e-23
-2.59675e-23
2.95653e-24
1.71586e-24
1.05189e-16
1.60794e-17
0
-7.02909e-18
-1.84033e-18
2.95256e-18
-2.32736e-19
-2.40885e-19
7.02253e-20
-1.33564e-20
0
-7.3529e-22
0
-1.17767e-22
4.87537e-23
-1.60721e-23
-3.07218e-24
5.7134e-25
0
1.40277e-16
-1.69977e-17
3.53721e-17
-2.64007e-17
-1.89933e-18
2.59333e-18
-1.45593e-18
9.09049e-20
4.27592e-20
-1.93973e-20
1.12997e-20
0
0
2.41529e-22
1.86164e-24
6.12767e-25
1.03376e-23
-2.4112e-24
0
-1.99659e-19
0
-9.78723e-18
2.93292e-17
-1.68186e-17
-5.26634e-18
2.63234e-18
-5.4263e-19
4.00177e-19
5.67472e-20
-1.66288e-20
4.01561e-21
-1.74449e-21
2.90034e-22
3.48725e-22
-1.8326e-23
-1.69517e-23
8.83572e-24
-1.59807e-24
2.99281e-16
-8.54059e-17
1.10162e-17
-4.53876e-17
4.98248e-18
-3.67693e-18
2.378e-18
0
0
-7.7652e-21
-1.6042e-20
-1.7292e-21
0
-6.57506e-22
-1.99026e-22
6.01727e-23
-1.92055e-24
6.29976e-24
4.1658e-24
0
-6.80368e-17
6.48967e-17
-4.73953e-18
-2.68174e-17
2.66277e-18
-1.66499e-18
1.01083e-18
6.29829e-19
0
0
1.23325e-21
4.26131e-21
0
-4.37232e-22
-8.70685e-23
1.43524e-23
-3.74823e-24
-7.72764e-24
0
-3.00729e-17
3.20614e-17
4.50432e-17
1.04153e-17
-1.61303e-17
4.96726e-18
-8.26313e-19
5.66171e-19
-1.81984e-19
0
0
0
-2.28843e-21
-1.90808e-23
-2.04669e-22
0
-1.78779e-24
6.95229e-24
-2.09938e-16
1.80887e-16
9.76596e-17
-1.12691e-16
2.13329e-17
-1.71579e-17
0
1.02673e-18
-1.14636e-18
3.44413e-19
-8.18034e-20
2.81066e-20
9.43263e-21
2.36675e-21
7.7062e-22
0
0
0
0
2.7415e-16
-1.10534e-16
0
0
-1.02792e-17
1.14943e-17
-6.83926e-18
-1.24116e-18
1.22716e-18
2.38685e-19
1.85525e-19
-2.91634e-20
5.80804e-21
4.3269e-22
4.10914e-22
1.0051e-22
2.19139e-22
-6.76628e-24
6.89207e-24
-2.60453e-16
2.01098e-16
5.78173e-17
-3.54941e-17
2.71594e-17
-1.62264e-17
-5.00703e-18
-2.12613e-18
0
-5.31292e-19
1.04151e-19
4.14897e-20
-1.24275e-20
-4.2066e-21
-5.59713e-22
-8.27749e-23
-1.13639e-22
0
0
-8.91265e-17
0
3.86052e-17
5.04736e-19
0
0
5.16491e-18
2.19386e-18
0
3.3219e-19
0
-5.807e-20
-1.63925e-21
6.37711e-21
0
1.62633e-21
-1.50886e-22
1.53924e-22
0
2.10883e-16
0
6.34105e-17
-9.7589e-17
5.96899e-17
2.11244e-17
-3.23212e-18
0
2.936e-19
6.60573e-19
0
-6.79517e-20
4.05492e-20
-1.93496e-20
-2.71523e-21
-1.16119e-21
-5.33707e-22
-2.3827e-22
-3.8883e-21
-1.58803e-16
2.19022e-16
-4.0509e-17
-7.03068e-17
-2.52131e-17
-1.24709e-17
-1.12709e-17
-1.70759e-18
7.04908e-19
1.29407e-19
-1.29164e-19
1.10494e-19
-2.73555e-20
3.08104e-20
-4.70361e-21
0
1.41243e-20
-1.5413e-20
3.41611e-21
4.33691e-16
-2.27648e-17
-1.83306e-16
8.33303e-17
-5.39916e-17
2.72336e-17
-3.11287e-18
-2.27683e-18
9.26643e-19
1.29452e-19
-7.69557e-20
-1.11798e-19
1.41011e-20
3.69457e-20
-5.00184e-21
5.05889e-21
-1.46293e-20
-3.91657e-20
-4.42764e-20
2.12904e-16
6.29277e-17
7.89533e-17
-4.36606e-17
-1.7467e-17
6.32703e-18
-3.67132e-18
7.26857e-18
4.13086e-19
7.08335e-19
2.036e-19
-1.34978e-19
0
-4.0879e-20
0
0
1.58631e-19
4.63079e-20
4.76028e-20
1.79093e-16
0
7.31425e-17
4.33788e-17
-2.10429e-17
1.09631e-17
0
-2.12183e-18
-1.51604e-18
-7.20297e-19
-2.05402e-19
1.36504e-19
0
0
0
0
-1.5284e-19
-4.91284e-19
0
-3.49437e-16
0
-1.72193e-17
-1.66363e-17
3.26633e-17
-5.38367e-18
-9.00261e-19
-1.41045e-18
1.44185e-18
0
2.23042e-19
-1.25506e-20
5.49707e-19
0
0
1.03806e-18
-8.60609e-20
5.94021e-19
-9.16401e-19
2.32028e-16
4.31835e-17
-4.27377e-17
-2.32109e-17
-3.84057e-17
1.55931e-17
8.94058e-18
-7.64351e-19
-1.21987e-18
1.86025e-18
2.63006e-19
-2.09924e-18
-1.04132e-18
-1.7995e-18
-2.16739e-18
-1.22415e-18
3.16199e-18
-1.17424e-19
9.38588e-19
-6.30329e-17
1.99933e-17
-7.8413e-17
6.13038e-18
-6.10807e-18
0
-4.56382e-18
-2.14616e-18
-4.36735e-18
2.36476e-18
4.53717e-18
1.81054e-18
-6.89221e-19
-2.22036e-18
1.92358e-18
0
-1.00952e-17
-6.85065e-18
-1.17686e-19
1.48327e-16
-2.35603e-18
1.15908e-16
-3.43802e-17
3.21189e-19
4.45729e-19
1.09804e-17
-4.97458e-18
4.23562e-18
-4.06465e-18
-4.10708e-18
0
1.04589e-17
4.9338e-18
1.27545e-19
-2.02378e-19
7.05266e-18
6.94008e-18
0
-9.93963e-17
0
-5.43824e-18
3.67048e-17
2.25005e-18
4.8939e-18
-1.06179e-17
9.44249e-18
1.94382e-17
1.95126e-17
1.99755e-17
0
-1.01607e-17
0
1.08256e-18
-1.12434e-18
0
-2.19744e-19
1.51393e-17
8.45919e-17
1.90605e-17
-1.96183e-17
7.49517e-17
-1.96617e-17
0
0
-3.79354e-17
-1.88336e-17
-1.89034e-17
-5.14985e-17
-6.77786e-18
0
0
0
-4.34786e-18
4.60112e-18
4.47159e-17
-1.54406e-17
2.42497e-17
0
-7.27515e-17
-4.17493e-17
6.0053e-17
-6.96656e-17
-9.25288e-17
8.58434e-17
4.28534e-17
0
3.7618e-17
7.03115e-17
-1.34676e-17
8.9352e-17
-1.47698e-17
1.53718e-17
8.01251e-17
-4.25434e-17
0
-1.55359e-16
0
-1.25445e-16
1.16964e-16
0
1.53556e-16
6.53659e-17
-1.67852e-16
1.68175e-16
3.61535e-20
-4.25045e-17
-6.80759e-17
0
1.61259e-16
-2.41902e-16
2.69331e-16
-3.45325e-16
0
0
1.60887e-16
-7.15216e-18
-1.53317e-17
-2.69641e-16
2.90685e-16
-1.30312e-16
1.2978e-16
1.28853e-16
-7.88523e-17
0
0
2.51217e-16
-2.55544e-16
-2.25941e-16
2.32946e-16
-2.3643e-16
2.6677e-16
-4.35208e-16
0
)
;

boundaryField
{
    up
    {
        type            calculated;
        value           nonuniform List<scalar> 
84
(
0
0
0
0
-8.27694e-18
1.27131e-17
-4.23385e-18
9.38623e-19
-8.75579e-19
0
-5.25235e-20
4.73054e-20
-4.2965e-21
2.95548e-21
8.14531e-22
2.93601e-22
0
0
-5.13262e-24
3.90571e-24
1.4843e-24
-1.44125e-24
7.86619e-26
0
5.46695e-25
6.07218e-25
-2.65417e-24
0
6.42971e-24
-4.98072e-24
-4.81097e-24
2.92477e-23
-2.77386e-23
0
4.30635e-22
4.97362e-22
-9.70619e-22
1.76306e-21
0
-6.06731e-22
0
0
-4.34967e-22
7.4999e-22
-7.24661e-22
8.74476e-22
-1.57071e-21
7.18431e-22
-3.33981e-22
-3.78427e-22
0
0
0
2.92763e-23
9.9655e-24
1.41263e-24
0
-3.50293e-24
-2.51672e-24
1.17298e-24
0
0
-1.59807e-24
4.1658e-24
-7.72764e-24
6.95229e-24
0
6.89207e-24
0
0
-3.8883e-21
3.41611e-21
-4.42764e-20
4.76028e-20
0
-9.16401e-19
9.38588e-19
-1.17686e-19
0
1.51393e-17
-1.54406e-17
0
0
0
)
;
    }
    low
    {
        type            calculated;
        value           nonuniform List<scalar> 
84
(
-3.24343e-16
3.01703e-16
-1.20462e-16
2.30656e-16
4.47688e-17
-1.1618e-17
9.68009e-17
3.22242e-17
0
3.64903e-16
-9.17935e-17
3.35023e-17
-6.57324e-17
-5.50997e-16
8.93367e-17
0
-8.21073e-17
2.52656e-17
-2.51024e-17
-4.59346e-17
3.2967e-17
6.92431e-17
1.70484e-16
-1.13918e-16
0
-2.12576e-17
-1.10662e-17
0
-1.04811e-16
-3.53097e-17
-1.41696e-16
-1.52605e-16
1.6508e-16
4.9286e-17
3.42727e-16
2.72271e-17
0
2.10671e-16
2.4584e-16
1.38121e-16
-7.2997e-17
2.52568e-17
2.52578e-17
0
1.00305e-16
2.74257e-16
1.82641e-16
6.01795e-17
0
-4.73288e-16
2.68061e-16
-3.25767e-19
-3.10652e-19
8.96858e-17
0
-2.56462e-16
0
-1.64971e-17
2.68503e-17
6.47575e-17
1.06094e-16
1.41378e-16
-1.99659e-19
3.00625e-16
0
0
-2.09938e-16
2.75742e-16
-2.62159e-16
-8.91265e-17
2.12796e-16
-1.58803e-16
4.38916e-16
2.15779e-16
1.79093e-16
-3.49437e-16
2.29673e-16
-6.04193e-17
1.48327e-16
-9.80272e-17
8.45919e-17
2.78405e-17
-1.55359e-16
1.61907e-16
)
;
    }
    left
    {
        type            calculated;
        value           nonuniform List<scalar> 
19
(
-3.22301e-16
-1.38113e-16
1.59945e-16
2.18225e-17
-2.69413e-16
0
-1.06037e-16
-1.05312e-16
-2.91943e-17
-6.45496e-17
5.61804e-20
-6.58645e-17
3.28824e-16
-6.84267e-17
3.03749e-16
2.71124e-16
1.63846e-16
2.57049e-16
0
)
;
    }
    right
    {
        type            calculated;
        value           nonuniform List<scalar> 
19
(
1.60887e-16
-7.50618e-18
-1.53317e-17
-2.71527e-16
2.92996e-16
-1.30312e-16
1.2978e-16
1.28853e-16
-7.60287e-17
0
0
2.57257e-16
-2.61733e-16
-2.25941e-16
2.32946e-16
-2.3643e-16
2.6677e-16
-4.69147e-16
0
)
;
    }
    frontAndBackPlanes
    {
        type            empty;
    }
}


// ************************************************************************* //
