/*--------------------------------*- C++ -*----------------------------------*\
  =========                 |
  \\      /  F ield         | OpenFOAM: The Open Source CFD Toolbox
   \\    /   O peration     | Website:  https://openfoam.org
    \\  /    A nd           | Version:  7
     \\/     M anipulation  |
\*---------------------------------------------------------------------------*/
FoamFile
{
    version     2.0;
    format      ascii;
    class       volScalarField;
    location    "0.04";
    object      gradTx;
}
// * * * * * * * * * * * * * * * * * * * * * * * * * * * * * * * * * * * * * //

dimensions      [0 -1 0 1 0 0 0];

internalField   nonuniform List<scalar> 
1596
(
-0.697145
-3.47345
-5.9871
-7.88416
-9.14817
-9.86369
-10.2193
-10.3429
-10.3298
-10.2652
-10.1376
-9.99825
-9.90134
-9.95031
-10.2899
-11.25
-13.2748
-17.1947
-24.6045
0.258333
-2.59277
-4.97098
-6.73649
-7.92702
-8.6229
-8.9855
-9.12142
-9.1259
-9.06514
-8.94258
-8.7906
-8.60077
-8.37949
-8.12136
-7.84951
-7.52513
-7.02634
-5.9779
1.0626
-1.5666
-3.63831
-5.16126
-6.19937
-6.82571
-7.16586
-7.30794
-7.33447
-7.29988
-7.21772
-7.11098
-6.95892
-6.73862
-6.40905
-5.93277
-5.24669
-4.27086
-2.80771
1.26778
-0.757178
-2.3491
-3.53851
-4.36992
-4.89332
-5.19223
-5.33292
-5.37958
-5.37511
-5.33937
-5.29003
-5.21107
-5.07621
-4.83978
-4.44262
-3.81189
-2.88052
-1.53864
0.766616
-0.411214
-1.41694
-2.21674
-2.80706
-3.20258
-3.44354
-3.57069
-3.62732
-3.64385
-3.64146
-3.63391
-3.61358
-3.56112
-3.44049
-3.19262
-2.74548
-2.02947
-0.96338
-0.265148
-0.586838
-0.990793
-1.38165
-1.71094
-1.95748
-2.12285
-2.22085
-2.27314
-2.29703
-2.30998
-2.32198
-2.33166
-2.32818
-2.28884
-2.1663
-1.8992
-1.41781
-0.646063
-1.53637
-1.17655
-1.04388
-1.0411
-1.10291
-1.18388
-1.25653
-1.30947
-1.34357
-1.36276
-1.37711
-1.39229
-1.40958
-1.42432
-1.42489
-1.37915
-1.24168
-0.951257
-0.435866
-2.77514
-1.97022
-1.42036
-1.07486
-0.883331
-0.794156
-0.763381
-0.759538
-0.76532
-0.771782
-0.779829
-0.790296
-0.804083
-0.819582
-0.832082
-0.822633
-0.761814
-0.602921
-0.284331
-3.99548
-2.95721
-2.09481
-1.44244
-0.995308
-0.717089
-0.560939
-0.481517
-0.445443
-0.430474
-0.426815
-0.429287
-0.436112
-0.44599
-0.457292
-0.460084
-0.43753
-0.358338
-0.17576
-4.7184
-3.67118
-2.67207
-1.83349
-1.20408
-0.77589
-0.511633
-0.362166
-0.284713
-0.24733
-0.231352
-0.226158
-0.226765
-0.230851
-0.237453
-0.241706
-0.234992
-0.198768
-0.101784
-5.32704
-4.30636
-3.23888
-2.27024
-1.49293
-0.931332
-0.564036
-0.344006
-0.222882
-0.16089
-0.131532
-0.118876
-0.114473
-0.114287
-0.116783
-0.119382
-0.118002
-0.102761
-0.0549632
-5.9828
-4.99519
-3.87396
-2.78898
-1.86889
-1.17119
-0.693855
-0.395599
-0.224509
-0.133515
-0.088413
-0.0675275
-0.0585558
-0.0552793
-0.0549958
-0.0557573
-0.0555432
-0.049516
-0.0275869
-6.25516
-5.37825
-4.28038
-3.15461
-2.15648
-1.37121
-0.815785
-0.458148
-0.247099
-0.131862
-0.0732329
-0.0452636
-0.0326242
-0.0272545
-0.0253551
-0.0249188
-0.0246645
-0.0223022
-0.0128718
-6.43773
-5.65829
-4.5952
-3.44904
-2.39587
-1.54411
-0.927051
-0.521329
-0.277245
-0.141574
-0.0714047
-0.0373767
-0.0217113
-0.014819
-0.0119811
-0.0109012
-0.0104478
-0.00944395
-0.00559842
-6.60033
-5.89497
-4.85767
-3.69337
-2.59423
-1.68787
-1.02072
-0.576283
-0.305784
-0.153835
-0.0745231
-0.0357233
-0.0177216
-0.00973047
-0.00633053
-0.00492748
-0.0043404
-0.00381066
-0.0022829
-6.64474
-6.0223
-5.01708
-3.84682
-2.71934
-1.77797
-1.07889
-0.610217
-0.323548
-0.161835
-0.0771623
-0.0356171
-0.0163026
-0.00772007
-0.00405045
-0.00251646
-0.00187678
-0.00151278
-0.000886507
-6.54598
-6.01119
-5.0485
-3.8882
-2.7537
-1.80073
-1.0915
-0.616072
-0.325619
-0.162039
-0.0765829
-0.0347423
-0.0153387
-0.00674347
-0.00307983
-0.00155338
-0.000923328
-0.000629749
-0.000339642
-6.38852
-5.91274
-4.9871
-3.8421
-2.71354
-1.76607
-1.06407
-0.596571
-0.313045
-0.154556
-0.0723884
-0.0324458
-0.0140524
-0.00596204
-0.00253866
-0.00112404
-0.000547388
-0.000300337
-0.000137472
-6.29257
-5.86263
-4.949
-3.79728
-2.66115
-1.71442
-1.02104
-0.565446
-0.293001
-0.142822
-0.066029
-0.0291874
-0.0124362
-0.00515851
-0.00211645
-0.000875187
-0.000376772
-0.000172048
-6.42129e-05
-5.91655
-5.58856
-4.7346
-3.61888
-2.51311
-1.59882
-0.938394
-0.511629
-0.260924
-0.125175
-0.0569693
-0.0247917
-0.010394
-0.00423414
-0.00169716
-0.000676896
-0.000273531
-0.000112085
-3.56989e-05
-5.41478
-5.18764
-4.41217
-3.35639
-2.30501
-1.44404
-0.832501
-0.445275
-0.222687
-0.104775
-0.04679
-0.01999
-0.00823078
-0.00329222
-0.00129386
-0.000503658
-0.000196517
-7.61556e-05
-2.22333e-05
-4.80866
-4.66662
-3.98381
-3.015
-2.04581
-1.26023
-0.71225
-0.372858
-0.182398
-0.083948
-0.0366911
-0.0153526
-0.00619557
-0.00243018
-0.000936676
-0.000357187
-0.00013609
-5.11714e-05
-1.4354e-05
-4.02752
-3.95591
-3.39352
-2.56009
-1.72014
-1.04409
-0.57954
-0.297362
-0.142441
-0.0641773
-0.0274669
-0.0112609
-0.00445588
-0.00171512
-0.000649192
-0.000243271
-9.12264e-05
-3.39945e-05
-9.70554e-06
-3.02526
-2.89368
-2.4155
-1.77195
-1.15793
-0.683999
-0.369777
-0.184842
-0.0862317
-0.0377966
-0.0157075
-0.00623643
-0.00238152
-0.00088085
-0.000318757
-0.000113693
-4.08273e-05
-1.52826e-05
-5.07312e-06
-2.03632
-2.11836
-1.9144
-1.50422
-1.04204
-0.647088
-0.365819
-0.19074
-0.0928545
-0.0426085
-0.0186126
-0.00781936
-0.00318161
-0.00126366
-0.000494206
-0.000192337
-7.62008e-05
-3.31288e-05
-1.79998e-05
-0.670955
-0.689373
-0.652215
-0.554958
-0.422747
-0.290009
-0.180912
-0.103636
-0.0551401
-0.0275062
-0.0129886
-0.00587447
-0.00256351
-0.00108867
-0.000453424
-0.000186807
-7.78046e-05
-3.60019e-05
-2.23497e-05
0.723034
0.686614
0.530543
0.329184
0.157814
0.0490268
-0.0027564
-0.0186207
-0.018031
-0.0126548
-0.0075413
-0.00407001
-0.00204816
-0.000982505
-0.000455295
-0.000205451
-9.16057e-05
-4.44532e-05
-2.88054e-05
2.07254
1.99926
1.67014
1.2081
0.761956
0.421688
0.205271
0.0872584
0.0314573
0.00867525
0.000967516
-0.000943885
-0.00101235
-0.000695218
-0.000406689
-0.00021683
-0.000106831
-5.33748e-05
-3.45741e-05
3.20636
3.06936
2.60334
1.95392
1.30468
0.78068
0.421714
0.206735
0.0922124
0.0372723
0.013502
0.00417396
0.000915749
-5.26904e-05
-0.000242033
-0.000206646
-0.00012522
-6.38952e-05
-3.67942e-05
4.25846
4.0185
3.4193
2.6176
1.80917
1.13548
0.65168
0.344158
0.168255
0.0764258
0.032403
0.0127654
0.00458743
0.00138938
0.000241774
-0.000106153
-0.000138056
-7.95993e-05
-2.98384e-05
4.91046
4.58209
3.91294
3.04894
2.17237
1.42152
0.859454
0.482966
0.253955
0.125655
0.0589894
0.0263771
0.0112273
0.00444564
0.00151799
0.000305092
-8.35295e-05
-0.000106954
-1.06982e-05
5.41331
5.01608
4.29563
3.396
2.48319
1.68521
1.06697
0.633669
0.355408
0.189452
0.0969113
0.0479203
0.0230336
0.0106839
0.00463826
0.00164766
0.00031357
-0.000104762
-3.18071e-05
5.78434
5.30763
4.55045
3.64269
2.72683
1.91397
1.26524
0.79155
0.471748
0.2696
0.149256
0.080781
0.0431165
0.0227146
0.0116898
0.00548546
0.00207921
0.000419535
0.000100613
5.88962
5.31776
4.52854
3.63367
2.74857
1.96229
1.32563
0.849645
0.518747
0.302779
0.16996
0.0921712
0.0484008
0.0243471
0.0112258
0.00362366
-0.000982443
-0.00385879
-0.00516969
5.83281
5.24025
4.49217
3.67242
2.86342
2.1309
1.51642
1.03422
0.678418
0.429582
0.264009
0.158389
0.0931896
0.0538722
0.0304447
0.0160607
0.006654
-0.000322202
-0.00609764
5.72249
5.12418
4.41682
3.65779
2.90871
2.22224
1.63398
1.15884
0.795503
0.530469
0.345354
0.220828
0.13932
0.0870874
0.0540515
0.0329951
0.0191878
0.00952922
0.00198073
5.19954
4.54377
3.84192
3.13349
2.46296
1.86667
1.36644
0.968268
0.66651
0.447253
0.29402
0.190467
0.122052
0.0775687
0.048835
0.0299974
0.0172056
0.00804392
0.000986952
4.41606
3.8451
3.24655
2.65113
2.0923
1.59683
1.18042
0.846971
0.591845
0.404104
0.270878
0.179248
0.117495
0.0764389
0.0492547
0.0309331
0.0181079
0.00863367
0.00112489
3.5734
3.10976
2.62414
2.14423
1.69632
1.30032
0.96742
0.700006
0.494243
0.341595
0.23218
0.156017
0.103963
0.0687881
0.0450577
0.0287104
0.0169881
0.00812214
0.0009563
2.63834
2.28938
1.92916
1.57686
1.25006
0.961895
0.719557
0.524348
0.373414
0.260679
0.179204
0.12193
0.0823388
0.0552315
0.0366709
0.0236688
0.0141816
0.00689464
0.000940254
1.63989
1.41008
1.18259
0.964717
0.76475
0.589328
0.442076
0.323412
0.231471
0.162557
0.11252
0.0771435
0.0525173
0.0355137
0.0237532
0.0154131
0.00924292
0.00443909
0.000470248
0.623672
0.528918
0.439948
0.356717
0.281292
0.215698
0.161025
0.117244
0.0835177
0.0583782
0.0402202
0.0274464
0.0185962
0.0125107
0.00831379
0.00533878
0.0031294
0.00139333
-6.10044e-05
-0.623372
-0.52823
-0.439023
-0.355689
-0.280267
-0.214752
-0.160202
-0.11656
-0.0829717
-0.0579556
-0.0399007
-0.0272091
-0.0184222
-0.0123847
-0.0082238
-0.00527656
-0.00308945
-0.00137225
6.49045e-05
-1.6396
-1.40946
-1.18177
-0.963815
-0.763862
-0.588517
-0.441379
-0.322841
-0.23102
-0.162213
-0.112263
-0.0769553
-0.0523813
-0.0354166
-0.0236851
-0.0153674
-0.00921515
-0.00442662
-0.00047174
-2.63803
-2.28876
-1.92836
-1.57599
-1.24922
-0.96113
-0.71891
-0.523826
-0.373009
-0.260375
-0.178981
-0.12177
-0.0822249
-0.0551512
-0.0366149
-0.0236305
-0.0141564
-0.00687981
-0.000933899
-3.57315
-3.10928
-2.62355
-2.14362
-1.69576
-1.29984
-0.96704
-0.69972
-0.494038
-0.341453
-0.232085
-0.155956
-0.103924
-0.0687636
-0.0450428
-0.0287019
-0.016984
-0.00812117
-0.000957556
-4.41586
-3.84473
-3.24612
-2.65071
-2.09194
-1.59657
-1.18025
-0.846868
-0.591795
-0.404089
-0.270882
-0.179261
-0.117511
-0.0764541
-0.0492678
-0.0309436
-0.0181156
-0.00863853
-0.00112628
-5.19944
-4.54355
-3.84168
-3.1333
-2.46286
-1.86666
-1.36652
-0.968388
-0.666649
-0.44739
-0.29414
-0.190565
-0.122129
-0.0776259
-0.0488764
-0.0300264
-0.0172246
-0.00805428
-0.000989537
-5.72234
-5.12354
-4.41577
-3.65651
-2.90738
-2.22102
-1.63295
-1.15804
-0.794917
-0.530062
-0.345084
-0.220654
-0.139211
-0.087018
-0.0540056
-0.032962
-0.0191608
-0.00950665
-0.00196679
-5.83362
-5.24255
-4.49588
-3.67716
-2.86867
-2.13611
-1.52117
-1.03824
-0.68162
-0.431996
-0.265749
-0.159601
-0.0940112
-0.0544214
-0.030812
-0.0163129
-0.00683512
0.000188249
0.00601009
-5.88911
-5.31668
-4.52722
-3.6324
-2.74753
-1.96149
-1.32504
-0.849202
-0.518399
-0.302493
-0.169721
-0.0919733
-0.04824
-0.0242188
-0.011124
-0.00354124
0.00105535
0.00393824
0.00528417
-5.7846
-5.30839
-4.55178
-3.64449
-2.72887
-1.91598
-1.267
-0.792962
-0.472793
-0.270324
-0.149736
-0.0810895
-0.0433125
-0.0228396
-0.0117705
-0.00553596
-0.00210669
-0.000431935
-0.000110106
-5.41345
-5.01658
-4.29663
-3.39743
-2.48484
-1.68681
-1.06834
-0.634722
-0.356147
-0.189935
-0.0972118
-0.0481015
-0.0231419
-0.0107492
-0.00467799
-0.00167008
-0.000322532
0.000102894
2.05299e-05
-4.91063
-4.58264
-3.91399
-3.05039
-2.17398
-1.42303
-0.860672
-0.483847
-0.254535
-0.126009
-0.0591937
-0.026491
-0.0112899
-0.00447995
-0.00153647
-0.000313642
8.16803e-05
0.000108031
5.4485e-06
-4.25865
-4.0191
-3.42039
-2.61905
-1.8107
-1.13684
-0.652719
-0.344862
-0.168687
-0.0766704
-0.0325331
-0.0128317
-0.00462012
-0.00140493
-0.000248401
0.000104506
0.000139007
8.10284e-05
2.80785e-05
-3.20655
-3.06997
-2.60441
-1.95526
-1.30602
-0.781795
-0.422514
-0.207242
-0.092502
-0.0374239
-0.013576
-0.00420782
-0.000930238
4.72715e-05
0.00024087
0.000207453
0.000126612
6.4938e-05
3.63978e-05
-2.07278
-1.99995
-1.67122
-1.20935
-0.763102
-0.422569
-0.205855
-0.0875995
-0.0316363
-0.00876053
-0.0010047
0.000929266
0.00100754
0.000694418
0.000407434
0.000218012
0.000107851
5.39775e-05
3.46014e-05
-0.723274
-0.687301
-0.531537
-0.330222
-0.158678
-0.0496288
0.00239558
0.018431
0.0179428
0.0126187
0.00752878
0.00406698
0.00204842
0.000983654
0.000456494
0.000206406
9.22188e-05
4.47755e-05
2.89243e-05
0.670373
0.687833
0.65024
0.553132
0.421393
0.289162
0.180452
0.103414
0.0550447
0.02747
0.0129769
0.0058718
0.00256367
0.00108944
0.000454126
0.000187283
7.80628e-05
3.61278e-05
2.24383e-05
2.0366
2.11935
1.91583
1.50568
1.04323
0.647911
0.366322
0.19102
0.0930001
0.0426806
0.0186471
0.00783563
0.00318919
0.00126717
0.000495822
0.00019307
7.65254e-05
3.3285e-05
1.80898e-05
3.02477
2.89226
2.41361
1.77015
1.15653
0.683061
0.369223
0.184544
0.0860846
0.0377286
0.0156778
0.00622399
0.00237647
0.000878833
0.000317945
0.000113354
4.06756e-05
1.52173e-05
5.05701e-06
4.02769
3.95624
3.39392
2.56045
1.72041
1.04426
0.579637
0.297411
0.142464
0.064188
0.0274715
0.0112627
0.00445657
0.00171536
0.000649265
0.000243286
9.1225e-05
3.39927e-05
9.70645e-06
4.80864
4.66659
3.98379
3.01499
2.0458
1.26023
0.712247
0.372857
0.182398
0.0839486
0.0366917
0.015353
0.00619577
0.00243027
0.00093672
0.000357204
0.000136096
5.11741e-05
1.4354e-05
5.41476
5.18763
4.41215
3.35638
2.305
1.44403
0.832498
0.445274
0.222687
0.104775
0.0467903
0.0199903
0.00823097
0.00329234
0.00129392
0.000503685
0.000196527
7.61618e-05
2.22325e-05
5.91652
5.58854
4.73458
3.61888
2.51311
1.59882
0.938392
0.511628
0.260923
0.125175
0.0569696
0.024792
0.0103943
0.00423432
0.00169726
0.000676934
0.000273545
0.0001121
3.56985e-05
6.29256
5.86263
4.94901
3.79729
2.66115
1.71442
1.02104
0.565445
0.293
0.142822
0.0660295
0.0291879
0.0124366
0.00515876
0.00211655
0.000875208
0.000376778
0.000172087
6.42155e-05
6.38851
5.91275
4.98711
3.8421
2.71354
1.76607
1.06407
0.59657
0.313045
0.154556
0.0723891
0.0324465
0.0140529
0.0059623
0.00253871
0.00112398
0.000547383
0.000300461
0.00013749
6.54597
6.01119
5.0485
3.8882
2.7537
1.80073
1.0915
0.616072
0.325619
0.16204
0.076584
0.0347432
0.0153392
0.00674361
0.00307967
0.00155315
0.000923381
0.00063015
0.000339711
6.64475
6.02231
5.01709
3.84683
2.71934
1.77797
1.07889
0.610219
0.32355
0.161837
0.0771636
0.035618
0.0163029
0.00771979
0.00404983
0.00251603
0.00187723
0.00151395
0.00088669
6.60032
5.89498
4.85767
3.69338
2.59423
1.68787
1.02073
0.576285
0.305786
0.153837
0.0745243
0.0357237
0.0177212
0.0097294
0.00632932
0.00492724
0.0043422
0.00381354
0.00228322
6.43773
5.6583
4.59521
3.44905
2.39588
1.54412
0.927057
0.521334
0.277249
0.141576
0.0714056
0.0373763
0.0217099
0.0148171
0.0119798
0.0109025
0.0104528
0.00944975
0.00559862
6.25517
5.37827
4.28041
3.15463
2.15649
1.37122
0.815795
0.458156
0.247103
0.131864
0.0732328
0.0452619
0.0326216
0.0272522
0.0253556
0.0249245
0.0246752
0.0223113
0.0128709
5.98278
4.99518
3.87397
2.78899
1.8689
1.1712
0.693861
0.395602
0.22451
0.133514
0.0884106
0.0675241
0.0585528
0.0552791
0.0550017
0.0557707
0.0555601
0.0495256
0.027583
5.32707
4.3064
3.23892
2.27028
1.49296
0.931349
0.564046
0.344011
0.222883
0.160888
0.131528
0.118872
0.114473
0.114294
0.116798
0.119404
0.11802
0.102763
0.0549544
4.71845
3.67123
2.67211
1.83352
1.2041
0.775903
0.511639
0.362168
0.28471
0.247326
0.231348
0.226157
0.226771
0.230867
0.237477
0.241727
0.234997
0.198751
0.101771
3.99554
2.95725
2.09484
1.44246
0.995321
0.717095
0.560938
0.481512
0.445437
0.430469
0.426813
0.429291
0.436126
0.446012
0.457313
0.460087
0.437502
0.358297
0.17575
2.77518
1.97024
1.42037
1.07487
0.883332
0.794151
0.763372
0.759528
0.765311
0.771776
0.77983
0.790305
0.8041
0.819598
0.83208
0.822596
0.761747
0.602866
0.284335
1.5364
1.17657
1.04388
1.0411
1.1029
1.18386
1.25652
1.30946
1.34356
1.36276
1.37711
1.3923
1.40958
1.42431
1.42484
1.37907
1.24159
0.951221
0.435895
0.265174
0.586847
0.990792
1.38164
1.71092
1.95746
2.12283
2.22084
2.27313
2.29703
2.30998
2.32197
2.33164
2.32814
2.28876
2.16621
1.89915
1.41783
0.646112
-0.766604
0.41122
1.41694
2.21673
2.80704
3.20256
3.44352
3.57068
3.62731
3.64384
3.64145
3.63388
3.61354
3.56104
3.44041
3.19257
2.7455
2.02956
0.963423
-1.26778
0.757181
2.3491
3.53849
4.3699
4.8933
5.19221
5.3329
5.37957
5.37509
5.33935
5.28999
5.21102
5.07615
4.83975
4.44266
3.812
2.88062
1.53864
-1.06261
1.5666
3.6383
5.16124
6.19936
6.82569
7.16585
7.30793
7.33445
7.29986
7.2177
7.11095
6.95889
6.73861
6.40909
5.93288
5.24681
4.2709
2.80766
-0.258336
2.59276
4.97096
6.73647
7.92701
8.6229
8.98549
9.12142
9.1259
9.06513
8.94257
8.79059
8.60078
8.37954
8.12145
7.84959
7.52515
7.02627
5.97783
0.697152
3.47345
5.98709
7.88415
9.14816
9.86369
10.2193
10.3429
10.3298
10.2652
10.1376
9.99827
9.90137
9.95035
10.2899
11.25
13.2747
17.1946
24.6045
)
;

boundaryField
{
    up
    {
        type            calculated;
        value           nonuniform List<scalar> 
84
(
-24.6045
-5.9779
-2.80771
-1.53864
-0.96338
-0.646063
-0.435866
-0.284331
-0.17576
-0.101784
-0.0549632
-0.0275869
-0.0128718
-0.00559842
-0.0022829
-0.000886507
-0.000339642
-0.000137472
-6.42129e-05
-3.56989e-05
-2.22333e-05
-1.4354e-05
-9.70554e-06
-5.07312e-06
-1.29257e-05
-1.79086e-05
-2.45498e-05
-3.15392e-05
-3.57486e-05
-2.66434e-05
2.69696e-05
0.000206901
0.000900731
-0.00392859
-0.00558655
0.00204147
0.00106909
0.00119062
0.00100702
0.000970571
0.000488948
-5.22701e-05
5.62359e-05
-0.000490277
-0.000964155
-0.00100806
-0.0011918
-0.00107149
-0.00202766
0.00551195
0.00406609
-0.000916966
-0.000231796
-4.00347e-05
2.1749e-05
3.4344e-05
3.13027e-05
2.46137e-05
1.80034e-05
1.29858e-05
5.05701e-06
9.70645e-06
1.4354e-05
2.22325e-05
3.56985e-05
6.42155e-05
0.00013749
0.000339711
0.00088669
0.00228322
0.00559862
0.0128709
0.027583
0.0549544
0.101771
0.17575
0.284335
0.435895
0.646112
0.963423
1.53864
2.80766
5.97783
24.6045
)
;
    }
    low
    {
        type            calculated;
        value           nonuniform List<scalar> 
84
(
-0.617848
0.387281
1.25162
1.45258
0.871187
-0.282646
-1.66869
-2.98515
-4.23699
-4.93101
-5.53623
-6.18727
-6.41326
-6.57478
-6.73147
-6.75326
-6.63254
-6.47803
-6.37079
-5.94804
-5.41247
-4.78136
-3.97282
-2.95626
-1.95849
-0.637657
0.683294
1.98098
3.10875
4.19585
4.90033
5.4361
5.84244
5.98359
5.94812
5.86543
5.3675
4.57087
3.70081
2.7342
1.70108
0.648491
-0.648189
-1.70078
-2.73388
-3.70052
-4.57062
-5.36735
-5.86521
-5.94877
-5.98304
-5.84256
-5.43615
-4.90043
-4.19599
-3.10891
-1.98121
-0.683528
0.637076
1.95875
2.95581
3.97296
4.78134
5.41245
5.94801
6.37078
6.47803
6.63253
6.75325
6.73145
6.57478
6.41327
6.18725
5.53626
4.93106
4.23704
2.98519
1.66873
0.282675
-0.871171
-1.45258
-1.25164
-0.387298
0.617851
)
;
    }
    left
    {
        type            calculated;
        value           nonuniform List<scalar> 
19
(
-0.652978
-3.43751
-6.06367
-8.07406
-9.42523
-10.194
-10.5803
-10.7246
-10.7214
-10.6728
-10.5607
-10.4371
-10.3805
-10.5286
-11.0594
-12.4124
-15.1835
-20.5077
-21.3088
)
;
    }
    right
    {
        type            calculated;
        value           nonuniform List<scalar> 
19
(
0.652985
3.43753
6.06368
8.07406
9.42523
10.194
10.5803
10.7246
10.7214
10.6728
10.5607
10.4372
10.3805
10.5286
11.0594
12.4122
15.1833
20.5076
21.3089
)
;
    }
    frontAndBackPlanes
    {
        type            empty;
    }
}


// ************************************************************************* //
