/*--------------------------------*- C++ -*----------------------------------*\
  =========                 |
  \\      /  F ield         | OpenFOAM: The Open Source CFD Toolbox
   \\    /   O peration     | Website:  https://openfoam.org
    \\  /    A nd           | Version:  7
     \\/     M anipulation  |
\*---------------------------------------------------------------------------*/
FoamFile
{
    version     2.0;
    format      ascii;
    class       volScalarField;
    location    "0.033";
    object      gradTz;
}
// * * * * * * * * * * * * * * * * * * * * * * * * * * * * * * * * * * * * * //

dimensions      [0 -1 0 1 0 0 0];

internalField   nonuniform List<scalar> 
1596
(
-3.22422e-16
-1.44066e-16
1.60054e-16
1.54212e-17
-2.75426e-16
0
-1.13441e-16
-1.12482e-16
-2.23861e-17
-6.65723e-17
5.46271e-21
-6.78234e-17
3.22636e-16
-6.98465e-17
3.15636e-16
2.79109e-16
1.67977e-16
2.21486e-16
0
3.07906e-16
0
3.55649e-16
-8.46498e-18
-8.39498e-17
8.3913e-17
2.12322e-16
2.11208e-17
9.43307e-17
-4.71777e-17
9.54161e-17
1.50591e-19
-1.30805e-16
-8.35619e-17
-2.52722e-16
-2.53868e-16
-2.36901e-16
1.40645e-16
0
-1.33445e-16
0
-1.98764e-16
1.24854e-17
1.36622e-16
-6.11341e-17
1.27663e-17
-5.12088e-19
-2.00798e-19
-5.84686e-21
1.83497e-17
0
6.75531e-17
1.75225e-16
-1.76939e-17
1.69143e-17
3.76846e-17
7.32193e-17
0
2.33571e-16
-4.78127e-17
4.76381e-17
0
-3.8327e-17
-4.32958e-17
5.21359e-17
-2.96501e-17
0
0
-3.13979e-17
9.72875e-18
0
-4.57809e-17
-4.62929e-17
3.62677e-17
-5.50019e-17
-2.66219e-18
0
4.33998e-17
8.18554e-17
-4.85692e-17
0
-8.16596e-18
-2.83054e-17
0
3.60304e-17
-2.81975e-18
-2.67572e-18
-1.40016e-17
1.40437e-17
2.05969e-17
3.14245e-18
1.27463e-17
-3.90215e-17
1.77167e-18
1.88158e-17
-1.01669e-17
-1.12702e-17
-1.0812e-16
7.52328e-17
-4.59126e-17
-3.96493e-19
-1.94907e-17
4.47324e-19
-4.48809e-19
-9.19137e-18
0
-8.2055e-18
-1.73869e-17
-1.82311e-17
1.0198e-17
2.07692e-17
-2.38416e-19
-1.20706e-17
-1.90846e-17
1.63004e-17
9.41873e-17
-1.13203e-16
8.94575e-17
3.21062e-17
0
1.57865e-17
6.00924e-18
-2.44041e-18
1.10816e-17
-1.61093e-18
-9.63414e-18
-1.20905e-20
-3.87253e-18
-1.01882e-17
-5.45335e-18
5.93789e-18
1.21769e-17
-1.83812e-19
-5.83264e-18
2.59368e-17
1.8969e-16
-1.57351e-16
0
0
-1.67759e-17
0
0
0
2.67058e-18
0
0
3.94533e-18
-4.28065e-20
3.33364e-18
-5.48711e-18
0
2.91552e-18
1.75387e-18
0
-1.06626e-16
1.88206e-16
0
0
1.72769e-17
0
-2.07267e-18
2.07058e-18
-2.71826e-18
7.62066e-19
-7.6764e-19
0
1.05978e-18
2.56358e-18
0
-1.36586e-18
-2.95852e-18
-1.61688e-18
3.69453e-16
-1.56837e-16
0
-4.49421e-17
4.44391e-17
0
1.01549e-17
0
0
0
4.22776e-19
-4.24802e-19
0
-8.84533e-19
-1.66937e-19
0
7.67003e-19
5.73077e-19
0
-9.38979e-17
0
0
4.72298e-17
-7.40592e-17
1.21159e-17
4.79252e-18
-1.969e-18
9.84359e-19
1.86377e-19
-4.95813e-19
-3.69292e-19
0
2.07431e-19
-7.10908e-20
7.21577e-20
5.1441e-19
-4.97885e-19
-1.71607e-19
4.60794e-17
-2.33795e-17
4.80314e-17
1.11226e-16
-1.96851e-17
-2.85272e-17
0
0
0
1.26831e-18
2.25715e-19
5.4625e-19
-1.22177e-19
-2.0372e-19
-5.6034e-20
-5.78411e-20
2.96918e-20
-9.09399e-20
1.55142e-19
-7.13744e-17
7.28044e-17
-1.15544e-16
-1.1082e-16
8.61004e-17
1.61853e-17
-2.43733e-17
1.24823e-17
-6.0821e-18
1.4967e-18
4.46037e-19
-1.82716e-19
2.05573e-20
-3.08281e-20
1.13249e-19
0
-1.08161e-20
1.22263e-19
-2.1102e-20
-5.61078e-16
2.2787e-16
-1.25853e-19
-1.87342e-17
1.15437e-17
1.59253e-17
-2.65843e-17
-5.4608e-18
2.59624e-18
-1.17513e-18
-5.16966e-19
0
-1.71516e-19
-3.76488e-20
-2.85449e-20
-1.29114e-20
5.5555e-22
-3.4997e-20
1.31059e-20
9.14371e-17
-6.63803e-17
-4.81568e-19
-2.94481e-17
-4.50464e-17
3.70612e-17
3.21198e-19
5.32154e-18
-2.52778e-18
2.23028e-18
3.28003e-19
1.73591e-19
1.7625e-19
0
4.43799e-20
1.49188e-20
0
9.87361e-21
4.49695e-21
0
6.43965e-17
2.80191e-17
-7.05728e-17
4.2859e-17
-4.93808e-17
2.40301e-17
3.56975e-18
-1.87771e-18
-2.68344e-18
1.55163e-19
-1.54398e-19
-1.4976e-19
2.81425e-20
-1.03404e-20
-1.2264e-20
2.52098e-21
-1.49083e-21
2.26458e-21
-8.43117e-17
2.05431e-16
-1.6037e-16
5.04684e-17
0
0
-2.37187e-18
6.46327e-18
-1.43971e-18
2.24217e-18
0
0
8.87524e-20
-4.86638e-20
-1.22622e-20
3.48312e-21
-2.08604e-21
1.08754e-21
0
2.18556e-17
7.92104e-17
-3.86243e-17
-2.54221e-17
-2.12783e-17
2.5184e-18
7.15642e-18
0
-1.20883e-18
-2.64169e-19
2.78285e-19
-1.11651e-19
4.36989e-20
0
5.92076e-21
5.07781e-21
0
0
0
-2.17071e-17
6.92937e-17
3.54414e-18
-7.871e-17
1.17545e-17
6.88672e-18
0
0
9.8784e-19
-5.94454e-19
-2.69162e-19
1.07987e-19
-4.22601e-20
0
-1.83481e-21
1.14691e-21
0
-2.56777e-22
-7.88404e-23
-5.15772e-17
1.54863e-16
-1.46944e-16
-3.01936e-17
1.85105e-17
-5.20517e-18
2.4997e-18
0
-4.89652e-19
2.55015e-19
0
0
9.12496e-21
-9.13547e-21
6.26465e-22
-1.16188e-21
4.20852e-22
1.06463e-22
6.04874e-23
3.41331e-17
-2.31511e-17
7.65634e-17
-4.59297e-17
-8.61566e-18
2.41778e-18
6.32145e-18
8.71602e-19
4.68524e-19
0
4.50018e-20
-4.07681e-20
1.54206e-20
-6.21683e-21
1.97662e-21
-1.94359e-21
-2.849e-22
1.7885e-22
2.58949e-23
7.59952e-17
-8.47041e-17
0
2.25947e-17
-1.41355e-17
-4.06511e-18
5.44978e-19
-3.25247e-18
0
-1.94858e-20
-8.13472e-20
-2.02354e-20
1.14053e-20
-2.31385e-21
-1.91037e-21
6.82221e-22
0
5.18968e-23
-2.51438e-23
1.70568e-16
-1.98367e-17
4.83492e-17
-3.64007e-17
6.37295e-18
-3.68626e-18
-4.23008e-18
-3.72298e-19
5.1586e-19
-4.76286e-20
-4.36265e-20
2.68035e-20
-7.03059e-21
-2.63008e-21
0
0
0
-5.18907e-23
1.43902e-24
-1.22921e-16
1.12323e-16
-2.92916e-19
5.54134e-18
2.85127e-18
-2.93793e-18
2.30302e-18
-9.20759e-19
3.85523e-19
-3.38459e-20
5.69176e-20
5.46118e-21
-1.17186e-21
4.85683e-23
1.67213e-23
-7.11394e-23
0
0
0
0
0
2.19924e-17
-2.24314e-17
-1.96365e-17
0
0
-1.90122e-19
-1.50003e-19
5.04509e-20
0
-6.88755e-21
2.4019e-21
-2.8416e-21
2.74606e-21
-2.64508e-22
2.80237e-22
1.43848e-23
0
-2.32304e-17
2.35164e-17
0
-6.11981e-18
4.64392e-18
4.12134e-18
0
1.91938e-19
3.96635e-20
-3.03452e-19
0
-6.46304e-21
2.2474e-21
8.0574e-22
-2.95154e-22
2.27288e-22
0
-3.41767e-23
0
-1.20553e-17
-8.22806e-18
4.98901e-19
6.28795e-18
-9.46244e-18
0
-6.5484e-19
0
3.50465e-19
5.57569e-20
0
2.31957e-20
-1.46836e-20
2.11758e-21
2.53843e-23
4.27237e-22
3.66871e-22
7.27541e-23
-5.78145e-23
0
2.11413e-17
-1.0297e-17
1.18429e-17
6.22699e-18
0
1.21796e-18
-8.97122e-19
-2.02988e-19
1.06618e-19
-1.45399e-19
-1.95466e-20
0
0
3.13205e-22
0
0
2.29537e-23
0
-1.12886e-16
9.03023e-17
0
2.54014e-18
-2.64191e-18
-1.03593e-19
1.30909e-18
1.60723e-19
-5.12941e-19
-3.30376e-19
1.86996e-19
-4.96701e-20
0
-2.05672e-21
0
0
0
-8.54293e-23
6.72346e-23
-3.63926e-17
2.59702e-17
4.54673e-17
-3.80611e-17
7.38304e-18
1.11374e-18
-1.30505e-18
5.73924e-19
4.74073e-19
1.53006e-19
-2.76373e-19
0
1.26801e-20
-7.48938e-21
-2.37111e-21
-3.86134e-22
1.52863e-22
-5.35165e-23
3.77545e-24
-1.39548e-16
1.26304e-16
-1.17104e-16
1.30488e-17
6.63329e-18
-5.05851e-18
2.87013e-18
-9.91544e-19
0
-2.57075e-19
1.27966e-19
4.71032e-20
3.78301e-20
1.00857e-20
-1.23729e-20
-1.06015e-21
0
5.57132e-23
-5.296e-23
-1.50415e-16
-3.16968e-17
-3.69824e-17
2.33284e-17
-1.81675e-17
9.78342e-18
-4.62508e-18
1.83032e-18
-3.65538e-19
-2.63783e-19
-2.1809e-19
1.75398e-19
3.0081e-21
2.96334e-20
-3.18118e-20
-1.65392e-21
8.84085e-22
0
1.82548e-22
1.62631e-16
-3.58859e-17
0
0
-1.91739e-17
3.19974e-17
-5.40953e-18
-4.09823e-19
2.24849e-18
-1.36696e-19
0
0
-4.86174e-20
0
-3.67511e-20
5.87954e-20
-3.21159e-20
0
-1.42521e-22
5.03314e-17
7.79981e-17
0
-2.09308e-17
-9.23287e-18
-2.88318e-18
-5.81586e-18
1.20819e-18
-2.59756e-18
-5.83168e-19
0
0
2.00137e-19
0
0
-7.21143e-20
1.36436e-19
0
0
3.47393e-16
-6.47725e-17
-1.595e-16
-5.24245e-17
7.36326e-17
1.42376e-17
5.6392e-18
0
-8.74053e-19
5.34591e-19
1.11699e-18
-2.89967e-19
-1.75622e-19
1.96298e-19
-2.08801e-19
-2.78609e-20
0
0
0
2.77704e-17
-1.72895e-16
1.65837e-16
-1.16429e-17
-6.1446e-17
8.32199e-17
-3.50433e-17
0
0
4.6911e-18
-3.31148e-18
0
-3.12881e-19
6.05282e-19
-2.16763e-20
1.01615e-19
2.30402e-20
6.6572e-22
3.4821e-21
0
0
0
9.35703e-17
-6.45168e-17
3.75536e-17
-5.34739e-17
1.21836e-17
0
-1.79891e-18
1.72535e-18
-1.76341e-18
-1.80122e-19
2.46294e-20
-6.53887e-20
-4.76323e-21
-4.30114e-20
-1.21538e-20
-5.87106e-21
2.18824e-16
-3.60387e-16
1.56222e-16
0
2.06581e-17
-2.93123e-17
1.68992e-17
-1.30859e-17
0
-2.28636e-18
3.32728e-18
0
0
2.59443e-20
0
-8.08434e-20
5.15934e-20
3.27894e-21
1.00864e-20
2.43076e-16
0
-5.9571e-17
6.5822e-17
-2.58168e-17
5.11927e-17
-2.08231e-17
-9.00046e-18
9.09445e-18
-5.79941e-19
0
0
1.49995e-19
-1.68855e-19
-9.4743e-20
1.66316e-19
-3.31687e-20
1.28354e-20
0
1.36987e-16
8.06917e-17
-1.54867e-17
-6.36309e-17
-4.57221e-18
-2.31262e-17
7.15138e-18
1.45665e-17
-4.80638e-19
5.90831e-19
0
0
-1.5366e-19
0
1.12234e-19
-1.20063e-19
0
1.21881e-20
-3.19294e-21
-7.24872e-17
-4.06253e-17
3.82688e-17
-3.2437e-18
-1.17008e-18
2.45229e-18
0
-3.76902e-19
3.71713e-18
-3.1149e-18
0
4.36282e-19
-1.68596e-19
-2.98235e-19
-1.99849e-20
-1.34022e-20
0
-9.69407e-21
0
2.62385e-17
-4.65036e-17
2.70533e-18
1.53314e-17
9.16498e-18
-8.86293e-18
-3.77194e-18
4.19984e-18
-8.2179e-19
6.75191e-19
-3.48344e-19
3.59088e-19
0
4.757e-22
-1.34212e-20
4.93213e-20
-1.44775e-22
0
0
2.62395e-17
-2.61412e-17
-1.52454e-17
1.36995e-17
1.59807e-17
-1.60751e-17
-1.88614e-18
1.89266e-18
-8.29762e-19
8.37992e-19
-3.48394e-19
5.85881e-19
-1.61283e-19
-7.85368e-20
-1.63353e-20
6.90866e-21
1.14567e-20
2.7076e-21
-2.00101e-21
0
-5.75378e-18
2.61418e-17
-2.89169e-17
1.58624e-17
-1.43169e-17
0
4.94097e-18
-4.51835e-18
0
6.74664e-19
-8.25995e-19
-2.84706e-19
2.9839e-19
3.74418e-20
0
0
-9.70347e-21
3.42207e-21
1.04226e-16
-1.78704e-16
1.53823e-16
-1.10973e-16
3.95225e-17
-1.99523e-17
1.94552e-17
1.4242e-18
-3.56934e-18
3.129e-18
0
-9.19929e-19
8.38694e-19
-9.94347e-20
-3.66743e-20
4.31172e-20
2.80594e-20
9.42021e-21
-3.3065e-21
2.72027e-16
0
-6.81893e-17
5.32817e-17
4.52046e-18
-2.39165e-17
3.67766e-17
-2.43244e-17
8.23868e-18
-1.81682e-18
1.85967e-18
2.35018e-19
2.67015e-19
9.68504e-20
-5.46807e-20
-1.15678e-20
-6.02829e-20
0
4.39272e-21
1.90266e-16
-2.14275e-16
0
1.23873e-17
3.79058e-17
-3.52072e-17
3.88312e-18
2.50059e-18
8.43035e-19
9.72396e-19
0
0
-4.19557e-19
6.38787e-19
-2.00887e-19
-4.72132e-20
5.16906e-20
3.36891e-21
-7.96285e-21
4.99514e-17
1.89536e-16
-1.65109e-17
-8.16937e-17
7.28503e-17
5.7643e-18
-3.80034e-18
-2.44233e-18
4.73634e-18
-5.71932e-18
1.72786e-18
-1.76595e-18
9.55639e-20
-2.15001e-19
1.81183e-19
-1.22456e-19
0
0
4.21025e-21
0
4.31121e-17
-9.48947e-17
1.10336e-16
-5.34139e-17
5.32867e-17
0
6.91378e-18
-6.94546e-18
-2.46198e-18
3.31847e-18
0
4.86784e-19
-6.06801e-19
-6.24196e-20
0
-3.45684e-21
-3.62473e-21
-1.71181e-21
-4.80687e-16
2.09341e-16
0
-7.36599e-17
7.36526e-17
2.5095e-17
-1.60067e-17
3.35851e-18
0
-6.2432e-20
1.09734e-19
-2.90286e-19
-1.7594e-19
1.96661e-19
-2.09116e-19
0
1.46363e-20
1.61079e-21
-2.49606e-21
2.78271e-16
-2.57675e-16
0
1.95288e-17
1.28251e-17
-9.3054e-18
0
-3.51975e-18
-1.51918e-18
0
-2.3271e-19
0
2.00853e-19
0
0
1.41167e-20
3.72609e-20
-5.62781e-20
0
-2.30922e-19
3.59092e-17
-2.49468e-17
1.02743e-17
-5.84585e-17
1.81284e-17
0
4.10866e-19
9.75007e-19
0
-3.89107e-19
4.0263e-19
-4.22986e-19
2.1608e-20
0
-8.96831e-21
0
0
0
-2.09829e-19
0
2.30571e-17
0
-1.42149e-17
1.44409e-17
0
1.28515e-18
-5.30786e-19
1.31423e-18
-5.07722e-19
5.14883e-20
-4.14886e-20
1.02512e-20
-3.20361e-20
-3.15494e-21
0
1.96306e-22
0
9.67507e-17
-1.66213e-16
0
-1.19192e-17
6.83985e-18
0
0
-2.04876e-18
0
-2.57943e-19
-1.28475e-19
-4.73225e-20
3.80384e-20
0
1.6048e-21
0
0
-3.41678e-22
2.59015e-22
0
1.13345e-16
-8.76478e-17
1.10344e-17
-6.33374e-18
-1.12387e-18
2.44957e-18
1.37311e-18
-6.71518e-19
2.00802e-19
5.09101e-20
-1.61497e-20
5.4087e-20
-1.20004e-20
-6.1232e-21
8.5423e-22
-2.92771e-24
-5.54414e-23
-1.03796e-23
-2.6446e-16
9.08432e-17
0
0
1.73285e-18
-1.76212e-18
9.54273e-20
-2.1527e-19
4.2536e-19
8.69477e-20
-6.47614e-20
-9.37144e-21
-3.86204e-21
2.06564e-21
0
1.04756e-22
2.68346e-24
2.44496e-23
9.38166e-24
0
5.99867e-17
-4.07405e-17
1.04561e-17
4.26364e-18
-7.00987e-19
-8.69112e-19
-3.60018e-19
-4.83008e-19
7.16374e-20
-4.5425e-22
2.54755e-20
3.61149e-21
-1.16223e-21
1.23363e-21
2.22717e-22
-2.92475e-22
-2.25828e-23
0
-1.66358e-17
-5.12188e-17
1.17631e-17
6.29215e-18
-1.09892e-17
6.00274e-18
8.11315e-19
-8.29289e-19
1.92962e-19
-6.79874e-20
0
0
-3.06911e-21
4.31116e-21
-1.16093e-21
3.40251e-22
-3.67942e-22
3.32697e-23
-5.85505e-23
2.79489e-17
1.90358e-17
-1.10276e-17
2.58445e-18
-5.88228e-18
-2.53063e-18
0
0
0
0
0
0
2.25833e-21
-2.17739e-21
2.30283e-21
-2.03887e-22
2.88927e-22
5.98388e-23
-4.75655e-23
6.46124e-17
-5.85372e-17
7.01675e-17
-1.09075e-17
1.6877e-17
-3.30071e-18
4.67055e-18
-1.54788e-18
-1.87526e-19
1.91831e-19
0
6.87939e-21
-2.20627e-21
2.05622e-21
-1.43033e-21
-6.17248e-22
-4.1164e-22
4.61314e-23
3.45848e-23
1.04071e-16
1.87646e-17
0
-1.13915e-17
-3.81473e-18
6.56308e-18
-4.1978e-19
-7.4384e-19
2.55661e-19
-6.35591e-20
0
-5.44581e-21
0
-1.17041e-21
5.48816e-22
-2.19613e-22
-4.72746e-23
1.17628e-23
0
1.40349e-16
-1.98362e-17
4.89307e-17
-3.6973e-17
-3.42862e-18
5.89484e-18
-3.34437e-18
2.47047e-19
1.20081e-19
-8.50436e-20
5.43465e-20
0
0
2.21179e-21
-5.45068e-23
1.82281e-23
1.61747e-22
-4.17104e-23
0
-1.17886e-19
0
-1.28857e-17
4.51838e-17
-2.69273e-17
-1.12226e-17
5.75526e-18
-1.68336e-18
1.29086e-18
2.40668e-19
-8.46985e-20
2.15908e-20
-1.12153e-20
2.20356e-21
3.33688e-21
-1.79161e-22
-2.36045e-22
1.44215e-22
-2.7811e-23
3.0825e-16
-9.04179e-17
1.65127e-17
-6.2243e-17
8.61564e-18
-7.49332e-18
4.74279e-18
0
0
-2.94613e-20
-5.96375e-20
-8.39376e-21
0
-5.51358e-21
-1.9767e-21
7.04962e-22
-2.67078e-23
8.63726e-23
6.97387e-23
0
-7.6194e-17
8.37667e-17
-1.10735e-18
-4.09391e-17
5.20516e-18
-3.96941e-18
2.12906e-18
1.77967e-18
0
0
6.34485e-21
2.4237e-20
0
-3.80828e-21
-8.61347e-22
1.47907e-22
-6.83361e-23
-1.2144e-22
0
-3.67592e-17
3.12476e-17
5.77511e-17
1.78881e-17
-2.85076e-17
9.71786e-18
-2.24059e-18
1.46372e-18
-6.48048e-19
0
0
0
-1.62659e-20
1.67506e-22
-1.84399e-21
0
-2.53393e-23
1.04636e-22
-2.19793e-16
1.93811e-16
1.24136e-16
-1.45044e-16
3.44911e-17
-2.87815e-17
0
2.68675e-18
-3.08793e-18
1.07576e-18
-3.33783e-19
1.36355e-19
5.43909e-20
1.68226e-20
6.48521e-21
0
0
0
0
2.76354e-16
-1.21496e-16
0
0
-1.55939e-17
2.09901e-17
-1.26794e-17
-3.15008e-18
3.11457e-18
8.19455e-19
7.45259e-19
-1.41481e-19
3.23318e-20
5.56701e-21
3.46529e-21
1.39445e-21
2.42511e-21
-8.35372e-23
8.50901e-23
-2.66125e-16
2.14285e-16
7.18966e-17
-4.24496e-17
4.22386e-17
-2.56376e-17
-9.99486e-18
-4.97452e-18
0
-1.77917e-18
3.08961e-19
1.92457e-19
-6.97582e-20
-2.81445e-20
-4.6821e-21
-1.47133e-21
-1.38801e-21
0
0
-9.12924e-17
0
4.57067e-17
4.56281e-19
0
0
1.031e-17
5.133e-18
0
1.08711e-18
0
-2.72704e-19
-1.9849e-20
4.25351e-20
0
1.38677e-20
-1.4465e-21
1.47563e-21
0
2.10883e-16
0
7.78003e-17
-1.25071e-16
8.43943e-17
3.65657e-17
-4.72555e-18
0
7.09744e-19
1.89443e-18
0
-3.22783e-19
2.16763e-19
-1.22344e-19
-1.90588e-20
-1.00541e-20
-4.3952e-21
-1.58171e-21
-1.86477e-20
-1.6658e-16
2.32145e-16
-4.78158e-17
-9.19755e-17
-3.72426e-17
-2.11226e-17
-2.22201e-17
-4.15778e-18
1.4249e-18
4.46885e-19
-4.46045e-19
5.25234e-19
-1.52262e-19
1.9294e-19
-3.11978e-20
0
8.03552e-20
-7.68411e-20
1.63939e-20
4.33691e-16
-2.09144e-17
-2.1061e-16
1.11227e-16
-7.73937e-17
4.44594e-17
-4.53993e-18
-5.40064e-18
2.63063e-18
4.61008e-19
-2.35174e-19
-5.10713e-19
7.8069e-20
1.78915e-19
-2.85265e-20
2.88518e-20
-8.32285e-20
-1.41635e-19
-1.42006e-19
2.12904e-16
6.843e-17
9.33436e-17
-5.78042e-17
-2.7461e-17
8.04327e-18
-7.85593e-18
1.64272e-17
9.77801e-19
2.35571e-18
8.22695e-19
-5.77173e-19
0
-2.07374e-19
0
0
5.94215e-19
1.86234e-19
1.54389e-19
1.83415e-16
0
8.75237e-17
5.74311e-17
-3.23431e-17
1.91354e-17
0
-5.20223e-18
-4.48029e-18
-2.43411e-18
-8.29977e-19
5.83699e-19
0
0
0
0
-5.69399e-19
-1.30994e-18
0
-3.5813e-16
0
-1.72959e-17
-1.66686e-17
5.03029e-17
-1.19381e-17
-2.99341e-18
-3.59303e-18
4.46277e-18
0
7.62029e-19
-5.46898e-20
1.51692e-18
0
0
2.79988e-18
-2.304e-19
1.58484e-18
-1.71229e-18
2.40867e-16
4.95735e-17
-4.90618e-17
-3.05214e-17
-6.01069e-17
2.80987e-17
2.0065e-17
-1.65507e-18
-3.58571e-18
4.77718e-18
7.45864e-19
-5.3011e-18
-2.99886e-18
-4.23896e-18
-5.03791e-18
-3.2846e-18
6.52742e-18
-2.58939e-19
1.75375e-18
-6.74171e-17
2.32622e-17
-9.68289e-17
9.28515e-18
-9.25137e-18
0
-1.03148e-17
-3.81185e-18
-9.47713e-18
4.26288e-18
9.63407e-18
4.47956e-18
-1.59436e-18
-3.50957e-18
4.5511e-18
0
-1.84675e-17
-1.07359e-17
-1.94349e-19
1.5352e-16
-2.78671e-18
1.47071e-16
-5.05542e-17
3.96493e-19
7.95012e-19
2.03153e-17
-7.49465e-18
9.19126e-18
-8.67962e-18
-8.6481e-18
0
1.82313e-17
9.98404e-18
2.30248e-19
-3.57541e-19
1.21956e-17
1.08853e-17
0
-1.04396e-16
0
-7.96472e-18
5.21881e-17
2.76935e-18
8.17684e-18
-1.96446e-17
1.73742e-17
2.98898e-17
2.98033e-17
3.03369e-17
0
-1.77114e-17
0
1.65874e-18
-1.72275e-18
0
-2.75218e-19
1.69496e-17
8.51009e-17
1.60885e-17
-2.85407e-17
1.00698e-16
-2.8002e-17
0
0
-5.06603e-17
-2.89601e-17
-2.88728e-17
-7.09972e-17
-9.72874e-18
0
0
0
-5.50046e-18
5.82086e-18
4.93619e-17
-1.72663e-17
1.90297e-17
0
-8.94397e-17
-5.85561e-17
7.64386e-17
-8.28273e-17
-1.11563e-16
1.11335e-16
4.80949e-17
0
4.9603e-17
8.19498e-17
-1.65668e-17
1.03558e-16
-1.73658e-17
1.80735e-17
8.5666e-17
-4.69431e-17
0
-1.57446e-16
0
-1.33643e-16
1.25741e-16
0
1.77612e-16
7.6993e-17
-1.8896e-16
1.79604e-16
-2.5907e-20
-4.76608e-17
-7.93443e-17
0
1.63301e-16
-2.52721e-16
2.78565e-16
-3.56702e-16
0
0
1.61007e-16
-5.22334e-18
-1.17955e-17
-2.78465e-16
2.95357e-16
-1.34597e-16
1.34048e-16
1.32885e-16
-8.99372e-17
0
0
2.4936e-16
-2.53656e-16
-2.3818e-16
2.43365e-16
-2.44122e-16
2.71424e-16
-4.35322e-16
0
)
;

boundaryField
{
    up
    {
        type            calculated;
        value           nonuniform List<scalar> 
84
(
0
0
0
0
-1.01669e-17
1.63004e-17
-5.83264e-18
1.75387e-18
-1.61688e-18
0
-1.71607e-19
1.55142e-19
-2.1102e-20
1.31059e-20
4.49695e-21
2.26458e-21
0
0
-7.88404e-23
6.04874e-23
2.58949e-23
-2.51438e-23
1.43902e-24
0
9.32149e-24
8.8662e-24
-4.94e-23
0
6.72346e-23
-4.19619e-23
-5.296e-23
1.82548e-22
-1.42521e-22
0
2.05058e-21
3.15402e-21
-5.39786e-21
9.56121e-21
0
-2.92243e-21
0
0
-1.93847e-21
3.42207e-21
-3.3065e-21
4.39272e-21
-7.96285e-21
4.21025e-21
-1.71181e-21
-2.49606e-21
0
0
0
2.59015e-22
4.27046e-23
9.38166e-24
0
-5.85505e-23
-4.75655e-23
2.53015e-23
0
0
-2.7811e-23
6.97387e-23
-1.2144e-22
1.04636e-22
0
8.50901e-23
0
0
-1.86477e-20
1.63939e-20
-1.42006e-19
1.54389e-19
0
-1.71229e-18
1.75375e-18
-1.94349e-19
0
1.69496e-17
-1.72663e-17
0
0
0
)
;
    }
    low
    {
        type            calculated;
        value           nonuniform List<scalar> 
84
(
-3.23762e-16
3.07906e-16
-1.31059e-16
2.3526e-16
4.44017e-17
-1.15322e-17
9.61817e-17
2.77313e-17
0
3.71749e-16
-9.38979e-17
4.42709e-17
-7.13744e-17
-5.62273e-16
9.14371e-17
0
-8.43117e-17
2.18556e-17
-2.17071e-17
-5.15772e-17
3.41331e-17
7.59952e-17
1.7048e-16
-1.22921e-16
0
-2.32304e-17
-1.20553e-17
0
-1.12886e-16
-3.63926e-17
-1.3975e-16
-1.50843e-16
1.63288e-16
5.03314e-17
3.48466e-16
2.77704e-17
0
2.18824e-16
2.44962e-16
1.37949e-16
-7.29777e-17
2.62385e-17
2.62395e-17
0
1.04226e-16
2.73913e-16
1.90266e-16
5.16454e-17
0
-4.81759e-16
2.78271e-16
-2.30922e-19
-2.09829e-19
9.67507e-17
0
-2.63713e-16
0
-1.66358e-17
2.79489e-17
6.41602e-17
1.03714e-16
1.40261e-16
-1.17886e-19
3.08595e-16
0
0
-2.19793e-16
2.77195e-16
-2.67098e-16
-9.12924e-17
2.12078e-16
-1.6658e-16
4.37308e-16
2.1494e-16
1.83415e-16
-3.5813e-16
2.39073e-16
-6.54226e-17
1.5352e-16
-1.03394e-16
8.51009e-17
2.14156e-17
-1.57446e-16
1.61677e-16
)
;
    }
    left
    {
        type            calculated;
        value           nonuniform List<scalar> 
19
(
-3.22422e-16
-1.44091e-16
1.60054e-16
1.64211e-17
-2.76785e-16
0
-1.13441e-16
-1.12482e-16
-2.42327e-17
-6.65723e-17
5.46271e-21
-6.78234e-17
3.27145e-16
-6.98465e-17
3.15636e-16
2.79109e-16
1.67977e-16
2.55931e-16
0
)
;
    }
    right
    {
        type            calculated;
        value           nonuniform List<scalar> 
19
(
1.61007e-16
-5.19873e-18
-1.17955e-17
-2.79465e-16
2.96716e-16
-1.34597e-16
1.34048e-16
1.32885e-16
-8.80906e-17
0
0
2.53544e-16
-2.58165e-16
-2.3818e-16
2.43365e-16
-2.44122e-16
2.71424e-16
-4.69767e-16
0
)
;
    }
    frontAndBackPlanes
    {
        type            empty;
    }
}


// ************************************************************************* //
