/*--------------------------------*- C++ -*----------------------------------*\
  =========                 |
  \\      /  F ield         | OpenFOAM: The Open Source CFD Toolbox
   \\    /   O peration     | Website:  https://openfoam.org
    \\  /    A nd           | Version:  7
     \\/     M anipulation  |
\*---------------------------------------------------------------------------*/
FoamFile
{
    version     2.0;
    format      ascii;
    class       volScalarField;
    location    "0.2";
    object      gradTz;
}
// * * * * * * * * * * * * * * * * * * * * * * * * * * * * * * * * * * * * * //

dimensions      [0 -1 0 1 0 0 0];

internalField   nonuniform List<scalar> 
1596
(
-1.61359e-16
-7.82208e-17
7.97332e-17
1.96073e-18
-1.51226e-16
0
-7.02072e-17
-6.92338e-17
-4.94056e-18
-3.66619e-17
-3.10748e-19
-3.65431e-17
1.61318e-16
-3.62191e-17
1.69096e-16
1.46034e-16
8.68946e-17
1.09822e-16
0
1.60952e-16
0
2.2516e-16
-1.74804e-18
-6.83283e-17
6.76655e-17
1.40443e-16
4.7324e-18
6.63482e-17
-3.20602e-17
6.4038e-17
-9.01653e-19
-8.89456e-17
-5.56712e-17
-1.3668e-16
-1.33474e-16
-1.21511e-16
6.9226e-17
0
-7.8531e-17
0
-1.46046e-16
2.77212e-18
1.32385e-16
-3.79196e-17
3.28393e-18
-9.12644e-19
-8.92771e-19
-9.26124e-19
2.36136e-17
0
4.61291e-17
1.30574e-16
-1.28943e-17
1.04479e-17
2.45368e-17
3.85508e-17
0
1.23873e-16
-3.66755e-17
3.65416e-17
0
-3.49672e-17
-3.64136e-17
6.0762e-17
-5.2139e-17
0
0
-1.98963e-17
1.23411e-17
0
-3.82947e-17
-4.84607e-17
3.37214e-17
-3.51267e-17
-1.80459e-18
0
2.16999e-17
5.67334e-17
-5.03594e-17
0
-1.4608e-17
-4.4642e-17
0
6.61178e-17
-6.53075e-18
-5.91708e-18
-6.59696e-18
3.40731e-17
4.22858e-17
4.46011e-18
2.14047e-18
-3.64565e-17
1.83168e-18
1.69244e-17
-7.33968e-18
-5.63511e-18
-7.77583e-17
7.30657e-17
-6.27281e-17
-1.49129e-19
-5.41544e-17
1.51818e-18
-1.52322e-18
-4.19162e-17
0
-5.50617e-18
-4.03705e-17
-3.81706e-17
3.0613e-17
3.27479e-17
-4.44572e-19
-1.96529e-17
-1.71662e-17
1.31721e-17
4.70936e-17
-7.89992e-17
8.7159e-17
4.81768e-17
0
4.16933e-17
2.40729e-17
-1.15357e-17
5.30589e-17
-9.87956e-18
-4.22534e-17
3.5808e-19
-2.4709e-17
-3.07512e-17
-2.37012e-17
2.04225e-17
1.98259e-17
-2.66256e-19
-5.46875e-18
5.25391e-18
1.25818e-16
-1.45405e-16
0
0
-5.06526e-17
0
0
0
3.3342e-17
0
0
2.27602e-17
7.82722e-19
6.78688e-18
-1.79073e-17
0
9.52867e-18
3.78882e-18
0
-8.08062e-17
1.54849e-16
0
0
5.21651e-17
0
-1.91285e-17
1.91092e-17
-3.39374e-17
1.39301e-17
-1.40319e-17
0
2.01997e-17
2.04866e-17
0
-1.18034e-17
-9.73343e-18
-3.32008e-18
1.9913e-16
-9.25876e-17
0
-6.2449e-17
6.17501e-17
0
4.34879e-17
0
0
0
1.25829e-17
-1.26432e-17
0
-1.56507e-17
-4.41628e-18
0
1.60555e-18
6.62955e-18
0
-5.05541e-17
0
0
6.26085e-17
-1.15723e-16
6.87766e-18
2.62868e-18
-1.73454e-17
2.21231e-18
8.68822e-19
-1.30796e-17
-2.05228e-17
0
1.54369e-17
-3.17074e-18
3.21832e-18
8.76518e-18
-5.23391e-18
-2.36815e-18
4.07541e-17
-5.11087e-18
3.91903e-17
1.30898e-16
-8.16351e-18
-5.34194e-17
0
0
0
2.69553e-17
1.04959e-17
3.75414e-17
-9.0453e-18
-1.51607e-17
-8.7419e-18
-4.91382e-18
2.2031e-18
-4.83506e-18
2.24493e-18
-4.5901e-17
4.50226e-17
-8.25038e-17
-1.29339e-16
1.18555e-16
4.51062e-17
-8.24689e-17
6.95908e-17
-5.86684e-17
1.53595e-17
1.13047e-17
-1.01656e-17
6.19042e-18
-5.71737e-18
1.69191e-17
0
-1.29456e-18
9.64626e-18
-1.44071e-18
-3.0141e-16
1.37198e-16
1.08229e-19
-2.84221e-17
4.31252e-18
4.37734e-17
-8.25808e-17
-3.28668e-17
2.72688e-17
-2.25134e-17
-1.86868e-17
0
-2.06228e-17
-6.08637e-18
-1.06528e-17
-6.31831e-18
4.95764e-19
-5.84103e-18
1.88546e-19
4.92605e-17
-4.32819e-17
7.34961e-20
-3.21334e-17
-7.78471e-17
7.27893e-17
3.71653e-19
3.20286e-17
-2.65498e-17
4.30269e-17
1.00863e-17
8.03713e-18
2.39337e-17
0
1.93649e-17
8.89002e-18
0
3.11365e-18
1.53713e-19
0
4.19884e-17
3.18304e-17
-6.69167e-17
7.53623e-17
-1.11302e-16
7.71645e-17
2.7649e-17
-4.78655e-18
-4.27274e-17
7.41034e-18
-7.37377e-18
-2.14707e-17
8.26397e-18
-4.21965e-18
-8.69013e-18
3.65788e-18
-2.28762e-18
9.52686e-19
-4.58726e-17
1.52263e-16
-1.1378e-16
5.98987e-17
0
0
-1.46087e-17
3.15802e-17
-2.10676e-17
3.91748e-17
0
0
1.42621e-17
-1.22613e-17
-8.34408e-18
2.64448e-18
-2.85905e-18
1.52693e-18
0
4.35706e-18
4.29069e-17
-3.35042e-17
-2.87948e-17
-4.47098e-17
-1.31028e-17
1.9795e-17
0
-1.96542e-17
-1.52875e-17
1.3491e-17
-1.06037e-17
8.29677e-18
0
3.22563e-18
6.0175e-18
0
0
0
-4.19266e-18
6.62761e-17
2.39758e-17
-8.7204e-17
2.32557e-17
1.94538e-17
0
0
1.8404e-17
-9.65297e-18
-1.30487e-17
1.02557e-17
-8.0236e-18
0
-1.98163e-18
1.59852e-18
0
-1.36914e-18
-4.82712e-19
-3.62091e-17
1.06265e-16
-1.27121e-16
-4.88334e-17
2.58884e-17
-1.82741e-17
1.4843e-17
0
-9.39697e-18
7.61657e-18
0
0
3.02978e-18
-3.03327e-18
8.55688e-19
-1.21223e-18
1.90341e-18
2.76439e-19
3.61882e-19
1.89281e-17
-1.67789e-17
8.35744e-17
-5.37206e-17
-2.09063e-17
3.11399e-18
3.09651e-17
1.11142e-17
8.99149e-18
0
4.67489e-18
-4.29894e-18
3.28361e-18
-2.68162e-18
3.23689e-18
-5.48906e-18
-1.48136e-18
1.28257e-18
3.32645e-19
5.00924e-17
-5.10789e-17
0
4.37528e-17
-2.33539e-17
-1.64407e-17
1.04905e-17
-3.42664e-17
0
-6.2663e-19
-5.57351e-18
-3.7692e-18
5.19207e-18
-4.58041e-19
-3.1284e-18
2.24894e-18
0
7.69766e-19
-3.22995e-19
8.70575e-17
-1.50314e-17
6.19796e-17
-4.84273e-17
2.49961e-17
1.58038e-18
-2.78146e-17
-8.76351e-18
1.54776e-17
-7.61909e-19
-8.11633e-18
6.66345e-18
-2.83851e-18
-3.48853e-18
0
0
0
-7.76642e-19
2.84604e-20
-7.64827e-17
7.42191e-17
5.5316e-20
1.07283e-17
8.95365e-18
-2.06208e-17
2.37123e-17
-1.86923e-17
1.5377e-17
-4.69489e-18
8.8376e-18
2.94788e-18
-1.21363e-18
5.81483e-20
-3.83576e-19
-6.73213e-19
0
0
0
0
0
3.47898e-17
-1.8049e-17
-5.14471e-17
0
0
-5.44016e-18
-8.34911e-18
6.7064e-18
0
-3.71781e-18
2.75178e-18
-8.69797e-18
9.88211e-18
-3.04654e-18
3.23259e-18
3.44154e-19
0
-1.48093e-17
1.49916e-17
0
-1.14402e-17
1.15536e-17
1.83263e-17
0
5.4921e-18
6.59023e-18
-3.01894e-17
0
-4.24299e-18
3.16384e-18
2.12889e-18
-1.52055e-18
2.17163e-18
0
-7.61862e-19
0
-7.61974e-18
-7.45729e-18
4.41139e-19
1.17546e-17
-3.0716e-17
0
-7.42247e-18
0
1.93388e-17
7.42198e-18
0
1.68328e-17
-1.70968e-17
1.86832e-18
-3.31547e-18
1.13831e-18
4.20108e-18
1.5184e-18
-1.2038e-18
0
1.56232e-17
-1.32953e-17
1.64227e-17
1.90221e-17
0
1.50108e-17
-1.39951e-17
-1.04284e-17
1.48933e-17
-2.22721e-17
-1.02594e-17
0
0
1.96582e-18
0
0
5.27162e-19
0
-6.98904e-17
5.37898e-17
0
9.53626e-19
-1.09996e-17
-5.89217e-19
9.41e-18
6.30198e-18
-8.22731e-18
-1.92886e-17
2.92874e-17
-8.02343e-18
0
-3.46627e-18
0
0
0
-2.04656e-18
1.63799e-18
-1.99141e-17
1.839e-17
4.80283e-17
-4.66193e-17
1.40499e-17
8.93162e-19
-9.55239e-18
7.9848e-18
1.31413e-17
9.65563e-18
-1.9021e-17
0
8.9563e-18
8.95579e-19
-3.9692e-18
-8.21866e-18
6.71751e-18
-1.00937e-18
1.94772e-18
-6.79165e-17
9.51318e-17
-9.40209e-17
1.6154e-17
1.33303e-17
-1.25386e-17
1.04027e-17
-7.9507e-18
0
-6.41247e-18
9.78413e-18
4.2232e-18
6.62946e-18
7.91705e-18
-1.17384e-17
-2.94351e-19
0
-8.12783e-19
2.74588e-19
-7.3429e-17
-2.14176e-17
-3.67322e-17
1.97193e-17
-3.10472e-17
2.63582e-17
-1.55347e-17
1.27186e-17
-1.0264e-18
-1.01358e-18
-1.05176e-17
6.33534e-18
-3.17508e-18
9.83561e-18
-1.05586e-17
1.16081e-18
1.07115e-18
0
-4.8341e-19
7.93929e-17
-2.31406e-17
0
0
-3.19352e-17
6.17047e-17
-1.42132e-17
-2.6194e-18
2.1193e-17
-5.66679e-19
0
0
-4.45394e-18
0
-9.35315e-18
2.23333e-17
-1.53691e-17
0
1.98106e-19
2.69635e-17
4.97991e-17
0
-2.06932e-17
-1.63717e-17
-1.4081e-17
-1.48346e-17
5.95761e-18
-1.64559e-17
-8.74134e-18
0
0
6.27996e-18
0
0
-1.2942e-17
2.14065e-17
0
0
1.85087e-16
-2.27933e-17
-1.10176e-16
-5.84367e-17
7.94047e-17
2.47265e-17
1.4384e-17
0
-5.10767e-18
4.80849e-18
1.2009e-17
-3.83396e-18
-5.51072e-18
8.49701e-18
-9.03822e-18
-2.68553e-18
0
0
0
1.48218e-17
-1.15312e-16
1.12908e-16
-1.06564e-17
-8.08927e-17
1.25762e-16
-6.27009e-17
0
0
3.17383e-17
-2.59088e-17
0
-7.55221e-18
1.3231e-17
-1.43104e-18
3.81036e-18
1.14855e-18
1.37595e-20
2.46822e-19
0
0
0
9.31629e-17
-6.25683e-17
6.41187e-17
-9.96002e-17
2.81316e-17
0
-9.82935e-18
1.54842e-17
-1.58258e-17
-3.03601e-18
-9.02812e-21
-2.04688e-18
-2.86567e-19
-1.63473e-18
-4.6264e-19
-2.50659e-19
1.23668e-16
-2.19533e-16
1.03559e-16
0
2.70063e-17
-3.68478e-17
3.61631e-17
-2.86706e-17
0
-1.35388e-17
1.89819e-17
0
0
-1.72711e-21
0
-2.17109e-18
1.48011e-18
2.59436e-19
4.0166e-19
1.21086e-16
0
-4.69839e-17
5.24552e-17
-3.22895e-17
7.02931e-17
-3.30552e-17
-2.53656e-17
2.56305e-17
-2.57773e-18
0
0
1.61868e-18
-2.69053e-18
-1.88669e-18
3.56713e-18
-7.72032e-19
3.90386e-19
0
6.87137e-17
5.28912e-17
-2.22852e-18
-5.0087e-17
-4.98628e-18
-3.55189e-17
4.11569e-18
2.95689e-17
-1.51038e-18
2.62613e-18
0
0
-1.65823e-18
0
1.94055e-18
-2.07593e-18
0
2.65367e-19
-7.33353e-20
-3.64646e-17
-2.65495e-17
2.48691e-17
-2.81081e-18
-1.25083e-18
3.3471e-18
0
-8.69697e-19
1.28703e-17
-1.08384e-17
0
3.60097e-18
-7.21195e-19
-3.16416e-18
-2.88326e-19
-2.24333e-19
0
-2.07646e-19
0
1.47956e-17
-2.80374e-17
-2.66357e-19
1.19084e-17
1.07229e-17
-1.06423e-17
-7.42165e-18
8.39633e-18
-2.83905e-18
2.22434e-18
-2.13073e-18
2.19644e-18
0
5.54837e-21
-2.12787e-19
7.63606e-19
-2.60903e-21
0
0
1.47961e-17
-1.47407e-17
-1.18458e-17
1.05006e-17
1.89339e-17
-1.90457e-17
-3.71096e-18
3.7199e-18
-2.86316e-18
2.89317e-18
-2.13082e-18
4.01138e-18
-1.12514e-18
-8.04254e-19
-2.4537e-19
8.16854e-20
1.93758e-19
5.11612e-20
-3.83614e-20
0
-3.49582e-18
2.0613e-17
-2.23619e-17
1.88846e-17
-1.6753e-17
0
1.29869e-17
-1.16264e-17
0
4.23191e-18
-5.3525e-18
-3.01947e-18
3.16459e-18
5.77184e-19
0
0
-2.07689e-19
7.54164e-20
5.88596e-17
-1.07996e-16
1.09301e-16
-9.51539e-17
3.72724e-17
-3.1088e-17
2.95282e-17
3.45253e-18
-1.27313e-17
1.13679e-17
0
-8.07297e-18
7.35839e-18
-1.38166e-18
-5.65352e-19
8.79606e-19
6.45237e-19
2.01626e-19
-7.28694e-20
1.36465e-16
0
-5.31816e-17
4.13499e-17
4.929e-18
-3.73487e-17
6.59083e-17
-5.79494e-17
2.2658e-17
-9.51239e-18
9.73676e-18
1.91322e-18
3.23743e-18
1.34575e-18
-1.09955e-18
-1.49996e-19
-1.39464e-18
0
1.40501e-19
1.08494e-16
-1.22127e-16
0
1.0962e-17
4.6599e-17
-4.55393e-17
7.64126e-18
6.69822e-18
2.91325e-18
5.04754e-18
0
0
-5.62206e-18
1.04371e-17
-3.79819e-18
-1.35239e-18
1.48064e-18
1.18019e-19
-2.66331e-19
1.09831e-17
1.07303e-16
-1.22171e-17
-8.22756e-17
7.22755e-17
8.51294e-18
-7.47836e-18
-6.54217e-18
2.11422e-17
-2.62176e-17
1.549e-17
-1.58315e-17
2.40274e-18
-3.12506e-18
5.55344e-18
-3.71201e-18
0
0
2.59584e-19
0
2.6747e-17
-7.90866e-17
9.04558e-17
-7.149e-17
7.13198e-17
0
2.38193e-17
-2.39284e-17
-1.75636e-17
2.59301e-17
0
1.04715e-17
-1.32422e-17
-1.95044e-18
0
-2.13903e-19
-4.12819e-19
-1.52096e-20
-2.56433e-16
1.21671e-16
0
-7.93928e-17
7.93848e-17
4.74788e-17
-3.1168e-17
1.25023e-17
0
-5.4577e-19
3.88598e-18
-3.8292e-18
-5.50427e-18
8.48609e-18
-9.02353e-18
0
1.87564e-18
-3.82263e-19
-2.56342e-19
1.57251e-16
-1.54179e-16
0
2.05971e-17
1.84604e-17
-1.67102e-17
0
-1.31025e-17
-1.09709e-17
0
-6.27104e-19
0
6.28365e-18
0
0
2.6333e-18
9.82315e-18
-1.27627e-17
0
1.60364e-20
2.3152e-17
-2.10771e-17
1.67016e-17
-8.51295e-17
3.22996e-17
0
2.62151e-18
7.39523e-18
0
-7.33652e-18
2.05638e-17
-2.16035e-17
3.486e-18
0
-4.70196e-19
0
0
0
1.74066e-20
0
1.94805e-17
0
-2.89325e-17
2.93924e-17
0
9.95758e-18
-7.77711e-18
2.77986e-17
-1.33215e-17
4.59987e-18
-7.2394e-18
6.68933e-18
-1.05739e-17
-1.66495e-18
0
-1.0066e-18
0
6.08454e-17
-1.02974e-16
0
-1.61101e-17
1.41852e-17
0
0
-1.80987e-17
0
-6.41793e-18
-9.79312e-18
-4.2277e-18
6.63737e-18
0
3.28295e-18
0
0
2.17312e-18
-2.36764e-18
0
8.81502e-17
-7.04631e-17
1.49143e-17
-1.31356e-17
-5.20785e-18
1.48495e-17
1.62317e-17
-1.91587e-17
6.15182e-18
5.83127e-19
-5.25953e-18
2.13486e-17
-6.61075e-18
-1.46389e-17
4.9591e-18
-1.21408e-18
7.32468e-19
-2.11788e-19
-1.45678e-16
5.37941e-17
0
0
5.51894e-18
-5.61214e-18
3.76328e-18
2.26913e-18
1.71308e-17
8.43669e-18
-8.23615e-18
-4.36166e-19
-4.30177e-18
3.47012e-18
0
1.57902e-18
1.11279e-18
5.71384e-19
1.91427e-19
0
4.60829e-17
-4.24425e-17
1.34959e-17
1.3477e-17
-2.58057e-18
-8.03518e-18
-6.67077e-18
-2.13233e-17
8.26918e-18
-4.70101e-18
6.68692e-18
4.02269e-18
-4.74742e-18
5.0391e-18
2.99479e-18
-3.95671e-18
-5.27757e-19
0
-8.3135e-18
-3.67264e-17
1.29103e-17
1.17579e-17
-3.94129e-17
2.79017e-17
1.31956e-17
-1.34879e-17
9.89785e-18
-7.84787e-18
0
0
-5.74764e-18
1.01754e-17
-4.40188e-18
3.89592e-18
-4.27178e-18
6.7957e-19
-1.20516e-18
1.55208e-17
1.43163e-17
-1.28033e-17
9.59723e-18
-1.14571e-17
-1.66393e-17
0
0
0
0
0
0
2.92717e-18
-7.40119e-18
7.82756e-18
-2.40268e-18
2.96986e-18
1.35317e-18
-1.14275e-18
3.23062e-17
-5.36403e-17
6.69947e-17
-3.00772e-17
4.17583e-17
-2.88761e-17
5.3151e-17
-2.93615e-17
-1.47406e-17
1.5079e-17
0
3.71568e-18
-2.85969e-18
6.6213e-18
-2.35891e-18
-2.83541e-18
-5.65793e-18
4.36834e-19
9.65344e-19
5.03613e-17
1.42192e-17
0
-2.13863e-17
-1.62962e-17
3.6836e-17
3.2664e-18
-1.40029e-17
8.16687e-18
-5.49408e-18
0
-2.94138e-18
0
-2.21974e-18
1.76242e-18
-1.53882e-18
-5.02834e-19
3.45509e-19
0
7.02252e-17
-1.50312e-17
6.19602e-17
-4.84282e-17
-9.42445e-18
3.57971e-17
-2.14598e-17
1.19295e-18
9.54441e-19
-5.35073e-18
5.11506e-18
0
0
2.74591e-18
-9.37002e-19
5.891e-19
1.82121e-18
-6.3378e-19
0
1.46505e-20
0
-1.38306e-17
7.92696e-17
-5.32321e-17
-5.43131e-17
2.96193e-17
-2.9193e-17
2.6774e-17
1.26727e-17
-9.19933e-18
3.63338e-18
-3.17784e-18
5.95514e-19
4.87452e-18
1.31106e-19
-1.75078e-18
1.72841e-18
-3.58932e-19
1.69919e-16
-5.39774e-17
2.52899e-17
-7.86605e-17
2.09062e-17
-3.16814e-17
1.72161e-17
0
0
-6.47669e-19
-9.09166e-19
-2.68051e-19
0
-4.38242e-18
-3.23698e-18
2.32389e-18
-1.69375e-19
3.3056e-19
7.22245e-19
0
-5.3196e-17
8.83093e-17
1.85346e-17
-7.02621e-17
1.8274e-17
-2.70909e-17
5.15747e-18
2.14302e-17
0
0
3.86026e-19
3.96294e-18
0
-3.3302e-18
-1.47236e-18
2.18025e-19
-7.37519e-19
-8.68604e-19
0
-3.30344e-17
8.37594e-18
5.95308e-17
4.28325e-17
-7.77997e-17
3.49274e-17
-2.31437e-17
1.2514e-17
-1.64802e-17
0
0
0
-6.23617e-18
1.51225e-18
-1.99136e-18
0
-1.21925e-19
6.06775e-19
-1.27322e-16
1.20227e-16
1.25418e-16
-1.51982e-16
6.88816e-17
-6.43934e-17
0
2.45077e-17
-3.31609e-17
1.87876e-17
-1.4155e-17
1.12626e-17
8.92993e-18
6.44957e-18
4.97849e-18
0
0
0
0
1.41894e-16
-8.0677e-17
0
0
-2.53677e-17
6.00871e-17
-3.83628e-17
-2.60592e-17
2.57655e-17
1.83559e-17
3.00904e-17
-1.1686e-17
4.99806e-18
3.66328e-18
2.63088e-18
2.20102e-18
3.52037e-18
-1.71784e-19
1.74977e-19
-1.43302e-16
1.30741e-16
6.81719e-17
-3.57096e-17
7.53064e-17
-4.82031e-17
-3.69594e-17
-3.05263e-17
0
-3.87079e-17
2.17915e-18
1.36619e-17
-1.03416e-17
-8.264e-18
-3.03624e-18
-3.11687e-18
-2.50141e-18
0
0
-4.92993e-17
0
3.73843e-17
-3.75032e-20
0
0
3.81248e-17
3.14988e-17
0
2.11258e-17
0
-2.07417e-17
-5.8123e-18
1.02189e-17
0
6.56791e-18
-9.21474e-19
9.40027e-19
0
1.05441e-16
0
7.14801e-17
-1.31697e-16
1.16043e-16
9.11651e-17
-3.24659e-18
0
2.63186e-18
2.51127e-17
0
-2.38395e-17
2.61912e-17
-2.32448e-17
-5.04988e-18
-5.24756e-18
-1.58618e-18
-2.90769e-19
-1.08505e-18
-9.7109e-17
1.39627e-16
-3.88938e-17
-1.00325e-16
-5.71188e-17
-4.84989e-17
-8.21194e-17
-3.20116e-17
2.95483e-18
1.1326e-17
-1.13047e-17
3.52939e-17
-1.55991e-17
3.0931e-17
-5.78832e-18
0
6.84673e-18
-4.10557e-18
1.0837e-18
2.16845e-16
-5.16133e-18
-1.61303e-16
1.30899e-16
-1.16227e-16
9.96191e-17
-3.5992e-18
-3.65337e-17
3.13802e-17
1.21923e-17
-1.69328e-18
-2.92237e-17
8.28284e-18
9.32014e-18
-2.73235e-18
2.76351e-18
-7.09155e-18
-9.32018e-19
-1.81525e-18
1.06452e-16
4.4366e-17
7.70953e-17
-6.68333e-17
-5.39513e-17
3.26179e-18
-4.01389e-17
9.6876e-17
3.69835e-18
4.37638e-17
2.54324e-17
-2.2449e-17
0
-1.54368e-17
0
0
1.05941e-17
4.588e-18
2.10916e-18
9.93805e-17
0
7.60892e-17
6.64019e-17
-5.81949e-17
5.01076e-17
0
-3.78822e-17
-5.21905e-17
-4.49493e-17
-2.56575e-17
2.27028e-17
0
0
0
0
-9.94156e-18
-7.74795e-18
0
-1.94698e-16
0
-4.25105e-18
-3.76515e-18
8.88939e-17
-4.91452e-17
-2.23908e-17
-2.25274e-17
5.34682e-17
0
1.393e-17
-1.45458e-18
1.29498e-17
0
0
1.73616e-17
-1.30058e-18
9.30923e-18
-3.69927e-18
1.36659e-16
3.88478e-17
-3.84468e-17
-3.35121e-17
-1.14481e-16
7.78775e-17
9.31305e-17
-2.99044e-18
-3.67843e-17
3.68339e-17
7.67273e-18
-3.93808e-17
-3.18697e-17
-2.00709e-17
-2.13698e-17
-2.00328e-17
1.72779e-17
-8.10741e-19
3.78884e-18
-4.18179e-17
1.88213e-17
-9.03449e-17
1.52049e-17
-1.51495e-17
0
-4.64895e-17
-3.85356e-18
-4.32197e-17
4.35896e-18
4.22533e-17
3.07131e-17
-7.68128e-18
2.58677e-18
2.02805e-17
0
-3.63582e-17
-1.36118e-17
-2.8154e-19
8.56782e-17
-2.2984e-18
1.42167e-16
-6.72535e-17
1.49129e-19
1.76106e-18
5.27315e-17
-4.78547e-18
4.1916e-17
-3.92227e-17
-3.69695e-17
0
3.81705e-17
3.01339e-17
4.29338e-19
-6.25775e-19
1.98436e-17
1.38344e-17
0
-6.07833e-17
0
-1.40477e-17
6.42456e-17
1.00475e-18
1.46275e-17
-5.09905e-17
4.80499e-17
5.15901e-17
4.95165e-17
4.77663e-17
0
-3.70819e-17
0
2.02365e-18
-2.10174e-18
0
-2.04702e-19
1.0135e-17
4.24244e-17
2.46164e-18
-3.27295e-17
1.01427e-16
-3.2429e-17
0
0
-5.87695e-17
-4.99855e-17
-4.79704e-17
-8.81056e-17
-1.2341e-17
0
0
0
-4.21153e-18
4.45685e-18
2.87578e-17
-1.02907e-17
2.56553e-18
0
-7.13485e-17
-6.46463e-17
6.81448e-17
-6.77239e-17
-9.67456e-17
1.17839e-16
3.33155e-17
0
5.23191e-17
6.0256e-17
-1.30099e-17
7.10186e-17
-1.16583e-17
1.21335e-17
4.74409e-17
-2.7328e-17
0
-8.09267e-17
0
-7.71933e-17
7.55287e-17
0
1.35093e-16
6.3221e-17
-1.33591e-16
1.07557e-16
-6.47564e-19
-3.23885e-17
-5.83402e-17
0
8.17632e-17
-1.3668e-16
1.46812e-16
-1.87126e-16
0
0
8.06519e-17
-5.94846e-19
-1.46208e-18
-1.52684e-16
1.54379e-16
-7.44412e-17
7.41378e-17
7.30774e-17
-6.39689e-17
0
0
1.22446e-16
-1.24556e-16
-1.32601e-16
1.31619e-16
-1.2835e-16
1.38924e-16
-2.17717e-16
0
)
;

boundaryField
{
    up
    {
        type            calculated;
        value           nonuniform List<scalar> 
84
(
0
0
0
0
-7.33968e-18
1.31721e-17
-5.46875e-18
3.78882e-18
-3.32008e-18
0
-2.36815e-18
2.24493e-18
-1.44071e-18
1.88546e-19
1.53713e-19
9.52686e-19
0
0
-4.82712e-19
3.61882e-19
3.32645e-19
-3.22995e-19
2.84604e-20
0
1.28732e-19
6.58147e-20
-1.13559e-18
0
1.63799e-18
2.05927e-18
2.74588e-19
-4.8341e-19
1.98106e-19
0
-9.6034e-20
2.53918e-19
-2.49405e-19
4.00419e-19
0
-7.30777e-20
0
0
-3.8365e-20
7.54164e-20
-7.28694e-20
1.40501e-19
-2.66331e-19
2.59584e-19
-1.52096e-20
-2.56342e-19
0
0
0
-2.36764e-18
-3.23464e-19
1.91427e-19
0
-1.20516e-18
-1.14275e-18
8.37018e-19
0
0
-3.58932e-19
7.22245e-19
-8.68604e-19
6.06775e-19
0
1.74977e-19
0
0
-1.08505e-18
1.0837e-18
-1.81525e-18
2.10916e-18
0
-3.69927e-18
3.78884e-18
-2.8154e-19
0
1.0135e-17
-1.02907e-17
0
0
0
)
;
    }
    low
    {
        type            calculated;
        value           nonuniform List<scalar> 
84
(
-1.6149e-16
1.60952e-16
-7.82921e-17
1.24066e-16
2.18298e-17
-5.6733e-18
4.74129e-17
5.55819e-18
0
1.99484e-16
-5.05541e-17
4.0555e-17
-4.5901e-17
-3.01425e-16
4.92605e-17
0
-4.58726e-17
4.35706e-18
-4.19266e-18
-3.62091e-17
1.89281e-17
5.00924e-17
8.67035e-17
-7.64827e-17
0
-1.48093e-17
-7.61974e-18
0
-6.98904e-17
-1.99141e-17
-6.76947e-17
-7.32583e-17
7.92838e-17
2.69635e-17
1.85111e-16
1.48218e-17
0
1.23668e-16
1.21373e-16
6.88691e-17
-3.65471e-17
1.47956e-17
1.47961e-17
0
5.88596e-17
1.36752e-16
1.08494e-16
1.11844e-17
0
-2.56457e-16
1.57251e-16
1.60364e-20
1.74066e-20
6.08454e-17
0
-1.4531e-16
0
-8.3135e-18
1.55208e-17
3.20858e-17
4.99778e-17
6.98711e-17
1.46505e-20
1.69633e-16
0
0
-1.27322e-16
1.41765e-16
-1.43222e-16
-4.92993e-17
1.05456e-16
-9.7109e-17
2.17244e-16
1.06728e-16
9.93805e-17
-1.94698e-16
1.36354e-16
-4.14986e-17
8.56782e-17
-6.06534e-17
4.24244e-17
2.80435e-18
-8.09267e-17
8.07171e-17
)
;
    }
    left
    {
        type            calculated;
        value           nonuniform List<scalar> 
19
(
-1.61359e-16
-7.82885e-17
7.97332e-17
1.9635e-18
-1.51275e-16
0
-7.02072e-17
-6.92338e-17
-5.18034e-18
-3.66619e-17
-3.10748e-19
-3.65431e-17
1.62931e-16
-3.62191e-17
1.69096e-16
1.46034e-16
8.68946e-17
1.27535e-16
0
)
;
    }
    right
    {
        type            calculated;
        value           nonuniform List<scalar> 
19
(
8.06519e-17
-5.27127e-19
-1.46208e-18
-1.52687e-16
1.54429e-16
-7.44412e-17
7.41378e-17
7.30774e-17
-6.37292e-17
0
0
1.23598e-16
-1.26169e-16
-1.32601e-16
1.31619e-16
-1.2835e-16
1.38924e-16
-2.3543e-16
0
)
;
    }
    frontAndBackPlanes
    {
        type            empty;
    }
}


// ************************************************************************* //
