/*--------------------------------*- C++ -*----------------------------------*\
  =========                 |
  \\      /  F ield         | OpenFOAM: The Open Source CFD Toolbox
   \\    /   O peration     | Website:  https://openfoam.org
    \\  /    A nd           | Version:  7
     \\/     M anipulation  |
\*---------------------------------------------------------------------------*/
FoamFile
{
    version     2.0;
    format      ascii;
    class       volScalarField;
    location    "0.1";
    object      gradTx;
}
// * * * * * * * * * * * * * * * * * * * * * * * * * * * * * * * * * * * * * //

dimensions      [0 -1 0 1 0 0 0];

internalField   nonuniform List<scalar> 
1596
(
-0.432252
-2.16467
-3.82579
-5.2314
-6.3501
-7.17544
-7.76835
-8.17355
-8.44519
-8.66386
-8.85304
-9.09819
-9.49228
-10.1631
-11.2557
-13.093
-16.1399
-21.366
-30.7584
0.118135
-1.73732
-3.35315
-4.679
-5.7297
-6.51055
-7.07641
-7.45762
-7.70063
-7.85569
-7.93708
-7.99595
-8.05529
-8.14898
-8.28419
-8.46511
-8.58873
-8.41737
-7.40924
0.578308
-1.28943
-2.79932
-4.00483
-4.95352
-5.66369
-6.18169
-6.53134
-6.74852
-6.86656
-6.89431
-6.86214
-6.77038
-6.62342
-6.40822
-6.10284
-5.62562
-4.8251
-3.3739
0.679682
-0.96753
-2.26743
-3.29894
-4.11248
-4.72983
-5.18549
-5.49814
-5.69369
-5.79378
-5.80546
-5.74572
-5.60819
-5.38623
-5.06319
-4.61417
-3.98538
-3.09207
-1.75172
0.31923
-0.875817
-1.86181
-2.6668
-3.31506
-3.81973
-4.20026
-4.46906
-4.64268
-4.73359
-4.74823
-4.69457
-4.56526
-4.34988
-4.03273
-3.58959
-2.98476
-2.17035
-1.04788
-0.438485
-1.05712
-1.66036
-2.19866
-2.6566
-3.03011
-3.32219
-3.53724
-3.68283
-3.76367
-3.78508
-3.74873
-3.64779
-3.47096
-3.20446
-2.82506
-2.30689
-1.61912
-0.706604
-1.41961
-1.48437
-1.69187
-1.94497
-2.19602
-2.42268
-2.61291
-2.76214
-2.8695
-2.93294
-2.95535
-2.93389
-2.86219
-2.72913
-2.52278
-2.22129
-1.80396
-1.24708
-0.515693
-2.41678
-2.05268
-1.91054
-1.89135
-1.93559
-2.00899
-2.08896
-2.16269
-2.222
-2.25908
-2.27335
-2.25863
-2.20844
-2.11217
-1.95945
-1.73034
-1.40734
-0.969814
-0.391731
-3.42686
-2.79598
-2.3694
-2.09434
-1.92596
-1.83054
-1.78208
-1.76208
-1.75657
-1.75262
-1.74515
-1.72494
-1.68436
-1.61295
-1.5012
-1.33132
-1.08795
-0.75225
-0.301975
-4.02503
-3.32868
-2.75441
-2.31036
-1.98291
-1.75067
-1.59202
-1.48742
-1.42022
-1.37453
-1.34154
-1.30998
-1.27101
-1.21439
-1.13125
-1.00628
-0.826203
-0.574347
-0.231209
-4.5223
-3.81745
-3.16579
-2.60421
-2.14801
-1.7939
-1.53018
-1.34049
-1.20811
-1.11573
-1.05138
-1.00201
-0.95728
-0.906725
-0.841672
-0.748885
-0.616861
-0.431116
-0.174647
-5.04796
-4.36376
-3.66734
-3.01483
-2.44445
-1.97246
-1.60047
-1.31892
-1.11337
-0.966261
-0.863091
-0.788857
-0.731267
-0.678972
-0.622884
-0.551182
-0.453697
-0.318008
-0.12955
-5.23445
-4.64361
-3.97292
-3.29686
-2.6706
-2.12707
-1.68081
-1.33096
-1.06767
-0.875153
-0.738254
-0.64106
-0.56999
-0.513045
-0.460752
-0.40242
-0.329053
-0.230259
-0.0940449
-5.33729
-4.83832
-4.21429
-3.54109
-2.88432
-2.29063
-1.78632
-1.37965
-1.06619
-0.832853
-0.664753
-0.545487
-0.460453
-0.396947
-0.344977
-0.294516
-0.237378
-0.16482
-0.0671454
-5.414
-4.99299
-4.41786
-3.75896
-3.08606
-2.45605
-1.9053
-1.45078
-1.09371
-0.824013
-0.62764
-0.487922
-0.389399
-0.318619
-0.26497
-0.218693
-0.172083
-0.117612
-0.0474373
-5.38266
-5.0458
-4.5281
-3.89832
-3.22791
-2.58074
-2.00106
-1.51343
-1.1244
-0.827077
-0.608731
-0.452803
-0.343335
-0.266312
-0.210611
-0.166565
-0.126763
-0.084544
-0.0334729
-5.22705
-4.97447
-4.52208
-3.9352
-3.28532
-2.64068
-2.05118
-1.54739
-1.14049
-0.82655
-0.594462
-0.428152
-0.311587
-0.230507
-0.173507
-0.131008
-0.0958242
-0.0619185
-0.0238758
-5.01965
-4.82468
-4.43198
-3.89194
-3.27225
-2.64284
-2.05735
-1.55068
-1.1376
-0.81671
-0.578388
-0.407232
-0.287406
-0.204662
-0.147528
-0.106563
-0.0747947
-0.0466468
-0.0174248
-4.85563
-4.70646
-4.35679
-3.85038
-3.25227
-2.63377
-2.05156
-1.54373
-1.12758
-0.803301
-0.562147
-0.389047
-0.2682
-0.18532
-0.128878
-0.0895248
-0.0604448
-0.0363858
-0.0131432
-4.47099
-4.3937
-4.10811
-3.65807
-3.10652
-2.52425
-1.96919
-1.48117
-1.0793
-0.765289
-0.531511
-0.363773
-0.246908
-0.167133
-0.113295
-0.0764234
-0.0500255
-0.0292169
-0.0102348
-4.00377
-3.98777
-3.76668
-3.37852
-2.88322
-2.3496
-1.83515
-1.37986
-1.00362
-0.709187
-0.48994
-0.332799
-0.223558
-0.149287
-0.0995082
-0.0658341
-0.0422068
-0.0241244
-0.00823604
-3.47961
-3.50563
-3.34313
-3.01944
-2.58861
-2.11513
-1.65392
-1.24345
-0.903329
-0.636908
-0.438566
-0.296591
-0.198091
-0.131344
-0.0868499
-0.0570216
-0.0363485
-0.0206911
-0.00697739
-2.85612
-2.90544
-2.7978
-2.54703
-2.19675
-1.80269
-1.4139
-1.06514
-0.774802
-0.546735
-0.37666
-0.254862
-0.170351
-0.113133
-0.0750997
-0.0497832
-0.0324126
-0.0192389
-0.00708422
-2.11113
-2.08058
-1.9425
-1.71648
-1.43961
-1.15115
-0.881729
-0.649906
-0.463412
-0.321236
-0.217982
-0.145898
-0.0970482
-0.0646881
-0.0435997
-0.0298463
-0.0205629
-0.0133673
-0.00579488
-1.41389
-1.54189
-1.60051
-1.56402
-1.43914
-1.25247
-1.03712
-0.821985
-0.627766
-0.464907
-0.336193
-0.239325
-0.168758
-0.118775
-0.0841996
-0.0608512
-0.0453601
-0.0350643
-0.0270465
-0.470735
-0.515305
-0.556499
-0.577027
-0.568612
-0.531535
-0.47266
-0.401401
-0.327786
-0.259262
-0.200156
-0.152485
-0.115316
-0.0871397
-0.0661571
-0.0510651
-0.0406079
-0.0339765
-0.0299524
0.479752
0.434056
0.342799
0.226334
0.108417
0.00809543
-0.0643848
-0.107369
-0.125781
-0.127049
-0.118197
-0.105222
-0.0910837
-0.0774583
-0.0649633
-0.0543006
-0.0457268
-0.0396709
-0.0360002
1.41453
1.35195
1.20577
1.00008
0.769241
0.546092
0.35407
0.204133
0.0965019
0.0248037
-0.0194552
-0.0451028
-0.0581962
-0.0629897
-0.06204
-0.0578091
-0.0521103
-0.0469537
-0.0433433
2.23213
2.13215
1.92913
1.64981
1.33262
1.01676
0.732835
0.497686
0.315668
0.182104
0.0884215
0.0244282
-0.0177663
-0.043962
-0.0576776
-0.06236
-0.0608891
-0.0569391
-0.0529251
3.03837
2.88119
2.6115
2.25802
1.86165
1.46476
1.10156
0.792147
0.543613
0.352686
0.211123
0.107951
0.0339918
-0.0175994
-0.0505472
-0.0683121
-0.0737392
-0.0718081
-0.0668393
3.59513
3.37825
3.05654
2.65747
2.21975
1.78278
1.37907
1.02841
0.739074
0.509183
0.331762
0.196234
0.0931479
0.0152727
-0.0405554
-0.0765993
-0.093528
-0.0958211
-0.0891948
4.07141
3.80533
3.43517
2.99588
2.52547
2.05972
1.62791
1.24809
0.928549
0.668193
0.461193
0.297454
0.16721
0.0623568
-0.0203377
-0.0821817
-0.119797
-0.133687
-0.127974
4.46787
4.1381
3.72014
3.24903
2.75878
2.27934
1.83505
1.44086
1.10418
0.824297
0.596561
0.411769
0.260096
0.132141
0.0232021
-0.069582
-0.13974
-0.180979
-0.185585
4.66103
4.24172
3.76108
3.25124
2.74055
2.25227
1.80491
1.40938
1.07099
0.788416
0.556962
0.367951
0.211388
0.0764139
-0.0448078
-0.159848
-0.266313
-0.3581
-0.420814
4.71939
4.27115
3.79828
3.32241
2.8589
2.41975
2.01495
1.65079
1.33107
1.05585
0.823118
0.628334
0.465202
0.326379
0.204529
0.0897896
-0.0250524
-0.146927
-0.277889
4.72347
4.26682
3.81434
3.37094
2.94209
2.53452
2.15497
1.80855
1.49905
1.22746
0.993191
0.793959
0.625456
0.48317
0.362765
0.259187
0.168011
0.0844369
0.00270187
4.35933
3.84307
3.36468
2.91815
2.50337
2.12282
1.77909
1.47352
1.20646
0.976103
0.779842
0.614195
0.474368
0.35597
0.255329
0.169073
0.094975
0.0321231
-0.0204765
3.74592
3.29027
2.87385
2.49001
2.13724
1.81609
1.52739
1.27124
1.04721
0.853369
0.687398
0.546406
0.426499
0.324146
0.23637
0.160315
0.0938816
0.0359914
-0.0144945
3.05738
2.68432
2.3414
2.02633
1.73846
1.47788
1.24465
1.03824
0.857886
0.701691
0.567644
0.453325
0.355582
0.271586
0.198994
0.135537
0.079582
0.030364
-0.0129624
2.27087
1.98793
1.73041
1.49604
1.28351
1.09215
0.921432
0.770577
0.638755
0.524411
0.426022
0.341794
0.269435
0.206908
0.152569
0.104809
0.0625137
0.0252195
-0.0076285
1.41681
1.2288
1.06398
0.917216
0.785795
0.668355
0.564044
0.472089
0.39181
0.322148
0.262128
0.210621
0.166219
0.12768
0.0940155
0.0642573
0.0377558
0.0142775
-0.00646784
0.540225
0.462596
0.397573
0.340793
0.290431
0.245703
0.206194
0.171566
0.141523
0.115628
0.0934682
0.0745753
0.0583836
0.0443895
0.0321856
0.0213783
0.0116958
0.00302517
-0.00474872
-0.539965
-0.461999
-0.396745
-0.339819
-0.28938
-0.244629
-0.205139
-0.170562
-0.140592
-0.114783
-0.0927173
-0.0739217
-0.0578283
-0.0439321
-0.0318248
-0.0211132
-0.0115254
-0.00294724
0.00473689
-1.41656
-1.22827
-1.06325
-0.916354
-0.784868
-0.667411
-0.563121
-0.471215
-0.391005
-0.321425
-0.261492
-0.210076
-0.165765
-0.127316
-0.0937408
-0.0640705
-0.0376558
-0.0142623
0.00640085
-2.27061
-1.9874
-1.72968
-1.49518
-1.28258
-1.0912
-0.920501
-0.769694
-0.63794
-0.523678
-0.425377
-0.341238
-0.268967
-0.206523
-0.152263
-0.104576
-0.0623496
-0.0251188
0.00767035
-3.05717
-2.68392
-2.34085
-2.0257
-1.73779
-1.4772
-1.24399
-1.03764
-0.857343
-0.70122
-0.567245
-0.452996
-0.355319
-0.271382
-0.198845
-0.135438
-0.0795325
-0.0303619
0.01292
-3.74576
-3.28996
-2.87343
-2.48953
-2.13672
-1.81558
-1.52692
-1.27082
-1.04685
-0.853068
-0.687152
-0.546205
-0.426337
-0.324016
-0.236268
-0.160243
-0.0938427
-0.0359853
0.0144725
-4.35927
-3.84291
-3.36444
-2.91786
-2.50307
-2.12254
-1.77885
-1.47333
-1.20632
-0.976006
-0.779775
-0.61415
-0.474338
-0.355958
-0.25534
-0.169112
-0.0950381
-0.0321936
0.0204199
-4.7234
-4.26632
-3.81338
-3.36954
-2.94036
-2.53256
-2.1529
-1.80646
-1.49701
-1.22553
-0.991389
-0.792299
-0.623937
-0.481783
-0.361501
-0.258048
-0.167021
-0.0836811
-0.00234581
-4.72014
-4.27317
-3.80156
-3.3268
-2.86416
-2.42561
-2.02113
-1.65704
-1.33716
-1.06164
-0.828535
-0.63336
-0.469875
-0.330785
-0.208783
-0.0940311
0.0207089
0.14245
0.273445
-4.66064
-4.24074
-3.75958
-3.24933
-2.73838
-2.24997
-1.80257
-1.40708
-1.06878
-0.78633
-0.555021
-0.366167
-0.209764
-0.0749348
0.0461853
0.16121
0.267822
0.359996
0.423414
-4.46811
-4.1387
-3.7211
-3.25029
-2.76026
-2.28095
-1.83668
-1.44243
-1.10564
-0.825602
-0.597711
-0.412774
-0.260969
-0.132881
-0.0237835
0.069225
0.139681
0.181226
0.18599
-4.07154
-3.80572
-3.43581
-2.99674
-2.52652
-2.06088
-1.62909
-1.24923
-0.929592
-0.669122
-0.461998
-0.298135
-0.167766
-0.0627771
0.0200723
0.082102
0.119923
0.133985
0.128313
-3.59528
-3.37867
-3.05722
-2.65838
-2.22083
-1.78396
-1.38024
-1.02951
-0.74006
-0.510031
-0.332466
-0.196792
-0.0935551
-0.0155264
0.0404489
0.0766217
0.0936542
0.0960312
0.0894492
-3.03853
-2.88165
-2.61222
-2.25897
-1.86276
-1.46594
-1.10271
-0.793196
-0.54452
-0.353436
-0.211717
-0.108391
-0.0342829
0.017451
0.0505213
0.068371
0.0738404
0.0719363
0.0670085
-2.23229
-2.1326
-1.92983
-1.65072
-1.33367
-1.01785
-0.733867
-0.4986
-0.316433
-0.182713
-0.0888816
-0.0247523
0.0175647
0.0438689
0.0576719
0.0624108
0.0609624
0.0570209
0.0530286
-1.41473
-1.35243
-1.20651
-1.00103
-0.770286
-0.54713
-0.355018
-0.204941
-0.0971506
-0.0252951
0.019104
0.0448697
0.0580589
0.0629287
0.0620367
0.0578441
0.0521632
0.0470122
0.0434132
-0.479925
-0.434502
-0.343522
-0.227237
-0.109375
-0.00900591
0.0635892
0.106721
0.125288
0.126699
0.117966
0.105083
0.0910131
0.0774362
0.0649754
0.0543367
0.0457757
0.0397201
0.0360494
0.47033
0.514157
0.554687
0.574827
0.566331
0.529409
0.470835
0.399933
0.326671
0.258457
0.1996
0.152116
0.115081
0.0869964
0.0660759
0.0510273
0.0406008
0.0339888
0.0299737
1.41414
1.54282
1.6021
1.56609
1.44146
1.25479
1.03925
0.823816
0.629264
0.466088
0.337097
0.240003
0.169259
0.119145
0.0844743
0.0610624
0.0455309
0.0352121
0.0271683
2.11081
2.07953
1.94083
1.71443
1.43746
1.14912
0.879957
0.648456
0.462287
0.320401
0.217382
0.145476
0.0967564
0.0644887
0.0434653
0.0297578
0.0205072
0.0133373
0.00578711
2.85626
2.90572
2.79821
2.54748
2.19717
1.80306
1.41419
1.06535
0.774954
0.546834
0.376717
0.25489
0.170359
0.113131
0.0750941
0.0497784
0.0324098
0.0192366
0.00708316
3.47961
3.50562
3.34314
3.01944
2.5886
2.11511
1.65391
1.24344
0.903325
0.636902
0.438555
0.296576
0.198074
0.131329
0.0868374
0.0570132
0.0363444
0.0206899
0.00697697
4.00376
3.98776
3.76668
3.37852
2.88321
2.34959
1.83514
1.37986
1.00362
0.709182
0.489931
0.332787
0.223545
0.149276
0.0995002
0.065829
0.0422049
0.0241251
0.00823644
4.47098
4.39369
4.10811
3.65807
3.10652
2.52424
1.96918
1.48117
1.0793
0.765284
0.531503
0.363765
0.246901
0.167128
0.113292
0.0764213
0.0500251
0.0292181
0.0102353
4.85563
4.70646
4.35679
3.85039
3.25228
2.63377
2.05156
1.54373
1.12757
0.803298
0.562143
0.389043
0.268198
0.18532
0.128878
0.0895242
0.0604447
0.0363867
0.0131435
5.01964
4.82468
4.43198
3.89195
3.27226
2.64284
2.05735
1.55068
1.1376
0.81671
0.578389
0.407233
0.287408
0.204664
0.147529
0.106563
0.0747938
0.0466468
0.0174247
5.22703
4.97446
4.52208
3.9352
3.28533
2.64069
2.05119
1.5474
1.14049
0.826556
0.594469
0.428159
0.311593
0.230511
0.173508
0.131006
0.0958215
0.0619168
0.0238749
5.38265
5.0458
4.5281
3.89833
3.22793
2.58076
2.00107
1.51344
1.12442
0.827092
0.608746
0.452816
0.343344
0.266317
0.21061
0.166561
0.126758
0.0845401
0.0334713
5.41398
4.99298
4.41786
3.75897
3.08607
2.45606
1.90532
1.4508
1.09374
0.824034
0.627661
0.487938
0.389409
0.318621
0.264966
0.218686
0.172076
0.117606
0.0474351
5.33728
4.83833
4.21429
3.5411
2.88434
2.29066
1.78635
1.37968
1.06622
0.832881
0.664777
0.545504
0.460459
0.396944
0.344969
0.294508
0.237371
0.164813
0.067143
5.23445
4.64362
3.97293
3.29687
2.67062
2.1271
1.68084
1.33099
1.0677
0.875184
0.738279
0.641074
0.569991
0.513037
0.460741
0.402413
0.329048
0.230253
0.0940433
5.04795
4.36375
3.66733
3.01483
2.44445
1.97247
1.60049
1.31894
1.1134
0.966282
0.863105
0.78886
0.731259
0.678959
0.622875
0.551181
0.453697
0.318004
0.12955
4.52233
3.81749
3.16582
2.60424
2.14803
1.79392
1.53019
1.34051
1.20813
1.11574
1.05138
1.002
0.957268
0.906713
0.84167
0.748893
0.616869
0.431115
0.174648
4.02508
3.32872
2.75445
2.31038
1.98292
1.75068
1.59202
1.48742
1.42021
1.37452
1.34153
1.30997
1.271
1.21439
1.13126
1.0063
0.826217
0.57435
0.231211
3.42691
2.796
2.36942
2.09436
1.92597
1.83054
1.78206
1.76206
1.75655
1.7526
1.74513
1.72492
1.68435
1.61296
1.50122
1.33134
1.08796
0.752254
0.301976
2.41682
2.05269
1.91055
1.89136
1.93559
2.00897
2.08893
2.16266
2.22197
2.25904
2.27332
2.25862
2.20844
2.11219
1.95946
1.73035
1.40734
0.969815
0.391729
1.41964
1.48437
1.69187
1.94497
2.19601
2.42266
2.61288
2.76211
2.86947
2.93291
2.95534
2.93389
2.86221
2.72915
2.52278
2.22127
1.80394
1.24708
0.51569
0.438502
1.05712
1.66035
2.19864
2.65657
3.03009
3.32216
3.53722
3.68281
3.76366
3.78508
3.74874
3.6478
3.47096
3.20443
2.82501
2.30685
1.61912
0.706601
-0.319222
0.875823
1.8618
2.66677
3.31503
3.81971
4.20024
4.46905
4.64267
4.73359
4.74824
4.69458
4.56526
4.34985
4.03267
3.58952
2.98472
2.17035
1.04788
-0.679681
0.967533
2.26742
3.29891
4.11245
4.72981
5.18547
5.49812
5.69368
5.79378
5.80546
5.74571
5.60817
5.3862
5.06315
4.61415
3.98539
3.09209
1.75172
-0.578314
1.28941
2.79931
4.00481
4.95351
5.66368
6.18167
6.53132
6.74851
6.86654
6.89429
6.86211
6.77036
6.62341
6.40823
6.10288
5.62567
4.82512
3.3739
-0.118141
1.7373
3.35314
4.67899
5.7297
6.51055
7.0764
7.45761
7.70062
7.85568
7.93707
7.99593
8.05529
8.14899
8.28422
8.46515
8.58874
8.41736
7.40924
0.432253
2.16468
3.82579
5.2314
6.3501
7.17544
7.76834
8.17354
8.44518
8.66385
8.85304
9.09819
9.49229
10.1631
11.2557
13.093
16.14
21.366
30.7584
)
;

boundaryField
{
    up
    {
        type            calculated;
        value           nonuniform List<scalar> 
84
(
-30.7584
-7.40924
-3.3739
-1.75172
-1.04788
-0.706604
-0.515693
-0.391731
-0.301975
-0.231209
-0.174647
-0.12955
-0.0940449
-0.0671454
-0.0474373
-0.0334729
-0.0238758
-0.0174248
-0.0131432
-0.0102348
-0.00823604
-0.00697739
-0.00708422
-0.00579488
-0.0225414
-0.0271378
-0.0331074
-0.0397123
-0.0479196
-0.0594951
-0.0776153
-0.107221
-0.150605
-0.40166
-0.281458
0.00256431
-0.0200486
-0.0142124
-0.0127899
-0.00754861
-0.00642865
-0.00473507
0.00472336
0.00636212
0.00759085
0.0127486
0.0141917
0.0199939
-0.00221495
0.276992
0.404642
0.150914
0.107461
0.07785
0.0596764
0.0480296
0.0397832
0.0331579
0.0271597
0.0226354
0.00578711
0.00708316
0.00697697
0.00823644
0.0102353
0.0131435
0.0174247
0.0238749
0.0334713
0.0474351
0.067143
0.0940433
0.12955
0.174648
0.231211
0.301976
0.391729
0.51569
0.706601
1.04788
1.75172
3.3739
7.40924
30.7584
)
;
    }
    low
    {
        type            calculated;
        value           nonuniform List<scalar> 
84
(
-0.387512
0.187593
0.686626
0.792951
0.387651
-0.450638
-1.51587
-2.57346
-3.60535
-4.17345
-4.65875
-5.1692
-5.30821
-5.38556
-5.44922
-5.39198
-5.21204
-4.99975
-4.81835
-4.39411
-3.90157
-3.36351
-2.73114
-1.99351
-1.31487
-0.433559
0.437061
1.31109
2.10648
2.92477
3.51663
4.01983
4.4495
4.68062
4.76602
4.80123
4.46722
3.85184
3.14739
2.34009
1.46163
0.558664
-0.558403
-1.46137
-2.33982
-3.14716
-3.85165
-4.46712
-4.80111
-4.76665
-4.68023
-4.44967
-4.01994
-3.51676
-2.92491
-2.10663
-1.31129
-0.437236
0.433163
1.31512
1.99322
2.73126
3.36351
3.90156
4.39408
4.81833
4.99973
5.21201
5.39195
5.44919
5.38555
5.30822
5.16919
4.65878
4.17351
3.6054
2.5735
1.5159
0.450656
-0.387641
-0.792951
-0.686636
-0.187602
0.387513
)
;
    }
    left
    {
        type            calculated;
        value           nonuniform List<scalar> 
19
(
-0.390648
-2.09948
-3.80784
-5.27348
-6.44888
-7.31806
-7.94494
-8.37972
-8.67588
-8.93053
-9.16647
-9.47628
-9.97926
-10.8404
-12.2375
-14.6141
-18.6104
-25.5761
-26.6667
)
;
    }
    right
    {
        type            calculated;
        value           nonuniform List<scalar> 
19
(
0.390651
2.09949
3.80786
5.27349
6.44888
7.31805
7.94493
8.37971
8.67587
8.93052
9.16646
9.47628
9.97928
10.8404
12.2375
14.6142
18.6105
25.5762
26.6667
)
;
    }
    frontAndBackPlanes
    {
        type            empty;
    }
}


// ************************************************************************* //
