/*--------------------------------*- C++ -*----------------------------------*\
  =========                 |
  \\      /  F ield         | OpenFOAM: The Open Source CFD Toolbox
   \\    /   O peration     | Website:  https://openfoam.org
    \\  /    A nd           | Version:  7
     \\/     M anipulation  |
\*---------------------------------------------------------------------------*/
FoamFile
{
    version     2.0;
    format      ascii;
    class       volScalarField;
    location    "0.1";
    object      gradTz;
}
// * * * * * * * * * * * * * * * * * * * * * * * * * * * * * * * * * * * * * //

dimensions      [0 -1 0 1 0 0 0];

internalField   nonuniform List<scalar> 
1596
(
-1.61326e-16
-7.69815e-17
7.98308e-17
3.19215e-18
-1.47952e-16
0
-6.66131e-17
-6.57238e-17
-6.51472e-18
-3.57699e-17
-1.86667e-19
-3.59693e-17
1.61318e-16
-3.60214e-17
1.67342e-16
1.45156e-16
8.65512e-17
1.09907e-16
0
1.59518e-16
0
2.14698e-16
-2.58418e-18
-6.18488e-17
6.09952e-17
1.31361e-16
6.3302e-18
6.11425e-17
-2.9921e-17
6.0048e-17
-5.32272e-19
-8.38108e-17
-5.29331e-17
-1.35071e-16
-1.32583e-16
-1.21152e-16
6.93792e-17
0
-7.59551e-17
0
-1.35239e-16
4.05126e-18
1.15518e-16
-3.64347e-17
4.7118e-18
-7.55017e-19
-5.97621e-19
-5.18218e-19
1.92846e-17
0
4.34172e-17
1.21435e-16
-1.20982e-17
1.01386e-17
2.36214e-17
3.83241e-17
0
1.22278e-16
-3.35529e-17
3.34304e-17
0
-3.1018e-17
-3.31203e-17
5.02857e-17
-3.94273e-17
0
0
-1.98573e-17
1.0127e-17
0
-3.48374e-17
-4.24808e-17
3.04035e-17
-3.39134e-17
-1.72757e-18
0
2.16999e-17
5.24289e-17
-4.29007e-17
0
-1.12613e-17
-3.50867e-17
0
4.95444e-17
-4.69186e-18
-4.26332e-18
-8.27783e-18
2.42301e-17
3.15626e-17
3.67468e-18
4.24254e-18
-3.28435e-17
1.62406e-18
1.54132e-17
-6.9542e-18
-5.63511e-18
-7.13468e-17
6.30482e-17
-5.00189e-17
-1.95913e-19
-3.77831e-17
1.01725e-18
-1.02063e-18
-2.59936e-17
0
-6.6768e-18
-2.90053e-17
-2.8377e-17
2.12424e-17
2.64217e-17
-3.48625e-19
-1.59027e-17
-1.56333e-17
1.22095e-17
4.70936e-17
-7.22203e-17
7.37157e-17
3.7898e-17
0
2.94865e-17
1.54896e-17
-7.20218e-18
3.25584e-17
-5.77999e-18
-2.61922e-17
1.42273e-19
-1.4273e-17
-2.13117e-17
-1.52837e-17
1.39982e-17
1.60427e-17
-2.21237e-19
-4.94465e-18
7.61889e-18
1.16414e-16
-1.2406e-16
0
0
-3.34518e-17
0
0
0
1.67112e-17
0
0
1.34343e-17
2.63622e-19
5.80831e-18
-1.24488e-17
0
6.62125e-18
2.87691e-18
0
-7.19805e-17
1.35239e-16
0
0
3.44507e-17
0
-1.00905e-17
1.00803e-17
-1.70095e-17
6.41925e-18
-6.4662e-18
0
9.16273e-18
1.14731e-17
0
-6.55943e-18
-6.75311e-18
-2.55628e-18
1.94679e-16
-8.82087e-17
0
-4.77805e-17
4.72458e-17
0
2.58374e-17
0
0
0
5.20391e-18
-5.22885e-18
0
-7.21716e-18
-1.88287e-18
0
1.74411e-18
3.42025e-18
0
-4.94829e-17
0
0
4.83564e-17
-8.55892e-17
8.10066e-18
3.3034e-18
-8.73134e-18
1.90504e-18
6.74849e-19
-5.3451e-18
-7.23483e-18
0
5.15758e-18
-1.20486e-18
1.22294e-18
4.14486e-18
-2.77685e-18
-1.15601e-18
3.54122e-17
-7.12175e-18
3.43357e-17
1.04308e-16
-1.01393e-17
-3.78869e-17
0
0
0
1.13232e-17
3.72621e-18
1.25396e-17
-2.96854e-18
-5.06532e-18
-2.47264e-18
-1.60846e-18
7.44377e-19
-1.72184e-18
1.07798e-18
-4.28121e-17
4.22253e-17
-7.47477e-17
-1.03373e-16
9.09691e-17
2.90333e-17
-5.03736e-17
3.76436e-17
-2.78706e-17
7.40088e-18
4.3597e-18
-3.52796e-18
1.54151e-18
-1.54707e-18
4.81077e-18
0
-3.8822e-19
3.0903e-18
-4.72294e-19
-2.95241e-16
1.30239e-16
8.08525e-20
-2.13455e-17
5.45122e-18
2.83195e-17
-5.19003e-17
-1.76512e-17
1.27813e-17
-9.12755e-18
-6.52832e-18
0
-5.71511e-18
-1.5823e-18
-2.38619e-18
-1.36223e-18
1.0373e-19
-1.56049e-18
1.37347e-19
4.82304e-17
-4.02692e-17
-1.5882e-20
-2.62369e-17
-5.66848e-17
5.13254e-17
2.85179e-19
1.72011e-17
-1.24443e-17
1.73823e-17
3.72488e-18
2.60749e-18
6.20437e-18
0
4.07465e-18
1.80214e-18
0
7.32646e-19
9.07941e-20
0
3.90658e-17
2.5804e-17
-5.65549e-17
5.4699e-17
-7.57934e-17
4.83042e-17
1.39e-17
-3.91165e-18
-1.79426e-17
2.36207e-18
-2.35041e-18
-5.33962e-18
1.72978e-18
-8.93552e-19
-1.62555e-18
5.88404e-19
-3.71797e-19
2.03898e-19
-4.48071e-17
1.36996e-16
-1.03539e-16
4.80528e-17
0
0
-7.79923e-18
1.78584e-17
-9.0481e-18
1.60853e-17
0
0
3.38892e-18
-2.62628e-18
-1.42234e-18
4.46428e-19
-4.67794e-19
2.57319e-19
0
6.35424e-18
4.19595e-17
-2.90245e-17
-2.33538e-17
-3.11364e-17
-5.57842e-18
1.29333e-17
0
-8.23972e-18
-5.16752e-18
4.31511e-18
-2.84937e-18
1.86464e-18
0
5.8636e-19
8.77522e-19
0
0
0
-6.2154e-18
5.65655e-17
1.62153e-17
-7.10709e-17
1.65252e-17
1.26684e-17
0
0
7.46348e-18
-4.03548e-18
-4.17365e-18
2.75586e-18
-1.80325e-18
0
-2.87601e-19
1.97867e-19
0
-1.47123e-19
-5.23425e-20
-3.31695e-17
9.75367e-17
-1.10366e-16
-3.63334e-17
2.00036e-17
-1.13241e-17
8.08287e-18
0
-3.81381e-18
2.76184e-18
0
0
5.79707e-19
-5.80375e-19
1.14918e-19
-1.90196e-19
1.96374e-19
4.25581e-20
4.00477e-20
1.84305e-17
-1.52918e-17
6.86466e-17
-4.33999e-17
-1.42494e-17
2.98653e-18
1.75608e-17
5.01368e-18
3.64924e-18
0
1.21269e-18
-1.09652e-18
6.96019e-19
-4.76901e-19
4.09063e-19
-6.12897e-19
-1.50025e-19
1.22493e-19
2.7935e-20
4.67093e-17
-4.86891e-17
0
3.14384e-17
-1.75162e-17
-9.8879e-18
4.45586e-18
-1.61472e-17
0
-2.5522e-19
-1.61284e-18
-8.44632e-19
9.0831e-19
-1.21641e-19
-3.95353e-19
2.39794e-19
0
5.86619e-20
-2.71246e-20
8.66068e-17
-1.36301e-17
4.95469e-17
-3.8335e-17
1.52043e-17
-1.7829e-18
-1.49402e-17
-3.39019e-18
5.55662e-18
-3.75798e-19
-1.8215e-18
1.35295e-18
-5.11372e-19
-4.59312e-19
0
0
0
-5.90413e-20
2.02108e-21
-7.25069e-17
6.93769e-17
2.63502e-20
7.926e-18
5.85377e-18
-1.10613e-17
1.14741e-17
-7.59981e-18
5.32006e-18
-1.15548e-18
2.10206e-18
5.12114e-19
-1.78884e-19
1.01992e-20
-2.82595e-20
-5.43493e-20
0
0
0
0
0
2.68379e-17
-1.73605e-17
-3.53934e-17
0
0
-2.14722e-18
-2.70369e-18
1.77676e-18
0
-6.4587e-19
3.87555e-19
-9.39726e-19
1.0154e-18
-2.348e-19
2.48065e-19
2.2691e-20
0
-1.39872e-17
1.41593e-17
0
-8.58518e-18
8.37976e-18
1.12466e-17
0
2.16773e-18
1.69026e-18
-8.65985e-18
0
-7.65354e-19
4.63679e-19
2.4557e-19
-1.45778e-19
1.80696e-19
0
-5.10198e-20
0
-7.2107e-18
-6.56858e-18
3.87475e-19
8.82105e-18
-2.04042e-17
0
-3.70497e-18
0
6.61798e-18
2.03085e-18
0
3.00795e-18
-2.64726e-18
3.60427e-19
-2.55479e-19
1.73559e-19
3.45251e-19
1.03192e-19
-8.18397e-20
0
1.42982e-17
-1.07205e-17
1.29998e-17
1.27681e-17
0
7.29673e-18
-6.39196e-18
-3.64454e-18
4.05933e-18
-5.94547e-18
-2.0626e-18
0
0
2.08923e-19
0
0
3.98577e-20
0
-6.63293e-17
5.15372e-17
0
1.29284e-18
-7.05583e-18
-3.36673e-19
5.09342e-18
2.46105e-18
-3.85679e-18
-6.32116e-18
7.68115e-18
-2.16875e-18
0
-5.65951e-19
0
0
0
-1.56354e-19
1.25641e-19
-1.94602e-17
1.69203e-17
4.00967e-17
-3.76674e-17
1.03802e-17
9.56489e-19
-5.15092e-18
3.70584e-18
5.19194e-18
3.1199e-18
-6.03645e-18
0
1.73609e-18
-1.429e-19
-6.46683e-19
-9.96251e-19
7.76652e-19
-7.84366e-20
1.69074e-19
-6.84073e-17
8.57528e-17
-8.35025e-17
1.29423e-17
9.42486e-18
-8.4096e-18
6.48816e-18
-4.12173e-18
0
-2.561e-18
3.04295e-18
1.27521e-18
1.74214e-18
1.54187e-18
-2.18246e-18
-1.27028e-19
0
-8.07579e-20
2.79274e-20
-7.39248e-17
-1.98328e-17
-3.08786e-17
1.72657e-17
-2.3003e-17
1.7476e-17
-9.76256e-18
6.77828e-18
-8.57138e-19
-7.95589e-19
-3.63285e-18
2.38793e-18
-6.62197e-19
2.30708e-18
-2.47667e-18
1.25146e-19
2.03862e-19
0
-5.36468e-20
7.99289e-17
-2.16171e-17
0
0
-2.36037e-17
4.4127e-17
-9.46461e-18
-1.42194e-18
1.05255e-17
-3.46372e-19
0
0
-1.35952e-18
0
-2.37095e-18
5.23186e-18
-3.45688e-18
0
2.5382e-20
2.64457e-17
4.66242e-17
0
-1.73745e-17
-1.19392e-17
-8.8284e-18
-9.98983e-18
3.44299e-18
-8.96182e-18
-4.05441e-18
0
0
2.47718e-18
0
0
-3.60558e-18
6.0785e-18
0
0
1.81725e-16
-2.58266e-17
-1.00975e-16
-4.7607e-17
6.52122e-17
1.81924e-17
9.68638e-18
0
-2.86614e-18
2.38767e-18
5.96677e-18
-1.81551e-18
-2.17375e-18
3.20448e-18
-3.40858e-18
-8.5101e-19
0
0
0
1.45504e-17
-1.06653e-16
1.03878e-16
-9.12909e-18
-6.35142e-17
9.54953e-17
-4.5906e-17
0
0
1.74959e-17
-1.38271e-17
0
-3.26824e-18
5.86841e-18
-5.20056e-19
1.55158e-18
4.41574e-19
7.31649e-21
8.86633e-20
0
0
0
7.82399e-17
-5.2881e-17
4.76749e-17
-7.25954e-17
1.95966e-17
0
-5.75181e-18
8.24221e-18
-8.42402e-18
-1.42828e-18
7.25973e-20
-8.67784e-19
-9.83322e-20
-6.86617e-19
-1.99541e-19
-1.04719e-19
1.19564e-16
-2.0806e-16
9.60877e-17
0
2.14027e-17
-2.94392e-17
2.57626e-17
-2.03348e-17
0
-7.92773e-18
1.11648e-17
0
0
6.73218e-20
0
-1.00271e-18
6.73693e-19
9.56471e-20
1.70964e-19
1.21214e-16
0
-4.18492e-17
4.66133e-17
-2.59129e-17
5.52314e-17
-2.52129e-17
-1.72235e-17
1.74033e-17
-1.6158e-18
0
0
8.77318e-19
-1.34966e-18
-9.29877e-19
1.73411e-18
-3.72862e-19
1.78797e-19
0
6.86528e-17
4.93072e-17
-3.95648e-18
-4.46927e-17
-4.13345e-18
-2.73864e-17
4.37588e-18
2.15405e-17
-1.01526e-18
1.64614e-18
0
0
-8.98754e-19
0
9.95561e-19
-1.06501e-18
0
1.3318e-19
-3.63316e-20
-3.64035e-17
-2.47848e-17
2.32494e-17
-2.45673e-18
-1.045e-18
2.65251e-18
0
-6.21592e-19
8.51024e-18
-7.16146e-18
0
2.06649e-18
-4.74278e-19
-1.75251e-18
-1.54047e-19
-1.1777e-19
0
-1.04635e-19
0
1.43324e-17
-2.66987e-17
2.27709e-19
1.06773e-17
8.78348e-18
-8.66928e-18
-5.46899e-18
6.16727e-18
-1.88385e-18
1.48958e-18
-1.28548e-18
1.32512e-18
0
3.05476e-21
-1.13389e-19
4.0553e-19
-1.36397e-21
0
0
1.43329e-17
-1.42792e-17
-1.06203e-17
9.4444e-18
1.54686e-17
-1.55599e-17
-2.73463e-18
2.74178e-18
-1.90027e-18
1.92e-18
-1.28556e-18
2.37675e-18
-6.66763e-19
-4.50259e-19
-1.30929e-19
4.50025e-20
1.02004e-19
2.66096e-20
-1.99216e-20
0
-3.32252e-18
1.84092e-17
-2.00593e-17
1.53961e-17
-1.37114e-17
0
9.03509e-18
-8.12444e-18
0
2.53221e-18
-3.1834e-18
-1.67253e-18
1.75292e-18
3.02635e-19
0
0
-1.04678e-19
3.78554e-20
5.69676e-17
-1.02701e-16
9.98866e-17
-8.32065e-17
3.19247e-17
-2.39038e-17
2.28303e-17
2.42511e-18
-8.33162e-18
7.41211e-18
0
-4.5353e-18
4.14276e-18
-7.22302e-19
-2.96431e-19
4.37145e-19
3.15843e-19
1.01622e-19
-3.6577e-20
1.36337e-16
0
-4.74986e-17
3.69878e-17
4.08614e-18
-2.85926e-17
4.89652e-17
-4.06298e-17
1.54707e-17
-5.75661e-18
5.89239e-18
1.0828e-18
1.69221e-18
7.0353e-19
-5.33698e-19
-8.42782e-20
-6.77742e-19
0
6.3736e-20
1.04644e-16
-1.17807e-16
0
9.50286e-18
3.74064e-17
-3.61384e-17
5.53397e-18
4.54783e-18
1.89616e-18
3.00498e-18
0
0
-2.89647e-18
5.14658e-18
-1.82742e-18
-6.15812e-19
6.74211e-19
5.21185e-20
-1.19208e-19
1.50611e-17
1.03657e-16
-1.10187e-17
-6.89171e-17
6.07416e-17
6.55912e-18
-5.416e-18
-4.44188e-18
1.28579e-17
-1.58816e-17
8.24765e-18
-8.42948e-18
1.06673e-18
-1.55661e-18
2.39387e-18
-1.61506e-18
0
0
9.72069e-20
0
2.5219e-17
-6.91809e-17
7.94485e-17
-5.59097e-17
5.57765e-17
0
1.5111e-17
-1.51803e-17
-9.58549e-18
1.38433e-17
0
4.64351e-18
-5.87601e-18
-8.27302e-19
0
-7.90582e-20
-1.30404e-19
-1.77687e-20
-2.51716e-16
1.16673e-16
0
-6.52106e-17
6.5204e-17
3.42073e-17
-2.23033e-17
7.73201e-18
0
-2.81306e-19
1.55935e-18
-1.81424e-18
-2.17262e-18
3.2027e-18
-3.40554e-18
0
5.59493e-19
-6.80194e-20
-8.23005e-20
1.51977e-16
-1.46752e-16
0
1.70401e-17
1.41843e-17
-1.21938e-17
0
-8.10322e-18
-5.82351e-18
0
-6.17578e-19
0
2.48026e-18
0
0
7.09926e-19
2.51985e-18
-3.35437e-18
0
-1.07019e-20
2.16286e-17
-1.84355e-17
1.25399e-17
-6.50137e-17
2.35568e-17
0
1.42365e-18
3.89258e-18
0
-3.15752e-18
7.13426e-18
-7.49495e-18
9.49904e-19
0
-2.25017e-19
0
0
0
-3.53632e-21
0
1.7039e-17
0
-2.05035e-17
2.08295e-17
0
5.19814e-18
-3.48924e-18
1.14277e-17
-5.24898e-18
1.39003e-18
-1.90418e-18
1.45195e-18
-2.4832e-18
-3.60925e-19
0
-1.24866e-19
0
5.73636e-17
-9.74441e-17
0
-1.27158e-17
1.01409e-17
0
0
-9.17818e-18
0
-2.56462e-18
-3.0478e-18
-1.27756e-18
1.74583e-18
0
5.36399e-19
0
0
2.47855e-19
-2.46589e-19
0
7.90797e-17
-6.27367e-17
1.17719e-17
-9.39057e-18
-3.08548e-18
8.29054e-18
7.76214e-18
-7.48764e-18
2.34437e-18
4.46262e-19
-1.18607e-18
4.59246e-18
-1.37006e-18
-2.26963e-18
6.80958e-19
-1.18002e-19
7.29159e-20
-1.57798e-20
-1.42116e-16
5.15836e-17
0
0
3.60529e-18
-3.66617e-18
1.65865e-18
4.74156e-19
6.31374e-18
2.4898e-18
-2.25071e-18
-2.41488e-19
-7.42835e-19
5.67241e-19
0
1.56495e-19
1.08158e-19
4.32407e-20
1.42627e-20
0
4.17265e-17
-3.5862e-17
1.08831e-17
8.96944e-18
-1.64644e-18
-4.15992e-18
-2.93697e-18
-7.67608e-18
2.38008e-18
-8.40865e-19
1.57147e-18
6.94642e-19
-5.87869e-19
6.23987e-19
2.47836e-19
-3.57421e-19
-3.99392e-20
0
-8.3347e-18
-3.38274e-17
1.08494e-17
8.82427e-18
-2.54774e-17
1.69639e-17
6.00651e-18
-6.13957e-18
3.46046e-18
-2.25882e-18
0
0
-7.96687e-19
1.30866e-18
-5.02275e-19
3.20417e-19
-3.54018e-19
4.62534e-20
-8.19667e-20
1.51431e-17
1.30623e-17
-1.06308e-17
6.22949e-18
-8.50191e-18
-9.40824e-18
0
0
0
0
0
0
4.13036e-19
-8.0461e-19
8.50963e-19
-1.8683e-19
2.37778e-19
9.00738e-20
-7.50639e-20
3.23062e-17
-4.66565e-17
5.77669e-17
-2.04806e-17
2.90865e-17
-1.4888e-17
2.5519e-17
-1.25325e-17
-4.35429e-18
4.45424e-18
0
6.45529e-19
-4.03515e-19
7.00417e-19
-3.27648e-19
-2.81308e-19
-4.16351e-19
3.64824e-20
6.19591e-20
5.07868e-17
1.28935e-17
0
-1.58414e-17
-9.89171e-18
2.08355e-17
6.24348e-19
-5.75656e-18
2.98441e-18
-1.53228e-18
0
-5.11009e-19
0
-2.65524e-19
1.84329e-19
-1.32949e-19
-4.01549e-20
2.20728e-20
0
7.02234e-17
-1.36299e-17
4.95963e-17
-3.84361e-17
-6.28543e-18
1.95847e-17
-1.16206e-17
8.74796e-19
5.70129e-19
-1.56684e-18
1.36764e-18
0
0
3.69335e-19
-8.12284e-20
3.977e-20
1.43591e-19
-4.8322e-20
0
7.35773e-21
0
-1.15278e-17
5.83801e-17
-3.8026e-17
-3.11787e-17
1.67533e-17
-1.21567e-17
1.05766e-17
3.96279e-18
-2.35902e-18
7.9996e-19
-6.29708e-19
1.48408e-19
6.29973e-19
-1.10446e-20
-1.51583e-19
1.40222e-19
-2.99835e-20
1.65467e-16
-5.15218e-17
1.9303e-17
-6.24049e-17
1.42494e-17
-1.85756e-17
1.06478e-17
0
0
-2.90032e-19
-4.8971e-19
-1.31937e-19
0
-6.67601e-19
-4.09068e-19
2.47782e-19
-1.6015e-20
4.12977e-20
6.50166e-20
0
-4.87733e-17
7.3044e-17
1.07145e-17
-5.15349e-17
1.13241e-17
-1.41479e-17
4.19039e-18
9.70895e-18
0
0
1.3588e-19
9.13428e-19
0
-5.09302e-19
-1.8674e-19
2.98284e-20
-6.66188e-20
-8.88562e-20
0
-2.83678e-17
1.13955e-17
4.93861e-17
2.89915e-17
-5.06302e-17
2.13519e-17
-1.08942e-17
6.20078e-18
-6.22189e-18
0
0
0
-1.17477e-18
1.65486e-19
-2.89024e-19
0
-1.38706e-20
6.64606e-20
-1.22224e-16
1.13336e-16
1.04459e-16
-1.2545e-16
4.86173e-17
-4.41767e-17
0
1.18885e-17
-1.52667e-17
7.69712e-18
-4.68077e-18
3.14134e-18
2.09612e-18
1.21497e-18
7.96353e-19
0
0
0
0
1.40828e-16
-7.47437e-17
0
0
-1.88369e-17
3.88112e-17
-2.44132e-17
-1.2924e-17
1.27784e-17
7.14402e-18
1.00738e-17
-3.25944e-18
1.21445e-18
7.07033e-19
4.44165e-19
3.67546e-19
5.66361e-19
-2.59176e-20
2.63994e-20
-1.40251e-16
1.23737e-16
5.76157e-17
-3.11478e-17
5.4516e-17
-3.44109e-17
-2.24249e-17
-1.63496e-17
0
-1.50592e-17
1.37871e-18
4.02165e-18
-2.5216e-18
-1.72985e-18
-5.59463e-19
-4.80722e-19
-3.87318e-19
0
0
-4.82406e-17
0
3.28047e-17
4.52297e-20
0
0
2.31321e-17
1.68705e-17
0
8.50295e-18
0
-6.0078e-18
-1.44163e-18
2.4323e-18
0
1.42118e-18
-1.88077e-19
1.91864e-19
0
1.05441e-16
0
6.07415e-17
-1.08004e-16
8.91643e-17
6.04779e-17
-3.71015e-18
0
1.95492e-18
1.10578e-17
0
-7.28872e-18
7.09102e-18
-5.91493e-18
-1.21638e-18
-1.10719e-18
-3.72072e-19
-7.73912e-20
-3.74039e-19
-9.29669e-17
1.32527e-16
-3.41437e-17
-8.17014e-17
-4.27958e-17
-3.29098e-17
-4.96377e-17
-1.61333e-17
2.50288e-18
4.36792e-18
-4.35972e-18
1.13259e-17
-4.74737e-18
8.53507e-18
-1.56637e-18
0
2.20987e-18
-1.46269e-18
3.552e-19
2.16845e-16
-7.03162e-18
-1.43403e-16
1.04308e-16
-8.67818e-17
6.73601e-17
-3.79079e-18
-1.9391e-17
1.47772e-17
4.80017e-18
-1.07265e-18
-9.87935e-18
2.44988e-18
3.52659e-18
-8.72019e-19
8.81965e-19
-2.28889e-18
-7.49779e-19
-9.05308e-19
1.06452e-16
4.12506e-17
6.72576e-17
-5.35563e-17
-3.78794e-17
4.32104e-18
-2.26633e-17
5.33004e-17
2.86986e-18
1.93049e-17
1.0309e-17
-8.69427e-18
0
-5.15776e-18
0
0
4.95461e-18
1.96449e-18
1.03026e-18
9.70524e-17
0
6.55115e-17
5.32106e-17
-4.22208e-17
3.31542e-17
0
-2.01644e-17
-2.57868e-17
-2.00863e-17
-1.04003e-17
8.79258e-18
0
0
0
0
-4.67282e-18
-4.69212e-18
0
-1.89952e-16
0
-6.13175e-18
-5.5895e-18
6.52496e-17
-3.08433e-17
-1.296e-17
-1.31866e-17
2.69592e-17
0
6.41926e-18
-6.40247e-19
7.08828e-18
0
0
1.03981e-17
-8.02642e-19
5.65325e-18
-2.80889e-18
1.31774e-16
3.44032e-17
-3.40481e-17
-2.74202e-17
-8.29896e-17
5.23595e-17
5.73366e-17
-3.02666e-18
-1.92727e-17
2.03717e-17
3.99253e-18
-2.18174e-17
-1.64134e-17
-1.26154e-17
-1.3848e-17
-1.20467e-17
1.2598e-17
-5.72e-19
2.87689e-18
-3.93964e-17
1.66287e-17
-7.76882e-17
1.15867e-17
-1.15445e-17
0
-2.90935e-17
-4.34462e-18
-2.6802e-17
4.97337e-18
2.6192e-17
1.73279e-17
-4.76281e-18
-7.07776e-19
1.30057e-17
0
-2.81151e-17
-1.15998e-17
-2.33935e-19
8.32893e-17
-2.03796e-18
1.22168e-16
-5.46561e-17
1.95912e-19
1.29074e-18
3.73065e-17
-5.85412e-18
2.59935e-17
-2.41828e-17
-2.30388e-17
0
2.83765e-17
2.08835e-17
3.36673e-19
-4.97536e-19
1.60592e-17
1.17839e-17
0
-5.84835e-17
0
-1.05393e-17
5.29847e-17
1.32684e-18
1.12763e-17
-3.60748e-17
3.32152e-17
3.89918e-17
3.77694e-17
3.70794e-17
0
-2.75673e-17
0
1.73064e-18
-1.79742e-18
0
-1.93064e-19
9.90016e-18
4.25389e-17
3.8811e-18
-2.77177e-17
8.80447e-17
-2.73835e-17
0
0
-4.84337e-17
-3.7779e-17
-3.65901e-17
-7.17295e-17
-1.01269e-17
0
0
0
-3.94375e-18
4.17347e-18
2.81888e-17
-1.00583e-17
4.12934e-18
0
-6.50253e-17
-5.52228e-17
6.0585e-17
-6.06445e-17
-8.5118e-17
9.91458e-17
3.0831e-17
0
4.43671e-17
5.56129e-17
-1.1975e-17
6.71199e-17
-1.11367e-17
1.15906e-17
4.68136e-17
-2.679e-17
0
-8.04916e-17
0
-7.49851e-17
7.26579e-17
0
1.22746e-16
5.61476e-17
-1.22987e-16
1.03128e-16
-3.73648e-19
-3.02274e-17
-5.38447e-17
0
8.20243e-17
-1.35071e-16
1.45789e-16
-1.85997e-16
0
0
8.06184e-17
-9.88738e-19
-2.39919e-18
-1.4955e-16
1.52849e-16
-7.26218e-17
7.23258e-17
7.13521e-17
-5.8947e-17
0
0
1.22885e-16
-1.25002e-16
-1.30211e-16
1.3007e-16
-1.27493e-16
1.38551e-16
-2.17713e-16
0
)
;

boundaryField
{
    up
    {
        type            calculated;
        value           nonuniform List<scalar> 
84
(
0
0
0
0
-6.9542e-18
1.22095e-17
-4.94465e-18
2.87691e-18
-2.55628e-18
0
-1.15601e-18
1.07798e-18
-4.72294e-19
1.37347e-19
9.07941e-20
2.03898e-19
0
0
-5.23425e-20
4.00477e-20
2.7935e-20
-2.71246e-20
2.02108e-21
0
9.81687e-21
6.42978e-21
-7.44166e-20
0
1.25641e-19
1.89734e-19
2.79274e-20
-5.36468e-20
2.5382e-20
0
-3.50934e-21
8.87945e-20
-1.02564e-19
1.69134e-19
0
-3.58178e-20
0
0
-1.9857e-20
3.78554e-20
-3.6577e-20
6.3736e-20
-1.19208e-19
9.72069e-20
-1.77687e-20
-8.23005e-20
0
0
0
-2.46589e-19
-3.65788e-20
1.42627e-20
0
-8.19667e-20
-7.50639e-20
5.21606e-20
0
0
-2.99835e-20
6.50166e-20
-8.88562e-20
6.64606e-20
0
2.63994e-20
0
0
-3.74039e-19
3.552e-19
-9.05308e-19
1.03026e-18
0
-2.80889e-18
2.87689e-18
-2.33935e-19
0
9.90016e-18
-1.00583e-17
0
0
0
)
;
    }
    low
    {
        type            calculated;
        value           nonuniform List<scalar> 
84
(
-1.61548e-16
1.59518e-16
-7.55515e-17
1.22595e-16
2.19072e-17
-5.69417e-18
4.75723e-17
8.06274e-18
0
1.95189e-16
-4.94829e-17
3.50898e-17
-4.28121e-17
-2.95345e-16
4.82304e-17
0
-4.48071e-17
6.35424e-18
-6.2154e-18
-3.31695e-17
1.84305e-17
4.67093e-17
8.61583e-17
-7.25069e-17
0
-1.39872e-17
-7.2107e-18
0
-6.63293e-17
-1.94602e-17
-6.81583e-17
-7.37612e-17
7.98598e-17
2.64457e-17
1.8184e-16
1.45504e-17
0
1.19564e-16
1.21648e-16
6.88806e-17
-3.65218e-17
1.43324e-17
1.43329e-17
0
5.69676e-17
1.36771e-16
1.04644e-16
1.54049e-17
0
-2.51831e-16
1.51977e-16
-1.07019e-20
-3.53632e-21
5.73636e-17
0
-1.41611e-16
0
-8.3347e-18
1.51431e-17
3.19944e-17
5.02736e-17
6.97748e-17
7.35773e-21
1.65158e-16
0
0
-1.22224e-16
1.40768e-16
-1.40251e-16
-4.82406e-17
1.05546e-16
-9.29669e-17
2.1749e-16
1.06864e-16
9.70524e-17
-1.89952e-16
1.31331e-16
-3.89177e-17
8.32893e-17
-5.82762e-17
4.25389e-17
4.53307e-18
-8.04916e-17
8.07294e-17
)
;
    }
    left
    {
        type            calculated;
        value           nonuniform List<scalar> 
19
(
-1.61326e-16
-7.70749e-17
7.98308e-17
3.23275e-18
-1.48068e-16
0
-6.66131e-17
-6.57238e-17
-6.83149e-18
-3.57699e-17
-1.86667e-19
-3.59693e-17
1.62888e-16
-3.60214e-17
1.67342e-16
1.45156e-16
8.65512e-17
1.27551e-16
0
)
;
    }
    right
    {
        type            calculated;
        value           nonuniform List<scalar> 
19
(
8.06184e-17
-8.9538e-19
-2.39919e-18
-1.4959e-16
1.52965e-16
-7.26218e-17
7.23258e-17
7.13521e-17
-5.86302e-17
0
0
1.24049e-16
-1.26573e-16
-1.30211e-16
1.3007e-16
-1.27493e-16
1.38551e-16
-2.35356e-16
0
)
;
    }
    frontAndBackPlanes
    {
        type            empty;
    }
}


// ************************************************************************* //
