/*--------------------------------*- C++ -*----------------------------------*\
  =========                 |
  \\      /  F ield         | OpenFOAM: The Open Source CFD Toolbox
   \\    /   O peration     | Website:  https://openfoam.org
    \\  /    A nd           | Version:  7
     \\/     M anipulation  |
\*---------------------------------------------------------------------------*/
FoamFile
{
    version     2.0;
    format      ascii;
    class       volScalarField;
    location    "0.148";
    object      gradTx;
}
// * * * * * * * * * * * * * * * * * * * * * * * * * * * * * * * * * * * * * //

dimensions      [0 -1 0 1 0 0 0];

internalField   nonuniform List<scalar> 
1596
(
-0.419045
-2.10035
-3.74289
-5.18868
-6.41491
-7.4094
-8.21976
-8.87801
-9.43116
-9.96536
-10.5107
-11.171
-12.0619
-13.341
-15.1859
-18.0161
-22.4629
-29.8797
-43.064
0.0978947
-1.73212
-3.34661
-4.71534
-5.86098
-6.78443
-7.52974
-8.11403
-8.57397
-8.95762
-9.27806
-9.59553
-9.93954
-10.3495
-10.8236
-11.3457
-11.7477
-11.6735
-10.3549
0.524921
-1.37957
-2.9293
-4.19793
-5.24242
-6.07891
-6.74597
-7.25558
-7.6333
-7.90694
-8.08039
-8.18809
-8.23299
-8.22241
-8.13754
-7.93864
-7.49534
-6.56999
-4.68133
0.603342
-1.16376
-2.55788
-3.6831
-4.60213
-5.3377
-5.91997
-6.35851
-6.67004
-6.86977
-6.95853
-6.95439
-6.85265
-6.65026
-6.3308
-5.86204
-5.16372
-4.09933
-2.38871
0.218801
-1.16624
-2.29763
-3.22841
-3.99579
-4.6165
-5.10868
-5.47897
-5.73679
-5.88857
-5.93479
-5.88249
-5.72533
-5.45672
-5.06522
-4.52753
-3.79874
-2.80539
-1.39209
-0.585581
-1.42079
-2.20166
-2.89074
-3.48068
-3.9714
-4.36616
-4.66679
-4.87609
-4.99378
-5.02035
-4.95505
-4.79131
-4.52075
-4.13522
-3.61665
-2.9407
-2.06854
-0.916341
-1.6471
-1.90534
-2.29556
-2.71116
-3.10226
-3.44763
-3.73516
-3.95995
-4.11858
-4.2053
-4.2199
-4.15617
-4.00716
-3.76312
-3.41715
-2.95339
-2.35797
-1.60949
-0.662908
-2.74813
-2.52231
-2.5433
-2.68316
-2.868
-3.05922
-3.23204
-3.37428
-3.47688
-3.52976
-3.5311
-3.47102
-3.34191
-3.13287
-2.83697
-2.43898
-1.92952
-1.29514
-0.510838
-3.87981
-3.32517
-3.0273
-2.89563
-2.86093
-2.87845
-2.91668
-2.95743
-2.98711
-2.99209
-2.96805
-2.9026
-2.78685
-2.60873
-2.36031
-2.02612
-1.59773
-1.06435
-0.410029
-4.55588
-3.89249
-3.41322
-3.09135
-2.8852
-2.75761
-2.67833
-2.627
-2.58785
-2.54553
-2.49359
-2.4186
-2.31075
-2.15753
-1.9502
-1.67346
-1.31882
-0.876325
-0.334035
-5.1127
-4.41199
-3.82852
-3.36875
-3.01968
-2.75938
-2.56531
-2.41908
-2.30522
-2.20818
-2.11987
-2.0265
-1.91745
-1.77992
-1.60432
-1.37553
-1.08434
-0.720612
-0.273774
-5.69081
-4.99671
-4.35104
-3.78465
-3.30868
-2.91906
-2.60514
-2.35435
-2.15404
-1.98989
-1.85291
-1.72921
-1.60731
-1.47399
-1.3187
-1.12642
-0.887018
-0.589725
-0.223975
-5.87224
-5.27339
-4.64799
-4.05054
-3.51134
-3.04256
-2.64585
-2.31667
-2.04737
-1.82669
-1.64634
-1.49341
-1.35637
-1.22222
-1.0801
-0.915557
-0.718104
-0.47682
-0.181149
-5.94849
-5.44972
-4.87477
-4.28077
-3.70953
-3.18671
-2.72544
-2.33015
-1.99929
-1.72573
-1.50295
-1.31945
-1.16403
-1.02406
-0.888511
-0.743542
-0.578487
-0.382492
-0.145134
-5.98524
-5.5753
-5.05923
-4.48726
-3.90452
-3.34604
-2.83467
-2.38366
-1.9981
-1.67558
-1.41209
-1.19784
-1.0222
-0.872949
-0.73892
-0.606803
-0.465865
-0.305438
-0.115354
-5.89326
-5.57889
-5.13347
-4.60354
-4.03367
-3.46395
-2.92428
-2.4356
-2.00945
-1.64833
-1.35138
-1.11084
-0.917017
-0.758254
-0.623459
-0.49983
-0.376721
-0.243779
-0.091239
-5.66026
-5.43881
-5.07208
-4.60037
-4.06516
-3.50816
-2.96348
-2.45789
-2.00854
-1.62267
-1.30275
-1.04337
-0.836087
-0.670035
-0.534423
-0.416993
-0.307329
-0.195489
-0.0722074
-5.37114
-5.21122
-4.91522
-4.50551
-4.01603
-3.48679
-2.95365
-2.44725
-1.98917
-1.59076
-1.25771
-0.986899
-0.771311
-0.600978
-0.465536
-0.353271
-0.254065
-0.158404
-0.0575495
-5.13106
-5.01991
-4.77722
-4.41656
-3.96506
-3.46018
-2.93853
-2.43345
-1.97004
-1.56302
-1.22068
-0.941859
-0.720621
-0.547674
-0.412923
-0.304986
-0.213921
-0.130537
-0.0465327
-4.66203
-4.61903
-4.44292
-4.14795
-3.75615
-3.30073
-2.81678
-2.33822
-1.89219
-1.49594
-1.16007
-0.885452
-0.667559
-0.49816
-0.36782
-0.265765
-0.182446
-0.109142
-0.0381635
-4.12137
-4.13271
-4.01801
-3.78758
-3.45915
-3.06139
-2.62667
-2.18784
-1.77262
-1.3997
-1.0812
-0.8197
-0.612012
-0.451073
-0.328298
-0.23366
-0.158055
-0.0931742
-0.0319901
-3.53957
-3.58525
-3.52149
-3.35099
-3.08626
-2.75099
-2.37394
-1.98558
-1.61277
-1.27447
-0.983438
-0.743476
-0.552554
-0.404849
-0.292848
-0.207493
-0.140194
-0.0827563
-0.0282234
-2.87567
-2.93709
-2.91509
-2.80333
-2.60754
-2.34496
-2.03924
-1.7167
-1.40188
-1.11272
-0.861724
-0.653526
-0.487143
-0.358215
-0.260733
-0.18715
-0.129784
-0.0804303
-0.0303117
-2.10958
-2.08278
-1.99743
-1.85605
-1.66994
-1.45527
-1.22975
-1.00932
-0.806994
-0.630624
-0.48393
-0.36661
-0.275414
-0.206125
-0.154415
-0.115804
-0.0856581
-0.0582347
-0.0255551
-1.41017
-1.55658
-1.68788
-1.77011
-1.78412
-1.72489
-1.60104
-1.42958
-1.23249
-1.03019
-0.83876
-0.66909
-0.525151
-0.407986
-0.316196
-0.247077
-0.196181
-0.157999
-0.124097
-0.47288
-0.531413
-0.601889
-0.666322
-0.711502
-0.729219
-0.71779
-0.679919
-0.623
-0.555443
-0.484277
-0.415949
-0.352517
-0.29563
-0.24614
-0.205697
-0.174411
-0.152504
-0.138189
0.467309
0.400284
0.29707
0.173657
0.0465859
-0.0697289
-0.165448
-0.235523
-0.280522
-0.304335
-0.311363
-0.307059
-0.293562
-0.273048
-0.24751
-0.221086
-0.196849
-0.178123
-0.165274
1.39964
1.30879
1.16257
0.978058
0.774139
0.569175
0.378335
0.211812
0.0739319
-0.0357082
-0.119321
-0.181041
-0.222346
-0.244572
-0.249066
-0.24093
-0.225644
-0.210081
-0.197398
2.23116
2.09743
1.89977
1.65741
1.38976
1.11616
0.853497
0.613782
0.403562
0.224223
0.0748843
-0.0475511
-0.143565
-0.212556
-0.253028
-0.268479
-0.264889
-0.252724
-0.239093
3.07588
2.88493
2.62676
2.32128
1.98867
1.64912
1.32028
1.01467
0.739706
0.497337
0.287031
0.105655
-0.0472315
-0.169531
-0.255727
-0.304856
-0.319737
-0.312969
-0.297071
3.69067
3.43596
3.1227
2.76964
2.39618
2.02042
1.65758
1.318
1.00784
0.728266
0.478314
0.25405
0.0539865
-0.119754
-0.257979
-0.35298
-0.398359
-0.403006
-0.383076
4.24476
3.93695
3.57051
3.17173
2.76086
2.35404
1.96395
1.5985
1.26232
0.955477
0.67628
0.419303
0.180417
-0.0414786
-0.237508
-0.395664
-0.495949
-0.533038
-0.518001
4.73454
4.35673
3.93426
3.49375
3.05324
2.62532
2.21923
1.83995
1.49036
1.16939
0.87494
0.60063
0.339574
0.0851262
-0.159946
-0.388724
-0.572988
-0.686036
-0.701893
5.01822
4.53627
4.03226
3.52995
3.04358
2.58173
2.15021
1.75139
1.38639
1.05314
0.748658
0.466172
0.196964
-0.0707591
-0.344497
-0.632556
-0.92093
-1.1846
-1.37567
5.15967
4.63988
4.13633
3.66316
3.22342
2.81651
2.4409
2.09438
1.77532
1.48154
1.21137
0.961971
0.729242
0.506891
0.28708
0.0542632
-0.204337
-0.502479
-0.842275
5.23964
4.70906
4.22632
3.78642
3.38209
3.00791
2.65985
2.3352
2.03266
1.75098
1.48973
1.24858
1.02615
0.821398
0.633707
0.460505
0.298787
0.142074
-0.0209391
4.89461
4.29164
3.76886
3.30776
2.89586
2.52511
2.18954
1.8847
1.60751
1.35485
1.12455
0.914826
0.723172
0.547985
0.388856
0.245488
0.118882
0.0112522
-0.0766884
4.24706
3.70918
3.24855
2.84666
2.49118
2.17376
1.8882
1.62981
1.39538
1.18183
0.987184
0.809836
0.647683
0.49931
0.364084
0.241144
0.130173
0.0317115
-0.0546095
3.49325
3.04949
2.66681
2.33325
2.03944
1.77835
1.54454
1.33375
1.14305
0.969654
0.811748
0.66787
0.536157
0.415298
0.304638
0.203314
0.110979
0.0281185
-0.045494
2.60934
2.2711
1.98173
1.73151
1.51261
1.31911
1.14649
0.991271
0.851047
0.723591
0.607488
0.501582
0.404442
0.315071
0.232999
0.157609
0.0887218
0.0268169
-0.0281846
1.63411
1.40902
1.22281
1.065
0.928601
0.808929
0.702671
0.607401
0.521484
0.443441
0.372339
0.307416
0.247751
0.1927
0.141963
0.0951556
0.0521894
0.0134232
-0.0211174
0.624728
0.532524
0.459249
0.398122
0.345594
0.299628
0.258924
0.22257
0.189951
0.160505
0.133854
0.109669
0.0875577
0.067222
0.0484819
0.0311312
0.0150752
0.000394035
-0.0129207
-0.62443
-0.531843
-0.4583
-0.396991
-0.344349
-0.298324
-0.257604
-0.22127
-0.188701
-0.159331
-0.132776
-0.108701
-0.0867155
-0.0665161
-0.0479208
-0.0307217
-0.0148214
-0.000295917
0.0128662
-1.63382
-1.40841
-1.22196
-1.06399
-0.927504
-0.807784
-0.701518
-0.606275
-0.52041
-0.442441
-0.371433
-0.306618
-0.247074
-0.192154
-0.141557
-0.0948949
-0.052078
-0.0134603
0.0209362
-2.60905
-2.2705
-1.9809
-1.73051
-1.5115
-1.31794
-1.14531
-0.990103
-0.849924
-0.722535
-0.606518
-0.500709
-0.403679
-0.314423
-0.23247
-0.1572
-0.0884308
-0.0266387
0.0282575
-3.49302
-3.04905
-2.66621
-2.33252
-2.03864
-1.77751
-1.54369
-1.33293
-1.14228
-0.96894
-0.81111
-0.667321
-0.535704
-0.414945
-0.304387
-0.203164
-0.110927
-0.0281601
0.0453665
-4.2469
-3.70887
-3.24811
-2.84611
-2.49057
-2.17312
-1.88755
-1.62918
-1.39478
-1.18129
-0.986706
-0.809434
-0.647364
-0.499076
-0.363934
-0.241075
-0.130175
-0.0317705
0.0545114
-4.89457
-4.29151
-3.76862
-3.30744
-2.89549
-2.52471
-2.18914
-1.88433
-1.60719
-1.35459
-1.12436
-0.914717
-0.723147
-0.548047
-0.389003
-0.245708
-0.119147
-0.0115139
0.076483
-5.2396
-4.70855
-4.22525
-3.78477
-3.37992
-3.0053
-2.6569
-2.33201
-2.02933
-1.74759
-1.48636
-1.24525
-1.02289
-0.818208
-0.630594
-0.45752
-0.29607
-0.13995
0.0219246
-5.16053
-4.6422
-4.14015
-3.66837
-3.22986
-2.82398
-2.44918
-2.10325
-1.78456
-1.491
-1.22093
-0.971566
-0.738902
-0.516735
-0.297313
-0.0651941
0.192446
0.489586
0.828856
-5.0178
-4.53518
-4.03046
-3.5275
-3.04058
-2.5783
-2.14647
-1.74747
-1.38239
-1.04916
-0.744751
-0.462391
-0.193347
0.0742002
0.347816
0.63593
0.924792
1.18968
1.38292
-4.73482
-4.35742
-3.93531
-3.49509
-3.05481
-2.62705
-2.22106
-1.84182
-1.49222
-1.17121
-0.876685
-0.602294
-0.34114
-0.0865487
0.158775
0.388001
0.57294
0.686794
0.703249
-4.24493
-3.93738
-3.57117
-3.1726
-2.76189
-2.35519
-1.96517
-1.59975
-1.26357
-0.956682
-0.677416
-0.420342
-0.181321
0.0407814
0.237123
0.395713
0.496483
0.533956
0.519088
-3.69086
-3.43641
-3.1234
-2.77056
-2.39727
-2.02162
-1.65884
-1.31927
-1.00907
-0.729408
-0.479339
-0.254926
-0.0546748
0.11931
0.257837
0.353175
0.398855
0.403682
0.383778
-3.07607
-2.88539
-2.6275
-2.32225
-1.98981
-1.65038
-1.32158
-1.01595
-0.740903
-0.49841
-0.287947
-0.10639
0.0467071
0.169245
0.255694
0.305061
0.32012
0.313444
0.297559
-2.23133
-2.09788
-1.90049
-1.65836
-1.39088
-1.11737
-0.854729
-0.614962
-0.404632
-0.225145
-0.0756336
0.04699
0.143203
0.212398
0.253063
0.268673
0.265189
0.253076
0.239453
-1.39983
-1.30928
-1.16334
-0.979065
-0.775307
-0.570413
-0.379555
-0.212941
-0.0749156
0.0349014
0.118703
0.180613
0.222102
0.244497
0.249137
0.241108
0.225889
0.21036
0.197685
-0.467477
-0.400757
-0.297832
-0.174647
-0.0477142
0.0685617
0.164335
0.234535
0.279703
0.303704
0.310916
0.306786
0.293441
0.273057
0.247619
0.221263
0.197067
0.178363
0.165526
0.472474
0.530199
0.599883
0.663668
0.708436
0.726006
0.714681
0.677101
0.620591
0.553491
0.482768
0.414843
0.35175
0.295134
0.245846
0.205548
0.174363
0.152543
0.138342
1.41043
1.55759
1.68975
1.7728
1.78746
1.72863
1.60491
1.43334
1.23595
1.03324
0.841346
0.671225
0.526877
0.409368
0.317304
0.247981
0.196939
0.158657
0.124675
2.10926
2.08169
1.99561
1.85363
1.66715
1.45236
1.22692
1.00672
0.804733
0.628738
0.482412
0.365427
0.274518
0.205466
0.153944
0.115478
0.0854424
0.0581068
0.025507
2.87582
2.93741
2.91556
2.80391
2.60816
2.34555
2.03976
1.71713
1.4022
1.11294
0.861855
0.653595
0.487171
0.35822
0.260727
0.187141
0.129776
0.0804255
0.0303123
3.53958
3.58527
3.52152
3.35101
3.08627
2.75099
2.37393
1.98555
1.61274
1.27442
0.983392
0.743433
0.552518
0.404822
0.292829
0.207482
0.140189
0.0827555
0.0282249
4.12139
4.13273
4.01803
3.7876
3.45916
3.06138
2.62665
2.18781
1.77259
1.39966
1.08117
0.819671
0.611989
0.451058
0.32829
0.233657
0.158056
0.0931761
0.0319911
4.66203
4.61904
4.44293
4.14796
3.75615
3.30072
2.81677
2.3382
1.89216
1.49591
1.16005
0.885432
0.667546
0.498154
0.36782
0.265768
0.18245
0.109145
0.0381644
5.13107
5.01993
4.77724
4.41657
3.96507
3.46018
2.93852
2.43343
1.97002
1.563
1.22067
0.941848
0.720616
0.547674
0.412926
0.304991
0.213926
0.13054
0.0465334
5.37115
5.21123
4.91524
4.50553
4.01604
3.48679
2.95364
2.44723
1.98915
1.59075
1.2577
0.986894
0.77131
0.600981
0.465541
0.353277
0.254069
0.158406
0.0575497
5.66026
5.43882
5.07209
4.60039
4.06517
3.50816
2.96347
2.45788
2.00853
1.62266
1.30275
1.04337
0.836089
0.67004
0.534428
0.416997
0.307331
0.195488
0.0722068
5.89327
5.57891
5.13349
4.60356
4.03368
3.46395
2.92428
2.4356
2.00944
1.64833
1.35137
1.11084
0.917019
0.758256
0.623461
0.49983
0.376718
0.243775
0.0912374
5.98524
5.57531
5.05924
4.48727
3.90453
3.34605
2.83467
2.38365
1.9981
1.67557
1.41208
1.19784
1.0222
0.872947
0.738914
0.606795
0.465855
0.30543
0.115351
5.9485
5.44974
4.87478
4.28079
3.70954
3.18671
2.72544
2.33015
1.99929
1.72573
1.50294
1.31944
1.16402
1.02405
0.888496
0.743524
0.57847
0.38248
0.145131
5.87226
5.27341
4.64802
4.05056
3.51135
3.04257
2.64585
2.31667
2.04737
1.82669
1.64633
1.4934
1.35635
1.2222
1.08007
0.915531
0.718082
0.476807
0.181147
5.6908
4.99671
4.35103
3.78464
3.30867
2.91905
2.60513
2.35433
2.15403
1.98988
1.85289
1.72919
1.60728
1.47395
1.31867
1.12638
0.886993
0.589712
0.223974
5.11273
4.41202
3.82854
3.36876
3.01969
2.75938
2.5653
2.41907
2.30521
2.20817
2.11985
2.02647
1.91742
1.77988
1.60428
1.37549
1.08432
0.720605
0.273776
4.55593
3.89252
3.41323
3.09135
2.8852
2.75761
2.67833
2.62699
2.58783
2.54551
2.49356
2.41856
2.31071
2.15749
1.95017
1.67344
1.31881
0.876327
0.33404
3.87985
3.32519
3.02731
2.89563
2.86093
2.87845
2.91667
2.95742
2.9871
2.99207
2.96802
2.90256
2.78681
2.6087
2.36029
2.02611
1.59774
1.06436
0.410036
2.74816
2.52232
2.54331
2.68317
2.868
3.05922
3.23203
3.37426
3.47686
3.52973
3.53106
3.47099
3.34188
3.13285
2.83696
2.43898
1.92954
1.29515
0.510844
1.64713
1.90535
2.29558
2.71118
3.10227
3.44763
3.73516
3.95994
4.11856
4.20527
4.21988
4.15615
4.00715
3.76312
3.41716
2.95342
2.358
1.60951
0.662911
0.585597
1.42081
2.20168
2.89076
3.48069
3.9714
4.36615
4.66678
4.87607
4.99376
5.02033
4.95505
4.79132
4.52077
4.13526
3.61668
2.94073
2.06856
0.91634
-0.218792
1.16626
2.29765
3.22842
3.9958
4.6165
5.10867
5.47896
5.73678
5.88857
5.93479
5.8825
5.72535
5.45675
5.06526
4.52757
3.79877
2.8054
1.39209
-0.60334
1.16377
2.55789
3.68311
4.60214
5.33769
5.91996
6.35851
6.67004
6.86978
6.95854
6.95442
6.85269
6.6503
6.33084
5.86207
5.16373
4.09932
2.3887
-0.524924
1.37958
2.9293
4.19793
5.24242
6.0789
6.74596
7.25558
7.63331
7.90696
8.08042
8.18812
8.23302
8.22244
8.13756
7.93864
7.49532
6.56997
4.68132
-0.0978942
1.73211
3.3466
4.71532
5.86097
6.78443
7.52974
8.11404
8.57399
8.95764
9.27809
9.59556
9.93957
10.3495
10.8236
11.3456
11.7476
11.6735
10.3549
0.41905
2.10035
3.74288
5.18867
6.4149
7.40939
8.21976
8.87802
9.43117
9.96538
10.5108
11.171
12.0619
13.341
15.1858
18.016
22.4629
29.8797
43.064
)
;

boundaryField
{
    up
    {
        type            calculated;
        value           nonuniform List<scalar> 
84
(
-43.064
-10.3549
-4.68133
-2.38871
-1.39209
-0.916341
-0.662908
-0.510838
-0.410029
-0.334035
-0.273774
-0.223975
-0.181149
-0.145134
-0.115354
-0.091239
-0.0722074
-0.0575495
-0.0465327
-0.0381635
-0.0319901
-0.0282234
-0.0303117
-0.0255551
-0.104491
-0.12664
-0.152505
-0.18202
-0.219637
-0.271403
-0.346847
-0.458409
-0.604228
-1.33288
-0.860685
-0.0220361
-0.0760752
-0.0542063
-0.0452633
-0.0280906
-0.0210783
-0.0129125
0.0128581
0.0208977
0.0281642
0.0451373
0.0541103
0.0758719
0.023
0.847089
1.34134
0.605471
0.459326
0.34746
0.271837
0.219963
0.182285
0.152744
0.126842
0.105
0.025507
0.0303123
0.0282249
0.0319911
0.0381644
0.0465334
0.0575497
0.0722068
0.0912374
0.115351
0.145131
0.181147
0.223974
0.273776
0.33404
0.410036
0.510844
0.662911
0.91634
1.39209
2.3887
4.68132
10.3549
43.064
)
;
    }
    low
    {
        type            calculated;
        value           nonuniform List<scalar> 
84
(
-0.376986
0.162173
0.62773
0.713909
0.287548
-0.598152
-1.74937
-2.9181
-4.07507
-4.71641
-5.25555
-5.80984
-5.931
-5.97194
-5.9877
-5.86176
-5.59838
-5.30124
-5.04034
-4.53076
-3.96763
-3.37759
-2.71296
-1.96402
-1.2942
-0.430615
0.419119
1.28087
2.08146
2.93076
3.57759
4.1582
4.68387
5.01165
5.18677
5.3056
4.99976
4.35537
3.5877
2.68326
1.68252
0.644824
-0.644524
-1.68223
-2.68296
-3.58744
-4.35517
-4.99967
-5.3055
-5.1875
-5.01124
-4.68409
-4.15835
-3.57776
-2.93095
-2.08163
-1.28107
-0.419291
0.430219
1.29446
1.96372
2.71309
3.37761
3.96764
4.53076
5.04035
5.30126
5.59839
5.86178
5.98771
5.97195
5.93102
5.80982
5.25557
4.71645
4.0751
2.91813
1.7494
0.59817
-0.287539
-0.713913
-0.627741
-0.162181
0.376988
)
;
    }
    left
    {
        type            calculated;
        value           nonuniform List<scalar> 
19
(
-0.373777
-2.02197
-3.70154
-5.20053
-6.48196
-7.52423
-8.37784
-9.07985
-9.67666
-10.2742
-10.9023
-11.6755
-12.7418
-14.3075
-16.5925
-20.1826
-25.9527
-35.7931
-37.347
)
;
    }
    right
    {
        type            calculated;
        value           nonuniform List<scalar> 
19
(
0.373782
2.02198
3.70153
5.20052
6.48195
7.52423
8.37784
9.07985
9.67667
10.2742
10.9023
11.6755
12.7418
14.3075
16.5925
20.1826
25.9526
35.7931
37.347
)
;
    }
    frontAndBackPlanes
    {
        type            empty;
    }
}


// ************************************************************************* //
