/*--------------------------------*- C++ -*----------------------------------*\
  =========                 |
  \\      /  F ield         | OpenFOAM: The Open Source CFD Toolbox
   \\    /   O peration     | Website:  https://openfoam.org
    \\  /    A nd           | Version:  7
     \\/     M anipulation  |
\*---------------------------------------------------------------------------*/
FoamFile
{
    version     2.0;
    format      ascii;
    class       volScalarField;
    location    "0.04";
    object      gradTy;
}
// * * * * * * * * * * * * * * * * * * * * * * * * * * * * * * * * * * * * * //

dimensions      [0 -1 0 1 0 0 0];

internalField   nonuniform List<scalar> 
1596
(
-0.368997
-0.656151
-0.844218
-0.977201
-1.06472
-1.14261
-1.20553
-1.27645
-1.35485
-1.43396
-1.54594
-1.67018
-1.84427
-2.1088
-2.57648
-3.37606
-4.92249
-7.87936
-18.5895
-1.07764
-1.24385
-1.26487
-1.2293
-1.17515
-1.14715
-1.13899
-1.16212
-1.20818
-1.26186
-1.34798
-1.44729
-1.58737
-1.78953
-2.12218
-2.61637
-3.42508
-4.66857
-8.23962
-1.80337
-1.74345
-1.57204
-1.37284
-1.19048
-1.06684
-0.99298
-0.969813
-0.982227
-1.00991
-1.06873
-1.14004
-1.24289
-1.38947
-1.6288
-1.97118
-2.51062
-3.29736
-4.99262
-2.42247
-2.13178
-1.78582
-1.44687
-1.15764
-0.952812
-0.821906
-0.757099
-0.738386
-0.742616
-0.776612
-0.822817
-0.892619
-0.992463
-1.15765
-1.39197
-1.76022
-2.28758
-3.20994
-2.85507
-2.40839
-1.93725
-1.49428
-1.12287
-0.852461
-0.673676
-0.57277
-0.526702
-0.510872
-0.523953
-0.549714
-0.593089
-0.656551
-0.764418
-0.918878
-1.16692
-1.52609
-2.08793
-3.0879
-2.58613
-2.05042
-1.54247
-1.11317
-0.791869
-0.573405
-0.441436
-0.371602
-0.338721
-0.334837
-0.344778
-0.368436
-0.405402
-0.471003
-0.566878
-0.72661
-0.965416
-1.32598
-3.15822
-2.68107
-2.13511
-1.59813
-1.13305
-0.774201
-0.523278
-0.364591
-0.274047
-0.226488
-0.209047
-0.207108
-0.216874
-0.235859
-0.272429
-0.32754
-0.423803
-0.574428
-0.804377
-3.11954
-2.70754
-2.18955
-1.65289
-1.17164
-0.787808
-0.511534
-0.330405
-0.22201
-0.161771
-0.133538
-0.122815
-0.123219
-0.130817
-0.14903
-0.177964
-0.231551
-0.320151
-0.460468
-3.02148
-2.69278
-2.22338
-1.7056
-1.22177
-0.822246
-0.526012
-0.32567
-0.201514
-0.129963
-0.092863
-0.0754907
-0.0696547
-0.0703894
-0.0778939
-0.0914714
-0.118783
-0.166949
-0.24722
-2.88703
-2.62984
-2.21602
-1.73081
-1.25824
-0.854889
-0.547253
-0.333568
-0.197503
-0.117017
-0.0731328
-0.0509224
-0.0410336
-0.0378064
-0.0395103
-0.044845
-0.0573961
-0.0814171
-0.124062
-2.77289
-2.55539
-2.18571
-1.73353
-1.27814
-0.878578
-0.566374
-0.344696
-0.200528
-0.113563
-0.0647843
-0.0391747
-0.0266944
-0.0212339
-0.0199914
-0.0212873
-0.0263299
-0.0372583
-0.0581856
-2.6655
-2.48516
-2.15023
-1.72612
-1.28778
-0.894782
-0.581666
-0.355442
-0.205909
-0.11437
-0.0621384
-0.0341753
-0.0200399
-0.0133203
-0.0106388
-0.010095
-0.0116438
-0.016098
-0.0255436
-2.55175
-2.40255
-2.09691
-1.69786
-1.27729
-0.894567
-0.58541
-0.359361
-0.208281
-0.114874
-0.0610463
-0.0319265
-0.0169756
-0.00966212
-0.00635259
-0.00504997
-0.00512011
-0.00665463
-0.0105488
-2.4663
-2.32705
-2.03799
-1.65641
-1.25072
-0.879161
-0.577065
-0.354964
-0.205755
-0.113077
-0.0594596
-0.0303343
-0.0153016
-0.00788248
-0.00439801
-0.00284895
-0.00236929
-0.00271263
-0.00415281
-2.39876
-2.26365
-1.98075
-1.60837
-1.21317
-0.851933
-0.558488
-0.342968
-0.198293
-0.108502
-0.0566268
-0.028482
-0.0139737
-0.00681606
-0.00342632
-0.00187374
-0.00124023
-0.00115274
-0.00160218
-2.33989
-2.20839
-1.9254
-1.55552
-1.16664
-0.814552
-0.530845
-0.324052
-0.186177
-0.101145
-0.0523408
-0.026024
-0.0125442
-0.00593525
-0.00281666
-0.001385
-0.000760789
-0.000550362
-0.000638424
-2.29667
-2.16161
-1.87178
-1.49822
-1.11187
-0.767935
-0.495028
-0.298953
-0.169929
-0.091314
-0.0467219
-0.0229395
-0.0108909
-0.00504704
-0.00231683
-0.00107372
-0.000525383
-0.000307923
-0.000282484
-2.27025
-2.12621
-1.82261
-1.43926
-1.0518
-0.714883
-0.453473
-0.269574
-0.150891
-0.0798633
-0.0402554
-0.0194642
-0.00909225
-0.00413633
-0.00185423
-0.000829295
-0.000380373
-0.000195073
-0.000145267
-2.24553
-2.10265
-1.78324
-1.38518
-0.992725
-0.660873
-0.410509
-0.239051
-0.131146
-0.0680686
-0.0336621
-0.0159715
-0.00732007
-0.0032648
-0.00143187
-0.000623367
-0.000274669
-0.000130448
-8.45683e-05
-2.21866
-2.0831
-1.74802
-1.3324
-0.932666
-0.605165
-0.366199
-0.207828
-0.111208
-0.0563478
-0.0272272
-0.0126301
-0.00566192
-0.00247009
-0.00105908
-0.000449865
-0.000192305
-8.70647e-05
-5.20337e-05
-2.20562
-2.07249
-1.71827
-1.28137
-0.872134
-0.548544
-0.321489
-0.176802
-0.091786
-0.0451844
-0.0212426
-0.00959909
-0.00419607
-0.00178629
-0.00074759
-0.000309836
-0.00012893
-5.63454e-05
-3.20173e-05
-2.19828
-2.07125
-1.69604
-1.2347
-0.813858
-0.493483
-0.278358
-0.147385
-0.0737804
-0.0350955
-0.0159777
-0.00700557
-0.00297658
-0.00123338
-0.00050296
-0.000203217
-8.23914e-05
-3.49293e-05
-1.91276e-05
-2.18815
-2.07594
-1.68203
-1.19511
-0.761022
-0.442713
-0.238748
-0.12077
-0.0578371
-0.0263877
-0.0115584
-0.00489132
-0.00201169
-0.00080889
-0.00032077
-0.000126239
-4.98981e-05
-2.05738e-05
-1.08953e-05
-2.17192
-2.0816
-1.67403
-1.16318
-0.71546
-0.397944
-0.203742
-0.0974327
-0.0440601
-0.0190085
-0.00789404
-0.00318008
-0.00125008
-0.000482288
-0.000184081
-6.99777e-05
-2.68134e-05
-1.07486e-05
-5.28935e-06
-2.15228
-2.09566
-1.69633
-1.17721
-0.718498
-0.394068
-0.197969
-0.0925453
-0.0408568
-0.0172402
-0.00703117
-0.00280341
-0.00110059
-0.000428551
-0.00016679
-6.54699e-05
-2.62597e-05
-1.12117e-05
-5.5245e-06
-2.13081
-2.10995
-1.73451
-1.22142
-0.755286
-0.418458
-0.211513
-0.0989807
-0.0435095
-0.0181995
-0.00733493
-0.0028912
-0.00112675
-0.000439121
-0.000172977
-6.96948e-05
-2.92021e-05
-1.33359e-05
-7.23051e-06
-2.12296
-2.11921
-1.76834
-1.27012
-0.803367
-0.455606
-0.235408
-0.112203
-0.0499397
-0.020988
-0.00841837
-0.00327199
-0.00124801
-0.000474713
-0.000183216
-7.32353e-05
-3.12444e-05
-1.51839e-05
-9.09997e-06
-2.13378
-2.12604
-1.79617
-1.31969
-0.860103
-0.50497
-0.270737
-0.133883
-0.0616543
-0.0266619
-0.0109012
-0.00426348
-0.00160845
-0.000593045
-0.000217063
-8.08402e-05
-3.22467e-05
-1.5704e-05
-1.04307e-05
-2.16006
-2.1371
-1.8246
-1.37335
-0.926433
-0.567179
-0.318737
-0.165727
-0.0803403
-0.0365499
-0.0156681
-0.00638277
-0.00247891
-0.000922793
-0.000329587
-0.000112776
-3.7274e-05
-1.45778e-05
-9.91846e-06
-2.20163
-2.15463
-1.85624
-1.43135
-1.00063
-0.640374
-0.378663
-0.208202
-0.10714
-0.0518967
-0.0237344
-0.0103267
-0.00428169
-0.00169645
-0.000638178
-0.000222535
-6.55986e-05
-1.48382e-05
-4.96568e-06
-2.2598
-2.18551
-1.89923
-1.49922
-1.0851
-0.725329
-0.451141
-0.262453
-0.143635
-0.0743553
-0.0365166
-0.0171489
-0.00771976
-0.00334646
-0.00139238
-0.000545907
-0.000181334
-3.69445e-05
6.51152e-06
-2.31413
-2.22592
-1.95432
-1.57837
-1.18076
-0.822611
-0.537015
-0.329939
-0.191796
-0.106058
-0.0559636
-0.0284184
-0.0139386
-0.00665178
-0.00309747
-0.00140411
-0.000576113
-0.000171988
5.9308e-06
-2.3789
-2.28032
-2.02169
-1.66701
-1.28509
-0.929993
-0.635106
-0.410842
-0.252992
-0.14909
-0.084352
-0.0462238
-0.0246439
-0.0129002
-0.00668079
-0.00346742
-0.00173972
-0.000756297
-0.000121876
-2.46441
-2.35486
-2.10575
-1.76884
-1.40139
-1.05071
-0.748917
-0.509239
-0.331898
-0.208441
-0.126634
-0.0750982
-0.0437284
-0.0252741
-0.0146792
-0.00876938
-0.00540495
-0.00341979
-0.00206483
-2.56262
-2.43914
-2.19068
-1.86327
-1.50596
-1.16003
-0.854836
-0.604513
-0.411962
-0.27179
-0.174298
-0.109501
-0.067776
-0.0417292
-0.0258724
-0.0165368
-0.0111269
-0.00809383
-0.00632918
-2.68102
-2.5301
-2.26836
-1.93779
-1.5815
-1.23623
-0.92839
-0.671769
-0.47014
-0.319526
-0.211816
-0.137913
-0.0887106
-0.0568827
-0.0368213
-0.024582
-0.0173647
-0.0134497
-0.011637
-2.82277
-2.63461
-2.3514
-2.00924
-1.64647
-1.29657
-0.983808
-0.721265
-0.512817
-0.354972
-0.240347
-0.16028
-0.105935
-0.0700578
-0.0470036
-0.0326649
-0.0240815
-0.0193458
-0.0170651
-2.95011
-2.72961
-2.42655
-2.07266
-1.70293
-1.34824
-1.03111
-0.763763
-0.549936
-0.38637
-0.266156
-0.181009
-0.122335
-0.082983
-0.0573212
-0.0411532
-0.0314079
-0.0260518
-0.0235531
-3.0478
-2.80798
-2.49113
-2.12821
-1.75266
-1.39375
-1.07276
-0.801276
-0.582892
-0.414505
-0.289575
-0.200116
-0.137741
-0.0954005
-0.0674945
-0.0497603
-0.0390473
-0.0332129
-0.0305996
-3.12504
-2.87059
-2.54291
-2.17267
-1.79227
-1.42986
-1.1058
-0.831113
-0.609266
-0.437222
-0.308706
-0.215947
-0.150723
-0.10607
-0.0764302
-0.0574962
-0.0460662
-0.0399123
-0.0372767
-3.18209
-2.91609
-2.57961
-2.2035
-1.81934
-1.45439
-1.12822
-0.851454
-0.627378
-0.452971
-0.322118
-0.22719
-0.160079
-0.113888
-0.0830984
-0.0633763
-0.0514916
-0.0451565
-0.0425415
-3.2233
-2.94276
-2.59852
-2.21823
-1.83184
-1.46565
-1.13864
-0.861079
-0.636122
-0.460725
-0.328848
-0.232933
-0.164941
-0.118021
-0.0866835
-0.0665898
-0.0545022
-0.0481066
-0.0455384
-3.22331
-2.94278
-2.59857
-2.21828
-1.8319
-1.46571
-1.1387
-0.861133
-0.636169
-0.460765
-0.328881
-0.232959
-0.164962
-0.118037
-0.086697
-0.0666011
-0.0545123
-0.0481163
-0.0455485
-3.18211
-2.91616
-2.57972
-2.20364
-1.8195
-1.45456
-1.12839
-0.85161
-0.627515
-0.453087
-0.322214
-0.227267
-0.16014
-0.113936
-0.0831377
-0.0634093
-0.0515209
-0.0451847
-0.0425709
-3.12507
-2.87068
-2.54307
-2.17289
-1.79252
-1.43014
-1.10607
-0.831362
-0.609485
-0.437407
-0.308857
-0.216067
-0.150817
-0.106144
-0.0764897
-0.0575455
-0.0461095
-0.0399535
-0.037319
-3.04784
-2.8081
-2.49134
-2.12851
-1.753
-1.39411
-1.07312
-0.801605
-0.583179
-0.414745
-0.289768
-0.200268
-0.13786
-0.0954921
-0.0675664
-0.0498187
-0.0390975
-0.0332597
-0.0306471
-2.95016
-2.72976
-2.42681
-2.07302
-1.70335
-1.34869
-1.03155
-0.764162
-0.550281
-0.386655
-0.266383
-0.181185
-0.122469
-0.0830846
-0.0573992
-0.0412149
-0.0314596
-0.0260989
-0.0236001
-2.82282
-2.63477
-2.3517
-2.00965
-1.64696
-1.29709
-0.98431
-0.721719
-0.513206
-0.355288
-0.240594
-0.160467
-0.106075
-0.0701606
-0.0470802
-0.0327236
-0.0241292
-0.0193879
-0.0171058
-2.68107
-2.53031
-2.26873
-1.93831
-1.58211
-1.23688
-0.929021
-0.672333
-0.470615
-0.319904
-0.212105
-0.138127
-0.0888654
-0.0569937
-0.0369016
-0.0246417
-0.0174114
-0.0134894
-0.0116743
-2.56266
-2.43923
-2.19095
-1.86373
-1.50658
-1.16074
-0.855556
-0.605176
-0.412526
-0.272238
-0.174636
-0.109744
-0.0679451
-0.0418435
-0.0259486
-0.0165874
-0.0111624
-0.00812495
-0.00636769
-2.46446
-2.35511
-2.10627
-1.7696
-1.40233
-1.05172
-0.749882
-0.510083
-0.332583
-0.208963
-0.127012
-0.0753621
-0.0439074
-0.0253938
-0.0147594
-0.00882504
-0.00544689
-0.00345658
-0.00210374
-2.37892
-2.28047
-2.02207
-1.66762
-1.28584
-0.930786
-0.635838
-0.411452
-0.253459
-0.149422
-0.0845751
-0.0463666
-0.024732
-0.0129532
-0.00671266
-0.00348774
-0.00175407
-0.000765879
-0.000124014
-2.31413
-2.22606
-1.95469
-1.57896
-1.18148
-0.823342
-0.537661
-0.330451
-0.192165
-0.106305
-0.0561186
-0.0285108
-0.0139913
-0.00668111
-0.00311376
-0.00141372
-0.00058227
-0.000174969
8.75111e-06
-2.2598
-2.18564
-1.89959
-1.49979
-1.08577
-0.725985
-0.451694
-0.262868
-0.143917
-0.0745319
-0.0366198
-0.017206
-0.00774985
-0.00336183
-0.00140019
-0.000549991
-0.000183423
-3.74141e-05
8.63031e-06
-2.20162
-2.15474
-1.85658
-1.43189
-1.00124
-0.640952
-0.379126
-0.20853
-0.107349
-0.0520192
-0.023801
-0.0103608
-0.00429822
-0.00170415
-0.00064168
-0.000224072
-6.611e-05
-1.4675e-05
-3.95144e-06
-2.16004
-2.13719
-1.82491
-1.37384
-0.926986
-0.567673
-0.319113
-0.165978
-0.0804906
-0.0366321
-0.0157097
-0.00640242
-0.00248764
-0.000926461
-0.00033104
-0.000113266
-3.73133e-05
-1.44053e-05
-9.5461e-06
-2.13376
-2.12612
-1.79645
-1.32013
-0.860581
-0.505379
-0.271031
-0.134068
-0.0617582
-0.0267151
-0.0109263
-0.00427444
-0.00161292
-0.000594731
-0.000217634
-8.0973e-05
-3.22116e-05
-1.56287e-05
-1.0337e-05
-2.12294
-2.11929
-1.7686
-1.27051
-0.803764
-0.455929
-0.235629
-0.112334
-0.0500095
-0.0210217
-0.00843333
-0.00327815
-0.00125037
-0.000475545
-0.000183479
-7.32944e-05
-3.12405e-05
-1.51784e-05
-9.1033e-06
-2.13079
-2.11002
-1.73472
-1.22173
-0.755589
-0.418695
-0.211668
-0.0990694
-0.0435547
-0.0182205
-0.00734394
-0.00289482
-0.00112813
-0.000439633
-0.000173164
-6.97628e-05
-2.92312e-05
-1.33592e-05
-7.25652e-06
-2.15229
-2.09568
-1.6964
-1.1773
-0.718584
-0.394132
-0.198009
-0.0925669
-0.0408672
-0.0172448
-0.00703311
-0.00280422
-0.00110093
-0.000428709
-0.000166869
-6.55124e-05
-2.62867e-05
-1.12327e-05
-5.53616e-06
-2.17192
-2.08158
-1.67398
-1.16311
-0.715379
-0.397873
-0.203689
-0.0973979
-0.0440394
-0.0189973
-0.00788831
-0.00317732
-0.00124882
-0.000481728
-0.000183839
-6.98757e-05
-2.67713e-05
-1.07318e-05
-5.27824e-06
-2.18815
-2.07595
-1.68203
-1.19512
-0.761027
-0.442716
-0.23875
-0.120771
-0.0578378
-0.026388
-0.0115585
-0.00489134
-0.00201168
-0.00080888
-0.000320761
-0.000126233
-4.98946e-05
-2.05721e-05
-1.08927e-05
-2.19828
-2.07125
-1.69604
-1.2347
-0.813858
-0.493483
-0.278358
-0.147385
-0.0737805
-0.0350956
-0.0159777
-0.00700561
-0.0029766
-0.00123338
-0.000502961
-0.000203216
-8.23902e-05
-3.49286e-05
-1.91253e-05
-2.20562
-2.07249
-1.71827
-1.28137
-0.872134
-0.548544
-0.321489
-0.176802
-0.0917861
-0.0451845
-0.0212427
-0.00959915
-0.00419611
-0.00178631
-0.0007476
-0.00030984
-0.000128931
-5.63462e-05
-3.20153e-05
-2.21866
-2.0831
-1.74802
-1.3324
-0.932666
-0.605165
-0.366199
-0.207828
-0.111208
-0.0563479
-0.0272272
-0.0126302
-0.00566198
-0.00247014
-0.0010591
-0.000449878
-0.000192309
-8.70686e-05
-5.20329e-05
-2.24553
-2.10265
-1.78324
-1.38518
-0.992726
-0.660874
-0.410509
-0.239051
-0.131146
-0.0680685
-0.0336622
-0.0159715
-0.00732016
-0.00326487
-0.00143191
-0.00062339
-0.000274675
-0.000130456
-8.45711e-05
-2.27025
-2.12621
-1.82261
-1.43927
-1.0518
-0.714883
-0.453473
-0.269574
-0.15089
-0.0798632
-0.0402554
-0.0194643
-0.00909237
-0.00413644
-0.00185431
-0.000829322
-0.000380366
-0.000195092
-0.000145283
-2.29667
-2.1616
-1.87178
-1.49822
-1.11187
-0.767936
-0.495028
-0.298953
-0.169929
-0.0913139
-0.046722
-0.0229397
-0.0108911
-0.00504721
-0.00231693
-0.00107372
-0.000525331
-0.000307979
-0.000282547
-2.33989
-2.20838
-1.9254
-1.55552
-1.16664
-0.814553
-0.530845
-0.324051
-0.186176
-0.101145
-0.052341
-0.0260243
-0.0125445
-0.00593548
-0.00281675
-0.00138489
-0.000760628
-0.000550552
-0.000638642
-2.39876
-2.26365
-1.98075
-1.60837
-1.21317
-0.851934
-0.558488
-0.342968
-0.198293
-0.108502
-0.0566272
-0.0284824
-0.013974
-0.00681632
-0.00342629
-0.00187336
-0.00123989
-0.00115336
-0.00160281
-2.46629
-2.32704
-2.03799
-1.65641
-1.25073
-0.879162
-0.577065
-0.354964
-0.205756
-0.113078
-0.0594601
-0.0303349
-0.0153021
-0.00788268
-0.00439766
-0.00284803
-0.00236881
-0.00271436
-0.0041543
-2.55175
-2.40254
-2.09691
-1.69786
-1.27729
-0.894568
-0.58541
-0.359361
-0.208282
-0.114875
-0.0610471
-0.0319273
-0.0169761
-0.00966204
-0.00635156
-0.00504825
-0.00511984
-0.00665873
-0.0105516
-2.66549
-2.48515
-2.15024
-1.72612
-1.28778
-0.894783
-0.581666
-0.355442
-0.205909
-0.114371
-0.0621395
-0.0341762
-0.0200402
-0.0133195
-0.0106366
-0.0100924
-0.0116447
-0.0161059
-0.0255474
-2.77289
-2.55539
-2.18572
-1.73354
-1.27815
-0.87858
-0.566376
-0.344698
-0.20053
-0.113565
-0.0647856
-0.0391754
-0.026694
-0.0212317
-0.0199878
-0.0212846
-0.0263335
-0.0372707
-0.0581882
-2.88703
-2.62984
-2.21602
-1.73081
-1.25824
-0.854891
-0.547256
-0.33357
-0.197505
-0.117018
-0.0731338
-0.0509223
-0.0410317
-0.0378023
-0.0395056
-0.0448437
-0.0574035
-0.0814314
-0.124059
-3.02148
-2.69278
-2.22338
-1.7056
-1.22177
-0.822247
-0.526014
-0.325672
-0.201515
-0.129964
-0.0928629
-0.0754889
-0.0696505
-0.0703834
-0.0778897
-0.0914737
-0.118793
-0.166958
-0.247206
-3.11954
-2.70754
-2.18955
-1.65289
-1.17164
-0.787809
-0.511535
-0.330406
-0.222011
-0.16177
-0.133536
-0.122811
-0.123213
-0.130811
-0.149029
-0.177971
-0.231561
-0.320145
-0.460442
-3.15822
-2.68107
-2.13511
-1.59813
-1.13305
-0.774201
-0.523278
-0.364592
-0.274047
-0.226486
-0.209043
-0.207102
-0.216867
-0.235856
-0.272433
-0.327553
-0.423808
-0.574402
-0.80435
-3.0879
-2.58613
-2.05043
-1.54247
-1.11317
-0.791869
-0.573404
-0.441435
-0.3716
-0.338717
-0.334831
-0.344771
-0.368431
-0.405404
-0.471014
-0.566891
-0.726604
-0.965376
-1.32597
-2.85508
-2.4084
-1.93725
-1.49428
-1.12287
-0.852461
-0.673675
-0.572768
-0.526699
-0.510867
-0.523947
-0.549709
-0.59309
-0.65656
-0.764432
-0.918886
-1.1669
-1.52605
-2.08795
-2.42247
-2.13179
-1.78582
-1.44687
-1.15764
-0.952812
-0.821904
-0.757096
-0.738383
-0.742612
-0.776608
-0.822817
-0.892625
-0.992476
-1.15766
-1.39197
-1.7602
-2.28756
-3.20998
-1.80337
-1.74345
-1.57204
-1.37284
-1.19048
-1.06684
-0.992978
-0.969811
-0.982225
-1.0099
-1.06873
-1.14004
-1.2429
-1.38949
-1.62881
-1.97117
-2.5106
-3.29737
-4.99266
-1.07764
-1.24385
-1.26487
-1.2293
-1.17515
-1.14715
-1.13899
-1.16212
-1.20818
-1.26186
-1.34798
-1.4473
-1.58738
-1.78954
-2.12217
-2.61636
-3.42507
-4.66858
-8.23963
-0.369
-0.656151
-0.844216
-0.9772
-1.06472
-1.14261
-1.20553
-1.27645
-1.35485
-1.43396
-1.54595
-1.67019
-1.84428
-2.1088
-2.57647
-3.37604
-4.92247
-7.87936
-18.5895
)
;

boundaryField
{
    up
    {
        type            calculated;
        value           nonuniform List<scalar> 
84
(
-16.8577
-9.11676
-5.48677
-3.52237
-2.29708
-1.46535
-0.893161
-0.513412
-0.276439
-0.138975
-0.0651785
-0.0285567
-0.0117436
-0.0045826
-0.0017374
-0.000670219
-0.00028205
-0.000137075
-7.62261e-05
-4.54999e-05
-2.74442e-05
-1.61517e-05
-9.02576e-06
-3.99729e-06
-4.02887e-06
-5.96443e-06
-7.88679e-06
-9.56545e-06
-9.62038e-06
-4.05485e-06
1.72499e-05
7.39822e-05
0.000106223
-0.00171102
-0.00600003
-0.0112089
-0.0164401
-0.0228998
-0.029956
-0.0366709
-0.0419778
-0.0450148
-0.0450252
-0.0420081
-0.0367144
-0.0300047
-0.0229478
-0.0164809
-0.0112452
-0.0060421
-0.00175648
0.000106007
8.06845e-05
2.15967e-05
-2.14702e-06
-8.96059e-06
-9.39658e-06
-7.87444e-06
-5.99222e-06
-4.03854e-06
-3.98448e-06
-9.02134e-06
-1.61477e-05
-2.74395e-05
-4.54944e-05
-7.62202e-05
-0.000137072
-0.000282069
-0.000670317
-0.00173769
-0.00458317
-0.011744
-0.0285551
-0.0651704
-0.138954
-0.276402
-0.513367
-0.893133
-1.46537
-2.29716
-3.52248
-5.48686
-9.11676
-16.8577
)
;
    }
    low
    {
        type            calculated;
        value           nonuniform List<scalar> 
84
(
-0.399543
-1.13917
-1.9245
-2.60568
-3.08289
-3.33187
-3.39027
-3.32404
-3.18469
-3.00669
-2.87474
-2.75139
-2.61339
-2.5171
-2.44513
-2.37732
-2.32669
-2.30174
-2.27305
-2.23034
-2.20469
-2.18594
-2.15904
-2.12491
-2.07158
-2.02848
-2.01708
-2.04602
-2.09832
-2.17105
-2.25534
-2.32352
-2.40198
-2.50224
-2.61134
-2.74553
-2.91016
-3.04981
-3.15305
-3.23505
-3.29626
-3.34532
-3.34533
-3.29627
-3.23507
-3.15306
-3.04983
-2.91018
-2.74556
-2.6113
-2.50227
-2.40194
-2.32349
-2.25531
-2.17102
-2.09828
-2.04598
-2.01705
-2.02847
-2.07157
-2.12494
-2.15902
-2.18593
-2.20469
-2.23034
-2.27304
-2.30174
-2.32668
-2.37731
-2.44512
-2.51709
-2.61338
-2.75138
-2.87473
-3.00669
-3.18469
-3.32404
-3.39027
-3.33187
-3.08289
-2.60569
-1.92451
-1.13918
-0.399547
)
;
    }
    left
    {
        type            calculated;
        value           nonuniform List<scalar> 
19
(
-0.365096
-0.652903
-0.851291
-0.995577
-1.09273
-1.17813
-1.24656
-1.32276
-1.40585
-1.49075
-1.61042
-1.74304
-1.93131
-2.22406
-2.74712
-3.65964
-5.44451
-8.89428
-17.462
)
;
    }
    right
    {
        type            calculated;
        value           nonuniform List<scalar> 
19
(
-0.365098
-0.652905
-0.851291
-0.995577
-1.09273
-1.17813
-1.24656
-1.32276
-1.40585
-1.49075
-1.61042
-1.74304
-1.93132
-2.22406
-2.7471
-3.6596
-5.44448
-8.89428
-17.462
)
;
    }
    frontAndBackPlanes
    {
        type            empty;
    }
}


// ************************************************************************* //
