/*--------------------------------*- C++ -*----------------------------------*\
  =========                 |
  \\      /  F ield         | OpenFOAM: The Open Source CFD Toolbox
   \\    /   O peration     | Website:  https://openfoam.org
    \\  /    A nd           | Version:  7
     \\/     M anipulation  |
\*---------------------------------------------------------------------------*/
FoamFile
{
    version     2.0;
    format      ascii;
    class       volScalarField;
    location    "0.04";
    object      gradTx;
}
// * * * * * * * * * * * * * * * * * * * * * * * * * * * * * * * * * * * * * //

dimensions      [0 -1 0 1 0 0 0];

internalField   nonuniform List<scalar> 
1596
(
-0.174286
-0.868363
-1.49677
-1.97104
-2.28704
-2.46592
-2.55483
-2.58574
-2.58246
-2.56631
-2.5344
-2.49956
-2.47533
-2.48758
-2.57248
-2.8125
-3.3187
-4.29867
-6.15112
0.0645832
-0.648192
-1.24274
-1.68412
-1.98176
-2.15573
-2.24637
-2.28036
-2.28148
-2.26628
-2.23565
-2.19765
-2.15019
-2.09487
-2.03034
-1.96238
-1.88128
-1.75658
-1.49447
0.265649
-0.391651
-0.909578
-1.29031
-1.54984
-1.70643
-1.79147
-1.82699
-1.83362
-1.82497
-1.80443
-1.77775
-1.73973
-1.68465
-1.60226
-1.48319
-1.31167
-1.06771
-0.701927
0.316945
-0.189294
-0.587276
-0.884627
-1.09248
-1.22333
-1.29806
-1.33323
-1.3449
-1.34378
-1.33484
-1.32251
-1.30277
-1.26905
-1.20995
-1.11066
-0.952972
-0.72013
-0.384659
0.191654
-0.102804
-0.354235
-0.554185
-0.701764
-0.800645
-0.860884
-0.892673
-0.90683
-0.910963
-0.910365
-0.908476
-0.903395
-0.890279
-0.860122
-0.798154
-0.686369
-0.507369
-0.240845
-0.066287
-0.146709
-0.247698
-0.345413
-0.427735
-0.48937
-0.530711
-0.555213
-0.568285
-0.574259
-0.577496
-0.580494
-0.582914
-0.582046
-0.572209
-0.541576
-0.4748
-0.354453
-0.161516
-0.384092
-0.294137
-0.260969
-0.260276
-0.275726
-0.295969
-0.314133
-0.327368
-0.335893
-0.340691
-0.344277
-0.348073
-0.352394
-0.356081
-0.356222
-0.344786
-0.310419
-0.237814
-0.108967
-0.693784
-0.492554
-0.355089
-0.268716
-0.220833
-0.198539
-0.190845
-0.189885
-0.19133
-0.192945
-0.194957
-0.197574
-0.201021
-0.204896
-0.208021
-0.205658
-0.190453
-0.15073
-0.0710827
-0.998871
-0.739302
-0.523703
-0.36061
-0.248827
-0.179272
-0.140235
-0.120379
-0.111361
-0.107619
-0.106704
-0.107322
-0.109028
-0.111498
-0.114323
-0.115021
-0.109382
-0.0895845
-0.0439401
-1.1796
-0.917796
-0.668018
-0.458374
-0.30102
-0.193972
-0.127908
-0.0905416
-0.0711782
-0.0618325
-0.0578379
-0.0565395
-0.0566912
-0.0577128
-0.0593633
-0.0604264
-0.0587481
-0.049692
-0.0254459
-1.33176
-1.07659
-0.809721
-0.567561
-0.373233
-0.232833
-0.141009
-0.0860015
-0.0557206
-0.0402225
-0.032883
-0.0297189
-0.0286183
-0.0285719
-0.0291958
-0.0298456
-0.0295006
-0.0256903
-0.0137408
-1.4957
-1.2488
-0.968491
-0.697245
-0.467221
-0.292797
-0.173464
-0.0988997
-0.0561272
-0.0333788
-0.0221032
-0.0168819
-0.0146389
-0.0138198
-0.0137489
-0.0139393
-0.0138858
-0.012379
-0.00689673
-1.56379
-1.34456
-1.0701
-0.788652
-0.539119
-0.342801
-0.203946
-0.114537
-0.0617747
-0.0329656
-0.0183082
-0.0113159
-0.00815605
-0.00681361
-0.00633878
-0.00622971
-0.00616613
-0.00557554
-0.00321795
-1.60943
-1.41457
-1.1488
-0.862259
-0.598967
-0.386029
-0.231763
-0.130332
-0.0693113
-0.0353935
-0.0178512
-0.00934416
-0.00542782
-0.00370476
-0.00299528
-0.0027253
-0.00261194
-0.00236099
-0.00139961
-1.65008
-1.47374
-1.21442
-0.923343
-0.648557
-0.421968
-0.255181
-0.144071
-0.076446
-0.0384587
-0.0186308
-0.00893081
-0.0044304
-0.00243262
-0.00158263
-0.00123187
-0.0010851
-0.000952666
-0.000570725
-1.66119
-1.50557
-1.25427
-0.961704
-0.679834
-0.444492
-0.269722
-0.152554
-0.080887
-0.0404589
-0.0192906
-0.00890428
-0.00407565
-0.00193002
-0.00101261
-0.000629115
-0.000469195
-0.000378196
-0.000221627
-1.63649
-1.5028
-1.26213
-0.97205
-0.688424
-0.450183
-0.272874
-0.154018
-0.0814047
-0.0405098
-0.0191457
-0.00868558
-0.00383468
-0.00168587
-0.000769958
-0.000388346
-0.000230832
-0.000157437
-8.49106e-05
-1.59713
-1.47819
-1.24678
-0.960524
-0.678385
-0.441516
-0.266018
-0.149143
-0.0782614
-0.038639
-0.0180971
-0.00811145
-0.0035131
-0.00149051
-0.000634666
-0.000281011
-0.000136847
-7.50844e-05
-3.4368e-05
-1.57314
-1.46566
-1.23725
-0.94932
-0.665287
-0.428605
-0.255261
-0.141362
-0.0732502
-0.0357054
-0.0165072
-0.00729686
-0.00310904
-0.00128963
-0.000529112
-0.000218797
-9.4193e-05
-4.30119e-05
-1.60532e-05
-1.47914
-1.39714
-1.18365
-0.90472
-0.628278
-0.399706
-0.234599
-0.127907
-0.065231
-0.0312937
-0.0142423
-0.00619792
-0.0025985
-0.00105853
-0.000424291
-0.000169224
-6.83827e-05
-2.80213e-05
-8.92472e-06
-1.35369
-1.29691
-1.10304
-0.839097
-0.576253
-0.361009
-0.208125
-0.111319
-0.0556718
-0.0261938
-0.0116975
-0.00499751
-0.00205769
-0.000823055
-0.000323466
-0.000125915
-4.91292e-05
-1.90389e-05
-5.55833e-06
-1.20216
-1.16665
-0.995953
-0.753751
-0.511453
-0.315058
-0.178062
-0.0932145
-0.0455995
-0.020987
-0.00917279
-0.00383815
-0.00154889
-0.000607544
-0.000234169
-8.92969e-05
-3.40225e-05
-1.27928e-05
-3.58851e-06
-1.00688
-0.988977
-0.848379
-0.640022
-0.430035
-0.261022
-0.144885
-0.0743404
-0.0356102
-0.0160443
-0.00686673
-0.00281522
-0.00111397
-0.000428779
-0.000162298
-6.08178e-05
-2.28066e-05
-8.49862e-06
-2.42639e-06
-0.756315
-0.723419
-0.603874
-0.442989
-0.289483
-0.171
-0.0924444
-0.0462105
-0.0215579
-0.00944915
-0.00392686
-0.00155911
-0.000595379
-0.000220212
-7.96893e-05
-2.84233e-05
-1.02068e-05
-3.82066e-06
-1.26828e-06
-0.50908
-0.52959
-0.478601
-0.376055
-0.26051
-0.161772
-0.0914547
-0.047685
-0.0232136
-0.0106521
-0.00465315
-0.00195484
-0.000795404
-0.000315916
-0.000123551
-4.80844e-05
-1.90502e-05
-8.28221e-06
-4.49995e-06
-0.167739
-0.172343
-0.163054
-0.13874
-0.105687
-0.0725023
-0.0452281
-0.0259091
-0.013785
-0.00687655
-0.00324715
-0.00146862
-0.000640878
-0.000272168
-0.000113356
-4.67018e-05
-1.94511e-05
-9.00047e-06
-5.58743e-06
0.180759
0.171653
0.132636
0.082296
0.0394535
0.0122567
-0.000689101
-0.00465517
-0.00450775
-0.00316371
-0.00188533
-0.0010175
-0.000512041
-0.000245626
-0.000113824
-5.13627e-05
-2.29014e-05
-1.11133e-05
-7.20134e-06
0.518134
0.499815
0.417534
0.302026
0.190489
0.105422
0.0513177
0.0218146
0.00786433
0.00216881
0.000241879
-0.000235971
-0.000253088
-0.000173804
-0.000101672
-5.42075e-05
-2.67078e-05
-1.33437e-05
-8.64353e-06
0.801589
0.76734
0.650836
0.488479
0.326171
0.19517
0.105428
0.0516839
0.0230531
0.00931807
0.00337551
0.00104349
0.000228937
-1.31726e-05
-6.05082e-05
-5.16615e-05
-3.1305e-05
-1.59738e-05
-9.19854e-06
1.06462
1.00463
0.854824
0.654399
0.452292
0.28387
0.16292
0.0860394
0.0420638
0.0191065
0.00810074
0.00319135
0.00114686
0.000347346
6.04435e-05
-2.65382e-05
-3.45139e-05
-1.98998e-05
-7.4596e-06
1.22762
1.14552
0.978236
0.762234
0.543093
0.355381
0.214863
0.120741
0.0634889
0.0314138
0.0147474
0.00659427
0.00280682
0.00111141
0.000379499
7.62729e-05
-2.08824e-05
-2.67386e-05
-2.67455e-06
1.35333
1.25402
1.07391
0.849
0.620797
0.421302
0.266743
0.158417
0.0888519
0.0473629
0.0242278
0.0119801
0.00575841
0.00267098
0.00115956
0.000411915
7.83925e-05
-2.61905e-05
-7.95177e-06
1.44608
1.32691
1.13761
0.910672
0.681708
0.478492
0.31631
0.197887
0.117937
0.0673999
0.0373141
0.0201952
0.0107791
0.00567864
0.00292244
0.00137136
0.000519803
0.000104884
2.51532e-05
1.4724
1.32944
1.13213
0.908416
0.687143
0.490572
0.331408
0.212411
0.129687
0.0756946
0.04249
0.0230428
0.0121002
0.00608678
0.00280644
0.000905915
-0.000245611
-0.000964698
-0.00129242
1.4582
1.31006
1.12304
0.918105
0.715856
0.532724
0.379104
0.258555
0.169605
0.107395
0.0660022
0.0395972
0.0232974
0.0134681
0.00761116
0.00401519
0.0016635
-8.05504e-05
-0.00152441
1.43062
1.28105
1.10421
0.914449
0.727177
0.555561
0.408495
0.28971
0.198876
0.132617
0.0863385
0.0552069
0.0348301
0.0217718
0.0135129
0.00824877
0.00479695
0.00238231
0.000495184
1.29989
1.13594
0.96048
0.783374
0.61574
0.466667
0.341611
0.242067
0.166628
0.111813
0.0735049
0.0476167
0.0305131
0.0193922
0.0122087
0.00749935
0.00430141
0.00201098
0.000246738
1.10402
0.961275
0.811639
0.662782
0.523074
0.399208
0.295106
0.211743
0.147961
0.101026
0.0677195
0.044812
0.0293737
0.0191097
0.0123137
0.00773328
0.00452698
0.00215842
0.000281222
0.89335
0.777439
0.656034
0.536058
0.42408
0.32508
0.241855
0.175001
0.123561
0.0853986
0.0580449
0.0390043
0.0259909
0.017197
0.0112644
0.00717759
0.00424703
0.00203054
0.000239075
0.659584
0.572344
0.48229
0.394216
0.312516
0.240474
0.179889
0.131087
0.0933534
0.0651699
0.0448009
0.0304826
0.0205847
0.0138079
0.00916773
0.00591721
0.00354539
0.00172366
0.000235063
0.409973
0.352519
0.295647
0.241179
0.191187
0.147332
0.110519
0.0808529
0.0578677
0.0406392
0.02813
0.0192859
0.0131293
0.00887841
0.00593829
0.00385328
0.00231073
0.00110977
0.000117562
0.155918
0.132229
0.109987
0.0891792
0.0703229
0.0539245
0.0402564
0.0293109
0.0208794
0.0145946
0.010055
0.00686159
0.00464905
0.00312768
0.00207845
0.0013347
0.00078235
0.000348333
-1.52511e-05
-0.155843
-0.132058
-0.109756
-0.0889222
-0.0700667
-0.053688
-0.0400505
-0.02914
-0.0207429
-0.0144889
-0.00997519
-0.00680227
-0.00460556
-0.00309617
-0.00205595
-0.00131914
-0.000772362
-0.000343063
1.62261e-05
-0.409901
-0.352364
-0.295441
-0.240954
-0.190965
-0.147129
-0.110345
-0.0807102
-0.0577551
-0.0405532
-0.0280658
-0.0192388
-0.0130953
-0.00885414
-0.00592128
-0.00384185
-0.00230379
-0.00110665
-0.000117935
-0.659508
-0.572189
-0.48209
-0.393998
-0.312304
-0.240283
-0.179727
-0.130956
-0.0932521
-0.0650938
-0.0447452
-0.0304425
-0.0205562
-0.0137878
-0.00915373
-0.00590762
-0.00353911
-0.00171995
-0.000233475
-0.893287
-0.77732
-0.655886
-0.535905
-0.423939
-0.324961
-0.24176
-0.17493
-0.123509
-0.0853634
-0.0580214
-0.0389889
-0.0259811
-0.0171909
-0.0112607
-0.00717546
-0.004246
-0.00203029
-0.000239389
-1.10396
-0.961183
-0.811529
-0.662676
-0.522986
-0.399142
-0.295062
-0.211717
-0.147949
-0.101022
-0.0677206
-0.0448153
-0.0293776
-0.0191135
-0.0123169
-0.00773589
-0.00452891
-0.00215963
-0.000281571
-1.29986
-1.13589
-0.96042
-0.783325
-0.615714
-0.466665
-0.341629
-0.242097
-0.166662
-0.111847
-0.073535
-0.0476414
-0.0305322
-0.0194065
-0.0122191
-0.00750661
-0.00430615
-0.00201357
-0.000247384
-1.43058
-1.28088
-1.10394
-0.914128
-0.726846
-0.555256
-0.408239
-0.28951
-0.198729
-0.132516
-0.086271
-0.0551635
-0.0348027
-0.0217545
-0.0135014
-0.00824051
-0.00479021
-0.00237666
-0.000491697
-1.45841
-1.31064
-1.12397
-0.91929
-0.717168
-0.534028
-0.380292
-0.259561
-0.170405
-0.107999
-0.0664373
-0.0399001
-0.0235028
-0.0136054
-0.007703
-0.00407822
-0.00170878
4.70622e-05
0.00150252
-1.47228
-1.32917
-1.13181
-0.908101
-0.686881
-0.490372
-0.331261
-0.2123
-0.1296
-0.0756231
-0.0424303
-0.0229933
-0.01206
-0.00605471
-0.002781
-0.000885309
0.000263836
0.00098456
0.00132104
-1.44615
-1.3271
-1.13794
-0.911122
-0.682217
-0.478994
-0.316751
-0.19824
-0.118198
-0.0675811
-0.0374341
-0.0202724
-0.0108281
-0.00570989
-0.00294262
-0.00138399
-0.000526673
-0.000107984
-2.75264e-05
-1.35336
-1.25415
-1.07416
-0.849358
-0.621209
-0.421704
-0.267086
-0.158681
-0.0890368
-0.0474838
-0.0243029
-0.0120254
-0.00578549
-0.0026873
-0.0011695
-0.00041752
-8.0633e-05
2.57235e-05
5.13246e-06
-1.22766
-1.14566
-0.978498
-0.762597
-0.543496
-0.355757
-0.215168
-0.120962
-0.0636338
-0.0315022
-0.0147984
-0.00662276
-0.00282247
-0.00111999
-0.000384118
-7.84104e-05
2.04201e-05
2.70078e-05
1.36212e-06
-1.06466
-1.00478
-0.855098
-0.654762
-0.452676
-0.28421
-0.16318
-0.0862154
-0.0421718
-0.0191676
-0.00813328
-0.00320792
-0.00115503
-0.000351233
-6.21004e-05
2.61266e-05
3.47517e-05
2.02571e-05
7.01961e-06
-0.801637
-0.767493
-0.651102
-0.488814
-0.326505
-0.195449
-0.105628
-0.0518106
-0.0231255
-0.00935596
-0.00339399
-0.00105196
-0.000232559
1.18179e-05
6.02175e-05
5.18632e-05
3.16529e-05
1.62345e-05
9.09945e-06
-0.518196
-0.499987
-0.417804
-0.302337
-0.190775
-0.105642
-0.0514637
-0.0218999
-0.00790908
-0.00219013
-0.000251176
0.000232316
0.000251884
0.000173604
0.000101859
5.45031e-05
2.69626e-05
1.34944e-05
8.65035e-06
-0.180818
-0.171825
-0.132884
-0.0825554
-0.0396696
-0.0124072
0.000598896
0.00460775
0.00448569
0.00315469
0.0018822
0.00101674
0.000512106
0.000245913
0.000114124
5.16015e-05
2.30547e-05
1.11939e-05
7.23107e-06
0.167593
0.171958
0.16256
0.138283
0.105348
0.0722905
0.0451129
0.0258536
0.0137612
0.00686749
0.00324423
0.00146795
0.000640916
0.000272359
0.000113531
4.68208e-05
1.95157e-05
9.03194e-06
5.60956e-06
0.509151
0.529836
0.478957
0.376419
0.260807
0.161978
0.0915806
0.047755
0.02325
0.0106701
0.00466178
0.00195891
0.000797298
0.000316794
0.000123955
4.82675e-05
1.91313e-05
8.32126e-06
4.52245e-06
0.756193
0.723064
0.603403
0.442537
0.289131
0.170765
0.0923056
0.0461361
0.0215211
0.00943216
0.00391944
0.001556
0.000594117
0.000219708
7.94863e-05
2.83384e-05
1.01689e-05
3.80432e-06
1.26425e-06
1.00692
0.98906
0.84848
0.640114
0.430102
0.261065
0.144909
0.0743529
0.0356161
0.016047
0.00686787
0.00281567
0.00111414
0.000428839
0.000162316
6.08215e-05
2.28063e-05
8.49818e-06
2.42661e-06
1.20216
1.16665
0.995947
0.753747
0.51145
0.315056
0.178062
0.0932144
0.0455996
0.0209872
0.00917292
0.00383824
0.00154894
0.000607568
0.00023418
8.9301e-05
3.40239e-05
1.27935e-05
3.58849e-06
1.35369
1.29691
1.10304
0.839094
0.576251
0.361008
0.208125
0.111318
0.0556718
0.0261938
0.0116976
0.00499758
0.00205774
0.000823084
0.000323481
0.000125921
4.91318e-05
1.90405e-05
5.55812e-06
1.47913
1.39714
1.18365
0.904719
0.628277
0.399705
0.234598
0.127907
0.0652309
0.0312938
0.0142424
0.00619801
0.00259857
0.00105858
0.000424315
0.000169233
6.83862e-05
2.8025e-05
8.92463e-06
1.57314
1.46566
1.23725
0.949321
0.665288
0.428606
0.255261
0.141361
0.0732501
0.0357055
0.0165074
0.00729698
0.00310914
0.00128969
0.000529139
0.000218802
9.41946e-05
4.30216e-05
1.60539e-05
1.59713
1.47819
1.24678
0.960526
0.678385
0.441516
0.266018
0.149143
0.0782613
0.0386391
0.0180973
0.00811162
0.00351322
0.00149057
0.000634678
0.000280996
0.000136846
7.51152e-05
3.43724e-05
1.63649
1.5028
1.26213
0.97205
0.688424
0.450183
0.272874
0.154018
0.0814048
0.04051
0.019146
0.0086858
0.0038348
0.0016859
0.000769917
0.000388288
0.000230845
0.000157538
8.49278e-05
1.66119
1.50558
1.25427
0.961707
0.679836
0.444493
0.269722
0.152555
0.0808875
0.0404593
0.0192909
0.00890449
0.00407572
0.00192995
0.00101246
0.000629008
0.000469307
0.000378488
0.000221672
1.65008
1.47374
1.21442
0.923345
0.648558
0.421969
0.255182
0.144071
0.0764465
0.0384592
0.0186311
0.00893091
0.00443031
0.00243235
0.00158233
0.00123181
0.00108555
0.000953385
0.000570804
1.60943
1.41457
1.1488
0.862263
0.598969
0.386031
0.231764
0.130333
0.0693122
0.0353941
0.0178514
0.00934408
0.00542746
0.00370426
0.00299496
0.00272564
0.00261321
0.00236244
0.00139965
1.56379
1.34457
1.0701
0.788658
0.539124
0.342805
0.203949
0.114539
0.0617758
0.0329661
0.0183082
0.0113155
0.0081554
0.00681305
0.0063389
0.00623114
0.00616881
0.00557781
0.00321772
1.4957
1.2488
0.968493
0.697248
0.467224
0.292799
0.173465
0.0989005
0.0561275
0.0333786
0.0221026
0.016881
0.0146382
0.0138198
0.0137504
0.0139427
0.01389
0.0123814
0.00689576
1.33177
1.0766
0.809731
0.567569
0.373239
0.232837
0.141012
0.0860027
0.0557207
0.040222
0.0328821
0.0297181
0.0286182
0.0285734
0.0291996
0.029851
0.0295051
0.0256909
0.0137386
1.17961
0.917808
0.668028
0.458381
0.301026
0.193976
0.12791
0.0905419
0.0711776
0.0618314
0.057837
0.0565393
0.0566926
0.0577167
0.0593692
0.0604318
0.0587492
0.0496879
0.0254427
0.998884
0.739312
0.523711
0.360615
0.24883
0.179274
0.140235
0.120378
0.111359
0.107617
0.106703
0.107323
0.109031
0.111503
0.114328
0.115022
0.109375
0.0895742
0.0439376
0.693795
0.492561
0.355093
0.268718
0.220833
0.198538
0.190843
0.189882
0.191328
0.192944
0.194957
0.197576
0.201025
0.204899
0.20802
0.205649
0.190437
0.150716
0.0710838
0.384101
0.294142
0.260971
0.260275
0.275724
0.295966
0.314129
0.327365
0.335891
0.34069
0.344278
0.348075
0.352396
0.356078
0.356211
0.344767
0.310398
0.237805
0.108974
0.0662935
0.146712
0.247698
0.345411
0.427731
0.489365
0.530707
0.555209
0.568282
0.574257
0.577496
0.580493
0.582909
0.582034
0.572189
0.541553
0.474786
0.354458
0.161528
-0.191651
0.102805
0.354234
0.554181
0.701759
0.80064
0.860879
0.892669
0.906827
0.910961
0.910362
0.908471
0.903384
0.890261
0.860101
0.798142
0.686376
0.50739
0.240856
-0.316946
0.189295
0.587275
0.884624
1.09247
1.22333
1.29805
1.33323
1.34489
1.34377
1.33484
1.3225
1.30275
1.26904
1.20994
1.11067
0.953
0.720156
0.38466
-0.265653
0.39165
0.909575
1.29031
1.54984
1.70642
1.79146
1.82698
1.83361
1.82497
1.80442
1.77774
1.73972
1.68465
1.60227
1.48322
1.3117
1.06773
0.701915
-0.064584
0.648189
1.24274
1.68412
1.98175
2.15572
2.24637
2.28035
2.28147
2.26628
2.23564
2.19765
2.1502
2.09488
2.03036
1.9624
1.88129
1.75657
1.49446
0.174288
0.868363
1.49677
1.97104
2.28704
2.46592
2.55483
2.58574
2.58246
2.56631
2.53441
2.49957
2.47534
2.48759
2.57248
2.81249
3.31867
4.29865
6.15112
)
;

boundaryField
{
    up
    {
        type            calculated;
        value           nonuniform List<scalar> 
84
(
-6.15112
-1.49447
-0.701927
-0.384659
-0.240845
-0.161516
-0.108967
-0.0710827
-0.0439401
-0.0254459
-0.0137408
-0.00689673
-0.00321795
-0.00139961
-0.000570725
-0.000221627
-8.49106e-05
-3.4368e-05
-1.60532e-05
-8.92472e-06
-5.55833e-06
-3.58851e-06
-2.42639e-06
-1.26828e-06
-3.23143e-06
-4.47715e-06
-6.13745e-06
-7.8848e-06
-8.93715e-06
-6.66085e-06
6.7424e-06
5.17253e-05
0.000225183
-0.000982148
-0.00139664
0.000510369
0.000267272
0.000297654
0.000251756
0.000242643
0.000122237
-1.30675e-05
1.4059e-05
-0.000122569
-0.000241039
-0.000252014
-0.000297951
-0.000267873
-0.000506914
0.00137799
0.00101652
-0.000229241
-5.79489e-05
-1.00087e-05
5.43725e-06
8.58599e-06
7.82566e-06
6.15343e-06
4.50085e-06
3.24645e-06
1.26425e-06
2.42661e-06
3.58849e-06
5.55812e-06
8.92463e-06
1.60539e-05
3.43724e-05
8.49278e-05
0.000221672
0.000570804
0.00139965
0.00321772
0.00689576
0.0137386
0.0254427
0.0439376
0.0710838
0.108974
0.161528
0.240856
0.38466
0.701915
1.49446
6.15112
)
;
    }
    low
    {
        type            calculated;
        value           nonuniform List<scalar> 
84
(
-0.154462
0.0968201
0.312905
0.363144
0.217797
-0.0706616
-0.417174
-0.746288
-1.05925
-1.23275
-1.38406
-1.54682
-1.60331
-1.6437
-1.68287
-1.68831
-1.65813
-1.61951
-1.5927
-1.48701
-1.35312
-1.19534
-0.993206
-0.739065
-0.489622
-0.159414
0.170824
0.495244
0.777188
1.04896
1.22508
1.35902
1.46061
1.4959
1.48703
1.46636
1.34188
1.14272
0.925203
0.68355
0.425269
0.162123
-0.162047
-0.425195
-0.683469
-0.925131
-1.14265
-1.34184
-1.4663
-1.48719
-1.49576
-1.46064
-1.35904
-1.22511
-1.049
-0.777227
-0.495302
-0.170882
0.159269
0.489688
0.738953
0.99324
1.19534
1.35311
1.487
1.59269
1.61951
1.65813
1.68831
1.68286
1.6437
1.60332
1.54681
1.38407
1.23277
1.05926
0.746299
0.417183
0.0706687
-0.217793
-0.363146
-0.312911
-0.0968245
0.154463
)
;
    }
    left
    {
        type            calculated;
        value           nonuniform List<scalar> 
19
(
-0.163245
-0.859378
-1.51592
-2.01851
-2.35631
-2.54851
-2.64509
-2.68115
-2.68034
-2.66819
-2.64017
-2.60928
-2.59512
-2.63214
-2.76485
-3.10309
-3.79586
-5.12693
-5.3272
)
;
    }
    right
    {
        type            calculated;
        value           nonuniform List<scalar> 
19
(
0.163246
0.859382
1.51592
2.01851
2.35631
2.54851
2.64509
2.68115
2.68035
2.66819
2.64018
2.60929
2.59513
2.63214
2.76484
3.10306
3.79583
5.12691
5.32722
)
;
    }
    frontAndBackPlanes
    {
        type            empty;
    }
}


// ************************************************************************* //
