/*--------------------------------*- C++ -*----------------------------------*\
  =========                 |
  \\      /  F ield         | OpenFOAM: The Open Source CFD Toolbox
   \\    /   O peration     | Website:  https://openfoam.org
    \\  /    A nd           | Version:  7
     \\/     M anipulation  |
\*---------------------------------------------------------------------------*/
FoamFile
{
    version     2.0;
    format      ascii;
    class       volScalarField;
    location    "0.06";
    object      gradTx;
}
// * * * * * * * * * * * * * * * * * * * * * * * * * * * * * * * * * * * * * //

dimensions      [0 -1 0 1 0 0 0];

internalField   nonuniform List<scalar> 
1596
(
-0.36605
-1.83144
-3.21131
-4.33456
-5.17256
-5.73063
-6.07569
-6.25906
-6.33223
-6.35618
-6.34103
-6.33933
-6.40791
-6.63113
-7.10977
-8.05868
-9.77286
-12.8421
-18.4539
0.113654
-1.43167
-2.75986
-3.81414
-4.6032
-5.13932
-5.48099
-5.66729
-5.74565
-5.75866
-5.71601
-5.64945
-5.56829
-5.49191
-5.42775
-5.38984
-5.33095
-5.12481
-4.45649
0.518067
-0.987238
-2.19508
-3.13367
-3.83641
-4.32292
-4.64081
-4.82179
-4.90498
-4.92222
-4.88299
-4.80693
-4.68836
-4.52389
-4.30106
-4.00807
-3.60341
-3.01145
-2.05226
0.617667
-0.641973
-1.6353
-2.40785
-2.9923
-3.40735
-3.68668
-3.85468
-3.94106
-3.96913
-3.94909
-3.89314
-3.79264
-3.63602
-3.40445
-3.07641
-2.61866
-1.9886
-1.09121
0.336389
-0.501451
-1.20036
-1.76512
-2.20606
-2.5317
-2.7597
-2.90566
-2.98941
-3.02653
-3.0273
-2.99919
-2.93509
-2.82219
-2.64149
-2.36755
-1.97119
-1.42325
-0.672066
-0.256132
-0.607179
-0.97254
-1.30429
-1.58399
-1.80508
-1.96941
-2.08253
-2.15437
-2.19309
-2.20739
-2.20142
-2.17053
-2.10375
-1.98491
-1.78853
-1.48776
-1.05657
-0.460915
-1.00898
-0.929701
-0.972748
-1.06769
-1.17764
-1.28283
-1.37222
-1.44139
-1.49086
-1.52174
-1.5393
-1.54485
-1.53551
-1.50297
-1.43498
-1.30895
-1.10084
-0.785068
-0.332998
-1.75974
-1.37358
-1.14974
-1.02981
-0.975981
-0.962513
-0.970698
-0.987925
-1.00673
-1.02177
-1.03372
-1.04112
-1.04153
-1.02895
-0.994806
-0.921042
-0.787565
-0.570233
-0.242295
-2.51009
-1.95028
-1.52118
-1.20746
-0.989917
-0.847881
-0.761806
-0.714051
-0.690746
-0.680528
-0.678418
-0.679584
-0.680494
-0.676221
-0.660794
-0.620853
-0.540787
-0.399649
-0.17279
-2.9527
-2.36794
-1.84271
-1.40845
-1.0734
-0.830112
-0.664478
-0.558477
-0.495168
-0.459313
-0.441303
-0.433368
-0.430338
-0.427504
-0.420413
-0.399723
-0.354197
-0.267401
-0.118517
-3.32352
-2.74848
-2.17749
-1.66207
-1.23387
-0.902013
-0.661755
-0.498171
-0.393558
-0.330104
-0.29426
-0.275357
-0.266106
-0.261156
-0.256518
-0.245652
-0.220844
-0.170199
-0.077556
-3.7205
-3.16852
-2.57017
-1.98986
-1.47744
-1.05909
-0.741728
-0.516169
-0.365713
-0.270796
-0.214361
-0.182605
-0.165645
-0.156712
-0.151375
-0.14461
-0.131119
-0.102814
-0.0481261
-3.87463
-3.39515
-2.81872
-2.22206
-1.66803
-1.19688
-0.826541
-0.555001
-0.368586
-0.247889
-0.174087
-0.131248
-0.107475
-0.0946659
-0.0876874
-0.0822017
-0.0743806
-0.0589447
-0.0282379
-3.9718
-3.55961
-3.01586
-2.41842
-1.83884
-1.32911
-0.916961
-0.607516
-0.390583
-0.247526
-0.158519
-0.105948
-0.0762262
-0.0599826
-0.0512693
-0.0458712
-0.040692
-0.032239
-0.0156984
-4.05445
-3.69685
-3.18342
-2.58941
-1.99147
-1.4511
-1.00446
-0.663176
-0.420374
-0.258263
-0.156337
-0.095562
-0.0609058
-0.0418516
-0.0316632
-0.0259541
-0.0219001
-0.017014
-0.00831366
-4.06129
-3.76311
-3.28472
-2.70264
-2.09764
-1.53875
-1.06909
-0.705744
-0.444743
-0.269163
-0.158156
-0.0916767
-0.053655
-0.0327316
-0.0215775
-0.0155897
-0.0120108
-0.0088698
-0.00425442
-3.9778
-3.74078
-3.30358
-2.74284
-2.14291
-1.5789
-1.09931
-0.725441
-0.455533
-0.273392
-0.158083
-0.0890037
-0.0495323
-0.0278654
-0.0163708
-0.0103328
-0.00702621
-0.0047462
-0.0021626
-3.85619
-3.66192
-3.26255
-2.72604
-2.13786
-1.57758
-1.0978
-0.722682
-0.451768
-0.269191
-0.153933
-0.0851376
-0.0460089
-0.0246525
-0.0134043
-0.00758288
-0.00453772
-0.00272888
-0.00113938
-3.76823
-3.60839
-3.23371
-2.71018
-2.12594
-1.56529
-1.08457
-0.709656
-0.440243
-0.25987
-0.146894
-0.0800341
-0.0423562
-0.0219961
-0.01139
-0.00598097
-0.00323329
-0.00173594
-0.000651534
-3.50866
-3.40933
-3.08194
-2.59382
-2.0354
-1.49438
-1.02986
-0.668887
-0.411236
-0.240239
-0.13421
-0.0721393
-0.0375559
-0.0190884
-0.00958734
-0.00481011
-0.00243401
-0.00120149
-0.000410871
-3.17698
-3.13249
-2.85764
-2.4146
-1.89389
-1.38475
-0.947632
-0.609808
-0.370847
-0.214019
-0.117994
-0.0625251
-0.0320435
-0.0159944
-0.0078555
-0.00382501
-0.00185735
-0.000869221
-0.000279184
-2.79008
-2.78627
-2.56403
-2.17466
-1.70434
-1.24034
-0.842259
-0.536537
-0.322435
-0.183646
-0.0998297
-0.0521197
-0.026295
-0.0129056
-0.00622058
-0.00296299
-0.00140123
-0.000636135
-0.000197555
-2.31143
-2.33405
-2.16751
-1.84768
-1.4494
-1.05188
-0.710192
-0.448744
-0.267022
-0.150389
-0.0807614
-0.0416266
-0.0207204
-0.0100269
-0.00476165
-0.00223364
-0.00104269
-0.000472737
-0.000151993
-1.72052
-1.68723
-1.52414
-1.26592
-0.969602
-0.688516
-0.455754
-0.282693
-0.165219
-0.0913666
-0.0481163
-0.0242731
-0.0117922
-0.00554936
-0.00255209
-0.00115723
-0.000528613
-0.000246665
-9.19537e-05
-1.15466
-1.24236
-1.23031
-1.10929
-0.912127
-0.688416
-0.480672
-0.312861
-0.19139
-0.110802
-0.0611736
-0.0324863
-0.0166969
-0.00836586
-0.00412205
-0.0020239
-0.00101826
-0.000559632
-0.000356669
-0.382426
-0.40877
-0.420672
-0.405207
-0.361212
-0.297443
-0.226889
-0.161008
-0.107038
-0.0670909
-0.0399321
-0.0228021
-0.0125722
-0.00674701
-0.00354989
-0.00185318
-0.000985399
-0.000577808
-0.000417539
0.399627
0.374682
0.303124
0.206162
0.11064
0.036242
-0.00971868
-0.0304046
-0.0341736
-0.0293313
-0.0217585
-0.0147532
-0.00938374
-0.00571181
-0.00336376
-0.00193915
-0.00111571
-0.000690612
-0.00051274
1.16332
1.12688
0.996429
0.799894
0.581526
0.382033
0.225906
0.118971
0.0542517
0.0196595
0.00370162
-0.00238437
-0.00385313
-0.00353929
-0.00270695
-0.00187989
-0.0012232
-0.00080812
-0.000608255
1.81959
1.75443
1.56945
1.29669
0.98784
0.694119
0.450652
0.270689
0.15046
0.077079
0.0360511
0.0147979
0.00465591
0.000250521
-0.00132046
-0.00159536
-0.00131837
-0.000958458
-0.000718361
2.44932
2.3355
2.08889
1.74514
1.35983
0.988757
0.672407
0.428753
0.257131
0.145284
0.0774832
0.0387031
0.0176433
0.00669147
0.00137856
-0.000880158
-0.00142934
-0.00124323
-0.000914121
2.86308
2.70147
2.41332
2.0329
1.61266
1.20516
0.850214
0.567646
0.359944
0.217397
0.125576
0.0692403
0.0360006
0.0168667
0.00623256
0.000655922
-0.00160485
-0.00195411
-0.00145627
3.19957
2.99864
2.67399
2.26517
1.82203
1.39226
1.01262
0.702609
0.466726
0.297752
0.183303
0.108947
0.0620967
0.0329411
0.0150267
0.00414409
-0.00155445
-0.00355242
-0.0031896
3.46319
3.21303
2.85541
2.42888
1.97744
1.54153
1.15266
0.82834
0.574015
0.384756
0.250715
0.159162
0.0981709
0.0577275
0.0308408
0.0124492
0.000695065
-0.00553197
-0.00653521
3.56586
3.25108
2.85552
2.41438
1.96429
1.53719
1.15773
0.839515
0.586925
0.395865
0.257946
0.161996
0.0969749
0.0530765
0.022983
0.000863885
-0.0156909
-0.0277312
-0.0342024
3.56605
3.23254
2.84889
2.44057
2.03124
1.64166
1.28885
0.983354
0.730203
0.528489
0.373734
0.258775
0.175363
0.115574
0.0726177
0.0402549
0.0142033
-0.00879251
-0.0301346
3.52854
3.18905
2.8228
2.44257
2.0634
1.70067
1.36789
1.07434
0.825224
0.62097
0.458927
0.334106
0.239888
0.169814
0.11807
0.0793856
0.0496522
0.0255974
0.00452289
3.22665
2.84585
2.46838
2.09894
1.7469
1.42221
1.13295
0.883693
0.676001
0.507951
0.375763
0.274337
0.19762
0.140055
0.0968471
0.0638761
0.0380701
0.0173893
0.000340298
2.75296
2.41906
2.09353
1.77947
1.48345
1.21233
0.971523
0.763903
0.590253
0.448793
0.336478
0.249274
0.182363
0.131308
0.0922549
0.0618331
0.0374866
0.0175144
0.000646038
2.23482
1.96257
1.6963
1.44083
1.20171
0.983935
0.791163
0.625135
0.486107
0.37245
0.281722
0.210742
0.155744
0.113264
0.0803042
0.0542118
0.0329862
0.0153187
0.000222923
1.65356
1.44774
1.24889
1.06013
0.884797
0.725915
0.585607
0.464794
0.36346
0.28033
0.213642
0.161125
0.120097
0.0880907
0.062984
0.0428749
0.026341
0.0124683
0.000559787
1.02913
0.892686
0.766118
0.648635
0.540864
0.44389
0.358577
0.285237
0.223725
0.173192
0.132551
0.100423
0.0751931
0.0553782
0.0397082
0.0270393
0.0165226
0.00762452
-6.10207e-05
0.391743
0.335235
0.285381
0.240133
0.199122
0.162525
0.130558
0.103265
0.0805262
0.0619717
0.0471482
0.0355048
0.0264162
0.0193146
0.0137162
0.00919085
0.00541926
0.00220028
-0.000614985
-0.391556
-0.334803
-0.284785
-0.239443
-0.198396
-0.161809
-0.129885
-0.102656
-0.0799935
-0.0615176
-0.0467696
-0.0351951
-0.0261676
-0.0191193
-0.0135672
-0.00908281
-0.00534838
-0.00216381
0.00061871
-1.02895
-0.892296
-0.765587
-0.648024
-0.540225
-0.443264
-0.357994
-0.284714
-0.223271
-0.172809
-0.132235
-0.100168
-0.0749906
-0.0552217
-0.0395916
-0.026958
-0.0164736
-0.0076054
5.17028e-05
-1.65337
-1.44735
-1.24836
-1.05952
-0.884165
-0.725298
-0.585036
-0.464285
-0.363023
-0.279965
-0.213344
-0.160886
-0.119908
-0.087945
-0.0628736
-0.0427941
-0.0262854
-0.0124347
-0.000545649
-2.23466
-1.96227
-1.69589
-1.44038
-1.20125
-0.983499
-0.790772
-0.624802
-0.485833
-0.372233
-0.281554
-0.210616
-0.155651
-0.113197
-0.0802579
-0.0541821
-0.0329701
-0.015314
-0.00022795
-2.75284
-2.41882
-2.09322
-1.77912
-1.4831
-1.21202
-0.971254
-0.763689
-0.590093
-0.448681
-0.336404
-0.249228
-0.182338
-0.131295
-0.0922513
-0.0618347
-0.0374911
-0.0175197
-0.000649666
-3.2266
-2.84571
-2.46818
-2.09873
-1.7467
-1.42205
-1.13285
-0.883643
-0.675999
-0.507982
-0.375814
-0.274396
-0.19768
-0.14011
-0.0968946
-0.0639153
-0.0380999
-0.0174082
-0.000347705
-3.52846
-3.18865
-2.82208
-2.44159
-2.06228
-1.69951
-1.36679
-1.07334
-0.824376
-0.620273
-0.458372
-0.333671
-0.239551
-0.16955
-0.117858
-0.0792095
-0.0495032
-0.0254812
-0.00446329
-3.56658
-3.23398
-2.85123
-2.44365
-2.03484
-1.64551
-1.29268
-0.986962
-0.733429
-0.531251
-0.376015
-0.260608
-0.176806
-0.116704
-0.0735109
-0.0409863
-0.0148299
0.00824366
0.0296847
-3.56555
-3.25034
-2.85447
-2.41319
-1.96309
-1.53608
-1.15674
-0.838653
-0.586179
-0.395221
-0.257388
-0.161513
-0.0965575
-0.0527157
-0.0226677
-0.00057947
0.0159733
0.0280673
0.0346743
-3.46335
-3.21345
-2.85612
-2.42985
-1.9786
-1.54277
-1.15388
-0.829442
-0.574947
-0.3855
-0.251282
-0.159582
-0.0984746
-0.0579437
-0.030989
-0.0125362
-0.000722083
0.0055577
0.00659397
-3.19965
-2.99889
-2.67447
-2.26588
-1.82292
-1.39323
-1.01355
-0.70344
-0.467408
-0.298279
-0.183691
-0.109226
-0.0622953
-0.0330809
-0.0151199
-0.00419197
0.00155139
0.00357627
0.00320173
-2.86318
-2.70175
-2.41384
-2.03366
-1.61357
-1.20611
-0.851109
-0.568407
-0.360542
-0.217839
-0.125889
-0.0694584
-0.036152
-0.0169713
-0.00630093
-0.000691088
0.00159971
0.00196515
0.00145352
-2.44943
-2.33582
-2.08946
-1.74594
-1.36076
-0.989687
-0.673238
-0.429426
-0.257634
-0.145638
-0.0777227
-0.0388627
-0.0177496
-0.00676151
-0.00142152
0.00085951
0.00142572
0.00124727
0.000909375
-1.81969
-1.75476
-1.57004
-1.29747
-0.988704
-0.694946
-0.451353
-0.271227
-0.15084
-0.077333
-0.0362143
-0.0149012
-0.00472081
-0.000290108
0.00129885
0.00158691
0.00131799
0.000960368
0.000715019
-1.16346
-1.12727
-0.997071
-0.800689
-0.582344
-0.382762
-0.226482
-0.119383
-0.0545235
-0.0198281
-0.00380223
0.0023258
0.00381988
0.0035218
0.00269974
0.00187908
0.00122512
0.000809789
0.000606801
-0.39976
-0.37509
-0.303758
-0.206897
-0.111339
-0.036815
0.00930379
0.0301336
0.0340114
0.0292412
0.0217113
0.0147302
0.00937376
0.00570913
0.00336513
0.00194227
0.00111871
0.000692418
0.000512708
0.382094
0.407818
0.419295
0.403716
0.359879
0.29641
0.226176
0.160562
0.106781
0.0669531
0.039863
0.0227701
0.0125592
0.00674333
0.00355038
0.00185501
0.000986997
0.00057867
0.000417835
1.15484
1.24302
1.23137
1.11055
0.913362
0.68946
0.481458
0.313399
0.191731
0.111006
0.0612902
0.0325516
0.0167331
0.00838621
0.00413369
0.00203061
0.00102209
0.000561828
0.000357884
1.72024
1.68638
1.52289
1.26454
0.968324
0.687476
0.454988
0.282174
0.16489
0.091171
0.0480059
0.0242138
0.0117619
0.00553458
0.00254521
0.00115411
0.000527171
0.000245976
9.17185e-05
2.31154
2.33427
2.16778
1.84796
1.44963
1.05205
0.710308
0.448815
0.267062
0.150411
0.0807732
0.0416329
0.0207238
0.0100288
0.00476266
0.00223416
0.00104293
0.000472847
0.000152057
2.79008
2.78627
2.56402
2.17464
1.70431
1.24031
0.842243
0.536531
0.322436
0.18365
0.0998343
0.0521236
0.0262978
0.0129074
0.00622169
0.00296363
0.0014016
0.000636348
0.000197631
3.17699
3.1325
2.85764
2.41459
1.89387
1.38473
0.947617
0.609802
0.370847
0.214023
0.117998
0.0625288
0.0320462
0.0159961
0.00785657
0.00382569
0.00185782
0.000869537
0.000279276
3.50866
3.40934
3.08194
2.59381
2.03538
1.49436
1.02985
0.668879
0.411234
0.24024
0.134213
0.0721422
0.0375583
0.0190901
0.00958855
0.00481106
0.00243483
0.00120212
0.000411062
3.76824
3.60841
3.23373
2.71019
2.12593
1.56528
1.08456
0.709648
0.440239
0.25987
0.146895
0.0800362
0.0423584
0.0219979
0.0113916
0.00598254
0.00323489
0.00173724
0.000651927
3.85619
3.66194
3.26257
2.72605
2.13786
1.57757
1.09779
0.722673
0.451762
0.269188
0.153933
0.0851393
0.046011
0.0246547
0.0134067
0.00758571
0.00454086
0.00273143
0.00114011
3.9778
3.74078
3.3036
2.74284
2.14291
1.57889
1.0993
0.725432
0.455527
0.273389
0.158083
0.0890054
0.0495348
0.0278685
0.0163748
0.010338
0.00703203
0.00475077
0.00216376
4.06129
3.76313
3.28474
2.70266
2.09764
1.53875
1.06908
0.705738
0.444738
0.269161
0.158156
0.0916784
0.053658
0.0327362
0.0215843
0.0155988
0.0120207
0.00887706
0.0042559
4.05444
3.69686
3.18343
2.58943
1.99148
1.4511
1.00445
0.663171
0.420369
0.258261
0.156337
0.0955638
0.0609099
0.041859
0.0316745
0.0259687
0.0219151
0.0170237
0.00831489
3.97179
3.55961
3.01588
2.41844
1.83885
1.32912
0.916963
0.607515
0.390582
0.247526
0.15852
0.105951
0.0762332
0.0599946
0.0512868
0.0458919
0.0407108
0.032249
0.0156981
3.87463
3.39516
2.81874
2.22208
1.66805
1.19689
0.826549
0.555004
0.368588
0.24789
0.17409
0.131254
0.107486
0.0946836
0.0877104
0.0822255
0.0743978
0.0589496
0.0282344
3.72049
3.16851
2.57017
1.98987
1.47745
1.05909
0.741733
0.516171
0.365714
0.270797
0.214365
0.182614
0.16566
0.156734
0.151398
0.144628
0.131124
0.102806
0.0481182
3.32354
2.7485
2.17751
1.66209
1.23389
0.902027
0.661766
0.498179
0.393563
0.33011
0.294268
0.275369
0.266123
0.261174
0.25653
0.245649
0.220824
0.170173
0.0775449
2.95273
2.36796
1.84272
1.40846
1.07341
0.830122
0.664487
0.558484
0.495174
0.459319
0.441311
0.433379
0.430348
0.427506
0.420397
0.399685
0.354143
0.267357
0.118507
2.51012
1.9503
1.52119
1.20746
0.989922
0.847888
0.761812
0.714056
0.69075
0.680531
0.67842
0.679584
0.680484
0.676191
0.660737
0.620774
0.540707
0.399601
0.17279
1.75977
1.37359
1.14974
1.02982
0.975985
0.962517
0.9707
0.987925
1.00672
1.02176
1.03371
1.0411
1.04149
1.02888
0.994713
0.92094
0.787485
0.570204
0.242309
1.009
0.929713
0.972758
1.0677
1.17765
1.28283
1.37222
1.44138
1.49085
1.52172
1.53927
1.54481
1.53544
1.50288
1.43487
1.30886
1.1008
0.785081
0.333026
0.256146
0.607197
0.972563
1.30431
1.584
1.80508
1.9694
2.08252
2.15435
2.19306
2.20735
2.20135
2.17044
2.10366
1.98483
1.7885
1.48779
1.05663
0.460946
-0.336382
0.501478
1.2004
1.76515
2.20607
2.53169
2.75969
2.90564
2.98939
3.02649
3.02725
2.99912
2.93502
2.82214
2.64148
2.3676
1.97128
1.42333
0.672084
-0.617666
0.642
1.63533
2.40787
2.9923
3.40734
3.68667
3.85466
3.94103
3.96909
3.94905
3.8931
3.79262
3.63604
3.40452
3.07653
2.61878
1.98867
1.0912
-0.518069
0.987249
2.19508
3.13367
3.8364
4.32291
4.64079
4.82178
4.90497
4.9222
4.88298
4.80693
4.6884
4.52398
4.30117
4.00819
3.60349
3.01145
2.05223
-0.113651
1.43166
2.75983
3.8141
4.60317
5.1393
5.48098
5.66729
5.74565
5.75867
5.71603
5.6495
5.56837
5.492
5.42784
5.38988
5.33092
5.12475
4.45646
0.366058
1.83143
3.21127
4.33452
5.17253
5.73061
6.07569
6.25906
6.33224
6.3562
6.34107
6.33938
6.40796
6.63116
7.10974
8.0586
9.77277
12.842
18.4539
)
;

boundaryField
{
    up
    {
        type            calculated;
        value           nonuniform List<scalar> 
84
(
-18.4539
-4.45649
-2.05226
-1.09121
-0.672066
-0.460915
-0.332998
-0.242295
-0.17279
-0.118517
-0.077556
-0.0481261
-0.0282379
-0.0156984
-0.00831366
-0.00425442
-0.0021626
-0.00113938
-0.000651534
-0.000410871
-0.000279184
-0.000197555
-0.000151993
-9.19537e-05
-0.000277804
-0.000358199
-0.000450163
-0.000534365
-0.000604036
-0.000675775
-0.000855105
-0.00145914
-0.00241223
-0.029719
-0.0291339
0.0046252
0.000507763
0.000765648
0.000305212
0.000603744
-3.6326e-05
-0.000604387
0.000608195
2.72464e-05
-0.000589474
-0.000309808
-0.000768792
-0.000514684
-0.00456621
0.0287149
0.0302708
0.00246021
0.00143925
0.000829834
0.000658921
0.000595057
0.000530577
0.000449283
0.000358519
0.000278654
9.17185e-05
0.000152057
0.000197631
0.000279276
0.000411062
0.000651927
0.00114011
0.00216376
0.0042559
0.00831489
0.0156981
0.0282344
0.0481182
0.0775449
0.118507
0.17279
0.242309
0.333026
0.460946
0.672084
1.0912
2.05223
4.45646
18.4539
)
;
    }
    low
    {
        type            calculated;
        value           nonuniform List<scalar> 
84
(
-0.327013
0.175061
0.611721
0.713182
0.392611
-0.265862
-1.08427
-1.88028
-2.64696
-3.06853
-3.43349
-3.82336
-3.94606
-4.02779
-4.10412
-4.09447
-3.99501
-3.87195
-3.77292
-3.48276
-3.12973
-2.72868
-2.23789
-1.64627
-1.08734
-0.356203
0.369227
1.09097
1.73535
2.37987
2.82383
3.18184
3.47001
3.59897
3.6165
3.59941
3.31664
2.83835
2.30607
1.70768
1.0639
0.405948
-0.40576
-1.06371
-1.70748
-2.3059
-2.83821
-3.31656
-3.5993
-3.61693
-3.59865
-3.47011
-3.18189
-2.82391
-2.37997
-1.73546
-1.09111
-0.36936
0.355874
1.08751
1.64602
2.23798
2.72868
3.12973
3.48276
3.77292
3.87195
3.99501
4.09447
4.10411
4.02779
3.94606
3.82334
3.43351
3.06856
2.64698
1.8803
1.08429
0.265877
-0.392603
-0.713186
-0.611737
-0.175075
0.327015
)
;
    }
    left
    {
        type            calculated;
        value           nonuniform List<scalar> 
19
(
-0.335019
-1.78888
-3.21593
-4.39405
-5.28001
-5.87169
-6.23922
-6.43919
-6.52268
-6.56222
-6.56634
-6.59097
-6.71075
-7.03433
-7.68413
-8.95001
-11.2338
-15.3527
-15.9944
)
;
    }
    right
    {
        type            calculated;
        value           nonuniform List<scalar> 
19
(
0.335028
1.78888
3.21591
4.39402
5.27999
5.87167
6.23921
6.4392
6.5227
6.56225
6.56638
6.59101
6.71077
7.03431
7.68404
8.94988
11.2337
15.3526
15.9944
)
;
    }
    frontAndBackPlanes
    {
        type            empty;
    }
}


// ************************************************************************* //
