/*--------------------------------*- C++ -*----------------------------------*\
  =========                 |
  \\      /  F ield         | OpenFOAM: The Open Source CFD Toolbox
   \\    /   O peration     | Website:  https://openfoam.org
    \\  /    A nd           | Version:  7
     \\/     M anipulation  |
\*---------------------------------------------------------------------------*/
FoamFile
{
    version     2.0;
    format      ascii;
    class       volScalarField;
    location    "0.06";
    object      T;
}
// * * * * * * * * * * * * * * * * * * * * * * * * * * * * * * * * * * * * * //

dimensions      [0 0 0 1 0 0 0];

internalField   nonuniform List<scalar> 
1596
(
2.97644
2.91021
2.8463
2.79239
2.75106
2.72163
2.70211
2.68944
2.68164
2.67576
2.67039
2.66329
2.64929
2.62145
2.56957
2.47347
2.29885
1.97999
1.3863
2.90044
2.69899
2.52064
2.37526
2.26505
2.18667
2.13429
2.10059
2.08007
2.06659
2.05657
2.04576
2.02621
1.98779
1.91749
1.79379
1.58778
1.25553
0.719165
2.81723
2.49022
2.21407
1.99365
1.82783
1.71008
1.63114
1.58063
1.55024
1.5319
1.52063
1.51135
1.49609
1.46497
1.40579
1.29948
1.1229
0.846104
0.421696
2.74538
2.31447
1.95951
1.67931
1.4691
1.31954
1.21875
1.15415
1.11536
1.09296
1.081
1.07407
1.06506
1.04559
1.00542
0.928784
0.797099
0.58832
0.271293
2.69731
2.1911
1.77649
1.44956
1.20348
1.02732
0.907518
0.830064
0.783051
0.756079
0.742346
0.736231
0.731572
0.72162
0.698359
0.64931
0.559662
0.412096
0.183976
2.67582
2.12395
1.66742
1.3045
1.02883
0.829403
0.692056
0.602027
0.54634
0.513803
0.496818
0.489459
0.486238
0.481774
0.470013
0.441498
0.384715
0.285789
0.127044
2.67521
2.10351
1.62059
1.23073
0.930452
0.710183
0.556199
0.45361
0.388783
0.349886
0.328545
0.318404
0.314297
0.311771
0.306282
0.290923
0.257085
0.193866
0.0871767
2.68644
2.11389
1.6174
1.20849
0.888123
0.649344
0.479742
0.364855
0.290784
0.24521
0.219039
0.205402
0.199146
0.196311
0.19337
0.185383
0.166178
0.127544
0.0584857
2.70357
2.14204
1.64136
1.21982
0.883375
0.628361
0.444322
0.317671
0.234578
0.182395
0.151403
0.134189
0.125393
0.121207
0.118678
0.114244
0.103622
0.0809295
0.0379656
2.71868
2.17254
1.67398
1.24555
0.897458
0.629374
0.433041
0.296034
0.20486
0.146719
0.111411
0.0910303
0.0799123
0.0741967
0.0711793
0.0681678
0.0622226
0.0493188
0.0236715
2.72827
2.19603
1.70271
1.27198
0.916734
0.639344
0.433618
0.288369
0.190622
0.127597
0.0887784
0.0658749
0.0529231
0.0459169
0.0422085
0.0396003
0.0360236
0.0288134
0.0141095
2.7372
2.21635
1.7281
1.29674
0.936824
0.652672
0.439783
0.288082
0.185131
0.118236
0.0766819
0.0518757
0.0375881
0.0296417
0.0253453
0.0227453
0.0202853
0.0162051
0.00804275
2.74362
2.23097
1.74649
1.31502
0.952155
0.663504
0.445737
0.289594
0.18306
0.11353
0.0701557
0.044134
0.0290337
0.0205341
0.0158776
0.0132184
0.0112784
0.00885046
0.00440221
2.7449
2.23559
1.75307
1.32184
0.957804
0.667157
0.447147
0.288952
0.18079
0.110105
0.0659823
0.0395003
0.0241194
0.015441
0.0106687
0.00801217
0.00634257
0.00477125
0.00233605
2.7441
2.23339
1.75001
1.31823
0.95383
0.66296
0.442865
0.284721
0.176726
0.106284
0.0624261
0.0361863
0.0209999
0.012461
0.00778045
0.00521633
0.00372954
0.00261092
0.00122622
2.74215
2.22635
1.73911
1.30537
0.940759
0.650908
0.432507
0.276275
0.170091
0.101193
0.0585451
0.0331917
0.0186208
0.0104897
0.00606774
0.00367948
0.00235727
0.00150002
0.000656531
2.73777
2.21322
1.71945
1.28255
0.917963
0.630448
0.415585
0.263168
0.160457
0.0943922
0.0538698
0.0300081
0.0164317
0.00893571
0.00490486
0.0027596
0.00160784
0.000926608
0.000370906
2.73166
2.19493
1.69209
1.2508
0.886407
0.602403
0.392753
0.245873
0.148114
0.0860111
0.0483923
0.0265186
0.0142337
0.00754098
0.00399182
0.00213276
0.00115858
0.000614715
0.000225612
2.7276
2.17721
1.66273
1.21513
0.850168
0.569928
0.366337
0.226018
0.134137
0.0767048
0.042468
0.0228749
0.0120454
0.00624037
0.0032124
0.00165422
0.000855733
0.000427657
0.000146741
2.72468
2.16013
1.63204
1.17641
0.810131
0.533862
0.337091
0.204238
0.119018
0.0668193
0.0363135
0.0191907
0.00990595
0.00502261
0.00252336
0.00126225
0.000630209
0.000302178
9.91449e-05
2.72063
2.14107
1.59822
1.13368
0.766004
0.494345
0.305384
0.180968
0.103154
0.0566629
0.0301382
0.0155904
0.0078766
0.00390677
0.00191782
0.000935364
0.000454025
0.000211272
6.73886e-05
2.71759
2.12287
1.56437
1.09002
0.720557
0.45367
0.27298
0.157476
0.0873979
0.0467712
0.0242561
0.0122442
0.00604039
0.00292655
0.00140327
0.000668067
0.00031625
0.000143613
4.49655e-05
2.71687
2.10862
1.53432
1.04933
0.677253
0.414596
0.241879
0.135095
0.0725728
0.0376155
0.018917
0.0092734
0.00444944
0.00209947
0.000981401
0.000455592
0.000210161
9.29977e-05
2.86161e-05
2.71851
2.09989
1.51107
1.01526
0.639624
0.380011
0.214142
0.115134
0.0594216
0.029573
0.0142898
0.00674053
0.00311849
0.0014221
0.000643763
0.000289384
0.000128455
5.35133e-05
1.45761e-05
2.72682
2.11249
1.52055
1.0189
0.638171
0.375729
0.209207
0.110885
0.0563426
0.0276051
0.0131499
0.00613196
0.00281585
0.00128089
0.000581541
0.000263082
0.000116824
4.70722e-05
1.09267e-05
2.73868
2.14105
1.55684
1.05442
0.667402
0.39671
0.222649
0.118699
0.0605231
0.0296965
0.0141449
0.00659246
0.00302892
0.00138255
0.000633139
0.000291365
0.000133017
5.56756e-05
1.36784e-05
2.74647
2.16555
1.59313
1.09443
0.703838
0.425371
0.242638
0.131271
0.0677444
0.0335233
0.0160318
0.00746438
0.00340882
0.00153979
0.000696578
0.000318019
0.000145902
6.24329e-05
1.60153e-05
2.75011
2.18473
1.62737
1.13703
0.746472
0.461792
0.270069
0.149861
0.0792404
0.0400772
0.0195022
0.00917803
0.00419638
0.00187301
0.000823998
0.000361159
0.000159496
6.71631e-05
1.74817e-05
2.75189
2.20136
1.66123
1.18269
0.795265
0.506085
0.30551
0.175423
0.0961144
0.0503818
0.0253712
0.0123091
0.00575805
0.00259238
0.00112215
0.000466666
0.000189185
7.31528e-05
1.80818e-05
2.7523
2.21655
1.69513
1.23078
0.848969
0.557118
0.348413
0.208074
0.118967
0.0652516
0.0344435
0.0175257
0.00858296
0.00401847
0.00177736
0.000726776
0.000271218
9.02977e-05
1.87211e-05
2.75285
2.23289
1.73104
1.28208
0.907485
0.614482
0.398567
0.248051
0.148454
0.0855901
0.0476762
0.0256927
0.013367
0.00665782
0.00312049
0.00132773
0.000488899
0.000144108
2.24304e-05
2.75688
2.25466
1.77256
1.33907
0.972237
0.678975
0.456593
0.2961
0.185559
0.112568
0.0662976
0.0379691
0.0211111
0.0113088
0.00573606
0.00264723
0.00103909
0.00030184
3.59963e-05
2.76218
2.27837
1.81605
1.3984
1.04046
0.748544
0.521252
0.351812
0.230613
0.147072
0.0915276
0.0556993
0.033126
0.0191482
0.010609
0.00543868
0.00241189
0.0007865
7.62427e-05
2.76799
2.30272
1.86012
1.45882
1.11107
0.822373
0.592119
0.415269
0.284246
0.190228
0.124856
0.0805804
0.05117
0.0318907
0.0193474
0.0111559
0.0058288
0.00246746
0.000507807
2.77274
2.32319
1.89768
1.51132
1.17392
0.889946
0.659063
0.477353
0.338759
0.23593
0.161722
0.109395
0.0731102
0.048234
0.0312704
0.019589
0.0114198
0.00562858
0.00151283
2.77267
2.3297
1.91375
1.53709
1.20752
0.928439
0.699278
0.516495
0.374764
0.267535
0.188423
0.131248
0.0905139
0.0617584
0.0415303
0.0271208
0.016635
0.00877293
0.00263801
2.769
2.32624
1.91447
1.54347
1.21934
0.944517
0.717978
0.536173
0.394041
0.285393
0.204253
0.144773
0.101685
0.0706696
0.0483633
0.0320716
0.0199094
0.0105888
0.00320845
2.76666
2.32467
1.91653
1.55022
1.23058
0.959279
0.734954
0.55402
0.411608
0.301803
0.218954
0.157485
0.112319
0.0792683
0.0550499
0.0369922
0.023222
0.0124654
0.00381687
2.76611
2.32557
1.92044
1.55771
1.24141
0.97271
0.74999
0.569636
0.426919
0.316122
0.231837
0.168695
0.121766
0.0869642
0.0610768
0.041454
0.0262394
0.0141805
0.00437657
2.76583
2.32647
1.92362
1.56357
1.24979
0.983072
0.761607
0.58175
0.438864
0.327369
0.24203
0.177633
0.129354
0.0931864
0.0659759
0.0450948
0.0287063
0.0155836
0.00483575
2.76543
2.32656
1.92513
1.56689
1.25489
0.989612
0.769114
0.589712
0.446821
0.334945
0.248963
0.183764
0.134596
0.0975089
0.0693923
0.0476378
0.0304277
0.0165594
0.00515417
2.76405
2.32483
1.92412
1.56702
1.2562
0.991934
0.772178
0.593221
0.450499
0.338563
0.252355
0.186817
0.137243
0.0997164
0.0711526
0.0489574
0.0313262
0.0170715
0.00532274
2.76406
2.32485
1.92415
1.56705
1.25623
0.991968
0.77221
0.59325
0.450525
0.338586
0.252374
0.186833
0.137256
0.0997268
0.0711607
0.0489635
0.0313305
0.0170741
0.00532362
2.76545
2.32662
1.92521
1.56699
1.25499
0.989714
0.769211
0.589801
0.446899
0.335013
0.249021
0.183812
0.134635
0.0975402
0.0694169
0.0476562
0.0304406
0.0165672
0.00515686
2.76587
2.32656
1.92375
1.56372
1.24996
0.983236
0.761763
0.581893
0.43899
0.327478
0.242122
0.177709
0.129415
0.0932352
0.066014
0.0451233
0.0287262
0.0155954
0.00483983
2.76616
2.32569
1.92061
1.55791
1.24163
0.972932
0.7502
0.569827
0.427087
0.316266
0.231957
0.168794
0.121846
0.0870268
0.0611252
0.04149
0.0262643
0.0141953
0.00438166
2.76672
2.32482
1.91675
1.55048
1.23086
0.959556
0.735216
0.554257
0.411815
0.301978
0.219098
0.157602
0.112412
0.0793406
0.0551051
0.0370329
0.02325
0.0124819
0.00382251
2.76907
2.32642
1.91472
1.54377
1.21967
0.944845
0.718286
0.536449
0.394279
0.285591
0.204414
0.144901
0.101785
0.0707464
0.048421
0.0321134
0.0199376
0.0106051
0.00321392
2.77275
2.32991
1.91404
1.53745
1.2079
0.928819
0.699633
0.516809
0.375032
0.267754
0.188598
0.131384
0.0906186
0.0618373
0.0415886
0.0271623
0.0166628
0.00878898
0.00264355
2.77284
2.32349
1.89814
1.51189
1.17454
0.890576
0.659657
0.477881
0.339208
0.236296
0.162012
0.109619
0.0732798
0.0483612
0.0313652
0.0196592
0.0114704
0.00566131
0.00152547
2.76812
2.30308
1.86066
1.45948
1.11178
0.823076
0.592766
0.415832
0.284711
0.190599
0.125142
0.0807957
0.05133
0.0320086
0.0194339
0.0112185
0.00587185
0.002493
0.000516396
2.76229
2.27869
1.81653
1.39899
1.04109
0.749148
0.52179
0.352263
0.230971
0.147345
0.091729
0.0558445
0.0332293
0.0192212
0.0106601
0.00547302
0.00243244
0.000795688
7.76665e-05
2.75699
2.25497
1.77303
1.33963
0.972827
0.67953
0.457073
0.296488
0.185855
0.112784
0.0664498
0.0380738
0.0211822
0.0113567
0.0057677
0.0026668
0.00104919
0.000304967
3.57641e-05
2.75295
2.23318
1.73149
1.28262
0.908034
0.614984
0.398987
0.248378
0.148693
0.0857571
0.0477882
0.025766
0.0134142
0.00668765
0.0031387
0.00133777
0.000493168
0.000144749
2.18734e-05
2.75239
2.21683
1.69556
1.23128
0.849471
0.557565
0.348774
0.208345
0.119157
0.0653775
0.0345238
0.0175754
0.00861288
0.00403596
0.00178693
0.00073123
0.000272534
9.00492e-05
1.82596e-05
2.75197
2.20162
1.66162
1.18315
0.795712
0.506471
0.305813
0.17564
0.0962603
0.0504743
0.0254271
0.0123416
0.00577625
0.00260202
0.00112671
0.000468267
0.000189282
7.27345e-05
1.77904e-05
2.75018
2.18495
1.62772
1.13742
0.746857
0.462115
0.270314
0.15003
0.0793498
0.0401434
0.0195402
0.00919884
0.00420714
0.0018781
0.000825987
0.00036157
0.000159276
6.68536e-05
1.73351e-05
2.74653
2.16575
1.59343
1.09477
0.704156
0.425632
0.24283
0.1314
0.067825
0.0335704
0.0160577
0.00747782
0.00341531
0.00154258
0.000697504
0.000318117
0.000145747
6.22958e-05
1.59674e-05
2.73873
2.14121
1.55709
1.0547
0.667655
0.396914
0.222797
0.118796
0.0605827
0.0297306
0.0141631
0.0066017
0.00303326
0.00138439
0.000633788
0.000291521
0.000133029
5.56789e-05
1.36872e-05
2.72683
2.11253
1.52061
1.01897
0.638237
0.375784
0.209247
0.110912
0.0563588
0.0276141
0.0131545
0.00613413
0.00281671
0.00128114
0.000581537
0.000263014
0.00011677
4.704e-05
1.09052e-05
2.71849
2.09985
1.51101
1.0152
0.639565
0.379962
0.214106
0.115108
0.0594039
0.0295616
0.0142826
0.00673615
0.0031159
0.0014206
0.000642914
0.000288919
0.000128212
5.33905e-05
1.45229e-05
2.71687
2.10861
1.53432
1.04933
0.677256
0.4146
0.241883
0.135098
0.0725737
0.0376154
0.0189164
0.00927273
0.00444886
0.00209904
0.000981111
0.000455412
0.000210057
9.29406e-05
2.85904e-05
2.71759
2.12287
1.56436
1.09002
0.720559
0.453673
0.272983
0.157477
0.0873986
0.0467713
0.0242559
0.0122439
0.00604009
0.00292631
0.0014031
0.000667957
0.000316185
0.000143578
4.49494e-05
2.72063
2.14106
1.59821
1.13368
0.766004
0.494346
0.305386
0.180969
0.103155
0.0566633
0.0301384
0.0155905
0.00787655
0.0039067
0.00191776
0.000935316
0.000453999
0.00021126
6.73793e-05
2.72468
2.16013
1.63204
1.17641
0.81013
0.533862
0.337092
0.204238
0.119018
0.0668199
0.0363139
0.019191
0.00990611
0.00502268
0.00252339
0.00126227
0.00063024
0.000302207
9.9148e-05
2.7276
2.17721
1.66273
1.21513
0.850167
0.569927
0.366337
0.226019
0.134138
0.0767055
0.0424686
0.0228754
0.0120457
0.00624059
0.00321255
0.00165435
0.00085587
0.000427772
0.000146771
2.73166
2.19493
1.69209
1.2508
0.886406
0.602402
0.392753
0.245873
0.148114
0.0860117
0.0483929
0.0265192
0.0142342
0.00754135
0.00399214
0.00213308
0.00115892
0.000615003
0.000225694
2.73777
2.21322
1.71945
1.28255
0.917962
0.630446
0.415583
0.263167
0.160457
0.0943927
0.0538705
0.0300088
0.0164323
0.00893629
0.00490544
0.00276027
0.00160859
0.000927224
0.00037108
2.74215
2.22635
1.73911
1.30537
0.940757
0.650906
0.432505
0.276273
0.170091
0.101193
0.0585459
0.0331926
0.0186217
0.0104906
0.00606879
0.00368079
0.00235874
0.0015012
0.000656838
2.7441
2.23339
1.75001
1.31823
0.953829
0.662958
0.442863
0.28472
0.176725
0.106284
0.0624269
0.0361873
0.021001
0.0124625
0.00778232
0.00521875
0.0037322
0.00261294
0.00122667
2.7449
2.2356
1.75308
1.32184
0.957803
0.667155
0.447145
0.288951
0.180789
0.110105
0.0659833
0.0395016
0.024121
0.0154433
0.010672
0.00801631
0.0063469
0.00477427
0.00233655
2.74362
2.23097
1.7465
1.31502
0.952154
0.663502
0.445735
0.289592
0.18306
0.11353
0.0701569
0.0441357
0.0290363
0.0205379
0.0158829
0.0132248
0.0112846
0.00885427
0.00440249
2.73721
2.21635
1.7281
1.29674
0.936823
0.65267
0.439782
0.288081
0.185131
0.118237
0.0766834
0.0518782
0.0375921
0.0296476
0.0253531
0.022754
0.0202928
0.0162087
0.00804238
2.72827
2.19603
1.70272
1.27198
0.916734
0.639344
0.433618
0.288369
0.190623
0.127598
0.0887807
0.0658787
0.0529289
0.045925
0.0422184
0.03961
0.0360304
0.0288152
0.0141079
2.71868
2.17254
1.67398
1.24555
0.897458
0.629373
0.433041
0.296034
0.204861
0.146721
0.111414
0.0910355
0.0799199
0.0742064
0.0711894
0.0681755
0.0622254
0.0493167
0.0236687
2.70357
2.14204
1.64136
1.21982
0.883374
0.62836
0.444322
0.317672
0.23458
0.182398
0.151407
0.134196
0.125401
0.121216
0.118685
0.114245
0.103618
0.080922
0.037962
2.68644
2.11389
1.61739
1.20848
0.888121
0.649343
0.479742
0.364856
0.290786
0.245212
0.219043
0.205408
0.199152
0.196315
0.193369
0.185375
0.166165
0.127532
0.0584828
2.67521
2.10351
1.62059
1.23072
0.93045
0.710182
0.556199
0.45361
0.388784
0.349888
0.328548
0.318407
0.314298
0.311767
0.30627
0.290904
0.257064
0.193853
0.0871762
2.67582
2.12394
1.66742
1.3045
1.02883
0.829402
0.692055
0.602026
0.54634
0.513803
0.496818
0.489456
0.486231
0.48176
0.469991
0.441472
0.384694
0.28578
0.127046
2.69731
2.1911
1.77649
1.44956
1.20348
1.02732
0.907516
0.830063
0.783049
0.756076
0.742341
0.736222
0.731557
0.721598
0.698333
0.649285
0.559648
0.412095
0.183982
2.74538
2.31447
1.95951
1.67931
1.4691
1.31954
1.21875
1.15415
1.11536
1.09296
1.08099
1.07405
1.06504
1.04556
1.0054
0.928769
0.797097
0.588328
0.2713
2.81723
2.49023
2.21408
1.99365
1.82783
1.71008
1.63114
1.58062
1.55024
1.5319
1.52062
1.51133
1.49607
1.46495
1.40578
1.29948
1.12291
0.846117
0.4217
2.90044
2.69899
2.52065
2.37526
2.26505
2.18667
2.13428
2.10059
2.08006
2.06658
2.05656
2.04575
2.0262
1.98778
1.91749
1.7938
1.5878
1.25554
0.719165
2.97644
2.91021
2.8463
2.79239
2.75106
2.72163
2.70211
2.68944
2.68164
2.67576
2.67039
2.66328
2.64929
2.62145
2.56957
2.47347
2.29885
1.97999
1.3863
)
;

boundaryField
{
    up
    {
        type            fixedValue;
        value           uniform 0;
    }
    low
    {
        type            fixedValue;
        value           uniform 3;
    }
    left
    {
        type            fixedValue;
        value           uniform 3;
    }
    right
    {
        type            fixedValue;
        value           uniform 3;
    }
    frontAndBackPlanes
    {
        type            empty;
    }
}


// ************************************************************************* //
