/*--------------------------------*- C++ -*----------------------------------*\
  =========                 |
  \\      /  F ield         | OpenFOAM: The Open Source CFD Toolbox
   \\    /   O peration     | Website:  https://openfoam.org
    \\  /    A nd           | Version:  7
     \\/     M anipulation  |
\*---------------------------------------------------------------------------*/
FoamFile
{
    version     2.0;
    format      ascii;
    class       volScalarField;
    location    "0.03";
    object      T;
}
// * * * * * * * * * * * * * * * * * * * * * * * * * * * * * * * * * * * * * //

dimensions      [0 0 0 1 0 0 0];

internalField   nonuniform List<scalar> 
1596
(
0.975687
0.920673
0.880523
0.855665
0.84158
0.833873
0.829716
0.8273
0.826101
0.825376
0.825377
0.826049
0.82635
0.824723
0.818195
0.799043
0.753673
0.656848
0.462739
0.913164
0.764363
0.663312
0.602243
0.567776
0.548972
0.538894
0.533398
0.530761
0.529614
0.530055
0.531958
0.534194
0.535105
0.531891
0.517151
0.478895
0.396511
0.236486
0.862889
0.64779
0.505241
0.419619
0.371269
0.344968
0.331003
0.323667
0.320222
0.318907
0.319472
0.321672
0.324661
0.327214
0.327353
0.319701
0.295689
0.24072
0.131166
0.832752
0.577209
0.40805
0.30581
0.247598
0.215766
0.198847
0.190061
0.185874
0.184207
0.184435
0.186169
0.188792
0.191493
0.193034
0.189965
0.176789
0.144011
0.075692
0.82058
0.544056
0.358191
0.244023
0.178004
0.141428
0.121777
0.111494
0.106422
0.104181
0.103806
0.104754
0.106527
0.108593
0.110222
0.109364
0.102711
0.0843781
0.0440188
0.820677
0.536297
0.339991
0.216527
0.143619
0.102478
0.0800016
0.0680466
0.0619336
0.0589856
0.0579409
0.058106
0.0590128
0.0602814
0.0614853
0.061456
0.0582836
0.048419
0.0253677
0.827371
0.543363
0.340748
0.20966
0.130334
0.0846079
0.0591431
0.045342
0.0380759
0.0343696
0.0326951
0.0322125
0.0324304
0.033031
0.0337438
0.0339114
0.0324509
0.0272584
0.0143846
0.83641
0.557418
0.351452
0.214145
0.128882
0.0786209
0.0500742
0.0343178
0.0258364
0.0213629
0.0191276
0.0181471
0.0178759
0.0180036
0.0183258
0.0184597
0.0177878
0.0150781
0.00800426
0.846102
0.574358
0.366966
0.224559
0.13383
0.0791506
0.0474954
0.0297258
0.0199958
0.014758
0.0120189
0.0106541
0.0100474
0.00986551
0.0099189
0.00996178
0.00963013
0.00820849
0.00436823
0.853445
0.58891
0.38175
0.235904
0.140854
0.0824141
0.0479913
0.028377
0.0174903
0.0115516
0.00837774
0.00671849
0.00588535
0.00550993
0.00539373
0.00535351
0.00516099
0.00440163
0.00233774
0.857604
0.598732
0.392838
0.245256
0.147345
0.0861459
0.0495677
0.0284605
0.0166171
0.0100954
0.00657019
0.00469047
0.00370529
0.00321082
0.00299143
0.00288984
0.00274998
0.00232943
0.00122755
0.861281
0.60651
0.401613
0.252881
0.152912
0.0896435
0.0514001
0.0291156
0.0165091
0.00952131
0.00572061
0.003677
0.00258839
0.00201993
0.00173852
0.00159585
0.00147386
0.00122576
0.000635534
0.863383
0.611013
0.406821
0.257556
0.156453
0.0919668
0.0527018
0.029674
0.016577
0.00928743
0.00530964
0.0031639
0.00201437
0.00140484
0.00108957
0.000923223
0.000807986
0.000648814
0.000327118
0.862779
0.610644
0.407038
0.258137
0.157075
0.0924273
0.052939
0.0297104
0.0164656
0.00908022
0.00504578
0.00286819
0.00170027
0.00107774
0.000749755
0.000573675
0.000463413
0.000351653
0.000169676
0.861021
0.60704
0.403397
0.25527
0.155076
0.0911105
0.0520792
0.0291328
0.0160552
0.00876784
0.0047912
0.00264801
0.00150029
0.000888363
0.000563894
0.000388751
0.00028485
0.000200029
9.06695e-05
0.858434
0.600949
0.396592
0.249441
0.150748
0.0881636
0.0501766
0.0279389
0.0153107
0.00829693
0.00448228
0.00243359
0.00134042
0.000759258
0.000451133
0.000285042
0.000189714
0.000122027
5.123e-05
0.854253
0.591637
0.386234
0.240513
0.144073
0.0836085
0.0472533
0.0261381
0.0142274
0.00765128
0.0040944
0.00219443
0.00118611
0.000652789
0.000371137
0.000220115
0.000135407
8.02826e-05
3.11751e-05
0.848823
0.579568
0.372856
0.229004
0.135483
0.0777619
0.0435204
0.0238596
0.0128774
0.00686591
0.00363975
0.00192911
0.00102778
0.000554362
0.000305968
0.0001738
0.000100991
5.61656e-05
2.04247e-05
0.844013
0.567307
0.358678
0.216569
0.126115
0.0713585
0.0394282
0.0213666
0.011408
0.00601926
0.0031573
0.00165445
0.00086997
0.000461653
0.000249296
0.000137401
7.67421e-05
4.07804e-05
1.41423e-05
0.838979
0.55418
0.343433
0.20322
0.116102
0.0645544
0.0351089
0.0187548
0.00988206
0.00514945
0.00266843
0.00138116
0.000716833
0.000374823
0.00019884
0.000107153
5.81996e-05
2.99786e-05
1.00787e-05
0.832586
0.538921
0.326373
0.188671
0.105412
0.0574132
0.0306429
0.0160918
0.00834725
0.00428696
0.00219112
0.001119
0.000572985
0.000295392
0.000154268
8.16463e-05
4.34414e-05
2.19057e-05
7.22774e-06
0.826122
0.522965
0.308669
0.173792
0.0946484
0.0503282
0.0262734
0.0135208
0.006885
0.00347631
0.00174885
0.000879804
0.000443981
0.000225576
0.000116048
6.04507e-05
3.16444e-05
1.5729e-05
5.1477e-06
0.820536
0.507921
0.29174
0.159594
0.0844569
0.0436861
0.022221
0.011163
0.00555959
0.00275035
0.00135773
0.000671039
0.000332955
0.000166404
8.42219e-05
4.31732e-05
2.22738e-05
1.09695e-05
3.61447e-06
0.816468
0.495268
0.277014
0.147098
0.0754664
0.0378414
0.0186738
0.00911348
0.00441648
0.00212955
0.00102623
0.000495666
0.000240497
0.000117544
5.81714e-05
2.91739e-05
1.47725e-05
7.19094e-06
2.37444e-06
0.81782
0.494197
0.274444
0.144391
0.073309
0.0363632
0.0177562
0.0085827
0.00412496
0.0019757
0.000947159
0.000455588
0.00022019
0.000107107
5.26836e-05
2.62579e-05
1.32597e-05
6.4572e-06
2.08233e-06
0.823225
0.50302
0.282281
0.149864
0.0766513
0.0382396
0.0187571
0.00910121
0.00439034
0.00211169
0.00101728
0.000491988
0.000239076
0.000116781
5.75446e-05
2.86912e-05
1.45254e-05
7.11885e-06
2.28478e-06
0.828866
0.514799
0.294056
0.158813
0.0824892
0.041689
0.0206622
0.0101054
0.0049032
0.00236864
0.00114466
0.000554682
0.000269565
0.000131199
6.4026e-05
3.1423e-05
1.56917e-05
7.75401e-06
2.66296e-06
0.834486
0.529088
0.309594
0.171399
0.0911714
0.0470873
0.0237846
0.0118191
0.00580857
0.00283388
0.00137906
0.000670795
0.000325798
0.000157305
7.52022e-05
3.55276e-05
1.68739e-05
8.06218e-06
2.82365e-06
0.840549
0.545589
0.328418
0.187361
0.102699
0.0545979
0.028338
0.0144376
0.00725631
0.00361092
0.00178704
0.00088098
0.000431565
0.000208381
9.79885e-05
4.41565e-05
1.91338e-05
8.1167e-06
2.61537e-06
0.846434
0.562829
0.349075
0.205697
0.116561
0.0640628
0.0343588
0.0180737
0.00936863
0.00480212
0.00244422
0.001237
0.000620427
0.000305125
0.00014434
6.34658e-05
2.50128e-05
8.52476e-06
1.95805e-06
0.852102
0.580225
0.370768
0.225778
0.13242
0.0753961
0.0419175
0.0228667
0.0122954
0.00653833
0.00345274
0.00181318
0.00094387
0.000481715
0.000235751
0.000105717
4.03239e-05
1.11491e-05
9.39777e-07
0.859093
0.599224
0.39432
0.248029
0.150557
0.0888558
0.0512764
0.0290712
0.016265
0.00900999
0.00496215
0.00272192
0.00148364
0.000795958
0.00041166
0.000195927
7.86729e-05
2.12746e-05
2.10901e-07
0.866013
0.617916
0.418099
0.271328
0.170355
0.104216
0.0624625
0.0368495
0.0214914
0.0124314
0.00716194
0.00411917
0.00236267
0.00134229
0.000743147
0.000385443
0.000173428
5.54937e-05
2.63923e-06
0.872369
0.635565
0.441409
0.295166
0.191553
0.121452
0.0756294
0.0464609
0.0282772
0.017104
0.0103254
0.00623901
0.00377454
0.00227838
0.00135888
0.000779997
0.000409608
0.00017517
3.63469e-05
0.877471
0.650385
0.461726
0.31679
0.211585
0.138418
0.0891256
0.056719
0.035818
0.0225099
0.0141346
0.00889414
0.00561363
0.00354846
0.00223388
0.00137511
0.00079636
0.00039417
0.000108268
0.879524
0.657672
0.472631
0.329153
0.223656
0.149135
0.0980373
0.0637894
0.0412415
0.0265671
0.0171185
0.0110635
0.0071779
0.00466871
0.00303005
0.00193055
0.00116639
0.000610958
0.000184033
0.879131
0.658967
0.475871
0.333698
0.228708
0.154063
0.102456
0.0675259
0.0442752
0.0289568
0.0189627
0.0124655
0.00822916
0.00544459
0.00359017
0.00231837
0.00141437
0.000744701
0.000224559
0.878967
0.660264
0.478818
0.337774
0.233247
0.158527
0.1065
0.0709873
0.0471207
0.031227
0.0207373
0.0138325
0.00926818
0.00622244
0.00416035
0.00272018
0.00167699
0.000890643
0.000271198
0.879395
0.662122
0.481956
0.341694
0.23742
0.162543
0.110106
0.0740677
0.0496598
0.0332642
0.0223415
0.0150787
0.010224
0.00694457
0.00469436
0.00309956
0.00192673
0.0010304
0.000316408
0.879732
0.663538
0.48434
0.344685
0.240623
0.16565
0.11292
0.0764941
0.0516795
0.0349008
0.0236434
0.0161001
0.0110149
0.00754725
0.00514336
0.00342044
0.00213885
0.00114946
0.000355101
0.879845
0.664242
0.485678
0.346475
0.24262
0.167641
0.114763
0.078111
0.0530453
0.0360221
0.0245458
0.0168155
0.0115739
0.00797651
0.00546507
0.00365123
0.00229162
0.00123511
0.000382912
0.879336
0.6638
0.485641
0.346835
0.243248
0.168397
0.115538
0.0788361
0.0536853
0.0365645
0.0249929
0.0171768
0.0118606
0.00819932
0.00563371
0.0037732
0.00237289
0.00128095
0.000397921
0.87934
0.66381
0.485653
0.346847
0.243258
0.168406
0.115545
0.0788418
0.0536896
0.0365677
0.0249954
0.0171786
0.0118619
0.00820033
0.00563446
0.00377374
0.00237326
0.00128116
0.000397996
0.879857
0.66427
0.485712
0.34651
0.242652
0.167668
0.114785
0.0781279
0.0530582
0.0360318
0.024553
0.0168209
0.011578
0.00797951
0.00546729
0.00365284
0.00229272
0.00123576
0.000383133
0.879751
0.663582
0.484395
0.344742
0.240674
0.165693
0.112955
0.0765211
0.0516999
0.0349161
0.0236548
0.0161085
0.0110211
0.00755185
0.00514675
0.00342288
0.00214051
0.00115042
0.000355431
0.87942
0.662182
0.482031
0.34177
0.237488
0.1626
0.110152
0.0741033
0.0496867
0.0332841
0.0223562
0.0150894
0.010232
0.00695041
0.00469864
0.00310262
0.0019288
0.0010316
0.000316816
0.878998
0.660338
0.478912
0.337869
0.233333
0.158598
0.106557
0.0710304
0.0471528
0.0312507
0.0207546
0.013845
0.00927735
0.00622912
0.00416519
0.00272362
0.00167929
0.000891967
0.000271644
0.879168
0.659055
0.475982
0.33381
0.228807
0.154146
0.10252
0.0675747
0.0443113
0.028983
0.0189816
0.0124791
0.00823892
0.00545159
0.00359516
0.00232185
0.00141666
0.000746
0.000224986
0.879568
0.657776
0.47276
0.329282
0.22377
0.149229
0.0981099
0.0638435
0.0412809
0.0265953
0.0171386
0.0110778
0.00718799
0.00467583
0.00303503
0.00193396
0.00116858
0.000612175
0.00018442
0.877528
0.650537
0.461926
0.316995
0.21177
0.13857
0.0892441
0.0568073
0.0358819
0.0225552
0.0141663
0.0089161
0.00562879
0.00355893
0.00224115
0.00138016
0.000799785
0.000396254
0.000109031
0.87244
0.63574
0.441631
0.295387
0.191748
0.121608
0.075748
0.0465471
0.0283381
0.0171461
0.0103541
0.00625844
0.00378764
0.00228721
0.00136485
0.000784015
0.000412206
0.000176638
3.68326e-05
0.866077
0.618075
0.418295
0.271518
0.170516
0.104341
0.0625535
0.036913
0.0215343
0.0124598
0.00718039
0.00413104
0.00237025
0.00134712
0.0007462
0.000387329
0.000174505
5.59853e-05
2.73383e-06
0.859156
0.599377
0.394505
0.248203
0.150699
0.0889622
0.051351
0.0291212
0.0162975
0.00903051
0.0049749
0.00272972
0.00148836
0.000798799
0.000413353
0.000196905
7.91901e-05
2.14925e-05
2.52337e-07
0.852163
0.580371
0.37094
0.225935
0.132544
0.0754852
0.0419776
0.0229054
0.0123195
0.00655294
0.00346139
0.00181822
0.000946778
0.000483391
0.000236721
0.000106271
4.06211e-05
1.12816e-05
9.707e-07
0.846492
0.562966
0.349232
0.205835
0.116666
0.0641359
0.0344063
0.0181031
0.00938623
0.00481234
0.00245002
0.00124025
0.000622241
0.00030616
0.000144946
6.38185e-05
2.52032e-05
8.60733e-06
1.97633e-06
0.840603
0.545715
0.328557
0.187479
0.102786
0.0546561
0.0283744
0.0144593
0.00726885
0.00361793
0.00179087
0.000883064
0.000432725
0.000209058
9.83948e-05
4.43901e-05
1.92447e-05
8.14614e-06
2.61001e-06
0.834535
0.529199
0.309713
0.171497
0.0912411
0.0471321
0.0238116
0.0118347
0.00581727
0.00283859
0.00138157
0.000672147
0.000326563
0.000157767
7.5484e-05
3.56796e-05
1.69265e-05
8.05199e-06
2.80009e-06
0.828908
0.514893
0.294154
0.15889
0.0825428
0.0417224
0.0206817
0.0101163
0.00490914
0.00237178
0.00114631
0.00055559
0.000270097
0.000131528
6.42241e-05
3.15186e-05
1.57088e-05
7.72627e-06
2.63482e-06
0.82326
0.503096
0.282358
0.149923
0.0766913
0.038264
0.018771
0.00910885
0.00439438
0.0021138
0.00101841
0.000492636
0.000239471
0.000117027
5.76845e-05
2.87489e-05
1.4525e-05
7.09045e-06
2.26092e-06
0.817828
0.494216
0.274463
0.144405
0.0733183
0.0363687
0.0177592
0.00858418
0.00412565
0.00197605
0.000947392
0.000455778
0.000220345
0.000107216
5.274e-05
2.6267e-05
1.32377e-05
6.42727e-06
2.0653e-06
0.816457
0.495249
0.276994
0.147081
0.0754541
0.0378334
0.0186687
0.00911029
0.00441454
0.00212846
0.00102569
0.000495439
0.000240422
0.000117525
5.81616e-05
2.91559e-05
1.47479e-05
7.17058e-06
2.36789e-06
0.820536
0.507922
0.291741
0.159594
0.0844572
0.0436864
0.0222211
0.0111628
0.00555929
0.00275012
0.00135763
0.000671035
0.000332997
0.000166455
8.42616e-05
4.31977e-05
2.22867e-05
1.09766e-05
3.61843e-06
0.826122
0.522966
0.30867
0.173792
0.0946486
0.0503284
0.0262734
0.0135205
0.00688466
0.00347601
0.00174867
0.000879733
0.000443983
0.000225612
0.000116093
6.04924e-05
3.1678e-05
1.57525e-05
5.15781e-06
0.832586
0.538921
0.326373
0.188671
0.105412
0.0574133
0.030643
0.0160916
0.00834689
0.00428658
0.00219083
0.00111884
0.000572928
0.000295404
0.000154313
8.17032e-05
4.34955e-05
2.19462e-05
7.24478e-06
0.838979
0.554181
0.343433
0.20322
0.116102
0.0645546
0.035109
0.0187547
0.00988167
0.00514897
0.00266801
0.00138089
0.0007167
0.000374799
0.00019888
0.000107224
5.82761e-05
3.00393e-05
1.01047e-05
0.844013
0.567307
0.358679
0.21657
0.126115
0.0713587
0.0394284
0.0213665
0.0114076
0.00601868
0.00315676
0.00165406
0.000869753
0.000461584
0.000249325
0.000137483
7.68432e-05
4.08653e-05
1.41798e-05
0.848822
0.579569
0.372856
0.229004
0.135483
0.0777621
0.0435206
0.0238595
0.012877
0.00686525
0.00363909
0.0019286
0.00102747
0.000554241
0.000305976
0.000173887
0.000101116
5.62768e-05
2.04756e-05
0.854253
0.591637
0.386235
0.240513
0.144073
0.0836087
0.0472534
0.026138
0.0142269
0.00765056
0.00409364
0.00219383
0.00118573
0.00065261
0.000371113
0.000220195
0.000135547
8.04171e-05
3.12392e-05
0.858434
0.600949
0.396592
0.249441
0.150748
0.0881638
0.0501767
0.0279387
0.0153101
0.00829616
0.00448147
0.00243291
0.00133997
0.000759021
0.000451058
0.000285089
0.000189849
0.000122171
5.13015e-05
0.861021
0.60704
0.403398
0.255271
0.155077
0.0911107
0.0520792
0.0291326
0.0160546
0.00876705
0.00479038
0.00264733
0.00149982
0.000888079
0.000563746
0.000388725
0.000284943
0.000200151
9.0733e-05
0.86278
0.610645
0.407038
0.258138
0.157075
0.0924276
0.0529389
0.0297101
0.0164651
0.0090795
0.00504504
0.00286758
0.00169984
0.00107742
0.000749507
0.000573519
0.000463401
0.000351697
0.000169701
0.863384
0.611014
0.406822
0.257557
0.156454
0.0919671
0.0527017
0.0296737
0.0165766
0.00928688
0.00530912
0.00316349
0.00201406
0.00140453
0.00108919
0.000922864
0.000807788
0.000648702
0.000327061
0.861281
0.606511
0.401614
0.252882
0.152913
0.0896438
0.0514001
0.0291154
0.0165088
0.00952109
0.00572046
0.00367693
0.0025883
0.00201964
0.00173797
0.00159522
0.0014734
0.00122542
0.000635353
0.857605
0.598733
0.392839
0.245257
0.147346
0.0861464
0.0495678
0.0284606
0.0166172
0.0100956
0.00657054
0.00469081
0.00370543
0.00321052
0.00299068
0.00288892
0.00274925
0.00232884
0.00122723
0.853446
0.588912
0.381752
0.235906
0.140855
0.0824147
0.0479916
0.0283774
0.0174909
0.0115523
0.00837855
0.00671913
0.00588556
0.00550953
0.00539279
0.00535241
0.00516008
0.0044009
0.00233736
0.846102
0.574359
0.366968
0.22456
0.133831
0.0791511
0.0474958
0.0297265
0.0199967
0.0147591
0.0120199
0.0106547
0.0100474
0.00986488
0.00991791
0.00996079
0.00962932
0.00820786
0.00436794
0.836411
0.557418
0.351453
0.214146
0.128883
0.0786213
0.0500748
0.0343187
0.0258375
0.021364
0.0191283
0.0181472
0.0178753
0.0180027
0.018325
0.0184592
0.0177874
0.0150779
0.00800425
0.827371
0.543363
0.340749
0.20966
0.130335
0.0846083
0.0591437
0.0453428
0.0380767
0.0343702
0.0326951
0.0322117
0.0324292
0.03303
0.0337435
0.0339115
0.0324508
0.0272585
0.0143849
0.820677
0.536297
0.339991
0.216527
0.143619
0.102478
0.080002
0.0680471
0.061934
0.0589856
0.0579401
0.0581045
0.0590112
0.0602805
0.0614854
0.0614563
0.0582834
0.0484192
0.0253681
0.82058
0.544056
0.358191
0.244022
0.178003
0.141428
0.121777
0.111495
0.106422
0.10418
0.103805
0.104753
0.106526
0.108592
0.110222
0.109364
0.102711
0.0843779
0.0440188
0.832751
0.577208
0.408049
0.305809
0.247597
0.215766
0.198847
0.190061
0.185874
0.184206
0.184434
0.186168
0.18879
0.191492
0.193033
0.189965
0.176789
0.144011
0.0756918
0.862889
0.647789
0.50524
0.419617
0.371267
0.344967
0.331002
0.323666
0.320221
0.318906
0.319471
0.32167
0.324659
0.327213
0.327352
0.319701
0.29569
0.240721
0.131166
0.913164
0.764362
0.663311
0.602242
0.567776
0.548971
0.538894
0.533397
0.53076
0.529613
0.530054
0.531957
0.534193
0.535104
0.53189
0.517151
0.478895
0.396512
0.236486
0.975687
0.920673
0.880523
0.855665
0.84158
0.833873
0.829716
0.8273
0.826101
0.825376
0.825377
0.826049
0.82635
0.824722
0.818195
0.799043
0.753674
0.656849
0.462739
)
;

boundaryField
{
    up
    {
        type            fixedValue;
        value           uniform 0;
    }
    low
    {
        type            fixedValue;
        value           uniform 1;
    }
    left
    {
        type            fixedValue;
        value           uniform 1;
    }
    right
    {
        type            fixedValue;
        value           uniform 1;
    }
    frontAndBackPlanes
    {
        type            empty;
    }
}


// ************************************************************************* //
