/*--------------------------------*- C++ -*----------------------------------*\
  =========                 |
  \\      /  F ield         | OpenFOAM: The Open Source CFD Toolbox
   \\    /   O peration     | Website:  https://openfoam.org
    \\  /    A nd           | Version:  7
     \\/     M anipulation  |
\*---------------------------------------------------------------------------*/
FoamFile
{
    version     2.0;
    format      ascii;
    class       volScalarField;
    location    "0.11";
    object      gradTy;
}
// * * * * * * * * * * * * * * * * * * * * * * * * * * * * * * * * * * * * * //

dimensions      [0 -1 0 1 0 0 0];

internalField   nonuniform List<scalar> 
1596
(
-0.33296
-0.610681
-0.823846
-1.01013
-1.16749
-1.32092
-1.4579
-1.60405
-1.76517
-1.94352
-2.19643
-2.51597
-2.97577
-3.65766
-4.76352
-6.53366
-9.75449
-15.7397
-37.176
-1.00223
-1.21235
-1.325
-1.40212
-1.45427
-1.51342
-1.57183
-1.65382
-1.76531
-1.90352
-2.11754
-2.39572
-2.78889
-3.33478
-4.14033
-5.25427
-6.94299
-9.44407
-16.5473
-1.75956
-1.79658
-1.77211
-1.73014
-1.67773
-1.64526
-1.62622
-1.64215
-1.69708
-1.7849
-1.946
-2.16474
-2.47715
-2.90099
-3.50395
-4.29052
-5.40853
-6.95304
-10.2495
-2.50934
-2.33287
-2.16052
-2.00045
-1.84928
-1.73081
-1.63849
-1.58987
-1.58695
-1.62153
-1.72566
-1.88175
-2.11527
-2.43361
-2.88216
-3.44884
-4.22393
-5.24253
-6.97226
-3.14922
-2.79157
-2.48912
-2.22416
-1.98557
-1.78981
-1.63076
-1.5218
-1.46343
-1.44648
-1.49536
-1.59248
-1.75541
-1.98615
-2.31662
-2.73003
-3.28648
-3.99569
-5.02684
-3.60622
-3.15045
-2.75828
-2.41205
-2.10206
-1.84033
-1.62276
-1.4594
-1.35008
-1.28567
-1.28381
-1.32815
-1.43013
-1.58881
-1.82704
-2.12832
-2.53508
-3.04717
-3.72869
-3.8601
-3.39776
-2.96662
-2.56941
-2.20749
-1.89314
-1.62649
-1.41578
-1.26118
-1.15442
-1.10749
-1.10589
-1.15618
-1.25565
-1.42043
-1.63602
-1.93323
-2.3089
-2.78929
-3.93635
-3.532
-3.10911
-2.69302
-2.30069
-1.94881
-1.64376
-1.39381
-1.20049
-1.05716
-0.971371
-0.930702
-0.93787
-0.988995
-1.09486
-1.24329
-1.45659
-1.73139
-2.07979
-3.88649
-3.57992
-3.19969
-2.79128
-2.38724
-2.0113
-1.6772
-1.39514
-1.16889
-0.994018
-0.874944
-0.801278
-0.77279
-0.784752
-0.843576
-0.939093
-1.08693
-1.28416
-1.53712
-3.74681
-3.53435
-3.21501
-2.83669
-2.44057
-2.05695
-1.7065
-1.40261
-1.1519
-0.952516
-0.807098
-0.707151
-0.650405
-0.631554
-0.653564
-0.707853
-0.8048
-0.942023
-1.1232
-3.6057
-3.45201
-3.18692
-2.84523
-2.46744
-2.08704
-1.72975
-1.41232
-1.14431
-0.926547
-0.760947
-0.640707
-0.562255
-0.519917
-0.514001
-0.537035
-0.595253
-0.686474
-0.812764
-3.45564
-3.35867
-3.14078
-2.83458
-2.47844
-2.1068
-1.74847
-1.42314
-1.14308
-0.911631
-0.730719
-0.594981
-0.500097
-0.440166
-0.413508
-0.413371
-0.44279
-0.499533
-0.584459
-3.28592
-3.23732
-3.06201
-2.79037
-2.45852
-2.10103
-1.74808
-1.42161
-1.136
-0.896693
-0.706136
-0.560134
-0.454079
-0.381988
-0.340813
-0.324278
-0.333105
-0.364914
-0.419665
-3.14773
-3.12099
-2.97464
-2.73026
-2.41973
-2.07683
-1.73182
-1.40807
-1.12135
-0.878643
-0.683006
-0.531093
-0.418252
-0.338497
-0.287862
-0.260373
-0.25513
-0.269565
-0.302969
-3.0294
-3.0183
-2.89005
-2.66436
-2.36993
-2.03939
-1.70252
-1.38336
-1.09842
-0.855626
-0.658492
-0.504206
-0.388139
-0.30432
-0.248184
-0.213945
-0.199615
-0.20247
-0.221339
-2.91903
-2.92451
-2.80916
-2.59551
-2.31186
-1.9906
-1.66097
-1.34726
-1.06615
-0.825926
-0.630299
-0.476654
-0.360357
-0.275424
-0.216908
-0.179145
-0.159461
-0.155032
-0.164414
-2.82552
-2.84123
-2.7338
-2.52645
-2.24836
-1.93273
-1.60865
-1.30041
-1.02447
-0.788906
-0.597271
-0.446817
-0.332796
-0.249159
-0.190703
-0.151865
-0.129558
-0.120931
-0.124405
-2.74993
-2.77228
-2.66843
-2.46225
-2.18471
-1.87062
-1.5496
-1.24595
-0.975568
-0.745935
-0.560014
-0.414636
-0.304774
-0.224238
-0.167632
-0.129476
-0.10646
-0.0957553
-0.0957453
-2.67261
-2.71586
-2.61767
-2.41013
-2.12902
-1.81225
-1.49102
-1.18988
-0.924174
-0.700503
-0.520904
-0.381524
-0.276869
-0.200511
-0.146862
-0.110501
-0.0879991
-0.0765816
-0.0746472
-2.58829
-2.66026
-2.57241
-2.36393
-2.07732
-1.75528
-1.43164
-1.13167
-0.870163
-0.652676
-0.480029
-0.347475
-0.248901
-0.177561
-0.127675
-0.0938798
-0.0726998
-0.06145
-0.058585
-2.51816
-2.61304
-2.53592
-2.32619
-2.03231
-1.70255
-1.3743
-1.07395
-0.815849
-0.604367
-0.438875
-0.313551
-0.221526
-0.155668
-0.109996
-0.0791903
-0.0597787
-0.0491896
-0.0459767
-2.4546
-2.57436
-2.50874
-2.29791
-1.99582
-1.65664
-1.32195
-1.0197
-0.763968
-0.557902
-0.399284
-0.281112
-0.195658
-0.135359
-0.0940121
-0.0663244
-0.0488267
-0.039067
-0.035767
-2.39088
-2.5407
-2.4893
-2.27869
-1.96858
-1.61924
-1.27691
-0.971457
-0.716943
-0.515386
-0.36295
-0.251423
-0.172172
-0.117173
-0.0799952
-0.0553393
-0.0396916
-0.0306272
-0.0271033
-2.32815
-2.50949
-2.47381
-2.26419
-1.94623
-1.58614
-1.23538
-0.925782
-0.671651
-0.474044
-0.327302
-0.222184
-0.149022
-0.0993213
-0.0663852
-0.0449399
-0.0313087
-0.0228609
-0.0179306
-2.27241
-2.48595
-2.47637
-2.283
-1.97262
-1.61322
-1.25963
-0.945611
-0.68709
-0.485998
-0.336397
-0.229284
-0.154575
-0.103726
-0.0698856
-0.0478345
-0.0336574
-0.0245429
-0.0180751
-2.22879
-2.46644
-2.48133
-2.30963
-2.01473
-1.663
-1.31027
-0.992135
-0.726824
-0.518275
-0.361465
-0.248209
-0.168492
-0.113728
-0.0769028
-0.0527687
-0.0372365
-0.0274845
-0.021153
-2.22212
-2.46597
-2.49467
-2.34028
-2.06092
-1.7194
-1.37028
-1.05001
-0.778666
-0.562223
-0.397149
-0.276272
-0.189961
-0.129749
-0.0885891
-0.061203
-0.0433732
-0.032162
-0.0251981
-2.25794
-2.48933
-2.51819
-2.3733
-2.10684
-1.77638
-1.43335
-1.11353
-0.838006
-0.61457
-0.441259
-0.312201
-0.218358
-0.151549
-0.104811
-0.0729852
-0.0518377
-0.0384002
-0.030109
-2.3298
-2.53769
-2.55607
-2.41369
-2.15707
-1.83758
-1.50226
-1.185
-0.907061
-0.677656
-0.496328
-0.358702
-0.25648
-0.181881
-0.128086
-0.0902231
-0.0642264
-0.0473022
-0.0366671
-2.43375
-2.60597
-2.60587
-2.46106
-2.21198
-1.90334
-1.57713
-1.26448
-0.986122
-0.752244
-0.56371
-0.417744
-0.306879
-0.223769
-0.161652
-0.115995
-0.0830785
-0.0607277
-0.0461952
-2.56651
-2.69477
-2.67265
-2.52254
-2.27895
-1.98021
-1.66329
-1.3562
-1.07862
-0.841345
-0.646315
-0.492408
-0.373056
-0.281343
-0.210261
-0.155313
-0.112941
-0.0821711
-0.0610869
-2.70073
-2.79435
-2.75258
-2.597
-2.35811
-2.06883
-1.7615
-1.4609
-1.18536
-0.945945
-0.745451
-0.584481
-0.457545
-0.358337
-0.279305
-0.215319
-0.161745
-0.118534
-0.0860446
-2.84963
-2.90931
-2.84739
-2.68503
-2.44944
-2.16881
-1.87115
-1.57794
-1.30585
-1.06583
-0.861239
-0.69441
-0.561245
-0.456651
-0.372862
-0.30396
-0.242088
-0.185085
-0.131067
-3.02303
-3.0467
-2.9637
-2.79372
-2.56084
-2.28903
-2.00198
-1.7179
-1.45149
-1.21312
-1.00661
-0.835632
-0.697864
-0.590332
-0.506704
-0.442036
-0.386519
-0.334981
-0.28148
-3.21169
-3.19699
-3.08608
-2.90052
-2.6625
-2.39284
-2.11124
-1.83308
-1.57092
-1.33378
-1.12579
-0.950641
-0.807348
-0.694526
-0.608488
-0.54695
-0.503478
-0.473716
-0.45136
-3.42418
-3.3579
-3.20924
-2.99938
-2.74785
-2.47278
-2.19049
-1.91419
-1.65463
-1.41933
-1.21263
-1.03745
-0.893324
-0.778996
-0.691889
-0.629783
-0.588982
-0.567278
-0.561959
-3.66056
-3.53326
-3.34376
-3.10735
-2.83953
-2.55548
-2.269
-1.99158
-1.73263
-1.49865
-1.29382
-1.12054
-0.978348
-0.86582
-0.780337
-0.718683
-0.676523
-0.649949
-0.634506
-3.87005
-3.68937
-3.4638
-3.20327
-2.92008
-2.62697
-2.33584
-2.05667
-1.79776
-1.56477
-1.36143
-1.18982
-1.04932
-0.938385
-0.854413
-0.794095
-0.753174
-0.727793
-0.713615
-4.03195
-3.81695
-3.56554
-3.28673
-2.99147
-2.69106
-2.39608
-2.11541
-1.85651
-1.62438
-1.42243
-1.25244
-1.1137
-1.00459
-0.922571
-0.864252
-0.82546
-0.802278
-0.790355
-4.15854
-3.91793
-3.64692
-3.35405
-3.04939
-2.74323
-2.44518
-2.1633
-1.90442
-1.67302
-1.47229
-1.30377
-1.16667
-1.05931
-0.97919
-0.922829
-0.886118
-0.865078
-0.85534
-4.25058
-3.99077
-3.70485
-3.40149
-3.08997
-2.77969
-2.47949
-2.19682
-1.93804
-1.70728
-1.50756
-1.34025
-1.20451
-1.0986
-1.02003
-0.965244
-0.930153
-0.910699
-0.902466
-4.31403
-4.03321
-3.73561
-3.42544
-3.10993
-2.79747
-2.49626
-2.21333
-1.9548
-1.72455
-1.52554
-1.35904
-1.22417
-1.11918
-1.04161
-0.98787
-0.95391
-0.935652
-0.928667
-4.31405
-4.03324
-3.73566
-3.42549
-3.10999
-2.79754
-2.49633
-2.2134
-1.95487
-1.72462
-1.52561
-1.35911
-1.22423
-1.11925
-1.04168
-0.98794
-0.953983
-0.935729
-0.928747
-4.2506
-3.99084
-3.70496
-3.40163
-3.09013
-2.77987
-2.47968
-2.19701
-1.93824
-1.70748
-1.50776
-1.34045
-1.2047
-1.0988
-1.02023
-0.965453
-0.930374
-0.910935
-0.902721
-4.15858
-3.91805
-3.64709
-3.35427
-3.04964
-2.74351
-2.44548
-2.16361
-1.90474
-1.67335
-1.47261
-1.30409
-1.16699
-1.05963
-0.97951
-0.923157
-0.886461
-0.865442
-0.855731
-4.032
-3.81709
-3.56576
-3.28701
-2.9918
-2.69143
-2.39647
-2.11582
-1.85694
-1.62481
-1.42285
-1.25286
-1.11411
-1.00499
-0.922975
-0.86466
-0.82588
-0.802718
-0.790824
-3.87012
-3.68954
-3.46406
-3.2036
-2.92047
-2.62742
-2.33632
-2.05717
-1.79827
-1.56528
-1.36194
-1.19032
-1.0498
-0.938854
-0.854877
-0.794562
-0.753655
-0.728297
-0.714149
-3.66063
-3.53344
-3.34405
-3.10773
-2.83998
-2.55599
-2.26955
-1.99215
-1.73321
-1.49924
-1.29438
-1.12108
-0.978865
-0.866317
-0.780824
-0.719172
-0.677027
-0.650473
-0.635055
-3.42426
-3.35813
-3.2096
-2.99987
-2.74846
-2.47348
-2.19125
-1.91499
-1.65545
-1.42014
-1.21342
-1.03821
-0.894065
-0.779723
-0.692618
-0.630515
-0.589704
-0.567952
-0.562533
-3.21174
-3.19704
-3.08621
-2.90075
-2.66285
-2.3933
-2.1118
-1.8337
-1.57156
-1.3344
-1.12637
-0.951161
-0.807795
-0.694894
-0.608791
-0.54721
-0.503763
-0.474145
-0.452125
-3.02307
-3.04689
-2.96407
-2.7943
-2.56164
-2.29003
-2.00313
-1.71914
-1.45277
-1.21439
-1.00784
-0.836794
-0.69896
-0.591381
-0.507743
-0.443121
-0.387719
-0.336354
-0.283063
-2.84964
-2.90938
-2.84759
-2.68541
-2.45
-2.16953
-1.87199
-1.57884
-1.30677
-1.06672
-0.862068
-0.695174
-0.561948
-0.457309
-0.373496
-0.304591
-0.242706
-0.185637
-0.131438
-2.70073
-2.7944
-2.75276
-2.59736
-2.35864
-2.06952
-1.7623
-1.46174
-1.18621
-0.946752
-0.746197
-0.585159
-0.458158
-0.358893
-0.279808
-0.215767
-0.162128
-0.118837
-0.0862504
-2.56649
-2.6948
-2.67279
-2.52286
-2.27944
-1.98084
-1.66402
-1.35697
-1.07938
-0.842058
-0.64696
-0.49298
-0.373558
-0.28178
-0.210632
-0.155613
-0.11317
-0.0823492
-0.0612329
-2.43373
-2.60598
-2.60599
-2.46134
-2.21243
-1.90393
-1.5778
-1.26518
-0.986798
-0.752864
-0.564257
-0.418213
-0.307275
-0.224099
-0.161919
-0.1162
-0.083229
-0.0608438
-0.0463006
-2.32978
-2.53768
-2.55616
-2.41393
-2.15747
-1.83811
-1.50286
-1.18562
-0.90765
-0.678185
-0.496782
-0.359079
-0.256785
-0.182124
-0.128275
-0.0903671
-0.0643333
-0.0473846
-0.036739
-2.25792
-2.48931
-2.51826
-2.37351
-2.1072
-1.77685
-1.43388
-1.11407
-0.838509
-0.615013
-0.441628
-0.312498
-0.21859
-0.151727
-0.104947
-0.0730885
-0.051916
-0.03846
-0.0301596
-2.2221
-2.46595
-2.49472
-2.34047
-2.06123
-1.71981
-1.37074
-1.05047
-0.779085
-0.562584
-0.397444
-0.276504
-0.190138
-0.129882
-0.0886894
-0.0612799
-0.0434326
-0.0322074
-0.025236
-2.22876
-2.4664
-2.48136
-2.30976
-2.01497
-1.66331
-1.31062
-0.992478
-0.727135
-0.518539
-0.361675
-0.24837
-0.168613
-0.113818
-0.0769695
-0.0528203
-0.0372782
-0.0275191
-0.0211802
-2.27244
-2.48597
-2.47641
-2.28307
-1.97272
-1.61335
-1.25978
-0.945762
-0.687229
-0.486118
-0.336495
-0.229364
-0.154639
-0.103779
-0.06993
-0.047873
-0.0336905
-0.0245705
-0.01809
-2.32817
-2.50951
-2.4738
-2.26414
-1.94615
-1.58605
-1.23528
-0.925681
-0.671555
-0.473957
-0.327227
-0.222122
-0.148974
-0.0992865
-0.0663614
-0.0449239
-0.0312958
-0.0228483
-0.017917
-2.39089
-2.5407
-2.48931
-2.27869
-1.96858
-1.61925
-1.27692
-0.971466
-0.71695
-0.515389
-0.362951
-0.251424
-0.172172
-0.117174
-0.0799976
-0.0553427
-0.0396946
-0.0306281
-0.027103
-2.4546
-2.57436
-2.50874
-2.2979
-1.99581
-1.65664
-1.32195
-1.0197
-0.763968
-0.557901
-0.399283
-0.28111
-0.195657
-0.135359
-0.0940126
-0.0663256
-0.048828
-0.0390669
-0.0357653
-2.51816
-2.61303
-2.53591
-2.32619
-2.03231
-1.70255
-1.3743
-1.07395
-0.815849
-0.604368
-0.438875
-0.313551
-0.221525
-0.155668
-0.109995
-0.0791902
-0.0597783
-0.0491887
-0.0459749
-2.58829
-2.66026
-2.57241
-2.36393
-2.07732
-1.75528
-1.43164
-1.13167
-0.870164
-0.652677
-0.48003
-0.347476
-0.248901
-0.177561
-0.127675
-0.093879
-0.0726985
-0.0614486
-0.0585833
-2.67261
-2.71585
-2.61766
-2.41013
-2.12902
-1.81225
-1.49102
-1.18988
-0.924175
-0.700505
-0.520905
-0.381525
-0.276869
-0.200511
-0.146861
-0.1105
-0.0879971
-0.07658
-0.0746456
-2.74992
-2.77228
-2.66842
-2.46225
-2.18472
-1.87062
-1.5496
-1.24595
-0.97557
-0.745937
-0.560016
-0.414637
-0.304774
-0.224238
-0.167632
-0.129475
-0.106457
-0.0957532
-0.0957437
-2.82551
-2.84122
-2.73379
-2.52645
-2.24837
-1.93273
-1.60865
-1.30042
-1.02447
-0.788909
-0.597273
-0.446818
-0.332797
-0.24916
-0.190704
-0.151864
-0.129555
-0.120928
-0.124403
-2.91902
-2.92451
-2.80916
-2.59551
-2.31186
-1.99061
-1.66098
-1.34726
-1.06616
-0.825929
-0.630302
-0.476656
-0.36036
-0.275427
-0.216909
-0.179145
-0.159457
-0.155028
-0.164411
-3.02939
-3.01829
-2.89005
-2.66436
-2.36993
-2.0394
-1.70252
-1.38336
-1.09843
-0.85563
-0.658496
-0.50421
-0.388144
-0.304324
-0.248186
-0.213944
-0.199611
-0.202465
-0.221334
-3.14772
-3.12099
-2.97464
-2.73026
-2.41973
-2.07683
-1.73182
-1.40807
-1.12135
-0.878649
-0.683012
-0.531101
-0.41826
-0.338503
-0.287864
-0.260371
-0.255126
-0.269559
-0.302961
-3.28591
-3.23731
-3.06201
-2.79037
-2.45851
-2.10103
-1.74808
-1.42162
-1.136
-0.8967
-0.706145
-0.560145
-0.454089
-0.381995
-0.340814
-0.324276
-0.333102
-0.364907
-0.419655
-3.45563
-3.35867
-3.14077
-2.83458
-2.47844
-2.1068
-1.74847
-1.42315
-1.14309
-0.911639
-0.73073
-0.594994
-0.500109
-0.440171
-0.413507
-0.413368
-0.442789
-0.499526
-0.584448
-3.6057
-3.452
-3.18692
-2.84523
-2.46744
-2.08704
-1.72975
-1.41232
-1.14431
-0.926557
-0.760961
-0.640722
-0.562266
-0.51992
-0.513997
-0.537032
-0.595255
-0.68647
-0.812753
-3.7468
-3.53434
-3.21501
-2.83669
-2.44056
-2.05695
-1.7065
-1.40262
-1.15191
-0.952526
-0.807111
-0.707165
-0.650413
-0.631553
-0.653557
-0.707851
-0.804808
-0.942023
-1.12319
-3.88649
-3.57992
-3.19969
-2.79128
-2.38724
-2.0113
-1.6772
-1.39514
-1.1689
-0.994027
-0.874956
-0.801289
-0.772794
-0.784747
-0.843567
-0.939093
-1.08694
-1.28416
-1.53711
-3.93635
-3.53199
-3.1091
-2.69302
-2.30069
-1.94881
-1.64376
-1.39381
-1.20049
-1.05717
-0.971378
-0.930708
-0.937869
-0.988988
-1.09485
-1.24329
-1.4566
-1.73139
-2.07978
-3.8601
-3.39776
-2.96661
-2.5694
-2.20749
-1.89314
-1.6265
-1.41579
-1.26118
-1.15442
-1.10749
-1.10589
-1.15618
-1.25564
-1.42042
-1.63602
-1.93323
-2.30889
-2.78928
-3.60623
-3.15045
-2.75827
-2.41205
-2.10206
-1.84033
-1.62276
-1.4594
-1.35009
-1.28567
-1.28381
-1.32815
-1.43013
-1.58881
-1.82704
-2.12831
-2.53506
-3.04715
-3.72868
-3.14923
-2.79157
-2.48912
-2.22416
-1.98557
-1.78981
-1.63076
-1.5218
-1.46343
-1.44648
-1.49536
-1.59248
-1.75541
-1.98616
-2.31662
-2.73003
-3.28645
-3.99567
-5.02682
-2.50935
-2.33288
-2.16052
-2.00045
-1.84928
-1.73081
-1.63848
-1.58987
-1.58695
-1.62153
-1.72566
-1.88176
-2.11528
-2.43362
-2.88218
-3.44883
-4.2239
-5.24251
-6.97224
-1.75956
-1.79658
-1.77212
-1.73014
-1.67773
-1.64526
-1.62622
-1.64215
-1.69708
-1.7849
-1.946
-2.16474
-2.47716
-2.901
-3.50397
-4.29053
-5.40851
-6.95304
-10.2495
-1.00223
-1.21236
-1.325
-1.40212
-1.45427
-1.51342
-1.57183
-1.65381
-1.76531
-1.90352
-2.11754
-2.39572
-2.78889
-3.33479
-4.14034
-5.25427
-6.94298
-9.44406
-16.5473
-0.332963
-0.610683
-0.823846
-1.01013
-1.16749
-1.32092
-1.4579
-1.60405
-1.76517
-1.94352
-2.19643
-2.51597
-2.97578
-3.65767
-4.76353
-6.53367
-9.75449
-15.7397
-37.176
)
;

boundaryField
{
    up
    {
        type            calculated;
        value           nonuniform List<scalar> 
84
(
-33.6944
-18.2459
-11.1605
-7.52292
-5.396
-3.99365
-2.98588
-2.22667
-1.64548
-1.20166
-0.867917
-0.622009
-0.444487
-0.318816
-0.231094
-0.170182
-0.127643
-0.0974243
-0.0753885
-0.0587889
-0.0458866
-0.0355011
-0.0264571
-0.015898
-0.0150866
-0.0193844
-0.0233748
-0.0278556
-0.0336418
-0.0418946
-0.0545182
-0.0745669
-0.111972
-0.27173
-0.456874
-0.564772
-0.62912
-0.709002
-0.786811
-0.852818
-0.900651
-0.927484
-0.927567
-0.900916
-0.853223
-0.787293
-0.70955
-0.629683
-0.565254
-0.457678
-0.273525
-0.112294
-0.0747201
-0.0546516
-0.0420041
-0.0337165
-0.0279073
-0.0234144
-0.0194138
-0.0150985
-0.0158834
-0.0264569
-0.0354989
-0.0458844
-0.0587867
-0.0753865
-0.0974223
-0.12764
-0.170178
-0.231088
-0.318808
-0.444476
-0.621998
-0.867908
-1.20165
-1.64547
-2.22666
-2.98587
-3.99363
-5.39599
-7.52291
-11.1605
-18.2459
-33.6944
)
;
    }
    low
    {
        type            calculated;
        value           nonuniform List<scalar> 
84
(
-0.358154
-1.05048
-1.86126
-2.675
-3.37064
-3.85959
-4.11398
-4.16678
-4.06886
-3.87262
-3.70499
-3.53073
-3.32665
-3.17138
-3.04429
-2.91945
-2.81274
-2.73401
-2.64713
-2.53934
-2.44976
-2.36945
-2.28491
-2.20212
-2.11328
-2.05307
-2.04751
-2.10513
-2.20619
-2.34592
-2.51006
-2.66434
-2.83462
-3.0314
-3.23839
-3.47469
-3.74352
-3.97183
-4.14346
-4.27809
-4.37672
-4.45103
-4.45104
-4.37673
-4.27811
-4.14349
-3.97186
-3.74356
-3.47474
-3.23837
-3.03145
-2.8346
-2.66432
-2.51004
-2.34589
-2.20616
-2.10512
-2.04751
-2.05308
-2.11329
-2.20217
-2.2849
-2.36945
-2.44976
-2.53933
-2.64712
-2.734
-2.81273
-2.91944
-3.04428
-3.17137
-3.32665
-3.53073
-3.70499
-3.87262
-4.06886
-4.16678
-4.11398
-3.85959
-3.37064
-2.67501
-1.86127
-1.05049
-0.358156
)
;
    }
    left
    {
        type            calculated;
        value           nonuniform List<scalar> 
19
(
-0.327372
-0.601465
-0.820552
-1.01507
-1.18111
-1.34255
-1.48681
-1.64074
-1.80997
-1.99994
-2.27024
-2.61461
-3.11663
-3.87425
-5.11365
-7.13003
-10.8382
-17.8053
-34.9374
)
;
    }
    right
    {
        type            calculated;
        value           nonuniform List<scalar> 
19
(
-0.327374
-0.601468
-0.820553
-1.01507
-1.18111
-1.34255
-1.48681
-1.64074
-1.80997
-1.99994
-2.27024
-2.61461
-3.11664
-3.87426
-5.11366
-7.13005
-10.8383
-17.8053
-34.9374
)
;
    }
    frontAndBackPlanes
    {
        type            empty;
    }
}


// ************************************************************************* //
