/*--------------------------------*- C++ -*----------------------------------*\
  =========                 |
  \\      /  F ield         | OpenFOAM: The Open Source CFD Toolbox
   \\    /   O peration     | Website:  https://openfoam.org
    \\  /    A nd           | Version:  7
     \\/     M anipulation  |
\*---------------------------------------------------------------------------*/
FoamFile
{
    version     2.0;
    format      ascii;
    class       volScalarField;
    location    "0.24";
    object      gradTy;
}
// * * * * * * * * * * * * * * * * * * * * * * * * * * * * * * * * * * * * * //

dimensions      [0 -1 0 1 0 0 0];

internalField   nonuniform List<scalar> 
1596
(
-0.541186
-1.00547
-1.38658
-1.75364
-2.10714
-2.49318
-2.89268
-3.3584
-3.91156
-4.56766
-5.46853
-6.61477
-8.2019
-10.4613
-13.9701
-19.439
-29.2033
-47.2101
-111.525
-1.64851
-2.03337
-2.29618
-2.54039
-2.77848
-3.0617
-3.37441
-3.76509
-4.25388
-4.84503
-5.65672
-6.67654
-8.03517
-9.8376
-12.3797
-15.8114
-20.9116
-28.4068
-49.6793
-2.95019
-3.0799
-3.15845
-3.2539
-3.36478
-3.535
-3.74647
-4.04141
-4.43463
-4.92258
-5.60215
-6.44827
-7.55102
-8.9585
-10.8499
-13.248
-16.576
-21.1389
-30.9315
-4.31468
-4.09938
-3.95841
-3.89026
-3.8672
-3.91807
-4.02025
-4.20789
-4.49031
-4.85893
-5.39261
-6.05963
-6.92334
-8.00285
-9.41141
-11.1229
-13.3856
-16.3245
-21.3606
-5.57348
-5.03411
-4.67976
-4.45025
-4.29512
-4.22655
-4.2182
-4.29561
-4.46372
-4.71131
-5.10231
-5.60379
-6.26137
-7.08001
-8.13467
-9.3834
-10.9817
-12.9737
-15.8799
-6.57426
-5.82814
-5.30709
-4.93731
-4.6619
-4.48079
-4.36682
-4.33766
-4.39544
-4.52823
-4.78754
-5.14278
-5.62747
-6.24007
-7.03213
-7.95983
-9.12545
-10.536
-12.3899
-7.2342
-6.43746
-5.82449
-5.35247
-4.97844
-4.69846
-4.48883
-4.36144
-4.31722
-4.34505
-4.48617
-4.71425
-5.05426
-5.50207
-6.09414
-6.79024
-7.65986
-8.69368
-9.96945
-7.55222
-6.835
-6.21215
-5.68718
-5.24484
-4.88607
-4.59535
-4.38168
-4.24655
-4.1809
-4.2177
-4.33572
-4.55378
-4.86714
-5.30216
-5.82402
-6.48089
-7.25713
-8.1823
-7.59189
-7.05043
-6.48815
-5.95842
-5.47916
-5.06311
-4.70642
-4.41859
-4.20335
-4.05473
-3.99945
-4.02147
-4.13523
-4.33636
-4.64417
-5.02928
-5.52535
-6.11497
-6.8071
-7.40711
-7.05524
-6.60031
-6.11249
-5.63326
-5.1887
-4.7878
-4.44355
-4.16339
-3.94522
-3.81166
-3.75163
-3.77672
-3.88351
-4.08663
-4.36184
-4.73308
-5.18348
-5.71283
-7.17261
-6.95594
-6.60926
-6.18498
-5.73037
-5.27972
-4.85292
-4.46772
-4.13609
-3.86032
-3.66073
-3.53084
-3.48055
-3.50759
-3.62339
-3.80812
-4.07895
-4.42037
-4.82801
-6.87929
-6.80169
-6.56029
-6.20708
-5.7905
-5.34877
-4.90963
-4.49559
-4.12326
-3.79954
-3.54385
-3.35392
-3.23882
-3.19757
-3.23942
-3.34829
-3.53652
-3.79029
-4.10352
-6.51342
-6.56016
-6.42191
-6.14592
-5.77906
-5.36115
-4.92467
-4.4962
-4.09652
-3.73682
-3.43679
-3.1979
-3.02918
-2.93105
-2.91145
-2.95757
-3.07852
-3.26229
-3.50221
-6.18707
-6.30506
-6.24813
-6.04249
-5.72655
-5.33865
-4.91308
-4.4794
-4.06179
-3.67516
-3.34018
-3.06152
-2.84865
-2.70333
-2.63277
-2.62685
-2.69247
-2.8193
-3.00073
-5.88386
-6.05819
-6.06376
-5.91729
-5.64825
-5.29138
-4.88071
-4.44758
-4.01869
-3.6121
-3.24972
-2.93896
-2.68997
-2.50578
-2.39324
-2.34439
-2.36466
-2.44521
-2.57983
-5.58573
-5.8139
-5.8723
-5.77585
-5.54845
-5.22135
-4.8273
-4.39851
-3.96344
-3.54266
-3.15937
-2.82331
-2.54542
-2.32985
-2.18329
-2.0996
-2.08317
-2.12649
-2.22385
-5.3148
-5.58
-5.68128
-5.62655
-5.43481
-5.13438
-4.75651
-4.33375
-3.89577
-3.46511
-3.06619
-2.71061
-2.4101
-2.16974
-1.99616
-1.88466
-1.83896
-1.85263
-1.92049
-5.07668
-5.36758
-5.50258
-5.48189
-5.31969
-5.0416
-4.67764
-4.26046
-3.82075
-3.38266
-2.97161
-2.6008
-2.28256
-2.02271
-1.8278
-1.69426
-1.62533
-1.61551
-1.66005
-4.83741
-5.1742
-5.3447
-5.35486
-5.21801
-4.95818
-4.60496
-4.19131
-3.74899
-3.30373
-2.88188
-2.49807
-2.16508
-1.88923
-1.6769
-1.52537
-1.43754
-1.40876
-1.43472
-4.59057
-4.97983
-5.19057
-5.23226
-5.11938
-4.87596
-4.53191
-4.12093
-3.676
-3.22445
-2.79355
-2.39916
-2.05444
-1.76593
-1.53965
-1.37342
-1.27001
-1.22576
-1.23699
-4.37875
-4.80361
-5.05178
-5.124
-5.03341
-4.8042
-4.46713
-4.05709
-3.60855
-3.15052
-2.71121
-2.30764
-1.95319
-1.65439
-1.41659
-1.23759
-1.12005
-1.06167
-1.06037
-4.19072
-4.64885
-4.93154
-5.03289
-4.96334
-4.74679
-4.41505
-4.00451
-3.55135
-3.0864
-2.63886
-2.22689
-1.86407
-1.55671
-1.30913
-1.11828
-0.986001
-0.911515
-0.896731
-4.01719
-4.51267
-4.82972
-4.95931
-4.90984
-4.70489
-4.37743
-3.96553
-3.50724
-3.0352
-2.57965
-2.15987
-1.78966
-1.47522
-1.2196
-1.01787
-0.86901
-0.771192
-0.733435
-3.86279
-4.39581
-4.74485
-4.89822
-4.86371
-4.66471
-4.33656
-3.91887
-3.45203
-2.97093
-2.50561
-2.07765
-1.70074
-1.3812
-1.12056
-0.91221
-0.748864
-0.619779
-0.517006
-3.73793
-4.30574
-4.6924
-4.88246
-4.88309
-4.71526
-4.41433
-4.01813
-3.56671
-3.0957
-2.63288
-2.20232
-1.8175
-1.4874
-1.21445
-0.994682
-0.817625
-0.668627
-0.525214
-3.65154
-4.23999
-4.64802
-4.86285
-4.89096
-4.75133
-4.47756
-4.10527
-3.67268
-3.21471
-2.75676
-2.3237
-1.92935
-1.58483
-1.29507
-1.0611
-0.875145
-0.728156
-0.605278
-3.64945
-4.24123
-4.65691
-4.88527
-4.93209
-4.81569
-4.56722
-4.22048
-3.81118
-3.372
-2.92641
-2.49728
-2.0979
-1.7405
-1.43303
-1.18071
-0.979686
-0.823697
-0.699869
-3.74134
-4.31818
-4.72379
-4.94929
-5.00087
-4.89691
-4.66665
-4.34204
-3.95615
-3.53892
-3.11107
-2.69234
-2.29368
-1.9267
-1.60146
-1.32774
-1.10669
-0.935572
-0.802811
-3.91734
-4.46889
-4.84958
-5.05797
-5.10218
-5.00114
-4.78264
-4.47678
-4.11394
-3.72129
-3.31636
-2.91519
-2.52468
-2.15345
-1.81147
-1.51286
-1.26525
-1.07185
-0.923125
-4.17248
-4.68029
-5.02204
-5.20186
-5.22946
-5.12423
-4.91283
-4.62339
-4.28372
-3.91847
-3.54211
-3.16724
-2.79566
-2.43033
-2.07715
-1.75216
-1.47013
-1.24448
-1.07104
-4.50281
-4.9492
-5.24309
-5.38687
-5.39151
-5.2769
-5.06883
-4.7934
-4.47602
-4.13937
-3.79557
-3.45516
-3.1153
-2.77175
-2.421
-2.07458
-1.75027
-1.47631
-1.26265
-4.86094
-5.25444
-5.49882
-5.60267
-5.58067
-5.45362
-5.24658
-4.98345
-4.68737
-4.37951
-4.07061
-3.7715
-3.47749
-3.17891
-2.85941
-2.51655
-2.15578
-1.81339
-1.52818
-5.27003
-5.60331
-5.79151
-5.85012
-5.79746
-5.65491
-5.44636
-5.19319
-4.91601
-4.6346
-4.35883
-4.10197
-3.86193
-3.63059
-3.38378
-3.10371
-2.76208
-2.36765
-1.93608
-5.7481
-6.00819
-6.13338
-6.14362
-6.05973
-5.90289
-5.69481
-5.45401
-5.19818
-4.94509
-4.70435
-4.4913
-4.31009
-4.16299
-4.03511
-3.91415
-3.75562
-3.53456
-3.2214
-6.27997
-6.45509
-6.50133
-6.44748
-6.31648
-6.12899
-5.90329
-5.65514
-5.39883
-5.14794
-4.91142
-4.70128
-4.52416
-4.38805
-4.29473
-4.25273
-4.2499
-4.27514
-4.30426
-6.88133
-6.94071
-6.89057
-6.7621
-6.57645
-6.35208
-6.10339
-5.84376
-5.58471
-5.33612
-5.10694
-4.90467
-4.73483
-4.60199
-4.50965
-4.46207
-4.46272
-4.51674
-4.63018
-7.54515
-7.46222
-7.31004
-7.10852
-6.87209
-6.61449
-6.34635
-6.07832
-5.81954
-5.57752
-5.35991
-5.17148
-5.01563
-4.89355
-4.80499
-4.74586
-4.71206
-4.69624
-4.69162
-8.15598
-7.93757
-7.68933
-7.41874
-7.13359
-6.84265
-6.55335
-6.27332
-6.00942
-5.76711
-5.55188
-5.36691
-5.21375
-5.09211
-5.00055
-4.93504
-4.89159
-4.86486
-4.84981
-8.65495
-8.33764
-8.01406
-7.68756
-7.36238
-7.04385
-6.73683
-6.44651
-6.17786
-5.9347
-5.72097
-5.53884
-5.38879
-5.26998
-5.18062
-5.11692
-5.07491
-5.04977
-5.0366
-9.05437
-8.65861
-8.27534
-7.9046
-7.54779
-7.20743
-6.88633
-6.58768
-6.31502
-6.07093
-5.85826
-5.6785
-5.53149
-5.41602
-5.33006
-5.26989
-5.23145
-5.2101
-5.20097
-9.34492
-8.88995
-8.46162
-8.05828
-7.67868
-7.32289
-6.99194
-6.68755
-6.41217
-6.16758
-5.95587
-5.77815
-5.6338
-5.52139
-5.43865
-5.38181
-5.34653
-5.32812
-5.32154
-9.53164
-9.02136
-8.56104
-8.13785
-7.74556
-7.38161
-7.04567
-6.73848
-6.4619
-6.21726
-6.00629
-5.8299
-5.68729
-5.57697
-5.49662
-5.44257
-5.41046
-5.39563
-5.39302
-9.53168
-9.02145
-8.56115
-8.13797
-7.74568
-7.38174
-7.0458
-6.73861
-6.46204
-6.2174
-6.00643
-5.83004
-5.68745
-5.57713
-5.49679
-5.44275
-5.41064
-5.39582
-5.39322
-9.345
-8.89013
-8.46186
-8.05856
-7.67899
-7.32322
-6.99229
-6.68791
-6.41254
-6.16797
-5.95627
-5.77857
-5.63424
-5.52186
-5.43915
-5.38234
-5.34711
-5.32875
-5.32224
-9.05449
-8.65889
-8.27572
-7.90505
-7.54829
-7.20796
-6.88688
-6.58826
-6.31562
-6.07156
-5.85891
-5.67918
-5.5322
-5.41677
-5.33085
-5.27074
-5.23236
-5.21107
-5.20201
-8.6551
-8.33799
-8.01455
-7.68813
-7.36301
-7.04452
-6.73754
-6.44725
-6.17863
-5.93551
-5.72181
-5.5397
-5.38969
-5.27092
-5.1816
-5.11793
-5.07597
-5.05089
-5.03777
-8.15615
-7.93796
-7.68988
-7.4194
-7.13432
-6.84344
-6.55419
-6.2742
-6.01034
-5.76807
-5.55288
-5.36795
-5.21481
-5.0932
-5.00169
-4.9362
-4.89278
-4.86609
-4.85108
-7.54534
-7.46265
-7.31063
-7.10924
-6.8729
-6.61536
-6.34728
-6.07931
-5.82058
-5.5786
-5.36103
-5.17264
-5.01681
-4.89474
-4.80618
-4.74701
-4.71315
-4.69726
-4.69257
-6.88154
-6.94119
-6.89129
-6.76303
-6.57755
-6.35335
-6.1048
-5.84532
-5.58642
-5.33798
-5.10897
-4.90687
-4.73722
-4.60457
-4.5124
-4.46484
-4.4653
-4.51869
-4.63089
-6.2801
-6.45518
-6.50144
-6.44763
-6.31667
-6.12921
-5.90352
-5.65536
-5.39902
-5.14804
-4.9114
-4.70105
-4.52364
-4.38714
-4.29341
-4.25107
-4.24842
-4.27481
-4.30662
-5.74817
-6.00845
-6.13386
-6.14435
-6.06073
-5.90418
-5.69639
-5.45586
-5.20028
-4.94743
-4.70693
-4.49412
-4.31321
-4.16658
-4.03947
-3.91977
-3.76309
-3.54443
-3.23395
-5.27005
-5.60335
-5.79166
-5.85043
-5.79795
-5.6556
-5.44726
-5.19428
-4.91728
-4.63604
-4.36043
-4.10376
-3.86399
-3.63305
-3.38678
-3.10736
-2.76621
-2.37175
-1.93916
-4.86095
-5.25445
-5.49891
-5.60292
-5.58111
-5.45428
-5.24746
-4.98454
-4.68866
-4.38099
-4.07228
-3.77339
-3.47964
-3.18139
-2.8622
-2.51953
-2.15867
-1.81586
-1.53013
-4.5028
-4.94917
-5.24312
-5.38704
-5.39187
-5.27747
-5.06963
-4.79441
-4.47724
-4.14079
-3.79717
-3.45696
-3.1173
-2.77394
-2.42329
-2.07682
-1.75228
-1.478
-1.26403
-4.17247
-4.68023
-5.02203
-5.20197
-5.22974
-5.12472
-4.91355
-4.62433
-4.28486
-3.91979
-3.5436
-3.16889
-2.79744
-2.43218
-2.07898
-1.75385
-1.47161
-1.24573
-1.07211
-3.91731
-4.4688
-4.84952
-5.05802
-5.1024
-5.00156
-4.78328
-4.47763
-4.11498
-3.7225
-3.31771
-2.91666
-2.52622
-2.15499
-1.81294
-1.51418
-1.2664
-1.07284
-0.924001
-3.74131
-4.31809
-4.72371
-4.94931
-5.00104
-4.89727
-4.66721
-4.3428
-3.95709
-3.54001
-3.11227
-2.69362
-2.29499
-1.92797
-1.60265
-1.3288
-1.10761
-0.936387
-0.803571
-3.64942
-4.24113
-4.65682
-4.88526
-4.93222
-4.81599
-4.56771
-4.22115
-3.81201
-3.37296
-2.92746
-2.49838
-2.099
-1.74155
-1.43399
-1.18157
-0.98045
-0.824403
-0.700579
-3.6515
-4.23988
-4.6479
-4.86278
-4.89099
-4.75148
-4.47786
-4.1057
-3.67324
-3.21537
-2.75747
-2.32444
-1.93007
-1.58551
-1.29567
-1.06163
-0.875626
-0.728653
-0.60592
-3.73801
-4.30579
-4.69246
-4.88255
-4.88324
-4.71549
-4.41464
-4.01854
-3.5672
-3.09626
-2.63349
-2.20298
-1.81817
-1.48807
-1.21509
-0.9953
-0.818201
-0.669146
-0.525631
-3.86288
-4.39589
-4.7449
-4.89823
-4.86366
-4.66459
-4.33639
-3.91864
-3.45176
-2.97065
-2.50532
-2.07736
-1.70046
-1.38094
-1.12032
-0.91198
-0.748633
-0.619531
-0.516705
-4.01725
-4.51272
-4.82977
-4.95934
-4.90986
-4.7049
-4.37743
-3.96552
-3.50723
-3.03519
-2.57964
-2.15987
-1.78967
-1.47524
-1.21962
-1.01789
-0.86904
-0.771231
-0.733474
-4.19076
-4.64888
-4.93156
-5.0329
-4.96333
-4.74677
-4.41502
-4.00447
-3.55132
-3.08636
-2.63883
-2.22688
-1.86406
-1.55671
-1.30913
-1.1183
-0.986022
-0.911541
-0.896757
-4.37878
-4.80364
-5.05179
-5.12401
-5.0334
-4.80419
-4.46711
-4.05707
-3.60852
-3.15049
-2.71119
-2.30763
-1.95319
-1.6544
-1.41659
-1.23761
-1.12006
-1.06169
-1.06038
-4.5906
-4.97985
-5.19058
-5.23226
-5.11937
-4.87594
-4.53189
-4.12091
-3.67598
-3.22444
-2.79353
-2.39916
-2.05444
-1.76593
-1.53966
-1.37343
-1.27002
-1.22577
-1.237
-4.83743
-5.17422
-5.3447
-5.35486
-5.218
-4.95816
-4.60495
-4.1913
-3.74897
-3.30372
-2.88187
-2.49806
-2.16508
-1.88924
-1.67691
-1.52538
-1.43755
-1.40877
-1.43472
-5.07669
-5.36759
-5.50257
-5.48188
-5.31968
-5.04158
-4.67762
-4.26045
-3.82074
-3.38266
-2.97161
-2.6008
-2.28256
-2.02271
-1.8278
-1.69427
-1.62534
-1.61551
-1.66006
-5.31481
-5.58
-5.68127
-5.62654
-5.4348
-5.13437
-4.75651
-4.33374
-3.89576
-3.46511
-3.06619
-2.71061
-2.4101
-2.16974
-1.99616
-1.88467
-1.83896
-1.85263
-1.92049
-5.58573
-5.8139
-5.87229
-5.77584
-5.54845
-5.22134
-4.8273
-4.3985
-3.96343
-3.54265
-3.15937
-2.82331
-2.54542
-2.32985
-2.18329
-2.0996
-2.08317
-2.12648
-2.22385
-5.88385
-6.05818
-6.06376
-5.91728
-5.64825
-5.29137
-4.8807
-4.44758
-4.01869
-3.6121
-3.24972
-2.93896
-2.68997
-2.50578
-2.39324
-2.34439
-2.36465
-2.4452
-2.57983
-6.18706
-6.30505
-6.24812
-6.04249
-5.72655
-5.33865
-4.91308
-4.4794
-4.06179
-3.67516
-3.34018
-3.06152
-2.84865
-2.70332
-2.63277
-2.62684
-2.69245
-2.81928
-3.00072
-6.51341
-6.56015
-6.42191
-6.14593
-5.77906
-5.36116
-4.92468
-4.4962
-4.09652
-3.73682
-3.43679
-3.1979
-3.02918
-2.93105
-2.91144
-2.95756
-3.0785
-3.26227
-3.5022
-6.87927
-6.80168
-6.56029
-6.20708
-5.7905
-5.34877
-4.90964
-4.49559
-4.12326
-3.79954
-3.54385
-3.35392
-3.23881
-3.19757
-3.23941
-3.34828
-3.5365
-3.79027
-4.10351
-7.17258
-6.95594
-6.60927
-6.18499
-5.73038
-5.27973
-4.85293
-4.46773
-4.13609
-3.86032
-3.66073
-3.53084
-3.48055
-3.50759
-3.62338
-3.80811
-4.07893
-4.42035
-4.828
-7.4071
-7.05524
-6.60032
-6.1125
-5.63327
-5.18871
-4.7878
-4.44356
-4.1634
-3.94522
-3.81166
-3.75162
-3.77672
-3.8835
-4.08662
-4.36182
-4.73306
-5.18346
-5.71282
-7.59189
-7.05045
-6.48817
-5.95843
-5.47918
-5.06312
-4.70642
-4.41859
-4.20335
-4.05473
-3.99945
-4.02147
-4.13523
-4.33635
-4.64416
-5.02926
-5.52533
-6.11495
-6.8071
-7.55223
-6.83503
-6.21217
-5.68719
-5.24485
-4.88608
-4.59536
-4.38169
-4.24655
-4.1809
-4.2177
-4.33572
-4.55377
-4.86713
-5.30215
-5.824
-6.48088
-7.25713
-8.18231
-7.23423
-6.43748
-5.82451
-5.35248
-4.97845
-4.69847
-4.48883
-4.36145
-4.31722
-4.34505
-4.48617
-4.71425
-5.05426
-5.50206
-6.09413
-6.79023
-7.65986
-8.69368
-9.96947
-6.5743
-5.82816
-5.30711
-4.93733
-4.66191
-4.4808
-4.36682
-4.33767
-4.39544
-4.52823
-4.78754
-5.14278
-5.62746
-6.24006
-7.03212
-7.95982
-9.12545
-10.536
-12.3899
-5.57352
-5.03413
-4.67977
-4.45026
-4.29513
-4.22656
-4.21821
-4.29562
-4.46372
-4.71132
-5.1023
-5.60378
-6.26137
-7.08
-8.13466
-9.3834
-10.9818
-12.9737
-15.88
-4.3147
-4.0994
-3.95842
-3.89027
-3.86721
-3.91808
-4.02026
-4.2079
-4.49032
-4.85894
-5.39261
-6.05963
-6.92334
-8.00284
-9.41141
-11.1229
-13.3856
-16.3245
-21.3606
-2.95021
-3.07991
-3.15846
-3.25391
-3.36479
-3.53501
-3.74648
-4.04141
-4.43463
-4.92259
-5.60215
-6.44827
-7.55101
-8.95849
-10.8499
-13.248
-16.576
-21.1389
-30.9315
-1.64852
-2.03337
-2.29618
-2.54039
-2.77849
-3.0617
-3.37441
-3.76509
-4.25389
-4.84503
-5.65672
-6.67653
-8.03516
-9.83759
-12.3797
-15.8114
-20.9116
-28.4068
-49.6793
-0.541189
-1.00548
-1.38658
-1.75364
-2.10714
-2.49318
-2.89268
-3.3584
-3.91156
-4.56766
-5.46853
-6.61476
-8.20189
-10.4613
-13.9701
-19.439
-29.2033
-47.2101
-111.525
)
;

boundaryField
{
    up
    {
        type            calculated;
        value           nonuniform List<scalar> 
84
(
-101.063
-54.7356
-33.5929
-22.9158
-16.8797
-13.0821
-10.4749
-8.56518
-7.1029
-5.94522
-5.0111
-4.24751
-3.61561
-3.08944
-2.64867
-2.27683
-1.96085
-1.69038
-1.45707
-1.2532
-1.07175
-0.903238
-0.726527
-0.464201
-0.449449
-0.569541
-0.664417
-0.764166
-0.879089
-1.01891
-1.19622
-1.42706
-1.77944
-3.19545
-4.43032
-4.70867
-4.68621
-4.84263
-5.03129
-5.1982
-5.32039
-5.39423
-5.39442
-5.32112
-5.19928
-5.03248
-4.84393
-4.68715
-4.70833
-4.4329
-3.21011
-1.78231
-1.42879
-1.19752
-1.01993
-0.879943
-0.764919
-0.665134
-0.570401
-0.449991
-0.463876
-0.726563
-0.903261
-1.07177
-1.25321
-1.45707
-1.69039
-1.96085
-2.27683
-2.64866
-3.08943
-3.61561
-4.24751
-5.0111
-5.94523
-7.10292
-8.5652
-10.4749
-13.0822
-16.8797
-22.9158
-33.5929
-54.7355
-101.063
)
;
    }
    low
    {
        type            calculated;
        value           nonuniform List<scalar> 
84
(
-0.580628
-1.72211
-3.11042
-4.58523
-5.94876
-7.02035
-7.69782
-7.98607
-7.94069
-7.64534
-7.35215
-7.00162
-6.55771
-6.18807
-5.85972
-5.52752
-5.22698
-4.98001
-4.72279
-4.43538
-4.19241
-3.98043
-3.77777
-3.59612
-3.42316
-3.31605
-3.31814
-3.444
-3.66392
-3.97466
-4.35434
-4.74539
-5.19303
-5.71647
-6.2862
-6.9384
-7.67334
-8.3302
-8.85745
-9.28093
-9.5909
-9.80404
-9.80408
-9.59093
-9.28099
-8.85753
-8.33029
-7.67344
-6.93852
-6.28617
-5.71654
-5.19299
-4.74537
-4.35432
-3.97464
-3.6639
-3.444
-3.31815
-3.31608
-3.42321
-3.59623
-3.7778
-3.98047
-4.19244
-4.4354
-4.72281
-4.98002
-5.22699
-5.52752
-5.85971
-6.18806
-6.55769
-7.00159
-7.35211
-7.64532
-7.94068
-7.98608
-7.69785
-7.02039
-5.9488
-4.58527
-3.11045
-1.72212
-0.580632
)
;
    }
    left
    {
        type            calculated;
        value           nonuniform List<scalar> 
19
(
-0.530802
-0.986459
-1.37479
-1.75368
-2.12154
-2.52297
-2.93985
-3.42769
-4.00854
-4.70615
-5.66917
-6.90485
-8.63533
-11.1376
-15.0593
-21.2715
-32.4931
-53.4326
-104.824
)
;
    }
    right
    {
        type            calculated;
        value           nonuniform List<scalar> 
19
(
-0.530805
-0.986461
-1.37479
-1.75368
-2.12154
-2.52297
-2.93985
-3.42769
-4.00854
-4.70615
-5.66916
-6.90484
-8.63532
-11.1376
-15.0593
-21.2715
-32.4931
-53.4326
-104.824
)
;
    }
    frontAndBackPlanes
    {
        type            empty;
    }
}


// ************************************************************************* //
