/*--------------------------------*- C++ -*----------------------------------*\
  =========                 |
  \\      /  F ield         | OpenFOAM: The Open Source CFD Toolbox
   \\    /   O peration     | Website:  https://openfoam.org
    \\  /    A nd           | Version:  7
     \\/     M anipulation  |
\*---------------------------------------------------------------------------*/
FoamFile
{
    version     2.0;
    format      ascii;
    class       volScalarField;
    location    "0.24";
    object      T;
}
// * * * * * * * * * * * * * * * * * * * * * * * * * * * * * * * * * * * * * //

dimensions      [0 0 0 1 0 0 0];

internalField   nonuniform List<scalar> 
1596
(
5.98366
5.93682
5.889
5.84391
5.80253
5.76445
5.72887
5.69392
5.65824
5.61863
5.57259
5.51671
5.44351
5.34264
5.19813
4.97448
4.60561
3.9595
2.7715
5.92936
5.78361
5.64643
5.52084
5.40688
5.30273
5.20601
5.11277
5.01958
4.92043
4.81025
4.68283
4.52698
4.32906
4.07225
3.72496
3.23848
2.52907
1.43828
5.86519
5.62016
5.40034
5.2034
5.02663
4.86648
4.71914
4.57941
4.44261
4.30163
4.15039
3.98187
3.78476
3.54624
3.25237
2.87943
2.39506
1.74966
0.850857
5.80188
5.46398
5.16966
4.91004
4.67921
4.4719
4.2831
4.10687
3.93784
3.76857
3.59278
3.40341
3.19004
2.94152
2.64683
2.28857
1.84555
1.28867
0.564219
5.7494
5.33126
4.97175
4.65738
4.37975
4.13224
3.90897
3.70357
3.51035
3.32187
3.1319
2.93364
2.71758
2.47406
2.19415
1.86472
1.47135
0.996526
0.408325
5.71418
5.23299
4.8185
4.45654
4.13778
3.85502
3.60192
3.37197
3.15936
2.95678
2.75817
2.55695
2.34437
2.11183
1.85173
1.55359
1.20692
0.800552
0.31465
5.69708
5.17214
4.71358
4.31075
3.95544
3.64083
3.36069
3.10862
2.87891
2.66445
2.45936
2.25726
2.04995
1.82952
1.58917
1.31998
1.01372
0.662606
0.2535
5.69426
5.14412
4.65271
4.21576
3.82804
3.48419
3.17869
2.90564
2.65958
2.43372
2.22239
2.01935
1.81681
1.60732
1.3845
1.14039
0.867967
0.561247
0.210799
5.702
5.14249
4.62886
4.16442
3.74825
3.37741
3.04772
2.75413
2.49168
2.25401
2.03568
1.83061
1.63132
1.43066
1.22246
0.999312
0.754861
0.484011
0.179377
5.71238
5.1539
4.6274
4.1423
3.70223
3.30721
2.95495
2.64157
2.36288
2.11307
1.88699
1.67878
1.48121
1.28733
1.09108
0.885363
0.664173
0.422817
0.155073
5.7207
5.16759
4.63495
4.13546
3.67637
3.26065
2.88812
2.55636
2.26216
2.00036
1.76624
1.55416
1.35714
1.16841
0.981939
0.790845
0.589278
0.372689
0.135493
5.73103
5.18603
4.65114
4.14142
3.66695
3.23332
2.84247
2.49355
2.18447
1.91082
1.66838
1.45178
1.25426
1.06921
0.890627
0.711719
0.526703
0.331016
0.119399
5.7408
5.20521
4.67055
4.15364
3.66676
3.21777
2.8106
2.44597
2.12295
1.83798
1.58734
1.36598
1.16738
0.985021
0.812921
0.644337
0.47348
0.295694
0.105877
5.74674
5.219
4.6857
4.16389
3.66729
3.20556
2.78437
2.40595
2.07049
1.77529
1.51716
1.29139
1.09167
0.91159
0.745157
0.585648
0.427231
0.265121
0.0942655
5.75169
5.2298
4.69751
4.17173
3.66701
3.19438
2.76099
2.3704
2.0239
1.71959
1.45481
1.22515
1.02449
0.846537
0.68525
0.533899
0.386587
0.238371
0.0841845
5.75648
5.23921
4.70715
4.17743
3.66531
3.18288
2.73856
2.3371
1.98077
1.6684
1.39782
1.16489
0.963668
0.787889
0.631474
0.48765
0.35043
0.214701
0.0753381
5.75969
5.2456
4.71295
4.1791
3.65994
3.16852
2.71435
2.30322
1.93827
1.61899
1.34362
1.10825
0.907026
0.733721
0.582173
0.445541
0.317726
0.193436
0.0674658
5.76189
5.24957
4.71548
4.17709
3.65091
3.15093
2.68763
2.26776
1.8952
1.57003
1.29083
1.05381
0.853219
0.682774
0.536215
0.406611
0.287728
0.174087
0.0603747
5.76634
5.25628
4.72023
4.17662
3.64288
3.134
2.66148
2.23301
1.85316
1.52252
1.23993
1.0017
0.802054
0.634653
0.493095
0.370334
0.25998
0.156334
0.0539388
5.7719
5.26533
4.72746
4.17826
3.63646
3.11825
2.63625
2.19909
1.81204
1.47614
1.19044
0.95126
0.752779
0.588532
0.451965
0.33591
0.233817
0.139738
0.048003
5.77611
5.27319
4.73387
4.17921
3.62932
3.10175
2.61032
2.16463
1.77063
1.42979
1.14131
0.901477
0.704375
0.543382
0.411787
0.302339
0.208374
0.123715
0.0423695
5.78042
5.28118
4.74065
4.1807
3.62277
3.08581
2.58491
2.13068
1.72976
1.38403
1.09282
0.852349
0.656565
0.498664
0.371783
0.268642
0.182611
0.107433
0.0367427
5.7855
5.29046
4.74898
4.18392
3.61802
3.07164
2.56119
2.0983
1.69029
1.33947
1.04526
0.803837
0.608985
0.453696
0.330937
0.233448
0.15483
0.0891963
0.0303069
5.79094
5.3005
4.75829
4.18829
3.61459
3.05895
2.53904
2.06748
1.65224
1.296
0.998345
0.755384
0.560796
0.407355
0.287809
0.194855
0.122422
0.0655241
0.0197734
5.79967
5.32214
4.78913
4.22468
3.65313
3.09665
2.57341
2.09665
1.67495
1.31159
1.0068
0.757292
0.557208
0.399609
0.277353
0.183079
0.110754
0.0557689
0.0147906
5.80933
5.35019
4.83439
4.28493
3.72512
3.17639
2.6566
2.17903
1.75267
1.38162
1.06701
0.806737
0.596041
0.42889
0.298673
0.198136
0.120953
0.0620026
0.0172216
5.81422
5.36715
4.86473
4.32862
3.78083
3.24159
2.72793
2.25267
1.82477
1.44868
1.12622
0.856317
0.635384
0.458507
0.319904
0.212655
0.130312
0.0673504
0.0191242
5.8144
5.37259
4.87919
4.35438
3.81853
3.29028
2.78534
2.31557
1.88942
1.51127
1.18332
0.905327
0.674823
0.488194
0.340826
0.226452
0.138725
0.0718102
0.0205527
5.81153
5.3699
4.88224
4.36723
3.84334
3.32735
2.83325
2.37162
1.95
1.5724
1.24108
0.956334
0.716707
0.51996
0.362979
0.240594
0.146895
0.0758415
0.0217232
5.80596
5.36128
4.87765
4.37187
3.86037
3.35782
2.87634
2.42499
2.01023
1.63542
1.30264
1.01242
0.764041
0.556534
0.388531
0.256512
0.155597
0.0798125
0.0227717
5.79896
5.35042
4.87058
4.37427
3.87578
3.38769
2.92018
2.48072
2.07461
1.70446
1.37196
1.07762
0.821008
0.602078
0.421141
0.276816
0.1662
0.0842022
0.0238082
5.79372
5.34261
4.86727
4.38097
3.89606
3.42309
2.97038
2.54385
2.14771
1.7838
1.45334
1.15657
0.89293
0.662595
0.466957
0.306722
0.181913
0.0900679
0.0248461
5.78894
5.33627
4.86646
4.39119
3.92083
3.46397
3.02716
2.61491
2.2304
1.87479
1.54887
1.25256
0.984819
0.74536
0.535467
0.356718
0.211718
0.102217
0.0259794
5.78445
5.33151
4.86865
4.40575
3.9512
3.51163
3.09197
2.69546
2.32442
1.97946
1.66112
1.36912
1.10207
0.858933
0.639922
0.445527
0.278176
0.141891
0.038634
5.7791
5.32421
4.86616
4.41321
3.9719
3.54718
3.14254
2.76017
2.40166
2.06722
1.75722
1.47141
1.20837
0.966806
0.74601
0.54467
0.362499
0.201124
0.061939
5.76929
5.30399
4.84245
4.39111
3.95481
3.53708
3.14025
2.76561
2.41414
2.08561
1.7802
1.49762
1.23654
0.995825
0.775019
0.572741
0.388207
0.22154
0.0715894
5.75626
5.27543
4.80564
4.35111
3.91502
3.49959
3.10617
2.73527
2.38733
2.0617
1.7584
1.47711
1.21656
0.975895
0.755134
0.553498
0.371036
0.208792
0.0662534
5.74546
5.25191
4.77545
4.31842
3.88258
3.46912
3.07855
2.71078
2.36584
2.04279
1.74156
1.46183
1.20245
0.962746
0.74303
0.542782
0.362308
0.202875
0.0640593
5.73791
5.23489
4.75326
4.29416
3.85837
3.44628
3.05779
2.69234
2.34966
2.02862
1.72906
1.45068
1.19239
0.953639
0.734898
0.535783
0.356741
0.199188
0.0627639
5.73222
5.22205
4.7365
4.27582
3.84003
3.42894
3.04198
2.67826
2.33729
2.01778
1.71952
1.44224
1.18486
0.946897
0.728947
0.530708
0.352727
0.196543
0.0618523
5.72806
5.21267
4.72432
4.26254
3.82678
3.41641
3.03054
2.66804
2.32828
2.00986
1.71255
1.43607
1.17936
0.941988
0.724615
0.527007
0.349785
0.19459
0.0611711
5.72455
5.20574
4.7159
4.25372
3.81821
3.40844
3.02336
2.66169
2.32274
2.00506
1.7084
1.43248
1.17626
0.939306
0.722332
0.525123
0.348335
0.193654
0.0608603
5.72456
5.20576
4.71593
4.25376
3.81825
3.40848
3.0234
2.66173
2.32278
2.0051
1.70843
1.43251
1.17629
0.939333
0.722354
0.52514
0.348347
0.193662
0.0608628
5.72808
5.21273
4.72441
4.26265
3.8269
3.41653
3.03067
2.66817
2.3284
2.00998
1.71266
1.43617
1.17945
0.94207
0.724685
0.527062
0.349826
0.194615
0.0611798
5.73226
5.22215
4.73664
4.27599
3.84022
3.42914
3.04218
2.67846
2.33749
2.01797
1.7197
1.44241
1.18501
0.947026
0.729054
0.530793
0.352788
0.19658
0.0618649
5.73797
5.23502
4.75345
4.29438
3.85862
3.44654
3.05806
2.69261
2.34992
2.02887
1.72929
1.4509
1.19259
0.953806
0.735036
0.535892
0.356819
0.199234
0.0627797
5.74552
5.25207
4.77568
4.31869
3.88289
3.46944
3.07889
2.71111
2.36616
2.0431
1.74185
1.4621
1.20268
0.962946
0.743195
0.54291
0.362399
0.202929
0.0640773
5.75633
5.27561
4.8059
4.35142
3.91537
3.49997
3.10656
2.73565
2.3877
2.06206
1.75873
1.47741
1.21682
0.976114
0.75531
0.55363
0.371125
0.208841
0.0662681
5.76937
5.30419
4.84274
4.39146
3.9552
3.5375
3.14068
2.76604
2.41456
2.086
1.78056
1.49794
1.2368
0.996033
0.775168
0.572831
0.388247
0.221547
0.071585
5.77919
5.32449
4.86662
4.41381
3.97262
3.548
3.14343
2.76111
2.40264
2.06822
1.75822
1.4724
1.20934
0.967744
0.746911
0.545515
0.363243
0.201682
0.0621789
5.78456
5.33185
4.8692
4.40648
3.95208
3.51265
3.09309
2.69666
2.32567
1.98075
1.66241
1.3704
1.10332
0.860136
0.64104
0.446512
0.278959
0.142401
0.038818
5.78904
5.33656
4.86693
4.39182
3.92161
3.46487
3.02814
2.61595
2.23147
1.87587
1.54995
1.2536
0.9858
0.746251
0.536231
0.357315
0.212115
0.102415
0.0260183
5.79381
5.34287
4.86771
4.38157
3.8968
3.42394
2.9713
2.54483
2.14871
1.7848
1.45431
1.15748
0.893758
0.663312
0.467533
0.307137
0.18217
0.0901914
0.0248778
5.79903
5.35066
4.87099
4.37483
3.87647
3.38848
2.92105
2.48163
2.07553
1.70537
1.37283
1.07841
0.821711
0.602663
0.421592
0.277131
0.166393
0.0842994
0.0238355
5.80602
5.3615
4.87802
4.37239
3.86101
3.35856
2.87715
2.42584
2.01108
1.63625
1.30341
1.01312
0.764642
0.557021
0.388899
0.256767
0.155756
0.0798954
0.022796
5.81159
5.37009
4.88258
4.3677
3.84394
3.32803
2.834
2.37239
1.95077
1.57314
1.24177
0.956946
0.717225
0.520373
0.363289
0.24081
0.147032
0.0759151
0.0217457
5.81445
5.37276
4.87949
4.35481
3.81906
3.2909
2.78601
2.31628
1.89012
1.51193
1.18393
0.905862
0.675271
0.48855
0.341094
0.226641
0.138847
0.0718779
0.0205744
5.81426
5.3673
4.86499
4.329
3.7813
3.24215
2.72854
2.2533
1.8254
1.44927
1.12676
0.856786
0.635775
0.458818
0.32014
0.212824
0.130425
0.0674158
0.0191466
5.80937
5.35031
4.83462
4.28526
3.72554
3.17688
2.65714
2.17958
1.75322
1.38214
1.06748
0.807148
0.596385
0.429166
0.298885
0.198293
0.121062
0.0620692
0.0172467
5.79967
5.32216
4.78918
4.22477
3.65324
3.09678
2.57356
2.09682
1.67511
1.31174
1.00693
0.757405
0.557296
0.399671
0.277392
0.183098
0.110758
0.0557643
0.0147855
5.79092
5.30046
4.75823
4.18821
3.61449
3.05885
2.53893
2.06737
1.65213
1.29591
0.998257
0.755305
0.560725
0.407292
0.287753
0.194806
0.122381
0.065494
0.0197592
5.78549
5.29045
4.74897
4.1839
3.618
3.07163
2.56118
2.09829
1.69029
1.33948
1.04527
0.803848
0.608998
0.453709
0.33095
0.233459
0.154839
0.089202
0.0303084
5.78042
5.28118
4.74064
4.18069
3.62276
3.0858
2.5849
2.13068
1.72976
1.38404
1.09282
0.852359
0.656576
0.498675
0.371793
0.268651
0.182617
0.107437
0.0367437
5.77611
5.27319
4.73386
4.1792
3.62931
3.10174
2.61032
2.16463
1.77063
1.4298
1.14132
0.901486
0.704384
0.543391
0.411795
0.302345
0.208379
0.123718
0.0423702
5.77189
5.26533
4.72746
4.17826
3.63645
3.11824
2.63625
2.19909
1.81204
1.47615
1.19045
0.951267
0.752786
0.588539
0.451971
0.335915
0.23382
0.13974
0.0480035
5.76634
5.25627
4.72023
4.17662
3.64288
3.134
2.66148
2.23301
1.85316
1.52253
1.23994
1.0017
0.80206
0.634658
0.4931
0.370337
0.259982
0.156335
0.0539392
5.76189
5.24957
4.71548
4.17709
3.65091
3.15093
2.68763
2.26776
1.8952
1.57004
1.29083
1.05382
0.853223
0.682778
0.536218
0.406613
0.287729
0.174087
0.0603749
5.75969
5.24559
4.71295
4.1791
3.65994
3.16852
2.71435
2.30323
1.93827
1.61899
1.34363
1.10825
0.907029
0.733724
0.582175
0.445542
0.317726
0.193437
0.0674659
5.75648
5.23921
4.70715
4.17743
3.66531
3.18288
2.73856
2.33711
1.98077
1.6684
1.39782
1.1649
0.96367
0.78789
0.631475
0.487651
0.35043
0.214701
0.0753381
5.75169
5.2298
4.69751
4.17173
3.66702
3.19439
2.76099
2.37041
2.02391
1.71959
1.45481
1.22515
1.02449
0.846537
0.68525
0.533899
0.386586
0.23837
0.0841844
5.74674
5.219
4.6857
4.16389
3.66729
3.20556
2.78438
2.40595
2.07049
1.77529
1.51716
1.29139
1.09167
0.911589
0.745156
0.585646
0.42723
0.26512
0.0942654
5.7408
5.20521
4.67056
4.15364
3.66676
3.21777
2.8106
2.44597
2.12295
1.83798
1.58734
1.36598
1.16737
0.985018
0.812919
0.644335
0.473478
0.295693
0.105876
5.73103
5.18603
4.65114
4.14142
3.66695
3.23332
2.84247
2.49355
2.18447
1.91082
1.66838
1.45177
1.25426
1.06921
0.890624
0.711716
0.526701
0.331015
0.1194
5.72071
5.16759
4.63495
4.13546
3.67637
3.26065
2.88812
2.55636
2.26216
2.00036
1.76624
1.55416
1.35714
1.1684
0.981936
0.790842
0.589277
0.372688
0.135493
5.71238
5.15391
4.6274
4.1423
3.70223
3.30721
2.95494
2.64156
2.36288
2.11306
1.88699
1.67878
1.48121
1.28733
1.09108
0.88536
0.664171
0.422817
0.155074
5.702
5.14249
4.62886
4.16442
3.74825
3.3774
3.04772
2.75412
2.49168
2.254
2.03567
1.8306
1.63132
1.43066
1.22246
0.99931
0.754861
0.484012
0.179378
5.69426
5.14411
4.65271
4.21575
3.82803
3.48418
3.17869
2.90563
2.65957
2.43371
2.22238
2.01934
1.81681
1.60732
1.3845
1.14039
0.867967
0.561247
0.2108
5.69708
5.17214
4.71357
4.31074
3.95543
3.64083
3.36068
3.10862
2.8789
2.66444
2.45936
2.25726
2.04994
1.82952
1.58916
1.31998
1.01372
0.662607
0.2535
5.71418
5.23299
4.81849
4.45653
4.13777
3.85501
3.60192
3.37196
3.15935
2.95677
2.75816
2.55694
2.34436
2.11182
1.85173
1.55359
1.20692
0.800553
0.314651
5.7494
5.33126
4.97175
4.65738
4.37975
4.13223
3.90896
3.70356
3.51034
3.32186
3.1319
2.93363
2.71757
2.47405
2.19415
1.86472
1.47136
0.996527
0.408326
5.80188
5.46398
5.16965
4.91003
4.67921
4.4719
4.2831
4.10686
3.93784
3.76857
3.59277
3.40341
3.19004
2.94152
2.64683
2.28857
1.84555
1.28867
0.564219
5.86519
5.62015
5.40034
5.20339
5.02662
4.86648
4.71913
4.57941
4.4426
4.30162
4.15039
3.98187
3.78476
3.54624
3.25237
2.87943
2.39506
1.74966
0.850857
5.92936
5.78361
5.64643
5.52084
5.40688
5.30273
5.206
5.11277
5.01957
4.92043
4.81025
4.68283
4.52698
4.32906
4.07225
3.72497
3.23848
2.52907
1.43828
5.98366
5.93682
5.889
5.84391
5.80253
5.76445
5.72887
5.69392
5.65824
5.61863
5.57259
5.51671
5.44351
5.34264
5.19813
4.97448
4.60561
3.9595
2.7715
)
;

boundaryField
{
    up
    {
        type            fixedValue;
        value           uniform 0;
    }
    low
    {
        type            fixedValue;
        value           uniform 6;
    }
    left
    {
        type            fixedValue;
        value           uniform 6;
    }
    right
    {
        type            fixedValue;
        value           uniform 6;
    }
    frontAndBackPlanes
    {
        type            empty;
    }
}


// ************************************************************************* //
