/*--------------------------------*- C++ -*----------------------------------*\
  =========                 |
  \\      /  F ield         | OpenFOAM: The Open Source CFD Toolbox
   \\    /   O peration     | Website:  https://openfoam.org
    \\  /    A nd           | Version:  7
     \\/     M anipulation  |
\*---------------------------------------------------------------------------*/
FoamFile
{
    version     2.0;
    format      ascii;
    class       volScalarField;
    location    "0.314";
    object      gradTz;
}
// * * * * * * * * * * * * * * * * * * * * * * * * * * * * * * * * * * * * * //

dimensions      [0 -1 0 1 0 0 0];

internalField   nonuniform List<scalar> 
1596
(
-3.22745e-16
-1.57307e-16
1.59385e-16
3.05639e-18
-3.04798e-16
0
-1.43024e-16
-1.41019e-16
-8.76212e-18
-7.39661e-17
-7.17664e-19
-7.34777e-17
3.22636e-16
-7.25597e-17
3.39275e-16
2.92589e-16
1.73984e-16
2.19599e-16
0
3.22927e-16
0
4.57794e-16
-2.87869e-18
-1.41325e-16
1.40215e-16
2.8748e-16
8.29857e-18
1.36485e-16
-6.56439e-17
1.30891e-16
-2.0881e-18
-1.81394e-16
-1.13154e-16
-2.74354e-16
-2.67477e-16
-2.43224e-16
1.38361e-16
0
-1.58951e-16
0
-2.99935e-16
4.57523e-18
2.77318e-16
-7.67487e-17
5.33473e-18
-1.94405e-18
-2.02371e-18
-2.18791e-18
5.0501e-17
0
9.41119e-17
2.67338e-16
-2.63143e-17
2.10861e-17
4.96408e-17
7.72295e-17
0
2.48932e-16
-7.57047e-17
7.54283e-17
0
-7.28219e-17
-7.4984e-17
1.29513e-16
-1.1442e-16
0
0
-3.94581e-17
2.63477e-17
0
-7.89688e-17
-1.01101e-16
6.96835e-17
-7.10035e-17
-3.65699e-18
0
4.33998e-17
1.17012e-16
-1.06813e-16
0
-3.18991e-17
-9.67772e-17
0
1.45518e-16
-1.45638e-17
-1.3179e-17
-1.13082e-17
7.62029e-17
9.30693e-17
9.49498e-18
2.51076e-18
-7.53538e-17
3.80459e-18
3.48466e-17
-1.49202e-17
-1.12702e-17
-1.60732e-16
1.54269e-16
-1.36355e-16
-2.55938e-19
-1.22575e-16
3.46616e-18
-3.47767e-18
-9.80369e-17
0
-9.26958e-18
-8.99927e-17
-8.41216e-17
6.89667e-17
7.02023e-17
-9.61481e-19
-4.20674e-17
-3.53444e-17
2.69685e-17
9.41873e-17
-1.64144e-16
1.86371e-16
1.05105e-16
0
9.39149e-17
5.59117e-17
-2.70115e-17
1.24515e-16
-2.35255e-17
-9.8746e-17
9.36533e-19
-5.90421e-17
-6.93055e-17
-5.46675e-17
4.61751e-17
4.24377e-17
-5.64741e-19
-1.12836e-17
8.29519e-18
2.60229e-16
-3.10538e-16
0
0
-1.1802e-16
0
0
0
8.36385e-17
0
0
5.40156e-17
2.12051e-18
1.38377e-17
-4.02924e-17
0
2.14488e-17
8.28138e-18
0
-1.70187e-16
3.28487e-16
0
0
1.21544e-16
0
-4.76296e-17
4.75815e-17
-8.51318e-17
3.57751e-17
-3.60368e-17
0
5.20878e-17
4.94407e-17
0
-2.85717e-17
-2.19208e-17
-7.2206e-18
4.02772e-16
-1.89615e-16
0
-1.39887e-16
1.38321e-16
0
1.06252e-16
0
0
0
3.35583e-17
-3.37192e-17
0
-4.01513e-17
-1.15988e-17
0
2.56764e-18
1.64437e-17
0
-1.02229e-16
0
0
1.40319e-16
-2.63695e-16
1.20094e-17
4.72841e-18
-4.46968e-17
4.55566e-18
1.36142e-18
-3.55288e-17
-5.80256e-17
0
4.39125e-17
-8.63362e-18
8.76319e-18
2.23379e-17
-1.2858e-17
-5.98118e-18
8.71189e-17
-8.08653e-18
8.35622e-17
2.90727e-16
-1.3773e-17
-1.2416e-16
0
0
0
7.32714e-17
2.99011e-17
1.08306e-16
-2.61748e-17
-4.31269e-17
-2.62119e-17
-1.40249e-17
6.22426e-18
-1.34775e-17
5.70319e-18
-9.50744e-17
9.3089e-17
-1.7325e-16
-2.87217e-16
2.68059e-16
1.09196e-16
-2.03557e-16
1.79068e-16
-1.57255e-16
4.09103e-17
3.21043e-17
-2.91161e-17
1.97303e-17
-1.7455e-17
5.07237e-17
0
-3.79745e-18
2.78285e-17
-4.12429e-18
-6.09258e-16
2.81716e-16
2.42506e-19
-6.4909e-17
7.23099e-18
1.06224e-16
-2.02806e-16
-8.56068e-17
7.44188e-17
-6.43155e-17
-5.57063e-17
0
-6.43807e-17
-1.92374e-17
-3.48135e-17
-2.07152e-17
1.6338e-18
-1.78521e-17
3.04329e-19
9.95778e-17
-8.9684e-17
2.07511e-19
-7.07863e-17
-1.80386e-16
1.7101e-16
5.36314e-19
8.34237e-17
-7.24565e-17
1.23726e-16
2.93727e-17
2.46511e-17
7.74546e-17
0
6.50641e-17
2.98874e-17
0
9.87722e-18
2.59545e-19
0
8.70039e-17
7.02736e-17
-1.45067e-16
1.74911e-16
-2.6558e-16
1.90523e-16
7.44383e-17
-9.69203e-18
-1.22337e-16
2.31981e-17
-2.30837e-17
-7.16597e-17
2.90027e-17
-1.42213e-17
-3.0301e-17
1.33228e-17
-8.23164e-18
3.1175e-18
-9.27697e-17
3.2027e-16
-2.38096e-16
1.32638e-16
0
0
-3.85475e-17
8.13998e-17
-6.0393e-17
1.14273e-16
0
0
4.88182e-17
-4.29959e-17
-3.11803e-17
9.79703e-18
-1.03496e-17
5.40007e-18
0
6.70624e-18
8.67478e-17
-7.16495e-17
-6.35848e-17
-1.05364e-16
-3.63338e-17
4.79167e-17
0
-5.70508e-17
-4.76056e-17
4.32349e-17
-3.60255e-17
2.97633e-17
0
1.18249e-17
2.38164e-17
0
0
0
-6.40061e-18
1.4213e-16
5.61398e-17
-1.91294e-16
5.40233e-17
4.70923e-17
0
0
5.41439e-17
-2.81219e-17
-4.18176e-17
3.48432e-17
-2.87834e-17
0
-8.00821e-18
7.06693e-18
0
-5.87037e-18
-2.0386e-18
-7.52541e-17
2.20843e-16
-2.7055e-16
-1.11106e-16
5.7841e-17
-4.47882e-17
3.84002e-17
0
-2.74339e-17
2.33481e-17
0
0
1.16198e-17
-1.16331e-17
3.60222e-18
-4.59308e-18
8.53717e-18
9.27226e-19
1.50989e-18
3.82882e-17
-3.48985e-17
1.81834e-16
-1.17659e-16
-4.89953e-17
5.65886e-18
7.84007e-17
3.08322e-17
2.62501e-17
0
1.6214e-17
-1.50819e-17
1.22711e-17
-1.0588e-17
1.41428e-17
-2.45331e-17
-6.64413e-18
5.81681e-18
1.57087e-18
1.03177e-16
-1.04239e-16
0
1.00232e-16
-5.24527e-17
-4.05539e-17
2.94462e-17
-9.32276e-17
0
-1.57963e-18
-1.83884e-17
-1.37248e-17
2.06038e-17
-1.47578e-18
-1.36688e-17
1.02511e-17
0
3.81583e-18
-1.5253e-18
1.74492e-16
-3.12707e-17
1.35623e-16
-1.064e-16
6.09378e-17
8.35355e-18
-7.11276e-17
-2.54813e-17
4.64308e-17
-1.77068e-18
-2.89194e-17
2.48248e-17
-1.10181e-17
-1.50271e-17
0
0
0
-3.85293e-18
1.44161e-19
-1.5633e-16
1.52561e-16
1.00266e-19
2.41003e-17
2.11298e-17
-5.24353e-17
6.2734e-17
-5.28147e-17
4.5919e-17
-1.59646e-17
3.05494e-17
1.12321e-17
-4.84425e-18
2.61751e-19
-1.87111e-18
-3.29445e-18
0
0
0
0
0
7.68739e-17
-3.60183e-17
-1.18624e-16
0
0
-1.52917e-17
-2.54204e-17
2.17071e-17
0
-1.41657e-17
1.12752e-17
-3.85888e-17
4.46443e-17
-1.49903e-17
1.59945e-17
1.77295e-18
0
-3.02998e-17
3.06728e-17
0
-2.54897e-17
2.59131e-17
4.39695e-17
0
1.54377e-17
2.14501e-17
-9.47484e-17
0
-1.54792e-17
1.23664e-17
9.16299e-18
-6.95104e-18
1.02947e-17
0
-3.88282e-18
0
-1.55776e-17
-1.56571e-17
9.27898e-19
2.619e-17
-7.1505e-17
0
-1.90924e-17
0
5.66829e-17
2.35293e-17
0
6.13269e-17
-6.54632e-17
6.33271e-18
-1.5524e-17
3.94922e-18
1.96871e-17
7.63568e-18
-6.04537e-18
0
3.23487e-17
-2.88774e-17
3.59261e-17
4.41127e-17
0
3.89892e-17
-3.71313e-17
-3.02811e-17
4.69263e-17
-7.05943e-17
-3.56437e-17
0
0
8.39957e-18
0
0
2.48435e-18
0
-1.42762e-16
1.09453e-16
0
1.50935e-18
-2.58829e-17
-1.4487e-18
2.35657e-17
1.75624e-17
-2.14106e-17
-5.71945e-17
9.3236e-17
-2.51001e-17
0
-1.27427e-17
0
0
0
-9.56963e-18
7.63589e-18
-4.02102e-17
3.8024e-17
1.03146e-16
-1.01326e-16
3.15064e-17
1.62375e-18
-2.3952e-17
2.1064e-17
3.65631e-17
2.86775e-17
-5.67784e-17
0
3.11828e-17
5.0852e-18
-1.45829e-17
-3.29693e-17
2.73007e-17
-4.60624e-18
8.62044e-18
-1.3542e-16
1.98488e-16
-1.9729e-16
3.52678e-17
3.05211e-17
-2.92749e-17
2.48555e-17
-2.0233e-17
0
-1.7763e-17
2.9368e-17
1.27684e-17
2.09287e-17
2.74511e-17
-4.13527e-17
-4.93188e-19
0
-3.44305e-18
1.14586e-18
-1.46428e-16
-4.4213e-17
-7.88e-17
4.16402e-17
-6.98041e-17
6.17103e-17
-3.70691e-17
3.20865e-17
-1.99729e-18
-2.00319e-18
-3.04667e-17
1.77699e-17
-1.06425e-17
3.21259e-17
-3.44874e-17
4.60054e-18
3.73884e-18
0
-1.96831e-18
1.58321e-16
-4.76324e-17
0
0
-7.19449e-17
1.40641e-16
-3.32244e-17
-6.56111e-18
5.46615e-17
-1.39026e-18
0
0
-1.33809e-17
0
-2.97466e-17
7.28934e-17
-5.08276e-17
0
7.69508e-19
5.43843e-17
1.02418e-16
0
-4.44281e-17
-3.70353e-17
-3.34258e-17
-3.44748e-17
1.45884e-17
-4.10896e-17
-2.29094e-17
0
0
1.72634e-17
0
0
-3.98098e-17
6.54918e-17
0
0
3.73163e-16
-4.28418e-17
-2.28585e-16
-1.26872e-16
1.7189e-16
5.56941e-17
3.34276e-17
0
-1.25785e-17
1.2421e-17
3.06261e-17
-9.94121e-18
-1.51487e-17
2.3575e-17
-2.50766e-17
-7.91039e-18
0
0
0
2.98833e-17
-2.38292e-16
2.33822e-16
-2.26677e-17
-1.77725e-16
2.79605e-16
-1.4114e-16
0
0
7.81438e-17
-6.44576e-17
0
-1.99448e-17
3.46137e-17
-3.98784e-18
1.02012e-17
3.13565e-18
3.19245e-20
6.89726e-19
0
0
0
1.99487e-16
-1.3366e-16
1.43127e-16
-2.23761e-16
6.41221e-17
0
-2.3603e-17
3.81681e-17
-3.90101e-17
-7.77981e-18
-2.10716e-19
-5.40009e-18
-8.20699e-19
-4.29862e-18
-1.19897e-18
-6.58342e-19
2.50801e-16
-4.48756e-16
2.13427e-16
0
5.88211e-17
-8.00772e-17
8.15322e-17
-6.46987e-17
0
-3.22138e-17
4.51732e-17
0
0
-1.6001e-19
0
-5.48872e-18
3.76282e-18
7.13331e-19
1.04688e-18
2.42065e-16
0
-9.81792e-17
1.09694e-16
-6.98885e-17
1.53153e-16
-7.26818e-17
-5.77011e-17
5.83037e-17
-5.97627e-18
0
0
3.88847e-18
-6.64017e-18
-4.65249e-18
8.83813e-18
-1.91336e-18
9.86714e-19
0
1.37475e-16
1.08624e-16
-3.08005e-18
-1.04474e-16
-1.06666e-17
-7.76124e-17
7.9662e-18
6.56894e-17
-3.4245e-18
6.08849e-18
0
0
-3.98348e-18
0
4.70188e-18
-5.02989e-18
0
6.449e-19
-1.79177e-19
-7.29772e-17
-5.44632e-17
5.09867e-17
-5.9e-18
-2.66117e-18
7.24318e-18
0
-1.93566e-18
2.92612e-17
-2.46427e-17
0
8.46556e-18
-1.63967e-18
-7.49712e-18
-6.87462e-19
-5.36849e-19
0
-5.03767e-19
0
2.99437e-17
-5.70945e-17
-9.12935e-19
2.4758e-17
2.29437e-17
-2.28095e-17
-1.63709e-17
1.85388e-17
-6.43622e-18
5.0296e-18
-4.94119e-18
5.09359e-18
0
1.3127e-20
-5.05819e-19
1.82106e-18
-6.23896e-21
0
0
2.99447e-17
-2.98325e-17
-2.46285e-17
2.18075e-17
4.05432e-17
-4.07825e-17
-8.18573e-18
8.20498e-18
-6.4905e-18
6.55869e-18
-4.94134e-18
9.34064e-18
-2.61965e-18
-1.89608e-18
-5.84309e-19
1.93221e-19
4.62677e-19
1.2247e-19
-9.18585e-20
0
-7.12722e-18
4.29319e-17
-4.65092e-17
4.04999e-17
-3.5881e-17
0
2.91356e-17
-2.60469e-17
0
9.85453e-18
-1.2487e-17
-7.154e-18
7.49785e-18
1.38777e-18
0
0
-5.03827e-19
1.83173e-19
1.19219e-16
-2.2019e-16
2.26079e-16
-1.99834e-16
7.88e-17
-6.79722e-17
6.44576e-17
7.76349e-18
-2.91107e-17
2.60228e-17
0
-1.91838e-17
1.74579e-17
-3.3469e-18
-1.35932e-18
2.15603e-18
1.58748e-18
4.8912e-19
-1.76986e-19
2.73038e-16
0
-1.11016e-16
8.6246e-17
1.05438e-17
-8.2017e-17
1.46072e-16
-1.30625e-16
5.14407e-17
-2.23138e-17
2.28401e-17
4.54914e-18
7.90925e-18
3.25991e-18
-2.73568e-18
-3.48795e-19
-3.44491e-18
0
3.56357e-19
2.20241e-16
-2.47907e-16
0
2.31437e-17
1.01134e-16
-9.92171e-17
1.71682e-17
1.53514e-17
6.7232e-18
1.20168e-17
0
0
-1.37702e-17
2.59903e-17
-9.52891e-18
-3.43752e-18
3.76351e-18
3.02791e-19
-6.79425e-19
1.84313e-17
2.17757e-16
-2.54876e-17
-1.76324e-16
1.54733e-16
1.87494e-17
-1.68022e-17
-1.49937e-17
5.02017e-17
-6.2284e-17
3.81778e-17
-3.90195e-17
6.24669e-18
-7.79388e-18
1.4525e-17
-9.6607e-18
0
0
7.13593e-19
0
5.48391e-17
-1.67039e-16
1.90745e-16
-1.57303e-16
1.56928e-16
0
5.61726e-17
-5.643e-17
-4.33476e-17
6.45017e-17
0
2.74207e-17
-3.46361e-17
-5.14457e-18
0
-5.91602e-19
-1.21252e-18
-2.14278e-21
-5.17052e-16
2.47786e-16
0
-1.71856e-16
1.71839e-16
1.07747e-16
-7.08856e-17
2.9895e-17
0
-1.37955e-18
1.06583e-17
-9.92688e-18
-1.51275e-17
2.35379e-17
-2.50286e-17
0
5.64126e-18
-1.31822e-18
-7.49668e-19
3.19175e-16
-3.14953e-16
0
4.44752e-17
4.09775e-17
-3.77663e-17
0
-3.13302e-17
-2.76413e-17
0
-9.52986e-19
0
1.72695e-17
0
0
8.21271e-18
3.10876e-17
-4.00874e-17
0
4.99651e-20
4.76552e-17
-4.45272e-17
3.7374e-17
-1.8948e-16
7.30986e-17
0
6.56549e-18
1.86727e-17
0
-1.97435e-17
5.92584e-17
-6.22543e-17
1.08533e-17
0
-1.0347e-18
0
0
0
4.65081e-20
0
4.11542e-17
0
-6.61403e-17
6.71918e-17
0
2.52846e-17
-2.07543e-17
7.6326e-17
-3.70404e-17
1.39037e-17
-2.28477e-17
2.23212e-17
-3.45253e-17
-5.57902e-18
0
-3.98184e-18
0
1.24687e-16
-2.10699e-16
0
-3.53324e-17
3.22598e-17
0
0
-4.6404e-17
0
-1.77748e-17
-2.93885e-17
-1.27788e-17
2.09476e-17
0
1.20311e-17
0
0
8.79571e-18
-9.84764e-18
0
1.84158e-16
-1.47632e-16
3.27098e-17
-2.98728e-17
-1.26591e-17
3.68258e-17
4.24166e-17
-5.35112e-17
1.73327e-17
8.47311e-19
-1.74585e-17
7.20834e-17
-2.25014e-17
-5.4608e-17
1.91648e-17
-5.21657e-18
3.10142e-18
-9.93465e-19
-2.94336e-16
1.09439e-16
0
0
1.29461e-17
-1.31648e-17
1.00356e-17
7.12839e-18
4.8724e-17
2.58319e-17
-2.5958e-17
-7.0298e-19
-1.56199e-17
1.27527e-17
0
6.80923e-18
4.78137e-18
2.69176e-18
8.97952e-19
0
9.58319e-17
-9.06077e-17
2.93121e-17
3.13547e-17
-6.09889e-18
-2.04113e-17
-1.79036e-17
-6.12638e-17
2.56136e-17
-1.6795e-17
2.21491e-17
1.46065e-17
-1.92228e-17
2.04038e-17
1.3775e-17
-1.76367e-17
-2.48624e-18
0
-1.66048e-17
-7.58607e-17
2.75987e-17
2.61966e-17
-9.26977e-17
6.7095e-17
3.51101e-17
-3.58879e-17
2.87365e-17
-2.43086e-17
0
0
-2.27456e-17
4.13312e-17
-1.85468e-17
1.82513e-17
-1.98909e-17
3.4012e-18
-6.05026e-18
3.13493e-17
2.96753e-17
-2.75033e-17
2.25329e-17
-2.56555e-17
-4.10736e-17
0
0
0
0
0
0
1.1779e-17
-3.22432e-17
3.41007e-17
-1.16343e-17
1.43163e-17
6.91512e-18
-5.88253e-18
6.46124e-17
-1.13319e-16
1.41986e-16
-6.95997e-17
9.58684e-17
-7.41119e-17
1.40129e-16
-8.07098e-17
-4.6261e-17
4.73229e-17
0
1.41566e-17
-1.15075e-17
2.96448e-17
-9.38937e-18
-1.28418e-17
-2.83637e-17
2.0853e-18
5.03393e-18
1.00367e-16
2.95809e-17
0
-4.80552e-17
-3.95113e-17
9.17589e-17
1.06515e-17
-3.95146e-17
2.39682e-17
-1.79491e-17
0
-1.12066e-17
0
-9.78198e-18
8.0877e-18
-7.4716e-18
-2.49688e-18
1.80268e-18
0
1.40445e-16
-3.12703e-17
1.35565e-16
-1.06362e-16
-2.21729e-17
9.09504e-17
-5.45208e-17
2.43833e-18
2.05364e-18
-1.76508e-17
1.71576e-17
0
0
1.17378e-17
-4.50769e-18
3.02233e-18
9.02217e-18
-3.13616e-18
0
2.69644e-20
0
-2.97872e-17
1.79813e-16
-1.22383e-16
-1.3629e-16
7.49815e-17
-8.31893e-17
7.79894e-17
4.04791e-17
-3.18634e-17
1.33054e-17
-1.20689e-17
1.95087e-18
2.1194e-17
9.80296e-19
-8.46264e-18
8.37357e-18
-1.70018e-18
3.43845e-16
-1.10145e-16
5.66e-17
-1.73498e-16
4.8995e-17
-7.96216e-17
4.21981e-17
0
0
-1.61542e-18
-2.1369e-18
-6.27706e-19
0
-1.81503e-17
-1.4143e-17
1.05925e-17
-7.8211e-19
1.29454e-18
3.31433e-18
0
-1.10554e-16
1.91875e-16
4.59677e-17
-1.60921e-16
4.4788e-17
-7.16377e-17
1.01693e-17
6.01048e-17
0
0
1.14308e-18
1.43302e-17
0
-1.34057e-17
-6.27394e-18
9.18835e-19
-3.38645e-18
-3.76963e-18
0
-7.07987e-17
1.32713e-17
1.2967e-16
1.01681e-16
-1.8841e-16
8.68117e-17
-6.41587e-17
3.39455e-17
-4.97404e-17
0
0
0
-2.34617e-17
6.85046e-18
-8.04747e-18
0
-5.07133e-19
2.55462e-18
-2.59607e-16
2.47243e-16
2.72944e-16
-3.32026e-16
1.61274e-16
-1.52778e-16
0
6.72094e-17
-9.29997e-17
5.52396e-17
-4.45383e-17
3.74013e-17
3.11467e-17
2.42646e-17
1.94529e-17
0
0
0
0
2.84812e-16
-1.6733e-16
0
0
-5.82347e-17
1.46477e-16
-9.41527e-17
-7.07636e-17
6.99659e-17
5.45929e-17
9.38222e-17
-3.88075e-17
1.65062e-17
1.28921e-17
9.74663e-18
7.84788e-18
1.2822e-17
-6.3411e-19
6.45898e-19
-2.89729e-16
2.6862e-16
1.47788e-16
-7.62486e-17
1.74936e-16
-1.12687e-16
-9.23204e-17
-8.00074e-17
0
-1.13656e-16
4.76653e-18
4.33248e-17
-3.50496e-17
-2.90027e-17
-1.07401e-17
-1.15661e-17
-9.21526e-18
0
0
-9.9665e-17
0
7.96874e-17
-1.57011e-19
0
0
9.52315e-17
8.25564e-17
0
6.11594e-17
0
-6.58572e-17
-1.85439e-17
3.32307e-17
0
2.15387e-17
-3.05961e-18
3.12121e-18
0
2.10883e-16
0
1.54696e-16
-2.89725e-16
2.62412e-16
2.1885e-16
-5.80017e-18
0
5.35281e-18
6.96173e-17
0
-7.2387e-17
8.26202e-17
-7.37507e-17
-1.61512e-17
-1.73694e-17
-5.03781e-18
-8.8589e-19
-3.05142e-18
-1.98585e-16
2.86741e-16
-8.28929e-17
-2.20966e-16
-1.30453e-16
-1.15257e-16
-2.03195e-16
-8.42264e-17
5.71172e-18
3.21647e-17
-3.21043e-17
1.04667e-16
-4.62659e-17
9.42704e-17
-1.76716e-17
0
1.96569e-17
-1.14416e-17
3.10475e-18
4.33691e-16
-8.29198e-18
-3.4147e-16
2.90729e-16
-2.6494e-16
2.35733e-16
-6.38317e-18
-9.31873e-17
8.2808e-17
3.39242e-17
-4.01433e-18
-8.46401e-17
2.49706e-17
2.51815e-17
-7.86016e-18
7.94981e-18
-2.03598e-17
-1.69364e-18
-4.5509e-18
2.12904e-16
9.1986e-17
1.64527e-16
-1.47375e-16
-1.25253e-16
5.57788e-18
-1.00068e-16
2.43301e-16
7.051e-18
1.16209e-16
6.86927e-17
-6.11771e-17
0
-4.39124e-17
0
0
2.7092e-17
1.20769e-17
5.32675e-18
2.01108e-16
0
1.62641e-16
1.46424e-16
-1.32447e-16
1.18319e-16
0
-9.55741e-17
-1.33608e-16
-1.18461e-16
-6.93007e-17
6.18689e-17
0
0
0
0
-2.53838e-17
-1.82465e-17
0
-3.94089e-16
0
-6.85555e-18
-6.05624e-18
2.00932e-16
-1.16221e-16
-5.39137e-17
-5.40731e-17
1.34699e-16
0
3.57749e-17
-3.83704e-18
3.1402e-17
0
0
4.10134e-17
-3.04125e-18
2.19008e-17
-8.08564e-18
2.77944e-16
8.18162e-17
-8.09717e-17
-7.29562e-17
-2.58807e-16
1.80294e-16
2.20599e-16
-4.90662e-18
-9.12981e-17
8.93441e-17
1.89392e-17
-9.53615e-17
-7.89658e-17
-4.66594e-17
-4.9214e-17
-4.72579e-17
3.82767e-17
-1.81473e-18
8.2814e-18
-8.58756e-17
3.95713e-17
-1.91568e-16
3.36054e-17
-3.34831e-17
0
-1.09199e-16
-6.32187e-18
-1.01086e-16
7.18603e-18
9.87458e-17
7.39459e-17
-1.7933e-17
8.65387e-18
4.6864e-17
0
-7.90448e-17
-2.86397e-17
-5.97158e-19
1.73324e-16
-4.81366e-18
3.01011e-16
-1.44776e-16
2.55938e-19
3.91897e-18
1.18333e-16
-7.8723e-18
9.80366e-17
-9.18474e-17
-8.62553e-17
0
8.41214e-17
6.79143e-17
9.28533e-19
-1.34729e-18
4.24735e-17
2.91127e-17
0
-1.23461e-16
0
-3.12105e-17
1.3766e-16
1.73281e-18
3.19417e-17
-1.14426e-16
1.08552e-16
1.13228e-16
1.08344e-16
1.03895e-16
0
-8.17224e-17
0
4.25424e-18
-4.41841e-18
0
-4.16732e-19
2.04091e-17
8.47453e-17
3.85386e-18
-6.93956e-17
2.12916e-16
-6.86966e-17
0
0
-1.25445e-16
-1.09706e-16
-1.04961e-16
-1.88792e-16
-2.63477e-17
0
0
0
-8.59554e-18
9.09624e-18
5.78534e-17
-2.07187e-17
3.96843e-18
0
-1.4731e-16
-1.36341e-16
1.4184e-16
-1.40654e-16
-2.02127e-16
2.49825e-16
6.84286e-17
0
1.10571e-16
1.23776e-16
-2.67261e-17
1.44638e-16
-2.36493e-17
2.46132e-17
9.52531e-17
-5.49752e-17
0
-1.62159e-16
0
-1.55948e-16
1.53099e-16
0
2.79217e-16
1.31687e-16
-2.74905e-16
2.1824e-16
-1.5148e-18
-6.63162e-17
-1.1984e-16
0
1.63303e-16
-2.74354e-16
2.94231e-16
-3.74909e-16
0
0
1.6133e-16
-9.15197e-19
-2.25624e-18
-3.07602e-16
3.09842e-16
-1.50188e-16
1.49575e-16
1.47393e-16
-1.31561e-16
0
0
2.44602e-16
-2.48816e-16
-2.66734e-16
2.64197e-16
-2.57208e-16
2.7806e-16
-4.35436e-16
0
)
;

boundaryField
{
    up
    {
        type            calculated;
        value           nonuniform List<scalar> 
84
(
0
0
0
0
-1.49202e-17
2.69685e-17
-1.12836e-17
8.28138e-18
-7.2206e-18
0
-5.98118e-18
5.70319e-18
-4.12429e-18
3.04329e-19
2.59545e-19
3.1175e-18
0
0
-2.0386e-18
1.50989e-18
1.57087e-18
-1.5253e-18
1.44161e-19
0
6.32041e-19
2.75787e-19
-5.78832e-18
0
7.63589e-18
8.9505e-18
1.14586e-18
-1.96831e-18
7.69508e-19
0
-3.78227e-19
7.16485e-19
-6.5882e-19
1.04617e-18
0
-1.79066e-19
0
0
-9.19295e-20
1.83173e-19
-1.76986e-19
3.56357e-19
-6.79425e-19
7.13593e-19
-2.14278e-21
-7.49668e-19
0
0
0
-9.84764e-18
-1.32371e-18
8.97952e-19
0
-6.05026e-18
-5.88253e-18
4.40411e-18
0
0
-1.70018e-18
3.31433e-18
-3.76963e-18
2.55462e-18
0
6.45898e-19
0
0
-3.05142e-18
3.10475e-18
-4.5509e-18
5.32675e-18
0
-8.08564e-18
8.2814e-18
-5.97158e-19
0
2.04091e-17
-2.07187e-17
0
0
0
)
;
    }
    low
    {
        type            calculated;
        value           nonuniform List<scalar> 
84
(
-3.22941e-16
3.22927e-16
-1.58595e-16
2.49222e-16
4.3597e-17
-1.13287e-17
9.46792e-17
8.76602e-18
0
4.03313e-16
-1.02229e-16
8.68376e-17
-9.50744e-17
-6.09231e-16
9.95778e-17
0
-9.27697e-17
6.70624e-18
-6.40061e-18
-7.52541e-17
3.82882e-17
1.03177e-16
1.73926e-16
-1.5633e-16
0
-3.02998e-17
-1.55776e-17
0
-1.42762e-16
-4.02102e-17
-1.35035e-16
-1.46113e-16
1.58095e-16
5.43843e-17
3.73145e-16
2.98833e-17
0
2.50801e-16
2.42519e-16
1.37729e-16
-7.31148e-17
2.99437e-17
2.99447e-17
0
1.19219e-16
2.73491e-16
2.20241e-16
1.87147e-17
0
-5.17033e-16
3.19175e-16
4.99651e-20
4.65081e-20
1.24687e-16
0
-2.93753e-16
0
-1.66048e-17
3.13493e-17
6.42722e-17
9.97657e-17
1.3988e-16
2.69644e-20
3.43364e-16
0
0
-2.59607e-16
2.8455e-16
-2.89543e-16
-9.9665e-17
2.10856e-16
-1.98585e-16
4.34253e-16
2.13316e-16
2.01108e-16
-3.94089e-16
2.77473e-16
-8.53837e-17
1.73324e-16
-1.23264e-16
8.47453e-17
4.32454e-18
-1.62159e-16
1.61428e-16
)
;
    }
    left
    {
        type            calculated;
        value           nonuniform List<scalar> 
19
(
-3.22745e-16
-1.57415e-16
1.59385e-16
3.05347e-18
-3.0487e-16
0
-1.43024e-16
-1.41019e-16
-9.21044e-18
-7.39661e-17
-7.17664e-19
-7.34777e-17
3.25923e-16
-7.25597e-17
3.39275e-16
2.92589e-16
1.73984e-16
2.55068e-16
0
)
;
    }
    right
    {
        type            calculated;
        value           nonuniform List<scalar> 
19
(
1.6133e-16
-8.06741e-19
-2.25624e-18
-3.07599e-16
3.09914e-16
-1.50188e-16
1.49575e-16
1.47393e-16
-1.31113e-16
0
0
2.46934e-16
-2.52103e-16
-2.66734e-16
2.64197e-16
-2.57208e-16
2.7806e-16
-4.70904e-16
0
)
;
    }
    frontAndBackPlanes
    {
        type            empty;
    }
}


// ************************************************************************* //
