/*--------------------------------*- C++ -*----------------------------------*\
  =========                 |
  \\      /  F ield         | OpenFOAM: The Open Source CFD Toolbox
   \\    /   O peration     | Website:  https://openfoam.org
    \\  /    A nd           | Version:  7
     \\/     M anipulation  |
\*---------------------------------------------------------------------------*/
FoamFile
{
    version     2.0;
    format      ascii;
    class       volScalarField;
    location    "0.05";
    object      gradTy;
}
// * * * * * * * * * * * * * * * * * * * * * * * * * * * * * * * * * * * * * //

dimensions      [0 -1 0 1 0 0 0];

internalField   nonuniform List<scalar> 
1596
(
-0.903632
-1.62612
-2.12947
-2.51429
-2.78928
-3.03399
-3.22963
-3.43815
-3.6632
-3.89319
-4.22353
-4.60966
-5.16807
-6.02513
-7.50972
-9.99912
-14.7116
-23.6261
-55.7669
-2.66808
-3.13537
-3.27464
-3.27676
-3.20942
-3.17852
-3.17346
-3.2385
-3.36393
-3.51783
-3.77626
-4.09424
-4.55645
-5.22753
-6.29885
-7.85396
-10.3265
-14.0702
-24.7631
-4.54045
-4.48178
-4.17817
-3.794
-3.40723
-3.12226
-2.92954
-2.85521
-2.87651
-2.94899
-3.12555
-3.35849
-3.70748
-4.20862
-4.99576
-6.08779
-7.7415
-10.0975
-15.1382
-6.22201
-5.59076
-4.86097
-4.12991
-3.46601
-2.95903
-2.59994
-2.39798
-2.32067
-2.31622
-2.41395
-2.56555
-2.80883
-3.16291
-3.72488
-4.49303
-5.63904
-7.2221
-9.94298
-7.47736
-6.42825
-5.37068
-4.36606
-3.4799
-2.78848
-2.28712
-1.97243
-1.80616
-1.73309
-1.76092
-1.84266
-1.99723
-2.23236
-2.61765
-3.14778
-3.94697
-5.04722
-6.71017
-8.21769
-6.99689
-5.75224
-4.56464
-3.51581
-2.67861
-2.05865
-1.64615
-1.40114
-1.26795
-1.23624
-1.26103
-1.34568
-1.48927
-1.73879
-2.09
-2.63458
-3.39794
-4.49212
-8.49896
-7.32124
-6.02866
-4.74969
-3.59699
-2.65186
-1.93587
-1.43983
-1.12587
-0.940095
-0.858606
-0.838252
-0.870281
-0.947018
-1.09658
-1.31573
-1.67006
-2.18344
-2.91587
-8.44915
-7.43441
-6.20001
-4.90986
-3.70819
-2.69225
-1.90316
-1.33839
-0.96553
-0.734321
-0.611804
-0.556291
-0.550191
-0.580654
-0.660867
-0.787314
-1.0039
-1.33193
-1.81071
-8.20659
-7.41278
-6.29889
-5.05214
-3.84178
-2.78375
-1.93965
-1.31802
-0.894326
-0.623142
-0.466313
-0.383083
-0.349696
-0.349442
-0.384506
-0.450137
-0.572921
-0.769594
-1.06787
-7.84446
-7.24376
-6.27439
-5.1116
-3.93221
-2.86646
-1.99317
-1.33369
-0.872663
-0.570545
-0.387454
-0.283617
-0.231498
-0.21181
-0.219312
-0.247779
-0.311094
-0.420592
-0.595486
-7.52812
-7.03586
-6.18351
-5.1085
-3.97713
-2.92488
-2.04186
-1.36073
-0.87486
-0.550635
-0.348634
-0.230147
-0.165582
-0.134083
-0.125824
-0.133334
-0.161974
-0.218046
-0.313752
-7.22587
-6.83524
-6.07645
-5.07769
-3.99489
-2.96407
-2.08161
-1.38908
-0.887212
-0.547613
-0.332373
-0.203721
-0.131037
-0.0925154
-0.075671
-0.0721331
-0.0820521
-0.107876
-0.156416
-6.9043
-6.59881
-5.91964
-4.98955
-3.95688
-2.95672
-2.08758
-1.39691
-0.890706
-0.544804
-0.323327
-0.189553
-0.112727
-0.0707099
-0.0497122
-0.0408894
-0.0415324
-0.0515793
-0.0741755
-6.65984
-6.38333
-5.75084
-4.86918
-3.87754
-2.90838
-2.05911
-1.37971
-0.87878
-0.53473
-0.313448
-0.179188
-0.101609
-0.0587096
-0.036283
-0.0253818
-0.0219356
-0.024476
-0.0339213
-6.46436
-6.20262
-5.59016
-4.73486
-3.77107
-2.82841
-2.00123
-1.33906
-0.85056
-0.514969
-0.299238
-0.168407
-0.0928354
-0.0510014
-0.0288399
-0.0175864
-0.012687
-0.0120294
-0.0153522
-6.29201
-6.04543
-5.43796
-4.59126
-3.64266
-2.72099
-1.91664
-1.27623
-0.80614
-0.484742
-0.279225
-0.155214
-0.0839623
-0.0447167
-0.0239412
-0.013288
-0.00821619
-0.00643763
-0.00717282
-6.16114
-5.91304
-5.29469
-4.44029
-3.49488
-2.58868
-1.80755
-1.19293
-0.746632
-0.444576
-0.253375
-0.139099
-0.0740741
-0.0385992
-0.0199703
-0.0104583
-0.00581791
-0.00385175
-0.0036336
-6.07422
-5.81324
-5.16822
-4.29008
-3.33604
-2.43929
-1.68081
-1.09468
-0.676138
-0.397251
-0.223344
-0.12086
-0.0633497
-0.0323971
-0.0163511
-0.00824984
-0.00429802
-0.00252668
-0.002048
-5.98935
-5.74555
-5.07176
-4.15781
-3.18331
-2.28826
-1.54919
-0.99132
-0.601716
-0.347472
-0.192038
-0.102133
-0.0525838
-0.0263799
-0.0130243
-0.00638923
-0.00318878
-0.00173696
-0.00126089
-5.89477
-5.68721
-4.98916
-4.03337
-3.03082
-2.13292
-1.41228
-0.883775
-0.524805
-0.296634
-0.160552
-0.0836473
-0.0421921
-0.0207296
-0.0100124
-0.0047915
-0.00231575
-0.00119932
-0.000810217
-5.83372
-5.6519
-4.925
-3.91939
-2.88119
-1.97624
-1.27327
-0.775119
-0.448027
-0.246725
-0.130242
-0.0662395
-0.032639
-0.0156715
-0.00739675
-0.00345558
-0.00162463
-0.000810444
-0.000521833
-5.78513
-5.6396
-4.88317
-3.82182
-2.74151
-1.82536
-1.13847
-0.670342
-0.374969
-0.200096
-0.102523
-0.0506917
-0.0243189
-0.0113819
-0.00524081
-0.00238893
-0.00109432
-0.000528912
-0.000328419
-5.72801
-5.64013
-4.86279
-3.74552
-2.61936
-1.68809
-1.01442
-0.574194
-0.308688
-0.158512
-0.0783153
-0.0374318
-0.017402
-0.00791059
-0.00354477
-0.00157491
-0.000703526
-0.000330367
-0.000198194
-5.657
-5.64091
-4.85495
-3.68748
-2.51618
-1.56749
-0.903951
-0.488413
-0.249903
-0.122061
-0.0573996
-0.0261764
-0.0116445
-0.00508104
-0.00219189
-0.000941246
-0.000408173
-0.000186271
-0.000102934
-5.58181
-5.65759
-4.91271
-3.74124
-2.54644
-1.57427
-0.897146
-0.477245
-0.239899
-0.11513
-0.0532769
-0.0240257
-0.0106332
-0.00465321
-0.0020304
-0.000892729
-0.000402197
-0.00019374
-0.000106211
-5.5099
-5.67226
-4.99694
-3.85923
-2.66201
-1.66488
-0.957429
-0.512178
-0.257893
-0.123536
-0.0568758
-0.0254894
-0.0112225
-0.00490416
-0.00214961
-0.000958222
-0.000443584
-0.000224434
-0.000133714
-5.48906
-5.68619
-5.06925
-3.97922
-2.79789
-1.78621
-1.04844
-0.571482
-0.292226
-0.141504
-0.0654598
-0.0292937
-0.0128033
-0.00553123
-0.00239267
-0.00105539
-0.000489195
-0.000255102
-0.000162131
-5.53269
-5.70838
-5.12819
-4.092
-2.94392
-1.93191
-1.16896
-0.657526
-0.34668
-0.172639
-0.081713
-0.0371503
-0.0163396
-0.00702081
-0.00297571
-0.00126423
-0.000556791
-0.000281297
-0.000183605
-5.62907
-5.75216
-5.19138
-4.20964
-3.10568
-2.10452
-1.32175
-0.774444
-0.426196
-0.221669
-0.109441
-0.0517435
-0.0235336
-0.0103613
-0.00442506
-0.00183673
-0.000745131
-0.0003276
-0.000194523
-5.77351
-5.81821
-5.26473
-4.33589
-3.28213
-2.3005
-1.5041
-0.922116
-0.533095
-0.292208
-0.152377
-0.076214
-0.0366963
-0.0170996
-0.00769758
-0.00331663
-0.00131846
-0.000489174
-0.000206363
-5.96479
-5.92014
-5.36936
-4.48911
-3.48472
-2.52545
-1.71899
-1.10353
-0.67142
-0.389116
-0.215451
-0.114912
-0.0592789
-0.029773
-0.0145555
-0.00686557
-0.00295946
-0.00108568
-0.000305912
-6.14579
-6.04497
-5.50561
-4.67296
-3.7165
-2.78119
-1.96801
-1.32131
-0.845403
-0.517921
-0.304688
-0.173576
-0.0962197
-0.0523523
-0.0280669
-0.0148154
-0.00733195
-0.00310721
-0.000897243
-6.35261
-6.20528
-5.67591
-4.88488
-3.97247
-3.06224
-2.24697
-1.57395
-1.05665
-0.682951
-0.426147
-0.25888
-0.153922
-0.0904878
-0.0530206
-0.0312875
-0.0180206
-0.00945748
-0.00336531
-6.61177
-6.41802
-5.89335
-5.13652
-4.26375
-3.37964
-2.5673
-1.87389
-1.31913
-0.899556
-0.596114
-0.387079
-0.247767
-0.158111
-0.101812
-0.0674926
-0.0459575
-0.0318457
-0.0212046
-6.90291
-6.65771
-6.11747
-5.37321
-4.52465
-3.66128
-2.85541
-2.15129
-1.57085
-1.11585
-0.773598
-0.527098
-0.354929
-0.238524
-0.16198
-0.113623
-0.0836253
-0.0656163
-0.0542492
-7.24664
-6.91758
-6.32976
-5.5674
-4.71754
-3.85862
-3.05364
-2.34316
-1.74849
-1.27292
-0.907359
-0.637205
-0.443365
-0.308463
-0.21733
-0.158194
-0.121418
-0.100638
-0.0907724
-7.64974
-7.21354
-6.56144
-5.7631
-4.89408
-4.0244
-3.21058
-2.48997
-1.88265
-1.39202
-1.01054
-0.724707
-0.516608
-0.369592
-0.268969
-0.202794
-0.161214
-0.137264
-0.125137
-8.00961
-7.48105
-6.77087
-5.93746
-5.04814
-4.16638
-3.34373
-2.61444
-1.99717
-1.49504
-1.10128
-0.803264
-0.583945
-0.427313
-0.319124
-0.247475
-0.202433
-0.176761
-0.164263
-8.28542
-7.70102
-6.95039
-6.09021
-5.18414
-4.2917
-3.46102
-2.72404
-2.09826
-1.58653
-1.18265
-0.874637
-0.646141
-0.481681
-0.367424
-0.2915
-0.243946
-0.217274
-0.204928
-8.50282
-7.87648
-7.09447
-6.21285
-5.29294
-4.39155
-3.55422
-2.81114
-2.17889
-1.65997
-1.24859
-0.933173
-0.697909
-0.527708
-0.40908
-0.330168
-0.281015
-0.253929
-0.242072
-8.66295
-8.00398
-7.19689
-6.29832
-5.36772
-4.45966
-3.61767
-2.87057
-2.2342
-1.71074
-1.29461
-0.974512
-0.734959
-0.561138
-0.439804
-0.359107
-0.309103
-0.281945
-0.270592
-8.77785
-8.07887
-7.25026
-6.33984
-5.40281
-4.49133
-3.64738
-2.89881
-2.26095
-1.73574
-1.31768
-0.995585
-0.754154
-0.57873
-0.456217
-0.374784
-0.32452
-0.29751
-0.286619
-8.77789
-8.07895
-7.25037
-6.33998
-5.40296
-4.49149
-3.64754
-2.89897
-2.26109
-1.73587
-1.31779
-0.995679
-0.754234
-0.578799
-0.456276
-0.374838
-0.32457
-0.29756
-0.286672
-8.663
-8.00414
-7.19714
-6.29867
-5.36813
-4.4601
-3.61812
-2.87101
-2.23461
-1.71111
-1.29493
-0.974789
-0.735194
-0.561338
-0.439978
-0.359263
-0.30925
-0.282092
-0.270747
-8.5029
-7.87673
-7.09488
-6.21339
-5.29359
-4.39225
-3.55494
-2.81184
-2.17954
-1.66056
-1.2491
-0.933608
-0.698277
-0.528019
-0.409347
-0.330405
-0.281236
-0.254147
-0.242301
-8.28553
-7.70135
-6.95093
-6.09092
-5.18499
-4.29264
-3.46199
-2.72497
-2.09913
-1.5873
-1.18332
-0.875195
-0.646607
-0.482068
-0.367752
-0.291786
-0.244208
-0.217528
-0.205192
-8.00974
-7.48143
-6.7715
-5.93832
-5.04918
-4.16753
-3.34491
-2.61559
-1.99822
-1.49597
-1.10207
-0.803919
-0.584481
-0.427749
-0.319485
-0.247782
-0.202708
-0.177024
-0.164533
-7.64988
-7.21396
-6.56214
-5.76408
-4.89528
-4.02573
-3.21195
-2.4913
-1.88385
-1.39307
-1.01142
-0.725418
-0.517175
-0.370042
-0.269331
-0.203093
-0.161474
-0.137504
-0.125376
-7.24681
-6.91809
-6.33064
-5.56865
-4.71908
-3.86034
-3.05541
-2.34485
-1.75001
-1.27421
-0.908424
-0.638052
-0.444027
-0.308976
-0.217734
-0.158519
-0.121692
-0.100884
-0.0910074
-6.90301
-6.65792
-6.118
-5.37419
-4.52606
-3.66302
-2.8573
-2.15316
-1.57257
-1.11732
-0.774788
-0.528021
-0.355622
-0.239031
-0.162345
-0.113886
-0.0838325
-0.0658278
-0.0545361
-6.61187
-6.41861
-5.89454
-5.13835
-4.26612
-3.38234
-2.57005
-1.87647
-1.32139
-0.901424
-0.597584
-0.388196
-0.248596
-0.15872
-0.102265
-0.0678457
-0.0462617
-0.0321476
-0.0215405
-6.35264
-6.2056
-5.67676
-4.8863
-3.97436
-3.06436
-2.24909
-1.57586
-1.05824
-0.684188
-0.427057
-0.259522
-0.154361
-0.0907851
-0.0532274
-0.0314457
-0.0181536
-0.0095639
-0.0034224
-6.14578
-6.04523
-5.50641
-4.67435
-3.71833
-2.7832
-1.96994
-1.32298
-0.846727
-0.518899
-0.305369
-0.174029
-0.096511
-0.0525379
-0.0281896
-0.0149054
-0.00740304
-0.00315204
-0.000895922
-5.96476
-5.92035
-5.37011
-4.49044
-3.48644
-2.52729
-1.72069
-1.10494
-0.672484
-0.389862
-0.215941
-0.115219
-0.059465
-0.0298845
-0.0146244
-0.00691144
-0.00299064
-0.00110014
-0.000294838
-5.77346
-5.81838
-5.26543
-4.33715
-3.28374
-2.30216
-1.50558
-0.923284
-0.533932
-0.292763
-0.152722
-0.0764179
-0.0368123
-0.0171646
-0.00773445
-0.003338
-0.00132967
-0.000491423
-0.00019761
-5.62898
-5.75228
-5.19202
-4.21081
-3.10714
-2.10598
-1.32299
-0.775383
-0.426836
-0.222073
-0.109678
-0.0518755
-0.023604
-0.0103979
-0.0044438
-0.00184574
-0.000748134
-0.000326466
-0.000189492
-5.53261
-5.70848
-5.12877
-4.09306
-2.94521
-1.93315
-1.16997
-0.658256
-0.347155
-0.172924
-0.0818718
-0.037234
-0.0163815
-0.00704094
-0.00298486
-0.00126772
-0.00055716
-0.000280043
-0.000181305
-5.48898
-5.68629
-5.06978
-3.98014
-2.79897
-1.78722
-1.04924
-0.572032
-0.29257
-0.141702
-0.0655658
-0.0293471
-0.0128288
-0.00554273
-0.00239744
-0.00105691
-0.000489177
-0.000254524
-0.000161414
-5.50984
-5.67236
-4.99737
-3.85996
-2.66284
-1.66563
-0.958004
-0.512567
-0.25813
-0.123669
-0.0569454
-0.0255236
-0.0112384
-0.00491119
-0.00215249
-0.0009592
-0.000443752
-0.000224388
-0.000133725
-5.58186
-5.65766
-4.91286
-3.74146
-2.54668
-1.57448
-0.897312
-0.477358
-0.239968
-0.115169
-0.0532969
-0.0240355
-0.0106377
-0.00465515
-0.00203117
-0.000892988
-0.000402271
-0.000193797
-0.000106195
-5.65704
-5.64089
-4.85484
-3.68728
-2.51595
-1.56728
-0.903779
-0.488287
-0.249818
-0.122007
-0.0573666
-0.0261572
-0.0116338
-0.00507532
-0.00218889
-0.000939689
-0.000407381
-0.000185872
-0.000102609
-5.72804
-5.64014
-4.86278
-3.7455
-2.61936
-1.68811
-1.01444
-0.574209
-0.308697
-0.158516
-0.0783158
-0.0374309
-0.0174009
-0.00790963
-0.00354409
-0.00157446
-0.000703255
-0.000330206
-0.000198026
-5.78515
-5.6396
-4.88315
-3.8218
-2.7415
-1.82536
-1.13847
-0.670349
-0.374973
-0.200098
-0.102524
-0.0506919
-0.0243186
-0.0113816
-0.00524048
-0.00238868
-0.00109415
-0.000528805
-0.000328289
-5.83373
-5.65191
-4.92499
-3.91938
-2.88118
-1.97624
-1.27327
-0.775121
-0.44803
-0.246727
-0.130244
-0.0662405
-0.0326394
-0.0156716
-0.00739668
-0.00345546
-0.00162453
-0.00081039
-0.000521728
-5.89478
-5.68722
-4.98916
-4.03336
-3.03082
-2.13291
-1.41228
-0.883774
-0.524806
-0.296637
-0.160555
-0.0836489
-0.042193
-0.0207301
-0.0100126
-0.00479154
-0.00231576
-0.00119939
-0.000810195
-5.98936
-5.74555
-5.07176
-4.15781
-3.18331
-2.28825
-1.54919
-0.991316
-0.601715
-0.347473
-0.19204
-0.102135
-0.0525852
-0.0263808
-0.0130248
-0.00638943
-0.00318894
-0.00173732
-0.00126112
-6.07422
-5.81324
-5.16823
-4.29009
-3.33604
-2.43929
-1.68081
-1.09467
-0.676135
-0.397251
-0.223345
-0.120862
-0.0633514
-0.0323984
-0.0163518
-0.00825018
-0.00429848
-0.00252775
-0.00204886
-6.16113
-5.91304
-5.2947
-4.4403
-3.49489
-2.58868
-1.80754
-1.19292
-0.746627
-0.444574
-0.253375
-0.139101
-0.0740762
-0.0386008
-0.0199711
-0.0104587
-0.00581898
-0.00385451
-0.00363594
-6.29199
-6.04543
-5.43798
-4.59128
-3.64267
-2.72099
-1.91663
-1.27622
-0.806133
-0.484739
-0.279225
-0.155216
-0.0839646
-0.0447183
-0.0239417
-0.0132883
-0.00821859
-0.00644405
-0.00717817
-6.46434
-6.20262
-5.59018
-4.73488
-3.77108
-2.82841
-2.00122
-1.33905
-0.850551
-0.514965
-0.299238
-0.168408
-0.0928372
-0.051002
-0.0288392
-0.0175863
-0.0126922
-0.012043
-0.0153628
-6.65981
-6.38332
-5.75085
-4.8692
-3.87756
-2.90838
-2.0591
-1.3797
-0.878772
-0.534726
-0.313448
-0.179189
-0.10161
-0.058708
-0.0362798
-0.0253813
-0.0219467
-0.024502
-0.033939
-6.90428
-6.59881
-5.91966
-4.98957
-3.9569
-2.95672
-2.08757
-1.3969
-0.890699
-0.5448
-0.323327
-0.189553
-0.112725
-0.0707041
-0.0497052
-0.0408896
-0.0415535
-0.0516226
-0.0741992
-7.22584
-6.83523
-6.07646
-5.07771
-3.99491
-2.96407
-2.08161
-1.38908
-0.887207
-0.547611
-0.332372
-0.203718
-0.13103
-0.0925029
-0.0756596
-0.0721362
-0.0820869
-0.107936
-0.156437
-7.5281
-7.03585
-6.18353
-5.10852
-3.97715
-2.92489
-2.04186
-1.36073
-0.874859
-0.550634
-0.348631
-0.230139
-0.165567
-0.134063
-0.12581
-0.133344
-0.162022
-0.218112
-0.313752
-7.84444
-7.24376
-6.2744
-5.11162
-3.93222
-2.86646
-1.99317
-1.33369
-0.872664
-0.570544
-0.387447
-0.283601
-0.231475
-0.211785
-0.2193
-0.247798
-0.311144
-0.420635
-0.595442
-8.20658
-7.41279
-6.2989
-5.05214
-3.84177
-2.78375
-1.93965
-1.31802
-0.894326
-0.623136
-0.466299
-0.383059
-0.349667
-0.349419
-0.384505
-0.450165
-0.572953
-0.769576
-1.06777
-8.44915
-7.43443
-6.20002
-4.90985
-3.70818
-2.69224
-1.90316
-1.33839
-0.965526
-0.73431
-0.611783
-0.556262
-0.550164
-0.580644
-0.660885
-0.787345
-1.00389
-1.33182
-1.81057
-8.49898
-7.32127
-6.02867
-4.74968
-3.59698
-2.65185
-1.93587
-1.43983
-1.12586
-0.940078
-0.858582
-0.838227
-0.870269
-0.947033
-1.09662
-1.31575
-1.67
-2.18326
-2.91575
-8.21771
-6.99692
-5.75225
-4.56463
-3.5158
-2.67861
-2.05865
-1.64614
-1.40113
-1.26793
-1.23622
-1.26102
-1.34569
-1.48931
-1.73884
-2.09001
-2.63447
-3.39773
-4.49209
-7.47737
-6.42827
-5.3707
-4.36607
-3.47991
-2.78848
-2.28712
-1.97242
-1.80615
-1.73307
-1.76091
-1.84267
-1.99728
-2.23242
-2.6177
-3.14776
-3.94685
-5.04709
-6.71027
-6.22201
-5.59076
-4.86098
-4.12993
-3.46603
-2.95904
-2.59994
-2.39798
-2.32066
-2.31622
-2.41396
-2.56559
-2.80889
-3.16298
-3.7249
-4.49299
-5.63896
-7.22208
-9.94317
-4.54045
-4.48175
-4.17818
-3.79403
-3.40725
-3.12228
-2.92955
-2.85521
-2.87651
-2.94901
-3.12559
-3.35854
-3.70755
-4.20867
-4.99576
-6.08774
-7.74146
-10.0976
-15.1383
-2.66808
-3.13532
-3.27462
-3.27676
-3.20944
-3.17853
-3.17347
-3.23851
-3.36394
-3.51786
-3.77629
-4.09429
-4.5565
-5.22755
-6.29882
-7.85389
-10.3264
-14.0703
-24.7632
-0.903644
-1.62611
-2.12945
-2.51427
-2.78928
-3.03399
-3.22963
-3.43816
-3.66321
-3.8932
-4.22355
-4.60968
-5.16808
-6.02511
-7.50964
-9.99901
-14.7115
-23.6261
-55.7669
)
;

boundaryField
{
    up
    {
        type            calculated;
        value           nonuniform List<scalar> 
84
(
-50.5593
-27.3636
-16.5827
-10.8512
-7.32835
-4.92203
-3.2085
-2.00078
-1.18391
-0.661855
-0.349011
-0.17378
-0.0820966
-0.0372201
-0.0165681
-0.00752782
-0.00366812
-0.0019829
-0.00117887
-0.000738845
-0.000467622
-0.000290324
-0.000171867
-8.12459e-05
-8.08403e-05
-0.000114262
-0.000142835
-0.000164275
-0.000168093
-0.000141862
-8.96003e-05
-0.000104953
-0.00122004
-0.01849
-0.0523791
-0.08854
-0.121657
-0.160856
-0.20178
-0.239284
-0.268122
-0.284419
-0.284473
-0.268283
-0.23952
-0.202051
-0.161133
-0.121898
-0.0887681
-0.0526941
-0.0188771
-0.00126675
-7.78441e-05
-6.13717e-05
-0.000124725
-0.000159621
-0.00016076
-0.000141759
-0.000114285
-8.08218e-05
-8.08726e-05
-0.000171651
-0.000290151
-0.000467454
-0.000738717
-0.00117889
-0.00198335
-0.00366956
-0.00753112
-0.016574
-0.0372278
-0.0821001
-0.173765
-0.348954
-0.661736
-1.18374
-2.00061
-3.20844
-4.92216
-7.32868
-10.8516
-16.583
-27.3637
-50.5592
)
;
    }
    low
    {
        type            calculated;
        value           nonuniform List<scalar> 
84
(
-0.975795
-2.81044
-4.82747
-6.66718
-8.0438
-8.83598
-9.09432
-8.97578
-8.62334
-8.14302
-7.77742
-7.43137
-7.04381
-6.76936
-6.5609
-6.36304
-6.20994
-6.12359
-6.0242
-5.88282
-5.78278
-5.69848
-5.59243
-5.47104
-5.30813
-5.18418
-5.15862
-5.25312
-5.42069
-5.65055
-5.91451
-6.13699
-6.38508
-6.68805
-7.01176
-7.40033
-7.86673
-8.26109
-8.55284
-8.78375
-8.95551
-9.09183
-9.09186
-8.95554
-8.78379
-8.55289
-8.26114
-7.86681
-7.40044
-7.01169
-6.68813
-6.385
-6.13692
-5.91442
-5.65047
-5.42059
-5.25305
-5.15854
-5.18413
-5.30811
-5.47113
-5.5924
-5.69849
-5.78279
-5.88282
-6.0242
-6.12359
-6.20993
-6.36301
-6.56087
-6.76932
-7.04377
-7.43134
-7.7774
-8.143
-8.62332
-8.97577
-9.09431
-8.83598
-8.04381
-6.66721
-4.82751
-2.81048
-0.975817
)
;
    }
    left
    {
        type            calculated;
        value           nonuniform List<scalar> 
19
(
-0.892075
-1.61206
-2.13762
-2.54867
-2.84762
-3.1118
-3.32231
-3.54493
-3.78245
-4.02841
-4.38101
-4.79448
-5.40119
-6.35285
-8.01718
-10.8595
-16.2966
-26.6905
-52.3953
)
;
    }
    right
    {
        type            calculated;
        value           nonuniform List<scalar> 
19
(
-0.892088
-1.61205
-2.13761
-2.54866
-2.84762
-3.1118
-3.32231
-3.54494
-3.78246
-4.02843
-4.38103
-4.79449
-5.40118
-6.35279
-8.01704
-10.8593
-16.2964
-26.6905
-52.3954
)
;
    }
    frontAndBackPlanes
    {
        type            empty;
    }
}


// ************************************************************************* //
