/*--------------------------------*- C++ -*----------------------------------*\
  =========                 |
  \\      /  F ield         | OpenFOAM: The Open Source CFD Toolbox
   \\    /   O peration     | Website:  https://openfoam.org
    \\  /    A nd           | Version:  7
     \\/     M anipulation  |
\*---------------------------------------------------------------------------*/
FoamFile
{
    version     2.0;
    format      ascii;
    class       volScalarField;
    location    "0.27";
    object      gradTx;
}
// * * * * * * * * * * * * * * * * * * * * * * * * * * * * * * * * * * * * * //

dimensions      [0 -1 0 1 0 0 0];

internalField   nonuniform List<scalar> 
1596
(
-0.16195
-0.81342
-1.45973
-2.0481
-2.57666
-3.04536
-3.47574
-3.88155
-4.2811
-4.70981
-5.17689
-5.72488
-6.40474
-7.2921
-8.47748
-10.1923
-12.7959
-17.0657
-24.609
0.0354333
-0.67766
-1.31339
-1.86705
-2.35309
-2.77527
-3.15293
-3.49286
-3.80864
-4.11842
-4.42336
-4.74592
-5.09331
-5.47686
-5.88555
-6.30036
-6.61926
-6.6357
-5.91269
0.197115
-0.555339
-1.17076
-1.68449
-2.12353
-2.49679
-2.82089
-3.10022
-3.34378
-3.56114
-3.75014
-3.92225
-4.07321
-4.19933
-4.28193
-4.28935
-4.13948
-3.6897
-2.66185
0.222584
-0.491871
-1.05558
-1.51624
-1.90274
-2.22616
-2.4995
-2.72624
-2.91203
-3.06167
-3.17279
-3.25071
-3.28951
-3.28263
-3.21519
-3.06174
-2.76921
-2.25147
-1.34226
0.064608
-0.516509
-0.988655
-1.37931
-1.70688
-1.97978
-2.20604
-2.38819
-2.52932
-2.63115
-2.69237
-2.71459
-2.69308
-2.62193
-2.49147
-2.28387
-1.96767
-1.49326
-0.764578
-0.264013
-0.640021
-0.985252
-1.28895
-1.5506
-1.77145
-1.9533
-2.09692
-2.20303
-2.27113
-2.30084
-2.29144
-2.23966
-2.14078
-1.98917
-1.77259
-1.47332
-1.06311
-0.487208
-0.701802
-0.852366
-1.05112
-1.25504
-1.44424
-1.61052
-1.74886
-1.85731
-1.9342
-1.97712
-1.98611
-1.95881
-1.89298
-1.78482
-1.63126
-1.42372
-1.15259
-0.801782
-0.340141
-1.16118
-1.11411
-1.16959
-1.27073
-1.38485
-1.49514
-1.59049
-1.66566
-1.71659
-1.73919
-1.73327
-1.69534
-1.62365
-1.51496
-1.36763
-1.17542
-0.933328
-0.632157
-0.254223
-1.63709
-1.44888
-1.37631
-1.37373
-1.40712
-1.45506
-1.50223
-1.54025
-1.56281
-1.56425
-1.54353
-1.4963
-1.42075
-1.31379
-1.17435
-0.997544
-0.780769
-0.518615
-0.200815
-1.9228
-1.68166
-1.53285
-1.45554
-1.42491
-1.42072
-1.42675
-1.43276
-1.43101
-1.41477
-1.38212
-1.32825
-1.25113
-1.14783
-1.01748
-0.8562
-0.6627
-0.433859
-0.163694
-2.15493
-1.89072
-1.69571
-1.56297
-1.47839
-1.4264
-1.39259
-1.36644
-1.33961
-1.30482
-1.2593
-1.19799
-1.11851
-1.01791
-0.895236
-0.747173
-0.573006
-0.370872
-0.13729
-2.39038
-2.1233
-1.89937
-1.72308
-1.59008
-1.49101
-1.41514
-1.35317
-1.29716
-1.2398
-1.1777
-1.10562
-1.02078
-0.920029
-0.802128
-0.663969
-0.504918
-0.323662
-0.118005
-2.45188
-2.22031
-2.00138
-1.81117
-1.65393
-1.52648
-1.42235
-1.33455
-1.25644
-1.18139
-1.10596
-1.02513
-0.935999
-0.835424
-0.721987
-0.592806
-0.447238
-0.284278
-0.102423
-2.4636
-2.27111
-2.0706
-1.88083
-1.71167
-1.56532
-1.43961
-1.33036
-1.23276
-1.14133
-1.05303
-0.96327
-0.869175
-0.76768
-0.657226
-0.535074
-0.400469
-0.252512
-0.090062
-2.45424
-2.29731
-2.11976
-1.93863
-1.766
-1.60794
-1.46597
-1.33887
-1.22396
-1.11724
-1.01638
-0.917419
-0.817651
-0.714154
-0.60527
-0.488351
-0.362486
-0.226749
-0.0801212
-2.38873
-2.26995
-2.12031
-1.95611
-1.78979
-1.62961
-1.47977
-1.34166
-1.2147
-1.09654
-0.985799
-0.879326
-0.774772
-0.669466
-0.561766
-0.449157
-0.330623
-0.2052
-0.0718751
-2.26549
-2.1828
-2.0637
-1.92245
-1.77075
-1.61761
-1.46881
-1.32763
-1.19532
-1.07107
-0.954588
-0.843616
-0.736299
-0.63033
-0.524187
-0.415559
-0.303432
-0.186884
-0.0649282
-2.12208
-2.06232
-1.96995
-1.85257
-1.71929
-1.57858
-1.43683
-1.2985
-1.16621
-1.04048
-0.922016
-0.809454
-0.70147
-0.596146
-0.492108
-0.387252
-0.280652
-0.171549
-0.0591163
-2.0017
-1.96054
-1.88879
-1.79085
-1.67336
-1.54381
-1.40879
-1.27359
-1.14193
-1.01547
-0.89579
-0.78232
-0.674188
-0.569756
-0.467675
-0.36588
-0.26344
-0.159817
-0.0545523
-1.79612
-1.7792
-1.73105
-1.65687
-1.56171
-1.45167
-1.3327
-1.21012
-1.08814
-0.969146
-0.855355
-0.746898
-0.643368
-0.543462
-0.445872
-0.348495
-0.25028
-0.150961
-0.0509444
-1.57024
-1.57248
-1.5456
-1.49388
-1.42123
-1.33247
-1.23266
-1.12672
-1.01893
-0.911992
-0.808471
-0.708978
-0.613471
-0.520945
-0.430086
-0.338525
-0.244589
-0.147675
-0.0492104
-1.33599
-1.35074
-1.34159
-1.31038
-1.25957
-1.19269
-1.11387
-1.0274
-0.93732
-0.846349
-0.75704
-0.670245
-0.586128
-0.503979
-0.422564
-0.339195
-0.250944
-0.155168
-0.0520642
-1.07757
-1.09871
-1.10405
-1.09235
-1.06415
-1.02139
-0.967057
-0.904544
-0.837354
-0.767864
-0.698208
-0.629185
-0.56092
-0.493028
-0.424696
-0.353476
-0.275362
-0.184101
-0.0716281
-0.787061
-0.776229
-0.753202
-0.718415
-0.674559
-0.625244
-0.574615
-0.526132
-0.482473
-0.44465
-0.412126
-0.383196
-0.355502
-0.326888
-0.295603
-0.259638
-0.215707
-0.156921
-0.0703452
-0.526415
-0.587174
-0.656089
-0.723294
-0.78174
-0.826473
-0.855472
-0.868472
-0.867011
-0.853089
-0.828097
-0.793619
-0.75044
-0.700538
-0.646231
-0.589691
-0.530471
-0.464379
-0.379384
-0.178738
-0.208799
-0.248862
-0.293127
-0.337336
-0.378429
-0.415274
-0.447463
-0.475649
-0.50026
-0.519983
-0.533575
-0.538026
-0.532047
-0.516013
-0.493495
-0.467495
-0.44165
-0.416712
0.169672
0.131485
0.0777578
0.0140744
-0.0544354
-0.123697
-0.191358
-0.256227
-0.318289
-0.377625
-0.432537
-0.480724
-0.517578
-0.539576
-0.545292
-0.538154
-0.522541
-0.504125
-0.485397
0.518171
0.466216
0.394046
0.308152
0.21444
0.117749
0.0212182
-0.0735935
-0.166487
-0.257707
-0.345891
-0.428327
-0.499153
-0.552149
-0.582764
-0.592665
-0.586878
-0.573318
-0.556611
0.834606
0.761768
0.666862
0.557719
0.440625
0.32066
0.201044
0.0830896
-0.0334306
-0.149538
-0.264951
-0.377597
-0.481296
-0.567355
-0.62685
-0.657401
-0.662698
-0.652848
-0.635912
1.16491
1.06697
0.946878
0.812961
0.671819
0.528777
0.387022
0.247562
0.10966
-0.0286443
-0.168546
-0.30969
-0.447121
-0.571093
-0.668045
-0.728975
-0.752258
-0.748212
-0.729697
1.41748
1.29041
1.14485
0.989099
0.829789
0.671761
0.517416
0.366876
0.218555
0.0693582
-0.0835875
-0.242506
-0.40555
-0.564845
-0.704339
-0.807419
-0.861332
-0.869935
-0.848386
1.65747
1.50511
1.33476
1.15796
0.981793
0.810532
0.645767
0.486862
0.33167
0.176395
0.0169848
-0.151355
-0.331167
-0.520115
-0.705082
-0.866159
-0.976311
-1.02167
-1.00918
1.88385
1.69871
1.50175
1.30484
1.11422
0.932918
0.761435
0.598363
0.441261
0.28618
0.128854
-0.0368019
-0.217051
-0.417005
-0.633022
-0.853641
-1.04644
-1.17467
-1.20128
2.03729
1.80242
1.56488
1.33511
1.11745
0.913231
0.721681
0.540749
0.367848
0.199326
0.0313333
-0.141874
-0.327675
-0.536203
-0.775448
-1.05306
-1.35717
-1.66007
-1.90839
2.14007
1.88197
1.63967
1.41975
1.22224
1.04522
0.88561
0.74028
0.606315
0.480923
0.362021
0.247074
0.1332
0.0156747
-0.11271
-0.266596
-0.461613
-0.716086
-1.03919
2.22247
1.95416
1.71881
1.51383
1.33418
1.17542
1.03316
0.904014
0.785279
0.674671
0.57103
0.473493
0.381683
0.295799
0.216721
0.144151
0.076865
0.00915304
-0.0701683
2.11993
1.81298
1.5547
1.33487
1.14524
0.979824
0.833498
0.702452
0.583774
0.474995
0.374848
0.282402
0.197157
0.119297
0.0499658
-0.00958823
-0.0572243
-0.090695
-0.108917
1.87435
1.59177
1.35842
1.1628
0.996333
0.852799
0.727164
0.615716
0.515738
0.425027
0.342412
0.267055
0.198371
0.136176
0.080699
0.0319041
-0.010125
-0.0453407
-0.0741552
1.56731
1.32769
1.13001
0.965182
0.825912
0.70666
0.603017
0.511683
0.430288
0.356909
0.290444
0.230074
0.17509
0.125064
0.0798678
0.039184
0.00286088
-0.029071
-0.056874
1.18628
1.00021
0.848517
0.723378
0.618613
0.529575
0.452687
0.385286
0.325493
0.271785
0.223248
0.179196
0.138993
0.102228
0.068734
0.0382528
0.0106965
-0.0138113
-0.0353724
0.749904
0.625638
0.527382
0.447879
0.382144
0.326725
0.27914
0.237591
0.200837
0.167881
0.13811
0.111061
0.0862939
0.0635166
0.0425971
0.0233657
0.0057759
-0.0100446
-0.0240971
0.288722
0.238987
0.201004
0.170671
0.145663
0.124548
0.106369
0.0904515
0.076338
0.0636609
0.0521839
0.0417253
0.032108
0.0232048
0.014943
0.00723789
4.809e-05
-0.00659549
-0.0126935
-0.288583
-0.238684
-0.200595
-0.170195
-0.14515
-0.124019
-0.10584
-0.0899371
-0.0758484
-0.0632054
-0.0517702
-0.0413599
-0.0317963
-0.0229518
-0.0147523
-0.00711237
1.0394e-05
0.00658682
0.0126188
-0.749776
-0.625373
-0.527028
-0.44747
-0.381706
-0.326278
-0.2787
-0.23717
-0.200444
-0.167527
-0.1378
-0.110802
-0.0860915
-0.0633745
-0.0425183
-0.0233522
-0.00582869
0.00992657
0.0239163
-1.18616
-0.999958
-0.848176
-0.722975
-0.618172
-0.529114
-0.452223
-0.384831
-0.325058
-0.271378
-0.222877
-0.178866
-0.138708
-0.10199
-0.0685438
-0.0381093
-0.0105971
0.0138706
0.0353965
-1.56722
-1.32752
-1.12979
-0.964919
-0.825627
-0.706366
-0.602728
-0.51141
-0.43004
-0.356694
-0.290269
-0.229944
-0.175007
-0.12503
-0.0798802
-0.0392401
-0.00295604
0.0289425
0.056718
-1.87429
-1.59167
-1.35828
-1.16263
-0.99614
-0.852595
-0.726962
-0.615525
-0.515569
-0.424888
-0.34231
-0.266997
-0.19836
-0.136211
-0.0807788
-0.032021
0.00998237
0.045187
0.0740082
-2.11994
-1.81297
-1.55467
-1.33481
-1.14515
-0.979733
-0.833411
-0.702381
-0.583732
-0.474993
-0.374897
-0.282512
-0.197336
-0.119553
-0.0502973
0.0091944
0.0568031
0.0903048
0.108626
-2.22248
-1.954
-1.71841
-1.51317
-1.33324
-1.17422
-1.03171
-0.902344
-0.783408
-0.672619
-0.568816
-0.471133
-0.379184
-0.29317
-0.213982
-0.141376
-0.0742322
-0.00704197
0.07113
-2.14047
-1.88304
-1.64143
-1.42219
-1.22534
-1.04896
-0.889936
-0.745166
-0.611733
-0.48686
-0.368484
-0.2541
-0.140879
-0.0241745
0.103126
0.255547
0.448722
0.701178
1.02261
-2.03715
-1.802
-1.56415
-1.33403
-1.11605
-0.91151
-0.719672
-0.538489
-0.365374
-0.19668
-0.0285595
0.144725
0.330544
0.539043
0.778268
1.05601
1.36069
1.6649
1.91553
-1.88399
-1.69904
-1.50225
-1.30546
-1.11495
-0.933721
-0.762299
-0.599275
-0.442217
-0.287184
-0.129916
0.0356685
0.215845
0.415766
0.631877
0.852828
1.04625
1.17527
1.20245
-1.65756
-1.50532
-1.33507
-1.15835
-0.982244
-0.811028
-0.646298
-0.487423
-0.332261
-0.177019
-0.0176426
0.150671
0.330492
0.519534
0.704733
0.866199
0.976822
1.02258
1.01029
-1.41757
-1.29062
-1.14516
-0.989495
-0.830249
-0.672267
-0.517956
-0.367438
-0.219133
-0.0699449
0.0830037
0.241952
0.40508
0.564543
0.704299
0.807698
0.861903
0.870687
0.849192
-1.165
-1.06717
-0.947188
-0.813361
-0.672288
-0.529296
-0.387571
-0.248126
-0.110226
0.0280931
0.168031
0.309247
0.446803
0.570962
0.668145
0.729306
0.752763
0.748811
0.730335
-0.834679
-0.761954
-0.667152
-0.558097
-0.44107
-0.32115
-0.201558
-0.0836093
0.0329242
0.149065
0.264538
0.377279
0.481113
0.567344
0.627023
0.657734
0.663141
0.653353
0.636454
-0.518249
-0.466408
-0.394345
-0.308541
-0.214898
-0.11825
-0.0217378
0.0730793
0.166001
0.257273
0.345537
0.428081
0.499044
0.552194
0.582956
0.592978
0.587274
0.573768
0.557105
-0.169738
-0.131664
-0.0780434
-0.0144499
0.053994
0.123217
0.190867
0.255752
0.317855
0.377258
0.432258
0.480557
0.517539
0.539669
0.545502
0.53846
0.522919
0.50456
0.485889
0.178587
0.20834
0.248075
0.292027
0.335964
0.376849
0.413563
0.445701
0.473912
0.498619
0.518493
0.532281
0.53695
0.531192
0.515362
0.493033
0.467219
0.441601
0.41701
0.526522
0.587585
0.656885
0.724513
0.783382
0.828497
0.857811
0.87104
0.869718
0.855849
0.830833
0.796275
0.752973
0.702928
0.648473
0.591797
0.532456
0.466253
0.381133
0.78695
0.775826
0.752494
0.717425
0.673336
0.623854
0.573131
0.524626
0.481006
0.443274
0.410875
0.382091
0.354552
0.326091
0.29495
0.259119
0.215313
0.156653
0.0702274
1.07764
1.09885
1.10425
1.09262
1.06446
1.02172
0.967389
0.904857
0.837634
0.7681
0.698398
0.629329
0.561023
0.493096
0.424736
0.353492
0.275359
0.184089
0.0716194
1.336
1.35076
1.34162
1.31042
1.25961
1.19273
1.1139
1.02743
0.937342
0.846363
0.757046
0.670243
0.58612
0.503967
0.422549
0.339178
0.250927
0.155156
0.0520608
1.57025
1.5725
1.54562
1.4939
1.42126
1.3325
1.23268
1.12673
1.01894
0.911999
0.80847
0.708973
0.613461
0.520932
0.430072
0.338512
0.244578
0.147668
0.0492086
1.79613
1.77922
1.73107
1.65689
1.56173
1.45169
1.33272
1.21013
1.08815
0.969146
0.85535
0.74689
0.643357
0.54345
0.445861
0.348485
0.250272
0.150957
0.0509431
2.00171
1.96056
1.88881
1.79087
1.67338
1.54383
1.40881
1.2736
1.14193
1.01547
0.895784
0.782311
0.674177
0.569746
0.467665
0.365872
0.263434
0.159813
0.0545513
2.12209
2.06233
1.96997
1.85258
1.7193
1.57859
1.43684
1.2985
1.16621
1.04047
0.922009
0.809445
0.70146
0.596136
0.492099
0.387245
0.280647
0.171546
0.0591155
2.2655
2.18281
2.06371
1.92246
1.77076
1.61762
1.46881
1.32763
1.19531
1.07106
0.954579
0.843607
0.73629
0.630321
0.524179
0.415552
0.303427
0.186882
0.0649276
2.38874
2.26996
2.12033
1.95612
1.7898
1.62961
1.47977
1.34166
1.2147
1.09653
0.985791
0.879318
0.774763
0.669458
0.561759
0.449152
0.330619
0.205198
0.0718746
2.45424
2.29732
2.11976
1.93864
1.766
1.60794
1.46597
1.33887
1.22395
1.11723
1.01637
0.91741
0.817643
0.714146
0.605263
0.488346
0.362482
0.226747
0.080121
2.4636
2.27112
2.07061
1.88084
1.71167
1.56532
1.4396
1.33036
1.23275
1.14133
1.05302
0.963263
0.869167
0.767673
0.65722
0.53507
0.400466
0.252511
0.0900621
2.45188
2.22032
2.00139
1.81118
1.65394
1.52648
1.42234
1.33455
1.25644
1.18138
1.10595
1.02512
0.935994
0.835419
0.721984
0.592804
0.447237
0.284279
0.102423
2.39037
2.1233
1.89937
1.72307
1.59007
1.49101
1.41513
1.35316
1.29715
1.23979
1.17769
1.10561
1.02077
0.920024
0.802125
0.663967
0.504918
0.323663
0.118005
2.15494
1.89073
1.69572
1.56297
1.47839
1.4264
1.39259
1.36643
1.3396
1.30482
1.2593
1.19798
1.11851
1.01791
0.895236
0.747174
0.573008
0.370874
0.137291
1.92282
1.68168
1.53286
1.45554
1.42491
1.42072
1.42675
1.43276
1.43101
1.41477
1.38212
1.32825
1.25113
1.14783
1.01748
0.856203
0.662704
0.433862
0.163695
1.63711
1.44889
1.37632
1.37373
1.40712
1.45506
1.50223
1.54024
1.56281
1.56425
1.54353
1.4963
1.42075
1.31379
1.17435
0.997549
0.780774
0.518618
0.200816
1.1612
1.11412
1.1696
1.27073
1.38485
1.49514
1.59049
1.66566
1.71659
1.73919
1.73327
1.69534
1.62365
1.51496
1.36764
1.17543
0.933333
0.632159
0.254223
0.701813
0.852373
1.05113
1.25504
1.44425
1.61052
1.74886
1.85731
1.9342
1.97712
1.98611
1.95881
1.89298
1.78483
1.63126
1.42373
1.1526
0.801784
0.340141
0.264021
0.640026
0.985256
1.28895
1.5506
1.77146
1.9533
2.09692
2.20303
2.27113
2.30084
2.29144
2.23966
2.14078
1.98917
1.7726
1.47333
1.06311
0.487207
-0.0646036
0.516514
0.98866
1.37932
1.70688
1.97978
2.20604
2.38819
2.52932
2.63116
2.69237
2.7146
2.69308
2.62194
2.49147
2.28387
1.96767
1.49326
0.764577
-0.222584
0.491874
1.05558
1.51624
1.90274
2.22616
2.4995
2.72624
2.91203
3.06167
3.17279
3.25071
3.28951
3.28263
3.21519
3.06174
2.76921
2.25147
1.34226
-0.197117
0.555339
1.17076
1.68449
2.12353
2.49679
2.82089
3.10022
3.34378
3.56114
3.75014
3.92225
4.07321
4.19933
4.28193
4.28934
4.13947
3.6897
2.66185
-0.0354337
0.67766
1.31339
1.86705
2.35308
2.77527
3.15293
3.49286
3.80864
4.11842
4.42336
4.74592
5.09331
5.47685
5.88554
6.30035
6.61925
6.6357
5.91268
0.161951
0.813421
1.45973
2.0481
2.57666
3.04536
3.47574
3.88155
4.2811
4.70981
5.17689
5.72488
6.40474
7.29209
8.47747
10.1923
12.7959
17.0657
24.609
)
;

boundaryField
{
    up
    {
        type            calculated;
        value           nonuniform List<scalar> 
84
(
-24.609
-5.91269
-2.66185
-1.34226
-0.764578
-0.487208
-0.340141
-0.254223
-0.200815
-0.163694
-0.13729
-0.118005
-0.102423
-0.090062
-0.0801212
-0.0718751
-0.0649282
-0.0591163
-0.0545523
-0.0509444
-0.0492104
-0.0520642
-0.0716281
-0.0703452
-0.325558
-0.391527
-0.461105
-0.530748
-0.607046
-0.696137
-0.806206
-0.945347
-1.10279
-1.89783
-1.07786
-0.0723431
-0.10887
-0.0740672
-0.0568208
-0.0353565
-0.024094
-0.0126983
0.0126235
0.0239134
0.0353808
0.0566651
0.0739206
0.108578
0.0732769
1.06076
1.90634
1.10383
0.946318
0.806961
0.696751
0.607577
0.53124
0.461606
0.391988
0.327155
0.0702274
0.0716194
0.0520608
0.0492086
0.0509431
0.0545513
0.0591155
0.0649276
0.0718746
0.080121
0.0900621
0.102423
0.118005
0.137291
0.163695
0.200816
0.254223
0.340141
0.487207
0.764577
1.34226
2.66185
5.91268
24.609
)
;
    }
    low
    {
        type            calculated;
        value           nonuniform List<scalar> 
84
(
-0.146099
0.0591857
0.235715
0.264818
0.0913245
-0.268985
-0.742953
-1.2306
-1.71748
-1.98851
-2.21182
-2.43469
-2.46794
-2.46188
-2.44107
-2.35965
-2.22321
-2.07652
-1.94839
-1.72885
-1.49693
-1.26251
-1.00694
-0.725871
-0.479149
-0.161772
0.15034
0.469794
0.771784
1.10079
1.36325
1.61173
1.85126
2.02266
2.14017
2.24042
2.15738
1.91626
1.60574
1.21749
0.770863
0.297562
-0.297423
-0.770731
-1.21736
-1.60563
-1.91619
-2.15736
-2.2404
-2.14051
-2.02251
-1.85137
-1.61181
-1.36334
-1.10088
-0.77186
-0.469876
-0.150407
0.161625
0.479255
0.725768
1.007
1.26252
1.49694
1.72886
1.9484
2.07653
2.22321
2.35966
2.44107
2.46189
2.46794
2.43468
2.21183
1.98853
1.7175
1.23062
0.742966
0.268993
-0.0913201
-0.264819
-0.235718
-0.0591877
0.146099
)
;
    }
    left
    {
        type            calculated;
        value           nonuniform List<scalar> 
19
(
-0.143552
-0.780331
-1.43935
-2.04763
-2.59859
-3.08895
-3.54206
-3.97403
-4.40315
-4.8743
-5.39616
-6.0171
-6.80431
-7.86003
-9.29866
-11.4465
-14.8023
-20.4521
-21.3448
)
;
    }
    right
    {
        type            calculated;
        value           nonuniform List<scalar> 
19
(
0.143553
0.780333
1.43935
2.04763
2.59859
3.08895
3.54206
3.97403
4.40315
4.87429
5.39616
6.0171
6.8043
7.86002
9.29865
11.4465
14.8023
20.4521
21.3448
)
;
    }
    frontAndBackPlanes
    {
        type            empty;
    }
}


// ************************************************************************* //
