/*--------------------------------*- C++ -*----------------------------------*\
  =========                 |
  \\      /  F ield         | OpenFOAM: The Open Source CFD Toolbox
   \\    /   O peration     | Website:  https://openfoam.org
    \\  /    A nd           | Version:  7
     \\/     M anipulation  |
\*---------------------------------------------------------------------------*/
FoamFile
{
    version     2.0;
    format      ascii;
    class       volScalarField;
    location    "0.27";
    object      T;
}
// * * * * * * * * * * * * * * * * * * * * * * * * * * * * * * * * * * * * * //

dimensions      [0 0 0 1 0 0 0];

internalField   nonuniform List<scalar> 
1596
(
3.98983
3.96065
3.93075
3.90235
3.87599
3.85135
3.82788
3.80438
3.77997
3.75262
3.72074
3.68217
3.63209
3.56371
3.46647
3.31676
3.07051
2.63965
1.84765
3.95601
3.86514
3.77928
3.70009
3.62741
3.55998
3.4962
3.43355
3.36982
3.30125
3.22466
3.1362
3.02873
2.89346
2.71943
2.48575
2.16
1.6863
0.958841
3.91599
3.76311
3.62542
3.50115
3.38838
3.2847
3.18761
3.09378
3.00027
2.90264
2.79713
2.67945
2.5425
2.37817
2.17753
1.92507
1.59938
1.16737
0.567336
3.87641
3.66543
3.48095
3.31707
3.16983
3.03572
2.91148
2.79332
2.67789
2.56056
2.43751
2.30449
2.15505
1.9823
1.77934
1.53498
1.23535
0.861148
0.376491
3.8435
3.58218
3.35672
3.15828
2.98128
2.82138
2.67476
2.53737
2.40566
2.27503
2.14173
2.00171
1.84918
1.67827
1.48358
1.25681
0.988735
0.667867
0.27295
3.82129
3.52028
3.26021
3.03175
2.82872
2.64638
2.48063
2.32731
2.18281
2.04262
1.90312
1.7604
1.60922
1.44443
1.26156
1.05416
0.815688
0.539007
0.211018
3.81037
3.48169
3.19381
2.93959
2.71352
2.51106
2.32816
2.16074
2.00523
1.85725
1.7133
1.56961
1.42128
1.26365
1.09279
0.903363
0.690376
0.449061
0.170877
3.80843
3.46365
3.15499
2.87925
2.63277
2.41192
2.21308
2.03245
1.86663
1.71143
1.56344
1.41901
1.27348
1.1225
0.962417
0.788559
0.596802
0.383646
0.143115
3.81316
3.46225
3.13946
2.84634
2.58196
2.34417
2.13018
1.93671
1.76068
1.59812
1.44579
1.3001
1.1566
1.01108
0.860071
0.699247
0.52496
0.334365
0.122921
3.81964
3.4692
3.13814
2.83192
2.55245
2.29946
2.07132
1.86549
1.67935
1.50928
1.35221
1.20467
1.06233
0.921124
0.777604
0.62766
0.46788
0.295724
0.107481
3.8249
3.47775
3.14269
2.82729
2.53574
2.26966
2.02874
1.81137
1.61553
1.43803
1.27603
1.12621
0.984381
0.846535
0.709249
0.568508
0.421007
0.264309
0.0951606
3.83149
3.48947
3.15293
2.83098
2.52962
2.25214
1.99958
1.77135
1.56612
1.3812
1.21405
1.06153
0.919552
0.784198
0.652015
0.519029
0.381945
0.238315
0.085106
3.8378
3.50187
3.16551
2.83895
2.52964
2.2423
1.97928
1.74098
1.52685
1.33472
1.16242
1.00697
0.86445
0.730976
0.603065
0.476733
0.348648
0.216276
0.0766781
3.84175
3.51106
3.17568
2.84602
2.53046
2.23487
1.96273
1.71545
1.49321
1.29443
1.1173
0.959063
0.815925
0.684058
0.559936
0.439544
0.319479
0.197079
0.069415
3.84513
3.51852
3.18402
2.85192
2.53114
2.22843
1.94826
1.6929
1.4633
1.25844
1.07686
0.916049
0.772337
0.641943
0.521293
0.40632
0.293525
0.180097
0.0630529
3.84842
3.52522
3.19122
2.85681
2.53131
2.22219
1.93473
1.67202
1.4357
1.22526
1.03964
0.876515
0.732358
0.603416
0.486056
0.376144
0.270065
0.164838
0.0573932
3.85074
3.53011
3.19621
2.85946
2.52954
2.21453
1.92042
1.65105
1.40864
1.19321
1.00403
0.838976
0.694631
0.567264
0.453177
0.348147
0.248431
0.150864
0.052264
3.85242
3.53354
3.19927
2.86001
2.52577
2.20517
1.90487
1.62933
1.38138
1.16147
0.969187
0.802579
0.658326
0.532707
0.421946
0.321725
0.228154
0.137866
0.0475431
3.85548
3.53867
3.20379
2.86169
2.52287
2.19654
1.89
1.60836
1.35497
1.13074
0.935494
0.767459
0.623383
0.49954
0.392077
0.296567
0.208958
0.125653
0.0431567
3.85919
3.54522
3.20985
2.86476
2.52113
2.18886
1.87594
1.58814
1.32931
1.10076
0.902607
0.733179
0.589289
0.467198
0.362978
0.272109
0.190374
0.11392
0.039001
3.86202
3.55093
3.21531
2.86734
2.51894
2.18075
1.86151
1.5676
1.30343
1.07069
0.869711
0.69895
0.55526
0.434885
0.333843
0.247566
0.171723
0.10221
0.034927
3.86487
3.5566
3.22083
2.87009
2.51695
2.17285
1.84727
1.54725
1.2777
1.04072
0.836838
0.664631
0.520981
0.402109
0.304003
0.222113
0.152128
0.0898248
0.03069
3.86813
3.5629
3.22707
2.87361
2.51576
2.16573
1.83374
1.52751
1.25244
1.011
0.803967
0.63
0.486023
0.368228
0.272571
0.194575
0.130142
0.0753155
0.0255937
3.87156
3.56949
3.23359
2.87741
2.51487
2.15893
1.82055
1.50806
1.22732
0.981166
0.7706
0.594408
0.449572
0.332248
0.238325
0.163363
0.103567
0.0557276
0.0168355
3.87695
3.58301
3.25307
2.90067
2.53982
2.18363
1.8433
1.52748
1.24238
0.991242
0.775526
0.594491
0.445512
0.325014
0.229021
0.153096
0.093511
0.0473912
0.012613
3.88287
3.60027
3.28111
2.93832
2.5853
2.23465
1.89726
1.58171
1.29434
1.03879
0.817052
0.629145
0.473201
0.346302
0.244883
0.164611
0.101557
0.0524685
0.0146562
3.88581
3.61046
3.29942
2.96491
2.61955
2.27523
1.94228
1.62887
1.3412
1.08302
0.856681
0.662801
0.500291
0.367011
0.260003
0.175193
0.10858
0.0566246
0.0162006
3.88579
3.6133
3.30742
2.97959
2.64152
2.30417
1.97703
1.66761
1.3817
1.12286
0.893549
0.694845
0.526363
0.386836
0.274127
0.184641
0.114464
0.0598432
0.0172866
3.88384
3.61089
3.30792
2.98558
2.65456
2.32473
2.00455
1.70069
1.41827
1.16047
0.929666
0.72716
0.553149
0.407265
0.288408
0.19377
0.119762
0.0624979
0.0180932
3.88014
3.60457
3.30327
2.98591
2.66203
2.34032
2.02811
1.73109
1.45362
1.19836
0.967402
0.76206
0.582897
0.430342
0.304478
0.203668
0.125077
0.0648839
0.018732
3.87547
3.59661
3.29672
2.98437
2.66795
2.35494
2.05151
1.76234
1.491
1.23955
1.00968
0.802528
0.618705
0.459148
0.325052
0.216283
0.131442
0.0673738
0.0192929
3.87179
3.59032
3.29219
2.98517
2.67658
2.3727
2.07859
1.79798
1.53367
1.28714
1.05964
0.851968
0.664465
0.498077
0.354642
0.23546
0.141238
0.0707632
0.0197912
3.86831
3.58474
3.28898
2.98793
2.6878
2.39373
2.1097
1.83855
1.5824
1.34222
1.11887
0.912777
0.723803
0.552387
0.400135
0.268857
0.161062
0.0786072
0.0203056
3.86491
3.57998
3.28747
2.99329
2.70248
2.41903
2.14595
1.88526
1.63854
1.40633
1.18924
0.987477
0.800518
0.628134
0.470998
0.329988
0.207348
0.106489
0.0292739
3.86091
3.57346
3.28281
2.99392
2.71075
2.43627
2.17261
1.92115
1.68299
1.45838
1.24779
1.05138
0.86853
0.698736
0.541926
0.397564
0.265803
0.148146
0.0458845
3.85401
3.55861
3.26446
2.97545
2.69447
2.42365
2.1644
1.91753
1.68374
1.46302
1.25569
1.06186
0.880947
0.712546
0.556708
0.412829
0.280676
0.160624
0.0520666
3.84499
3.53834
3.23767
2.94548
2.66361
2.39339
2.13559
1.89056
1.65865
1.43958
1.23358
1.04073
0.860494
0.692634
0.537531
0.394985
0.265335
0.149582
0.0475555
3.83737
3.5213
3.21523
2.92042
2.63786
2.36816
2.11163
1.86819
1.63796
1.42048
1.21591
1.02434
0.845284
0.678639
0.524957
0.384193
0.256831
0.143986
0.0455181
3.83186
3.50859
3.19823
2.90127
2.61803
2.34866
2.09304
1.85081
1.62191
1.40572
1.20238
1.01196
0.834038
0.668546
0.516136
0.376828
0.251173
0.140356
0.0442574
3.82765
3.49887
3.18523
2.88661
2.60286
2.33372
2.07878
1.83749
1.60961
1.39445
1.1921
1.00265
0.825658
0.661109
0.509706
0.371509
0.247115
0.137769
0.0433736
3.82457
3.49179
3.17582
2.87606
2.59198
2.32303
2.06861
1.82799
1.60086
1.38645
1.18483
0.996081
0.819771
0.655899
0.505206
0.36778
0.244257
0.135935
0.0427417
3.8221
3.48678
3.16957
2.86934
2.58524
2.31655
2.06254
1.8224
1.59578
1.38188
1.18074
0.992457
0.81659
0.653148
0.502886
0.365904
0.242852
0.135053
0.0424488
3.8221
3.4868
3.16959
2.86936
2.58526
2.31657
2.06256
1.82243
1.59581
1.3819
1.18076
0.992478
0.816609
0.653164
0.502899
0.365914
0.242859
0.135057
0.0424503
3.82459
3.49183
3.17587
2.87613
2.59205
2.32311
2.06869
1.82807
1.60094
1.38653
1.1849
0.996144
0.819828
0.655949
0.505248
0.367814
0.244282
0.13595
0.0427469
3.82767
3.49893
3.18532
2.88672
2.60298
2.33384
2.07891
1.83761
1.60973
1.39457
1.19221
1.00275
0.825746
0.661186
0.50977
0.371559
0.247151
0.137791
0.0433811
3.83189
3.50868
3.19835
2.90141
2.61819
2.34882
2.0932
1.85098
1.62207
1.40587
1.20252
1.01209
0.834152
0.668645
0.516217
0.376892
0.251218
0.140383
0.0442665
3.83741
3.5214
3.21537
2.92059
2.63804
2.36836
2.11183
1.86839
1.63816
1.42067
1.21609
1.02449
0.845421
0.678756
0.525053
0.384267
0.256883
0.144017
0.0455281
3.84504
3.53845
3.23783
2.94567
2.66383
2.39361
2.13582
1.89079
1.65887
1.43979
1.23378
1.0409
0.860644
0.692759
0.537629
0.395057
0.265382
0.149607
0.0475624
3.85406
3.55873
3.26464
2.97566
2.69472
2.42391
2.16466
1.91779
1.68399
1.46325
1.2559
1.06204
0.881094
0.712656
0.55678
0.412865
0.280682
0.160614
0.0520581
3.86097
3.57364
3.28309
2.9943
2.7112
2.43678
2.17318
1.92175
1.68361
1.45902
1.24844
1.05202
0.86917
0.699366
0.542538
0.398145
0.266321
0.14854
0.0460554
3.86499
3.58019
3.28781
2.99375
2.70304
2.41968
2.14667
1.88604
1.63935
1.40717
1.1901
0.988342
0.801375
0.628966
0.47178
0.330683
0.207905
0.106854
0.0294066
3.86837
3.58492
3.28927
2.98833
2.68829
2.39429
2.11033
1.83922
1.5831
1.34294
1.11959
0.913481
0.724475
0.553005
0.40067
0.269278
0.161344
0.0787477
0.0203329
3.87185
3.59048
3.29246
2.98555
2.67704
2.37323
2.07919
1.79861
1.53432
1.2878
1.06029
0.852586
0.665034
0.498575
0.355045
0.235753
0.141419
0.070851
0.0198138
3.87552
3.59676
3.29697
2.98472
2.66839
2.35544
2.05207
1.76293
1.49161
1.24015
1.01026
0.80307
0.619189
0.459555
0.325368
0.216505
0.131579
0.0674436
0.0193127
3.88018
3.60471
3.3035
2.98623
2.66243
2.34078
2.02862
1.73163
1.45418
1.19891
0.967924
0.762537
0.583313
0.430683
0.304738
0.20385
0.125191
0.0649442
0.0187501
3.88388
3.61101
3.30813
2.98588
2.65493
2.32516
2.00503
1.70119
1.41878
1.16097
0.930133
0.72758
0.553509
0.407556
0.288629
0.193926
0.119862
0.0625524
0.0181102
3.88582
3.6134
3.30761
2.97985
2.64186
2.30456
1.97746
1.66807
1.38216
1.1233
0.893964
0.695215
0.526677
0.387089
0.274319
0.184779
0.114554
0.0598943
0.0173034
3.88583
3.61054
3.29958
2.96514
2.61985
2.27558
1.94267
1.62928
1.34162
1.08342
0.857049
0.663128
0.500567
0.367234
0.260175
0.175319
0.108666
0.056675
0.0162183
3.88289
3.60034
3.28124
2.93852
2.58556
2.23496
1.89761
1.58207
1.29471
1.03914
0.817377
0.629433
0.473446
0.346502
0.24504
0.164729
0.101641
0.0525209
0.0146764
3.87695
3.58302
3.2531
2.90072
2.53989
2.18371
1.8434
1.52758
1.24248
0.991338
0.775612
0.594562
0.445566
0.325051
0.229042
0.153104
0.0935095
0.047385
0.0126084
3.87155
3.56946
3.23355
2.87736
2.51481
2.15886
1.82048
1.50798
1.22724
0.981094
0.770533
0.594345
0.449514
0.332195
0.238276
0.16332
0.103532
0.0557021
0.0168238
3.86812
3.5629
3.22706
2.8736
2.51575
2.16572
1.83373
1.5275
1.25243
1.011
0.803969
0.630004
0.48603
0.368236
0.272579
0.194583
0.130148
0.0753199
0.025595
3.86486
3.5566
3.22082
2.87008
2.51694
2.17284
1.84726
1.54724
1.2777
1.04072
0.836841
0.664636
0.520987
0.402116
0.304009
0.222118
0.152132
0.0898274
0.0306907
3.86202
3.55093
3.2153
2.86733
2.51893
2.18074
1.8615
1.5676
1.30343
1.07069
0.869714
0.698954
0.555266
0.434891
0.333848
0.24757
0.171726
0.102212
0.0349276
3.85919
3.54521
3.20984
2.86476
2.52113
2.18885
1.87594
1.58814
1.32931
1.10077
0.902611
0.733183
0.589294
0.467203
0.362982
0.272112
0.190376
0.113922
0.0390014
3.85548
3.53867
3.20379
2.86169
2.52287
2.19654
1.89
1.60836
1.35498
1.13074
0.935497
0.767462
0.623387
0.499544
0.39208
0.29657
0.208959
0.125654
0.0431569
3.85242
3.53354
3.19927
2.86001
2.52577
2.20517
1.90487
1.62934
1.38138
1.16148
0.96919
0.802582
0.658329
0.532709
0.421948
0.321727
0.228155
0.137867
0.0475432
3.85074
3.53011
3.19621
2.85946
2.52954
2.21453
1.92043
1.65105
1.40864
1.19321
1.00403
0.838979
0.694633
0.567266
0.453178
0.348148
0.248432
0.150865
0.052264
3.84842
3.52522
3.19122
2.85681
2.53131
2.22219
1.93473
1.67203
1.4357
1.22526
1.03964
0.876517
0.732359
0.603416
0.486057
0.376144
0.270065
0.164838
0.0573932
3.84513
3.51852
3.18402
2.85192
2.53114
2.22843
1.94826
1.6929
1.4633
1.25844
1.07686
0.916049
0.772337
0.641943
0.521292
0.406319
0.293525
0.180096
0.0630529
3.84175
3.51106
3.17568
2.84602
2.53046
2.23487
1.96274
1.71545
1.49321
1.29443
1.1173
0.959063
0.815925
0.684057
0.559935
0.439543
0.319478
0.197079
0.0694149
3.8378
3.50187
3.16551
2.83895
2.52964
2.24231
1.97928
1.74098
1.52685
1.33472
1.16242
1.00697
0.864449
0.730975
0.603063
0.476732
0.348647
0.216276
0.0766781
3.83149
3.48948
3.15294
2.83098
2.52962
2.25214
1.99958
1.77135
1.56612
1.3812
1.21405
1.06153
0.919551
0.784196
0.652014
0.519028
0.381944
0.238314
0.0851061
3.8249
3.47775
3.14269
2.82729
2.53574
2.26966
2.02874
1.81137
1.61553
1.43803
1.27603
1.12621
0.984379
0.846533
0.709247
0.568507
0.421006
0.264309
0.0951609
3.81964
3.4692
3.13814
2.83192
2.55245
2.29946
2.07131
1.86549
1.67935
1.50928
1.35221
1.20467
1.06233
0.921122
0.777603
0.627658
0.467879
0.295725
0.107482
3.81316
3.46225
3.13945
2.84634
2.58195
2.34416
2.13018
1.93671
1.76067
1.59812
1.44578
1.3001
1.15659
1.01108
0.86007
0.699246
0.52496
0.334365
0.122922
3.80843
3.46365
3.15499
2.87924
2.63276
2.41192
2.21308
2.03245
1.86663
1.71143
1.56344
1.419
1.27348
1.12249
0.962415
0.788558
0.596802
0.383647
0.143115
3.81037
3.48169
3.19381
2.93959
2.71351
2.51105
2.32815
2.16073
2.00522
1.85725
1.7133
1.56961
1.42128
1.26365
1.09279
0.903363
0.690376
0.449061
0.170877
3.82128
3.52027
3.2602
3.03174
2.82872
2.64638
2.48063
2.32731
2.18281
2.04262
1.90311
1.7604
1.60922
1.44443
1.26156
1.05416
0.815688
0.539007
0.211018
3.84349
3.58217
3.35672
3.15827
2.98128
2.82138
2.67476
2.53737
2.40566
2.27503
2.14173
2.00171
1.84918
1.67827
1.48358
1.25682
0.988735
0.667867
0.27295
3.87641
3.66542
3.48095
3.31707
3.16983
3.03572
2.91148
2.79332
2.67788
2.56056
2.4375
2.30448
2.15505
1.9823
1.77934
1.53498
1.23535
0.861149
0.37649
3.91599
3.76311
3.62542
3.50115
3.38837
3.2847
3.1876
3.09378
3.00027
2.90263
2.79713
2.67945
2.5425
2.37817
2.17753
1.92507
1.59938
1.16737
0.567335
3.95601
3.86514
3.77928
3.70009
3.62741
3.55998
3.4962
3.43354
3.36982
3.30125
3.22466
3.1362
3.02873
2.89346
2.71943
2.48575
2.16
1.6863
0.95884
3.98983
3.96065
3.93075
3.90235
3.87599
3.85135
3.82788
3.80438
3.77997
3.75262
3.72074
3.68217
3.63209
3.56371
3.46647
3.31676
3.07051
2.63964
1.84765
)
;

boundaryField
{
    up
    {
        type            fixedValue;
        value           uniform 0;
    }
    low
    {
        type            fixedValue;
        value           uniform 4;
    }
    left
    {
        type            fixedValue;
        value           uniform 4;
    }
    right
    {
        type            fixedValue;
        value           uniform 4;
    }
    frontAndBackPlanes
    {
        type            empty;
    }
}


// ************************************************************************* //
