/*--------------------------------*- C++ -*----------------------------------*\
  =========                 |
  \\      /  F ield         | OpenFOAM: The Open Source CFD Toolbox
   \\    /   O peration     | Website:  https://openfoam.org
    \\  /    A nd           | Version:  7
     \\/     M anipulation  |
\*---------------------------------------------------------------------------*/
FoamFile
{
    version     2.0;
    format      ascii;
    class       volScalarField;
    location    "0.04";
    object      gradTz;
}
// * * * * * * * * * * * * * * * * * * * * * * * * * * * * * * * * * * * * * //

dimensions      [0 -1 0 1 0 0 0];

internalField   nonuniform List<scalar> 
1596
(
-3.22479e-16
-1.46657e-16
1.60015e-16
1.31905e-17
-2.79958e-16
0
-1.17534e-16
-1.16402e-16
-2.03173e-17
-6.7634e-17
-3.67134e-20
-6.88128e-17
3.22636e-16
-7.04826e-17
3.21075e-16
2.82535e-16
1.69643e-16
2.20891e-16
0
3.10792e-16
0
3.7339e-16
-8.06949e-18
-9.2658e-17
9.17873e-17
2.22755e-16
1.93945e-17
1.00087e-16
-4.99326e-17
1.00897e-16
4.57387e-21
-1.3945e-16
-8.90984e-17
-2.57686e-16
-2.57312e-16
-2.38665e-16
1.40088e-16
0
-1.38019e-16
0
-2.15326e-16
1.20989e-17
1.5585e-16
-6.40733e-17
1.26959e-17
-6.91146e-19
-3.16942e-19
-8.91154e-20
2.19942e-17
0
7.20585e-17
1.91143e-16
-1.93007e-17
1.78653e-17
4.03184e-17
7.43354e-17
0
2.36227e-16
-5.20989e-17
5.19087e-17
0
-4.33503e-17
-4.8461e-17
6.07717e-17
-3.72398e-17
0
0
-3.39757e-17
1.16434e-17
0
-5.11759e-17
-5.45377e-17
4.18933e-17
-5.85644e-17
-2.87864e-18
0
4.33998e-17
8.66885e-17
-5.58176e-17
0
-1.05305e-17
-3.53253e-17
0
4.56102e-17
-3.74871e-18
-3.51361e-18
-1.55446e-17
1.88891e-17
2.71559e-17
3.93374e-18
1.29375e-17
-4.51248e-17
2.09994e-18
2.16508e-17
-1.11476e-17
-1.12702e-17
-1.15358e-16
8.52544e-17
-5.52969e-17
-4.25564e-19
-2.71888e-17
6.45954e-19
-6.48098e-19
-1.3799e-17
0
-9.90093e-18
-2.32186e-17
-2.41283e-17
1.45451e-17
2.65516e-17
-3.16847e-19
-1.56636e-17
-2.19601e-17
1.82801e-17
9.41873e-17
-1.19433e-16
1.00161e-16
3.95987e-17
0
2.1867e-17
8.9333e-18
-3.75401e-18
1.67819e-17
-2.5642e-18
-1.42845e-17
-6.54935e-21
-6.21369e-18
-1.45445e-17
-8.38618e-18
8.8327e-18
1.58015e-17
-2.33312e-19
-6.76752e-18
2.37814e-17
1.98315e-16
-1.74339e-16
0
0
-2.31741e-17
0
0
0
4.82975e-18
0
0
6.21692e-18
-4.68254e-20
4.76899e-18
-8.10111e-18
0
4.30224e-18
2.38699e-18
0
-1.13885e-16
2.03899e-16
0
0
2.38661e-17
0
-3.53764e-18
3.53406e-18
-4.91599e-18
1.46814e-18
-1.47888e-18
0
2.05645e-18
4.37118e-18
0
-2.39213e-18
-4.37045e-18
-2.18463e-18
3.73593e-16
-1.60909e-16
0
-5.32901e-17
5.26937e-17
0
1.47516e-17
0
0
0
8.88677e-19
-8.92937e-19
0
-1.69472e-18
-3.46056e-19
0
1.22089e-18
1.04875e-18
0
-9.49961e-17
0
0
5.56068e-17
-8.94717e-17
1.37195e-17
5.62011e-18
-3.22998e-18
1.44009e-18
2.97521e-19
-1.0006e-18
-8.54796e-19
0
5.03909e-19
-1.61873e-19
1.64302e-19
1.00772e-18
-9.00343e-19
-3.18347e-19
5.13607e-17
-2.14675e-17
5.21644e-17
1.28608e-16
-2.0784e-17
-3.57098e-17
0
0
0
2.44683e-18
4.97257e-19
1.30909e-18
-2.94974e-19
-4.94894e-19
-1.54011e-19
-1.46204e-19
7.37811e-20
-2.11494e-19
2.88922e-19
-7.43965e-17
7.5088e-17
-1.22498e-16
-1.28059e-16
1.02463e-16
2.17374e-17
-3.36964e-17
1.87561e-17
-1.00063e-17
2.54029e-18
8.67314e-19
-4.20526e-19
6.83202e-20
-8.71808e-20
3.08822e-19
0
-2.88899e-20
2.9954e-19
-4.97698e-20
-5.67411e-16
2.34825e-16
-6.29815e-20
-2.27301e-17
1.19089e-17
2.13884e-17
-3.64907e-17
-8.42289e-18
4.39072e-18
-2.19081e-18
-1.06727e-18
0
-4.3711e-19
-1.002e-19
-8.9051e-20
-4.27761e-20
2.24876e-21
-9.60416e-20
2.84986e-20
9.25318e-17
-6.93835e-17
-4.01359e-19
-3.3733e-17
-5.59453e-17
4.70472e-17
3.72608e-19
8.2081e-18
-4.27494e-18
4.16647e-18
6.6548e-19
3.7e-19
4.50626e-19
0
1.39982e-19
5.05389e-20
0
3.02941e-20
1.11494e-20
0
6.731e-17
3.23753e-17
-7.87477e-17
5.34145e-17
-6.4146e-17
3.32753e-17
5.73355e-18
-2.75979e-18
-4.84304e-18
3.32574e-19
-3.30933e-19
-3.83361e-19
8.03761e-20
-3.21785e-20
-4.16096e-20
9.69017e-21
-5.86489e-21
7.04252e-21
-8.54612e-17
2.19422e-16
-1.70019e-16
5.87456e-17
0
0
-3.67285e-18
9.62612e-18
-2.57006e-18
4.116e-18
0
0
2.30054e-19
-1.34906e-19
-3.97012e-20
1.14871e-20
-7.96571e-21
4.25601e-21
0
1.9972e-17
8.02411e-17
-4.24756e-17
-2.93561e-17
-2.73714e-17
1.53644e-18
9.68625e-18
0
-2.1982e-18
-6.61508e-19
6.04695e-19
-2.68674e-19
1.16546e-19
0
1.86921e-20
1.77144e-20
0
0
0
-1.98148e-17
7.81245e-17
8.53591e-18
-9.02969e-17
1.49949e-17
9.36559e-18
0
0
1.83657e-18
-1.07811e-18
-5.84871e-19
2.59857e-19
-1.12709e-19
0
-6.28604e-21
3.95098e-21
0
-1.15579e-21
-3.70129e-22
-5.46543e-17
1.6296e-16
-1.61361e-16
-3.70349e-17
2.21542e-17
-7.34142e-18
3.85864e-18
0
-9.17928e-19
5.13924e-19
0
0
2.62615e-20
-2.62918e-20
2.21513e-21
-4.06657e-21
1.79338e-21
4.57471e-22
2.84845e-22
3.47359e-17
-2.47005e-17
8.76401e-17
-5.32168e-17
-1.13981e-17
3.13729e-18
9.36098e-18
1.52505e-18
8.78319e-19
0
1.08931e-19
-9.83277e-20
4.13045e-20
-1.85614e-20
7.17802e-21
-7.64693e-21
-1.24898e-21
8.27271e-22
1.32039e-22
7.96738e-17
-8.74237e-17
0
2.86471e-17
-1.74704e-17
-5.87276e-18
1.05534e-18
-5.48519e-18
0
-4.12433e-20
-1.84137e-19
-5.36787e-20
3.42817e-20
-6.67095e-21
-6.93743e-21
2.74269e-21
0
2.63041e-22
-1.28209e-22
1.71169e-16
-2.14063e-17
5.72324e-17
-4.3336e-17
9.11892e-18
-4.45455e-18
-6.6106e-18
-7.12684e-19
1.01822e-18
-9.06459e-20
-1.14429e-19
7.26346e-20
-2.06e-20
-9.17961e-21
0
0
0
-2.63322e-22
7.61304e-24
-1.27738e-16
1.18016e-16
-2.23898e-19
7.14113e-18
3.97517e-18
-4.66913e-18
3.87018e-18
-1.72073e-18
8.0414e-19
-8.48788e-20
1.45213e-19
1.67556e-20
-3.95046e-21
2.11881e-22
-3.08811e-24
-3.28548e-22
0
0
0
0
0
2.72447e-17
-2.56363e-17
-2.66193e-17
0
0
-3.87138e-19
-3.33082e-19
1.28948e-19
0
-2.11319e-20
8.18139e-21
-1.10214e-20
1.08733e-20
-1.24704e-21
1.32657e-21
7.742e-23
0
-2.42815e-17
2.45803e-17
0
-7.88033e-18
6.42515e-18
6.15942e-18
0
3.90835e-19
1.05548e-19
-7.44294e-19
0
-2.11468e-20
8.12016e-21
3.08009e-21
-1.23528e-21
1.03633e-21
0
-1.79353e-22
0
-1.25808e-17
-9.28288e-18
5.54945e-19
8.09684e-18
-1.34705e-17
0
-1.15768e-18
0
8.01966e-19
1.45491e-19
0
7.79863e-20
-5.19052e-20
7.67234e-21
-2.56431e-22
1.77613e-21
1.6958e-21
3.70674e-22
-2.93538e-22
0
2.27649e-17
-1.22817e-17
1.42818e-17
8.75701e-18
0
2.17333e-18
-1.65693e-18
-4.60633e-19
2.82565e-19
-3.91482e-19
-6.46526e-20
0
0
1.42926e-21
0
0
1.08995e-22
0
-1.17203e-16
9.31231e-17
0
2.7368e-18
-4.06054e-18
-1.6019e-19
2.111e-18
3.69379e-19
-9.72431e-19
-7.48801e-19
5.01029e-19
-1.37489e-19
0
-8.86553e-21
0
0
0
-3.91246e-22
3.03265e-22
-3.69538e-17
2.76536e-17
5.19235e-17
-4.46762e-17
9.47196e-18
1.32608e-18
-2.11206e-18
1.03575e-18
9.60586e-19
3.53769e-19
-6.49986e-19
0
4.57658e-20
-2.2401e-20
-1.00982e-20
-4.46057e-21
2.66731e-21
-1.32472e-22
1.11971e-22
-1.38941e-16
1.35473e-16
-1.27077e-16
1.53201e-17
8.43252e-18
-6.65416e-18
4.07707e-18
-1.62132e-18
0
-5.10708e-19
3.07744e-19
1.17342e-19
1.06867e-19
3.85159e-20
-4.88011e-20
-4.54625e-21
0
3.59906e-23
-1.43339e-22
-1.4986e-16
-3.33716e-17
-4.16177e-17
2.55652e-17
-2.25808e-17
1.31538e-17
-6.45145e-18
2.90514e-18
-5.59001e-19
-4.27371e-19
-4.86559e-19
3.77979e-19
-4.51393e-21
9.64306e-20
-1.03519e-19
-4.01104e-21
4.15354e-21
0
3.75852e-22
1.62031e-16
-3.74255e-17
0
0
-2.36213e-17
4.05116e-17
-7.2414e-18
-6.42592e-19
3.77066e-18
-2.04065e-19
0
0
-1.23051e-19
0
-1.16004e-19
2.03003e-19
-1.17589e-19
0
-2.47662e-22
5.08808e-17
8.11969e-17
0
-2.35438e-17
-1.15221e-17
-4.79837e-18
-7.77678e-18
1.81412e-18
-4.06596e-18
-1.09718e-18
0
0
4.22835e-19
0
0
-2.1579e-19
3.93601e-19
0
0
3.50775e-16
-6.22095e-17
-1.68211e-16
-6.01984e-17
8.40543e-17
1.7752e-17
7.54056e-18
0
-1.35872e-18
8.82002e-19
1.94775e-18
-5.23724e-19
-3.71041e-19
4.44792e-19
-4.73122e-19
-7.32334e-20
0
0
0
2.80558e-17
-1.81259e-16
1.74477e-16
-1.29263e-17
-7.28155e-17
1.00986e-16
-4.39455e-17
0
0
7.53711e-18
-5.45516e-18
0
-6.41763e-19
1.22076e-18
-5.52591e-20
2.30148e-19
5.513e-20
1.45811e-21
8.95832e-21
0
0
0
1.05448e-16
-7.23679e-17
4.6787e-17
-6.76474e-17
1.60659e-17
0
-2.79831e-18
2.94941e-18
-3.01447e-18
-3.47444e-19
4.34076e-20
-1.43336e-19
-1.11879e-20
-9.96262e-20
-2.86743e-20
-1.40952e-20
2.23158e-16
-3.72101e-16
1.63717e-16
0
2.45255e-17
-3.45372e-17
2.20217e-17
-1.71302e-17
0
-3.63018e-18
5.24062e-18
0
0
4.44031e-20
0
-1.77617e-19
1.14754e-19
8.98065e-21
2.3951e-20
2.42936e-16
0
-6.44293e-17
7.13275e-17
-3.04258e-17
6.13396e-17
-2.56804e-17
-1.23988e-17
1.25283e-17
-8.76625e-19
0
0
2.72497e-19
-3.30809e-19
-1.96799e-19
3.50771e-19
-7.15666e-20
2.924e-20
0
1.37056e-16
8.44506e-17
-1.4087e-17
-6.88253e-17
-5.25844e-18
-2.83782e-17
7.83461e-18
1.88639e-17
-6.79751e-19
8.93086e-19
0
0
-2.79155e-19
0
2.28388e-19
-2.4432e-19
0
2.64015e-20
-6.98007e-21
-7.25566e-17
-4.25039e-17
3.99994e-17
-3.57449e-18
-1.34207e-18
2.94681e-18
0
-5.02021e-19
5.35638e-18
-4.49304e-18
0
7.5333e-19
-2.62732e-19
-5.44713e-19
-3.93571e-20
-2.7396e-20
0
-2.09419e-20
0
2.67597e-17
-4.79636e-17
2.27995e-18
1.65514e-17
1.06865e-17
-1.03853e-17
-4.86385e-18
5.43222e-18
-1.18496e-18
9.64811e-19
-5.65115e-19
5.82545e-19
0
8.91881e-22
-2.72057e-20
9.89794e-20
-3.02541e-22
0
0
2.67607e-17
-2.66604e-17
-1.64597e-17
1.47541e-17
1.86784e-17
-1.87887e-17
-2.43212e-18
2.44004e-18
-1.19617e-18
1.20817e-18
-5.65185e-19
9.72473e-19
-2.70032e-19
-1.42741e-19
-3.25596e-20
1.30507e-20
2.35429e-20
5.73005e-21
-4.25141e-21
0
-5.94428e-18
2.82963e-17
-3.11876e-17
1.8551e-17
-1.66902e-17
0
6.7401e-18
-6.13923e-18
0
1.09827e-18
-1.35322e-18
-5.1997e-19
5.44962e-19
7.44508e-20
0
0
-2.09598e-20
7.44519e-21
1.06309e-16
-1.84346e-16
1.63263e-16
-1.2187e-16
4.42095e-17
-2.45521e-17
2.38228e-17
1.91036e-18
-5.1643e-18
4.54311e-18
0
-1.6007e-18
1.46049e-18
-1.91117e-19
-7.29245e-20
9.07664e-20
6.08538e-20
2.03479e-20
-7.19375e-21
2.72167e-16
0
-7.36023e-17
5.74678e-17
5.19877e-18
-2.94059e-17
4.63651e-17
-3.23905e-17
1.13002e-17
-2.8277e-18
2.8944e-18
4.01991e-19
4.92967e-19
1.8615e-19
-1.12936e-19
-2.27771e-20
-1.30357e-19
0
1.01144e-20
1.94323e-16
-2.18826e-16
0
1.36887e-17
4.44751e-17
-4.16982e-17
4.98243e-18
3.40254e-18
1.20857e-18
1.50226e-18
0
0
-7.90669e-19
1.24779e-18
-4.04877e-19
-1.04988e-19
1.14944e-19
7.85253e-21
-1.8443e-20
4.57354e-17
1.93319e-16
-1.76397e-17
-9.22589e-17
8.20401e-17
7.00462e-18
-4.87621e-18
-3.32327e-18
7.07633e-18
-8.59305e-18
2.95318e-18
-3.01829e-18
2.0217e-19
-4.08919e-19
3.9824e-19
-2.69611e-19
0
0
1.06338e-20
0
4.46578e-17
-1.03464e-16
1.19948e-16
-6.3485e-17
6.33338e-17
0
9.79182e-18
-9.83669e-18
-3.99457e-18
5.46556e-18
0
9.77048e-19
-1.2235e-18
-1.36789e-19
0
-8.65681e-21
-1.00789e-20
-3.91043e-21
-4.85505e-16
2.14409e-16
0
-8.40775e-17
8.40691e-17
3.1749e-17
-2.03519e-17
4.81058e-18
0
-1.04482e-19
2.55838e-19
-5.24089e-19
-3.71524e-19
4.45373e-19
-4.73579e-19
0
4.06946e-20
2.37333e-21
-6.77279e-21
2.83711e-16
-2.65216e-16
0
2.22262e-17
1.54423e-17
-1.16706e-17
0
-5.04153e-18
-2.44427e-18
0
-3.72284e-19
0
4.2413e-19
0
0
4.1671e-20
1.21102e-19
-1.7563e-19
0
-1.82098e-19
3.74487e-17
-2.73012e-17
1.26999e-17
-7.03065e-17
2.2636e-17
0
6.44035e-19
1.58617e-18
0
-7.42803e-19
9.17909e-19
-9.64316e-19
6.11007e-20
0
-2.39387e-20
0
0
0
-1.59505e-19
0
2.52332e-17
0
-1.81815e-17
1.84705e-17
0
2.08641e-18
-9.59546e-19
2.52083e-18
-1.01641e-18
1.28193e-19
-1.17125e-19
4.1644e-20
-1.04175e-19
-1.15816e-20
0
3.95681e-23
0
1.00568e-16
-1.72313e-16
0
-1.42563e-17
8.83658e-18
0
0
-3.39907e-18
0
-5.12218e-19
-3.08819e-19
-1.17821e-19
1.07385e-19
0
7.69489e-21
0
0
-3.41238e-22
4.04922e-22
0
1.22461e-16
-9.52802e-17
1.31981e-17
-8.18272e-18
-1.66821e-18
3.81074e-18
2.40071e-18
-1.36402e-18
4.10666e-19
1.08039e-19
-4.99925e-20
1.72111e-19
-4.17736e-20
-2.92817e-20
5.37011e-21
-2.09383e-22
-4.67136e-23
-2.76627e-23
-2.68777e-16
9.35504e-17
0
0
2.42259e-18
-2.4635e-18
2.66316e-19
-2.78247e-19
9.30311e-19
2.1661e-19
-1.66122e-19
-2.52073e-20
-1.47647e-20
8.9067e-21
0
6.17098e-22
1.91914e-22
1.1482e-22
2.50032e-23
0
6.49565e-17
-4.66461e-17
1.24706e-17
6.02365e-18
-1.0111e-18
-1.47448e-18
-6.86757e-19
-1.06504e-18
1.85162e-19
-9.05099e-21
7.4825e-20
1.38068e-20
-5.24276e-21
5.56487e-21
1.00549e-21
-1.45055e-21
-1.06053e-22
0
-1.66711e-17
-5.48135e-17
1.36774e-17
8.10167e-18
-1.5862e-17
9.04335e-18
1.51428e-18
-1.54783e-18
4.37781e-19
-1.75727e-19
0
0
-1.1638e-20
1.67032e-20
-4.77885e-21
1.56864e-21
-1.69505e-21
1.64809e-22
-2.9332e-22
2.84951e-17
2.05803e-17
-1.29608e-17
3.79491e-18
-7.61909e-18
-4.07297e-18
0
0
0
0
0
0
7.8602e-21
-8.57393e-21
9.06786e-21
-9.5228e-22
1.32993e-21
3.1476e-22
-2.55006e-22
6.46124e-17
-6.5458e-17
7.90926e-17
-1.49385e-17
2.26437e-17
-5.47298e-18
8.04308e-18
-2.91006e-18
-4.36678e-19
4.46702e-19
0
2.11092e-20
-7.67901e-21
8.01783e-21
-5.28412e-21
-2.56843e-21
-2.0008e-21
2.18408e-22
1.92245e-22
1.03503e-16
2.02494e-17
0
-1.45575e-17
-5.59137e-18
1.00278e-17
-5.16524e-19
-1.36933e-18
5.15951e-19
-1.4928e-19
0
-1.67104e-20
0
-4.27519e-21
2.16371e-21
-9.73746e-22
-2.25434e-22
6.61653e-23
0
1.4038e-16
-2.14059e-17
5.77321e-17
-4.38889e-17
-4.64648e-18
9.08898e-18
-5.19798e-18
4.10509e-19
2.05565e-19
-1.89603e-19
1.28507e-19
0
0
7.66256e-21
-3.80558e-22
1.14024e-22
7.77341e-22
-2.12845e-22
0
-8.04349e-20
0
-1.47905e-17
5.63587e-17
-3.4277e-17
-1.66542e-17
8.64947e-18
-3.07955e-18
2.41928e-18
5.25774e-19
-2.06111e-19
5.47328e-20
-3.13874e-20
6.70588e-21
1.18692e-20
-6.23418e-22
-1.06011e-21
7.1063e-22
-1.41625e-22
3.13067e-16
-9.31056e-17
2.02032e-17
-7.31149e-17
1.13981e-17
-1.08414e-17
6.7547e-18
0
0
-5.94834e-20
-1.1851e-19
-1.9411e-20
0
-1.80544e-20
-7.17799e-21
2.83396e-21
-1.19396e-22
3.79339e-22
3.46332e-22
0
-8.06432e-17
9.52867e-17
1.94958e-18
-5.07657e-17
7.34141e-18
-6.24826e-18
3.07128e-18
3.07879e-18
0
0
1.52751e-20
6.28792e-20
0
-1.27336e-20
-3.13257e-21
5.44446e-22
-3.48692e-22
-5.78792e-22
0
-4.06512e-17
3.02112e-17
6.54329e-17
2.35625e-17
-3.82327e-17
1.37265e-17
-3.78446e-18
2.40315e-18
-1.27339e-18
0
0
0
-4.80986e-20
1.24512e-21
-6.31706e-21
0
-1.13784e-22
4.85869e-22
-2.25038e-16
2.0075e-16
1.40077e-16
-1.64724e-16
4.39997e-17
-3.74476e-17
0
4.44653e-18
-5.21008e-18
1.97139e-18
-7.09372e-19
3.20766e-19
1.41822e-19
4.97446e-20
2.12606e-20
0
0
0
0
2.77504e-16
-1.274e-16
0
0
-1.9217e-17
2.85387e-17
-1.73895e-17
-5.12443e-18
5.06667e-18
1.57628e-18
1.56982e-18
-3.32825e-19
8.29335e-20
1.99782e-20
1.14281e-20
5.73865e-21
9.3262e-21
-3.41664e-22
3.48015e-22
-2.6917e-16
2.21338e-16
8.02248e-17
-4.64171e-17
5.27926e-17
-3.23234e-17
-1.42245e-17
-7.71635e-18
0
-3.38012e-18
5.3722e-19
4.41614e-19
-1.79146e-19
-8.03788e-20
-1.53626e-20
-6.47127e-21
-5.5955e-21
0
0
-9.24213e-17
0
4.97205e-17
4.03952e-19
0
0
1.4673e-17
7.96218e-18
0
2.03525e-18
0
-6.31189e-19
-6.49669e-20
1.21181e-19
0
4.55254e-20
-5.02285e-21
5.12398e-21
0
2.10883e-16
0
8.62379e-17
-1.41852e-16
1.00482e-16
4.83264e-17
-5.58007e-18
0
1.10236e-18
3.30458e-18
0
-7.53462e-19
5.44276e-19
-3.37676e-19
-5.59777e-20
-3.34264e-20
-1.39999e-20
-4.43128e-21
-4.32275e-20
-1.70715e-16
2.39146e-16
-5.19394e-17
-1.05169e-16
-4.52805e-17
-2.75674e-17
-3.14481e-17
-6.62459e-18
2.00258e-18
8.6896e-19
-8.67327e-19
1.22346e-18
-3.87824e-19
5.28717e-19
-8.82542e-20
0
2.02849e-19
-1.79166e-19
3.8216e-20
4.33691e-16
-1.97068e-17
-2.25908e-16
1.28609e-16
-9.30226e-17
5.72082e-17
-5.36229e-18
-8.47706e-18
4.56611e-18
9.13025e-19
-4.15532e-19
-1.16432e-18
1.98114e-19
4.19972e-19
-7.33618e-20
7.41986e-20
-2.10103e-19
-2.691e-19
-2.60535e-19
2.12904e-16
7.13836e-17
1.01499e-16
-6.65675e-17
-3.46085e-17
8.79533e-18
-1.16938e-17
2.51741e-17
1.52681e-18
4.47496e-18
1.73446e-18
-1.26306e-18
0
-5.03886e-19
0
0
1.17221e-18
3.83835e-19
2.85417e-19
1.85682e-16
0
9.58371e-17
6.61378e-17
-4.02862e-17
2.54545e-17
0
-8.32708e-18
-7.92203e-18
-4.65335e-18
-1.74981e-18
1.27734e-18
0
0
0
0
-1.1196e-18
-2.14346e-18
0
-3.6271e-16
0
-1.68906e-17
-1.6185e-17
6.26937e-17
-1.77518e-17
-5.20541e-18
-5.81486e-18
8.05403e-18
0
1.46812e-18
-1.16635e-19
2.57994e-18
0
0
4.61754e-18
-3.76494e-19
2.59275e-18
-2.33032e-18
2.45575e-16
5.32601e-17
-5.27103e-17
-3.49715e-17
-7.58522e-17
3.81516e-17
3.0439e-17
-2.41169e-18
-6.30147e-18
7.86963e-18
1.2952e-18
-8.64678e-18
-5.24533e-18
-6.56901e-18
-7.71065e-18
-5.4019e-18
9.2871e-18
-3.81102e-19
2.38674e-18
-6.97657e-17
2.51808e-17
-1.07949e-16
1.15061e-17
-1.14642e-17
0
-1.56689e-17
-4.97747e-18
-1.42281e-17
5.61286e-18
1.42844e-17
7.21552e-18
-2.45438e-18
-4.13968e-18
7.03111e-18
0
-2.47394e-17
-1.32586e-17
-2.46691e-19
1.56323e-16
-3.04079e-18
1.65905e-16
-6.12058e-17
4.25563e-19
1.06335e-18
2.78399e-17
-8.95475e-18
1.37989e-17
-1.29287e-17
-1.27625e-17
0
2.41284e-17
1.42528e-17
3.05985e-19
-4.69626e-19
1.58237e-17
1.34495e-17
0
-1.07093e-16
0
-9.92763e-18
6.21627e-17
2.95944e-18
1.05445e-17
-2.69207e-17
2.38507e-17
3.7317e-17
3.70212e-17
3.7511e-17
0
-2.34403e-17
0
2.02711e-18
-2.10533e-18
0
-3.04104e-19
1.77868e-17
8.52203e-17
1.43299e-17
-3.39501e-17
1.1615e-16
-3.32333e-17
0
0
-5.87987e-17
-3.61563e-17
-3.58653e-17
-8.36992e-17
-1.16434e-17
0
0
0
-6.10739e-18
6.46315e-18
5.14497e-17
-1.81069e-17
1.64249e-17
0
-9.85924e-17
-6.89289e-17
8.59204e-17
-9.0554e-17
-1.22878e-16
1.27176e-16
5.09423e-17
0
5.70049e-17
8.84016e-17
-1.82755e-17
1.11047e-16
-1.86635e-17
1.94241e-17
8.80819e-17
-4.89191e-17
0
-1.58388e-16
0
-1.37697e-16
1.30329e-16
0
1.91436e-16
8.38023e-17
-2.00657e-16
1.85523e-16
-8.83778e-20
-5.04439e-17
-8.55909e-17
0
1.63911e-16
-2.57686e-16
2.82537e-16
-3.61486e-16
0
0
1.61064e-16
-4.35478e-18
-1.00457e-17
-2.83182e-16
2.97773e-16
-1.36889e-16
1.36331e-16
1.35001e-16
-9.58664e-17
0
0
2.48447e-16
-2.52728e-16
-2.4411e-16
2.48145e-16
-2.47434e-16
2.73284e-16
-4.35361e-16
0
)
;

boundaryField
{
    up
    {
        type            calculated;
        value           nonuniform List<scalar> 
84
(
0
0
0
0
-1.11476e-17
1.82801e-17
-6.76752e-18
2.38699e-18
-2.18463e-18
0
-3.18347e-19
2.88922e-19
-4.97698e-20
2.84986e-20
1.11494e-20
7.04252e-21
0
0
-3.70129e-22
2.84845e-22
1.32039e-22
-1.28209e-22
7.61304e-24
0
4.66273e-23
3.98948e-23
-2.55311e-22
0
3.03265e-22
1.40672e-22
-1.43339e-22
3.75852e-22
-2.47662e-22
0
4.18659e-21
8.32436e-21
-1.31692e-20
2.29834e-20
0
-6.53153e-21
0
0
-4.15455e-21
7.44519e-21
-7.19375e-21
1.01144e-20
-1.8443e-20
1.06338e-20
-3.91043e-21
-6.77279e-21
0
0
0
4.04922e-22
-8.45204e-23
2.50032e-23
0
-2.9332e-22
-2.55006e-22
1.45635e-22
0
0
-1.41625e-22
3.46332e-22
-5.78792e-22
4.85869e-22
0
3.48015e-22
0
0
-4.32275e-20
3.8216e-20
-2.60535e-19
2.85417e-19
0
-2.33032e-18
2.38674e-18
-2.46691e-19
0
1.77868e-17
-1.81069e-17
0
0
0
)
;
    }
    low
    {
        type            calculated;
        value           nonuniform List<scalar> 
84
(
-3.2355e-16
3.10792e-16
-1.36107e-16
2.37617e-16
4.4243e-17
-1.14945e-17
9.59111e-17
2.53342e-17
0
3.75519e-16
-9.49961e-17
4.98905e-17
-7.43965e-17
-5.68312e-16
9.25318e-17
0
-8.54612e-17
1.9972e-17
-1.98148e-17
-5.46543e-17
3.47359e-17
7.96738e-17
1.70696e-16
-1.27738e-16
0
-2.42815e-17
-1.25808e-17
0
-1.17203e-16
-3.69538e-17
-1.38866e-16
-1.50021e-16
1.62432e-16
5.08808e-17
3.51608e-16
2.80558e-17
0
2.23158e-16
2.44553e-16
1.37885e-16
-7.29802e-17
2.67597e-17
2.67607e-17
0
1.06309e-16
2.73784e-16
1.94323e-16
4.71609e-17
0
-4.86336e-16
2.83711e-16
-1.82098e-19
-1.59505e-19
1.00568e-16
0
-2.678e-16
0
-1.66711e-17
2.84951e-17
6.40017e-17
1.02767e-16
1.39907e-16
-8.04349e-20
3.13051e-16
0
0
-2.25038e-16
2.78048e-16
-2.6985e-16
-9.24213e-17
2.11784e-16
-1.70715e-16
4.36631e-16
2.14588e-16
1.85682e-16
-3.6271e-16
2.44022e-16
-6.80419e-17
1.56323e-16
-1.0625e-16
8.52203e-17
1.83376e-17
-1.58388e-16
1.616e-16
)
;
    }
    left
    {
        type            calculated;
        value           nonuniform List<scalar> 
19
(
-3.22479e-16
-1.46784e-16
1.60015e-16
1.38645e-17
-2.80947e-16
0
-1.17534e-16
-1.16402e-16
-2.17787e-17
-6.7634e-17
-3.67134e-20
-6.88128e-17
3.26557e-16
-7.04826e-17
3.21075e-16
2.82535e-16
1.69643e-16
2.5558e-16
0
)
;
    }
    right
    {
        type            calculated;
        value           nonuniform List<scalar> 
19
(
1.61064e-16
-4.22835e-18
-1.00457e-17
-2.83856e-16
2.98762e-16
-1.36889e-16
1.36331e-16
1.35001e-16
-9.4405e-17
0
0
2.51935e-16
-2.56648e-16
-2.4411e-16
2.48145e-16
-2.47434e-16
2.73284e-16
-4.7005e-16
0
)
;
    }
    frontAndBackPlanes
    {
        type            empty;
    }
}


// ************************************************************************* //
