/*--------------------------------*- C++ -*----------------------------------*\
  =========                 |
  \\      /  F ield         | OpenFOAM: The Open Source CFD Toolbox
   \\    /   O peration     | Website:  https://openfoam.org
    \\  /    A nd           | Version:  7
     \\/     M anipulation  |
\*---------------------------------------------------------------------------*/
FoamFile
{
    version     2.0;
    format      ascii;
    class       volScalarField;
    location    "0.04";
    object      gradTy;
}
// * * * * * * * * * * * * * * * * * * * * * * * * * * * * * * * * * * * * * //

dimensions      [0 -1 0 1 0 0 0];

internalField   nonuniform List<scalar> 
1596
(
-0.737995
-1.3123
-1.68844
-1.9544
-2.12944
-2.28522
-2.41106
-2.5529
-2.70969
-2.86792
-3.09189
-3.34037
-3.68855
-4.21761
-5.15295
-6.75212
-9.84497
-15.7587
-37.179
-2.15528
-2.4877
-2.52974
-2.4586
-2.35029
-2.2943
-2.27798
-2.32423
-2.41636
-2.52373
-2.69596
-2.89459
-3.17475
-3.57906
-4.24435
-5.23274
-6.85016
-9.33714
-16.4792
-3.60674
-3.4869
-3.14408
-2.74568
-2.38096
-2.13368
-1.98596
-1.93963
-1.96445
-2.01981
-2.13746
-2.28008
-2.48579
-2.77895
-3.25761
-3.94236
-5.02123
-6.59472
-9.98524
-4.84493
-4.26357
-3.57164
-2.89374
-2.31528
-1.90562
-1.64381
-1.5142
-1.47677
-1.48523
-1.55322
-1.64563
-1.78524
-1.98493
-2.3153
-2.78395
-3.52044
-4.57516
-6.41987
-5.71014
-4.81679
-3.87449
-2.98857
-2.24575
-1.70492
-1.34735
-1.14554
-1.0534
-1.02174
-1.04791
-1.09943
-1.18618
-1.3131
-1.52884
-1.83776
-2.33383
-3.05218
-4.17586
-6.1758
-5.17225
-4.10085
-3.08495
-2.22634
-1.58374
-1.14681
-0.882872
-0.743204
-0.677442
-0.669674
-0.689555
-0.736872
-0.810804
-0.942007
-1.13376
-1.45322
-1.93083
-2.65197
-6.31644
-5.36213
-4.27022
-3.19626
-2.26611
-1.5484
-1.04656
-0.729183
-0.548095
-0.452976
-0.418094
-0.414216
-0.433748
-0.471719
-0.544857
-0.655081
-0.847607
-1.14886
-1.60875
-6.23908
-5.41508
-4.3791
-3.30578
-2.34329
-1.57562
-1.02307
-0.66081
-0.44402
-0.323541
-0.267077
-0.24563
-0.246439
-0.261635
-0.298061
-0.355927
-0.463102
-0.640302
-0.920935
-6.04297
-5.38557
-4.44676
-3.4112
-2.44354
-1.64449
-1.05202
-0.65134
-0.403027
-0.259927
-0.185726
-0.150981
-0.139309
-0.140779
-0.155788
-0.182943
-0.237565
-0.333898
-0.49444
-5.77407
-5.25968
-4.43204
-3.46162
-2.51648
-1.70978
-1.09451
-0.667136
-0.395006
-0.234033
-0.146266
-0.101845
-0.0820672
-0.0756128
-0.0790206
-0.0896901
-0.114792
-0.162834
-0.248124
-5.54578
-5.11079
-4.37143
-3.46706
-2.55629
-1.75716
-1.13275
-0.689392
-0.401057
-0.227127
-0.129569
-0.0783494
-0.0533888
-0.0424677
-0.0399827
-0.0425746
-0.0526599
-0.0745167
-0.116371
-5.331
-4.97031
-4.30047
-3.45225
-2.57556
-1.78956
-1.16333
-0.710884
-0.411817
-0.22874
-0.124277
-0.0683506
-0.0400797
-0.0266406
-0.0212777
-0.02019
-0.0232875
-0.0321959
-0.0510872
-5.10351
-4.80509
-4.19381
-3.39572
-2.55458
-1.78913
-1.17082
-0.718722
-0.416563
-0.229748
-0.122093
-0.0638531
-0.0339512
-0.0193242
-0.0127052
-0.0100999
-0.0102402
-0.0133093
-0.0210976
-4.93259
-4.65409
-4.07597
-3.31282
-2.50145
-1.75832
-1.15413
-0.709929
-0.411511
-0.226155
-0.118919
-0.0606685
-0.0306033
-0.015765
-0.00879602
-0.00569789
-0.00473859
-0.00542525
-0.00830563
-4.79753
-4.52731
-3.9615
-3.21674
-2.42634
-1.70387
-1.11698
-0.685936
-0.396586
-0.217004
-0.113254
-0.0569641
-0.0279473
-0.0136321
-0.00685264
-0.00374749
-0.00248046
-0.00230548
-0.00320435
-4.67978
-4.41677
-3.85081
-3.11104
-2.33328
-1.6291
-1.06169
-0.648103
-0.372353
-0.20229
-0.104682
-0.052048
-0.0250884
-0.0118705
-0.00563333
-0.00276999
-0.00152158
-0.00110072
-0.00127685
-4.59334
-4.32321
-3.74356
-2.99644
-2.22375
-1.53587
-0.990055
-0.597906
-0.339858
-0.182628
-0.0934439
-0.045879
-0.0217818
-0.0100941
-0.00463367
-0.00214744
-0.00105077
-0.000615846
-0.000564968
-4.54051
-4.25242
-3.64523
-2.87853
-2.10359
-1.42977
-0.906946
-0.539149
-0.301781
-0.159727
-0.0805108
-0.0389283
-0.0181845
-0.00827266
-0.00370847
-0.00165859
-0.000760745
-0.000390146
-0.000290535
-4.49107
-4.20531
-3.56648
-2.77037
-1.98545
-1.32175
-0.821018
-0.478102
-0.262293
-0.136137
-0.0673243
-0.0319429
-0.0146401
-0.00652959
-0.00286373
-0.00124673
-0.000549338
-0.000260895
-0.000169137
-4.43733
-4.1662
-3.49605
-2.6648
-1.86533
-1.21033
-0.732398
-0.415655
-0.222417
-0.112696
-0.0544543
-0.0252602
-0.0113238
-0.00494019
-0.00211815
-0.000899729
-0.000384609
-0.000174129
-0.000104067
-4.41124
-4.14498
-3.43654
-2.56273
-1.74427
-1.09709
-0.642978
-0.353603
-0.183572
-0.0903688
-0.0424852
-0.0191982
-0.00839215
-0.00357258
-0.00149518
-0.000619671
-0.00025786
-0.000112691
-6.40346e-05
-4.39656
-4.14249
-3.39209
-2.46939
-1.62772
-0.986965
-0.556717
-0.294769
-0.147561
-0.0701911
-0.0319554
-0.0140111
-0.00595316
-0.00246675
-0.00100592
-0.000406434
-0.000164783
-6.98586e-05
-3.82552e-05
-4.3763
-4.15189
-3.36405
-2.39022
-1.52204
-0.885425
-0.477496
-0.24154
-0.115674
-0.0527754
-0.0231167
-0.00978264
-0.00402337
-0.00161778
-0.00064154
-0.000252479
-9.97962e-05
-4.11475e-05
-2.17907e-05
-4.34384
-4.1632
-3.34806
-2.32637
-1.43092
-0.795888
-0.407485
-0.194865
-0.0881201
-0.0380171
-0.0157881
-0.00636017
-0.00250017
-0.000964576
-0.000368162
-0.000139955
-5.36267e-05
-2.14971e-05
-1.05787e-05
-4.30456
-4.19132
-3.39266
-2.35443
-1.437
-0.788136
-0.395937
-0.185091
-0.0817135
-0.0344804
-0.0140623
-0.00560682
-0.00220117
-0.000857102
-0.00033358
-0.00013094
-5.25194e-05
-2.24235e-05
-1.1049e-05
-4.26161
-4.21991
-3.46902
-2.44285
-1.51057
-0.836916
-0.423026
-0.197961
-0.087019
-0.0363991
-0.0146699
-0.0057824
-0.0022535
-0.000878241
-0.000345955
-0.00013939
-5.84041e-05
-2.66718e-05
-1.4461e-05
-4.24592
-4.23842
-3.53668
-2.54024
-1.60673
-0.911213
-0.470816
-0.224406
-0.0998794
-0.041976
-0.0168367
-0.00654399
-0.00249603
-0.000949425
-0.000366431
-0.000146471
-6.24888e-05
-3.03679e-05
-1.81999e-05
-4.26756
-4.25208
-3.59233
-2.63937
-1.72021
-1.00994
-0.541475
-0.267766
-0.123309
-0.0533239
-0.0218024
-0.00852696
-0.0032169
-0.00118609
-0.000434127
-0.00016168
-6.44933e-05
-3.1408e-05
-2.08613e-05
-4.32012
-4.2742
-3.6492
-2.7467
-1.85287
-1.13436
-0.637474
-0.331454
-0.160681
-0.0730998
-0.0313363
-0.0127655
-0.00495782
-0.00184559
-0.000659173
-0.000225553
-7.45481e-05
-2.91556e-05
-1.98369e-05
-4.40325
-4.30927
-3.71248
-2.86271
-2.00125
-1.28075
-0.757325
-0.416405
-0.21428
-0.103793
-0.0474688
-0.0206535
-0.00856339
-0.0033929
-0.00127636
-0.000445069
-0.000131197
-2.96763e-05
-9.93137e-06
-4.51959
-4.37102
-3.79847
-2.99844
-2.17021
-1.45066
-0.902282
-0.524907
-0.28727
-0.148711
-0.0730332
-0.0342979
-0.0154395
-0.00669292
-0.00278477
-0.00109181
-0.000362667
-7.3889e-05
1.3023e-05
-4.62825
-4.45183
-3.90864
-3.15674
-2.36152
-1.64522
-1.07403
-0.659878
-0.383591
-0.212117
-0.111927
-0.0568369
-0.0278772
-0.0133036
-0.00619494
-0.00280823
-0.00115223
-0.000343975
1.18616e-05
-4.7578
-4.56064
-4.04337
-3.33402
-2.57017
-1.85999
-1.27021
-0.821683
-0.505985
-0.298179
-0.168704
-0.0924476
-0.0492878
-0.0258004
-0.0133616
-0.00693483
-0.00347945
-0.00151259
-0.000243751
-4.92882
-4.70971
-4.21151
-3.53768
-2.80278
-2.10143
-1.49783
-1.01848
-0.663796
-0.416882
-0.253268
-0.150196
-0.0874567
-0.0505482
-0.0293583
-0.0175388
-0.0108099
-0.00683958
-0.00412966
-5.12525
-4.87827
-4.38137
-3.72655
-3.01192
-2.32006
-1.70967
-1.20903
-0.823924
-0.543579
-0.348595
-0.219001
-0.135552
-0.0834583
-0.0517448
-0.0330736
-0.0222538
-0.0161877
-0.0126584
-5.36203
-5.06021
-4.53672
-3.87558
-3.16299
-2.47245
-1.85678
-1.34354
-0.94028
-0.639053
-0.423633
-0.275827
-0.177421
-0.113765
-0.0736425
-0.0491641
-0.0347294
-0.0268994
-0.0232741
-5.64555
-5.26921
-4.7028
-4.01847
-3.29294
-2.59314
-1.96762
-1.44253
-1.02563
-0.709944
-0.480695
-0.320559
-0.21187
-0.140116
-0.0940072
-0.0653298
-0.048163
-0.0386915
-0.0341302
-5.90023
-5.45922
-4.85311
-4.14532
-3.40586
-2.69648
-2.06222
-1.52753
-1.09987
-0.772741
-0.532312
-0.362018
-0.24467
-0.165966
-0.114642
-0.0823064
-0.0628159
-0.0521037
-0.0471061
-6.0956
-5.61595
-4.98225
-4.25643
-3.50532
-2.7875
-2.14552
-1.60255
-1.16578
-0.82901
-0.57915
-0.400232
-0.275482
-0.190801
-0.134989
-0.0995205
-0.0780946
-0.0664258
-0.0611992
-6.25009
-5.74117
-5.08582
-4.34534
-3.58453
-2.85973
-2.21159
-1.66223
-1.21853
-0.874444
-0.617412
-0.431895
-0.301445
-0.212139
-0.15286
-0.114992
-0.0921324
-0.0798246
-0.0745533
-6.36418
-5.83219
-5.15923
-4.40699
-3.63867
-2.90877
-2.25644
-1.70291
-1.25476
-0.905941
-0.644237
-0.454381
-0.320157
-0.227775
-0.166197
-0.126753
-0.102983
-0.0903131
-0.0850829
-6.4466
-5.88551
-5.19705
-4.43646
-3.66368
-2.9313
-2.27728
-1.72216
-1.27224
-0.92145
-0.657696
-0.465867
-0.329882
-0.236041
-0.173367
-0.13318
-0.109004
-0.0962132
-0.0910768
-6.44662
-5.88557
-5.19713
-4.43656
-3.66379
-2.93143
-2.2774
-1.72227
-1.27234
-0.92153
-0.657761
-0.465919
-0.329924
-0.236074
-0.173394
-0.133202
-0.109025
-0.0962327
-0.091097
-6.36422
-5.83231
-5.15943
-4.40727
-3.63899
-2.90911
-2.25678
-1.70322
-1.25503
-0.906174
-0.644428
-0.454534
-0.320279
-0.227872
-0.166275
-0.126819
-0.103042
-0.0903695
-0.0851417
-6.25015
-5.74137
-5.08615
-4.34578
-3.58505
-2.86028
-2.21213
-1.66272
-1.21897
-0.874814
-0.617713
-0.432135
-0.301634
-0.212288
-0.152979
-0.115091
-0.0922191
-0.0799069
-0.074638
-6.09568
-5.61621
-4.98269
-4.25701
-3.506
-2.78822
-2.14624
-1.60321
-1.16636
-0.829489
-0.579537
-0.400537
-0.275719
-0.190984
-0.135133
-0.0996373
-0.0781951
-0.0665193
-0.0612943
-5.90032
-5.45952
-4.85363
-4.14603
-3.4067
-2.69737
-2.06309
-1.52832
-1.10056
-0.77331
-0.532766
-0.36237
-0.244938
-0.166169
-0.114798
-0.0824298
-0.0629193
-0.0521977
-0.0472001
-5.64565
-5.26955
-4.70339
-4.01929
-3.29391
-2.59417
-1.96862
-1.44344
-1.02641
-0.710575
-0.481189
-0.320934
-0.212149
-0.140321
-0.0941604
-0.0654472
-0.0482584
-0.0387757
-0.0342115
-5.36215
-5.06061
-4.53745
-3.87661
-3.16422
-2.47376
-1.85804
-1.34467
-0.941229
-0.639809
-0.42421
-0.276254
-0.177731
-0.113987
-0.0738033
-0.0492834
-0.0348229
-0.0269789
-0.0233485
-5.12531
-4.87847
-4.38189
-3.72746
-3.01316
-2.32148
-1.71111
-1.21035
-0.825053
-0.544477
-0.349271
-0.219488
-0.13589
-0.083687
-0.0518972
-0.0331747
-0.0223249
-0.0162499
-0.0127354
-4.92891
-4.71022
-4.21253
-3.53921
-2.80467
-2.10345
-1.49976
-1.02017
-0.665165
-0.417926
-0.254024
-0.150724
-0.0878148
-0.0507876
-0.0295189
-0.0176501
-0.0108938
-0.00691317
-0.00420747
-4.75784
-4.56095
-4.04414
-3.33524
-2.57168
-1.86157
-1.27168
-0.822904
-0.506918
-0.298844
-0.16915
-0.0927333
-0.0494641
-0.0259064
-0.0134253
-0.00697549
-0.00350814
-0.00153176
-0.000248028
-4.62827
-4.45212
-3.90938
-3.15793
-2.36297
-1.64668
-1.07532
-0.660901
-0.38433
-0.212611
-0.112237
-0.0570216
-0.0279827
-0.0133622
-0.00622752
-0.00282745
-0.00116454
-0.000349937
1.75022e-05
-4.51959
-4.37127
-3.79918
-2.99957
-2.17155
-1.45197
-0.903388
-0.525736
-0.287833
-0.149064
-0.0732396
-0.0344119
-0.0154997
-0.00672367
-0.00280038
-0.00109998
-0.000366845
-7.48283e-05
1.72606e-05
-4.40324
-4.30949
-3.71316
-2.86378
-2.00249
-1.2819
-0.758251
-0.41706
-0.214698
-0.104038
-0.047602
-0.0207216
-0.00859644
-0.00340829
-0.00128336
-0.000448144
-0.00013222
-2.93499e-05
-7.90287e-06
-4.32008
-4.27439
-3.64983
-2.74769
-1.85397
-1.13535
-0.638226
-0.331956
-0.160981
-0.0732643
-0.0314194
-0.0128048
-0.00497527
-0.00185292
-0.000662079
-0.000226531
-7.46266e-05
-2.88107e-05
-1.90922e-05
-4.26752
-4.25224
-3.59291
-2.64026
-1.72116
-1.01076
-0.542062
-0.268136
-0.123516
-0.0534303
-0.0218525
-0.00854888
-0.00322583
-0.00118946
-0.000435268
-0.000161946
-6.44232e-05
-3.12574e-05
-2.0674e-05
-4.24587
-4.23857
-3.53719
-2.54101
-1.60753
-0.911859
-0.471257
-0.224668
-0.100019
-0.0420434
-0.0168667
-0.0065563
-0.00250073
-0.000951089
-0.000366957
-0.000146589
-6.24809e-05
-3.03568e-05
-1.82066e-05
-4.26157
-4.22003
-3.46944
-2.44345
-1.51118
-0.83739
-0.423337
-0.198139
-0.0871094
-0.0364411
-0.0146879
-0.00578965
-0.00225627
-0.000879266
-0.000346328
-0.000139526
-5.84625e-05
-2.67183e-05
-1.4513e-05
-4.30459
-4.19137
-3.3928
-2.35461
-1.43717
-0.788264
-0.396017
-0.185134
-0.0817343
-0.0344897
-0.0140662
-0.00560844
-0.00220186
-0.000857419
-0.000333737
-0.000131025
-5.25733e-05
-2.24654e-05
-1.10723e-05
-4.34384
-4.16316
-3.34796
-2.32622
-1.43076
-0.795746
-0.407379
-0.194796
-0.0880788
-0.0379946
-0.0157766
-0.00635465
-0.00249763
-0.000963455
-0.000367678
-0.000139751
-5.35425e-05
-2.14637e-05
-1.05565e-05
-4.37631
-4.15189
-3.36406
-2.39023
-1.52205
-0.885432
-0.477501
-0.241543
-0.115676
-0.052776
-0.0231169
-0.00978268
-0.00402336
-0.00161776
-0.000641522
-0.000252467
-9.97891e-05
-4.11442e-05
-2.17855e-05
-4.39655
-4.14249
-3.39208
-2.46939
-1.62772
-0.986966
-0.556717
-0.29477
-0.147561
-0.0701913
-0.0319555
-0.0140112
-0.00595319
-0.00246677
-0.00100592
-0.000406432
-0.00016478
-6.98571e-05
-3.82506e-05
-4.41124
-4.14498
-3.43653
-2.56273
-1.74427
-1.09709
-0.642978
-0.353603
-0.183572
-0.090369
-0.0424853
-0.0191983
-0.00839222
-0.00357262
-0.0014952
-0.00061968
-0.000257863
-0.000112692
-6.40305e-05
-4.43732
-4.1662
-3.49605
-2.6648
-1.86533
-1.21033
-0.732398
-0.415655
-0.222417
-0.112696
-0.0544544
-0.0252603
-0.011324
-0.00494027
-0.0021182
-0.000899756
-0.000384619
-0.000174137
-0.000104066
-4.49106
-4.20531
-3.56648
-2.77037
-1.98545
-1.32175
-0.821018
-0.478102
-0.262293
-0.136137
-0.0673244
-0.0319431
-0.0146403
-0.00652974
-0.00286383
-0.00124678
-0.00054935
-0.000260913
-0.000169142
-4.5405
-4.25242
-3.64523
-2.87853
-2.1036
-1.42977
-0.906946
-0.539148
-0.301781
-0.159726
-0.0805109
-0.0389286
-0.0181847
-0.00827288
-0.00370861
-0.00165864
-0.000760732
-0.000390184
-0.000290565
-4.59334
-4.32321
-3.74357
-2.99644
-2.22375
-1.53587
-0.990055
-0.597905
-0.339857
-0.182628
-0.093444
-0.0458794
-0.0217822
-0.0100944
-0.00463386
-0.00214744
-0.00105066
-0.000615957
-0.000565094
-4.67978
-4.41677
-3.85081
-3.11105
-2.33328
-1.62911
-1.06169
-0.648103
-0.372353
-0.20229
-0.104682
-0.0520486
-0.0250889
-0.011871
-0.00563349
-0.00276978
-0.00152126
-0.0011011
-0.00127728
-4.79752
-4.52731
-3.9615
-3.21675
-2.42635
-1.70387
-1.11698
-0.685936
-0.396586
-0.217004
-0.113254
-0.0569649
-0.0279481
-0.0136326
-0.00685258
-0.00374673
-0.00247979
-0.00230672
-0.00320561
-4.93258
-4.65409
-4.07598
-3.31283
-2.50145
-1.75832
-1.15413
-0.709929
-0.411511
-0.226156
-0.11892
-0.0606697
-0.0306043
-0.0157654
-0.00879532
-0.00569607
-0.00473762
-0.00542873
-0.0083086
-5.1035
-4.80509
-4.19382
-3.39572
-2.55459
-1.78914
-1.17082
-0.718723
-0.416564
-0.229749
-0.122094
-0.0638547
-0.0339522
-0.0193241
-0.0127031
-0.0100965
-0.0102397
-0.0133175
-0.0211031
-5.33098
-4.97031
-4.30047
-3.45225
-2.57556
-1.78957
-1.16333
-0.710885
-0.411819
-0.228743
-0.124279
-0.0683523
-0.0400803
-0.026639
-0.0212733
-0.0201849
-0.0232893
-0.0322118
-0.0510947
-5.54577
-5.11079
-4.37143
-3.46707
-2.55629
-1.75716
-1.13275
-0.689396
-0.40106
-0.22713
-0.129571
-0.0783508
-0.053388
-0.0424634
-0.0399755
-0.0425692
-0.052667
-0.0745413
-0.116376
-5.77406
-5.25968
-4.43205
-3.46163
-2.51649
-1.70978
-1.09451
-0.66714
-0.39501
-0.234037
-0.146268
-0.101845
-0.0820634
-0.0756046
-0.0790111
-0.0896875
-0.114807
-0.162863
-0.248117
-6.04296
-5.38557
-4.44677
-3.41121
-2.44355
-1.64449
-1.05203
-0.651344
-0.403031
-0.259929
-0.185726
-0.150978
-0.139301
-0.140767
-0.155779
-0.182947
-0.237587
-0.333916
-0.494411
-6.23907
-5.41509
-4.37911
-3.30578
-2.34329
-1.57562
-1.02307
-0.660812
-0.444021
-0.323541
-0.267073
-0.245621
-0.246426
-0.261622
-0.298058
-0.355943
-0.463122
-0.640291
-0.920884
-6.31644
-5.36214
-4.27022
-3.19626
-2.26611
-1.5484
-1.04656
-0.729183
-0.548094
-0.452972
-0.418085
-0.414204
-0.433734
-0.471712
-0.544867
-0.655106
-0.847616
-1.1488
-1.6087
-6.17581
-5.17226
-4.10085
-3.08495
-2.22634
-1.58374
-1.14681
-0.882869
-0.7432
-0.677434
-0.669663
-0.689541
-0.736862
-0.810808
-0.942029
-1.13378
-1.45321
-1.93075
-2.65194
-5.71015
-4.8168
-3.87449
-2.98857
-2.24575
-1.70492
-1.34735
-1.14554
-1.0534
-1.02173
-1.04789
-1.09942
-1.18618
-1.31312
-1.52886
-1.83777
-2.3338
-3.05211
-4.17589
-4.84495
-4.26358
-3.57165
-2.89374
-2.31528
-1.90562
-1.64381
-1.51419
-1.47677
-1.48522
-1.55322
-1.64563
-1.78525
-1.98495
-2.31533
-2.78395
-3.5204
-4.57512
-6.41995
-3.60675
-3.4869
-3.14408
-2.74569
-2.38096
-2.13368
-1.98596
-1.93962
-1.96445
-2.01981
-2.13745
-2.28008
-2.48581
-2.77897
-3.25762
-3.94234
-5.0212
-6.59473
-9.98532
-2.15529
-2.48769
-2.52974
-2.4586
-2.35029
-2.2943
-2.27798
-2.32423
-2.41635
-2.52373
-2.69596
-2.8946
-3.17477
-3.57907
-4.24435
-5.23271
-6.85013
-9.33716
-16.4793
-0.738
-1.3123
-1.68843
-1.9544
-2.12944
-2.28522
-2.41106
-2.5529
-2.70969
-2.86792
-3.09189
-3.34037
-3.68855
-4.21761
-5.15293
-6.75209
-9.84494
-15.7587
-37.179
)
;

boundaryField
{
    up
    {
        type            calculated;
        value           nonuniform List<scalar> 
84
(
-33.7155
-18.2335
-10.9735
-7.04474
-4.59417
-2.93069
-1.78632
-1.02682
-0.552878
-0.277951
-0.130357
-0.0571135
-0.0234871
-0.00916521
-0.00347479
-0.00134044
-0.000564101
-0.000274149
-0.000152452
-9.09997e-05
-5.48884e-05
-3.23033e-05
-1.80515e-05
-7.99458e-06
-8.05773e-06
-1.19289e-05
-1.57736e-05
-1.91309e-05
-1.92408e-05
-8.1097e-06
3.44999e-05
0.000147964
0.000212446
-0.00342203
-0.0120001
-0.0224178
-0.0328801
-0.0457996
-0.059912
-0.0733417
-0.0839555
-0.0900296
-0.0900503
-0.0840163
-0.0734289
-0.0600095
-0.0458956
-0.0329617
-0.0224905
-0.0120842
-0.00351297
0.000212015
0.000161369
4.31935e-05
-4.29405e-06
-1.79212e-05
-1.87932e-05
-1.57489e-05
-1.19844e-05
-8.07708e-06
-7.96895e-06
-1.80427e-05
-3.22953e-05
-5.48789e-05
-9.09888e-05
-0.00015244
-0.000274143
-0.000564137
-0.00134063
-0.00347538
-0.00916635
-0.023488
-0.0571103
-0.130341
-0.277909
-0.552804
-1.02673
-1.78627
-2.93073
-4.59432
-7.04496
-10.9737
-18.2335
-33.7154
)
;
    }
    low
    {
        type            calculated;
        value           nonuniform List<scalar> 
84
(
-0.799086
-2.27834
-3.849
-5.21136
-6.16577
-6.66375
-6.78054
-6.64809
-6.36939
-6.01339
-5.74948
-5.50278
-5.22678
-5.0342
-4.89026
-4.75464
-4.65337
-4.60348
-4.54609
-4.46068
-4.40938
-4.37187
-4.31807
-4.24982
-4.14317
-4.05697
-4.03415
-4.09203
-4.19663
-4.3421
-4.51069
-4.64704
-4.80395
-5.00448
-5.22267
-5.49106
-5.82031
-6.09962
-6.30609
-6.47011
-6.59252
-6.69064
-6.69066
-6.59254
-6.47013
-6.30612
-6.09965
-5.82036
-5.49112
-5.2226
-5.00453
-4.80388
-4.64698
-4.51062
-4.34204
-4.19655
-4.09197
-4.03409
-4.05693
-4.14315
-4.24988
-4.31804
-4.37187
-4.40937
-4.46067
-4.54608
-4.60347
-4.65336
-4.75463
-4.89024
-5.03418
-5.22677
-5.50277
-5.74946
-6.01338
-6.36937
-6.64808
-6.78053
-6.66375
-6.16578
-5.21138
-3.84903
-2.27836
-0.799094
)
;
    }
    left
    {
        type            calculated;
        value           nonuniform List<scalar> 
19
(
-0.730191
-1.30581
-1.70258
-1.99115
-2.18547
-2.35625
-2.49312
-2.64552
-2.81169
-2.98149
-3.22084
-3.48608
-3.86262
-4.44812
-5.49423
-7.31927
-10.889
-17.7886
-34.924
)
;
    }
    right
    {
        type            calculated;
        value           nonuniform List<scalar> 
19
(
-0.730196
-1.30581
-1.70258
-1.99115
-2.18547
-2.35625
-2.49312
-2.64552
-2.81169
-2.98149
-3.22084
-3.48609
-3.86263
-4.44811
-5.49419
-7.3192
-10.889
-17.7886
-34.9241
)
;
    }
    frontAndBackPlanes
    {
        type            empty;
    }
}


// ************************************************************************* //
