/*--------------------------------*- C++ -*----------------------------------*\
  =========                 |
  \\      /  F ield         | OpenFOAM: The Open Source CFD Toolbox
   \\    /   O peration     | Website:  https://openfoam.org
    \\  /    A nd           | Version:  7
     \\/     M anipulation  |
\*---------------------------------------------------------------------------*/
FoamFile
{
    version     2.0;
    format      ascii;
    class       volScalarField;
    location    "0.177";
    object      T;
}
// * * * * * * * * * * * * * * * * * * * * * * * * * * * * * * * * * * * * * //

dimensions      [0 0 0 1 0 0 0];

internalField   nonuniform List<scalar> 
1596
(
2.99003
2.96155
2.93273
2.90604
2.88229
2.86138
2.84293
2.82592
2.80958
2.79208
2.77197
2.74727
2.71387
2.6663
2.59634
2.48609
2.30253
1.9798
1.3858
2.95702
2.86859
2.78618
2.71214
2.64695
2.58987
2.5397
2.49422
2.45143
2.40782
2.36036
2.30528
2.23619
2.14552
2.02426
1.85612
1.61656
1.26386
0.71917
2.91826
2.77008
2.63842
2.52264
2.42173
2.33399
2.25741
2.18904
2.12609
2.06432
1.99998
1.92867
1.84367
1.73756
1.60243
1.42564
1.19058
0.872374
0.425166
2.88046
2.67694
2.50123
2.34897
2.21732
2.1036
2.0051
1.9184
1.84028
1.7662
1.6922
1.61372
1.52435
1.41732
1.28599
1.12063
0.909943
0.639042
0.281201
2.84969
2.59903
2.38517
2.20118
2.04283
1.90668
1.78953
1.68767
1.59766
1.51492
1.43545
1.35474
1.26679
1.1655
1.04514
0.897942
0.715765
0.489233
0.202255
2.82968
2.54272
2.2971
2.08568
1.90378
1.74768
1.61392
1.49871
1.39854
1.30887
1.22576
1.14482
1.06044
0.967016
0.859415
0.731108
0.575736
0.386846
0.154114
2.82063
2.50928
2.23867
2.00389
1.80106
1.62674
1.47755
1.34983
1.24008
1.14391
1.0575
0.976538
0.895758
0.809936
0.714324
0.603147
0.47105
0.313079
0.122008
2.81997
2.49539
2.20664
1.95266
1.73137
1.54028
1.37647
1.23659
1.11729
1.01441
0.924233
0.842581
0.764452
0.684915
0.599478
0.502854
0.39026
0.257496
0.0989962
2.82527
2.49672
2.19621
1.92705
1.68976
1.4833
1.30557
1.15372
1.02474
0.914696
0.820029
0.736702
0.659935
0.58503
0.507679
0.422933
0.326358
0.214134
0.0815924
2.8318
2.50508
2.19825
1.91806
1.66762
1.44763
1.2571
1.09388
0.955401
0.838035
0.738418
0.65265
0.576152
0.504422
0.433299
0.358094
0.274611
0.179238
0.0678308
2.8368
2.51406
2.20471
1.91719
1.65664
1.42542
1.22373
1.05026
0.902945
0.778555
0.67394
0.585352
0.508395
0.438741
0.372361
0.304783
0.232006
0.150552
0.0566163
2.8427
2.52506
2.21517
1.92268
1.65421
1.41357
1.20213
1.01942
0.863967
0.732934
0.62341
0.531803
0.453874
0.38544
0.322585
0.261025
0.196919
0.126898
0.0473958
2.84802
2.53575
2.2264
1.93051
1.65586
1.40743
1.18765
0.996856
0.834177
0.697159
0.583128
0.488635
0.409572
0.341872
0.28171
0.224956
0.167912
0.107305
0.0397642
2.85091
2.54265
2.23413
1.93595
1.65661
1.40202
1.17546
0.978023
0.809349
0.667356
0.549585
0.452709
0.372721
0.305643
0.247723
0.194958
0.143775
0.0909956
0.0334189
2.85308
2.54727
2.23898
1.93875
1.65551
1.39584
1.16372
0.960851
0.787324
0.641368
0.520693
0.422056
0.341515
0.275147
0.219244
0.169907
0.123668
0.0774351
0.0281572
2.85506
2.55063
2.24172
1.93913
1.6522
1.38802
1.15118
0.94384
0.766457
0.617489
0.494753
0.395039
0.314421
0.248992
0.195061
0.148801
0.106833
0.0661381
0.0237982
2.85605
2.55187
2.24152
1.93613
1.64549
1.37719
1.13629
0.925347
0.745072
0.594064
0.47017
0.370147
0.29004
0.225914
0.174067
0.130721
0.0925644
0.056648
0.0201704
2.85642
2.55148
2.23888
1.93014
1.63555
1.36324
1.11871
0.90482
0.722456
0.570268
0.446051
0.346461
0.267456
0.205035
0.155454
0.114965
0.080306
0.0485926
0.0171285
2.85818
2.55263
2.23721
1.92438
1.62522
1.34851
1.10022
0.883514
0.699401
0.546503
0.422485
0.32383
0.246351
0.185929
0.138749
0.101067
0.0696582
0.04169
0.0145585
2.86068
2.55522
2.23686
1.91944
1.61513
1.33353
1.08121
0.86166
0.675963
0.52267
0.39924
0.301917
0.226306
0.16813
0.123473
0.0885732
0.0602351
0.0356707
0.0123539
2.86249
2.55728
2.23613
1.91403
1.60434
1.31766
1.06122
0.838905
0.651849
0.498489
0.376021
0.280395
0.206963
0.151251
0.109219
0.0770874
0.0516898
0.0302887
0.0104196
2.8645
2.55974
2.23598
1.90922
1.59403
1.30209
1.04141
0.816268
0.627895
0.474589
0.353249
0.259488
0.18837
0.135194
0.0957812
0.0663281
0.0437196
0.0252995
0.00866017
2.86714
2.56341
2.23737
1.9061
1.58541
1.2881
1.02301
0.794891
0.605082
0.451743
0.331466
0.239514
0.170641
0.119903
0.0829581
0.0559768
0.0359226
0.0203053
0.00688335
2.87018
2.5681
2.24022
1.90477
1.57878
1.27619
1.00669
0.775515
0.584117
0.430542
0.311094
0.220694
0.153807
0.105236
0.0704633
0.0456028
0.0276995
0.0145243
0.00436166
2.87543
2.58055
2.25717
1.92375
1.59773
1.29358
1.02154
0.787335
0.592817
0.436302
0.314283
0.221789
0.153324
0.103668
0.0682454
0.0430811
0.0251829
0.0123913
0.00324612
2.88141
2.59759
2.28397
1.95825
1.63734
1.33549
1.06308
0.826297
0.627562
0.465861
0.338285
0.24041
0.167134
0.11348
0.0749484
0.0474929
0.0279487
0.0139498
0.00380375
2.88459
2.60852
2.30313
1.98504
1.67023
1.37231
1.10143
0.863845
0.662355
0.496473
0.363872
0.260719
0.182421
0.124388
0.0823359
0.0522344
0.0307915
0.0154441
0.00428119
2.88499
2.61305
2.31399
2.00316
1.69527
1.40288
1.13548
0.899086
0.696567
0.5278
0.390967
0.282835
0.199403
0.136613
0.0905715
0.057403
0.0337637
0.0169068
0.00469811
2.88368
2.61323
2.31912
2.01531
1.71499
1.42943
1.16715
0.933622
0.731577
0.561086
0.420745
0.307879
0.219115
0.151034
0.100318
0.063441
0.0371328
0.0184889
0.00511411
2.8809
2.61041
2.32064
2.02394
1.73186
1.4542
1.19833
0.969022
0.768714
0.597526
0.454362
0.33703
0.242734
0.168735
0.112445
0.0709245
0.0412101
0.0203323
0.00557481
2.87749
2.6068
2.32151
2.03228
1.749
1.47998
1.23143
1.00731
0.809685
0.638642
0.49329
0.371809
0.271867
0.191321
0.128357
0.0808556
0.0465261
0.0226269
0.00612276
2.87536
2.60553
2.32527
2.04387
1.76972
1.50972
1.26895
1.05058
0.85629
0.686067
0.53916
0.414008
0.308575
0.221105
0.150397
0.0951962
0.0542793
0.0257745
0.00677163
2.8737
2.60555
2.33098
2.05796
1.79344
1.54299
1.31058
1.09869
0.908576
0.740127
0.592687
0.464894
0.354863
0.260966
0.182229
0.117898
0.0677805
0.0315173
0.00755724
2.87238
2.60679
2.33871
2.07475
1.82044
1.5801
1.35671
1.15206
0.967069
0.80152
0.654865
0.525953
0.413031
0.314472
0.229167
0.156184
0.0954592
0.0475876
0.0125433
2.8707
2.60679
2.344
2.08777
1.84239
1.61106
1.39595
1.19821
1.01848
0.8564
0.711512
0.58285
0.468849
0.367971
0.278956
0.200372
0.131333
0.0717795
0.021696
2.86655
2.59956
2.33743
2.08443
1.84378
1.6178
1.40794
1.21488
1.03891
0.879505
0.736168
0.607985
0.49351
0.391365
0.300464
0.219411
0.147181
0.0832181
0.0266226
2.86065
2.58767
2.32346
2.07096
1.83241
1.60936
1.40268
1.21261
1.03915
0.881568
0.739283
0.611394
0.496511
0.393401
0.301221
0.218854
0.14565
0.0814664
0.025693
2.85606
2.57853
2.31287
2.06095
1.82421
1.6036
1.39952
1.21188
1.04043
0.884292
0.742858
0.615246
0.500134
0.396409
0.303402
0.220157
0.14619
0.0815259
0.025645
2.85318
2.57264
2.30601
2.05456
1.81918
1.60038
1.39822
1.21233
1.04233
0.887216
0.746355
0.618893
0.503556
0.399321
0.305639
0.22166
0.147017
0.0818578
0.0257337
2.85112
2.56841
2.30111
2.05003
1.81565
1.59818
1.39741
1.2128
1.04383
0.889448
0.748986
0.621617
0.506103
0.40148
0.307291
0.222764
0.147614
0.0820913
0.0257994
2.8496
2.56526
2.29745
2.0466
1.81291
1.59635
1.39654
1.2128
1.04455
0.890664
0.750483
0.623191
0.507572
0.402706
0.308194
0.223319
0.147859
0.082137
0.0258006
2.84807
2.56249
2.29439
2.04376
1.81056
1.5946
1.3954
1.21222
1.04443
0.890888
0.750931
0.623751
0.508144
0.40321
0.308584
0.223571
0.147979
0.0821694
0.0258109
2.84808
2.56251
2.29441
2.04378
1.81059
1.59462
1.39542
1.21224
1.04445
0.890911
0.750953
0.623772
0.508163
0.403226
0.308597
0.223581
0.147987
0.0821739
0.0258124
2.84961
2.56529
2.2975
2.04666
1.81298
1.59643
1.39661
1.21288
1.04462
0.890735
0.75055
0.623254
0.507629
0.402755
0.308236
0.223352
0.147883
0.0821517
0.0258057
2.85114
2.56846
2.30119
2.05012
1.81576
1.5983
1.39753
1.21292
1.04395
0.889563
0.749094
0.621717
0.506192
0.401558
0.307357
0.222816
0.147652
0.0821137
0.0258071
2.85321
2.57271
2.30612
2.05469
1.81933
1.60054
1.39838
1.2125
1.04249
0.88737
0.746499
0.619025
0.503675
0.399424
0.305725
0.221728
0.147065
0.0818872
0.0257438
2.85609
2.57862
2.313
2.06111
1.82439
1.6038
1.39973
1.21208
1.04062
0.884482
0.743036
0.615409
0.50028
0.396535
0.303507
0.220239
0.146249
0.0815612
0.025657
2.8607
2.58778
2.32361
2.07115
1.83262
1.60958
1.40291
1.21285
1.03938
0.881787
0.739488
0.611581
0.496677
0.393543
0.301338
0.218944
0.145713
0.081503
0.0257048
2.8666
2.59968
2.33761
2.08464
1.84402
1.61806
1.4082
1.21515
1.03917
0.879752
0.736396
0.608191
0.493689
0.391513
0.30058
0.219493
0.147233
0.0832439
0.0266295
2.87076
2.60696
2.34427
2.08812
1.84281
1.61154
1.39645
1.19874
1.01901
0.856927
0.712026
0.583343
0.469317
0.36841
0.279363
0.200739
0.131644
0.0720056
0.0217906
2.87245
2.60699
2.33903
2.07517
1.82095
1.58067
1.35733
1.1527
0.96772
0.802165
0.655492
0.526552
0.413594
0.314992
0.229633
0.156582
0.0957678
0.0477848
0.0126132
2.87376
2.60572
2.33126
2.05834
1.79389
1.54349
1.31112
1.09924
0.909133
0.740668
0.593201
0.465371
0.355296
0.261345
0.182545
0.118138
0.0679379
0.031595
0.00757287
2.87541
2.60569
2.32554
2.04422
1.77015
1.5102
1.26946
1.0511
0.856804
0.686559
0.539617
0.414421
0.308936
0.221407
0.150632
0.0953624
0.0543802
0.0258223
0.00678343
2.87753
2.60695
2.32176
2.03261
1.7494
1.48043
1.23191
1.00779
0.810156
0.639085
0.493693
0.372164
0.272167
0.191562
0.128538
0.0809788
0.0465997
0.0226628
0.0061323
2.88095
2.61054
2.32087
2.02425
1.73224
1.45462
1.19878
0.969468
0.769142
0.597923
0.454717
0.337335
0.242986
0.168932
0.112589
0.0710207
0.0412679
0.0203612
0.00558281
2.88371
2.61335
2.31933
2.01559
1.71534
1.42982
1.16756
0.934026
0.731963
0.561438
0.421054
0.30814
0.219326
0.151195
0.100435
0.0635189
0.0371801
0.0185132
0.00512105
2.88502
2.61315
2.31417
2.00342
1.69558
1.40323
1.13585
0.899448
0.696909
0.528109
0.391235
0.283058
0.199581
0.136748
0.0906679
0.0574679
0.0338038
0.0169279
0.00470441
2.88461
2.60861
2.30329
1.98526
1.6705
1.37262
1.10175
0.864163
0.662654
0.496741
0.364101
0.260908
0.182571
0.124502
0.0824176
0.0522901
0.0308268
0.0154634
0.00428732
2.88143
2.59767
2.28411
1.95845
1.63758
1.33576
1.06336
0.826573
0.62782
0.466091
0.338481
0.240572
0.167262
0.113577
0.0750192
0.0475422
0.0279809
0.0139683
0.00381019
2.87543
2.58057
2.25721
1.9238
1.5978
1.29366
1.02162
0.787419
0.592898
0.436375
0.314346
0.221842
0.153365
0.103698
0.0682656
0.0430931
0.0251884
0.0123922
0.00324518
2.87017
2.56808
2.24019
1.90472
1.57873
1.27614
1.00664
0.775466
0.584074
0.430505
0.311063
0.220669
0.153787
0.105219
0.0704499
0.0455915
0.0276902
0.0145172
0.00435802
2.86714
2.56341
2.23736
1.90609
1.5854
1.28809
1.023
0.794892
0.605086
0.451749
0.331473
0.239521
0.170649
0.119909
0.0829635
0.055981
0.0359254
0.0203068
0.00688361
2.8645
2.55974
2.23597
1.90921
1.59403
1.30209
1.04141
0.81627
0.627899
0.474594
0.353254
0.259494
0.188375
0.135199
0.0957851
0.0663311
0.0437216
0.0253005
0.00866043
2.86249
2.55728
2.23612
1.91402
1.60433
1.31766
1.06122
0.838907
0.651852
0.498493
0.376026
0.2804
0.206967
0.151255
0.109222
0.0770897
0.0516914
0.0302896
0.0104198
2.86068
2.55522
2.23685
1.91944
1.61513
1.33353
1.08121
0.861662
0.675966
0.522674
0.399244
0.30192
0.226309
0.168133
0.123475
0.0885751
0.0602365
0.0356715
0.0123542
2.85818
2.55263
2.2372
1.92438
1.62522
1.34851
1.10022
0.883517
0.699403
0.546506
0.422488
0.323833
0.246353
0.185931
0.138751
0.101069
0.0696594
0.0416908
0.0145587
2.85642
2.55148
2.23888
1.93014
1.63555
1.36324
1.11871
0.904822
0.722458
0.570271
0.446053
0.346463
0.267458
0.205037
0.155456
0.114966
0.0803071
0.0485933
0.0171287
2.85605
2.55187
2.24152
1.93613
1.64549
1.37719
1.13629
0.925349
0.745074
0.594066
0.470172
0.370149
0.290042
0.225916
0.174068
0.130723
0.0925654
0.0566485
0.0201705
2.85506
2.55063
2.24172
1.93913
1.6522
1.38803
1.15119
0.943841
0.766458
0.61749
0.494755
0.39504
0.314423
0.248994
0.195062
0.148803
0.106834
0.0661384
0.0237983
2.85308
2.54727
2.23898
1.93875
1.65552
1.39584
1.16373
0.960852
0.787325
0.641369
0.520694
0.422058
0.341517
0.275148
0.219245
0.169907
0.123669
0.0774351
0.0281571
2.85091
2.54266
2.23413
1.93595
1.65661
1.40202
1.17547
0.978024
0.809349
0.667356
0.549586
0.452709
0.372721
0.305644
0.247723
0.194958
0.143775
0.0909953
0.0334188
2.84802
2.53575
2.2264
1.93051
1.65586
1.40743
1.18765
0.996857
0.834178
0.697159
0.583128
0.488636
0.409572
0.341872
0.28171
0.224956
0.167911
0.107305
0.0397641
2.8427
2.52506
2.21517
1.92268
1.65421
1.41358
1.20213
1.01942
0.863966
0.732934
0.62341
0.531803
0.453873
0.385439
0.322584
0.261023
0.196918
0.126898
0.0473957
2.83681
2.51407
2.20471
1.9172
1.65664
1.42542
1.22373
1.05025
0.902944
0.778554
0.673939
0.585351
0.508394
0.438739
0.372359
0.304781
0.232004
0.150551
0.0566163
2.8318
2.50509
2.19825
1.91806
1.66762
1.44763
1.2571
1.09388
0.955399
0.838033
0.738416
0.652648
0.576149
0.504419
0.433296
0.358091
0.274609
0.179237
0.067831
2.82527
2.49672
2.1962
1.92705
1.68976
1.4833
1.30557
1.15372
1.02474
0.914693
0.820026
0.736698
0.659931
0.585026
0.507675
0.42293
0.326356
0.214134
0.0815928
2.81997
2.49539
2.20664
1.95265
1.73136
1.54028
1.37647
1.23658
1.11729
1.01441
0.924229
0.842577
0.764448
0.684911
0.599475
0.502851
0.390258
0.257496
0.0989968
2.82063
2.50928
2.23866
2.00389
1.80106
1.62674
1.47755
1.34983
1.24007
1.14391
1.05749
0.976533
0.895753
0.809932
0.714321
0.603145
0.471049
0.31308
0.122009
2.82968
2.54272
2.2971
2.08567
1.90378
1.74768
1.61391
1.49871
1.39853
1.30886
1.22576
1.14482
1.06044
0.967012
0.859413
0.731107
0.575737
0.386847
0.154114
2.84969
2.59903
2.38517
2.20118
2.04283
1.90668
1.78952
1.68767
1.59766
1.51492
1.43545
1.35473
1.26679
1.1655
1.04514
0.897942
0.715766
0.489234
0.202255
2.88046
2.67693
2.50123
2.34897
2.21732
2.1036
2.00509
1.9184
1.84027
1.7662
1.6922
1.61372
1.52435
1.41732
1.28598
1.12063
0.909944
0.639043
0.281201
2.91826
2.77007
2.63842
2.52264
2.42173
2.33399
2.25741
2.18904
2.12609
2.06432
1.99998
1.92867
1.84367
1.73756
1.60243
1.42564
1.19058
0.872375
0.425165
2.95702
2.86859
2.78618
2.71214
2.64695
2.58987
2.5397
2.49422
2.45143
2.40782
2.36035
2.30527
2.23619
2.14552
2.02426
1.85612
1.61656
1.26386
0.71917
2.99003
2.96155
2.93273
2.90604
2.88229
2.86138
2.84293
2.82592
2.80958
2.79208
2.77197
2.74727
2.71387
2.6663
2.59634
2.48609
2.30253
1.9798
1.3858
)
;

boundaryField
{
    up
    {
        type            fixedValue;
        value           uniform 0;
    }
    low
    {
        type            fixedValue;
        value           uniform 3;
    }
    left
    {
        type            fixedValue;
        value           uniform 3;
    }
    right
    {
        type            fixedValue;
        value           uniform 3;
    }
    frontAndBackPlanes
    {
        type            empty;
    }
}


// ************************************************************************* //
