/*--------------------------------*- C++ -*----------------------------------*\
  =========                 |
  \\      /  F ield         | OpenFOAM: The Open Source CFD Toolbox
   \\    /   O peration     | Website:  https://openfoam.org
    \\  /    A nd           | Version:  7
     \\/     M anipulation  |
\*---------------------------------------------------------------------------*/
FoamFile
{
    version     2.0;
    format      ascii;
    class       volScalarField;
    location    "0.27";
    object      gradTy;
}
// * * * * * * * * * * * * * * * * * * * * * * * * * * * * * * * * * * * * * //

dimensions      [0 -1 0 1 0 0 0];

internalField   nonuniform List<scalar> 
1596
(
-0.421259
-0.783773
-1.08367
-1.37571
-1.66108
-1.97672
-2.30847
-2.69892
-3.16598
-3.72286
-4.4852
-5.45457
-6.7918
-8.68857
-11.6243
-16.1907
-24.3331
-39.3412
-92.9372
-1.28403
-1.58706
-1.7989
-2.00064
-2.20227
-2.44419
-2.71437
-3.05143
-3.47187
-3.97938
-4.66965
-5.53338
-6.67776
-8.18989
-10.3152
-13.1795
-17.4309
-23.6762
-41.4011
-2.29968
-2.40633
-2.47834
-2.56876
-2.67618
-2.83483
-3.0303
-3.29581
-3.64314
-4.0694
-4.65243
-5.37241
-6.30283
-7.48376
-9.06357
-11.0628
-13.8332
-17.6309
-25.7855
-3.36642
-3.20585
-3.10964
-3.07602
-3.08264
-3.15157
-3.26452
-3.44799
-3.70908
-4.04059
-4.5054
-5.07812
-5.81002
-6.71713
-7.89295
-9.31754
-11.197
-13.6376
-17.8243
-4.35313
-3.94031
-3.6794
-3.52219
-3.42813
-3.40599
-3.43427
-3.53246
-3.70391
-3.93922
-4.28888
-4.7264
-5.28835
-5.97899
-6.85981
-7.89786
-9.22186
-10.8705
-13.279
-5.14038
-4.56559
-4.17509
-3.90946
-3.72274
-3.61384
-3.56039
-3.57554
-3.66022
-3.80437
-4.04829
-4.36728
-4.78788
-5.3089
-5.97224
-6.74335
-7.7064
-8.86933
-10.3986
-5.66225
-5.04682
-4.58409
-4.23864
-3.97516
-3.78931
-3.66125
-3.59945
-3.60374
-3.66465
-3.81414
-4.03082
-4.33421
-4.72086
-5.22004
-5.80004
-6.51756
-7.3668
-8.41359
-5.91636
-5.36219
-4.89084
-4.50336
-4.18605
-3.93826
-3.74644
-3.61666
-3.5491
-3.53587
-3.60226
-3.7309
-3.93628
-4.21436
-4.58596
-5.02362
-5.56623
-6.20248
-6.9579
-5.95115
-5.53429
-5.10951
-4.71741
-4.37045
-4.07717
-3.8331
-3.64461
-3.51358
-3.43449
-3.42766
-3.47981
-3.60187
-3.79004
-4.05928
-4.38639
-4.79817
-5.28153
-5.84474
-5.808
-5.54016
-5.199
-4.83885
-4.49094
-4.17436
-3.8947
-3.66103
-3.4781
-3.34343
-3.2741
-3.26074
-3.31208
-3.425
-3.61066
-3.84983
-4.1613
-4.53208
-4.96263
-5.62373
-5.46312
-5.20699
-4.89621
-4.56687
-4.24462
-3.94367
-3.67681
-3.45235
-3.27126
-3.14887
-3.07945
-3.07045
-3.11971
-3.23582
-3.40297
-3.63442
-3.918
-4.25055
-5.39124
-5.34134
-5.16858
-4.91366
-4.61386
-4.298
-3.98655
-3.69603
-3.43843
-3.21834
-3.05047
-2.93248
-2.87123
-2.86567
-2.92272
-3.02947
-3.19535
-3.40932
-3.66664
-5.10004
-5.14937
-5.05869
-4.86496
-4.60428
-4.3068
-3.99678
-3.69392
-3.41353
-3.16362
-2.95922
-2.801
-2.69595
-2.64421
-2.65184
-2.70847
-2.82102
-2.97975
-3.17929
-4.83854
-4.9454
-4.92001
-4.7826
-4.56258
-4.28883
-3.98709
-3.67936
-3.38365
-3.11093
-2.87713
-2.68555
-2.54371
-2.45296
-2.41897
-2.43352
-2.5019
-2.61561
-2.7692
-4.59432
-4.74671
-4.77197
-4.6825
-4.50052
-4.25187
-3.96202
-3.65428
-3.34864
-3.05861
-2.80116
-2.58195
-2.40922
-2.28552
-2.21646
-2.19561
-2.22727
-2.30407
-2.4208
-4.35372
-4.54915
-4.61733
-4.56885
-4.4212
-4.19717
-3.92105
-3.61667
-3.30537
-3.00265
-2.72659
-2.48486
-2.28655
-2.13532
-2.03694
-1.98656
-1.98786
-2.03451
-2.12169
-4.13443
-4.35921
-4.46228
-4.44835
-4.33064
-4.12927
-3.86703
-3.56778
-3.25371
-2.94184
-2.65132
-2.39144
-2.17216
-1.99815
-1.87546
-1.80058
-1.77689
-1.79897
-1.8624
-3.94115
-4.18591
-4.3164
-4.33096
-4.23862
-4.0569
-3.80722
-3.51323
-3.19768
-2.87885
-2.57668
-2.30194
-2.0653
-1.8723
-1.72927
-1.6339
-1.58946
-1.59141
-1.63568
-3.74774
-4.02755
-4.1864
-4.22681
-4.15667
-3.99176
-3.75266
-3.46282
-3.14558
-2.82033
-2.50777
-2.21995
-1.96813
-1.75856
-1.5978
-1.48455
-1.4222
-1.40712
-1.43564
-3.54948
-3.86879
-4.05916
-4.12562
-4.07654
-3.92717
-3.69775
-3.41183
-3.09334
-2.76274
-2.44143
-2.14256
-1.8779
-1.65416
-1.47798
-1.34887
-1.2706
-1.24073
-1.2563
-3.37957
-3.72496
-3.94426
-4.03572
-4.0063
-3.87086
-3.64969
-3.36671
-3.04659
-2.71085
-2.38158
-2.07294
-1.79705
-1.56087
-1.3708
-1.22668
-1.13272
-1.08823
-1.09211
-3.22941
-3.59883
-3.8445
-3.95959
-3.94872
-3.82603
-3.61201
-3.33115
-3.00899
-2.66813
-2.33137
-2.01382
-1.72791
-1.48067
-1.27785
-1.11878
-1.00741
-0.945106
-0.935374
-3.09186
-3.48841
-3.76012
-3.89791
-3.90464
-3.7938
-3.58618
-3.30699
-2.98268
-2.63692
-2.29318
-1.96745
-1.67258
-1.41565
-1.20154
-1.02791
-0.896337
-0.807555
-0.773249
-2.97051
-3.39453
-3.69042
-3.84727
-3.86732
-3.76356
-3.55805
-3.27664
-2.94707
-2.5944
-2.24174
-1.90704
-1.60327
-1.33791
-1.11475
-0.92998
-0.779202
-0.654188
-0.549395
-2.87327
-3.3228
-3.64681
-3.83185
-3.87996
-3.80235
-3.62099
-3.36007
-3.04658
-2.70575
-2.35831
-2.02394
-1.71521
-1.44193
-1.20861
-1.01395
-0.850313
-0.705352
-0.55837
-2.80696
-3.27143
-3.61054
-3.81324
-3.88144
-3.82523
-3.66545
-3.42464
-3.12818
-2.80037
-2.45942
-2.12518
-1.81017
-1.52586
-1.27903
-1.0732
-0.90364
-0.763862
-0.641336
-2.80714
-3.27444
-3.61903
-3.8313
-3.91298
-3.87418
-3.73423
-3.51457
-3.23867
-2.92878
-2.60117
-2.2734
-1.95702
-1.6641
-1.40401
-1.18398
-1.00311
-0.857677
-0.737348
-2.88146
-3.33873
-3.6761
-3.88587
-3.97037
-3.9403
-3.81401
-3.61202
-3.35596
-3.06591
-2.7557
-2.43971
-2.12696
-1.82849
-1.55526
-1.31845
-1.12181
-0.96497
-0.838992
-3.0227
-3.46284
-3.78222
-3.97889
-4.0569
-4.02793
-3.90977
-3.7221
-3.48489
-3.2162
-2.92727
-2.62897
-2.32635
-2.02721
-1.74202
-1.48556
-1.26745
-1.09276
-0.954608
-3.22757
-3.63682
-3.92765
-4.10241
-4.16666
-4.13293
-4.01877
-3.84296
-3.62402
-3.37839
-3.11501
-2.84166
-2.55858
-2.268
-1.97619
-1.69911
-1.45276
-1.25141
-1.09324
-3.49366
-3.85838
-4.11366
-4.26056
-4.30589
-4.26308
-4.14958
-3.98326
-3.78136
-3.55923
-3.3243
-3.08267
-2.83039
-2.56282
-2.27713
-1.98452
-1.70332
-1.46109
-1.26904
-3.78482
-4.11123
-4.32918
-4.44469
-4.46775
-4.41303
-4.29794
-4.13925
-3.95298
-3.75386
-3.5487
-3.34419
-3.13488
-2.91109
-2.65799
-2.37332
-2.06349
-1.76272
-1.50864
-4.11958
-4.40129
-4.57601
-4.65533
-4.65246
-4.58295
-4.46381
-4.31033
-4.13707
-3.95815
-3.78026
-3.61263
-3.45252
-3.29178
-3.10856
-2.88619
-2.59971
-2.25698
-1.87327
-4.51263
-4.73854
-4.86378
-4.90379
-4.87407
-4.79043
-4.66859
-4.52202
-4.3634
-4.20568
-4.05583
-3.92532
-3.81734
-3.73345
-3.66067
-3.58766
-3.47514
-3.29994
-3.03552
-4.95285
-5.11269
-5.17515
-5.1629
-5.09339
-4.98227
-4.84277
-4.68643
-4.52342
-4.36345
-4.21312
-4.08122
-3.97315
-3.89565
-3.85083
-3.84654
-3.87366
-3.92293
-3.97422
-5.45307
-5.5215
-5.50692
-5.43416
-5.31939
-5.17667
-5.01628
-4.84801
-4.67994
-4.51891
-4.37157
-4.24302
-4.13763
-4.05902
-4.01051
-3.99589
-4.0195
-4.0865
-4.20376
-6.00726
-5.96155
-5.86462
-5.73238
-5.57573
-5.40494
-5.22739
-5.05066
-4.88098
-4.72335
-4.58331
-4.46374
-4.36714
-4.29415
-4.24465
-4.21503
-4.20257
-4.20127
-4.20618
-6.52188
-6.36545
-6.18965
-6.00027
-5.80277
-5.60334
-5.40677
-5.2182
-5.04201
-4.88157
-4.74061
-4.62075
-4.52293
-4.44658
-4.39059
-4.35158
-4.32698
-4.31273
-4.30549
-6.94696
-6.70783
-6.46899
-6.23254
-6.00091
-5.77733
-5.56451
-5.36554
-5.18329
-5.01983
-4.87757
-4.75742
-4.65946
-4.58275
-4.5259
-4.48593
-4.46025
-4.44536
-4.43802
-7.28934
-6.98362
-6.69419
-6.42007
-6.16115
-5.91825
-5.69235
-5.48488
-5.29753
-5.13143
-4.98805
-4.86788
-4.77044
-4.6946
-4.63876
-4.60015
-4.576
-4.56306
-4.55807
-7.53892
-7.18264
-6.85485
-6.55283
-6.27416
-6.01751
-5.78241
-5.56901
-5.37816
-5.21034
-5.06641
-4.94658
-4.85007
-4.77555
-4.72126
-4.68444
-4.66205
-4.65081
-4.6473
-7.69778
-7.29529
-6.94059
-6.62168
-6.33202
-6.06809
-5.82828
-5.61194
-5.41943
-5.25088
-5.10685
-4.98745
-4.89173
-4.81836
-4.76553
-4.73058
-4.71046
-4.70193
-4.70151
-7.69782
-7.29537
-6.94067
-6.62178
-6.33212
-6.0682
-5.82838
-5.61204
-5.41954
-5.25099
-5.10696
-4.98757
-4.89185
-4.81848
-4.76566
-4.73072
-4.7106
-4.70207
-4.70165
-7.53898
-7.18279
-6.85505
-6.55306
-6.27441
-6.01778
-5.78268
-5.56929
-5.37845
-5.21064
-5.06672
-4.9469
-4.8504
-4.7759
-4.72164
-4.68484
-4.66249
-4.65129
-4.64782
-7.28944
-6.98385
-6.69451
-6.42044
-6.16155
-5.91868
-5.69279
-5.48534
-5.298
-5.13192
-4.98856
-4.8684
-4.77099
-4.69517
-4.63936
-4.60078
-4.57668
-4.56379
-4.55884
-6.94709
-6.70812
-6.46939
-6.23301
-6.00142
-5.77787
-5.56508
-5.36613
-5.18389
-5.02045
-4.87821
-4.75808
-4.66014
-4.58345
-4.52662
-4.48668
-4.46102
-4.44617
-4.43885
-6.52202
-6.36578
-6.1901
-6.0008
-5.80336
-5.60398
-5.40744
-5.2189
-5.04274
-4.88232
-4.74137
-4.62154
-4.52373
-4.4474
-4.39142
-4.35242
-4.32783
-4.31359
-4.30636
-6.00742
-5.96191
-5.8651
-5.73296
-5.57638
-5.40564
-5.22813
-5.05144
-4.8818
-4.72419
-4.58418
-4.46463
-4.36804
-4.29503
-4.24551
-4.21583
-4.2033
-4.2019
-4.20672
-5.45324
-5.5219
-5.50751
-5.43491
-5.32028
-5.17769
-5.01742
-4.84927
-4.68132
-4.52042
-4.37322
-4.24481
-4.13958
-4.06112
-4.01275
-3.99813
-4.02152
-4.08792
-4.20399
-4.95296
-5.11276
-5.17523
-5.16301
-5.09352
-4.98239
-4.84289
-4.68651
-4.52344
-4.36338
-4.21292
-4.08081
-3.97245
-3.89457
-3.84934
-3.84472
-3.87194
-3.92219
-3.97587
-4.51268
-4.73874
-4.86415
-4.90434
-4.87482
-4.79139
-4.66976
-4.5234
-4.36498
-4.20745
-4.0578
-3.9275
-3.8198
-3.73635
-3.6643
-3.59246
-3.48168
-3.3087
-3.04679
-4.1196
-4.40133
-4.57611
-4.65555
-4.65281
-4.58344
-4.46445
-4.31111
-4.13797
-3.95919
-3.78144
-3.61398
-3.45412
-3.29377
-3.11108
-2.88933
-2.60333
-2.2606
-1.87598
-3.78483
-4.11123
-4.32924
-4.44486
-4.46806
-4.41349
-4.29857
-4.14003
-3.95391
-3.75495
-3.54997
-3.34566
-3.13661
-2.91314
-2.66037
-2.37591
-2.06602
-1.76491
-1.51037
-3.49366
-3.85836
-4.11368
-4.26067
-4.30613
-4.26347
-4.15014
-3.98398
-3.78225
-3.56029
-3.32553
-3.0841
-2.83203
-2.56466
-2.2791
-1.98647
-1.70509
-1.46258
-1.27028
-3.22756
-3.63677
-3.92763
-4.10248
-4.16685
-4.13327
-4.01927
-3.84363
-3.62485
-3.37938
-3.11616
-2.84298
-2.56005
-2.26957
-1.97777
-1.7006
-1.45407
-1.25253
-1.09422
-3.02268
-3.46277
-3.78217
-3.97891
-4.05704
-4.02821
-3.91022
-3.7227
-3.48565
-3.21712
-2.92833
-2.63016
-2.32763
-2.02852
-1.74329
-1.48672
-1.26848
-1.09366
-0.955421
-2.88144
-3.33866
-3.67603
-3.88587
-3.97048
-3.94054
-3.8144
-3.61257
-3.35666
-3.06674
-2.75665
-2.44075
-2.12805
-1.82958
-1.55629
-1.31939
-1.12264
-0.965723
-0.839711
-2.80712
-3.27437
-3.61895
-3.83128
-3.91305
-3.87437
-3.73456
-3.51505
-3.23928
-2.92951
-2.60201
-2.2743
-1.95794
-1.665
-1.40485
-1.18475
-1.00381
-0.85834
-0.738036
-2.80694
-3.27135
-3.61044
-3.81317
-3.88143
-3.82531
-3.66564
-3.42493
-3.12858
-2.80085
-2.45997
-2.12577
-1.81076
-1.52642
-1.27954
-1.07366
-0.904066
-0.764326
-0.64197
-2.87334
-3.32284
-3.64685
-3.83192
-3.88008
-3.80254
-3.62125
-3.3604
-3.04699
-2.70624
-2.35885
-2.02452
-1.71583
-1.44255
-1.20922
-1.01454
-0.850873
-0.705864
-0.558793
-2.97059
-3.3946
-3.69047
-3.84729
-3.86729
-3.76348
-3.55793
-3.27648
-2.94687
-2.59418
-2.2415
-1.9068
-1.60303
-1.33768
-1.11452
-0.929749
-0.778961
-0.653925
-0.54908
-3.09191
-3.48845
-3.76016
-3.89795
-3.90466
-3.79382
-3.58619
-3.30699
-2.98267
-2.63691
-2.29317
-1.96744
-1.67258
-1.41566
-1.20155
-1.02792
-0.896358
-0.807588
-0.773286
-3.22945
-3.59886
-3.84452
-3.95961
-3.94872
-3.82602
-3.61199
-3.33113
-3.00896
-2.6681
-2.33135
-2.0138
-1.7279
-1.48067
-1.27785
-1.11878
-1.00743
-0.945128
-0.935397
-3.3796
-3.72498
-3.94427
-4.03572
-4.00629
-3.87085
-3.64967
-3.36669
-3.04657
-2.71083
-2.38157
-2.07293
-1.79704
-1.56087
-1.3708
-1.22669
-1.13273
-1.08824
-1.09212
-3.5495
-3.86881
-4.05917
-4.12562
-4.07654
-3.92716
-3.69774
-3.41181
-3.09332
-2.76272
-2.44141
-2.14256
-1.87789
-1.65416
-1.47799
-1.34888
-1.27061
-1.24074
-1.25631
-3.74776
-4.02756
-4.1864
-4.22681
-4.15667
-3.99175
-3.75265
-3.46281
-3.14556
-2.82032
-2.50776
-2.21995
-1.96813
-1.75856
-1.5978
-1.48455
-1.4222
-1.40713
-1.43565
-3.94117
-4.18592
-4.3164
-4.33096
-4.23861
-4.05689
-3.80721
-3.51322
-3.19767
-2.87884
-2.57667
-2.30194
-2.06529
-1.8723
-1.72927
-1.6339
-1.58946
-1.59141
-1.63568
-4.13444
-4.35921
-4.46228
-4.44835
-4.33064
-4.12926
-3.86702
-3.56777
-3.2537
-2.94184
-2.65131
-2.39144
-2.17216
-1.99815
-1.87546
-1.80058
-1.77689
-1.79897
-1.8624
-4.35372
-4.54915
-4.61733
-4.56885
-4.42119
-4.19717
-3.92105
-3.61667
-3.30537
-3.00264
-2.72659
-2.48486
-2.28655
-2.13532
-2.03694
-1.98656
-1.98786
-2.03451
-2.12168
-4.59432
-4.74671
-4.77197
-4.6825
-4.50052
-4.25187
-3.96201
-3.65428
-3.34864
-3.05861
-2.80116
-2.58195
-2.40922
-2.28552
-2.21645
-2.19561
-2.22727
-2.30406
-2.42079
-4.83853
-4.94539
-4.92001
-4.7826
-4.56258
-4.28884
-3.98709
-3.67936
-3.38365
-3.11093
-2.87713
-2.68555
-2.54371
-2.45296
-2.41897
-2.43351
-2.50189
-2.6156
-2.76919
-5.10003
-5.14937
-5.05869
-4.86496
-4.60429
-4.3068
-3.99678
-3.69392
-3.41353
-3.16362
-2.95922
-2.801
-2.69595
-2.64421
-2.65184
-2.70846
-2.82101
-2.97974
-3.17928
-5.39123
-5.34134
-5.16858
-4.91366
-4.61387
-4.298
-3.98656
-3.69603
-3.43843
-3.21834
-3.05047
-2.93247
-2.87123
-2.86566
-2.92271
-3.02946
-3.19533
-3.40931
-3.66663
-5.62372
-5.46312
-5.207
-4.89622
-4.56688
-4.24463
-3.94368
-3.67682
-3.45235
-3.27126
-3.14887
-3.07945
-3.07045
-3.11971
-3.23581
-3.40295
-3.6344
-3.91799
-4.25054
-5.80799
-5.54017
-5.19901
-4.83886
-4.49095
-4.17436
-3.89471
-3.66104
-3.4781
-3.34343
-3.2741
-3.26074
-3.31207
-3.425
-3.61065
-3.84982
-4.16129
-4.53207
-4.96263
-5.95115
-5.5343
-5.10953
-4.71742
-4.37046
-4.07717
-3.8331
-3.64461
-3.51358
-3.4345
-3.42766
-3.4798
-3.60187
-3.79004
-4.05927
-4.38638
-4.79816
-5.28152
-5.84474
-5.91637
-5.36221
-4.89086
-4.50337
-4.18606
-3.93827
-3.74644
-3.61666
-3.5491
-3.53587
-3.60226
-3.73089
-3.93627
-4.21436
-4.58595
-5.02361
-5.56623
-6.20247
-6.9579
-5.66227
-5.04683
-4.5841
-4.23865
-3.97517
-3.78931
-3.66126
-3.59945
-3.60374
-3.66465
-3.81414
-4.03081
-4.3342
-4.72086
-5.22003
-5.80003
-6.51756
-7.3668
-8.4136
-5.14041
-4.56561
-4.1751
-3.90947
-3.72274
-3.61384
-3.56039
-3.57555
-3.66022
-3.80437
-4.04829
-4.36727
-4.78788
-5.30889
-5.97223
-6.74334
-7.7064
-8.86933
-10.3986
-4.35315
-3.94032
-3.67941
-3.5222
-3.42814
-3.406
-3.43428
-3.53246
-3.70392
-3.93922
-4.28888
-4.7264
-5.28834
-5.97898
-6.8598
-7.89786
-9.22186
-10.8706
-13.279
-3.36644
-3.20586
-3.10965
-3.07603
-3.08265
-3.15158
-3.26452
-3.448
-3.70908
-4.0406
-4.5054
-5.07812
-5.81001
-6.71713
-7.89295
-9.31754
-11.197
-13.6376
-17.8243
-2.29969
-2.40634
-2.47835
-2.56877
-2.67619
-2.83484
-3.03031
-3.29581
-3.64314
-4.0694
-4.65242
-5.37241
-6.30283
-7.48375
-9.06356
-11.0628
-13.8332
-17.6309
-25.7855
-1.28404
-1.58706
-1.79891
-2.00064
-2.20227
-2.44419
-2.71438
-3.05144
-3.47188
-3.97938
-4.66964
-5.53338
-6.67776
-8.18989
-10.3152
-13.1795
-17.4309
-23.6762
-41.4011
-0.421261
-0.783774
-1.08367
-1.37571
-1.66108
-1.97672
-2.30848
-2.69892
-3.16598
-3.72285
-4.4852
-5.45457
-6.79179
-8.68857
-11.6243
-16.1907
-24.3331
-39.3412
-92.9372
)
;

boundaryField
{
    up
    {
        type            calculated;
        value           nonuniform List<scalar> 
84
(
-84.2187
-45.6124
-27.9989
-19.114
-14.1043
-10.9668
-8.82605
-7.26881
-6.08422
-5.15079
-4.39929
-3.78444
-3.27313
-2.84374
-2.47977
-2.16814
-1.89877
-1.6639
-1.45726
-1.27274
-1.10436
-0.943056
-0.766927
-0.494037
-0.479041
-0.605436
-0.702721
-0.802126
-0.913462
-1.04541
-1.20892
-1.41765
-1.73289
-3.02048
-4.09873
-4.2804
-4.20437
-4.30111
-4.43464
-4.55648
-4.64684
-4.70295
-4.70309
-4.64739
-4.55728
-4.43549
-4.302
-4.20489
-4.27965
-4.10055
-3.03368
-1.73541
-1.41918
-1.21009
-1.04635
-0.914259
-0.802844
-0.703422
-0.606304
-0.479601
-0.493703
-0.766964
-0.943078
-1.10438
-1.27275
-1.45726
-1.66391
-1.89877
-2.16813
-2.47976
-2.84374
-3.27313
-3.78444
-4.39929
-5.15079
-6.08424
-7.26882
-8.82607
-10.9668
-14.1043
-19.114
-27.9989
-45.6124
-84.2187
)
;
    }
    low
    {
        type            calculated;
        value           nonuniform List<scalar> 
84
(
-0.451789
-1.3407
-2.42336
-3.57578
-4.64415
-5.48699
-6.02306
-6.25436
-6.22279
-5.99291
-5.76223
-5.48432
-5.13135
-4.83535
-4.57103
-4.30357
-4.06112
-3.86103
-3.654
-3.42475
-3.23131
-3.06329
-2.90389
-2.76207
-2.62825
-2.54629
-2.54959
-2.64961
-2.824
-3.07102
-3.3745
-3.69054
-4.05487
-4.48316
-4.95306
-5.49357
-6.10468
-6.65684
-7.10565
-7.46841
-7.73446
-7.9151
-7.91513
-7.73449
-7.46846
-7.10572
-6.65692
-6.10476
-5.49368
-4.95304
-4.48322
-4.05483
-3.69053
-3.37449
-3.07101
-2.82399
-2.64962
-2.54961
-2.54632
-2.62829
-2.76216
-2.90392
-3.06332
-3.23135
-3.42478
-3.65401
-3.86105
-4.06113
-4.30357
-4.57102
-4.83534
-5.13134
-5.4843
-5.7622
-5.99289
-6.22279
-6.25437
-6.02308
-5.48702
-4.64418
-3.57581
-2.42338
-1.34072
-0.451792
)
;
    }
    left
    {
        type            calculated;
        value           nonuniform List<scalar> 
19
(
-0.413132
-0.768824
-1.07426
-1.37548
-1.67216
-2.00016
-2.34616
-2.75503
-3.24547
-3.83745
-4.65228
-5.69712
-7.15471
-9.25459
-12.5348
-17.7206
-27.077
-44.5283
-87.3534
)
;
    }
    right
    {
        type            calculated;
        value           nonuniform List<scalar> 
19
(
-0.413134
-0.768826
-1.07426
-1.37549
-1.67216
-2.00016
-2.34616
-2.75503
-3.24547
-3.83745
-4.65228
-5.69712
-7.1547
-9.25458
-12.5348
-17.7206
-27.077
-44.5283
-87.3534
)
;
    }
    frontAndBackPlanes
    {
        type            empty;
    }
}


// ************************************************************************* //
