/*--------------------------------*- C++ -*----------------------------------*\
  =========                 |
  \\      /  F ield         | OpenFOAM: The Open Source CFD Toolbox
   \\    /   O peration     | Website:  https://openfoam.org
    \\  /    A nd           | Version:  7
     \\/     M anipulation  |
\*---------------------------------------------------------------------------*/
FoamFile
{
    version     2.0;
    format      ascii;
    class       volScalarField;
    location    "0.02";
    object      gradTz;
}
// * * * * * * * * * * * * * * * * * * * * * * * * * * * * * * * * * * * * * //

dimensions      [0 -1 0 1 0 0 0];

internalField   nonuniform List<scalar> 
1596
(
-1.61105e-16
-6.71598e-17
7.98324e-17
1.15222e-17
-1.30959e-16
0
-5.06995e-17
-5.03845e-17
-1.45219e-17
-3.15996e-17
3.96941e-20
-3.22664e-17
1.61318e-16
-3.36829e-17
1.47563e-16
1.32478e-16
8.02269e-17
1.12287e-16
0
1.4856e-16
0
1.49115e-16
-4.1878e-18
-2.91838e-17
3.12943e-17
9.10202e-17
1.30213e-17
3.86853e-17
-1.94254e-17
3.93569e-17
1.8935e-19
-5.22644e-17
-3.30881e-17
-1.17044e-16
-1.19858e-16
-1.14433e-16
7.13256e-17
0
-5.87283e-17
0
-7.42817e-17
5.81451e-18
4.34815e-17
-2.54969e-17
5.64403e-18
-9.71053e-20
-1.93999e-20
4.18268e-20
4.97843e-18
0
2.69655e-17
6.42972e-17
-6.38534e-18
6.74413e-18
1.43255e-17
3.41165e-17
0
1.12304e-16
-1.76923e-17
1.76277e-17
0
-1.24846e-17
-1.44075e-17
1.59064e-17
-7.14734e-18
0
0
-1.13893e-17
2.64893e-18
0
-1.54039e-17
-1.28396e-17
1.05885e-17
-2.12941e-17
-9.67809e-19
0
2.16999e-17
3.38675e-17
-1.51139e-17
0
-1.72612e-18
-6.83974e-18
0
8.47974e-18
-5.64541e-19
-5.52687e-19
-4.40699e-18
2.68614e-18
4.12888e-18
7.13301e-19
4.85626e-18
-1.13457e-17
4.67875e-19
5.52189e-18
-3.55377e-18
-5.63511e-18
-4.37061e-17
2.47449e-17
-1.24568e-17
-1.3453e-19
-3.25272e-18
6.80918e-20
-6.83178e-20
-1.28734e-18
0
-1.97947e-18
-3.39265e-18
-3.61353e-18
1.58541e-18
4.41534e-18
-4.39034e-20
-2.3762e-18
-5.60077e-18
5.3146e-18
4.70936e-17
-4.75717e-17
3.10096e-17
7.89653e-18
0
2.67662e-18
8.38575e-19
-3.04297e-19
1.51387e-18
-1.87256e-19
-1.39453e-18
-3.19233e-21
-4.37862e-19
-1.58002e-18
-6.62854e-19
7.7416e-19
2.39712e-18
-3.91986e-20
-1.6836e-18
1.61822e-17
8.22558e-17
-5.622e-17
0
0
-2.98059e-18
0
0
0
2.1441e-19
0
0
4.68858e-19
-6.01827e-21
4.72321e-19
-7.28711e-19
0
3.87219e-19
3.07878e-19
0
-4.30304e-17
7.25186e-17
0
0
3.06959e-18
0
-1.95429e-19
1.95231e-19
-2.18239e-19
5.14903e-20
-5.18669e-20
0
7.01256e-20
2.32577e-19
0
-1.07986e-19
-3.91878e-19
-2.89009e-19
1.78369e-16
-7.21642e-17
0
-1.28737e-17
1.27297e-17
0
1.54273e-18
0
0
0
2.20787e-20
-2.21846e-20
0
-6.05081e-20
-9.02538e-21
0
7.32262e-20
4.03207e-20
0
-4.51979e-17
0
0
1.37741e-17
-2.00463e-17
3.60435e-18
1.2236e-18
-2.12287e-19
1.33034e-19
2.13925e-20
-2.94623e-20
-1.47992e-20
0
7.56334e-21
-2.90568e-21
2.94929e-21
2.95844e-20
-3.59763e-20
-1.23246e-20
1.48142e-17
-1.4552e-17
1.81613e-17
3.42249e-17
-7.41783e-18
-6.82304e-18
0
0
0
8.50962e-20
1.05922e-20
1.96474e-20
-4.41044e-21
-7.42803e-21
-1.48199e-21
-1.77288e-21
9.24507e-22
-3.31088e-21
1.10948e-20
-3.10568e-17
3.3305e-17
-4.75821e-17
-3.41459e-17
2.41402e-17
3.10249e-18
-4.32001e-18
1.72824e-18
-6.49058e-19
1.41598e-19
2.96132e-20
-7.42981e-21
3.69682e-23
-7.33986e-22
3.01567e-21
0
-2.72326e-22
3.93114e-21
-7.99621e-22
-2.70621e-16
1.03207e-16
-1.38142e-19
-4.90718e-18
4.69616e-18
3.04643e-18
-4.75919e-18
-6.82097e-19
2.4871e-19
-8.57197e-20
-2.85753e-20
0
-5.38859e-21
-1.07359e-21
-5.28281e-22
-2.00618e-22
5.39646e-24
-8.33684e-22
5.74883e-22
4.39699e-17
-2.8601e-17
-3.25508e-19
-9.29505e-18
-1.098e-17
8.45415e-18
8.04133e-20
6.64703e-19
-2.42152e-19
1.61536e-19
1.88428e-20
8.88583e-21
5.52482e-21
0
8.0379e-22
2.21766e-22
0
1.75376e-22
1.402e-22
0
2.77463e-17
8.5693e-18
-2.44599e-17
1.03378e-17
-1.053e-17
4.18237e-18
4.00143e-19
-2.53317e-19
-2.16146e-19
7.79181e-21
-7.75336e-21
-4.66439e-21
6.59983e-22
-1.92768e-22
-1.85521e-22
2.70974e-23
-1.44079e-23
4.26884e-23
-4.03188e-17
8.24891e-17
-6.59811e-17
1.51101e-17
0
0
-2.96878e-19
9.04485e-19
-1.19426e-19
1.72648e-19
0
0
2.67789e-21
-1.24317e-21
-2.09266e-22
5.7203e-23
-2.27569e-23
1.04755e-23
0
1.36804e-17
3.79351e-17
-1.39884e-17
-7.80152e-18
-4.65906e-18
1.33978e-18
1.32898e-18
0
-9.5288e-20
-5.9536e-22
1.33223e-20
-4.07041e-21
1.21656e-21
0
1.06518e-22
7.23122e-23
0
0
0
-1.35819e-17
2.20832e-17
-3.83709e-18
-2.49252e-17
2.62657e-18
1.25782e-18
0
0
7.33504e-20
-4.73786e-20
-1.28856e-20
3.93683e-21
-1.1765e-21
0
-2.71639e-23
1.70275e-23
0
-1.88232e-24
-5.08035e-25
-2.11953e-17
6.58798e-17
-5.38454e-17
-7.72259e-18
5.09685e-18
-8.56512e-19
3.14352e-19
0
-3.53536e-20
1.50187e-20
0
0
2.10933e-22
-2.11176e-22
8.56139e-24
-1.59994e-23
3.57821e-24
8.59582e-25
3.84335e-25
1.60902e-17
-9.29457e-18
2.44894e-17
-1.41447e-17
-1.73303e-18
4.74349e-19
9.18359e-19
7.69039e-20
3.3828e-20
0
1.64362e-21
-1.50858e-21
4.32573e-22
-1.31145e-22
2.51634e-23
-2.02483e-23
-2.22736e-24
1.23312e-24
1.37419e-25
3.25025e-17
-3.81873e-17
0
5.24852e-18
-3.53884e-18
-6.26199e-19
3.05596e-20
-3.2342e-19
0
-9.91014e-22
-3.57959e-21
-5.76714e-22
2.36596e-22
-5.12335e-23
-2.432e-23
6.72851e-24
0
2.86383e-25
-1.33432e-25
8.42842e-17
-7.63346e-18
1.39058e-17
-1.03072e-17
1.03712e-18
-8.35183e-19
-5.29886e-19
-2.62564e-20
3.38134e-20
-3.24531e-21
-1.31e-21
7.47174e-22
-1.5806e-22
-3.74439e-23
0
0
0
-2.85563e-25
7.13705e-27
-5.40829e-17
4.76273e-17
-1.98377e-19
1.20515e-18
4.93076e-19
-3.51365e-19
2.38593e-19
-7.0953e-20
2.19215e-20
-1.16251e-21
1.86028e-21
1.10497e-22
-1.85485e-23
2.82879e-26
6.29213e-25
-4.99016e-25
0
0
0
0
0
5.46248e-18
-6.75818e-18
-3.71871e-18
0
0
-1.12509e-20
-7.09864e-21
1.65214e-21
0
-1.39357e-22
3.70316e-23
-3.19052e-23
2.91983e-23
-1.77899e-24
1.85214e-24
6.65564e-26
0
-1.00002e-17
1.01233e-17
0
-1.32187e-18
7.86153e-19
5.80817e-19
0
1.13583e-20
1.24905e-21
-1.11036e-20
0
-1.12586e-22
3.11958e-23
9.47564e-24
-2.73397e-24
1.72549e-24
0
-1.70965e-25
0
-5.21683e-18
-2.58379e-18
1.74214e-19
1.35819e-18
-1.51131e-18
0
-5.58566e-20
0
1.47188e-20
1.68483e-21
0
3.68488e-22
-2.1379e-22
2.85065e-23
2.01461e-24
4.48084e-24
2.86367e-24
3.94315e-25
-3.15976e-25
0
8.15682e-18
-2.87385e-18
3.21043e-18
1.02408e-18
0
1.01848e-19
-6.85115e-20
-8.63289e-21
2.97532e-21
-3.87475e-21
-2.92137e-22
0
0
2.72401e-24
0
0
2.51706e-25
0
-4.98249e-17
4.07613e-17
0
8.59721e-19
-2.44056e-19
-1.31989e-20
1.45961e-19
4.3699e-21
-3.49862e-20
-1.43736e-20
5.08458e-21
-1.16838e-21
0
-8.77744e-24
0
0
0
-1.10472e-24
9.23647e-25
-1.72917e-17
1.04761e-17
1.46552e-17
-1.1253e-17
1.61228e-18
2.88826e-19
-1.43693e-19
4.61317e-20
2.73803e-20
6.10009e-21
-1.04123e-20
0
1.21567e-22
-1.08395e-22
-1.25409e-23
1.0308e-23
-5.56378e-24
-1.5779e-24
1.29895e-24
-7.0752e-17
5.01101e-17
-4.47105e-17
3.81668e-18
1.51975e-18
-1.0501e-18
4.64807e-19
-1.03729e-19
0
-1.52928e-20
4.44626e-21
1.4381e-21
7.75319e-22
5.89492e-23
-6.06524e-23
4.75733e-24
0
4.63215e-25
-1.59497e-25
-7.60877e-17
-1.33359e-17
-1.25078e-17
8.53459e-18
-4.41987e-18
1.86522e-18
-7.92876e-19
2.12348e-19
-4.23723e-20
-2.59794e-20
-9.24486e-21
8.0429e-21
4.14588e-22
3.45267e-22
-3.70648e-22
-2.62085e-23
-7.84815e-24
0
3.82869e-24
8.22675e-17
-1.56043e-17
0
0
-4.82243e-18
7.35711e-18
-1.04293e-18
-4.86159e-20
2.19261e-19
-1.75705e-20
0
0
-1.38401e-21
0
-4.51747e-22
4.16215e-22
-1.26681e-22
0
-4.25883e-24
2.42977e-17
3.41268e-17
0
-7.03721e-18
-2.21954e-18
8.051e-20
-1.11147e-18
1.62461e-19
-3.10902e-19
-3.47987e-20
0
0
9.78404e-21
0
0
-1.09704e-21
2.50633e-21
0
0
1.68504e-16
-3.58638e-17
-6.69014e-17
-1.65194e-17
2.36498e-17
3.40358e-18
1.0777e-18
0
-1.05373e-19
5.62046e-20
9.52119e-20
-2.23809e-20
-8.58557e-21
7.83291e-21
-8.33182e-21
-7.12876e-22
0
0
0
1.34343e-17
-7.39799e-17
7.01205e-17
-4.08813e-18
-1.74055e-17
2.19267e-17
-8.24661e-18
0
0
5.0882e-19
-3.35025e-19
0
-1.65395e-20
3.3624e-20
-5.51933e-22
3.9785e-21
7.67985e-22
2.64442e-23
9.25341e-23
0
0
0
3.13248e-17
-2.19297e-17
9.00743e-18
-1.22487e-17
2.43211e-18
0
-2.13257e-19
1.54885e-19
-1.58301e-19
-1.12939e-20
1.77288e-21
-2.81224e-21
-1.79326e-22
-1.54789e-21
-4.03017e-22
-1.85565e-22
1.02689e-16
-1.62456e-16
6.69107e-17
0
5.80399e-18
-8.44497e-18
3.49654e-18
-2.67006e-18
0
-2.55665e-19
3.80946e-19
0
0
2.02082e-21
0
-3.35408e-21
2.0638e-21
6.15401e-23
3.28768e-22
1.21759e-16
0
-2.29151e-17
2.51536e-17
-7.4287e-18
1.40012e-17
-5.15438e-18
-1.55897e-18
1.57525e-18
-7.46833e-20
0
0
1.10517e-20
-9.95645e-21
-4.64453e-21
7.78909e-21
-1.43612e-21
4.68397e-22
0
6.83844e-17
3.4709e-17
-9.43558e-18
-2.44686e-17
-1.42228e-18
-5.81659e-18
2.35808e-18
3.07279e-18
-7.60985e-20
7.60857e-20
0
0
-1.13217e-20
0
5.80725e-21
-6.21237e-21
0
5.07836e-22
-1.29609e-22
-3.61338e-17
-1.74936e-17
1.65333e-17
-1.16718e-18
-3.67275e-19
6.58128e-19
0
-7.21901e-20
5.57699e-19
-4.65995e-19
0
3.75213e-20
-1.83777e-20
-2.15846e-20
-1.13589e-21
-6.73882e-22
0
-4.0699e-22
0
1.23096e-17
-2.10337e-17
1.88854e-18
5.93343e-18
2.73117e-18
-2.59858e-18
-8.06371e-19
8.89155e-19
-1.23051e-19
1.03856e-19
-3.62194e-20
3.73365e-20
0
3.15513e-23
-6.91151e-22
2.63723e-21
-6.72838e-24
0
0
1.23101e-17
-1.2264e-17
-5.89889e-18
5.34518e-18
4.72502e-18
-4.75291e-18
-4.03235e-19
4.04888e-19
-1.24334e-19
1.25524e-19
-3.62264e-20
5.70736e-20
-1.50491e-20
-5.7593e-21
-8.92436e-22
4.39585e-22
5.64617e-22
1.20364e-22
-8.76839e-23
0
-2.58293e-18
1.0027e-17
-1.1228e-17
4.68108e-18
-4.26919e-18
0
8.81734e-19
-8.16097e-19
0
6.94725e-20
-8.34723e-20
-2.06092e-20
2.15997e-20
2.07463e-21
0
0
-4.07517e-22
1.40164e-22
4.88787e-17
-8.07887e-17
6.31774e-17
-4.0613e-17
1.35521e-17
-4.97361e-18
4.92599e-18
2.66898e-19
-5.29198e-19
4.58997e-19
0
-7.74484e-20
7.04615e-20
-6.17084e-21
-2.0321e-21
2.00704e-21
1.18248e-21
3.95621e-22
-1.3543e-22
1.35792e-16
0
-2.64092e-17
2.06854e-17
1.40633e-18
-5.97829e-18
8.50821e-18
-4.7174e-18
1.44571e-18
-2.15278e-19
2.20356e-19
2.07709e-20
1.88252e-20
6.01047e-21
-2.74158e-21
-6.35963e-22
-2.57955e-21
0
1.54862e-22
8.88483e-17
-1.00088e-16
0
4.41593e-18
1.10704e-17
-9.97295e-18
8.40994e-19
4.48512e-19
1.28111e-19
1.17488e-19
0
0
-2.79807e-20
3.84738e-20
-1.097e-20
-1.88976e-21
2.06897e-21
1.15375e-22
-2.76876e-22
3.1502e-17
8.89055e-17
-6.61166e-18
-2.71579e-17
2.44478e-17
1.49227e-18
-8.23066e-19
-4.38063e-19
6.38998e-19
-7.58289e-19
1.55185e-19
-1.58606e-19
4.37712e-21
-1.3902e-20
7.69793e-21
-5.16452e-21
0
0
1.16842e-22
0
1.91846e-17
-3.55564e-17
4.17554e-17
-1.49858e-17
1.49501e-17
0
1.10507e-18
-1.11013e-18
-2.59804e-19
3.35907e-19
0
2.74534e-20
-3.37302e-20
-2.68643e-21
0
-9.99717e-23
-7.51446e-23
-5.79026e-23
-2.32883e-16
9.68631e-17
0
-2.3666e-17
2.36636e-17
5.74191e-18
-3.60935e-18
5.1772e-19
0
-6.03349e-21
1.02405e-21
-2.24311e-20
-8.61427e-21
7.86012e-21
-8.35792e-21
0
3.13403e-22
8.4746e-23
-5.7479e-23
1.30717e-16
-1.17283e-16
0
6.31666e-18
3.44246e-18
-2.18294e-18
0
-5.42575e-19
-1.65135e-19
0
-2.32543e-20
0
9.83402e-21
0
0
2.41894e-22
3.8099e-22
-7.47418e-22
0
-1.95054e-19
1.56159e-17
-9.21138e-18
2.48768e-18
-1.59282e-17
4.35866e-18
0
4.87806e-20
1.01762e-19
0
-2.55473e-20
1.5727e-20
-1.65221e-20
4.26065e-22
0
-1.97795e-22
0
0
0
-1.90387e-19
0
8.51362e-18
0
-3.17858e-18
3.22911e-18
0
1.38026e-19
-4.16811e-20
8.79607e-20
-2.95826e-20
1.57425e-21
-8.51347e-22
-3.91161e-23
-3.7271e-22
-1.45731e-23
0
6.27209e-24
0
4.25978e-17
-7.38608e-17
0
-3.28388e-18
1.47676e-18
0
0
-2.07988e-19
0
-1.53618e-20
-4.46945e-21
-1.44688e-21
7.80549e-22
0
-2.56949e-24
0
0
-6.3826e-24
1.47238e-24
0
4.38586e-17
-3.32326e-17
3.04013e-18
-1.36748e-18
-1.61069e-19
3.07733e-19
1.20804e-19
-3.85848e-20
1.13679e-20
2.24587e-21
-2.66511e-22
8.4104e-22
-1.27954e-22
-3.21604e-24
-4.93791e-24
1.88371e-26
-4.38489e-25
-2.76504e-25
-1.25612e-16
4.11992e-17
0
0
2.97543e-19
-3.02568e-19
-8.8471e-21
-3.06828e-20
1.89318e-20
2.84375e-21
-2.04986e-21
-2.07836e-22
-3.60831e-23
8.72745e-24
0
7.42301e-25
-1.72656e-26
3.05354e-25
2.49921e-25
0
2.2836e-17
-1.3015e-17
2.91886e-18
6.98599e-19
-1.09392e-19
-8.35624e-20
-2.47875e-20
-2.22381e-20
2.13658e-21
1.18268e-22
5.36786e-22
3.37422e-23
-9.41651e-24
9.99505e-24
2.20478e-24
-2.68841e-24
-2.8204e-25
0
-8.16965e-18
-2.02393e-17
3.50919e-18
1.35938e-18
-1.69802e-18
8.26545e-19
6.03324e-20
-6.1669e-20
8.21081e-21
-2.02772e-21
0
0
-3.82775e-23
5.17001e-23
-1.22869e-23
2.72486e-24
-3.02579e-24
2.01662e-25
-3.4394e-25
1.30403e-17
7.23339e-18
-3.18136e-18
3.66917e-19
-1.25234e-18
-2.83892e-19
0
0
0
0
0
0
3.38456e-23
-2.4369e-23
2.57728e-23
-1.44981e-24
2.10433e-24
3.02288e-25
-2.25978e-25
3.23062e-17
-2.0149e-17
2.35381e-17
-1.99805e-18
3.29112e-18
-3.51275e-19
4.51057e-19
-1.16048e-19
-7.93987e-21
8.12212e-21
0
1.39142e-22
-3.30654e-23
2.26939e-23
-1.76175e-23
-5.64912e-24
-2.55765e-24
2.89748e-25
1.47872e-25
5.29788e-17
7.22085e-18
0
-2.55068e-18
-5.76165e-19
8.89087e-19
-7.4766e-20
-5.9655e-20
1.57631e-20
-2.55865e-21
0
-1.10147e-22
0
-1.49515e-23
5.78312e-24
-1.71292e-24
-3.06584e-25
4.84188e-26
0
7.01101e-17
-7.63323e-18
1.42432e-17
-1.0542e-17
-6.44186e-19
7.66525e-19
-4.28555e-19
2.36653e-20
1.0996e-20
-3.88011e-21
2.15283e-21
0
0
3.19981e-23
6.96745e-25
3.562e-26
1.02057e-24
-2.2519e-25
0
-1.30501e-19
0
-4.05846e-18
1.10049e-17
-6.1597e-18
-1.61357e-18
7.93207e-19
-1.32809e-19
9.5919e-20
1.1559e-20
-3.05298e-21
7.19979e-22
-2.81319e-22
4.21132e-23
4.50864e-23
-2.29161e-24
-1.7897e-24
8.52364e-25
-1.48229e-25
1.46763e-16
-4.10912e-17
4.17476e-18
-1.83729e-17
1.73303e-18
-1.15652e-18
7.54914e-19
0
0
-1.66742e-21
-3.47769e-21
-3.20895e-22
0
-9.12275e-23
-2.51635e-23
6.95235e-24
-2.02288e-25
6.64633e-25
3.94324e-25
0
-3.14584e-17
2.7291e-17
-2.95906e-18
-1.01085e-17
8.56508e-19
-4.75336e-19
3.06152e-19
1.62404e-19
0
0
2.22349e-22
7.34195e-22
0
-5.92759e-23
-1.10639e-23
1.76677e-24
-3.2695e-25
-7.55979e-25
0
-1.31052e-17
1.59274e-17
1.90146e-17
3.63541e-18
-5.54897e-18
1.59905e-18
-2.18138e-19
1.53471e-19
-4.08029e-20
0
0
0
-3.47119e-22
-5.41053e-24
-2.73099e-23
0
-1.85532e-25
6.96744e-25
-1.01772e-16
8.63032e-17
4.14817e-17
-4.7478e-17
7.73387e-18
-6.08049e-18
0
2.76675e-19
-3.04512e-19
8.37681e-20
-1.69473e-20
5.27639e-21
1.60694e-21
3.58998e-22
1.0653e-22
0
0
0
0
1.3634e-16
-5.17739e-17
0
0
-3.87468e-18
3.85587e-18
-2.27455e-18
-3.40496e-19
3.36657e-19
5.46339e-20
3.87794e-20
-5.47477e-21
1.01162e-21
2.86665e-23
5.6933e-23
9.28709e-24
2.59835e-23
-7.51292e-25
7.65258e-25
-1.28413e-16
9.63088e-17
2.49188e-17
-1.56883e-17
1.00908e-17
-5.97176e-18
-1.5851e-18
-6.10602e-19
0
-1.23508e-19
2.56014e-20
7.99188e-21
-2.14978e-21
-6.60246e-22
-7.7933e-23
-4.90399e-24
-1.25797e-23
0
0
-4.38425e-17
0
1.71771e-17
2.52527e-19
0
0
1.63508e-18
6.30055e-19
0
7.81516e-20
0
-1.112e-20
-6.9426e-23
1.00255e-21
0
2.2322e-22
-1.89985e-23
1.9381e-23
0
1.05441e-16
0
2.75801e-17
-4.12815e-17
2.36102e-17
7.32422e-18
-1.22052e-18
0
8.14737e-20
1.68512e-19
0
-1.2948e-20
7.25084e-21
-3.13694e-21
-4.15352e-22
-1.587e-22
-7.39437e-23
-3.70459e-23
-7.31653e-22
-7.68826e-17
1.05278e-16
-1.80625e-17
-2.92301e-17
-9.66924e-18
-4.37773e-18
-3.597e-18
-4.80564e-19
2.17611e-19
2.96694e-20
-2.96137e-20
2.10108e-20
-4.74651e-21
5.02602e-21
-7.41718e-22
0
2.36025e-21
-2.75681e-21
6.45452e-22
2.16845e-16
-1.18217e-17
-8.33609e-17
3.42252e-17
-2.12205e-17
9.84429e-18
-1.1773e-18
-6.50237e-19
2.37858e-19
2.91928e-20
-1.85935e-20
-2.17989e-20
2.44979e-21
6.96682e-21
-8.57036e-22
8.66811e-22
-2.44464e-21
-8.34291e-21
-1.05022e-20
1.06452e-16
2.97011e-17
3.51698e-17
-1.80199e-17
-6.45637e-18
2.60673e-18
-1.12033e-18
2.14463e-18
1.18135e-19
1.66142e-19
4.23586e-20
-2.73237e-20
0
-7.55312e-21
0
0
3.35449e-20
9.4021e-21
1.12296e-20
8.8114e-17
0
3.23377e-17
1.79036e-17
-7.8883e-18
3.78483e-18
0
-5.951e-19
-3.79204e-19
-1.66981e-19
-4.27335e-20
2.76327e-20
0
0
0
0
-3.24198e-20
-1.27739e-19
0
-1.71844e-16
0
-8.34678e-18
-8.04422e-18
1.22259e-17
-1.55485e-18
-1.71023e-19
-3.83767e-19
3.49106e-19
0
5.14847e-20
-2.37773e-21
1.43471e-19
0
0
2.69414e-19
-2.22457e-20
1.54316e-19
-3.00632e-19
1.1311e-16
1.96886e-17
-1.94854e-17
-9.60137e-18
-1.43066e-17
5.30762e-18
2.63893e-18
-2.27301e-19
-3.05662e-19
5.10552e-19
6.77889e-20
-5.81164e-19
-2.6592e-19
-5.14564e-19
-6.21252e-19
-3.18796e-19
9.61502e-19
-3.42233e-20
3.07911e-19
-3.00826e-17
9.0438e-18
-3.40651e-17
2.3332e-18
-2.32471e-18
0
-1.33842e-18
-7.1789e-19
-1.32736e-18
7.84276e-19
1.39449e-18
5.06843e-19
-1.99573e-19
-7.7822e-19
5.45334e-19
0
-3.32774e-18
-2.49084e-18
-4.14469e-20
7.24966e-17
-1.0546e-18
4.93556e-17
-1.32263e-17
1.3453e-19
1.51475e-19
3.668e-18
-1.84148e-18
1.28732e-18
-1.24698e-18
-1.26849e-18
0
3.61355e-18
1.54833e-18
4.24036e-20
-6.81438e-20
2.4019e-18
2.52208e-18
0
-4.80933e-17
0
-2.20573e-18
1.44526e-17
9.41223e-19
1.72842e-18
-3.5469e-18
3.17687e-18
7.31247e-18
7.36114e-18
7.55505e-18
0
-3.5105e-18
0
4.00118e-19
-4.15558e-19
0
-9.28404e-20
6.93374e-18
4.20128e-17
1.03291e-17
-7.42158e-18
3.05117e-17
-7.69e-18
0
0
-1.56431e-17
-7.08504e-18
-7.1313e-18
-2.08061e-17
-2.64893e-18
0
0
0
-1.82324e-18
1.92945e-18
2.0672e-17
-7.07642e-18
1.39091e-17
0
-3.13692e-17
-1.64896e-17
2.53779e-17
-3.10529e-17
-4.0838e-17
3.60387e-17
1.97744e-17
0
1.55963e-17
3.1643e-17
-5.81327e-18
4.02394e-17
-6.54031e-18
6.80687e-18
3.79741e-17
-1.96741e-17
0
-7.68817e-17
0
-5.99325e-17
5.5662e-17
0
6.96617e-17
2.92895e-17
-7.73728e-17
8.02715e-17
2.92644e-20
-1.96243e-17
-3.06369e-17
0
7.96409e-17
-1.17044e-16
1.31111e-16
-1.68188e-16
0
0
8.03977e-17
-4.31451e-18
-8.85191e-18
-1.32047e-16
1.438e-16
-6.3757e-17
6.34971e-17
6.30826e-17
-3.58298e-17
0
0
1.2625e-16
-1.28425e-16
-1.08764e-16
1.1271e-16
-1.15257e-16
1.31455e-16
-2.1755e-16
0
)
;

boundaryField
{
    up
    {
        type            calculated;
        value           nonuniform List<scalar> 
84
(
0
0
0
0
-3.55377e-18
5.3146e-18
-1.6836e-18
3.07878e-19
-2.89009e-19
0
-1.23246e-20
1.10948e-20
-7.99621e-22
5.74883e-22
1.402e-22
4.26884e-23
0
0
-5.08035e-25
3.84335e-25
1.37419e-25
-1.33432e-25
7.13705e-27
0
5.07644e-26
6.01141e-26
-2.43952e-25
0
9.23647e-25
-1.41235e-25
-1.59497e-25
3.82869e-24
-4.25883e-24
0
7.61368e-23
7.71672e-23
-1.62003e-22
2.98396e-22
0
-1.09391e-22
0
0
-8.22651e-23
1.40164e-22
-1.3543e-22
1.54862e-22
-2.76876e-22
1.16842e-22
-5.79026e-23
-5.7479e-23
0
0
0
1.47238e-24
1.68223e-24
2.49921e-25
0
-3.4394e-25
-2.25978e-25
9.79486e-26
0
0
-1.48229e-25
3.94324e-25
-7.55979e-25
6.96744e-25
0
7.65258e-25
0
0
-7.31653e-22
6.45452e-22
-1.05022e-20
1.12296e-20
0
-3.00632e-19
3.07911e-19
-4.14469e-20
0
6.93374e-18
-7.07642e-18
0
0
0
)
;
    }
    low
    {
        type            calculated;
        value           nonuniform List<scalar> 
84
(
-1.62452e-16
1.4856e-16
-5.63959e-17
1.13811e-16
2.25338e-17
-5.84354e-18
4.86507e-17
1.7587e-17
0
1.80322e-16
-4.51979e-17
1.31758e-17
-3.10568e-17
-2.71882e-16
4.39699e-17
0
-4.03188e-17
1.36804e-17
-1.35819e-17
-2.11953e-17
1.60902e-17
3.25025e-17
8.54298e-17
-5.40829e-17
0
-1.00002e-17
-5.21683e-18
0
-4.98249e-17
-1.72917e-17
-7.16029e-17
-7.69707e-17
8.32024e-17
2.42977e-17
1.6957e-16
1.34343e-17
0
1.02689e-16
1.2325e-16
6.91372e-17
-3.65148e-17
1.23096e-17
1.23101e-17
0
4.88787e-17
1.37283e-16
8.88483e-17
3.2903e-17
0
-2.33948e-16
1.30717e-16
-1.95054e-19
-1.90387e-19
4.25978e-17
0
-1.26097e-16
0
-8.16965e-18
1.30403e-17
3.27097e-17
5.40883e-17
7.12554e-17
-1.30501e-19
1.47903e-16
0
0
-1.01772e-16
1.37466e-16
-1.29583e-16
-4.38425e-17
1.06703e-16
-7.68826e-17
2.20122e-16
1.08235e-16
8.8114e-17
-1.71844e-16
1.11706e-16
-2.85256e-17
7.24966e-17
-4.72593e-17
4.20128e-17
1.62415e-17
-7.68817e-17
8.10714e-17
)
;
    }
    left
    {
        type            calculated;
        value           nonuniform List<scalar> 
19
(
-1.61105e-16
-6.67659e-17
7.98324e-17
1.28706e-17
-1.32536e-16
0
-5.06995e-17
-5.03845e-17
-1.6364e-17
-3.15996e-17
3.96941e-20
-3.22664e-17
1.65194e-16
-3.36829e-17
1.47563e-16
1.32478e-16
8.02269e-17
1.29101e-16
0
)
;
    }
    right
    {
        type            calculated;
        value           nonuniform List<scalar> 
19
(
8.03977e-17
-4.70832e-18
-8.85191e-18
-1.33395e-16
1.45377e-16
-6.3757e-17
6.34971e-17
6.30826e-17
-3.39876e-17
0
0
1.30103e-16
-1.32302e-16
-1.08764e-16
1.1271e-16
-1.15257e-16
1.31455e-16
-2.34363e-16
0
)
;
    }
    frontAndBackPlanes
    {
        type            empty;
    }
}


// ************************************************************************* //
