/*--------------------------------*- C++ -*----------------------------------*\
  =========                 |
  \\      /  F ield         | OpenFOAM: The Open Source CFD Toolbox
   \\    /   O peration     | Website:  https://openfoam.org
    \\  /    A nd           | Version:  7
     \\/     M anipulation  |
\*---------------------------------------------------------------------------*/
FoamFile
{
    version     2.0;
    format      ascii;
    class       volScalarField;
    location    "0.02";
    object      T;
}
// * * * * * * * * * * * * * * * * * * * * * * * * * * * * * * * * * * * * * //

dimensions      [0 0 0 1 0 0 0];

internalField   nonuniform List<scalar> 
1596
(
0.976433
0.915758
0.868419
0.839748
0.825194
0.818468
0.815402
0.813731
0.812999
0.812609
0.813068
0.814627
0.816551
0.81757
0.814557
0.798817
0.755351
0.658418
0.463121
0.907912
0.737163
0.616648
0.546975
0.512332
0.496604
0.489665
0.486371
0.485151
0.485016
0.486604
0.49035
0.495826
0.502256
0.507377
0.502824
0.473828
0.396752
0.237729
0.849061
0.599144
0.430449
0.334984
0.288112
0.267313
0.258587
0.254941
0.253815
0.253988
0.255835
0.259688
0.265488
0.273139
0.28192
0.286697
0.277048
0.234218
0.130971
0.81462
0.519516
0.32285
0.211746
0.157128
0.133088
0.123309
0.119546
0.118441
0.118556
0.119896
0.122587
0.126696
0.132408
0.139879
0.146834
0.147593
0.129703
0.0727235
0.802867
0.48815
0.276186
0.154631
0.0939316
0.0669414
0.055989
0.0518737
0.0505777
0.0504294
0.0510992
0.0525329
0.0547658
0.0579771
0.0625204
0.0677098
0.0711444
0.0659499
0.0387119
0.80524
0.486434
0.266088
0.13626
0.0696822
0.0393734
0.0268594
0.0221057
0.0204877
0.0200664
0.0202487
0.0208478
0.0218343
0.0232948
0.0254865
0.0283245
0.0310668
0.0305552
0.019205
0.814036
0.499387
0.274448
0.137321
0.0646288
0.030501
0.0160248
0.010394
0.00837985
0.00773109
0.0076365
0.00781007
0.00816867
0.0087249
0.00960302
0.0108507
0.0123448
0.0128839
0.00876493
0.824474
0.517768
0.290624
0.147035
0.0681556
0.029855
0.0131026
0.0064054
0.00392997
0.00307559
0.00282858
0.00281537
0.0029118
0.00308933
0.00338774
0.00384499
0.00448894
0.0049506
0.00366082
0.835062
0.537622
0.309698
0.160401
0.0754303
0.032744
0.0134722
0.00554291
0.00253042
0.00145734
0.0011046
0.0010084
0.00100691
0.00104895
0.0011342
0.00127521
0.00150498
0.00173866
0.00139727
0.842926
0.553894
0.326476
0.17309
0.0831243
0.0365692
0.0149482
0.00581573
0.00226161
0.000967695
0.000525585
0.000384442
0.000346602
0.000345402
0.000363612
0.000399565
0.000468452
0.000559835
0.000487514
0.847253
0.56451
0.338476
0.182855
0.0894825
0.0400298
0.0165341
0.00639271
0.00236624
0.000874101
0.000354524
0.000182301
0.000128325
0.000113597
0.000113157
0.000119647
0.000136691
0.000166049
0.000155612
0.851021
0.572625
0.347576
0.190418
0.0945716
0.0429208
0.01795
0.00698916
0.00256866
0.000907302
0.000321394
0.000124422
6.07159e-05
4.09257e-05
3.55339e-05
3.49749e-05
3.80217e-05
4.58458e-05
4.56496e-05
0.853157
0.577032
0.352519
0.194632
0.0975084
0.0446553
0.0188368
0.00738541
0.0027211
0.00095217
0.000323368
0.000110514
4.11127e-05
1.91196e-05
1.23788e-05
1.03915e-05
1.03092e-05
1.1943e-05
1.23881e-05
0.852383
0.576038
0.351905
0.194485
0.0976257
0.0448282
0.0189656
0.00745573
0.00275087
0.000960492
0.000322245
0.000105737
3.50491e-05
1.26171e-05
5.65148e-06
3.47997e-06
2.86068e-06
3.00361e-06
3.13695e-06
0.850351
0.571421
0.347029
0.190761
0.0953224
0.0436095
0.0183935
0.00721081
0.00265269
0.000922566
0.000307394
9.93115e-05
3.16056e-05
1.02127e-05
3.59592e-06
1.5482e-06
9.13932e-07
7.7176e-07
7.55568e-07
0.847436
0.56398
0.338634
0.183998
0.0909355
0.0411841
0.0172109
0.0066896
0.00244085
0.000841905
0.000278002
8.87882e-05
2.77227e-05
8.59406e-06
2.73223e-06
9.41813e-07
3.9297e-07
2.3005e-07
1.81571e-07
0.842791
0.552887
0.3263
0.174107
0.0845277
0.0376445
0.0154879
0.00593319
0.00213549
0.00072698
0.000236966
7.46711e-05
2.29555e-05
6.95997e-06
2.12117e-06
6.64587e-07
2.26149e-07
9.27533e-08
4.87952e-08
0.836727
0.538585
0.31064
0.161729
0.0766175
0.0333309
0.0134147
0.00503466
0.00177767
0.000594289
0.000190374
5.89756e-05
1.7819e-05
5.30056e-06
1.57553e-06
4.72985e-07
1.47271e-07
4.9507e-08
1.72264e-08
0.831244
0.523791
0.294052
0.148632
0.0683296
0.0288686
0.0112997
0.00413109
0.00142307
0.000464769
0.000145603
4.41446e-05
1.30587e-05
3.80245e-06
1.10462e-06
3.22363e-07
9.60871e-08
2.96078e-08
8.13401e-09
0.825485
0.507651
0.276074
0.134726
0.0597517
0.024372
0.00922375
0.00326651
0.00109202
0.000346713
0.000105745
3.12477e-05
9.01689e-06
2.56244e-06
7.26449e-07
2.06609e-07
5.97438e-08
1.76229e-08
4.39206e-09
0.818159
0.488661
0.255845
0.119739
0.0508942
0.0199169
0.00724603
0.00247254
0.000798315
0.000245331
7.2566e-05
2.08296e-05
5.84641e-06
1.61769e-06
4.46825e-07
1.23827e-07
3.48546e-08
9.97604e-09
2.38563e-09
0.810669
0.468366
0.23459
0.104508
0.0422488
0.0157507
0.00547381
0.00178976
0.000555419
0.000164528
4.70295e-05
1.30742e-05
3.56061e-06
9.57387e-07
2.57276e-07
6.94219e-08
1.90331e-08
5.30632e-09
1.23896e-09
0.804158
0.448642
0.213809
0.0899171
0.0342359
0.0120394
0.00396099
0.00123157
0.000365078
0.000103731
2.85451e-05
7.66337e-06
2.02073e-06
5.27216e-07
1.37716e-07
3.61699e-08
9.66124e-09
2.62618e-09
6.02086e-10
0.799442
0.431507
0.195203
0.076866
0.0271884
0.00886182
0.00270823
0.000786204
0.000219012
5.88646e-05
1.54168e-05
3.95896e-06
1.0025e-06
2.5189e-07
6.3492e-08
1.60983e-08
4.14495e-09
1.07436e-09
2.23781e-10
0.800856
0.428107
0.189801
0.0725663
0.0247356
0.00773649
0.00226945
0.000635825
0.000172645
4.58207e-05
1.2018e-05
3.13222e-06
8.1402e-07
2.11608e-07
5.54414e-08
1.46159e-08
3.87867e-09
9.94192e-10
1.65192e-10
0.806953
0.436936
0.195867
0.0753663
0.0256661
0.00794407
0.00228381
0.000622399
0.000164029
4.25071e-05
1.10452e-05
2.91427e-06
7.85895e-07
2.16938e-07
6.1446e-08
1.7729e-08
5.16071e-09
1.42766e-09
2.43046e-10
0.813313
0.450727
0.207963
0.082453
0.0288362
0.00908921
0.00262505
0.000705285
0.000179163
4.38042e-05
1.06097e-05
2.63067e-06
6.90289e-07
1.95684e-07
6.01545e-08
1.96529e-08
6.60861e-09
2.07826e-09
3.80514e-10
0.819532
0.468826
0.22621
0.0945013
0.0349274
0.0116147
0.00351494
0.000976223
0.000250462
5.9623e-05
1.33248e-05
2.8555e-06
6.18957e-07
1.50802e-07
4.6492e-08
1.80746e-08
7.84742e-09
3.12177e-09
6.64246e-10
0.826227
0.490248
0.249494
0.111147
0.044098
0.0157931
0.00515063
0.00153819
0.000421609
0.000105685
2.40731e-05
4.88132e-06
8.44444e-07
1.14878e-07
1.34102e-08
6.45244e-09
6.73615e-09
4.67741e-09
1.44487e-09
0.832784
0.512645
0.2754
0.131031
0.0559498
0.021678
0.00767974
0.00250051
0.000750078
0.000206588
5.18403e-05
1.15329e-05
2.10536e-06
2.23895e-07
-4.1336e-08
-3.38443e-08
-7.40554e-09
4.2094e-09
3.4198e-09
0.839247
0.534909
0.302371
0.153095
0.0701253
0.029327
0.0112774
0.00400967
0.00132305
0.000404786
0.00011446
2.93928e-05
6.51906e-06
1.03554e-06
-3.10166e-08
-1.28957e-07
-6.846e-08
-1.47687e-08
5.59868e-09
0.847195
0.558442
0.33105
0.177627
0.0869181
0.0390965
0.0162762
0.00630969
0.0022895
0.000778997
0.000248966
7.4228e-05
2.01878e-05
4.66873e-06
6.66181e-07
-1.71671e-07
-2.17589e-07
-1.07005e-07
-8.59856e-09
0.85501
0.581054
0.359568
0.203443
0.105869
0.0510307
0.0229364
0.00967634
0.00385633
0.00145783
0.000525826
0.000181211
5.94122e-05
1.82143e-05
4.95334e-06
9.1457e-07
-1.53193e-07
-2.86123e-07
-1.21233e-07
0.862156
0.601991
0.387135
0.229937
0.126751
0.0652668
0.0315991
0.0144845
0.00633279
0.00265673
0.00107898
0.000427258
0.000165932
6.34844e-05
2.40071e-05
8.79373e-06
2.93015e-06
6.97166e-07
-1.76346e-08
0.867885
0.619406
0.411092
0.254276
0.147185
0.080185
0.0413604
0.0203312
0.00959362
0.0043724
0.00194262
0.000848316
0.000366873
0.000158343
6.88362e-05
3.00607e-05
1.29252e-05
4.97988e-06
1.03944e-06
0.870274
0.628238
0.424379
0.268742
0.16012
0.0902336
0.0483646
0.0248099
0.012267
0.00588166
0.00276009
0.00127823
0.000588697
0.000271796
0.000127036
6.00853e-05
2.83687e-05
1.23926e-05
3.28408e-06
0.870012
0.630275
0.428843
0.274473
0.165813
0.0950371
0.051965
0.0272751
0.013841
0.00683195
0.00331135
0.00158928
0.000761176
0.000366698
0.000179389
8.89493e-05
4.39719e-05
2.00194e-05
5.52594e-06
0.869967
0.632126
0.432703
0.27946
0.170869
0.0994101
0.0553318
0.0296449
0.0153971
0.0077989
0.00388903
0.00192536
0.000953586
0.000476154
0.000241865
0.000124587
6.38556e-05
3.00095e-05
8.5423e-06
0.870522
0.634455
0.436588
0.284126
0.175469
0.103359
0.0583812
0.0318124
0.0168414
0.00871303
0.00444708
0.00225805
0.00114924
0.000590709
0.000309238
0.000164164
8.65322e-05
4.16561e-05
1.21323e-05
0.870949
0.636207
0.439516
0.287669
0.179002
0.106432
0.060791
0.0335543
0.0180237
0.00947639
0.0049232
0.00254848
0.00132423
0.000695783
0.000372626
0.000202317
0.000108863
5.33223e-05
1.57859e-05
0.871106
0.637105
0.441186
0.289813
0.181224
0.108421
0.0623877
0.0347332
0.0188399
0.0100138
0.00526502
0.00276118
0.00145501
0.000775939
0.000421961
0.000232564
0.00012684
6.28201e-05
1.87877e-05
0.870569
0.63668
0.441247
0.290316
0.181964
0.109199
0.0630721
0.03527
0.0192282
0.0102784
0.00543813
0.00287158
0.0015244
0.000819316
0.000449143
0.000249496
0.000137034
6.82602e-05
2.05235e-05
0.870574
0.63669
0.44126
0.290329
0.181975
0.109207
0.0630782
0.035274
0.0192308
0.0102799
0.00543906
0.00287213
0.00152472
0.000819506
0.000449257
0.000249564
0.000137075
6.82824e-05
2.05308e-05
0.871119
0.637135
0.441224
0.289851
0.181256
0.108446
0.0624056
0.0347451
0.0188474
0.0100184
0.00526775
0.00276278
0.00145595
0.000776487
0.000422287
0.00023276
0.000126956
6.28827e-05
1.88084e-05
0.870969
0.636256
0.439577
0.28773
0.179054
0.106472
0.0608193
0.033573
0.0180354
0.00948347
0.00492735
0.00255089
0.00132561
0.000696585
0.000373096
0.000202595
0.000109026
5.34091e-05
1.58143e-05
0.870549
0.634521
0.436671
0.284208
0.175539
0.103412
0.0584184
0.0318367
0.0168564
0.00872195
0.00445224
0.00226098
0.00115089
0.000591643
0.000309773
0.000164473
8.67099e-05
4.17492e-05
1.21624e-05
0.870001
0.632208
0.432807
0.279563
0.170955
0.099475
0.0553765
0.0296736
0.0154145
0.00780902
0.00389474
0.00192853
0.000955321
0.000477108
0.000242396
0.000124885
6.40221e-05
3.00948e-05
8.56919e-06
0.870052
0.630373
0.428967
0.274594
0.165914
0.0951114
0.0520152
0.0273066
0.0138597
0.00684251
0.00331713
0.00159238
0.000762822
0.000367573
0.000179859
8.92051e-05
4.41108e-05
2.00891e-05
5.54767e-06
0.870321
0.628353
0.424524
0.268882
0.160235
0.0903171
0.0484197
0.0248435
0.0122864
0.00589223
0.00276569
0.00128113
0.000590189
0.000272566
0.00012744
6.03001e-05
2.84837e-05
1.24507e-05
3.30324e-06
0.867945
0.619574
0.411314
0.254497
0.147368
0.0803183
0.0414474
0.0203834
0.00962277
0.0043878
0.00195043
0.000852169
0.000368745
0.00015925
6.92798e-05
3.02816e-05
1.30373e-05
5.03479e-06
1.05703e-06
0.862231
0.602186
0.387381
0.23017
0.126935
0.0653938
0.0316776
0.014529
0.00635628
0.00266847
0.00108462
0.0004299
0.000167149
6.4039e-05
2.42592e-05
8.90734e-06
2.97925e-06
7.13613e-07
-1.76267e-08
0.855079
0.581232
0.359786
0.203641
0.106017
0.0511253
0.0229905
0.00970449
0.00386987
0.00146394
0.000528447
0.000182284
5.98285e-05
1.83631e-05
4.99761e-06
9.19979e-07
-1.61099e-07
-2.97791e-07
-1.29708e-07
0.847263
0.558615
0.331255
0.177804
0.0870419
0.0391706
0.0163154
0.00632841
0.00229771
0.000782333
0.000250232
7.46711e-05
2.03246e-05
4.6997e-06
6.64527e-07
-1.81253e-07
-2.27206e-07
-1.13204e-07
-9.752e-09
0.839313
0.535076
0.30256
0.15325
0.0702265
0.0293833
0.0113048
0.00402168
0.00132783
0.000406529
0.00011504
2.95629e-05
6.55778e-06
1.03776e-06
-3.61592e-08
-1.33995e-07
-7.19561e-08
-1.58574e-08
6.92716e-09
0.832848
0.512803
0.275573
0.131163
0.0560303
0.0217194
0.0076983
0.00250793
0.00075276
0.000207462
5.20936e-05
1.15938e-05
2.11451e-06
2.22475e-07
-4.32878e-08
-3.48265e-08
-7.61942e-09
4.76302e-09
4.47419e-09
0.826286
0.490394
0.249646
0.111256
0.0441592
0.0158221
0.00516258
0.00154255
0.000423035
0.000106099
2.41762e-05
4.90097e-06
8.46039e-07
1.14333e-07
1.34128e-08
6.90533e-09
7.30808e-09
5.27759e-09
1.94487e-09
0.819586
0.468956
0.226337
0.0945862
0.0349717
0.011634
0.00352225
0.000978659
0.000251181
5.98074e-05
1.33637e-05
2.86121e-06
6.19313e-07
1.51083e-07
4.70684e-08
1.86798e-08
8.326e-09
3.46056e-09
8.53862e-10
0.81336
0.450837
0.208065
0.0825163
0.028867
0.00910164
0.00262939
0.000706613
0.00017952
4.38866e-05
1.06253e-05
2.63316e-06
6.9104e-07
1.96355e-07
6.07463e-08
2.00852e-08
6.88023e-09
2.23014e-09
4.43772e-10
0.806992
0.437023
0.195944
0.0754121
0.0256871
0.00795207
0.00228644
0.000623154
0.00016422
4.25498e-05
1.10542e-05
2.91661e-06
7.86969e-07
2.17607e-07
6.18605e-08
1.79657e-08
5.2828e-09
1.48303e-09
2.60305e-10
0.800865
0.428129
0.189819
0.0725758
0.0247394
0.00773762
0.0022697
0.000635853
0.000172637
4.58144e-05
1.20159e-05
3.13203e-06
8.14285e-07
2.11857e-07
5.55939e-08
1.4694e-08
3.91295e-09
1.00626e-09
1.67372e-10
0.79943
0.431485
0.19518
0.0768495
0.0271793
0.0088576
0.00270651
0.000785574
0.000218797
5.87954e-05
1.53957e-05
3.95279e-06
1.00077e-06
2.51424e-07
6.33718e-08
1.60688e-08
4.13767e-09
1.07218e-09
2.23244e-10
0.804158
0.448642
0.213809
0.0899172
0.034236
0.0120395
0.00396108
0.00123161
0.000365093
0.000103735
2.85454e-05
7.6631e-06
2.02051e-06
5.27106e-07
1.3767e-07
3.61526e-08
9.65492e-09
2.62391e-09
6.01434e-10
0.810669
0.468366
0.23459
0.104508
0.0422487
0.0157507
0.00547386
0.0017898
0.000555436
0.000164534
4.70309e-05
1.30744e-05
3.56054e-06
9.57319e-07
2.57241e-07
6.94063e-08
1.90268e-08
5.30388e-09
1.23812e-09
0.818159
0.488662
0.255845
0.119739
0.0508941
0.0199169
0.00724605
0.00247257
0.000798334
0.000245341
7.25697e-05
2.0831e-05
5.84686e-06
1.61782e-06
4.46866e-07
1.23838e-07
3.48568e-08
9.97614e-09
2.38515e-09
0.825486
0.507651
0.276074
0.134726
0.0597515
0.0243719
0.00922374
0.00326653
0.00109204
0.000346727
0.000105753
3.12512e-05
9.01839e-06
2.56302e-06
7.26665e-07
2.06684e-07
5.97664e-08
1.76288e-08
4.39216e-09
0.831244
0.523791
0.294052
0.148632
0.0683296
0.0288685
0.0112996
0.00413109
0.0014231
0.000464789
0.000145616
4.41513e-05
1.30617e-05
3.80373e-06
1.10512e-06
3.22538e-07
9.61322e-08
2.96165e-08
8.13223e-09
0.836727
0.538585
0.31064
0.161729
0.0766175
0.0333307
0.0134146
0.00503465
0.00177769
0.000594318
0.000190394
5.89862e-05
1.7824e-05
5.30273e-06
1.57638e-06
4.73246e-07
1.47279e-07
4.94872e-08
1.7215e-08
0.842791
0.552887
0.326301
0.174107
0.0845276
0.0376444
0.0154878
0.00593319
0.00213553
0.000727019
0.000236992
7.46856e-05
2.29624e-05
6.96296e-06
2.12227e-06
6.64689e-07
2.25801e-07
9.25942e-08
4.87835e-08
0.847436
0.56398
0.338634
0.183999
0.0909356
0.041184
0.0172108
0.00668962
0.00244089
0.000841948
0.000278031
8.8804e-05
2.77303e-05
8.59728e-06
2.73292e-06
9.40661e-07
3.91063e-07
2.29546e-07
1.81786e-07
0.850351
0.571421
0.34703
0.190762
0.0953226
0.0436095
0.0183935
0.00721085
0.00265274
0.000922607
0.00030742
9.93251e-05
3.16121e-05
1.02148e-05
3.59399e-06
1.54192e-06
9.06751e-07
7.71204e-07
7.57433e-07
0.852383
0.576039
0.351906
0.194486
0.097626
0.0448284
0.0189657
0.00745582
0.00275093
0.000960528
0.000322263
0.000105746
3.50526e-05
1.26152e-05
5.63977e-06
3.45668e-06
2.83899e-06
3.00744e-06
3.14649e-06
0.853157
0.577032
0.352519
0.194632
0.0975088
0.0446556
0.018837
0.00738554
0.00272116
0.000952189
0.000323372
0.000110514
4.11102e-05
1.91046e-05
1.23361e-05
1.0321e-05
1.02568e-05
1.19732e-05
1.24245e-05
0.851022
0.572625
0.347576
0.190419
0.0945722
0.0429214
0.0179503
0.00698931
0.00256869
0.000907297
0.000321382
0.000124413
6.06994e-05
4.08715e-05
3.54091e-05
3.47991e-05
3.79292e-05
4.59758e-05
4.5758e-05
0.847253
0.564511
0.338477
0.182856
0.0894835
0.0400305
0.0165345
0.00639287
0.00236626
0.000874083
0.000354503
0.000182281
0.00012827
0.000113442
0.000112857
0.000119299
0.000136611
0.000166452
0.000155865
0.842927
0.553895
0.326477
0.173091
0.0831254
0.03657
0.0149486
0.00581585
0.00226161
0.000967663
0.000525553
0.000384388
0.000346448
0.000345043
0.000363042
0.000399073
0.000468608
0.000560781
0.000487955
0.835063
0.537623
0.309699
0.160402
0.0754312
0.0327446
0.0134724
0.00554294
0.00253037
0.00145729
0.00110453
0.00100826
0.00100656
0.00104831
0.00113342
0.00127491
0.00150581
0.00174028
0.00139776
0.824474
0.517768
0.290625
0.147036
0.0681562
0.0298553
0.0131027
0.00640533
0.00392987
0.00307548
0.00282842
0.00281506
0.00291121
0.00308853
0.00338724
0.00384561
0.00449084
0.00495233
0.00366088
0.814036
0.499387
0.274449
0.137321
0.064629
0.030501
0.0160246
0.0103938
0.00837968
0.00773089
0.0076362
0.00780957
0.00816802
0.00872449
0.00960369
0.010853
0.0123472
0.0128841
0.00876391
0.80524
0.486435
0.266088
0.13626
0.069682
0.0393731
0.0268591
0.0221053
0.0204874
0.020066
0.0202482
0.0208473
0.021834
0.0232956
0.0254889
0.0283278
0.0310677
0.0305516
0.0192028
0.802867
0.48815
0.276186
0.15463
0.0939309
0.0669407
0.0559884
0.0518731
0.0505772
0.0504288
0.0510987
0.0525327
0.0547665
0.0579793
0.0625238
0.0677117
0.0711413
0.0659427
0.03871
0.814619
0.519515
0.322849
0.211745
0.157127
0.133087
0.123308
0.119545
0.11844
0.118556
0.119895
0.122588
0.126697
0.132411
0.13988
0.146832
0.147586
0.129697
0.0727238
0.849061
0.599143
0.430448
0.334982
0.28811
0.267311
0.258585
0.254939
0.253814
0.253987
0.255835
0.259688
0.265489
0.273139
0.281918
0.286691
0.277043
0.234219
0.130974
0.907912
0.737162
0.616647
0.546974
0.512331
0.496603
0.489664
0.486371
0.48515
0.485016
0.486604
0.490349
0.495825
0.502254
0.507374
0.502821
0.47383
0.396759
0.23773
0.976433
0.915758
0.868419
0.839747
0.825193
0.818467
0.815402
0.813731
0.812999
0.812609
0.813068
0.814626
0.816551
0.817569
0.814556
0.798818
0.755354
0.65842
0.46312
)
;

boundaryField
{
    up
    {
        type            fixedValue;
        value           uniform 0;
    }
    low
    {
        type            fixedValue;
        value           uniform 1;
    }
    left
    {
        type            fixedValue;
        value           uniform 1;
    }
    right
    {
        type            fixedValue;
        value           uniform 1;
    }
    frontAndBackPlanes
    {
        type            empty;
    }
}


// ************************************************************************* //
