/*--------------------------------*- C++ -*----------------------------------*\
  =========                 |
  \\      /  F ield         | OpenFOAM: The Open Source CFD Toolbox
   \\    /   O peration     | Website:  https://openfoam.org
    \\  /    A nd           | Version:  7
     \\/     M anipulation  |
\*---------------------------------------------------------------------------*/
FoamFile
{
    version     2.0;
    format      ascii;
    class       volScalarField;
    location    "0.3";
    object      gradTy;
}
// * * * * * * * * * * * * * * * * * * * * * * * * * * * * * * * * * * * * * //

dimensions      [0 -1 0 1 0 0 0];

internalField   nonuniform List<scalar> 
1596
(
-0.0796204
-0.148327
-0.205565
-0.261839
-0.317502
-0.379717
-0.445915
-0.524397
-0.618782
-0.731747
-0.886029
-1.0821
-1.35179
-1.73329
-2.32221
-3.23687
-4.86617
-7.86818
-18.5874
-0.242801
-0.300651
-0.341924
-0.382023
-0.422877
-0.472207
-0.527764
-0.596987
-0.683131
-0.786955
-0.927159
-1.10205
-1.3328
-1.63676
-2.06288
-2.6364
-3.48689
-4.73582
-8.28048
-0.435036
-0.456148
-0.471606
-0.491419
-0.515278
-0.549655
-0.591776
-0.647974
-0.720518
-0.808834
-0.928038
-1.07434
-1.26218
-1.49958
-1.81608
-2.21602
-2.76967
-3.52846
-5.15848
-0.637121
-0.608001
-0.592144
-0.589091
-0.594494
-0.612463
-0.639428
-0.680387
-0.736645
-0.806764
-0.902859
-1.02002
-1.16827
-1.35083
-1.58628
-1.87091
-2.24585
-2.73265
-3.56846
-0.824241
-0.747567
-0.700884
-0.674856
-0.661627
-0.662734
-0.673959
-0.698918
-0.738161
-0.789793
-0.863466
-0.954035
-1.06858
-1.20799
-1.38442
-1.5916
-1.85513
-2.18312
-2.66274
-0.973719
-0.866428
-0.795383
-0.749063
-0.718538
-0.703438
-0.699351
-0.708652
-0.731392
-0.765541
-0.818728
-0.886141
-0.972865
-1.07868
-1.21181
-1.36567
-1.55694
-1.78755
-2.09096
-1.07295
-0.957926
-0.873231
-0.811873
-0.766917
-0.737339
-0.719193
-0.713932
-0.721377
-0.739602
-0.774586
-0.822154
-0.885989
-0.965409
-1.06609
-1.182
-1.32431
-1.49218
-1.69894
-1.12134
-1.01789
-0.931506
-0.862151
-0.806988
-0.765677
-0.735447
-0.717276
-0.711038
-0.7151
-0.734132
-0.764727
-0.809572
-0.86785
-0.943532
-1.03142
-1.13908
-1.26456
-1.41313
-1.12798
-1.05056
-0.972928
-0.902613
-0.841766
-0.79178
-0.751605
-0.722259
-0.703925
-0.69542
-0.700444
-0.716367
-0.745179
-0.786087
-0.841891
-0.908198
-0.990166
-1.08544
-1.19581
-1.10064
-1.05155
-0.989713
-0.925352
-0.864213
-0.8097
-0.762675
-0.724662
-0.696382
-0.677227
-0.670278
-0.673648
-0.688893
-0.71535
-0.755058
-0.804371
-0.866849
-0.940108
-1.02436
-1.06528
-1.03667
-0.990977
-0.935922
-0.878215
-0.822521
-0.771345
-0.726917
-0.690634
-0.662543
-0.645397
-0.638001
-0.641672
-0.655923
-0.682295
-0.717774
-0.764832
-0.821203
-0.886353
-1.02055
-1.01312
-0.983329
-0.938879
-0.886738
-0.832185
-0.778926
-0.729893
-0.687189
-0.651551
-0.625622
-0.608856
-0.60247
-0.606192
-0.621244
-0.645154
-0.679644
-0.722633
-0.773252
-0.964517
-0.976077
-0.961976
-0.929191
-0.884479
-0.833372
-0.780301
-0.728806
-0.681624
-0.640141
-0.607079
-0.582476
-0.567592
-0.562392
-0.567948
-0.582261
-0.606578
-0.639034
-0.678611
-0.913996
-0.93663
-0.935072
-0.913095
-0.876175
-0.829598
-0.778064
-0.725553
-0.67531
-0.629295
-0.590414
-0.559223
-0.537105
-0.524276
-0.521762
-0.527962
-0.543832
-0.567716
-0.598562
-0.866688
-0.898075
-0.906294
-0.893589
-0.864037
-0.822319
-0.773074
-0.720514
-0.668258
-0.618747
-0.575109
-0.538364
-0.510064
-0.490679
-0.481258
-0.480551
-0.489337
-0.506167
-0.53002
-0.820062
-0.859655
-0.876167
-0.87144
-0.848607
-0.81173
-0.765193
-0.713278
-0.659851
-0.60773
-0.560272
-0.518898
-0.485354
-0.460362
-0.445043
-0.438462
-0.441311
-0.452332
-0.470564
-0.777512
-0.822651
-0.845901
-0.847941
-0.831039
-0.798695
-0.754959
-0.704089
-0.650085
-0.59605
-0.545546
-0.500335
-0.462361
-0.432581
-0.41222
-0.400629
-0.398482
-0.4047
-0.418385
-0.739963
-0.788811
-0.817343
-0.824999
-0.813194
-0.784869
-0.74376
-0.694027
-0.639748
-0.584242
-0.531236
-0.482786
-0.441012
-0.40708
-0.382332
-0.36639
-0.359961
-0.362145
-0.372113
-0.702528
-0.757833
-0.791767
-0.80452
-0.797232
-0.772444
-0.733657
-0.684931
-0.630408
-0.573593
-0.518351
-0.466994
-0.421793
-0.384095
-0.355348
-0.335429
-0.32514
-0.323791
-0.330638
-0.664352
-0.726867
-0.766724
-0.784566
-0.78157
-0.760106
-0.723524
-0.675829
-0.621215
-0.563349
-0.506218
-0.452353
-0.404146
-0.363079
-0.330676
-0.307033
-0.293122
-0.288554
-0.292764
-0.631691
-0.698853
-0.744099
-0.766799
-0.767823
-0.749399
-0.714797
-0.668011
-0.6133
-0.554482
-0.495659
-0.439547
-0.388635
-0.344478
-0.30861
-0.281247
-0.263555
-0.255611
-0.25732
-0.602938
-0.674343
-0.724462
-0.751735
-0.756555
-0.740959
-0.708164
-0.662184
-0.607359
-0.547654
-0.487277
-0.429117
-0.375743
-0.328742
-0.289557
-0.258323
-0.23625
-0.223972
-0.222568
-0.576757
-0.652988
-0.707904
-0.73955
-0.747972
-0.735036
-0.703927
-0.658705
-0.603799
-0.543301
-0.481517
-0.421494
-0.365893
-0.316331
-0.274096
-0.238967
-0.211679
-0.192801
-0.185484
-0.553823
-0.634987
-0.694364
-0.729688
-0.740877
-0.729654
-0.699369
-0.654108
-0.598455
-0.536702
-0.473033
-0.410878
-0.352946
-0.300973
-0.25605
-0.217645
-0.185158
-0.157084
-0.132557
-0.535596
-0.621362
-0.685882
-0.726477
-0.743065
-0.737058
-0.711777
-0.670963
-0.618996
-0.560134
-0.498012
-0.43635
-0.377742
-0.324394
-0.277529
-0.237153
-0.201903
-0.169267
-0.134765
-0.523339
-0.611794
-0.678962
-0.722658
-0.742831
-0.740743
-0.719544
-0.682687
-0.634226
-0.578194
-0.517662
-0.45631
-0.396668
-0.341268
-0.291814
-0.249393
-0.213325
-0.182493
-0.154381
-0.523741
-0.612818
-0.680999
-0.726393
-0.748964
-0.750051
-0.732584
-0.699864
-0.655599
-0.603406
-0.545933
-0.486311
-0.426811
-0.370034
-0.31821
-0.273206
-0.235196
-0.203687
-0.17669
-0.538274
-0.625764
-0.692744
-0.737685
-0.760696
-0.763302
-0.748323
-0.718967
-0.678645
-0.630565
-0.576884
-0.520027
-0.461679
-0.404156
-0.349987
-0.301847
-0.260923
-0.227444
-0.199759
-0.565664
-0.650385
-0.714264
-0.756834
-0.778563
-0.781225
-0.767622
-0.740895
-0.704219
-0.660458
-0.611275
-0.558347
-0.502479
-0.445236
-0.388987
-0.337112
-0.29206
-0.255219
-0.225403
-0.605395
-0.684855
-0.743698
-0.782262
-0.801321
-0.802891
-0.789806
-0.765146
-0.731901
-0.692694
-0.648788
-0.601227
-0.549783
-0.494777
-0.437608
-0.381832
-0.331234
-0.289159
-0.255527
-0.657143
-0.728792
-0.781271
-0.814677
-0.830056
-0.829662
-0.816401
-0.793276
-0.763138
-0.728491
-0.690374
-0.649527
-0.604845
-0.555145
-0.499824
-0.441304
-0.38381
-0.33349
-0.293087
-0.71422
-0.779161
-0.824856
-0.852351
-0.863334
-0.86036
-0.846412
-0.824378
-0.796971
-0.766675
-0.734511
-0.701399
-0.665967
-0.62596
-0.578166
-0.522023
-0.45909
-0.396834
-0.34366
-0.780218
-0.837141
-0.874813
-0.895372
-0.901161
-0.89497
-0.879777
-0.858271
-0.832968
-0.806329
-0.779445
-0.75385
-0.728814
-0.702453
-0.670081
-0.628001
-0.570958
-0.500557
-0.420208
-0.858037
-0.904671
-0.932982
-0.945884
-0.946211
-0.936864
-0.920639
-0.899946
-0.877009
-0.854135
-0.832554
-0.814345
-0.800097
-0.790054
-0.781513
-0.771997
-0.75327
-0.720255
-0.667303
-0.945714
-0.979924
-0.996193
-0.998865
-0.99118
-0.976046
-0.955819
-0.932567
-0.908064
-0.88401
-0.861587
-0.842353
-0.827368
-0.817975
-0.814697
-0.819216
-0.829868
-0.844796
-0.859984
-1.04578
-1.06254
-1.06395
-1.0548
-1.03812
-1.01653
-0.991843
-0.965805
-0.939808
-0.915003
-0.892598
-0.873421
-0.858311
-0.847944
-0.843051
-0.844404
-0.853104
-0.870322
-0.897721
-1.15702
-1.15166
-1.13702
-1.1162
-1.09121
-1.06393
-1.03563
-1.00763
-0.980977
-0.956459
-0.935065
-0.917189
-0.903277
-0.893388
-0.887512
-0.884873
-0.885044
-0.886824
-0.889339
-1.26112
-1.23395
-1.2037
-1.17149
-1.13827
-1.1051
-1.07275
-1.04205
-1.01368
-0.98813
-0.966015
-0.947498
-0.932702
-0.921461
-0.913556
-0.908304
-0.905302
-0.903802
-0.903264
-1.34791
-1.30411
-1.26118
-1.21946
-1.17925
-1.14104
-1.10516
-1.07205
-1.04209
-1.01551
-0.992673
-0.973613
-0.95829
-0.946478
-0.937911
-0.932018
-0.928388
-0.926404
-0.925544
-1.41818
-1.36082
-1.3076
-1.25818
-1.21234
-1.17005
-1.13131
-1.09621
-1.06491
-1.03747
-1.01404
-0.994613
-0.979032
-0.967046
-0.958353
-0.952441
-0.94886
-0.947047
-0.946475
-1.46949
-1.40178
-1.34073
-1.28559
-1.23565
-1.19045
-1.14968
-1.11319
-1.08096
-1.05294
-1.02916
-1.00956
-0.993924
-0.981983
-0.973396
-0.967666
-0.96428
-0.962674
-0.962283
-1.5019
-1.4249
-1.35841
-1.29981
-1.2476
-1.20085
-1.15904
-1.12185
-1.08917
-1.06088
-1.03696
-1.01732
-1.00172
-0.989904
-0.981513
-0.976079
-0.973078
-0.971961
-0.972147
-1.50191
-1.42492
-1.35843
-1.29983
-1.24762
-1.20087
-1.15906
-1.12187
-1.08919
-1.0609
-1.03698
-1.01734
-1.00175
-0.989927
-0.981536
-0.976102
-0.973102
-0.971986
-0.972172
-1.4695
-1.40181
-1.34077
-1.28563
-1.2357
-1.1905
-1.14973
-1.11324
-1.08102
-1.053
-1.02922
-1.00962
-0.993985
-0.982047
-0.973464
-0.967738
-0.964358
-0.96276
-0.962377
-1.4182
-1.36087
-1.30767
-1.25825
-1.21242
-1.17013
-1.1314
-1.0963
-1.065
-1.03756
-1.01414
-0.994709
-0.979132
-0.967149
-0.958461
-0.952555
-0.948981
-0.947176
-0.946612
-1.34794
-1.30417
-1.26126
-1.21955
-1.17935
-1.14115
-1.10527
-1.07217
-1.0422
-1.01563
-0.992792
-0.973734
-0.958414
-0.946604
-0.938039
-0.932149
-0.928522
-0.926541
-0.925686
-1.26115
-1.23401
-1.20379
-1.1716
-1.13838
-1.10523
-1.07288
-1.04218
-1.01382
-0.988271
-0.966159
-0.947643
-0.932849
-0.921608
-0.913702
-0.908449
-0.905446
-0.903944
-0.903405
-1.15705
-1.15173
-1.13712
-1.11631
-1.09133
-1.06407
-1.03578
-1.00778
-0.981132
-0.956618
-0.935228
-0.917353
-0.90344
-0.893546
-0.887659
-0.885004
-0.885154
-0.88691
-0.889398
-1.04582
-1.06262
-1.06406
-1.05494
-1.03829
-1.01673
-0.992065
-0.966049
-0.940076
-0.915296
-0.892919
-0.873772
-0.858693
-0.848356
-0.843486
-0.844835
-0.853485
-0.870565
-0.897701
-0.945737
-0.979939
-0.99621
-0.998884
-0.9912
-0.976064
-0.95583
-0.932568
-0.90805
-0.883972
-0.861516
-0.842234
-0.827184
-0.817705
-0.814333
-0.818772
-0.829437
-0.844564
-0.860252
-0.858048
-0.90471
-0.933051
-0.945985
-0.946348
-0.937039
-0.920853
-0.900198
-0.877297
-0.85446
-0.832918
-0.814753
-0.800565
-0.790616
-0.782233
-0.772972
-0.754623
-0.722091
-0.669685
-0.780223
-0.837147
-0.874832
-0.89541
-0.901221
-0.895054
-0.879887
-0.858405
-0.833126
-0.806512
-0.779654
-0.754096
-0.729115
-0.702838
-0.670584
-0.628643
-0.571708
-0.501312
-0.420769
-0.714222
-0.779162
-0.824867
-0.85238
-0.863387
-0.86044
-0.846519
-0.824514
-0.797136
-0.766871
-0.734742
-0.701674
-0.666302
-0.626367
-0.578648
-0.522554
-0.459614
-0.397287
-0.34402
-0.657143
-0.728788
-0.781273
-0.814695
-0.830097
-0.829729
-0.816497
-0.793403
-0.763295
-0.728681
-0.690602
-0.649798
-0.605165
-0.555513
-0.500223
-0.441704
-0.384176
-0.333801
-0.293346
-0.605395
-0.684847
-0.743694
-0.782272
-0.801352
-0.802948
-0.789892
-0.765262
-0.73205
-0.692876
-0.649004
-0.60148
-0.550072
-0.495091
-0.437929
-0.382138
-0.331506
-0.289393
-0.255733
-0.565661
-0.650373
-0.714254
-0.756836
-0.778584
-0.781272
-0.767698
-0.741001
-0.704356
-0.660626
-0.611475
-0.558577
-0.502731
-0.4455
-0.389246
-0.337352
-0.292274
-0.255409
-0.225578
-0.538272
-0.625752
-0.692732
-0.737682
-0.760711
-0.76334
-0.748389
-0.719061
-0.678769
-0.630718
-0.577063
-0.520229
-0.461895
-0.404375
-0.350198
-0.302042
-0.261098
-0.227606
-0.199917
-0.523738
-0.612805
-0.680985
-0.726387
-0.748974
-0.750082
-0.732641
-0.699948
-0.65571
-0.603542
-0.546091
-0.486486
-0.426994
-0.370216
-0.318384
-0.273367
-0.235345
-0.203832
-0.176844
-0.523336
-0.61178
-0.678943
-0.722643
-0.742826
-0.740753
-0.719573
-0.682735
-0.634294
-0.578281
-0.517763
-0.45642
-0.39678
-0.341376
-0.291914
-0.249484
-0.213412
-0.182593
-0.154525
-0.53561
-0.621371
-0.685893
-0.726492
-0.743089
-0.737094
-0.711827
-0.671029
-0.619079
-0.560233
-0.498124
-0.436473
-0.377872
-0.324527
-0.277662
-0.237284
-0.202029
-0.169384
-0.134863
-0.553838
-0.635001
-0.694376
-0.729694
-0.740875
-0.729643
-0.699349
-0.65408
-0.598419
-0.536661
-0.472987
-0.41083
-0.352897
-0.300923
-0.255998
-0.217591
-0.1851
-0.15702
-0.132481
-0.576768
-0.652998
-0.707913
-0.739558
-0.747978
-0.735041
-0.703929
-0.658706
-0.603798
-0.543299
-0.481515
-0.421493
-0.365892
-0.31633
-0.274097
-0.238968
-0.211682
-0.192807
-0.185492
-0.602946
-0.67435
-0.724468
-0.751738
-0.756556
-0.740959
-0.708161
-0.66218
-0.607354
-0.547648
-0.487272
-0.429112
-0.37574
-0.32874
-0.289556
-0.258324
-0.236253
-0.223976
-0.222573
-0.631698
-0.698859
-0.744103
-0.766802
-0.767823
-0.749398
-0.714794
-0.668007
-0.613296
-0.554478
-0.495655
-0.439544
-0.388633
-0.344477
-0.30861
-0.281248
-0.263558
-0.255614
-0.257323
-0.664357
-0.726871
-0.766727
-0.784567
-0.78157
-0.760104
-0.723521
-0.675826
-0.621211
-0.563346
-0.506215
-0.452351
-0.404145
-0.363078
-0.330676
-0.307034
-0.293123
-0.288556
-0.292765
-0.702532
-0.757836
-0.791769
-0.80452
-0.797231
-0.772443
-0.733655
-0.684929
-0.630406
-0.573591
-0.518349
-0.466993
-0.421792
-0.384095
-0.355349
-0.33543
-0.325141
-0.323792
-0.330639
-0.739966
-0.788813
-0.817344
-0.824999
-0.813193
-0.784868
-0.743759
-0.694025
-0.639746
-0.58424
-0.531235
-0.482786
-0.441011
-0.40708
-0.382333
-0.36639
-0.359961
-0.362146
-0.372113
-0.777514
-0.822652
-0.845901
-0.84794
-0.831038
-0.798693
-0.754958
-0.704087
-0.650084
-0.596049
-0.545545
-0.500335
-0.462361
-0.432581
-0.41222
-0.400629
-0.398482
-0.404699
-0.418385
-0.820063
-0.859655
-0.876167
-0.871439
-0.848606
-0.81173
-0.765192
-0.713277
-0.65985
-0.60773
-0.560272
-0.518897
-0.485354
-0.460362
-0.445043
-0.438461
-0.44131
-0.452332
-0.470563
-0.866687
-0.898075
-0.906294
-0.893588
-0.864036
-0.822319
-0.773074
-0.720513
-0.668257
-0.618746
-0.575109
-0.538364
-0.510064
-0.490679
-0.481257
-0.48055
-0.489336
-0.506166
-0.530019
-0.913995
-0.936629
-0.935072
-0.913095
-0.876175
-0.829598
-0.778064
-0.725553
-0.67531
-0.629295
-0.590414
-0.559223
-0.537105
-0.524275
-0.521761
-0.527961
-0.54383
-0.567714
-0.59856
-0.964516
-0.976076
-0.961976
-0.929191
-0.884479
-0.833373
-0.780301
-0.728807
-0.681624
-0.640141
-0.607079
-0.582476
-0.567592
-0.562391
-0.567948
-0.58226
-0.606576
-0.639032
-0.67861
-1.02055
-1.01312
-0.983328
-0.93888
-0.886739
-0.832185
-0.778926
-0.729893
-0.687189
-0.65155
-0.625621
-0.608855
-0.60247
-0.606191
-0.621243
-0.645152
-0.679642
-0.72263
-0.773251
-1.06528
-1.03666
-0.990978
-0.935923
-0.878216
-0.822522
-0.771346
-0.726918
-0.690634
-0.662543
-0.645396
-0.638001
-0.641672
-0.655922
-0.682293
-0.717772
-0.76483
-0.821201
-0.886352
-1.10064
-1.05155
-0.989715
-0.925354
-0.864215
-0.809702
-0.762676
-0.724662
-0.696383
-0.677227
-0.670277
-0.673647
-0.688892
-0.715349
-0.755057
-0.804369
-0.866847
-0.940106
-1.02436
-1.12798
-1.05056
-0.972931
-0.902615
-0.841767
-0.791781
-0.751606
-0.72226
-0.703925
-0.69542
-0.700443
-0.716367
-0.745178
-0.786086
-0.84189
-0.908197
-0.990165
-1.08544
-1.19581
-1.12135
-1.01789
-0.931508
-0.862153
-0.806989
-0.765678
-0.735447
-0.717277
-0.711038
-0.7151
-0.734132
-0.764726
-0.809571
-0.867848
-0.943531
-1.03141
-1.13908
-1.26456
-1.41313
-1.07295
-0.957929
-0.873233
-0.811875
-0.766919
-0.73734
-0.719194
-0.713932
-0.721378
-0.739602
-0.774586
-0.822153
-0.885988
-0.965407
-1.06609
-1.182
-1.32431
-1.49218
-1.69895
-0.973724
-0.866432
-0.795386
-0.749064
-0.71854
-0.703439
-0.699352
-0.708652
-0.731393
-0.765541
-0.818727
-0.88614
-0.972864
-1.07868
-1.21181
-1.36567
-1.55694
-1.78755
-2.09097
-0.824245
-0.74757
-0.700887
-0.674858
-0.661628
-0.662735
-0.67396
-0.698919
-0.738161
-0.789793
-0.863466
-0.954035
-1.06858
-1.20799
-1.38442
-1.5916
-1.85513
-2.18312
-2.66274
-0.637125
-0.608004
-0.592146
-0.589092
-0.594496
-0.612465
-0.639429
-0.680388
-0.736646
-0.806764
-0.902859
-1.02002
-1.16826
-1.35083
-1.58627
-1.87091
-2.24586
-2.73265
-3.56846
-0.435039
-0.456149
-0.471607
-0.49142
-0.515279
-0.549656
-0.591777
-0.647974
-0.720518
-0.808834
-0.928037
-1.07433
-1.26218
-1.49958
-1.81608
-2.21602
-2.76967
-3.52846
-5.15848
-0.242802
-0.300652
-0.341925
-0.382024
-0.422878
-0.472208
-0.527764
-0.596988
-0.683132
-0.786955
-0.927159
-1.10205
-1.3328
-1.63676
-2.06288
-2.6364
-3.48689
-4.73582
-8.28048
-0.0796208
-0.148327
-0.205565
-0.261839
-0.317502
-0.379717
-0.445915
-0.524397
-0.618782
-0.731747
-0.886028
-1.0821
-1.35179
-1.73329
-2.32221
-3.23687
-4.86617
-7.86818
-18.5874
)
;

boundaryField
{
    up
    {
        type            calculated;
        value           nonuniform List<scalar> 
84
(
-16.8436
-9.12238
-5.60049
-3.82542
-2.82658
-2.20324
-1.78004
-1.47398
-1.24253
-1.06102
-0.915364
-0.79632
-0.697123
-0.613421
-0.541938
-0.480114
-0.426016
-0.378182
-0.335426
-0.296539
-0.260263
-0.224526
-0.184122
-0.119329
-0.115838
-0.1461
-0.168893
-0.191625
-0.216481
-0.2453
-0.280357
-0.324443
-0.390603
-0.665582
-0.88829
-0.914986
-0.889457
-0.902672
-0.925049
-0.946277
-0.96227
-0.972504
-0.972529
-0.962369
-0.946419
-0.925193
-0.902814
-0.889511
-0.914751
-0.888591
-0.668383
-0.391123
-0.32476
-0.280602
-0.2455
-0.216653
-0.191784
-0.169051
-0.1463
-0.11597
-0.11925
-0.18413
-0.224531
-0.260265
-0.296541
-0.335427
-0.378182
-0.426016
-0.480113
-0.541937
-0.61342
-0.697123
-0.79632
-0.915365
-1.06102
-1.24253
-1.47398
-1.78005
-2.20325
-2.82659
-3.82542
-5.60049
-9.12238
-16.8436
)
;
    }
    low
    {
        type            calculated;
        value           nonuniform List<scalar> 
84
(
-0.0853598
-0.253399
-0.458211
-0.676421
-0.878945
-1.03894
-1.14088
-1.18499
-1.17906
-1.13526
-1.09103
-1.03763
-0.969833
-0.912722
-0.861569
-0.809859
-0.762953
-0.724147
-0.684209
-0.640304
-0.603323
-0.571319
-0.541147
-0.514459
-0.489463
-0.474316
-0.47527
-0.494512
-0.52797
-0.575457
-0.634075
-0.695711
-0.767203
-0.851654
-0.94496
-1.05275
-1.175
-1.28649
-1.37806
-1.45247
-1.50713
-1.54387
-1.54388
-1.50714
-1.45248
-1.37808
-1.2865
-1.17502
-1.05277
-0.944956
-0.851667
-0.767198
-0.695709
-0.634073
-0.575457
-0.527969
-0.494515
-0.475273
-0.474322
-0.489472
-0.514478
-0.541153
-0.571328
-0.60333
-0.640309
-0.684214
-0.72415
-0.762955
-0.80986
-0.861569
-0.91272
-0.969832
-1.03763
-1.09103
-1.13525
-1.17906
-1.18499
-1.14089
-1.03895
-0.87895
-0.676426
-0.458215
-0.253401
-0.0853604
)
;
    }
    left
    {
        type            calculated;
        value           nonuniform List<scalar> 
19
(
-0.0780793
-0.145483
-0.203757
-0.261766
-0.319593
-0.384206
-0.45322
-0.535386
-0.634494
-0.75456
-0.919445
-1.13075
-1.42465
-1.84687
-2.50475
-3.54329
-5.41531
-8.90581
-17.4708
)
;
    }
    right
    {
        type            calculated;
        value           nonuniform List<scalar> 
19
(
-0.0780797
-0.145484
-0.203757
-0.261766
-0.319593
-0.384206
-0.45322
-0.535386
-0.634494
-0.75456
-0.919445
-1.13075
-1.42465
-1.84687
-2.50475
-3.54329
-5.41531
-8.90581
-17.4708
)
;
    }
    frontAndBackPlanes
    {
        type            empty;
    }
}


// ************************************************************************* //
