/*--------------------------------*- C++ -*----------------------------------*\
  =========                 |
  \\      /  F ield         | OpenFOAM: The Open Source CFD Toolbox
   \\    /   O peration     | Website:  https://openfoam.org
    \\  /    A nd           | Version:  7
     \\/     M anipulation  |
\*---------------------------------------------------------------------------*/
FoamFile
{
    version     2.0;
    format      ascii;
    class       volScalarField;
    location    "0.306";
    object      gradTy;
}
// * * * * * * * * * * * * * * * * * * * * * * * * * * * * * * * * * * * * * //

dimensions      [0 -1 0 1 0 0 0];

internalField   nonuniform List<scalar> 
1596
(
-0.236455
-0.440603
-0.610899
-0.778619
-0.944885
-1.13107
-1.32959
-1.56525
-1.84892
-2.18865
-2.65243
-3.24178
-4.05202
-5.1976
-6.96527
-9.70996
-14.5983
-23.6045
-55.7622
-0.721117
-0.893239
-1.0165
-1.13668
-1.25952
-1.40802
-1.57548
-1.7841
-2.0436
-2.35628
-2.77801
-3.30379
-3.99699
-4.90968
-6.18855
-7.90946
-10.461
-14.2078
-24.8416
-1.29213
-1.35535
-1.40229
-1.46264
-1.53547
-1.63999
-1.76793
-1.93814
-2.15737
-2.42391
-2.78286
-3.22294
-3.78737
-4.5002
-5.44999
-6.64985
-8.31056
-10.5866
-15.4761
-1.89244
-1.80666
-1.76087
-1.75364
-1.77199
-1.82809
-1.91127
-2.03637
-2.20725
-2.41959
-2.7095
-3.06233
-3.50803
-4.0563
-4.76278
-5.61653
-6.74087
-8.20058
-10.7072
-2.44834
-2.22143
-2.08429
-2.00906
-1.97231
-1.97853
-2.01512
-2.09279
-2.2131
-2.37038
-2.59334
-2.86664
-3.2114
-3.63028
-4.15968
-4.78097
-5.57092
-6.55398
-7.99176
-2.89242
-2.57464
-2.36526
-2.22989
-2.14192
-2.10013
-2.09134
-2.12253
-2.1938
-2.29903
-2.46088
-2.665
-2.92652
-3.24479
-3.64441
-4.10578
-4.67888
-5.36967
-6.27865
-3.1872
-2.84649
-2.5966
-2.41663
-2.28586
-2.20114
-2.15064
-2.13859
-2.1644
-2.22225
-2.32987
-2.47479
-2.66793
-2.90726
-3.20972
-3.5574
-3.98368
-4.48624
-5.10518
-3.33091
-3.02458
-2.76966
-2.56594
-2.40487
-2.28531
-2.19893
-2.14854
-2.13367
-2.1494
-2.20953
-2.30387
-2.44038
-2.61659
-2.84432
-3.10813
-3.43064
-3.80614
-4.2505
-3.35047
-3.12149
-2.89256
-2.68597
-2.50799
-2.36265
-2.24672
-2.16312
-2.11231
-2.09068
-2.10914
-2.15981
-2.24856
-2.37299
-2.54141
-2.74076
-2.98642
-3.27146
-3.60137
-3.26899
-3.1242
-2.94218
-2.75323
-2.57434
-2.41551
-2.2792
-2.16982
-2.08942
-2.03611
-2.01895
-2.03228
-2.08066
-2.16207
-2.28252
-2.43121
-2.61869
-2.83794
-3.08969
-3.16359
-3.07971
-2.94567
-2.78434
-2.61561
-2.45322
-2.30453
-2.17605
-2.07183
-1.99193
-1.94442
-1.92572
-1.93966
-1.98475
-2.06551
-2.173
-2.31453
-2.4834
-2.67807
-3.03029
-3.00941
-2.92263
-2.79281
-2.6406
-2.48158
-2.32666
-2.18445
-2.0611
-1.95872
-1.88507
-1.83847
-1.82248
-1.83624
-1.88332
-1.95639
-2.0605
-2.18951
-2.34085
-2.86336
-2.89895
-2.85882
-2.76367
-2.63353
-2.48473
-2.33034
-2.18077
-2.04405
-1.92423
-1.8293
-1.75934
-1.71802
-1.70521
-1.72404
-1.76856
-1.84243
-1.94011
-2.05859
-2.71276
-2.7813
-2.7785
-2.71551
-2.60855
-2.47321
-2.32338
-2.17075
-2.02487
-1.8915
-1.77918
-1.68953
-1.62662
-1.59105
-1.58584
-1.60621
-1.65496
-1.72716
-1.81969
-2.5717
-2.66628
-2.69258
-2.6572
-2.5722
-2.45135
-2.30833
-2.15554
-2.00363
-1.85977
-1.73321
-1.62692
-1.54549
-1.49031
-1.46447
-1.46424
-1.4919
-1.54313
-1.61489
-2.43268
-2.55163
-2.60262
-2.59103
-2.52608
-2.41969
-2.28477
-2.1339
-1.97847
-1.82677
-1.68872
-1.56851
-1.47133
-1.39931
-1.35579
-1.33799
-1.34794
-1.38188
-1.43694
-2.30581
-2.4412
-2.51224
-2.52084
-2.47362
-2.38081
-2.2543
-2.10657
-1.94941
-1.79194
-1.6447
-1.5129
-1.40233
-1.31586
-1.25716
-1.2243
-1.2193
-1.23891
-1.28045
-2.19383
-2.34018
-2.42693
-2.45231
-2.42036
-2.33963
-2.22104
-2.07677
-1.9188
-1.75689
-1.60208
-1.46045
-1.33833
-1.23925
-1.16725
-1.12123
-1.10334
-1.11088
-1.14135
-2.08227
-2.24768
-2.35048
-2.39108
-2.3727
-2.30265
-2.19111
-2.04995
-1.8913
-1.72546
-1.56387
-1.41339
-1.28081
-1.17022
-1.08601
-1.02787
-0.998275
-0.995166
-1.01631
-1.96861
-2.15529
-2.27563
-2.33141
-2.32592
-2.26592
-2.16113
-2.02318
-1.86434
-1.69537
-1.52806
-1.36991
-1.22811
-1.10714
-1.01167
-0.942084
-0.901402
-0.888517
-0.901746
-1.8714
-2.07172
-2.20802
-2.27828
-2.28487
-2.2341
-2.1354
-2.00034
-1.84132
-1.66955
-1.49712
-1.33209
-1.18194
-1.0514
-0.945176
-0.864046
-0.811686
-0.788436
-0.794092
-1.78589
-1.99865
-2.14935
-2.23323
-2.25123
-2.20908
-2.11598
-1.98352
-1.82432
-1.64996
-1.47285
-1.30155
-1.14379
-1.00438
-0.887795
-0.794573
-0.728573
-0.6919
-0.688008
-1.70811
-1.93505
-2.09992
-2.19683
-2.22566
-2.19162
-2.10378
-1.97381
-1.81455
-1.63791
-1.45658
-1.27958
-1.11491
-0.967487
-0.841324
-0.735871
-0.653566
-0.596352
-0.574163
-1.64006
-1.88152
-2.05959
-2.16746
-2.20464
-2.17588
-2.09071
-1.96083
-1.79949
-1.61916
-1.43212
-1.24855
-1.07659
-0.921534
-0.786814
-0.670941
-0.57226
-0.486338
-0.410727
-1.58607
-1.84108
-2.03434
-2.15783
-2.2111
-2.19797
-2.12788
-2.01151
-1.86145
-1.69006
-1.50792
-1.32606
-1.15225
-0.993203
-0.852732
-0.730972
-0.623915
-0.523999
-0.41759
-1.54986
-1.8128
-2.01383
-2.14641
-2.2102
-2.20863
-2.15065
-2.04609
-1.90657
-1.74375
-1.56651
-1.3857
-1.20888
-1.04376
-0.895588
-0.767816
-0.658537
-0.564503
-0.478156
-1.55128
-1.81613
-2.02017
-2.15775
-2.22859
-2.23639
-2.18947
-2.09725
-1.97033
-1.81912
-1.65123
-1.47582
-1.29964
-1.13056
-0.975444
-0.840082
-0.725186
-0.629406
-0.546822
-1.59472
-1.85504
-2.05562
-2.19189
-2.264
-2.27624
-2.23666
-2.15442
-2.0393
-1.90047
-1.74409
-1.57716
-1.40464
-1.23351
-1.0715
-0.926864
-0.803377
-0.701892
-0.617526
-1.67644
-1.92882
-2.12037
-2.24967
-2.31797
-2.33031
-2.29472
-2.22024
-2.11597
-1.9901
-1.84731
-1.69234
-1.52747
-1.35738
-1.18929
-1.03355
-0.89779
-0.786354
-0.695794
-1.79499
-2.03207
-2.20889
-2.32639
-2.38673
-2.39574
-2.36157
-2.29312
-2.19901
-2.08674
-1.95984
-1.82113
-1.66978
-1.50665
-1.33601
-1.16869
-1.01635
-0.889276
-0.787394
-1.94946
-2.1637
-2.32183
-2.42409
-2.47347
-2.47652
-2.44166
-2.37763
-2.29266
-2.19398
-2.08446
-1.96606
-1.83528
-1.68842
-1.52363
-1.34827
-1.17528
-1.02345
-0.90127
-2.1201
-2.31472
-2.45287
-2.53761
-2.57385
-2.56907
-2.53196
-2.47097
-2.39397
-2.30818
-2.21649
-2.12142
-2.01871
-1.90139
-1.75971
-1.59188
-1.40272
-1.21497
-1.05429
-2.3176
-2.48867
-2.6031
-2.6672
-2.68787
-2.67331
-2.63224
-2.57255
-2.50159
-2.42654
-2.35056
-2.27809
-2.20682
-2.13096
-2.03628
-1.91149
-1.74065
-1.5286
-1.28573
-2.55067
-2.69134
-2.77798
-2.81923
-2.82347
-2.79927
-2.75485
-2.6973
-2.63312
-2.56909
-2.50883
-2.45845
-2.41969
-2.39326
-2.37097
-2.34528
-2.29127
-2.19346
-2.03471
-2.81355
-2.91737
-2.96816
-2.97884
-2.95903
-2.91732
-2.86064
-2.79509
-2.72584
-2.65787
-2.59466
-2.54077
-2.49938
-2.47451
-2.46778
-2.48429
-2.51915
-2.56676
-2.61509
-3.11383
-3.16574
-3.17222
-3.14759
-3.10083
-3.03969
-2.96948
-2.89535
-2.82135
-2.75082
-2.68734
-2.63328
-2.59113
-2.5629
-2.55082
-2.5572
-2.58548
-2.63922
-2.72358
-3.44781
-3.43376
-3.39232
-3.33278
-3.26111
-3.18287
-3.10172
-3.02156
-2.94539
-2.8755
-2.81479
-2.76435
-2.72547
-2.69831
-2.68283
-2.67668
-2.67863
-2.68508
-2.69347
-3.76082
-3.68147
-3.59331
-3.49964
-3.40322
-3.30722
-3.21376
-3.1253
-3.04376
-2.97052
-2.90735
-2.85465
-2.81277
-2.78116
-2.75919
-2.74479
-2.73681
-2.73303
-2.73192
-4.02222
-3.89292
-3.76667
-3.64437
-3.52693
-3.41566
-3.31149
-3.21561
-3.12907
-3.05251
-2.98691
-2.93231
-2.88856
-2.85497
-2.83074
-2.81416
-2.80406
-2.79864
-2.79639
-4.23404
-4.06393
-3.9067
-3.76122
-3.62676
-3.50315
-3.39024
-3.28825
-3.19752
-3.11817
-3.05061
-2.9947
-2.94998
-2.91566
-2.89087
-2.87407
-2.86398
-2.85895
-2.85746
-4.38875
-4.18748
-4.00666
-3.84392
-3.69708
-3.56463
-3.44554
-3.33925
-3.24563
-3.16441
-3.09564
-3.03908
-2.99407
-2.95977
-2.93518
-2.91884
-2.90924
-2.90476
-2.90375
-4.48636
-4.25718
-4.05998
-3.88685
-3.73314
-3.596
-3.47373
-3.36528
-3.27023
-3.18814
-3.11887
-3.06212
-3.01717
-2.98318
-2.95912
-2.94362
-2.93514
-2.9321
-2.93279
-4.48638
-4.25722
-4.06003
-3.88691
-3.7332
-3.59606
-3.47379
-3.36534
-3.27029
-3.1882
-3.11893
-3.06218
-3.01724
-2.98324
-2.95919
-2.94369
-2.93521
-2.93217
-2.93286
-4.38879
-4.18757
-4.00678
-3.84406
-3.69723
-3.56478
-3.4457
-3.33942
-3.24579
-3.16458
-3.09581
-3.03925
-2.99425
-2.95996
-2.93538
-2.91905
-2.90947
-2.90501
-2.90402
-4.2341
-4.06407
-3.90689
-3.76144
-3.627
-3.5034
-3.3905
-3.28851
-3.19779
-3.11844
-3.05089
-2.99498
-2.95027
-2.91597
-2.89119
-2.87441
-2.86434
-2.85933
-2.85786
-4.0223
-3.8931
-3.76691
-3.64465
-3.52723
-3.41598
-3.31181
-3.21594
-3.12941
-3.05286
-2.98726
-2.93267
-2.88893
-2.85534
-2.83111
-2.81454
-2.80446
-2.79904
-2.7968
-3.76091
-3.68167
-3.59358
-3.49995
-3.40357
-3.30759
-3.21415
-3.1257
-3.04417
-2.97094
-2.90778
-2.85508
-2.8132
-2.7816
-2.75962
-2.74521
-2.73722
-2.73344
-2.73232
-3.44791
-3.43397
-3.39261
-3.33313
-3.26149
-3.18328
-3.10215
-3.02201
-2.94585
-2.87597
-2.81527
-2.76483
-2.72595
-2.69877
-2.68326
-2.67706
-2.67894
-2.68532
-2.69362
-3.11393
-3.16598
-3.17257
-3.14803
-3.10135
-3.04028
-2.97014
-2.89608
-2.82215
-2.7517
-2.6883
-2.63432
-2.59227
-2.56413
-2.55212
-2.55849
-2.5866
-2.63993
-2.72348
-2.81362
-2.91742
-2.96821
-2.9789
-2.95909
-2.91737
-2.86067
-2.79508
-2.72579
-2.65774
-2.59443
-2.5404
-2.4988
-2.47367
-2.46665
-2.48292
-2.5178
-2.56601
-2.61585
-2.55071
-2.69146
-2.77818
-2.81953
-2.82387
-2.79979
-2.75548
-2.69804
-2.63397
-2.57005
-2.50991
-2.45966
-2.42108
-2.39493
-2.37312
-2.34821
-2.29535
-2.19901
-2.04193
-2.31762
-2.48869
-2.60315
-2.66731
-2.68804
-2.67355
-2.63256
-2.57294
-2.50205
-2.42708
-2.35118
-2.27881
-2.20771
-2.13211
-2.03779
-1.91342
-1.74291
-1.53087
-1.28742
-2.1201
-2.31473
-2.45291
-2.5377
-2.57401
-2.5693
-2.53228
-2.47136
-2.39445
-2.30876
-2.21717
-2.12224
-2.0197
-1.90261
-1.76115
-1.59348
-1.4043
-1.21633
-1.05538
-1.94947
-2.16369
-2.32183
-2.42414
-2.47359
-2.47672
-2.44194
-2.378
-2.29312
-2.19454
-2.08513
-1.96686
-1.83624
-1.68952
-1.52483
-1.34947
-1.17638
-1.02439
-0.902055
-1.79499
-2.03205
-2.20887
-2.32641
-2.38682
-2.3959
-2.36182
-2.29346
-2.19944
-2.08728
-1.96048
-1.82189
-1.67064
-1.5076
-1.33697
-1.16961
-1.01717
-0.889986
-0.788019
-1.67644
-1.92878
-2.12034
-2.24968
-2.31803
-2.33044
-2.29494
-2.22055
-2.11637
-1.9906
-1.8479
-1.69302
-1.52822
-1.35817
-1.19007
-1.03428
-0.898437
-0.786928
-0.696325
-1.59471
-1.85501
-2.05559
-2.19188
-2.26404
-2.27635
-2.23685
-2.1547
-2.03966
-1.90093
-1.74462
-1.57776
-1.40529
-1.23416
-1.07214
-0.92745
-0.803908
-0.702382
-0.618006
-1.55127
-1.8161
-2.02013
-2.15773
-2.22862
-2.23648
-2.18964
-2.09749
-1.97066
-1.81953
-1.6517
-1.47634
-1.30019
-1.13111
-0.975965
-0.840566
-0.725637
-0.629846
-0.547293
-1.54985
-1.81276
-2.01377
-2.14636
-2.21019
-2.20866
-2.15074
-2.04623
-1.90677
-1.744
-1.5668
-1.38602
-1.20922
-1.04408
-0.895884
-0.768087
-0.658801
-0.564807
-0.478599
-1.58611
-1.84111
-2.03437
-2.15788
-2.21117
-2.19807
-2.12803
-2.01171
-1.8617
-1.69035
-1.50826
-1.32644
-1.15265
-0.99361
-0.853137
-0.731372
-0.6243
-0.524356
-0.417891
-1.64011
-1.88156
-2.05962
-2.16747
-2.20463
-2.17585
-2.09065
-1.96075
-1.79938
-1.61903
-1.43199
-1.24841
-1.07644
-0.921381
-0.786656
-0.670775
-0.572081
-0.48614
-0.410494
-1.70814
-1.93508
-2.09995
-2.19685
-2.22568
-2.19164
-2.10379
-1.97381
-1.81455
-1.63791
-1.45658
-1.27958
-1.11491
-0.967486
-0.841324
-0.735874
-0.653575
-0.59637
-0.574187
-1.78591
-1.99867
-2.14937
-2.23324
-2.25124
-2.20908
-2.11597
-1.98351
-1.82431
-1.64995
-1.47283
-1.30154
-1.14378
-1.00437
-0.887792
-0.794575
-0.72858
-0.691911
-0.688022
-1.87142
-2.07174
-2.20803
-2.27829
-2.28487
-2.2341
-2.13539
-2.00033
-1.84131
-1.66954
-1.4971
-1.33208
-1.18194
-1.05139
-0.945176
-0.864049
-0.811692
-0.788444
-0.794101
-1.96862
-2.1553
-2.27564
-2.33142
-2.32592
-2.26592
-2.16112
-2.02317
-1.86433
-1.69536
-1.52805
-1.36991
-1.2281
-1.10714
-1.01167
-0.942087
-0.901407
-0.888522
-0.901752
-2.08228
-2.24769
-2.35049
-2.39108
-2.3727
-2.30264
-2.19111
-2.04994
-1.89129
-1.72546
-1.56387
-1.41339
-1.28081
-1.17022
-1.08601
-1.02788
-0.998278
-0.995169
-1.01632
-2.19384
-2.34018
-2.42693
-2.45231
-2.42036
-2.33963
-2.22104
-2.07676
-1.91879
-1.75689
-1.60207
-1.46044
-1.33833
-1.23925
-1.16725
-1.12123
-1.10334
-1.11088
-1.14135
-2.30581
-2.4412
-2.51224
-2.52084
-2.47362
-2.38081
-2.25429
-2.10657
-1.94941
-1.79194
-1.6447
-1.5129
-1.40233
-1.31586
-1.25716
-1.2243
-1.2193
-1.23891
-1.28045
-2.43269
-2.55163
-2.60262
-2.59103
-2.52608
-2.41969
-2.28477
-2.1339
-1.97847
-1.82677
-1.68872
-1.56851
-1.47133
-1.39931
-1.35579
-1.33799
-1.34794
-1.38188
-1.43694
-2.5717
-2.66628
-2.69258
-2.6572
-2.5722
-2.45135
-2.30833
-2.15554
-2.00363
-1.85977
-1.73321
-1.62691
-1.54549
-1.49031
-1.46447
-1.46423
-1.4919
-1.54313
-1.61488
-2.71276
-2.7813
-2.77849
-2.71551
-2.60855
-2.47321
-2.32338
-2.17075
-2.02487
-1.8915
-1.77918
-1.68953
-1.62662
-1.59105
-1.58584
-1.6062
-1.65495
-1.72715
-1.81968
-2.86335
-2.89895
-2.85882
-2.76367
-2.63353
-2.48473
-2.33034
-2.18077
-2.04405
-1.92423
-1.8293
-1.75934
-1.71802
-1.70521
-1.72404
-1.76856
-1.84243
-1.94011
-2.05859
-3.03029
-3.0094
-2.92263
-2.79281
-2.6406
-2.48158
-2.32666
-2.18445
-2.0611
-1.95872
-1.88507
-1.83847
-1.82248
-1.83623
-1.88332
-1.95638
-2.0605
-2.1895
-2.34084
-3.16358
-3.07971
-2.94567
-2.78434
-2.61561
-2.45323
-2.30454
-2.17605
-2.07183
-1.99193
-1.94442
-1.92572
-1.93966
-1.98474
-2.06551
-2.17299
-2.31452
-2.4834
-2.67807
-3.26899
-3.1242
-2.94219
-2.75324
-2.57435
-2.41552
-2.2792
-2.16982
-2.08942
-2.03611
-2.01895
-2.03228
-2.08065
-2.16206
-2.28252
-2.4312
-2.61868
-2.83794
-3.08969
-3.35047
-3.1215
-2.89257
-2.68597
-2.50799
-2.36265
-2.24672
-2.16313
-2.11231
-2.09068
-2.10914
-2.15981
-2.24856
-2.37299
-2.5414
-2.74076
-2.98642
-3.27146
-3.60138
-3.33092
-3.02458
-2.76967
-2.56595
-2.40487
-2.28531
-2.19893
-2.14854
-2.13367
-2.1494
-2.20953
-2.30387
-2.44037
-2.61658
-2.84432
-3.10813
-3.43064
-3.80614
-4.2505
-3.18722
-2.8465
-2.59661
-2.41664
-2.28587
-2.20114
-2.15064
-2.1386
-2.1644
-2.22225
-2.32987
-2.47478
-2.66793
-2.90726
-3.20972
-3.5574
-3.98368
-4.48624
-5.10518
-2.89244
-2.57465
-2.36526
-2.2299
-2.14192
-2.10013
-2.09134
-2.12253
-2.1938
-2.29903
-2.46088
-2.665
-2.92652
-3.24479
-3.6444
-4.10578
-4.67888
-5.36967
-6.27866
-2.44835
-2.22144
-2.0843
-2.00906
-1.97231
-1.97853
-2.01513
-2.09279
-2.2131
-2.37038
-2.59334
-2.86664
-3.2114
-3.63027
-4.15968
-4.78097
-5.57092
-6.55398
-7.99176
-1.89245
-1.80666
-1.76088
-1.75365
-1.772
-1.82809
-1.91128
-2.03638
-2.20725
-2.41959
-2.7095
-3.06233
-3.50803
-4.0563
-4.76278
-5.61653
-6.74087
-8.20058
-10.7072
-1.29213
-1.35536
-1.40229
-1.46264
-1.53547
-1.63999
-1.76793
-1.93814
-2.15737
-2.42391
-2.78286
-3.22294
-3.78737
-4.5002
-5.44998
-6.64985
-8.31056
-10.5866
-15.4761
-0.721121
-0.89324
-1.0165
-1.13668
-1.25953
-1.40802
-1.57548
-1.7841
-2.0436
-2.35628
-2.778
-3.30379
-3.99698
-4.90967
-6.18855
-7.90946
-10.461
-14.2078
-24.8416
-0.236456
-0.440604
-0.610899
-0.77862
-0.944886
-1.13107
-1.32959
-1.56525
-1.84892
-2.18864
-2.65243
-3.24178
-4.05202
-5.1976
-6.96527
-9.70996
-14.5983
-23.6045
-55.7622
)
;

boundaryField
{
    up
    {
        type            calculated;
        value           nonuniform List<scalar> 
84
(
-50.5308
-27.3671
-16.8018
-11.4776
-8.48268
-6.61479
-5.34775
-4.43236
-3.74088
-3.19912
-2.76469
-2.40975
-2.11395
-1.8642
-1.65066
-1.46569
-1.30351
-1.15976
-1.03091
-0.913333
-0.803191
-0.694123
-0.57002
-0.369805
-0.359057
-0.452696
-0.522957
-0.592721
-0.66867
-0.756382
-0.862732
-0.996124
-1.19612
-2.0303
-2.70188
-2.77644
-2.69409
-2.7303
-2.795
-2.85693
-2.90375
-2.9339
-2.93397
-2.90404
-2.85735
-2.79542
-2.7307
-2.69422
-2.77568
-2.70274
-2.03879
-1.19769
-0.997079
-0.863473
-0.756988
-0.669194
-0.593204
-0.523441
-0.453313
-0.359465
-0.369562
-0.570046
-0.694137
-0.803199
-0.913339
-1.03092
-1.15976
-1.30351
-1.46569
-1.65066
-1.86419
-2.11395
-2.40975
-2.76469
-3.19913
-3.74088
-4.43236
-5.34775
-6.61479
-8.48268
-11.4776
-16.8018
-27.3671
-50.5308
)
;
    }
    low
    {
        type            calculated;
        value           nonuniform List<scalar> 
84
(
-0.253482
-0.752527
-1.36083
-2.00898
-2.61059
-3.0859
-3.38874
-3.51969
-3.50191
-3.37152
-3.23978
-3.08068
-2.87879
-2.7086
-2.55611
-2.40201
-2.26222
-2.14653
-2.02758
-1.89698
-1.78702
-1.69192
-1.60236
-1.52323
-1.44921
-1.40445
-1.40749
-1.46482
-1.56445
-1.70591
-1.88067
-2.06476
-2.27853
-2.53127
-2.81087
-3.13414
-3.50096
-3.83608
-4.11185
-4.33613
-4.50094
-4.61151
-4.61152
-4.50096
-4.33616
-4.11189
-3.83612
-3.50102
-3.1342
-2.81086
-2.53131
-2.27851
-2.06475
-1.88066
-1.70591
-1.56445
-1.46483
-1.4075
-1.40447
-1.44924
-1.52329
-1.60238
-1.69195
-1.78704
-1.897
-2.0276
-2.14654
-2.26222
-2.40201
-2.55611
-2.7086
-2.87878
-3.08067
-3.23977
-3.37152
-3.50191
-3.5197
-3.38876
-3.08592
-2.61061
-2.009
-1.36084
-0.752532
-0.253484
)
;
    }
    left
    {
        type            calculated;
        value           nonuniform List<scalar> 
19
(
-0.231876
-0.432151
-0.605515
-0.778391
-0.9511
-1.14444
-1.35139
-1.5981
-1.89597
-2.25703
-2.75269
-3.38781
-4.27074
-5.53855
-7.51312
-10.6294
-16.2459
-26.7175
-52.4123
)
;
    }
    right
    {
        type            calculated;
        value           nonuniform List<scalar> 
19
(
-0.231877
-0.432152
-0.605516
-0.778392
-0.9511
-1.14444
-1.35139
-1.5981
-1.89597
-2.25703
-2.75268
-3.3878
-4.27074
-5.53854
-7.51312
-10.6294
-16.2459
-26.7175
-52.4123
)
;
    }
    frontAndBackPlanes
    {
        type            empty;
    }
}


// ************************************************************************* //
