/*--------------------------------*- C++ -*----------------------------------*\
  =========                 |
  \\      /  F ield         | OpenFOAM: The Open Source CFD Toolbox
   \\    /   O peration     | Website:  https://openfoam.org
    \\  /    A nd           | Version:  7
     \\/     M anipulation  |
\*---------------------------------------------------------------------------*/
FoamFile
{
    version     2.0;
    format      ascii;
    class       volScalarField;
    location    "0.435";
    object      gradTy;
}
// * * * * * * * * * * * * * * * * * * * * * * * * * * * * * * * * * * * * * //

dimensions      [0 -1 0 1 0 0 0];

internalField   nonuniform List<scalar> 
1596
(
-0.338862
-0.634071
-0.885745
-1.14063
-1.40189
-1.70234
-2.03237
-2.43063
-2.91554
-3.50085
-4.29523
-5.303
-6.67924
-8.61285
-11.5791
-16.169
-24.3255
-39.34
-92.9368
-1.03438
-1.28866
-1.48188
-1.6803
-1.89247
-2.15222
-2.45019
-2.81991
-3.27701
-3.82549
-4.55338
-5.45434
-6.63091
-8.1694
-10.3125
-13.1882
-17.4429
-23.6861
-41.4056
-1.85343
-1.95661
-2.04873
-2.17143
-2.32253
-2.52939
-2.77948
-3.10041
-3.50241
-3.98266
-4.61104
-5.37086
-6.3314
-7.53292
-9.12165
-11.1222
-13.8849
-17.6699
-25.8091
-2.71278
-2.60717
-2.57357
-2.60757
-2.68886
-2.83378
-3.02575
-3.28569
-3.61876
-4.01776
-4.53744
-5.15559
-5.91943
-6.84564
-8.02566
-9.44481
-11.3075
-13.7253
-17.8858
-3.50531
-3.20196
-3.04325
-2.98607
-2.99458
-3.0734
-3.20279
-3.39696
-3.65718
-3.9739
-4.38949
-4.88055
-5.47961
-6.19169
-7.07605
-8.10565
-9.4071
-11.0252
-13.3978
-4.13363
-3.70425
-3.44641
-3.30759
-3.24713
-3.26098
-3.32835
-3.45752
-3.64715
-3.88693
-4.20913
-4.59182
-5.05752
-5.6057
-6.2757
-7.03916
-7.97766
-9.10542
-10.592
-4.54429
-4.08567
-3.77288
-3.57313
-3.45436
-3.40935
-3.41921
-3.48778
-3.61241
-3.78316
-4.02408
-4.31616
-4.67484
-5.09713
-5.60939
-6.18604
-6.88073
-7.69391
-8.69453
-4.73588
-4.32928
-4.01117
-3.77909
-3.61869
-3.5255
-3.48556
-3.50039
-3.56726
-3.67748
-3.84863
-4.06515
-4.33745
-4.66165
-5.05533
-5.49688
-6.02175
-6.6246
-7.33402
-4.74835
-4.45416
-4.17426
-3.93894
-3.7554
-3.62647
-3.54555
-3.51405
-3.53037
-3.58771
-3.69888
-3.85174
-4.05314
-4.29908
-4.60108
-4.94124
-5.34278
-5.7981
-6.31847
-4.61629
-4.44309
-4.23039
-4.02028
-3.83555
-3.68764
-3.5781
-3.51036
-3.485
-3.49761
-3.55803
-3.65728
-3.80005
-3.98268
-4.21276
-4.47564
-4.78648
-5.13715
-5.5308
-4.45043
-4.36463
-4.22043
-4.04961
-3.87931
-3.7264
-3.59946
-3.50485
-3.44595
-3.42109
-3.43856
-3.49229
-3.58578
-3.71596
-3.8879
-4.08953
-4.33063
-4.60315
-4.90633
-4.24568
-4.24943
-4.17249
-4.04652
-3.89979
-3.75184
-3.61631
-3.50252
-3.41676
-3.36026
-3.34085
-3.3551
-3.40609
-3.49155
-3.61498
-3.76643
-3.95207
-4.16428
-4.40045
-3.99466
-4.07774
-4.06663
-3.98971
-3.87424
-3.7408
-3.60602
-3.48178
-3.37698
-3.29557
-3.24582
-3.22675
-3.24169
-3.28939
-3.37267
-3.48337
-3.62546
-3.79186
-3.97892
-3.76813
-3.89697
-3.93839
-3.9071
-3.82473
-3.7107
-3.58259
-3.45405
-3.33608
-3.23498
-3.15998
-3.11228
-3.09594
-3.11086
-3.1598
-3.23609
-3.34246
-3.47234
-3.62167
-3.55661
-3.72097
-3.80321
-3.81128
-3.76061
-3.66782
-3.54995
-3.42144
-3.29476
-3.17811
-3.08188
-3.00923
-2.96526
-2.95112
-2.96997
-3.0165
-3.09287
-3.19304
-3.31283
-3.34979
-3.54669
-3.66324
-3.70531
-3.68392
-3.61273
-3.5073
-3.38208
-3.25036
-3.12174
-3.00778
-2.91335
-2.84476
-2.80452
-2.79657
-2.81695
-2.86775
-2.94349
-3.03998
-3.16179
-3.37978
-3.52389
-3.59492
-3.59981
-3.54941
-3.45733
-3.33753
-3.2035
-3.0658
-2.93698
-2.82337
-2.73252
-2.66834
-2.63588
-2.63257
-2.66095
-2.71613
-2.79397
-2.99646
-3.2276
-3.39305
-3.48829
-3.51629
-3.48506
-3.40623
-3.29283
-3.15819
-3.01342
-2.87179
-2.74084
-2.62928
-2.54238
-2.48649
-2.46063
-2.46827
-2.50534
-2.56782
-2.8339
-3.08886
-3.27576
-3.39303
-3.44202
-3.42853
-3.36244
-3.25569
-3.12128
-2.97056
-2.8173
-2.67
-2.53833
-2.4288
-2.34913
-2.30011
-2.28682
-2.3065
-2.35559
-2.6707
-2.95204
-3.16207
-3.30107
-3.37016
-3.37384
-3.32055
-3.22123
-3.08833
-2.93324
-2.76999
-2.60777
-2.45698
-2.32506
-2.22095
-2.14722
-2.11133
-2.11298
-2.14995
-2.53228
-2.82957
-3.06046
-3.22023
-3.30846
-3.32856
-3.28776
-3.19609
-3.0654
-2.90693
-2.73484
-2.55873
-2.3895
-2.23507
-2.10509
-2.00335
-1.94018
-1.91942
-1.94297
-2.41206
-2.72385
-2.97358
-3.15303
-3.25969
-3.29573
-3.26727
-3.18353
-3.05571
-2.89478
-2.71488
-2.52588
-2.33899
-2.16226
-2.00519
-1.87134
-1.77282
-1.71888
-1.72166
-2.30461
-2.63369
-2.90221
-3.10073
-3.22526
-3.27686
-3.26073
-3.18533
-3.06118
-2.8988
-2.71218
-2.51137
-2.30792
-2.10991
-1.9261
-1.7576
-1.61414
-1.50573
-1.46274
-2.2126
-2.56027
-2.84682
-3.06196
-3.20104
-3.26419
-3.25643
-3.18537
-3.06107
-2.89387
-2.69646
-2.48032
-2.25733
-2.03638
-1.82532
-1.62317
-1.43068
-1.24267
-1.05979
-2.14172
-2.5073
-2.81436
-3.05146
-3.21439
-3.30233
-3.32028
-3.27423
-3.17284
-3.02572
-2.84214
-2.63438
-2.41325
-2.18995
-1.97254
-1.76283
-1.55545
-1.33666
-1.07865
-2.09694
-2.47364
-2.7906
-3.03867
-3.21422
-3.31643
-3.35013
-3.3205
-3.23487
-3.10164
-2.92683
-2.72195
-2.49709
-2.26512
-2.03699
-1.82158
-1.61856
-1.42463
-1.22726
-2.1061
-2.48808
-2.81055
-3.06564
-3.25012
-3.36423
-3.41259
-3.40054
-3.33441
-3.22075
-3.06353
-2.87077
-2.65069
-2.41606
-2.18071
-1.95783
-1.75258
-1.56555
-1.38817
-2.17602
-2.5568
-2.87793
-3.13284
-3.31912
-3.43844
-3.49577
-3.49707
-3.44821
-3.35434
-3.21732
-3.04118
-2.83052
-2.59593
-2.35267
-2.11817
-1.90378
-1.71432
-1.54357
-2.30289
-2.67951
-2.99301
-3.24089
-3.42232
-3.54069
-3.60176
-3.61234
-3.57837
-3.50426
-3.39011
-3.23599
-3.04143
-2.81217
-2.56198
-2.31178
-2.08033
-1.87911
-1.70498
-2.48626
-2.84961
-3.14809
-3.38232
-3.55291
-3.66496
-3.72526
-3.74161
-3.72039
-3.66605
-3.57775
-3.45261
-3.28446
-3.0714
-2.82089
-2.55387
-2.29667
-2.07202
-1.88359
-2.72683
-3.06649
-3.34415
-3.55941
-3.71425
-3.8155
-3.87119
-3.88999
-3.87898
-3.84344
-3.78273
-3.69319
-3.56419
-3.38494
-3.15055
-2.87398
-2.58332
-2.31724
-2.0964
-2.99865
-3.31827
-3.5721
-3.76382
-3.89854
-3.98507
-4.03269
-4.05069
-4.04681
-4.02765
-3.99398
-3.94433
-3.86752
-3.7469
-3.56208
-3.30713
-2.99289
-2.66419
-2.37522
-3.31835
-3.61083
-3.83372
-3.99573
-4.10525
-4.17286
-4.20861
-4.22189
-4.22064
-4.21262
-4.20042
-4.18723
-4.16677
-4.12558
-4.03537
-3.87138
-3.60293
-3.23712
-2.79527
-3.70012
-3.95333
-4.13718
-4.26433
-4.34592
-4.39372
-4.41771
-4.42686
-4.42867
-4.43119
-4.43885
-4.45899
-4.49397
-4.54388
-4.59365
-4.62735
-4.59835
-4.47405
-4.22089
-4.13778
-4.33982
-4.47072
-4.55005
-4.59123
-4.60641
-4.60402
-4.59181
-4.57563
-4.56092
-4.55214
-4.55431
-4.57246
-4.6131
-4.68019
-4.78326
-4.91647
-5.07025
-5.22495
-4.64383
-4.76974
-4.83356
-4.85752
-4.85445
-4.83542
-4.80662
-4.77453
-4.74347
-4.71651
-4.69835
-4.6905
-4.69665
-4.71943
-4.76322
-4.83172
-4.93356
-5.07608
-5.2716
-5.21189
-5.23627
-5.22507
-5.19313
-5.14883
-5.09986
-5.04993
-5.00362
-4.96363
-4.93153
-4.9108
-4.90098
-4.90355
-4.91779
-4.94366
-4.97631
-5.01502
-5.05356
-5.08893
-5.75525
-5.67392
-5.58617
-5.4972
-5.41021
-5.32887
-5.2545
-5.18927
-5.13419
-5.08945
-5.05656
-5.03419
-5.02215
-5.01878
-5.02298
-5.031
-5.04229
-5.05369
-5.06421
-6.21973
-6.053
-5.89991
-5.7611
-5.63638
-5.52616
-5.42972
-5.34713
-5.27799
-5.22144
-5.1776
-5.14486
-5.12232
-5.10824
-5.10145
-5.09923
-5.10092
-5.10435
-5.10854
-6.60082
-6.36202
-6.15426
-5.97398
-5.81796
-5.68381
-5.56906
-5.47202
-5.39119
-5.32498
-5.27257
-5.23227
-5.20278
-5.18242
-5.16989
-5.1631
-5.16103
-5.16195
-5.16475
-6.88032
-6.58579
-6.33594
-6.12449
-5.94545
-5.79397
-5.6661
-5.55882
-5.46985
-5.39708
-5.33908
-5.29418
-5.26079
-5.23727
-5.22214
-5.21355
-5.21007
-5.21
-5.21197
-7.05338
-6.71113
-6.43275
-6.20274
-6.01094
-5.85025
-5.71556
-5.60304
-5.50996
-5.43395
-5.37328
-5.3263
-5.29132
-5.26676
-5.25113
-5.24279
-5.24019
-5.24175
-5.24594
-7.05342
-6.7112
-6.43283
-6.20283
-6.01104
-5.85035
-5.71565
-5.60314
-5.51005
-5.43404
-5.37336
-5.32638
-5.2914
-5.26684
-5.25121
-5.24287
-5.24026
-5.24182
-5.24601
-6.88039
-6.58594
-6.33614
-6.12472
-5.94569
-5.79422
-5.66635
-5.55907
-5.47009
-5.39732
-5.33931
-5.29441
-5.26101
-5.23749
-5.22236
-5.21379
-5.21032
-5.21027
-5.21227
-6.60093
-6.36227
-6.15458
-5.97435
-5.81835
-5.68421
-5.56946
-5.47241
-5.39159
-5.32537
-5.27294
-5.23264
-5.20314
-5.18278
-5.17025
-5.16346
-5.1614
-5.16234
-5.16516
-6.21988
-6.05331
-5.90031
-5.76156
-5.63687
-5.52666
-5.43023
-5.34764
-5.27849
-5.22193
-5.17807
-5.14532
-5.12275
-5.10866
-5.10183
-5.09959
-5.10125
-5.10466
-5.10883
-5.75541
-5.67426
-5.58662
-5.49772
-5.41078
-5.32946
-5.25511
-5.18988
-5.1348
-5.09005
-5.05714
-5.03473
-5.02266
-5.01924
-5.02338
-5.03135
-5.04256
-5.0539
-5.06435
-5.21207
-5.23664
-5.22556
-5.1937
-5.14946
-5.10052
-5.05061
-5.00431
-4.96432
-4.93222
-4.91147
-4.90161
-4.90412
-4.91827
-4.944
-4.97649
-5.01498
-5.0533
-5.08845
-4.64402
-4.77014
-4.83414
-4.85823
-4.85529
-4.83638
-4.80767
-4.77569
-4.74474
-4.71789
-4.69985
-4.69213
-4.69841
-4.72131
-4.76516
-4.83355
-4.93497
-5.07656
-5.27038
-4.13791
-4.33991
-4.47081
-4.55013
-4.59128
-4.60642
-4.60395
-4.59164
-4.57532
-4.56042
-4.55139
-4.55323
-4.57092
-4.61097
-4.67739
-4.77983
-4.91292
-5.06765
-5.22509
-3.70019
-3.95352
-4.13747
-4.26474
-4.34646
-4.3944
-4.41853
-4.42781
-4.42977
-4.43243
-4.44027
-4.46063
-4.49593
-4.54637
-4.59708
-4.6323
-4.60558
-4.4842
-4.23435
-3.3184
-3.61087
-3.8338
-3.99586
-4.10545
-4.17312
-4.20895
-4.2223
-4.22113
-4.2132
-4.20111
-4.18811
-4.16796
-4.12727
-4.03778
-3.87465
-3.6069
-3.24116
-2.79819
-2.99869
-3.31829
-3.57215
-3.76392
-3.89871
-3.98532
-4.03303
-4.05113
-4.04735
-4.02833
-3.99483
-3.94544
-3.86898
-3.74882
-3.56447
-3.30985
-2.99562
-2.66655
-2.37709
-2.72686
-3.06649
-3.34417
-3.55946
-3.71437
-3.81571
-3.87149
-3.8904
-3.87951
-3.84413
-3.78361
-3.69433
-3.56563
-3.3867
-3.15254
-2.87602
-2.58521
-2.31885
-2.09777
-2.48628
-2.8496
-3.14808
-3.38234
-3.55299
-3.66512
-3.72552
-3.74199
-3.7209
-3.66672
-3.57861
-3.4537
-3.28578
-3.07291
-2.82249
-2.55542
-2.29807
-2.07327
-1.88471
-2.3029
-2.67948
-2.99298
-3.24088
-3.42237
-3.54082
-3.60198
-3.61268
-3.57884
-3.50489
-3.39091
-3.23698
-3.04259
-2.81343
-2.56327
-2.313
-2.08145
-1.88015
-1.70598
-2.17604
-2.55676
-2.87788
-3.13282
-3.31915
-3.43854
-3.49597
-3.49737
-3.44864
-3.35492
-3.21805
-3.04206
-2.83151
-2.59698
-2.35371
-2.11916
-1.90472
-1.71523
-1.54453
-2.10611
-2.48804
-2.8105
-3.06561
-3.25013
-3.36431
-3.41276
-3.40081
-3.33479
-3.22127
-3.06417
-2.87153
-2.65153
-2.41693
-2.18157
-1.95866
-1.7534
-1.56642
-1.38916
-2.09695
-2.4736
-2.79053
-3.0386
-3.21417
-3.31641
-3.35017
-3.32061
-3.23506
-3.10191
-2.92718
-2.72236
-2.49751
-2.26554
-2.03738
-1.82196
-1.61898
-1.42521
-1.22824
-2.1418
-2.50737
-2.81444
-3.05155
-3.21452
-3.30251
-3.32054
-3.27457
-3.17326
-3.02624
-2.84274
-2.63507
-2.414
-2.19074
-1.97336
-1.76366
-1.55627
-1.33746
-1.07936
-2.21268
-2.56035
-2.8469
-3.06202
-3.20108
-3.26419
-3.2564
-3.1853
-3.06096
-2.89372
-2.69627
-2.48009
-2.25706
-2.03606
-1.82496
-1.62277
-1.43022
-1.24214
-1.0592
-2.30467
-2.63376
-2.90227
-3.1008
-3.22532
-3.27692
-3.26077
-3.18536
-3.0612
-2.8988
-2.71218
-2.51136
-2.3079
-2.10988
-1.92607
-1.75757
-1.61412
-1.50574
-1.46278
-2.41212
-2.7239
-2.97363
-3.15308
-3.25973
-3.29575
-3.26728
-3.18353
-3.0557
-2.89475
-2.71485
-2.52584
-2.33895
-2.16222
-2.00515
-1.87131
-1.77281
-1.71888
-1.72168
-2.53233
-2.82961
-3.0605
-3.22027
-3.30849
-3.32858
-3.28777
-3.19609
-3.06539
-2.90691
-2.73481
-2.5587
-2.38947
-2.23504
-2.10506
-2.00333
-1.94017
-1.91942
-1.94297
-2.67074
-2.95207
-3.16211
-3.3011
-3.37018
-3.37385
-3.32056
-3.22123
-3.08832
-2.93322
-2.76997
-2.60775
-2.45695
-2.32504
-2.22093
-2.1472
-2.11133
-2.11298
-2.14995
-2.83393
-3.08889
-3.27579
-3.39305
-3.44204
-3.42854
-3.36244
-3.25569
-3.12127
-2.97055
-2.81729
-2.66998
-2.53831
-2.42879
-2.34912
-2.30011
-2.28681
-2.30649
-2.35558
-2.99649
-3.22763
-3.39307
-3.48831
-3.5163
-3.48507
-3.40624
-3.29283
-3.15819
-3.01341
-2.87178
-2.74083
-2.62927
-2.54237
-2.48648
-2.46062
-2.46826
-2.50533
-2.56781
-3.16181
-3.37979
-3.52391
-3.59493
-3.59982
-3.54941
-3.45733
-3.33753
-3.2035
-3.06579
-2.93697
-2.82336
-2.73251
-2.66833
-2.63587
-2.63257
-2.66094
-2.71612
-2.79396
-3.3498
-3.54671
-3.66325
-3.70532
-3.68393
-3.61274
-3.5073
-3.38208
-3.25035
-3.12173
-3.00777
-2.91335
-2.84476
-2.80451
-2.79657
-2.81694
-2.86774
-2.94348
-3.03997
-3.55662
-3.72097
-3.80322
-3.81129
-3.76062
-3.66783
-3.54995
-3.42144
-3.29476
-3.17811
-3.08188
-3.00923
-2.96526
-2.95112
-2.96997
-3.0165
-3.09287
-3.19304
-3.31282
-3.76813
-3.89697
-3.9384
-3.90711
-3.82474
-3.7107
-3.58259
-3.45405
-3.33608
-3.23498
-3.15998
-3.11228
-3.09594
-3.11085
-3.1598
-3.23608
-3.34245
-3.47234
-3.62166
-3.99467
-4.07774
-4.06663
-3.98971
-3.87424
-3.7408
-3.60603
-3.48178
-3.37698
-3.29557
-3.24582
-3.22675
-3.24169
-3.28939
-3.37267
-3.48337
-3.62546
-3.79186
-3.97892
-4.24568
-4.24943
-4.17249
-4.04652
-3.89979
-3.75184
-3.61631
-3.50252
-3.41676
-3.36026
-3.34085
-3.3551
-3.40609
-3.49155
-3.61498
-3.76643
-3.95207
-4.16428
-4.40045
-4.45043
-4.36463
-4.22043
-4.04961
-3.87931
-3.7264
-3.59946
-3.50485
-3.44595
-3.42109
-3.43856
-3.49229
-3.58578
-3.71596
-3.8879
-4.08952
-4.33063
-4.60315
-4.90633
-4.6163
-4.44309
-4.23039
-4.02028
-3.83555
-3.68764
-3.5781
-3.51036
-3.48499
-3.49761
-3.55803
-3.65727
-3.80004
-3.98267
-4.21276
-4.47564
-4.78648
-5.13715
-5.5308
-4.74836
-4.45417
-4.17426
-3.93894
-3.7554
-3.62647
-3.54555
-3.51405
-3.53037
-3.58771
-3.69888
-3.85173
-4.05313
-4.29907
-4.60108
-4.94124
-5.34278
-5.79811
-6.31848
-4.73589
-4.32929
-4.01118
-3.7791
-3.6187
-3.5255
-3.48556
-3.50039
-3.56726
-3.67748
-3.84862
-4.06515
-4.33745
-4.66165
-5.05532
-5.49687
-6.02175
-6.6246
-7.33403
-4.5443
-4.08568
-3.77289
-3.57314
-3.45436
-3.40935
-3.41921
-3.48778
-3.61241
-3.78316
-4.02407
-4.31616
-4.67483
-5.09713
-5.60938
-6.18604
-6.88073
-7.69391
-8.69454
-4.13364
-3.70426
-3.44642
-3.30759
-3.24713
-3.26098
-3.32835
-3.45752
-3.64715
-3.88693
-4.20912
-4.59182
-5.05751
-5.60569
-6.27569
-7.03915
-7.97766
-9.10542
-10.592
-3.50532
-3.20197
-3.04326
-2.98608
-2.99458
-3.07341
-3.2028
-3.39696
-3.65718
-3.9739
-4.38949
-4.88055
-5.4796
-6.19168
-7.07604
-8.10564
-9.4071
-11.0252
-13.3978
-2.71279
-2.60718
-2.57358
-2.60758
-2.68886
-2.83379
-3.02576
-3.28569
-3.61876
-4.01776
-4.53744
-5.15558
-5.91943
-6.84564
-8.02565
-9.44481
-11.3075
-13.7253
-17.8858
-1.85343
-1.95662
-2.04873
-2.17144
-2.32253
-2.5294
-2.77948
-3.10041
-3.50241
-3.98266
-4.61104
-5.37086
-6.3314
-7.53292
-9.12165
-11.1222
-13.8849
-17.6699
-25.8091
-1.03438
-1.28866
-1.48188
-1.68031
-1.89247
-2.15223
-2.45019
-2.81991
-3.27701
-3.82549
-4.55338
-5.45434
-6.63091
-8.1694
-10.3125
-13.1882
-17.4429
-23.6861
-41.4055
-0.33886
-0.634069
-0.885744
-1.14063
-1.40189
-1.70234
-2.03237
-2.43063
-2.91554
-3.50085
-4.29523
-5.303
-6.67924
-8.61286
-11.5791
-16.169
-24.3255
-39.34
-92.9368
)
;

boundaryField
{
    up
    {
        type            calculated;
        value           nonuniform List<scalar> 
84
(
-84.2166
-45.6108
-28.0112
-19.1588
-14.2021
-11.1364
-9.0821
-7.62055
-6.53541
-5.69936
-5.03907
-4.5061
-4.06454
-3.69166
-3.37055
-3.08805
-2.83437
-2.60207
-2.38483
-2.17535
-1.96504
-1.73831
-1.4542
-0.956305
-0.931557
-1.16844
-1.33657
-1.4929
-1.65211
-1.82525
-2.02529
-2.26746
-2.62874
-4.23501
-5.41777
-5.38626
-5.0968
-5.06544
-5.10865
-5.16539
-5.21292
-5.24855
-5.24862
-5.21324
-5.16581
-5.10894
-5.06557
-5.09626
-5.3837
-5.41802
-4.25097
-2.6314
-2.26909
-2.0266
-1.82636
-1.65311
-1.49387
-1.33761
-1.16986
-0.932559
-0.955719
-1.45427
-1.73833
-1.96505
-2.17534
-2.38482
-2.60206
-2.83436
-3.08804
-3.37054
-3.69166
-4.06454
-4.5061
-5.03907
-5.69937
-6.53542
-7.62056
-9.0821
-11.1364
-14.2021
-19.1588
-28.0112
-45.6108
-84.2166
)
;
    }
    low
    {
        type            calculated;
        value           nonuniform List<scalar> 
84
(
-0.36277
-1.07767
-1.94862
-2.87486
-3.73126
-4.40282
-4.82373
-4.99598
-4.95438
-4.75215
-4.54835
-4.30688
-4.00672
-3.75286
-3.52572
-3.29849
-3.0933
-2.92354
-2.75172
-2.56637
-2.41151
-2.27912
-2.15639
-2.04976
-1.9519
-1.89538
-1.90586
-1.99318
-2.14257
-2.35545
-2.62207
-2.91095
-3.25241
-3.66167
-4.12333
-4.66361
-5.28202
-5.861
-6.35023
-6.75324
-7.05056
-7.24509
-7.24512
-7.0506
-6.7533
-6.35032
-5.8611
-5.28212
-4.66373
-4.12333
-3.66175
-3.25241
-2.91097
-2.62208
-2.35547
-2.14258
-1.99321
-1.90589
-1.89542
-1.95196
-2.04986
-2.15643
-2.27918
-2.41156
-2.56641
-2.75176
-2.92357
-3.09332
-3.2985
-3.52572
-3.75286
-4.00673
-4.30688
-4.54835
-4.75216
-4.95439
-4.99599
-4.82375
-4.40284
-3.73127
-2.87487
-1.94862
-1.07767
-0.362766
)
;
    }
    left
    {
        type            calculated;
        value           nonuniform List<scalar> 
19
(
-0.332266
-0.621852
-0.87787
-1.14023
-1.41113
-1.72273
-2.06644
-2.48314
-2.99226
-3.61402
-4.46269
-5.54826
-7.04711
-9.18552
-12.4972
-17.7063
-27.0755
-44.531
-87.3545
)
;
    }
    right
    {
        type            calculated;
        value           nonuniform List<scalar> 
19
(
-0.332263
-0.621849
-0.877868
-1.14023
-1.41113
-1.72273
-2.06644
-2.48314
-2.99226
-3.61402
-4.46269
-5.54827
-7.04711
-9.18552
-12.4972
-17.7063
-27.0755
-44.531
-87.3545
)
;
    }
    frontAndBackPlanes
    {
        type            empty;
    }
}


// ************************************************************************* //
