/*--------------------------------*- C++ -*----------------------------------*\
  =========                 |
  \\      /  F ield         | OpenFOAM: The Open Source CFD Toolbox
   \\    /   O peration     | Website:  https://openfoam.org
    \\  /    A nd           | Version:  7
     \\/     M anipulation  |
\*---------------------------------------------------------------------------*/
FoamFile
{
    version     2.0;
    format      ascii;
    class       volScalarField;
    location    "0.342";
    object      T;
}
// * * * * * * * * * * * * * * * * * * * * * * * * * * * * * * * * * * * * * //

dimensions      [0 0 0 1 0 0 0];

internalField   nonuniform List<scalar> 
1596
(
2.99325
2.97382
2.95377
2.93445
2.91614
2.89853
2.8812
2.8633
2.84422
2.82256
2.79721
2.76673
2.72765
2.67503
2.60106
2.48807
2.303
1.97971
1.38572
2.97076
2.91021
2.85253
2.79856
2.74796
2.69971
2.65264
2.60496
2.55517
2.50073
2.43949
2.36893
2.28408
2.17872
2.04489
1.86713
1.62116
1.26501
0.719115
2.94412
2.84218
2.74961
2.66483
2.58628
2.51212
2.44053
2.36921
2.29617
2.21844
2.1336
2.03889
1.92955
1.79998
1.64394
1.45011
1.2026
0.876596
0.425612
2.91775
2.77699
2.65291
2.54112
2.43863
2.34285
2.25145
2.1618
2.0717
1.97811
1.8786
1.77057
1.64981
1.51176
1.35181
1.16202
0.932281
0.648203
0.282761
2.89579
2.72138
2.56975
2.43449
2.3115
2.19761
2.09012
1.98625
1.88366
1.77937
1.67108
1.55635
1.43156
1.29299
1.13723
0.958637
0.750682
0.504975
0.205555
2.88095
2.68001
2.50517
2.34965
2.20894
2.07957
1.95863
1.84329
1.73118
1.61938
1.50571
1.38791
1.26275
1.12714
0.978431
0.812447
0.624792
0.410456
0.159713
2.87367
2.65423
2.46081
2.28804
2.13182
1.98881
1.85613
1.73097
1.61098
1.49337
1.37602
1.25677
1.13271
1.00112
0.859813
0.70552
0.535102
0.345442
0.130354
2.8724
2.64225
2.43499
2.24791
2.07811
1.92284
1.77947
1.64539
1.51833
1.39561
1.2752
1.15501
1.03232
0.904624
0.770024
0.625777
0.469476
0.299065
0.110391
2.87563
2.64148
2.42489
2.22633
2.04471
1.87827
1.72491
1.58233
1.44847
1.3208
1.19736
1.07612
0.954472
0.830058
0.7011
0.565171
0.420277
0.264942
0.0961895
2.88009
2.64641
2.42445
2.2173
2.02578
1.84937
1.68674
1.53606
1.39558
1.26296
1.13636
1.01382
0.892795
0.771008
0.646723
0.517684
0.382117
0.238846
0.0855987
2.88378
2.65254
2.42809
2.21497
2.01555
1.83055
1.65954
1.5013
1.35448
1.217
1.08719
0.963147
0.842403
0.722723
0.602369
0.479161
0.351423
0.21811
0.0773525
2.8884
2.66092
2.43572
2.21841
2.01258
1.8201
1.64143
1.47604
1.32305
1.1807
1.04753
0.921721
0.800883
0.682801
0.565702
0.447422
0.326299
0.201306
0.0707805
2.89287
2.66987
2.4451
2.22494
2.01396
1.81499
1.62937
1.45728
1.29835
1.15121
1.01461
0.886875
0.765686
0.648837
0.534503
0.420494
0.305104
0.187252
0.0653683
2.8958
2.67679
2.45306
2.23109
2.01607
1.81162
1.61988
1.4417
1.27724
1.12555
0.985658
0.856027
0.734423
0.618652
0.506832
0.396711
0.286509
0.175038
0.0607374
2.89836
2.68265
2.45997
2.23669
2.01833
1.80913
1.61189
1.4281
1.25848
1.10248
0.959424
0.827946
0.705907
0.59113
0.481662
0.375176
0.269782
0.16415
0.0566702
2.90087
2.68807
2.46627
2.24182
2.0205
1.80699
1.60469
1.41567
1.24115
1.08104
0.934929
0.801661
0.679196
0.565375
0.458176
0.355174
0.254346
0.154191
0.0530037
2.90273
2.69233
2.4712
2.24562
2.02157
1.80409
1.5971
1.40318
1.22406
1.06004
0.911042
0.776093
0.653278
0.54046
0.435548
0.336008
0.239657
0.144799
0.0495955
2.90416
2.69562
2.4749
2.24814
2.02145
1.80021
1.58877
1.3902
1.20668
1.03892
0.887149
0.750609
0.627513
0.51576
0.413196
0.317169
0.225317
0.135713
0.046344
2.90645
2.69997
2.47953
2.25144
2.022
1.79693
1.58098
1.37771
1.18974
1.01817
0.86354
0.725313
0.601846
0.491094
0.390858
0.298373
0.211076
0.126763
0.0431874
2.90912
2.70517
2.48511
2.25562
2.02332
1.7943
1.57374
1.36565
1.17309
0.997556
0.839895
0.699803
0.5758
0.465918
0.367952
0.279051
0.196458
0.117643
0.040026
2.91117
2.7097
2.49012
2.2593
2.02417
1.7912
1.56602
1.35308
1.15585
0.976248
0.815415
0.67329
0.548571
0.4394
0.343613
0.258348
0.180713
0.10785
0.0366992
2.91316
2.71404
2.49494
2.2628
2.02482
1.78787
1.55799
1.34008
1.13804
0.954158
0.789897
0.645446
0.519694
0.410917
0.317045
0.235303
0.162831
0.0965819
0.032928
2.91536
2.71859
2.49992
2.26639
2.02549
1.78445
1.54974
1.32669
1.11959
0.931106
0.763036
0.615825
0.48857
0.379688
0.287229
0.208592
0.141181
0.0822062
0.0279284
2.91762
2.72311
2.50468
2.26958
2.02561
1.78035
1.54067
1.31229
1.09986
0.906412
0.734076
0.583576
0.454241
0.344624
0.252866
0.176518
0.11338
0.0614699
0.0185963
2.92107
2.73186
2.51742
2.28498
2.04228
1.79696
1.55594
1.32509
1.10926
0.91177
0.735123
0.580477
0.447542
0.335164
0.241662
0.164641
0.102017
0.0522019
0.0139672
2.92481
2.7428
2.53532
2.30929
2.07211
1.83102
1.59271
1.36285
1.14627
0.946445
0.766159
0.607067
0.469436
0.352627
0.255284
0.175096
0.109784
0.0574023
0.016177
2.92658
2.7489
2.54634
2.32546
2.09325
1.85655
1.62161
1.3938
1.17773
0.976813
0.793954
0.631177
0.489277
0.3682
0.26706
0.183745
0.115893
0.0612889
0.0177471
2.92639
2.74997
2.55009
2.33293
2.10505
1.87274
1.64177
1.41703
1.20273
1.00204
0.817816
0.65228
0.506676
0.381576
0.276723
0.190374
0.120218
0.063838
0.0187146
2.92487
2.74734
2.5484
2.33389
2.10985
1.88203
1.65556
1.43476
1.22333
1.02406
0.839587
0.672138
0.523279
0.394197
0.285424
0.195831
0.12336
0.0654633
0.0192759
2.92211
2.74185
2.54281
2.33039
2.11007
1.88696
1.66554
1.44947
1.24191
1.04514
0.861459
0.692922
0.541208
0.40801
0.294739
0.2012
0.125953
0.0664966
0.0195582
2.91859
2.73495
2.53546
2.32504
2.10858
1.89051
1.67465
1.46401
1.26117
1.0679
0.886036
0.717318
0.563269
0.425813
0.307156
0.208298
0.128998
0.0673302
0.0196659
2.91559
2.72882
2.52902
2.32077
2.10841
1.89572
1.68586
1.48123
1.28385
1.09499
0.916055
0.748317
0.592884
0.451483
0.326674
0.220561
0.134656
0.0687181
0.0196329
2.91259
2.72286
2.52309
2.31744
2.10967
1.90291
1.69967
1.50178
1.31078
1.12752
0.952985
0.788029
0.633181
0.489533
0.359239
0.244656
0.148727
0.0738254
0.0195522
2.90952
2.7172
2.51803
2.31564
2.11314
1.91301
1.71712
1.5268
1.34319
1.16683
0.998429
0.838555
0.687278
0.544966
0.412783
0.292088
0.185394
0.0962563
0.026866
2.90592
2.7101
2.51052
2.31028
2.11184
1.91707
1.72731
1.54345
1.36632
1.19624
1.03379
0.87943
0.733091
0.594814
0.465016
0.34372
0.231475
0.129959
0.0406233
2.90023
2.69707
2.49327
2.29129
2.09292
1.89947
1.71182
1.53052
1.35612
1.18875
1.0289
0.876957
0.732869
0.596728
0.469019
0.349677
0.238893
0.137328
0.0447417
2.89299
2.68012
2.47001
2.26418
2.06372
1.86939
1.68169
1.50081
1.32712
1.16057
1.00155
0.85048
0.70732
0.572296
0.446137
0.329094
0.221801
0.125402
0.0399923
2.88665
2.6654
2.4499
2.24081
2.03861
1.84361
1.65594
1.47558
1.30269
1.1371
0.979206
0.829397
0.687685
0.554373
0.430303
0.315809
0.211601
0.118855
0.0376454
2.88185
2.65394
2.43405
2.22226
2.0186
1.82301
1.63537
1.45544
1.28327
1.11859
0.96176
0.81318
0.672865
0.541145
0.418901
0.306485
0.204618
0.114484
0.0361408
2.87809
2.64501
2.42173
2.20787
2.00309
1.80709
1.6195
1.43995
1.2684
1.1045
0.94859
0.801051
0.661896
0.531462
0.410644
0.299798
0.199651
0.111399
0.0350939
2.87535
2.63853
2.41285
2.19757
1.99207
1.79582
1.60833
1.4291
1.25803
1.09473
0.939497
0.792723
0.654402
0.524873
0.405039
0.29526
0.196272
0.109291
0.0343753
2.8733
2.63421
2.40727
2.19134
1.98558
1.78932
1.60198
1.42303
1.2523
1.0894
0.934607
0.788305
0.650485
0.521481
0.4022
0.292999
0.194616
0.108275
0.0340384
2.87331
2.63422
2.40728
2.19136
1.98559
1.78933
1.602
1.42304
1.25232
1.08941
0.93462
0.788317
0.650496
0.52149
0.402208
0.293005
0.19462
0.108277
0.0340392
2.87537
2.63856
2.41289
2.19762
1.99212
1.79587
1.60838
1.42915
1.25808
1.09477
0.939539
0.792761
0.654437
0.524903
0.405064
0.29528
0.196286
0.1093
0.0343785
2.87811
2.64505
2.42179
2.20794
2.00317
1.80716
1.61958
1.44003
1.26847
1.10457
0.948655
0.80111
0.661949
0.531507
0.410681
0.299827
0.199672
0.111411
0.0350981
2.88187
2.654
2.43413
2.22236
2.0187
1.82312
1.63548
1.45554
1.28336
1.11868
0.961844
0.813255
0.67293
0.5412
0.418946
0.30652
0.204643
0.114499
0.0361455
2.88668
2.66547
2.45
2.24092
2.03873
1.84374
1.65607
1.4757
1.30281
1.13721
0.979305
0.829485
0.687761
0.554436
0.430353
0.315847
0.211627
0.118869
0.0376498
2.89302
2.68019
2.47012
2.2643
2.06386
1.86954
1.68183
1.50096
1.32726
1.16069
1.00166
0.850575
0.707398
0.572357
0.446182
0.329123
0.221817
0.125409
0.0399929
2.90027
2.69715
2.49339
2.29143
2.09308
1.89963
1.71198
1.53068
1.35627
1.18888
1.02901
0.877046
0.732934
0.596766
0.469032
0.349667
0.238866
0.137299
0.0447267
2.90596
2.71022
2.51071
2.31053
2.11215
1.91742
1.72769
1.54386
1.36675
1.19668
1.03424
0.879892
0.733557
0.595282
0.465482
0.344173
0.231888
0.130279
0.0407649
2.90956
2.71734
2.51825
2.31595
2.11352
1.91345
1.71762
1.52735
1.34378
1.16744
0.999066
0.839209
0.687939
0.54562
0.413411
0.292656
0.185856
0.0965628
0.0269784
2.91263
2.72298
2.52329
2.31771
2.11
1.9033
1.7001
1.50225
1.31128
1.12804
0.953517
0.788562
0.6337
0.49002
0.359668
0.244999
0.148958
0.0739406
0.019574
2.91563
2.72892
2.5292
2.32102
2.10871
1.89608
1.68627
1.48167
1.28431
1.09547
0.916535
0.748785
0.593324
0.451874
0.326996
0.220797
0.134803
0.0687896
0.0196515
2.91862
2.73504
2.53563
2.32527
2.10887
1.89085
1.67503
1.46442
1.2616
1.06834
0.886468
0.717729
0.563643
0.426134
0.307408
0.208478
0.129109
0.0673877
0.0196826
2.92213
2.74194
2.54295
2.3306
2.11034
1.88728
1.66589
1.44985
1.2423
1.04554
0.861847
0.693285
0.54153
0.408279
0.294947
0.201348
0.126047
0.0665475
0.0195737
2.92489
2.74742
2.54853
2.33408
2.11009
1.88232
1.65588
1.4351
1.22369
1.02443
0.839935
0.672458
0.523559
0.394429
0.285603
0.19596
0.123445
0.0655105
0.019291
2.92641
2.75004
2.55021
2.3331
2.10526
1.873
1.64207
1.41735
1.20306
1.00236
0.818127
0.652564
0.506923
0.381779
0.276882
0.19049
0.120296
0.0638837
0.0187301
2.92659
2.74895
2.54644
2.32561
2.09345
1.85678
1.62188
1.39409
1.17803
0.977105
0.794232
0.631429
0.489497
0.368382
0.267204
0.183853
0.115969
0.0613356
0.0177642
2.92482
2.74284
2.53541
2.30943
2.07228
1.83123
1.59294
1.3631
1.14654
0.946706
0.766406
0.607292
0.469634
0.352793
0.255419
0.175202
0.109862
0.0574531
0.0161975
2.92107
2.73187
2.51744
2.28501
2.04232
1.79701
1.556
1.32515
1.10932
0.911828
0.735174
0.580516
0.447569
0.335179
0.241666
0.164636
0.102007
0.052191
0.0139614
2.91761
2.72309
2.50465
2.26955
2.02556
1.7803
1.54062
1.31223
1.09979
0.906346
0.73401
0.583511
0.454178
0.344565
0.252811
0.17647
0.11334
0.0614417
0.0185839
2.91536
2.71859
2.49991
2.26638
2.02547
1.78443
1.54973
1.32668
1.11958
0.931098
0.76303
0.615822
0.48857
0.37969
0.287232
0.208596
0.141185
0.0822099
0.0279297
2.91316
2.71403
2.49494
2.26279
2.02481
1.78786
1.55798
1.34007
1.13804
0.954153
0.789894
0.645445
0.519695
0.410919
0.317048
0.235306
0.162834
0.0965838
0.0329286
2.91117
2.7097
2.49012
2.25929
2.02416
1.79119
1.56601
1.35307
1.15585
0.976245
0.815414
0.67329
0.548572
0.439402
0.343616
0.25835
0.180715
0.107851
0.0366996
2.90912
2.70516
2.4851
2.25561
2.02331
1.79429
1.57374
1.36565
1.17309
0.997555
0.839895
0.699804
0.575801
0.46592
0.367954
0.279053
0.196459
0.117644
0.0400263
2.90645
2.69997
2.47953
2.25144
2.022
1.79693
1.58098
1.37771
1.18974
1.01817
0.863541
0.725314
0.601848
0.491095
0.39086
0.298374
0.211077
0.126764
0.0431876
2.90416
2.69562
2.47489
2.24814
2.02145
1.80021
1.58877
1.3902
1.20667
1.03892
0.887149
0.75061
0.627514
0.515761
0.413197
0.31717
0.225318
0.135713
0.0463441
2.90273
2.69233
2.4712
2.24562
2.02156
1.80409
1.5971
1.40318
1.22406
1.06004
0.911043
0.776094
0.653279
0.540461
0.435549
0.336008
0.239657
0.144799
0.0495955
2.90087
2.68807
2.46627
2.24182
2.0205
1.80699
1.60469
1.41567
1.24115
1.08104
0.93493
0.801661
0.679197
0.565376
0.458176
0.355175
0.254346
0.154192
0.0530037
2.89836
2.68265
2.45997
2.23669
2.01833
1.80913
1.61189
1.4281
1.25848
1.10248
0.959424
0.827946
0.705907
0.59113
0.481662
0.375176
0.269782
0.16415
0.0566703
2.8958
2.67679
2.45306
2.23109
2.01607
1.81162
1.61988
1.4417
1.27724
1.12555
0.985658
0.856027
0.734422
0.618652
0.506832
0.396711
0.286509
0.175038
0.0607375
2.89287
2.66987
2.4451
2.22494
2.01396
1.81499
1.62937
1.45728
1.29835
1.15121
1.01461
0.886875
0.765686
0.648837
0.534503
0.420493
0.305104
0.187252
0.0653684
2.8884
2.66092
2.43572
2.21841
2.01258
1.8201
1.64143
1.47604
1.32305
1.1807
1.04753
0.921721
0.800883
0.682801
0.565701
0.447422
0.326299
0.201306
0.0707806
2.88378
2.65254
2.42809
2.21497
2.01555
1.83055
1.65954
1.5013
1.35448
1.217
1.08719
0.963146
0.842402
0.722723
0.602368
0.479161
0.351423
0.218111
0.0773527
2.88009
2.64642
2.42445
2.2173
2.02578
1.84937
1.68673
1.53606
1.39558
1.26296
1.13636
1.01382
0.892794
0.771007
0.646722
0.517684
0.382117
0.238847
0.0855989
2.87563
2.64148
2.42489
2.22633
2.04471
1.87827
1.72491
1.58233
1.44847
1.32079
1.19735
1.07612
0.95447
0.830058
0.7011
0.565171
0.420277
0.264942
0.0961897
2.8724
2.64225
2.43499
2.24791
2.0781
1.92283
1.77947
1.64538
1.51833
1.39561
1.2752
1.15501
1.03232
0.904623
0.770023
0.625777
0.469476
0.299065
0.110391
2.87367
2.65423
2.46081
2.28804
2.13181
1.98881
1.85613
1.73097
1.61098
1.49336
1.37601
1.25677
1.13271
1.00111
0.859812
0.70552
0.535102
0.345442
0.130354
2.88095
2.68001
2.50517
2.34965
2.20894
2.07956
1.95863
1.84329
1.73117
1.61938
1.50571
1.3879
1.26275
1.12714
0.97843
0.812447
0.624792
0.410456
0.159713
2.89579
2.72138
2.56975
2.43449
2.3115
2.19761
2.09012
1.98625
1.88366
1.77937
1.67108
1.55635
1.43156
1.29299
1.13723
0.958637
0.750682
0.504975
0.205555
2.91775
2.77699
2.65291
2.54112
2.43863
2.34285
2.25144
2.1618
2.0717
1.97811
1.8786
1.77056
1.6498
1.51175
1.35181
1.16202
0.932281
0.648203
0.282761
2.94412
2.84218
2.74961
2.66483
2.58628
2.51212
2.44053
2.36921
2.29617
2.21844
2.1336
2.03889
1.92955
1.79998
1.64394
1.45011
1.2026
0.876595
0.425611
2.97076
2.91021
2.85253
2.79855
2.74796
2.69971
2.65264
2.60496
2.55517
2.50073
2.43949
2.36893
2.28408
2.17872
2.04489
1.86713
1.62116
1.26501
0.719115
2.99325
2.97382
2.95377
2.93445
2.91614
2.89853
2.8812
2.8633
2.84422
2.82256
2.79721
2.76673
2.72765
2.67503
2.60106
2.48807
2.303
1.97971
1.38572
)
;

boundaryField
{
    up
    {
        type            fixedValue;
        value           uniform 0;
    }
    low
    {
        type            fixedValue;
        value           uniform 3;
    }
    left
    {
        type            fixedValue;
        value           uniform 3;
    }
    right
    {
        type            fixedValue;
        value           uniform 3;
    }
    frontAndBackPlanes
    {
        type            empty;
    }
}


// ************************************************************************* //
