/*--------------------------------*- C++ -*----------------------------------*\
  =========                 |
  \\      /  F ield         | OpenFOAM: The Open Source CFD Toolbox
   \\    /   O peration     | Website:  https://openfoam.org
    \\  /    A nd           | Version:  7
     \\/     M anipulation  |
\*---------------------------------------------------------------------------*/
FoamFile
{
    version     2.0;
    format      ascii;
    class       volScalarField;
    location    "0.04";
    object      gradTx;
}
// * * * * * * * * * * * * * * * * * * * * * * * * * * * * * * * * * * * * * //

dimensions      [0 -1 0 1 0 0 0];

internalField   nonuniform List<scalar> 
1596
(
-0.522859
-2.60509
-4.49032
-5.91312
-6.86113
-7.39777
-7.66449
-7.75721
-7.74737
-7.69892
-7.60321
-7.49869
-7.426
-7.46273
-7.71743
-8.4375
-9.95609
-12.896
-18.4534
0.19375
-1.94457
-3.72823
-5.05237
-5.94527
-6.46718
-6.73912
-6.84107
-6.84443
-6.79885
-6.70694
-6.59295
-6.45058
-6.28461
-6.09102
-5.88713
-5.64385
-5.26975
-4.48342
0.796948
-1.17495
-2.72873
-3.87094
-4.64953
-5.11928
-5.3744
-5.48096
-5.50085
-5.47491
-5.41329
-5.33324
-5.21919
-5.05396
-4.80678
-4.44958
-3.93502
-3.20314
-2.10578
0.950835
-0.567883
-1.76183
-2.65388
-3.27744
-3.66999
-3.89418
-3.99969
-4.03469
-4.03133
-4.00453
-3.96752
-3.90831
-3.80716
-3.62984
-3.33197
-2.85892
-2.16039
-1.15398
0.574962
-0.308411
-1.0627
-1.66255
-2.10529
-2.40194
-2.58265
-2.67802
-2.72049
-2.73289
-2.73109
-2.72543
-2.71019
-2.67084
-2.58037
-2.39446
-2.05911
-1.52211
-0.722535
-0.198861
-0.440128
-0.743095
-1.03624
-1.28321
-1.46811
-1.59213
-1.66564
-1.70485
-1.72278
-1.73249
-1.74148
-1.74874
-1.74614
-1.71663
-1.62473
-1.4244
-1.06336
-0.484547
-1.15227
-0.882412
-0.782907
-0.780827
-0.827179
-0.887907
-0.942399
-0.982104
-1.00768
-1.02207
-1.03283
-1.04422
-1.05718
-1.06824
-1.06867
-1.03436
-0.931257
-0.713443
-0.3269
-2.08135
-1.47766
-1.06527
-0.806148
-0.662498
-0.595617
-0.572536
-0.569654
-0.57399
-0.578836
-0.584871
-0.592722
-0.603063
-0.614687
-0.624062
-0.616974
-0.57136
-0.452191
-0.213248
-2.99661
-2.21791
-1.57111
-1.08183
-0.746481
-0.537817
-0.420704
-0.361138
-0.334083
-0.322856
-0.320111
-0.321965
-0.327084
-0.334493
-0.342969
-0.345063
-0.328147
-0.268754
-0.13182
-3.5388
-2.75339
-2.00405
-1.37512
-0.903061
-0.581917
-0.383725
-0.271625
-0.213535
-0.185497
-0.173514
-0.169618
-0.170074
-0.173138
-0.17809
-0.181279
-0.176244
-0.149076
-0.0763378
-3.99528
-3.22977
-2.42916
-1.70268
-1.1197
-0.698499
-0.423027
-0.258005
-0.167162
-0.120668
-0.0986489
-0.0891567
-0.0858549
-0.0857156
-0.0875874
-0.0895368
-0.0885019
-0.0770709
-0.0412224
-4.4871
-3.74639
-2.90547
-2.09174
-1.40166
-0.878392
-0.520392
-0.296699
-0.168382
-0.100136
-0.0663097
-0.0506456
-0.0439168
-0.0414594
-0.0412468
-0.041818
-0.0416574
-0.037137
-0.0206902
-4.69137
-4.03368
-3.21029
-2.36596
-1.61736
-1.0284
-0.611839
-0.343611
-0.185324
-0.0988968
-0.0549247
-0.0339477
-0.0244681
-0.0204408
-0.0190163
-0.0186891
-0.0184984
-0.0167266
-0.00965385
-4.82829
-4.24371
-3.4464
-2.58678
-1.7969
-1.15809
-0.695288
-0.390996
-0.207934
-0.106181
-0.0535536
-0.0280325
-0.0162835
-0.0111143
-0.00898583
-0.0081759
-0.00783583
-0.00708297
-0.00419882
-4.95025
-4.42123
-3.64325
-2.77003
-1.94567
-1.2659
-0.765544
-0.432212
-0.229338
-0.115376
-0.0558924
-0.0267924
-0.0132912
-0.00729785
-0.00474789
-0.00369561
-0.0032553
-0.002858
-0.00171217
-4.98356
-4.51672
-3.76281
-2.88511
-2.0395
-1.33348
-0.809165
-0.457663
-0.242661
-0.121377
-0.0578717
-0.0267128
-0.0122269
-0.00579005
-0.00303783
-0.00188735
-0.00140759
-0.00113459
-0.00066488
-4.90948
-4.50839
-3.78638
-2.91615
-2.06527
-1.35055
-0.818622
-0.462054
-0.244214
-0.121529
-0.0574372
-0.0260567
-0.011504
-0.0050576
-0.00230987
-0.00116504
-0.000692496
-0.000472311
-0.000254732
-4.79139
-4.43456
-3.74033
-2.88157
-2.03515
-1.32455
-0.798054
-0.447428
-0.234784
-0.115917
-0.0542913
-0.0243344
-0.0105393
-0.00447153
-0.001904
-0.000843032
-0.000410541
-0.000225253
-0.000103104
-4.71943
-4.39697
-3.71175
-2.84796
-1.99586
-1.28582
-0.765783
-0.424085
-0.219751
-0.107116
-0.0495217
-0.0218906
-0.00932713
-0.00386888
-0.00158733
-0.00065639
-0.000282579
-0.000129036
-4.81597e-05
-4.43741
-4.19142
-3.55095
-2.71416
-1.88483
-1.19912
-0.703796
-0.383722
-0.195693
-0.0938812
-0.0427269
-0.0185937
-0.00779551
-0.0031756
-0.00127287
-0.000507672
-0.000205148
-8.40639e-05
-2.67742e-05
-4.06108
-3.89073
-3.30913
-2.51729
-1.72876
-1.08303
-0.624375
-0.333956
-0.167015
-0.0785813
-0.0350925
-0.0149925
-0.00617308
-0.00246916
-0.000970397
-0.000377744
-0.000147388
-5.71167e-05
-1.6675e-05
-3.60649
-3.49996
-2.98786
-2.26125
-1.53436
-0.945175
-0.534187
-0.279644
-0.136798
-0.062961
-0.0275184
-0.0115145
-0.00464668
-0.00182263
-0.000702507
-0.000267891
-0.000102067
-3.83785e-05
-1.07655e-05
-3.02064
-2.96693
-2.54514
-1.92007
-1.2901
-0.783065
-0.434655
-0.223021
-0.10683
-0.0481329
-0.0206002
-0.00844565
-0.00334191
-0.00128634
-0.000486894
-0.000182453
-6.84198e-05
-2.54958e-05
-7.27916e-06
-2.26894
-2.17026
-1.81162
-1.32897
-0.868449
-0.512999
-0.277333
-0.138631
-0.0646738
-0.0283474
-0.0117806
-0.00467732
-0.00178614
-0.000660637
-0.000239068
-8.527e-05
-3.06205e-05
-1.1462e-05
-3.80484e-06
-1.52724
-1.58877
-1.4358
-1.12816
-0.78153
-0.485316
-0.274364
-0.143055
-0.0696409
-0.0319564
-0.0139594
-0.00586452
-0.00238621
-0.000947747
-0.000370654
-0.000144253
-5.71506e-05
-2.48466e-05
-1.34999e-05
-0.503216
-0.51703
-0.489161
-0.416219
-0.31706
-0.217507
-0.135684
-0.0777272
-0.0413551
-0.0206296
-0.00974146
-0.00440585
-0.00192263
-0.000816503
-0.000340068
-0.000140105
-5.83534e-05
-2.70014e-05
-1.67623e-05
0.542276
0.51496
0.397908
0.246888
0.118361
0.0367701
-0.0020673
-0.0139655
-0.0135233
-0.00949112
-0.00565598
-0.00305251
-0.00153612
-0.000736879
-0.000341471
-0.000154088
-6.87043e-05
-3.33399e-05
-2.1604e-05
1.5544
1.49944
1.2526
0.906077
0.571467
0.316266
0.153953
0.0654438
0.023593
0.00650644
0.000725637
-0.000707914
-0.000759265
-0.000521413
-0.000305017
-0.000162623
-8.01235e-05
-4.00311e-05
-2.59306e-05
2.40477
2.30202
1.95251
1.46544
0.978512
0.58551
0.316285
0.155052
0.0691593
0.0279542
0.0101265
0.00313047
0.000686812
-3.95178e-05
-0.000181525
-0.000154985
-9.39149e-05
-4.79214e-05
-2.75956e-05
3.19385
3.01388
2.56447
1.9632
1.35688
0.851609
0.48876
0.258118
0.126191
0.0573194
0.0243022
0.00957405
0.00344057
0.00104204
0.00018133
-7.96147e-05
-0.000103542
-5.96995e-05
-2.23788e-05
3.68285
3.43657
2.93471
2.2867
1.62928
1.06614
0.64459
0.362224
0.190467
0.0942414
0.0442421
0.0197828
0.00842047
0.00333423
0.0011385
0.000228819
-6.26471e-05
-8.02158e-05
-8.02365e-06
4.05998
3.76206
3.22172
2.547
1.86239
1.26391
0.800228
0.475252
0.266556
0.142089
0.0726835
0.0359402
0.0172752
0.00801293
0.00347869
0.00123575
0.000235177
-7.85715e-05
-2.38553e-05
4.33825
3.98072
3.41284
2.73202
2.04513
1.43548
0.948929
0.593662
0.353811
0.2022
0.111942
0.0605857
0.0323374
0.0170359
0.00876732
0.00411409
0.00155941
0.000314651
7.54595e-05
4.41721
3.98832
3.3964
2.72525
2.06143
1.47172
0.994224
0.637233
0.389061
0.227084
0.12747
0.0691284
0.0363006
0.0182603
0.00841933
0.00271775
-0.000736832
-0.00289409
-0.00387727
4.37461
3.93019
3.36913
2.75431
2.14757
1.59817
1.13731
0.775664
0.508814
0.322186
0.198007
0.118792
0.0698922
0.0404042
0.0228335
0.0120456
0.0049905
-0.000241651
-0.00457323
4.29187
3.84314
3.31262
2.74335
2.18153
1.66668
1.22549
0.869131
0.596627
0.397852
0.259016
0.165621
0.10449
0.0653155
0.0405386
0.0247463
0.0143908
0.00714692
0.00148555
3.89966
3.40783
2.88144
2.35012
1.84722
1.4
1.02483
0.726201
0.499883
0.33544
0.220515
0.14285
0.0915392
0.0581766
0.0366262
0.022498
0.0129042
0.00603294
0.000740214
3.31205
2.88383
2.43492
1.98834
1.56922
1.19763
0.885318
0.635228
0.443884
0.303078
0.203159
0.134436
0.088121
0.0573292
0.036941
0.0231998
0.0135809
0.00647525
0.000843666
2.68005
2.33232
1.9681
1.60817
1.27224
0.975241
0.725565
0.525004
0.370682
0.256196
0.174135
0.117013
0.0779726
0.0515911
0.0337933
0.0215328
0.0127411
0.00609161
0.000717225
1.97875
1.71703
1.44687
1.18265
0.937548
0.721421
0.539668
0.393261
0.28006
0.19551
0.134403
0.0914478
0.0617541
0.0414236
0.0275032
0.0177516
0.0106362
0.00517098
0.00070519
1.22992
1.05756
0.88694
0.723537
0.573562
0.441996
0.331557
0.242559
0.173603
0.121918
0.0843899
0.0578576
0.039388
0.0266352
0.0178149
0.0115598
0.00693219
0.00332932
0.000352686
0.467754
0.396688
0.329961
0.267538
0.210969
0.161774
0.120769
0.0879326
0.0626383
0.0437837
0.0301651
0.0205848
0.0139472
0.00938303
0.00623534
0.00400409
0.00234705
0.001045
-4.57533e-05
-0.467529
-0.396173
-0.329267
-0.266767
-0.2102
-0.161064
-0.120152
-0.08742
-0.0622288
-0.0434667
-0.0299256
-0.0204068
-0.0138167
-0.0092885
-0.00616785
-0.00395742
-0.00231709
-0.00102919
4.86784e-05
-1.2297
-1.05709
-0.886324
-0.722861
-0.572896
-0.441388
-0.331034
-0.242131
-0.173265
-0.12166
-0.0841974
-0.0577165
-0.0392859
-0.0265624
-0.0177638
-0.0115256
-0.00691136
-0.00331996
-0.000353805
-1.97852
-1.71657
-1.44627
-1.18199
-0.936912
-0.720848
-0.539182
-0.392869
-0.279756
-0.195281
-0.134236
-0.0913276
-0.0616687
-0.0413634
-0.0274612
-0.0177229
-0.0106173
-0.00515985
-0.000700424
-2.67986
-2.33196
-1.96766
-1.60771
-1.27182
-0.974882
-0.72528
-0.52479
-0.370528
-0.25609
-0.174064
-0.116967
-0.0779432
-0.0515727
-0.0337821
-0.0215264
-0.012738
-0.00609087
-0.000718167
-3.31189
-2.88355
-2.43459
-1.98803
-1.56896
-1.19743
-0.885186
-0.635151
-0.443846
-0.303066
-0.203162
-0.134446
-0.0881329
-0.0573406
-0.0369508
-0.0232077
-0.0135867
-0.0064789
-0.000844714
-3.89958
-3.40766
-2.88126
-2.34998
-1.84714
-1.4
-1.02489
-0.726291
-0.499987
-0.335542
-0.220605
-0.142924
-0.0915966
-0.0582195
-0.0366573
-0.0225198
-0.0129185
-0.00604071
-0.000742153
-4.29175
-3.84265
-3.31183
-2.74238
-2.18054
-1.66577
-1.22472
-0.86853
-0.596188
-0.397547
-0.258813
-0.16549
-0.104408
-0.0652635
-0.0405042
-0.0247215
-0.0143706
-0.00712999
-0.00147509
-4.37522
-3.93191
-3.37191
-2.75787
-2.1515
-1.60208
-1.14088
-0.778682
-0.511215
-0.323997
-0.199312
-0.1197
-0.0705084
-0.0408161
-0.023109
-0.0122347
-0.00512634
0.000141187
0.00450757
-4.41683
-3.98751
-3.39542
-2.7243
-2.06064
-1.47112
-0.993783
-0.636901
-0.388799
-0.226869
-0.127291
-0.06898
-0.03618
-0.0181641
-0.008343
-0.00265593
0.000791509
0.00295368
0.00396313
-4.33845
-3.9813
-3.41383
-2.73336
-2.04665
-1.43698
-0.950254
-0.594721
-0.354595
-0.202743
-0.112302
-0.0608171
-0.0324844
-0.0171297
-0.00882786
-0.00415197
-0.00158002
-0.000323951
-8.25792e-05
-4.06009
-3.76244
-3.22247
-2.54807
-1.86363
-1.26511
-0.801258
-0.476042
-0.26711
-0.142451
-0.0729088
-0.0360761
-0.0173565
-0.0080619
-0.00350849
-0.00125256
-0.000241899
7.71706e-05
1.53974e-05
-3.68298
-3.43698
-2.93549
-2.28779
-1.63049
-1.06727
-0.645504
-0.362885
-0.190901
-0.0945067
-0.0443953
-0.0198683
-0.00846741
-0.00335997
-0.00115235
-0.000235231
6.12602e-05
8.10234e-05
4.08637e-06
-3.19399
-3.01433
-2.56529
-1.96429
-1.35803
-0.852629
-0.489539
-0.258646
-0.126515
-0.0575028
-0.0243998
-0.00962375
-0.00346509
-0.0010537
-0.000186301
7.83797e-05
0.000104255
6.07713e-05
2.10588e-05
-2.40491
-2.30248
-1.9533
-1.46644
-0.979516
-0.586346
-0.316885
-0.155432
-0.0693765
-0.0280679
-0.010182
-0.00315587
-0.000697678
3.54536e-05
0.000180653
0.00015559
9.49587e-05
4.87035e-05
2.72984e-05
-1.55459
-1.49996
-1.25341
-0.907011
-0.572326
-0.316927
-0.154391
-0.0656996
-0.0237272
-0.0065704
-0.000753527
0.000696949
0.000755652
0.000520813
0.000305576
0.000163509
8.08879e-05
4.04831e-05
2.59511e-05
-0.542455
-0.515476
-0.398652
-0.247666
-0.119009
-0.0372216
0.00179669
0.0138233
0.0134571
0.00946406
0.00564659
0.00305023
0.00153632
0.00073774
0.000342371
0.000154804
6.91641e-05
3.35817e-05
2.16932e-05
0.502779
0.515874
0.48768
0.414849
0.316045
0.216872
0.135339
0.0775608
0.0412836
0.0206025
0.00973268
0.00440385
0.00192275
0.000817077
0.000340594
0.000140462
5.85471e-05
2.70958e-05
1.68287e-05
1.52745
1.58951
1.43687
1.12926
0.782422
0.485933
0.274742
0.143265
0.0697501
0.0320104
0.0139853
0.00587672
0.00239189
0.000950381
0.000371866
0.000144802
5.7394e-05
2.49638e-05
1.35673e-05
2.26858
2.16919
1.81021
1.32761
0.867394
0.512296
0.276917
0.138408
0.0645634
0.0282965
0.0117583
0.00466799
0.00178235
0.000659125
0.000238459
8.50151e-05
3.05067e-05
1.1413e-05
3.79276e-06
3.02077
2.96718
2.54544
1.92034
1.29031
0.783194
0.434727
0.223059
0.106848
0.048141
0.0206036
0.00844702
0.00334243
0.00128652
0.000486949
0.000182464
6.84188e-05
2.54945e-05
7.27984e-06
3.60648
3.49994
2.98784
2.26124
1.53435
0.945169
0.534185
0.279643
0.136799
0.0629615
0.0275188
0.0115147
0.00464683
0.0018227
0.00070254
0.000267903
0.000102072
3.83806e-05
1.07655e-05
4.06107
3.89072
3.30912
2.51728
1.72875
1.08302
0.624374
0.333955
0.167015
0.0785814
0.0350927
0.0149927
0.00617323
0.00246925
0.000970443
0.000377763
0.000147395
5.71214e-05
1.66744e-05
4.43739
4.19141
3.55094
2.71416
1.88483
1.19911
0.703794
0.383721
0.195693
0.0938813
0.0427272
0.018594
0.00779572
0.00317574
0.00127294
0.0005077
0.000205158
8.40751e-05
2.67739e-05
4.71942
4.39697
3.71176
2.84796
1.99586
1.28582
0.765782
0.424084
0.21975
0.107116
0.0495221
0.0218909
0.00932743
0.00386907
0.00158742
0.000656406
0.000282584
0.000129065
4.81616e-05
4.79139
4.43456
3.74033
2.88158
2.03516
1.32455
0.798053
0.447428
0.234784
0.115917
0.0542918
0.0243349
0.0105397
0.00447172
0.00190403
0.000842987
0.000410537
0.000225346
0.000103117
4.90947
4.50839
3.78638
2.91615
2.06527
1.35055
0.818622
0.462054
0.244215
0.12153
0.057438
0.0260574
0.0115044
0.00505771
0.00230975
0.00116486
0.000692536
0.000472613
0.000254784
4.98356
4.51673
3.76282
2.88512
2.03951
1.33348
0.809167
0.457664
0.242662
0.121378
0.0578727
0.0267135
0.0122272
0.00578985
0.00303737
0.00188702
0.00140792
0.00113546
0.000665017
4.95024
4.42123
3.64326
2.77004
1.94568
1.26591
0.765546
0.432214
0.22934
0.115378
0.0558932
0.0267927
0.0132909
0.00729705
0.00474699
0.00369543
0.00325665
0.00286015
0.00171241
4.8283
4.24372
3.44641
2.58679
1.79691
1.15809
0.695293
0.391
0.207936
0.106182
0.0535542
0.0280322
0.0162824
0.0111128
0.00898487
0.00817691
0.00783963
0.00708731
0.00419896
4.69138
4.0337
3.21031
2.36597
1.61737
1.02841
0.611846
0.343617
0.185327
0.0988982
0.0549246
0.0339465
0.0244662
0.0204392
0.0190167
0.0186934
0.0185064
0.0167334
0.00965317
4.48709
3.74639
2.90548
2.09174
1.40167
0.878397
0.520396
0.296701
0.168382
0.100136
0.0663079
0.0506431
0.0439146
0.0414593
0.0412513
0.041828
0.0416701
0.0371442
0.0206873
3.9953
3.2298
2.42919
1.70271
1.11972
0.698512
0.423035
0.258008
0.167162
0.120666
0.0986462
0.0891542
0.0858546
0.0857202
0.0875989
0.0895529
0.0885152
0.0770726
0.0412158
3.53884
2.75343
2.00408
1.37514
0.903077
0.581927
0.38373
0.271626
0.213533
0.185494
0.173511
0.169618
0.170078
0.17315
0.178108
0.181295
0.176247
0.149064
0.0763282
2.99665
2.21794
1.57113
1.08185
0.74649
0.537821
0.420704
0.361134
0.334078
0.322851
0.320109
0.321968
0.327094
0.334509
0.342984
0.345065
0.328126
0.268723
0.131813
2.08138
1.47768
1.06528
0.806154
0.662499
0.595613
0.572529
0.569646
0.573983
0.578832
0.584872
0.592729
0.603075
0.614698
0.62406
0.616947
0.57131
0.452149
0.213252
1.1523
0.882426
0.782912
0.780826
0.827172
0.887897
0.942388
0.982094
1.00767
1.02207
1.03283
1.04422
1.05719
1.06823
1.06863
1.0343
0.931194
0.713416
0.326922
0.19888
0.440136
0.743094
1.03623
1.28319
1.4681
1.59212
1.66563
1.70485
1.72277
1.73249
1.74148
1.74873
1.7461
1.71657
1.62466
1.42436
1.06337
0.484584
-0.574953
0.308415
1.0627
1.66254
2.10528
2.40192
2.58264
2.67801
2.72048
2.73288
2.73109
2.72541
2.71015
2.67078
2.5803
2.39443
2.05913
1.52217
0.722567
-0.950838
0.567886
1.76182
2.65387
3.27742
3.66998
3.89416
3.99968
4.03468
4.03132
4.00451
3.96749
3.90826
3.80711
3.62981
3.332
2.859
2.16047
1.15398
-0.796958
1.17495
2.72873
3.87093
4.64952
5.11927
5.37438
5.48095
5.50084
5.4749
5.41327
5.33321
5.21916
5.05395
4.80682
4.44966
3.93511
3.20318
2.10574
-0.193752
1.94457
3.72822
5.05235
5.94526
6.46717
6.73912
6.84106
6.84442
6.79885
6.70693
6.59294
6.45059
6.28465
6.09109
5.88719
5.64386
5.26971
4.48338
0.522864
2.60509
4.49032
5.91311
6.86112
7.39777
7.66449
7.75721
7.74737
7.69892
7.60322
7.4987
7.42603
7.46276
7.71743
8.43747
9.95601
12.896
18.4534
)
;

boundaryField
{
    up
    {
        type            calculated;
        value           nonuniform List<scalar> 
84
(
-18.4534
-4.48342
-2.10578
-1.15398
-0.722535
-0.484547
-0.3269
-0.213248
-0.13182
-0.0763378
-0.0412224
-0.0206902
-0.00965385
-0.00419882
-0.00171217
-0.00066488
-0.000254732
-0.000103104
-4.81597e-05
-2.67742e-05
-1.6675e-05
-1.07655e-05
-7.27916e-06
-3.80484e-06
-9.6943e-06
-1.34314e-05
-1.84123e-05
-2.36544e-05
-2.68114e-05
-1.99826e-05
2.02272e-05
0.000155176
0.000675548
-0.00294644
-0.00418991
0.00153111
0.000801817
0.000892962
0.000755268
0.000727928
0.000366711
-3.92025e-05
4.21769e-05
-0.000367708
-0.000723116
-0.000756043
-0.000893852
-0.00080362
-0.00152074
0.00413396
0.00304957
-0.000687724
-0.000173847
-3.0026e-05
1.63117e-05
2.5758e-05
2.3477e-05
1.84603e-05
1.35025e-05
9.73934e-06
3.79276e-06
7.27984e-06
1.07655e-05
1.66744e-05
2.67739e-05
4.81616e-05
0.000103117
0.000254784
0.000665017
0.00171241
0.00419896
0.00965317
0.0206873
0.0412158
0.0763282
0.131813
0.213252
0.326922
0.484584
0.722567
1.15398
2.10574
4.48338
18.4534
)
;
    }
    low
    {
        type            calculated;
        value           nonuniform List<scalar> 
84
(
-0.463386
0.29046
0.938715
1.08943
0.65339
-0.211985
-1.25152
-2.23886
-3.17775
-3.69825
-4.15217
-4.64045
-4.80994
-4.93109
-5.0486
-5.06494
-4.9744
-4.85853
-4.77809
-4.46103
-4.05936
-3.58602
-2.97962
-2.21719
-1.46887
-0.478242
0.512471
1.48573
2.33156
3.14689
3.67525
4.07707
4.38183
4.48769
4.46109
4.39907
4.02563
3.42815
2.77561
2.05065
1.27581
0.486368
-0.486142
-1.27559
-2.05041
-2.77539
-3.42796
-4.02551
-4.39891
-4.46158
-4.48728
-4.38192
-4.07711
-3.67532
-3.14699
-2.33168
-1.48591
-0.512646
0.477807
1.46907
2.21686
2.97972
3.58601
4.05934
4.46101
4.77808
4.85852
4.97439
5.06494
5.04859
4.93109
4.80995
4.64044
4.1522
3.6983
3.17778
2.2389
1.25155
0.212006
-0.653379
-1.08944
-0.938732
-0.290474
0.463388
)
;
    }
    left
    {
        type            calculated;
        value           nonuniform List<scalar> 
19
(
-0.489734
-2.57813
-4.54775
-6.05554
-7.06892
-7.64553
-7.93526
-8.04346
-8.04103
-8.00458
-7.92052
-7.82785
-7.78537
-7.89642
-8.29456
-9.30927
-11.3876
-15.3808
-15.9816
)
;
    }
    right
    {
        type            calculated;
        value           nonuniform List<scalar> 
19
(
0.489739
2.57815
4.54776
6.05554
7.06892
7.64553
7.93526
8.04346
8.04104
8.00458
7.92053
7.82787
7.78539
7.89643
8.29453
9.30918
11.3875
15.3807
15.9817
)
;
    }
    frontAndBackPlanes
    {
        type            empty;
    }
}


// ************************************************************************* //
