/*--------------------------------*- C++ -*----------------------------------*\
  =========                 |
  \\      /  F ield         | OpenFOAM: The Open Source CFD Toolbox
   \\    /   O peration     | Website:  https://openfoam.org
    \\  /    A nd           | Version:  7
     \\/     M anipulation  |
\*---------------------------------------------------------------------------*/
FoamFile
{
    version     2.0;
    format      ascii;
    class       volScalarField;
    location    "0.22";
    object      gradTx;
}
// * * * * * * * * * * * * * * * * * * * * * * * * * * * * * * * * * * * * * //

dimensions      [0 -1 0 1 0 0 0];

internalField   nonuniform List<scalar> 
1596
(
-0.137226
-0.688524
-1.23248
-1.72198
-2.15339
-2.52523
-2.85468
-3.15285
-3.43514
-3.73099
-4.04907
-4.42491
-4.89996
-5.53395
-6.39689
-7.66387
-9.60448
-12.8008
-18.4566
0.030273
-0.572788
-1.10835
-1.5704
-1.96954
-2.30792
-2.60112
-2.85473
-3.08035
-3.29351
-3.49647
-3.70869
-3.93776
-4.19463
-4.47312
-4.76088
-4.98247
-4.98339
-4.43533
0.167689
-0.46719
-0.985323
-1.4148
-1.77712
-2.07906
-2.3341
-2.54595
-2.72242
-2.87196
-2.99393
-3.0988
-3.18484
-3.25114
-3.28551
-3.26607
-3.13275
-2.77976
-1.99889
0.190051
-0.410233
-0.88352
-1.26842
-1.58825
-1.85176
-2.06952
-2.24448
-2.38158
-2.48522
-2.55425
-2.59389
-2.60062
-2.57084
-2.49481
-2.35507
-2.11334
-1.70657
-1.01109
0.0578836
-0.426972
-0.821096
-1.14625
-1.41709
-1.64026
-1.82223
-1.9651
-2.07158
-2.14336
-2.17979
-2.18278
-2.14927
-2.07562
-1.95561
-1.77709
-1.51786
-1.14225
-0.579557
-0.21738
-0.526968
-0.811905
-1.06233
-1.27727
-1.4575
-1.60435
-1.7184
-1.8003
-1.84971
-1.86652
-1.85037
-1.79896
-1.70911
-1.57719
-1.39484
-1.14984
-0.822413
-0.372853
-0.583528
-0.702166
-0.861789
-1.02635
-1.17912
-1.31314
-1.42419
-1.5106
-1.57098
-1.60327
-1.6075
-1.58171
-1.52409
-1.43174
-1.30259
-1.13056
-0.909187
-0.627499
-0.26335
-0.967068
-0.919696
-0.95747
-1.03375
-1.12171
-1.20754
-1.28213
-1.34113
-1.3812
-1.39882
-1.3937
-1.36278
-1.30436
-1.21564
-1.0953
-0.938574
-0.742123
-0.499756
-0.199166
-1.3641
-1.19922
-1.12869
-1.11611
-1.13421
-1.16576
-1.19848
-1.22559
-1.24196
-1.24279
-1.22704
-1.19082
-1.13219
-1.04821
-0.937668
-0.796443
-0.622612
-0.412418
-0.158771
-1.60278
-1.39478
-1.26029
-1.18397
-1.1467
-1.1327
-1.12923
-1.12823
-1.1235
-1.10948
-1.08439
-1.04391
-0.985853
-0.907192
-0.806649
-0.680578
-0.527717
-0.345653
-0.130167
-1.79776
-1.57159
-1.39861
-1.27507
-1.19106
-1.13505
-1.09618
-1.06639
-1.03924
-1.00883
-0.972748
-0.926501
-0.867557
-0.792776
-0.700632
-0.587687
-0.452816
-0.294212
-0.109183
-1.99696
-1.76915
-1.57216
-1.4115
-1.28548
-1.18804
-1.11167
-1.04968
-0.996174
-0.945427
-0.894628
-0.8392
-0.776272
-0.702503
-0.615997
-0.513314
-0.393133
-0.253768
-0.0931641
-2.05265
-1.85522
-1.66286
-1.49042
-1.34323
-1.2205
-1.11853
-1.03281
-0.958759
-0.891438
-0.828149
-0.764604
-0.69787
-0.624618
-0.542752
-0.448916
-0.341609
-0.219167
-0.0798098
-2.06797
-1.90366
-1.7271
-1.55499
-1.39713
-1.25732
-1.13551
-1.02979
-0.937343
-0.854412
-0.778773
-0.706633
-0.635158
-0.561118
-0.482276
-0.395342
-0.298605
-0.190327
-0.0688099
-2.06659
-1.93228
-1.77518
-1.61026
-1.44895
-1.29822
-1.16121
-1.03865
-0.929714
-0.832067
-0.744261
-0.663144
-0.586122
-0.510132
-0.432855
-0.351054
-0.262813
-0.166263
-0.0596609
-2.01857
-1.91655
-1.78317
-1.63251
-1.47615
-1.3228
-1.17788
-1.04443
-0.923556
-0.814472
-0.716712
-0.627924
-0.545912
-0.46789
-0.391573
-0.313828
-0.232599
-0.145912
-0.0519376
-1.92169
-1.85051
-1.74326
-1.6122
-1.46805
-1.32009
-1.17503
-1.03761
-0.910598
-0.794673
-0.690435
-0.596424
-0.510971
-0.431677
-0.356403
-0.282188
-0.206936
-0.128636
-0.0454027
-1.80692
-1.75554
-1.67137
-1.56084
-1.43236
-1.2946
-1.15476
-1.01862
-0.890209
-0.77146
-0.663971
-0.567167
-0.479954
-0.400363
-0.326457
-0.255476
-0.185357
-0.114127
-0.0399211
-1.71065
-1.67518
-1.60864
-1.51468
-1.39948
-1.27083
-1.13603
-1.00158
-0.872511
-0.751804
-0.641916
-0.543049
-0.454604
-0.374965
-0.302332
-0.234061
-0.168078
-0.10247
-0.0354763
-1.5404
-1.5261
-1.48024
-1.40704
-1.31121
-1.19921
-1.07773
-0.953262
-0.831319
-0.71558
-0.609165
-0.512992
-0.426988
-0.349968
-0.280349
-0.215635
-0.153765
-0.0929567
-0.0318078
-1.35081
-1.3532
-1.32602
-1.27257
-1.19646
-1.10288
-0.99766
-0.886897
-0.776141
-0.669417
-0.570226
-0.480016
-0.399149
-0.326849
-0.261751
-0.201442
-0.143694
-0.086618
-0.0292586
-1.15215
-1.16524
-1.15348
-1.118
-1.06106
-0.986561
-0.899392
-0.804987
-0.708639
-0.614387
-0.525808
-0.444652
-0.371571
-0.306161
-0.247322
-0.192738
-0.139777
-0.0857151
-0.0290226
-0.930962
-0.949213
-0.949928
-0.931561
-0.894564
-0.841297
-0.775449
-0.701485
-0.624115
-0.547057
-0.473604
-0.40557
-0.343702
-0.287956
-0.237671
-0.190935
-0.14487
-0.0952771
-0.0368309
-0.680568
-0.670667
-0.64763
-0.611849
-0.565826
-0.513053
-0.45756
-0.402921
-0.352155
-0.306959
-0.26786
-0.234399
-0.205373
-0.17952
-0.155679
-0.132455
-0.10772
-0.0774857
-0.0346489
-0.454877
-0.504951
-0.55824
-0.605266
-0.639489
-0.656893
-0.656639
-0.640018
-0.610314
-0.571349
-0.526504
-0.478934
-0.430488
-0.38318
-0.338651
-0.298073
-0.260838
-0.224321
-0.181744
-0.153621
-0.17641
-0.205911
-0.236787
-0.265063
-0.287934
-0.304389
-0.314327
-0.318891
-0.319386
-0.316186
-0.309862
-0.299522
-0.285163
-0.267431
-0.248602
-0.230248
-0.214188
-0.200434
0.148189
0.119827
0.0792824
0.0315436
-0.0186713
-0.0674941
-0.112525
-0.152505
-0.187474
-0.217957
-0.243651
-0.264243
-0.277825
-0.283159
-0.280029
-0.270961
-0.258636
-0.246384
-0.235432
0.449133
0.410342
0.35488
0.288365
0.216137
0.142789
0.0716014
0.00447761
-0.0580333
-0.116125
-0.169321
-0.216767
-0.255655
-0.283091
-0.297067
-0.29932
-0.293181
-0.283654
-0.273475
0.720743
0.665453
0.591693
0.506066
0.414128
0.320638
0.229005
0.141096
0.0574025
-0.0225072
-0.0985393
-0.169945
-0.233485
-0.284599
-0.318546
-0.334741
-0.335891
-0.328641
-0.318029
1.00173
0.926077
0.83169
0.725457
0.613142
0.499675
0.388476
0.281241
0.178238
0.0785756
-0.0183766
-0.112701
-0.20168
-0.279879
-0.339523
-0.376003
-0.38888
-0.385246
-0.373334
1.21311
1.11416
0.999541
0.875973
0.749102
0.623329
0.501346
0.384074
0.271135
0.160895
0.05176
-0.0577842
-0.1667
-0.270403
-0.359213
-0.423642
-0.456311
-0.460577
-0.446379
1.41046
1.29164
1.15742
1.01711
0.876662
0.739938
0.608897
0.483764
0.363665
0.246434
0.129738
0.010519
-0.11278
-0.238767
-0.359162
-0.462075
-0.530919
-0.558148
-0.548932
1.59264
1.4479
1.29273
1.13655
0.98462
0.839687
0.702752
0.573297
0.450092
0.330734
0.212686
0.0920493
-0.0350582
-0.171799
-0.315458
-0.458956
-0.581625
-0.661273
-0.675806
1.71015
1.52623
1.33938
1.15787
0.98548
0.823606
0.672219
0.530216
0.396127
0.267616
0.14224
0.016189
-0.115308
-0.258751
-0.418775
-0.599972
-0.793785
-0.982374
-1.13187
1.78264
1.582
1.39285
1.22022
1.06419
0.923376
0.795619
0.678696
0.570604
0.469404
0.373657
0.281622
0.191294
0.0994877
0.00164554
-0.111597
-0.249526
-0.422822
-0.635765
1.83617
1.62919
1.44656
1.28601
1.1437
1.01628
0.900683
0.794506
0.695949
0.603499
0.516386
0.434089
0.356255
0.282922
0.214574
0.150831
0.0907939
0.030828
-0.0361535
1.73789
1.50177
1.30206
1.13078
0.981784
0.850669
0.733773
0.628347
0.532324
0.443914
0.362115
0.286216
0.215672
0.15045
0.0912065
0.0386812
-0.005754
-0.0404903
-0.0647727
1.52569
1.31093
1.13218
0.980884
0.850807
0.737443
0.637213
0.547437
0.466178
0.391825
0.323475
0.260509
0.202399
0.14895
0.10032
0.0565046
0.017638
-0.0160392
-0.0446932
1.26774
1.08754
0.937223
0.810407
0.701967
0.607989
0.525365
0.451737
0.385418
0.325009
0.269692
0.218881
0.172018
0.128788
0.0891422
0.0529068
0.0200614
-0.00920701
-0.0349972
0.954656
0.815728
0.701012
0.605131
0.523795
0.453749
0.392482
0.3381
0.289275
0.244905
0.204333
0.167081
0.132676
0.100835
0.071487
0.0444902
0.0198481
-0.00223996
-0.0217936
0.601288
0.508643
0.434503
0.373728
0.322794
0.279262
0.241381
0.207871
0.177855
0.150616
0.125717
0.102839
0.0816619
0.0619877
0.0437546
0.0268677
0.0113338
-0.00269234
-0.0151833
0.230863
0.193474
0.16462
0.141287
0.121801
0.105141
0.0906298
0.0777905
0.0662987
0.0558887
0.046391
0.0376758
0.0296106
0.0221036
0.0151092
0.00857121
0.00246984
-0.0031546
-0.00829541
-0.230752
-0.193228
-0.164283
-0.14089
-0.121367
-0.104689
-0.0901742
-0.0773425
-0.0658682
-0.0554842
-0.0460198
-0.037344
-0.0293236
-0.0218662
-0.014925
-0.00844315
-0.00239974
0.00316652
0.00825014
-0.601184
-0.508425
-0.434208
-0.373382
-0.322418
-0.278874
-0.240992
-0.207493
-0.177498
-0.150286
-0.125422
-0.102585
-0.0814533
-0.061829
-0.043649
-0.0268176
-0.0113405
0.00262929
0.0150658
-0.954552
-0.815518
-0.700724
-0.604788
-0.523417
-0.453351
-0.392077
-0.3377
-0.288888
-0.24454
-0.203996
-0.166778
-0.132411
-0.100611
-0.0713054
-0.0443509
-0.0197501
0.00229931
0.0218178
-1.26766
-1.08739
-0.937026
-0.810173
-0.701709
-0.60772
-0.525095
-0.451475
-0.385173
-0.324788
-0.269501
-0.218724
-0.171898
-0.128708
-0.0891013
-0.0529044
-0.0200952
0.00914031
0.0349015
-1.52564
-1.31084
-1.13205
-0.980721
-0.850621
-0.737246
-0.637013
-0.547243
-0.465998
-0.391665
-0.323342
-0.260407
-0.202331
-0.14892
-0.100324
-0.0565412
-0.0177005
0.0159596
0.0446078
-1.73789
-1.50175
-1.30201
-1.1307
-0.981686
-0.850562
-0.733667
-0.62825
-0.532246
-0.443862
-0.362097
-0.286239
-0.21574
-0.150569
-0.0913765
-0.0388946
0.0055178
0.0402664
0.0646019
-1.83617
-1.62904
-1.44621
-1.28545
-1.14292
-1.01531
-0.899531
-0.7932
-0.694516
-0.601961
-0.514761
-0.432393
-0.354497
-0.281108
-0.212719
-0.14898
-0.0890598
-0.0294493
0.0367842
-1.78296
-1.58285
-1.39426
-1.22216
-1.06665
-0.926294
-0.798956
-0.682404
-0.574642
-0.473743
-0.378282
-0.286543
-0.196556
-0.105189
-0.00794217
0.104479
0.241369
0.413546
0.625623
-1.71002
-1.52587
-1.33876
-1.15698
-0.984343
-0.822242
-0.670661
-0.528498
-0.394285
-0.265685
-0.140253
-0.0141828
0.117299
0.2607
0.420697
0.601972
0.796143
0.985569
1.13653
-1.59275
-1.44817
-1.29312
-1.13705
-0.985195
-0.840322
-0.70343
-0.574006
-0.450823
-0.331484
-0.213459
-0.0928487
0.0342353
0.170982
0.314728
0.458462
0.581545
0.661714
0.676618
-1.41053
-1.29181
-1.15767
-1.01742
-0.877024
-0.740337
-0.609323
-0.484209
-0.364126
-0.246908
-0.130221
-0.0110024
0.112321
0.238387
0.358947
0.462121
0.531272
0.558756
0.549669
-1.21318
-1.11432
-0.999793
-0.876294
-0.749477
-0.623741
-0.501783
-0.384524
-0.271589
-0.161344
-0.0521922
0.0573878
0.166374
0.270198
0.359185
0.423824
0.456683
0.461065
0.4469
-1.0018
-0.926242
-0.831945
-0.725787
-0.613531
-0.500103
-0.388925
-0.281697
-0.178685
-0.079
0.0179913
0.112379
0.201451
0.27978
0.339578
0.376208
0.389198
0.385624
0.373733
-0.720802
-0.665607
-0.591935
-0.506382
-0.414501
-0.321046
-0.22943
-0.141519
-0.0578056
0.0221401
0.098226
0.169707
0.233345
0.284577
0.318643
0.334942
0.336162
0.328949
0.318355
-0.449198
-0.410504
-0.355133
-0.288695
-0.216524
-0.143209
-0.072031
-0.00489466
0.0576484
0.11579
0.169052
0.216582
0.255566
0.283105
0.297177
0.299505
0.293415
0.283918
0.273761
-0.148245
-0.119981
-0.0795277
-0.0318652
0.018296
0.0670912
0.112121
0.152123
0.187135
0.217677
0.243444
0.264118
0.277788
0.283208
0.280151
0.271139
0.258853
0.24663
0.235704
0.15349
0.176015
0.205241
0.235864
0.263937
0.286671
0.303064
0.313011
0.317646
0.31826
0.315211
0.309055
0.298888
0.284689
0.267095
0.248383
0.230132
0.214186
0.2006
0.454968
0.505298
0.558903
0.606263
0.640801
0.658467
0.658401
0.641887
0.612208
0.573201
0.528262
0.480563
0.431972
0.384517
0.339852
0.299158
0.26183
0.225237
0.182587
0.68047
0.670317
0.647023
0.611013
0.564813
0.511927
0.45639
0.401768
0.351067
0.305972
0.266994
0.233661
0.204762
0.179027
0.155291
0.132157
0.107502
0.0773433
0.0345889
0.931017
0.949325
0.950097
0.931776
0.894809
0.841551
0.775694
0.701707
0.624303
0.547208
0.473716
0.405648
0.343752
0.287985
0.237684
0.190938
0.144866
0.0952698
0.0368275
1.15216
1.16525
1.15349
1.11802
1.06108
0.986581
0.899407
0.804998
0.708643
0.614385
0.5258
0.44464
0.371557
0.306147
0.247308
0.192725
0.139767
0.0857088
0.0290214
1.35082
1.35321
1.32603
1.27258
1.19648
1.10289
0.99767
0.886901
0.776141
0.669412
0.570217
0.480004
0.399137
0.326838
0.26174
0.201433
0.143687
0.0866145
0.0292577
1.5404
1.52611
1.48025
1.40705
1.31122
1.19922
1.07773
0.953262
0.831316
0.715573
0.609156
0.512982
0.426978
0.349958
0.280341
0.215629
0.15376
0.0929543
0.0318071
1.71066
1.6752
1.60866
1.51469
1.39949
1.27084
1.13604
1.00158
0.872507
0.751798
0.641908
0.54304
0.454595
0.374957
0.302325
0.234056
0.168074
0.102468
0.0354757
1.80692
1.75555
1.67138
1.56085
1.43236
1.29461
1.15476
1.01862
0.890204
0.771453
0.663963
0.567159
0.479947
0.400357
0.326451
0.255472
0.185354
0.114125
0.0399205
1.92169
1.85051
1.74327
1.6122
1.46806
1.32009
1.17503
1.03761
0.910592
0.794666
0.690427
0.596416
0.510964
0.431671
0.356398
0.282183
0.206932
0.128634
0.0454022
2.01857
1.91656
1.78318
1.63252
1.47616
1.32281
1.17788
1.04443
0.923552
0.814466
0.716705
0.627918
0.545906
0.467884
0.391568
0.313823
0.232595
0.14591
0.0519371
2.06659
1.93228
1.77518
1.61026
1.44895
1.29822
1.1612
1.03865
0.929708
0.83206
0.744253
0.663137
0.586116
0.510125
0.432849
0.351049
0.262809
0.166261
0.0596606
2.06797
1.90367
1.72711
1.55499
1.39714
1.25732
1.1355
1.02978
0.937338
0.854406
0.778767
0.706626
0.635151
0.561111
0.48227
0.395336
0.298601
0.190325
0.0688098
2.05266
1.85523
1.66287
1.49043
1.34323
1.2205
1.11853
1.03281
0.958755
0.891433
0.828143
0.764598
0.697863
0.624612
0.542747
0.448912
0.341607
0.219166
0.0798102
1.99695
1.76915
1.57215
1.4115
1.28547
1.18803
1.11166
1.04967
0.996165
0.945419
0.89462
0.839192
0.776265
0.702496
0.615992
0.51331
0.393131
0.253768
0.0931647
1.79777
1.5716
1.39862
1.27507
1.19106
1.13505
1.09617
1.06639
1.03923
1.00882
0.972742
0.926495
0.867551
0.792772
0.700629
0.587686
0.452816
0.294214
0.109184
1.6028
1.3948
1.26029
1.18397
1.1467
1.1327
1.12923
1.12822
1.1235
1.10948
1.08438
1.04391
0.985849
0.90719
0.806649
0.68058
0.527719
0.345656
0.130168
1.36412
1.19923
1.1287
1.11611
1.13421
1.16576
1.19848
1.22559
1.24195
1.24278
1.22704
1.19082
1.13219
1.04822
0.937671
0.796447
0.622617
0.412422
0.158772
0.967079
0.919701
0.957471
1.03375
1.12171
1.20754
1.28213
1.34113
1.3812
1.39882
1.3937
1.36278
1.30436
1.21564
1.0953
0.93858
0.742128
0.499759
0.199166
0.583537
0.702171
0.861792
1.02635
1.17912
1.31314
1.42419
1.5106
1.57098
1.60327
1.6075
1.58171
1.52409
1.43175
1.3026
1.13056
0.909193
0.627501
0.263349
0.217386
0.526973
0.811909
1.06233
1.27728
1.4575
1.60435
1.7184
1.8003
1.84971
1.86652
1.85037
1.79896
1.70911
1.5772
1.39484
1.14985
0.822415
0.372852
-0.0578802
0.426977
0.821101
1.14626
1.4171
1.64026
1.82223
1.9651
2.07158
2.14336
2.1798
2.18278
2.14927
2.07563
1.95561
1.7771
1.51786
1.14225
0.579556
-0.190051
0.410236
0.883523
1.26843
1.58826
1.85176
2.06952
2.24448
2.38158
2.48522
2.55426
2.59389
2.60062
2.57085
2.49481
2.35507
2.11334
1.70657
1.01109
-0.16769
0.467191
0.985324
1.4148
1.77712
2.07906
2.3341
2.54595
2.72242
2.87196
2.99394
3.09881
3.18484
3.25114
3.28551
3.26607
3.13274
2.77975
1.99889
-0.0302731
0.572788
1.10835
1.5704
1.96954
2.30792
2.60112
2.85473
3.08036
3.29352
3.49647
3.70869
3.93776
4.19462
4.47311
4.76087
4.98247
4.98339
4.43533
0.137228
0.688525
1.23248
1.72198
2.15339
2.52524
2.85468
3.15285
3.43514
3.73099
4.04907
4.4249
4.89996
5.53394
6.39688
7.66386
9.60447
12.8008
18.4566
)
;

boundaryField
{
    up
    {
        type            calculated;
        value           nonuniform List<scalar> 
84
(
-18.4566
-4.43533
-1.99889
-1.01109
-0.579557
-0.372853
-0.26335
-0.199166
-0.158771
-0.130167
-0.109183
-0.0931641
-0.0798098
-0.0688099
-0.0596609
-0.0519376
-0.0454027
-0.0399211
-0.0354763
-0.0318078
-0.0292586
-0.0290226
-0.0368309
-0.0346489
-0.155209
-0.187063
-0.221886
-0.258445
-0.30062
-0.352412
-0.419387
-0.507552
-0.611385
-1.11827
-0.656902
-0.0373668
-0.0646455
-0.0445852
-0.0349355
-0.0217721
-0.0151765
-0.008297
0.00825171
0.0150593
0.0217965
0.0348403
0.0445004
0.0644749
0.0379806
0.64649
1.12378
0.612113
0.508192
0.419869
0.352791
0.300935
0.258726
0.22216
0.187307
0.155973
0.0345889
0.0368275
0.0290214
0.0292577
0.0318071
0.0354757
0.0399205
0.0454022
0.0519371
0.0596606
0.0688098
0.0798102
0.0931647
0.109184
0.130168
0.158772
0.199166
0.263349
0.372852
0.579556
1.01109
1.99889
4.43533
18.4566
)
;
    }
    low
    {
        type            calculated;
        value           nonuniform List<scalar> 
84
(
-0.123673
0.0507573
0.20083
0.226148
0.0806233
-0.221595
-0.6183
-1.02558
-1.43185
-1.65842
-1.84643
-2.03577
-2.06854
-2.06965
-2.05925
-1.99824
-1.89032
-1.77268
-1.6696
-1.48686
-1.29137
-1.09179
-0.872277
-0.629304
-0.41497
-0.139245
0.131819
0.408381
0.668331
0.949091
1.16969
1.37489
1.56862
1.70129
1.78592
1.85387
1.77088
1.56144
1.29987
0.980384
0.618397
0.238036
-0.237925
-0.61829
-0.980274
-1.29979
-1.56138
-1.77086
-1.85385
-1.78619
-1.70116
-1.5687
-1.37495
-1.16976
-0.949158
-0.668393
-0.408449
-0.131876
0.139118
0.415059
0.629213
0.872325
1.0918
1.29138
1.48687
1.66961
1.77269
1.89032
1.99824
2.05925
2.06965
2.06855
2.03576
1.84644
1.65844
1.43186
1.02559
0.618309
0.221602
-0.0806199
-0.226148
-0.200833
-0.0507593
0.123673
)
;
    }
    left
    {
        type            calculated;
        value           nonuniform List<scalar> 
19
(
-0.121809
-0.661034
-1.21606
-1.72248
-2.17245
-2.56163
-2.90851
-3.22607
-3.52963
-3.85609
-4.21384
-4.64279
-5.19708
-5.95655
-7.00923
-8.6013
-11.1069
-15.3392
-16.0079
)
;
    }
    right
    {
        type            calculated;
        value           nonuniform List<scalar> 
19
(
0.12181
0.661036
1.21606
1.72248
2.17245
2.56163
2.90851
3.22607
3.52963
3.85608
4.21383
4.64279
5.19707
5.95654
7.00921
8.6013
11.1069
15.3392
16.0079
)
;
    }
    frontAndBackPlanes
    {
        type            empty;
    }
}


// ************************************************************************* //
