/*--------------------------------*- C++ -*----------------------------------*\
  =========                 |
  \\      /  F ield         | OpenFOAM: The Open Source CFD Toolbox
   \\    /   O peration     | Website:  https://openfoam.org
    \\  /    A nd           | Version:  7
     \\/     M anipulation  |
\*---------------------------------------------------------------------------*/
FoamFile
{
    version     2.0;
    format      ascii;
    class       volScalarField;
    location    "0.22";
    object      gradTz;
}
// * * * * * * * * * * * * * * * * * * * * * * * * * * * * * * * * * * * * * //

dimensions      [0 -1 0 1 0 0 0];

internalField   nonuniform List<scalar> 
1596
(
-4.84088e-16
-2.34997e-16
2.3917e-16
5.54753e-18
-4.54585e-16
0
-2.11633e-16
-2.08692e-16
-1.43847e-17
-1.10236e-16
-9.69331e-19
-1.09783e-16
4.83954e-16
-1.08706e-16
5.07719e-16
4.38311e-16
2.60763e-16
3.29448e-16
0
4.83249e-16
0
6.7836e-16
-5.00463e-18
-2.06788e-16
2.04878e-16
4.23882e-16
1.37439e-17
2.00516e-16
-9.67756e-17
1.93215e-16
-2.81494e-18
-2.68214e-16
-1.67729e-16
-4.10436e-16
-4.00634e-16
-3.64614e-16
2.07642e-16
0
-2.36314e-16
0
-4.4115e-16
7.94216e-18
4.01963e-16
-1.14127e-16
9.39051e-18
-2.78146e-18
-2.76764e-18
-2.90537e-18
7.21057e-17
0
1.39116e-16
3.94157e-16
-3.88906e-17
3.14197e-17
7.38367e-17
1.15704e-16
0
3.7207e-16
-1.10921e-16
1.10516e-16
0
-1.06011e-16
-1.10095e-16
1.8535e-16
-1.60278e-16
0
0
-5.95864e-17
3.76673e-17
0
-1.15818e-16
-1.47018e-16
1.02046e-16
-1.05679e-16
-5.43284e-18
0
6.50996e-17
1.71515e-16
-1.5335e-16
0
-4.4837e-17
-1.36775e-16
0
2.03407e-16
-2.0161e-17
-1.82627e-17
-1.9111e-17
1.05287e-16
1.30113e-16
1.36036e-17
5.74867e-18
-1.1033e-16
5.55055e-18
5.11674e-17
-2.2115e-17
-1.69053e-17
-2.35216e-16
2.22235e-16
-1.92207e-16
-4.31395e-19
-1.67748e-16
4.71528e-18
-4.73093e-18
-1.31037e-16
0
-1.59187e-17
-1.24637e-16
-1.17491e-16
9.47823e-17
1.00067e-16
-1.36168e-18
-6.00303e-17
-5.18984e-17
3.97635e-17
1.41281e-16
-2.39217e-16
2.65858e-16
1.47768e-16
0
1.28987e-16
7.50803e-17
-3.606e-17
1.66018e-16
-3.10334e-17
-1.32091e-16
1.15399e-18
-7.77078e-17
-9.52203e-17
-7.38439e-17
6.3293e-17
6.05587e-17
-8.11336e-19
-1.6543e-17
1.49703e-17
3.8055e-16
-4.43318e-16
0
0
-1.57968e-16
0
0
0
1.06159e-16
0
0
7.14487e-17
2.54862e-18
2.05039e-17
-5.54271e-17
0
2.94963e-17
1.16375e-17
0
-2.45455e-16
4.71233e-16
0
0
1.62685e-16
0
-6.07396e-17
6.06782e-17
-1.08055e-16
4.46439e-17
-4.49705e-17
0
6.48271e-17
6.46017e-17
0
-3.72507e-17
-3.01342e-17
-1.01844e-17
5.98959e-16
-2.79307e-16
0
-1.92608e-16
1.90453e-16
0
1.37189e-16
0
0
0
4.07188e-17
-4.0914e-17
0
-5.01591e-17
-1.42435e-17
0
4.61762e-18
2.10585e-17
0
-1.52046e-16
0
0
1.93057e-16
-3.58341e-16
2.00304e-17
7.65367e-18
-5.54986e-17
6.68203e-18
2.5399e-18
-4.24841e-17
-6.74082e-17
0
5.08348e-17
-1.03254e-17
1.04804e-17
2.80443e-17
-1.65834e-17
-7.55873e-18
1.24183e-16
-1.46046e-17
1.19342e-16
4.02589e-16
-2.36225e-17
-1.66185e-16
0
0
0
8.75054e-17
3.45187e-17
1.23939e-16
-2.98925e-17
-4.99254e-17
-2.91919e-17
-1.62025e-17
7.24535e-18
-1.58437e-17
7.1764e-18
-1.38819e-16
1.36101e-16
-2.50329e-16
-3.97733e-16
3.6615e-16
1.41726e-16
-2.60419e-16
2.22167e-16
-1.8937e-16
4.94918e-17
3.70824e-17
-3.34823e-17
2.09719e-17
-1.91765e-17
5.64902e-17
0
-4.30022e-18
3.18964e-17
-4.75451e-18
-9.06432e-16
4.14094e-16
3.31655e-19
-8.79854e-17
1.24599e-17
1.37563e-16
-2.6028e-16
-1.05153e-16
8.83206e-17
-7.38246e-17
-6.20064e-17
0
-6.94246e-17
-2.05697e-17
-3.63585e-17
-2.15982e-17
1.697e-18
-1.961e-17
5.52112e-19
1.48145e-16
-1.30916e-16
2.43938e-19
-9.86049e-17
-2.41802e-16
2.26852e-16
1.0918e-18
1.02472e-16
-8.59917e-17
1.41265e-16
3.3273e-17
2.68631e-17
8.12583e-17
0
6.65437e-17
3.0579e-17
0
1.05575e-17
4.57133e-19
0
1.27003e-16
9.77299e-17
-2.04563e-16
2.34165e-16
-3.48167e-16
2.43431e-16
8.91397e-17
-1.44568e-17
-1.40013e-16
2.4872e-17
-2.47493e-17
-7.33989e-17
2.8643e-17
-1.4506e-17
-3.01574e-17
1.28448e-17
-8.01244e-18
3.25673e-18
-1.37977e-16
4.62206e-16
-3.44964e-16
1.84064e-16
0
0
-4.68429e-17
1.00674e-16
-6.89944e-17
1.28859e-16
0
0
4.90464e-17
-4.24686e-17
-2.94138e-17
9.30842e-18
-1.00239e-17
5.32595e-18
0
1.23748e-17
1.29046e-16
-1.02109e-16
-8.8411e-17
-1.39458e-16
-4.25973e-17
6.21475e-17
0
-6.45476e-17
-5.11471e-17
4.54539e-17
-3.62883e-17
2.88222e-17
0
1.13112e-17
2.15285e-17
0
0
0
-1.18839e-17
2.02173e-16
7.47423e-17
-2.67422e-16
7.23175e-17
6.10835e-17
0
0
6.06414e-17
-3.17217e-17
-4.39638e-17
3.50974e-17
-2.78732e-17
0
-7.11978e-18
5.87005e-18
0
-5.00874e-18
-1.7601e-18
-1.09634e-16
3.2173e-16
-3.8709e-16
-1.5111e-16
7.97699e-17
-5.75898e-17
4.73997e-17
0
-3.09191e-17
2.53631e-17
0
0
1.07034e-17
-1.07157e-17
3.10476e-18
-4.29334e-18
7.034e-18
9.57827e-19
1.31576e-18
5.69407e-17
-5.08175e-17
2.55878e-16
-1.64744e-16
-6.51924e-17
9.20832e-18
9.84016e-17
3.61295e-17
2.9585e-17
0
1.60736e-17
-1.48205e-17
1.15126e-17
-9.54385e-18
1.18481e-17
-2.02385e-17
-5.47625e-18
4.7575e-18
1.24732e-18
1.51356e-16
-1.5399e-16
0
1.3569e-16
-7.20885e-17
-5.19159e-17
3.42282e-17
-1.10872e-16
0
-2.01125e-18
-1.89308e-17
-1.31294e-17
1.85042e-17
-1.55005e-18
-1.1451e-17
8.33345e-18
0
2.92164e-18
-1.21114e-18
2.6131e-16
-4.55331e-17
1.90098e-16
-1.4868e-16
7.87457e-17
6.417e-18
-8.86803e-17
-2.88552e-17
5.13605e-17
-2.39816e-18
-2.81562e-17
2.33749e-17
-1.0066e-17
-1.27217e-17
0
0
0
-2.94836e-18
1.08659e-19
-2.30676e-16
2.2416e-16
1.66214e-19
3.31297e-17
2.79869e-17
-6.56798e-17
7.62856e-17
-6.1146e-17
5.10313e-17
-1.61053e-17
3.04371e-17
1.04242e-17
-4.34749e-18
2.12027e-19
-1.45127e-18
-2.54591e-18
0
0
0
0
0
1.06994e-16
-5.41691e-17
-1.59928e-16
0
0
-1.77915e-17
-2.78544e-17
2.27483e-17
0
-1.31468e-17
9.9193e-18
-3.20444e-17
3.65809e-17
-1.15443e-17
1.2265e-17
1.32062e-18
0
-4.46783e-17
4.52282e-17
0
-3.52628e-17
3.56826e-17
5.75561e-17
0
1.79614e-17
2.23929e-17
-1.01614e-16
0
-1.48635e-17
1.12871e-17
7.78366e-18
-5.6499e-18
8.15225e-18
0
-2.91586e-18
0
-2.29837e-17
-2.26449e-17
1.34012e-18
3.62317e-17
-9.57419e-17
0
-2.37402e-17
0
6.39815e-17
2.50579e-17
0
5.89665e-17
-6.06755e-17
6.44055e-18
-1.24255e-17
3.96538e-18
1.57351e-17
5.79303e-18
-4.59137e-18
0
4.72751e-17
-4.07181e-17
5.03863e-17
5.92393e-17
0
4.81328e-17
-4.51289e-17
-3.44254e-17
5.02406e-17
-7.52565e-17
-3.5516e-17
0
0
7.18768e-18
0
0
1.97939e-18
0
-2.10769e-16
1.62059e-16
0
2.72314e-18
-3.43886e-17
-1.86286e-18
2.98953e-17
2.05867e-17
-2.64185e-17
-6.40507e-17
9.91008e-17
-2.70384e-17
0
-1.21909e-17
0
0
0
-7.67004e-18
6.13435e-18
-5.9883e-17
5.56272e-17
1.46669e-16
-1.428e-16
4.33838e-17
2.62619e-18
-3.03577e-17
2.57153e-17
4.29196e-17
3.20886e-17
-6.33025e-17
0
3.1052e-17
3.61456e-18
-1.39589e-17
-2.95917e-17
2.42716e-17
-3.76148e-18
7.19869e-18
-2.03597e-16
2.88406e-16
-2.85447e-16
4.95378e-17
4.13786e-17
-3.91157e-17
3.26497e-17
-2.5371e-17
0
-2.09274e-17
3.26129e-17
1.41079e-17
2.24025e-17
2.74265e-17
-4.08328e-17
-8.88297e-19
0
-2.96971e-18
9.99567e-19
-2.20129e-16
-6.47583e-17
-1.12141e-16
5.9963e-17
-9.59282e-17
8.22966e-17
-4.87422e-17
4.04921e-17
-3.07916e-18
-3.05455e-18
-3.47404e-17
2.07538e-17
-1.09055e-17
3.3543e-17
-3.60087e-17
4.17284e-18
3.71769e-18
0
-1.74818e-18
2.38008e-16
-6.99173e-17
0
0
-9.87279e-17
1.91338e-16
-4.43621e-17
-8.32553e-18
6.7882e-17
-1.7875e-18
0
0
-1.48576e-17
0
-3.16782e-17
7.6157e-17
-5.25907e-17
0
7.07662e-19
8.10586e-17
1.50433e-16
0
-6.31931e-17
-5.06729e-17
-4.41388e-17
-4.62418e-17
1.88267e-17
-5.2272e-17
-2.81303e-17
0
0
2.04723e-17
0
0
-4.34568e-17
7.17737e-17
0
0
5.5636e-16
-6.73701e-17
-3.33556e-16
-1.78975e-16
2.43007e-16
7.64529e-17
4.48372e-17
0
-1.61704e-17
1.54078e-17
3.83838e-17
-1.23072e-17
-1.79646e-17
2.77755e-17
-2.95446e-17
-8.91599e-18
0
0
0
4.45538e-17
-3.48769e-16
3.41682e-16
-3.24716e-17
-2.4855e-16
3.87612e-16
-1.93881e-16
0
0
1.00517e-16
-8.22809e-17
0
-2.43758e-17
4.26027e-17
-4.68509e-18
1.23465e-17
3.7405e-18
4.31124e-20
8.08686e-19
0
0
0
2.84385e-16
-1.90877e-16
1.9788e-16
-3.0791e-16
8.73041e-17
0
-3.09373e-17
4.90869e-17
-5.01697e-17
-9.72363e-18
-8.68345e-20
-6.60749e-18
-9.4461e-19
-5.27426e-18
-1.48745e-18
-8.08584e-19
3.72306e-16
-6.62241e-16
3.13048e-16
0
8.28287e-17
-1.12941e-16
1.11936e-16
-8.87695e-17
0
-4.25354e-17
5.96327e-17
0
0
-5.42185e-20
0
-6.9364e-18
4.73545e-18
8.46766e-19
1.29321e-18
3.63218e-16
0
-1.42553e-16
1.59185e-16
-9.88851e-17
2.15654e-16
-1.01662e-16
-7.87392e-17
7.95615e-17
-8.04562e-18
0
0
5.10302e-18
-8.54102e-18
-5.99015e-18
1.13392e-17
-2.45456e-18
1.24736e-18
0
2.06159e-16
1.59764e-16
-6.15597e-18
-1.51911e-16
-1.5224e-17
-1.09082e-16
1.22465e-17
9.12208e-17
-4.68658e-18
8.1967e-18
0
0
-5.22771e-18
0
6.13463e-18
-6.56259e-18
0
8.39739e-19
-2.32373e-19
-1.09412e-16
-8.01766e-17
7.50909e-17
-8.53978e-18
-3.81439e-18
1.02534e-17
0
-2.6852e-18
3.99715e-17
-3.36617e-17
0
1.12908e-17
-2.23995e-18
-9.94354e-18
-9.07836e-19
-7.07098e-19
0
-6.56807e-19
0
4.45239e-17
-8.45087e-17
-9.46881e-19
3.60912e-17
3.27511e-17
-3.25197e-17
-2.28588e-17
2.58676e-17
-8.81169e-18
6.89892e-18
-6.6561e-18
6.86139e-18
0
1.74329e-20
-6.69614e-19
2.40469e-18
-8.223e-21
0
0
4.45254e-17
-4.43586e-17
-3.59018e-17
3.18155e-17
5.78423e-17
-5.81837e-17
-1.14298e-17
1.14572e-17
-8.88638e-18
8.97958e-18
-6.65636e-18
1.25458e-17
-3.51881e-18
-2.52436e-18
-7.72405e-19
2.56639e-19
6.10427e-19
1.61297e-19
-1.20954e-19
0
-1.05397e-17
6.24999e-17
-6.77769e-17
5.7711e-17
-5.11791e-17
0
4.01838e-17
-3.59607e-17
0
1.3233e-17
-1.67451e-17
-9.48875e-18
9.94481e-18
1.82107e-18
0
0
-6.56929e-19
2.38622e-19
1.77154e-16
-3.25598e-16
3.30773e-16
-2.8912e-16
1.13453e-16
-9.54914e-17
9.06602e-17
1.0685e-17
-3.95927e-17
3.53633e-17
0
-2.53777e-17
2.31231e-17
-4.3661e-18
-1.78373e-18
2.78884e-18
2.04787e-18
6.37752e-19
-2.30563e-19
4.09437e-16
0
-1.61315e-16
1.25401e-16
1.5049e-17
-1.14828e-16
2.03139e-16
-1.79436e-16
7.02986e-17
-2.97809e-17
3.04834e-17
6.01414e-18
1.02481e-17
4.25262e-18
-3.49834e-18
-4.69471e-19
-4.43053e-18
0
4.49323e-19
3.26704e-16
-3.67753e-16
0
3.33472e-17
1.42776e-16
-1.39672e-16
2.36267e-17
2.0822e-17
9.07716e-18
1.58541e-17
0
0
-1.78109e-17
3.32036e-17
-1.2107e-17
-4.32665e-18
4.73696e-18
3.785e-19
-8.52951e-19
3.16337e-17
3.23084e-16
-3.70422e-17
-2.51208e-16
2.20613e-16
2.61824e-17
-2.31231e-17
-2.03369e-17
6.63419e-17
-8.22832e-17
4.91038e-17
-5.01863e-17
7.72645e-18
-9.94302e-18
1.78896e-17
-1.19435e-17
0
0
8.46971e-19
0
8.07385e-17
-2.40533e-16
2.75e-16
-2.19743e-16
2.1922e-16
0
7.45699e-17
-7.49116e-17
-5.56635e-17
8.23458e-17
0
3.37241e-17
-4.26365e-17
-6.29585e-18
0
-6.98979e-19
-1.36979e-18
-3.80153e-20
-7.70838e-16
3.66647e-16
0
-2.42968e-16
2.42943e-16
1.47089e-16
-9.66157e-17
3.92657e-17
0
-1.73998e-18
1.26568e-17
-1.22913e-17
-1.79425e-17
2.77377e-17
-2.94944e-17
0
6.26095e-18
-1.32422e-18
-8.49559e-19
4.73469e-16
-4.64958e-16
0
6.29882e-17
5.68547e-17
-5.171e-17
0
-4.11508e-17
-3.49288e-17
0
-1.80216e-18
0
2.04831e-17
0
0
8.87285e-18
3.3229e-17
-4.30865e-17
0
5.47291e-20
6.99516e-17
-6.40986e-17
5.15427e-17
-2.62355e-16
9.99699e-17
0
8.33194e-18
2.35594e-17
0
-2.37722e-17
6.78505e-17
-7.12808e-17
1.17393e-17
0
-1.46524e-18
0
0
0
5.66883e-20
0
5.92432e-17
0
-8.97761e-17
9.12033e-17
0
3.17563e-17
-2.51326e-17
9.05128e-17
-4.35234e-17
1.53652e-17
-2.44619e-17
2.29452e-17
-3.60574e-17
-5.71657e-18
0
-3.61212e-18
0
1.83636e-16
-3.10667e-16
0
-4.94606e-17
4.39568e-17
0
0
-5.78628e-17
0
-2.09442e-17
-3.2641e-17
-1.41221e-17
2.24276e-17
0
1.15401e-17
0
0
7.84644e-18
-8.6105e-18
0
2.6733e-16
-2.13845e-16
4.57892e-17
-4.07043e-17
-1.64173e-17
4.70557e-17
5.21478e-17
-6.26376e-17
2.01601e-17
1.68853e-18
-1.80082e-17
7.34093e-17
-2.27831e-17
-5.16946e-17
1.76788e-17
-4.45116e-18
2.67593e-18
-7.94533e-19
-4.3813e-16
1.62064e-16
0
0
1.72379e-17
-1.7529e-17
1.21525e-17
7.66624e-18
5.62712e-17
2.82567e-17
-2.77853e-17
-1.29842e-18
-1.50726e-17
1.22034e-17
0
5.79176e-18
4.07981e-18
2.14522e-18
7.18145e-19
0
1.39595e-16
-1.29417e-16
4.13319e-17
4.20038e-17
-8.07534e-18
-2.56202e-17
-2.15774e-17
-7.02058e-17
2.77647e-17
-1.63985e-17
2.28527e-17
1.40947e-17
-1.71176e-17
1.81693e-17
1.11703e-17
-1.46383e-17
-1.98143e-18
0
-2.49326e-17
-1.11065e-16
3.93809e-17
3.62416e-17
-1.23172e-16
8.76909e-17
4.25694e-17
-4.35125e-17
3.26728e-17
-2.63501e-17
0
0
-2.05809e-17
3.66857e-17
-1.6027e-17
1.4591e-17
-1.59757e-17
2.58996e-18
-4.59617e-18
4.6676e-17
4.33321e-17
-3.90994e-17
2.99766e-17
-3.53562e-17
-5.26408e-17
0
0
0
0
0
0
1.05126e-17
-2.71604e-17
2.87251e-17
-9.07174e-18
1.11968e-17
5.18259e-18
-4.38463e-18
9.69186e-17
-1.63119e-16
2.03894e-16
-9.35837e-17
1.29665e-16
-9.22282e-17
1.70925e-16
-9.54374e-17
-4.95769e-17
5.07149e-17
0
1.31391e-17
-1.02702e-17
2.44505e-17
-8.45478e-18
-1.05081e-17
-2.15434e-17
1.64234e-18
3.7157e-18
1.50954e-16
4.30726e-17
0
-6.60408e-17
-5.12901e-17
1.16728e-16
1.11229e-17
-4.57829e-17
2.69773e-17
-1.86448e-17
0
-1.04011e-17
0
-8.14949e-18
6.54286e-18
-5.8023e-18
-1.90767e-18
1.33013e-18
0
2.10674e-16
-4.55325e-17
1.90028e-16
-1.48661e-16
-2.94266e-17
1.13941e-16
-6.83261e-17
3.62088e-18
2.9479e-18
-1.81694e-17
1.74646e-17
0
0
9.99316e-18
-3.52511e-18
2.25723e-18
6.90775e-18
-2.40455e-18
0
4.39719e-20
0
-4.22516e-17
2.45239e-16
-1.65218e-16
-1.72261e-16
9.41247e-17
-9.55755e-17
8.81362e-17
4.26963e-17
-3.16327e-17
1.26786e-17
-1.11949e-17
2.02495e-18
1.78162e-17
5.68378e-19
-6.59457e-18
6.5207e-18
-1.34689e-18
5.11193e-16
-1.6272e-16
7.79747e-17
-2.4165e-16
6.51921e-17
-1.00448e-16
5.42571e-17
0
0
-2.06862e-18
-2.85244e-18
-8.41846e-19
0
-1.58025e-17
-1.18484e-17
8.61114e-18
-6.30777e-19
1.18416e-18
2.68851e-18
0
-1.61061e-16
2.70253e-16
5.86144e-17
-2.17757e-16
5.75896e-17
-8.69521e-17
1.55375e-17
6.97899e-17
0
0
1.27644e-18
1.37769e-17
0
-1.19408e-17
-5.3621e-18
7.90771e-19
-2.74549e-18
-3.18845e-18
0
-1.00743e-16
2.39563e-17
1.82239e-16
1.33888e-16
-2.44318e-16
1.10382e-16
-7.51299e-17
4.0406e-17
-5.4665e-17
0
0
0
-2.19599e-17
5.59218e-18
-7.15472e-18
0
-4.42791e-19
2.21065e-18
-3.83702e-16
3.63047e-16
3.83831e-16
-4.6556e-16
2.14527e-16
-2.01178e-16
0
7.93384e-17
-1.07951e-16
6.18804e-17
-4.74933e-17
3.83464e-17
3.08258e-17
2.27113e-17
1.77294e-17
0
0
0
0
4.26041e-16
-2.441e-16
0
0
-7.86178e-17
1.88946e-16
-1.20829e-16
-8.41662e-17
8.32174e-17
6.06789e-17
1.00765e-16
-3.97881e-17
1.70674e-17
1.27262e-17
9.26055e-18
7.69053e-18
1.23619e-17
-6.05648e-19
6.16907e-19
-4.30981e-16
3.94683e-16
2.084e-16
-1.08777e-16
2.34043e-16
-1.50037e-16
-1.16942e-16
-9.7769e-17
0
-1.27698e-16
6.72982e-18
4.6061e-17
-3.54739e-17
-2.86431e-17
-1.05701e-17
-1.09941e-17
-8.81058e-18
0
0
-1.48266e-16
0
1.13825e-16
-1.39251e-19
0
0
1.20629e-16
1.00884e-16
0
6.94486e-17
0
-6.9977e-17
-1.9698e-17
3.47961e-17
0
2.24502e-17
-3.16166e-18
3.22531e-18
0
3.16324e-16
0
2.18422e-16
-4.0399e-16
3.58374e-16
2.85744e-16
-9.49016e-18
0
7.98779e-18
8.17194e-17
0
-7.96463e-17
8.84002e-17
-7.86536e-17
-1.71355e-17
-1.79791e-17
-5.3789e-18
-9.75616e-19
-3.56437e-18
-2.92818e-16
4.21438e-16
-1.18419e-16
-3.07897e-16
-1.76838e-16
-1.51644e-16
-2.59492e-16
-1.02808e-16
8.85888e-18
3.71522e-17
-3.70824e-17
1.17245e-16
-5.18867e-17
1.03664e-16
-1.94145e-17
0
2.26119e-17
-1.34526e-17
3.57699e-18
6.50536e-16
-1.47891e-17
-4.90389e-16
4.02591e-16
-3.59803e-16
3.11335e-16
-1.05681e-17
-1.16509e-16
1.01017e-16
3.98195e-17
-5.29062e-18
-9.65253e-17
2.76551e-17
3.03008e-17
-9.02778e-18
9.13076e-18
-2.34205e-17
-2.76487e-18
-5.78273e-18
3.19355e-16
1.34216e-16
2.34844e-16
-2.05278e-16
-1.67865e-16
9.41308e-18
-1.27267e-16
3.07778e-16
1.10928e-17
1.41277e-16
8.25346e-17
-7.30599e-17
0
-5.08347e-17
0
0
3.39272e-17
1.48063e-17
6.73195e-18
2.98959e-16
0
2.31953e-16
2.03953e-16
-1.80266e-16
1.5664e-16
0
-1.20558e-16
-1.66853e-16
-1.44852e-16
-8.32651e-17
7.3886e-17
0
0
0
0
-3.18242e-17
-2.42736e-17
0
-5.85738e-16
0
-1.21368e-17
-1.0731e-17
2.74928e-16
-1.53884e-16
-7.04856e-17
-7.08561e-17
1.70341e-16
0
4.46436e-17
-4.6869e-18
4.0893e-17
0
0
5.44374e-17
-4.06708e-18
2.91571e-17
-1.13624e-17
4.11622e-16
1.18024e-16
-1.16806e-16
-1.0264e-16
-3.54201e-16
2.42476e-16
2.91845e-16
-8.68046e-18
-1.16752e-16
1.16266e-16
2.43367e-17
-1.24279e-16
-1.01197e-16
-6.26652e-17
-6.65527e-17
-6.279e-17
5.32586e-17
-2.506e-18
1.16375e-17
-1.26257e-16
5.7168e-17
-2.75034e-16
4.67874e-17
-4.66172e-17
0
-1.45398e-16
-1.1135e-17
-1.35112e-16
1.25902e-17
1.3209e-16
9.67794e-17
-2.4009e-17
9.02718e-18
6.32173e-17
0
-1.11512e-16
-4.13891e-17
-8.57908e-19
2.57764e-16
-6.97557e-18
4.32683e-16
-2.05601e-16
4.31395e-19
5.43114e-18
1.63031e-16
-1.37889e-17
1.31036e-16
-1.2267e-16
-1.15521e-16
0
1.17491e-16
9.33087e-17
1.31502e-18
-1.91439e-18
6.06121e-17
4.20678e-17
0
-1.83052e-16
0
-4.32829e-17
1.96165e-16
2.90849e-18
4.48969e-17
-1.57649e-16
1.48837e-16
1.58604e-16
1.52111e-16
1.46509e-16
0
-1.1414e-16
0
6.15182e-18
-6.38921e-18
0
-6.17021e-19
3.04609e-17
1.27235e-16
6.97779e-18
-9.96712e-17
3.08122e-16
-9.87496e-17
0
0
-1.79346e-16
-1.53671e-16
-1.47362e-16
-2.69162e-16
-3.76673e-17
0
0
0
-1.2703e-17
1.34429e-17
8.6409e-17
-3.09274e-17
7.25444e-18
0
-2.15815e-16
-1.96636e-16
2.06567e-16
-2.05179e-16
-2.93569e-16
3.58963e-16
1.00647e-16
0
1.59255e-16
1.82045e-16
-3.93074e-17
2.14082e-16
-3.5107e-17
3.65379e-17
1.42472e-16
-8.2112e-17
0
-2.42898e-16
0
-2.32182e-16
2.27375e-16
0
4.08766e-16
1.9169e-16
-4.0377e-16
3.23894e-16
-2.02644e-18
-9.77666e-17
-1.76257e-16
0
2.45204e-16
-4.10436e-16
4.4068e-16
-5.61642e-16
0
0
2.41966e-16
-1.6785e-18
-4.12938e-18
-4.58915e-16
4.63558e-16
-2.2383e-16
2.22918e-16
2.19714e-16
-1.93317e-16
0
0
3.67224e-16
-3.7355e-16
-3.9841e-16
3.95241e-16
-3.85253e-16
4.16859e-16
-6.53152e-16
0
)
;

boundaryField
{
    up
    {
        type            calculated;
        value           nonuniform List<scalar> 
84
(
0
0
0
0
-2.2115e-17
3.97635e-17
-1.6543e-17
1.16375e-17
-1.01844e-17
0
-7.55873e-18
7.1764e-18
-4.75451e-18
5.52112e-19
4.57133e-19
3.25673e-18
0
0
-1.7601e-18
1.31576e-18
1.24732e-18
-1.21114e-18
1.08659e-19
0
4.87667e-19
2.40217e-19
-4.34802e-18
0
6.13435e-18
7.57458e-18
9.99567e-19
-1.74818e-18
7.07662e-19
0
-3.46278e-19
8.34012e-19
-8.05716e-19
1.29003e-18
0
-2.31737e-19
0
0
-1.20989e-19
2.38622e-19
-2.30563e-19
4.49323e-19
-8.52951e-19
8.46971e-19
-3.80153e-20
-8.49559e-19
0
0
0
-8.6105e-18
-1.17077e-18
7.18145e-19
0
-4.59617e-18
-4.38463e-18
3.22962e-18
0
0
-1.34689e-18
2.68851e-18
-3.18845e-18
2.21065e-18
0
6.16907e-19
0
0
-3.56437e-18
3.57699e-18
-5.78273e-18
6.73195e-18
0
-1.13624e-17
1.16375e-17
-8.57908e-19
0
3.04609e-17
-3.09274e-17
0
0
0
)
;
    }
    low
    {
        type            calculated;
        value           nonuniform List<scalar> 
84
(
-4.84454e-16
4.83249e-16
-2.35643e-16
3.72613e-16
6.54664e-17
-1.70134e-17
1.42187e-16
1.58356e-17
0
5.99967e-16
-1.52046e-16
1.23625e-16
-1.38819e-16
-9.06454e-16
1.48145e-16
0
-1.37977e-16
1.23748e-17
-1.18839e-17
-1.09634e-16
5.69407e-17
1.51356e-16
2.60295e-16
-2.30676e-16
0
-4.46783e-17
-2.29837e-17
0
-2.10769e-16
-5.9883e-17
-2.02952e-16
-2.19625e-16
2.37676e-16
8.10586e-17
5.56407e-16
4.45538e-17
0
3.72306e-16
3.64034e-16
2.06604e-16
-1.09649e-16
4.45239e-17
4.45254e-17
0
1.77154e-16
4.10252e-16
3.26704e-16
3.21936e-17
0
-7.70885e-16
4.73469e-16
5.47291e-20
5.66883e-20
1.83636e-16
0
-4.37081e-16
0
-2.49326e-17
4.6676e-17
9.62925e-17
1.4986e-16
2.09659e-16
4.39719e-20
5.10361e-16
0
0
-3.83702e-16
4.25647e-16
-4.30726e-16
-1.48266e-16
3.16347e-16
-2.92818e-16
6.51652e-16
3.20139e-16
2.98959e-16
-5.85738e-16
4.10756e-16
-1.25351e-16
2.57764e-16
-1.82685e-16
1.27235e-16
7.92512e-18
-2.42898e-16
2.42149e-16
)
;
    }
    left
    {
        type            calculated;
        value           nonuniform List<scalar> 
19
(
-4.84088e-16
-2.3519e-16
2.3917e-16
5.55107e-18
-4.54721e-16
0
-2.11633e-16
-2.08692e-16
-1.509e-17
-1.10236e-16
-9.69331e-19
-1.09783e-16
4.88816e-16
-1.08706e-16
5.07719e-16
4.38311e-16
2.60763e-16
3.82604e-16
0
)
;
    }
    right
    {
        type            calculated;
        value           nonuniform List<scalar> 
19
(
2.41966e-16
-1.485e-18
-4.12938e-18
-4.58919e-16
4.63694e-16
-2.2383e-16
2.22918e-16
2.19714e-16
-1.92612e-16
0
0
3.70687e-16
-3.78413e-16
-3.9841e-16
3.95241e-16
-3.85253e-16
4.16859e-16
-7.06308e-16
0
)
;
    }
    frontAndBackPlanes
    {
        type            empty;
    }
}


// ************************************************************************* //
