/*--------------------------------*- C++ -*----------------------------------*\
  =========                 |
  \\      /  F ield         | OpenFOAM: The Open Source CFD Toolbox
   \\    /   O peration     | Website:  https://openfoam.org
    \\  /    A nd           | Version:  7
     \\/     M anipulation  |
\*---------------------------------------------------------------------------*/
FoamFile
{
    version     2.0;
    format      ascii;
    class       volScalarField;
    location    "0.22";
    object      gradTy;
}
// * * * * * * * * * * * * * * * * * * * * * * * * * * * * * * * * * * * * * //

dimensions      [0 -1 0 1 0 0 0];

internalField   nonuniform List<scalar> 
1596
(
-0.28545
-0.529789
-0.729206
-0.91969
-1.1011
-1.29719
-1.49758
-1.72934
-2.00293
-2.32598
-2.77064
-3.33667
-4.12289
-5.24553
-6.99403
-9.72382
-14.6032
-23.6053
-55.7625
-0.86901
-1.07026
-1.20527
-1.32829
-1.44577
-1.58447
-1.73609
-1.92574
-2.16365
-2.45183
-2.85078
-3.35372
-4.0269
-4.92298
-6.1905
-7.90404
-10.4534
-14.2014
-24.8388
-1.55398
-1.61954
-1.65557
-1.6979
-1.74588
-1.82265
-1.91884
-2.05654
-2.24342
-2.47767
-2.80914
-3.22477
-3.77037
-4.47003
-5.41381
-6.61245
-8.2778
-10.5617
-15.461
-2.27045
-2.15351
-2.07253
-2.02696
-2.00261
-2.01487
-2.05221
-2.13263
-2.26115
-2.43346
-2.69036
-3.0155
-3.44127
-3.97721
-4.68039
-5.5369
-6.67123
-8.14497
-10.6681
-2.92946
-2.64192
-2.44788
-2.31633
-2.22135
-2.16976
-2.14822
-2.17035
-2.23901
-2.3486
-2.53238
-2.77345
-3.0953
-3.50037
-4.02662
-4.65216
-5.45522
-6.45675
-7.91665
-3.45121
-3.05559
-2.77383
-2.56809
-2.40935
-2.29812
-2.22076
-2.18689
-2.19795
-2.24805
-2.36413
-2.53053
-2.76466
-3.06569
-3.45996
-3.92464
-4.51143
-5.22282
-6.15756
-3.79305
-3.37178
-3.04217
-2.78285
-2.57228
-2.40907
-2.28151
-2.19626
-2.15421
-2.14991
-2.20506
-2.30622
-2.46646
-2.68369
-2.97673
-3.32464
-3.76276
-4.28555
-4.93142
-3.95553
-3.57676
-3.24263
-2.956
-2.70994
-2.50567
-2.33586
-2.20571
-2.11648
-2.0638
-2.0651
-2.10961
-2.20724
-2.35565
-2.56857
-2.82791
-3.15838
-3.55144
-4.02145
-3.97295
-3.68659
-3.38481
-3.09629
-2.83138
-2.59753
-2.39358
-2.22502
-2.09434
-1.99881
-1.95257
-1.9476
-1.99152
-2.08219
-2.2298
-2.41911
-2.66755
-2.96586
-3.31819
-3.87417
-3.68682
-3.44158
-3.17556
-2.91126
-2.66308
-2.43657
-2.2391
-2.0751
-1.94388
-1.85743
-1.81029
-1.80858
-1.85065
-1.94427
-2.07691
-2.26111
-2.48802
-2.75732
-3.75076
-3.63344
-3.44473
-3.21223
-2.96125
-2.71043
-2.47097
-2.25275
-2.06256
-1.90201
-1.78187
-1.69904
-1.65872
-1.65982
-1.70842
-1.79433
-1.92658
-2.09718
-2.30382
-3.59798
-3.55235
-3.41822
-3.2228
-2.99189
-2.7461
-2.50069
-2.26802
-2.05731
-1.87257
-1.72404
-1.6108
-1.53753
-1.50378
-1.51442
-1.56123
-1.65071
-1.77585
-1.93353
-3.40848
-3.42676
-3.3458
-3.19038
-2.98537
-2.75221
-2.50858
-2.26897
-2.04476
-1.84217
-1.67156
-1.53387
-1.43369
-1.37124
-1.3506
-1.36524
-1.41994
-1.50867
-1.62809
-3.24053
-3.29499
-3.25559
-3.13624
-2.95742
-2.73983
-2.50207
-2.26022
-2.02739
-1.81172
-1.62403
-1.46685
-1.34492
-1.25906
-1.21286
-1.20115
-1.22749
-1.28673
-1.37562
-3.0853
-3.16831
-3.16055
-3.07118
-2.91615
-2.71435
-2.48429
-2.24301
-2.00493
-1.7798
-1.57903
-1.4065
-1.26721
-1.16252
-1.0957
-1.06265
-1.06606
-1.10157
-1.16614
-2.93306
-3.0436
-3.06249
-2.9982
-2.86395
-2.677
-2.45526
-2.2163
-1.97549
-1.74385
-1.53342
-1.34919
-1.19645
-1.07703
-0.993976
-0.94404
-0.929278
-0.94598
-0.991372
-2.79515
-2.92472
-2.96519
-2.92159
-2.80482
-2.63083
-2.41692
-2.18094
-1.93893
-1.70294
-1.48559
-1.29273
-1.12994
-0.99939
-0.90396
-0.841027
-0.81218
-0.814228
-0.844651
-2.67431
-2.81728
-2.8747
-2.84779
-2.74517
-2.58167
-2.37414
-2.14067
-1.89789
-1.65871
-1.43621
-1.23697
-1.06677
-0.927996
-0.823335
-0.75061
-0.711032
-0.701815
-0.720651
-2.55253
-2.71989
-2.79544
-2.78362
-2.69289
-2.53754
-2.33449
-2.10218
-1.85794
-1.61552
-1.38847
-1.18399
-1.00796
-0.862891
-0.751201
-0.670992
-0.62315
-0.605217
-0.615061
-2.42625
-2.62183
-2.71833
-2.72214
-2.6426
-2.49435
-2.29476
-2.06293
-1.81701
-1.57163
-1.3408
-1.13227
-0.951974
-0.802393
-0.685604
-0.59981
-0.545644
-0.520986
-0.523942
-2.31781
-2.53296
-2.64914
-2.66823
-2.59907
-2.45669
-2.25927
-2.02684
-1.77852
-1.5299
-1.29549
-1.08354
-0.899976
-0.747135
-0.626606
-0.53645
-0.477019
-0.446647
-0.444015
-2.22122
-2.45487
-2.58941
-2.6232
-2.56385
-2.42653
-2.23034
-1.99639
-1.74496
-1.4927
-1.25465
-1.03956
-0.853337
-0.698089
-0.574768
-0.480928
-0.416352
-0.379833
-0.371557
-2.13155
-2.38592
-2.53889
-2.58708
-2.53717
-2.4044
-2.20886
-1.97285
-1.7179
-1.46175
-1.22
-1.00191
-0.81341
-0.656389
-0.531093
-0.434139
-0.363937
-0.318649
-0.301155
-2.05122
-2.32633
-2.49654
-2.55693
-2.51397
-2.38303
-2.18576
-1.9456
-1.68554
-1.42467
-1.17852
-0.957444
-0.767144
-0.609428
-0.483694
-0.385729
-0.311136
-0.254273
-0.210827
-1.9858
-2.28016
-2.47085
-2.55075
-2.52588
-2.41031
-2.22576
-1.99495
-1.74093
-1.4834
-1.23704
-1.01358
-0.818702
-0.655482
-0.523723
-0.420395
-0.339705
-0.274387
-0.214085
-1.94007
-2.24601
-2.44887
-2.54272
-2.53299
-2.43246
-2.26182
-2.04259
-1.79704
-1.54471
-1.29937
-1.07343
-0.872931
-0.702044
-0.561746
-0.451186
-0.365659
-0.300159
-0.247391
-1.93821
-2.2459
-2.45318
-2.55479
-2.55555
-2.46759
-2.31011
-2.10352
-1.86878
-1.62447
-1.3836
-1.15794
-0.953502
-0.775189
-0.625467
-0.505429
-0.412071
-0.341567
-0.287364
-1.98528
-2.28441
-2.48622
-2.58665
-2.59052
-2.50968
-2.36202
-2.16675
-1.94332
-1.70896
-1.47543
-1.25325
-1.04759
-0.863287
-0.703944
-0.572856
-0.469268
-0.390937
-0.331784
-2.07589
-2.3605
-2.54865
-2.64016
-2.64073
-2.56215
-2.42125
-2.23591
-2.02399
-1.80122
-1.57781
-1.36267
-1.15929
-0.971388
-0.802719
-0.658755
-0.541745
-0.452167
-0.384798
-2.20715
-2.46724
-2.63417
-2.71069
-2.70315
-2.62328
-2.48695
-2.31066
-2.11066
-1.90122
-1.69094
-1.4872
-1.29123
-1.10438
-0.928765
-0.770984
-0.636667
-0.531041
-0.451278
-2.37668
-2.6029
-2.74395
-2.80162
-2.78273
-2.69898
-2.56543
-2.39717
-2.2089
-2.01365
-1.81869
-1.6304
-1.44794
-1.26948
-1.09303
-0.923417
-0.767837
-0.638471
-0.538949
-2.55922
-2.75629
-2.87085
-2.90786
-2.87589
-2.78684
-2.65506
-2.49419
-2.31742
-2.13677
-1.95859
-1.78932
-1.62718
-1.46798
-1.30391
-1.1337
-0.959096
-0.796289
-0.662253
-2.76673
-2.93116
-3.01606
-3.02991
-2.98299
-2.88723
-2.75611
-2.60165
-2.4355
-2.26868
-2.10688
-1.95755
-1.82003
-1.69082
-1.55851
-1.41492
-1.24644
-1.05705
-0.853478
-3.00845
-3.13389
-3.18597
-3.17532
-3.11334
-3.01162
-2.88225
-2.73555
-2.58141
-2.42963
-2.28556
-2.15743
-2.04743
-1.95679
-1.87831
-1.80624
-1.71931
-1.60603
-1.45242
-3.27606
-3.35685
-3.36813
-3.325
-3.23984
-3.12381
-2.98709
-2.83843
-2.68584
-2.5369
-2.39655
-2.27132
-2.16458
-2.08025
-2.01892
-1.98441
-1.97023
-1.97078
-1.97398
-3.57759
-3.59814
-3.55972
-3.47856
-3.36599
-3.23198
-3.08461
-2.93129
-2.77856
-2.63205
-2.49663
-2.37658
-2.27477
-2.19354
-2.1344
-2.09932
-2.08936
-2.10661
-2.15324
-3.90963
-3.85689
-3.76617
-3.64782
-3.50965
-3.35918
-3.20249
-3.04559
-2.89375
-2.75134
-2.62262
-2.51047
-2.41674
-2.34217
-2.28657
-2.24795
-2.2239
-2.21066
-2.2045
-4.21309
-4.09152
-3.95215
-3.79902
-3.63657
-3.46978
-3.3031
-3.14098
-2.98752
-2.84603
-2.71969
-2.61058
-2.51961
-2.4468
-2.39137
-2.35126
-2.32412
-2.30708
-2.29718
-4.4589
-4.28792
-4.11093
-3.93
-3.74783
-3.56772
-3.3928
-3.2263
-3.07134
-2.9304
-2.80587
-2.69926
-2.61099
-2.54073
-2.48751
-2.44933
-2.42388
-2.40845
-2.4002
-4.65475
-4.44501
-4.23849
-4.03574
-3.83813
-3.64757
-3.46616
-3.29615
-3.13992
-2.99929
-2.87612
-2.77155
-2.68563
-2.61783
-2.56708
-2.53135
-2.50828
-2.49526
-2.48945
-4.79701
-4.55813
-4.32938
-4.11061
-3.90191
-3.70399
-3.51809
-3.34567
-3.18861
-3.04827
-2.92616
-2.82316
-2.73913
-2.67337
-2.62471
-2.59105
-2.56994
-2.5587
-2.55446
-4.88912
-4.62257
-4.3779
-4.14933
-3.93443
-3.73263
-3.54446
-3.37091
-3.21352
-3.07345
-2.952
-2.84996
-2.76708
-2.70262
-2.65538
-2.6233
-2.60392
-2.5946
-2.59243
-4.88914
-4.62261
-4.37795
-4.14939
-3.93449
-3.7327
-3.54452
-3.37097
-3.21359
-3.07352
-2.95208
-2.85004
-2.76716
-2.70271
-2.65547
-2.6234
-2.60402
-2.59471
-2.59253
-4.79704
-4.55822
-4.3295
-4.11076
-3.90207
-3.70416
-3.51826
-3.34586
-3.1888
-3.04848
-2.92637
-2.82339
-2.73936
-2.67362
-2.62497
-2.59133
-2.57024
-2.55904
-2.55483
-4.65481
-4.44515
-4.23868
-4.03597
-3.83838
-3.64784
-3.46645
-3.29645
-3.14024
-2.99962
-2.87647
-2.77191
-2.68601
-2.61823
-2.5675
-2.5318
-2.50876
-2.49578
-2.49001
-4.45897
-4.2881
-4.11118
-3.93029
-3.74816
-3.56807
-3.39317
-3.22669
-3.07175
-2.93082
-2.80631
-2.69972
-2.61147
-2.54123
-2.48803
-2.44988
-2.42446
-2.40906
-2.40085
-4.21318
-4.09171
-3.95243
-3.79936
-3.63694
-3.47019
-3.30353
-3.14144
-2.988
-2.84653
-2.72022
-2.61112
-2.52018
-2.44739
-2.39198
-2.35189
-2.32478
-2.30776
-2.29789
-3.90972
-3.8571
-3.76647
-3.64818
-3.51006
-3.35963
-3.20298
-3.04611
-2.89429
-2.75191
-2.62321
-2.51108
-2.41737
-2.34281
-2.28722
-2.24859
-2.22452
-2.21126
-2.20508
-3.5777
-3.59839
-3.56009
-3.47904
-3.36656
-3.23264
-3.08534
-2.9321
-2.77944
-2.633
-2.49766
-2.37771
-2.27599
-2.19484
-2.13579
-2.10073
-2.09069
-2.10766
-2.15374
-3.27613
-3.35689
-3.36819
-3.32509
-3.23995
-3.12395
-2.98725
-2.83859
-2.686
-2.53703
-2.39662
-2.27131
-2.16444
-2.07994
-2.01842
-1.98378
-1.9697
-1.97081
-1.97528
-3.00848
-3.13403
-3.18623
-3.17571
-3.11388
-3.01232
-2.88311
-2.73655
-2.58255
-2.43089
-2.28693
-2.15891
-2.04905
-1.95862
-1.88048
-1.80897
-1.72289
-1.61069
-1.45831
-2.76674
-2.93118
-3.01615
-3.03009
-2.98327
-2.88763
-2.75662
-2.60227
-2.43621
-2.26947
-2.10776
-1.9585
-1.82111
-1.69206
-1.55999
-1.41669
-1.24842
-1.059
-0.854943
-2.55922
-2.7563
-2.87091
-2.908
-2.87615
-2.78721
-2.65556
-2.4948
-2.31813
-2.13757
-1.95949
-1.7903
-1.62828
-1.46921
-1.30527
-1.13513
-0.960473
-0.797465
-0.663176
-2.37667
-2.60289
-2.74397
-2.80172
-2.78294
-2.69931
-2.56588
-2.39773
-2.20957
-2.01441
-1.81953
-1.63133
-1.44894
-1.27056
-1.09414
-0.924489
-0.768792
-0.639266
-0.539595
-2.20714
-2.46721
-2.63417
-2.71076
-2.70332
-2.62357
-2.48736
-2.31118
-2.11128
-1.90192
-1.69172
-1.48804
-1.29212
-1.10529
-0.929648
-0.771793
-0.637365
-0.531624
-0.45177
-2.07587
-2.36046
-2.54862
-2.6402
-2.64086
-2.5624
-2.42162
-2.23639
-2.02456
-1.80187
-1.57851
-1.36341
-1.16005
-0.972139
-0.803422
-0.65938
-0.542281
-0.452621
-0.385195
-1.98527
-2.28436
-2.48619
-2.58668
-2.59063
-2.50989
-2.36234
-2.16717
-1.94383
-1.70953
-1.47605
-1.25389
-1.04823
-0.863904
-0.704508
-0.573351
-0.469694
-0.391307
-0.332123
-1.93819
-2.24585
-2.45314
-2.5548
-2.55564
-2.46778
-2.31039
-2.10389
-1.86923
-1.62498
-1.38415
-1.15849
-0.954043
-0.775696
-0.625924
-0.505829
-0.412421
-0.341884
-0.287675
-1.94005
-2.24595
-2.44881
-2.5427
-2.53303
-2.43256
-2.262
-2.04284
-1.79735
-1.54506
-1.29974
-1.07381
-0.873294
-0.702377
-0.562039
-0.45144
-0.365884
-0.300383
-0.247669
-1.98584
-2.28018
-2.47088
-2.5508
-2.52596
-2.41043
-2.22592
-1.99516
-1.74117
-1.48368
-1.23734
-1.01389
-0.819013
-0.655787
-0.524013
-0.420668
-0.339957
-0.274611
-0.214261
-2.05127
-2.32637
-2.49656
-2.55693
-2.51394
-2.38296
-2.18566
-1.94547
-1.6854
-1.42452
-1.17837
-0.9573
-0.767011
-0.609309
-0.483587
-0.38563
-0.31104
-0.254172
-0.210702
-2.13158
-2.38594
-2.53891
-2.58709
-2.53718
-2.40441
-2.20886
-1.97285
-1.71789
-1.46174
-1.22
-1.00192
-0.813414
-0.656396
-0.531104
-0.434152
-0.363952
-0.318667
-0.301172
-2.22124
-2.45488
-2.58942
-2.6232
-2.56385
-2.42652
-2.23032
-1.99637
-1.74494
-1.49269
-1.25464
-1.03955
-0.853334
-0.698091
-0.574774
-0.480936
-0.416363
-0.379845
-0.371568
-2.31782
-2.53297
-2.64915
-2.66823
-2.59906
-2.45667
-2.25926
-2.02683
-1.7785
-1.52989
-1.29548
-1.08353
-0.899975
-0.747137
-0.626611
-0.536457
-0.477027
-0.446656
-0.444023
-2.42627
-2.62184
-2.71833
-2.72213
-2.6426
-2.49434
-2.29474
-2.06292
-1.817
-1.57162
-1.3408
-1.13227
-0.951974
-0.802395
-0.685608
-0.599816
-0.54565
-0.520993
-0.523948
-2.55253
-2.71989
-2.79544
-2.78362
-2.69288
-2.53753
-2.33448
-2.10217
-1.85793
-1.61551
-1.38847
-1.18399
-1.00796
-0.862893
-0.751204
-0.670996
-0.623155
-0.605222
-0.615065
-2.67432
-2.81729
-2.8747
-2.84778
-2.74517
-2.58166
-2.37413
-2.14066
-1.89789
-1.6587
-1.43621
-1.23697
-1.06677
-0.927997
-0.823337
-0.750613
-0.711035
-0.701818
-0.720654
-2.79515
-2.92472
-2.96519
-2.92159
-2.80481
-2.63083
-2.41691
-2.18093
-1.93893
-1.70294
-1.48559
-1.29273
-1.12994
-0.99939
-0.903961
-0.841029
-0.812181
-0.814228
-0.844651
-2.93306
-3.0436
-3.06249
-2.9982
-2.86395
-2.67699
-2.45526
-2.2163
-1.97548
-1.74384
-1.53342
-1.34919
-1.19645
-1.07703
-0.993976
-0.944041
-0.929277
-0.945978
-0.991369
-3.0853
-3.1683
-3.16055
-3.07118
-2.91615
-2.71435
-2.48429
-2.24301
-2.00493
-1.7798
-1.57903
-1.4065
-1.26721
-1.16252
-1.0957
-1.06265
-1.06606
-1.10157
-1.16614
-3.24053
-3.29498
-3.25559
-3.13624
-2.95742
-2.73983
-2.50208
-2.26022
-2.02739
-1.81172
-1.62402
-1.46685
-1.34492
-1.25906
-1.21286
-1.20115
-1.22748
-1.28672
-1.37562
-3.40847
-3.42675
-3.3458
-3.19038
-2.98537
-2.75221
-2.50858
-2.26897
-2.04476
-1.84217
-1.67156
-1.53387
-1.43369
-1.37124
-1.3506
-1.36523
-1.41993
-1.50866
-1.62808
-3.59797
-3.55235
-3.41822
-3.2228
-2.99189
-2.7461
-2.50069
-2.26802
-2.05731
-1.87257
-1.72404
-1.6108
-1.53753
-1.50378
-1.51442
-1.56122
-1.6507
-1.77584
-1.93352
-3.75075
-3.63343
-3.44474
-3.21223
-2.96126
-2.71043
-2.47097
-2.25275
-2.06256
-1.90201
-1.78187
-1.69904
-1.65871
-1.65982
-1.70841
-1.79432
-1.92657
-2.09717
-2.30382
-3.87416
-3.68683
-3.44159
-3.17557
-2.91127
-2.66309
-2.43658
-2.23911
-2.07511
-1.94388
-1.85743
-1.81029
-1.80857
-1.85064
-1.94426
-2.0769
-2.2611
-2.48801
-2.75732
-3.97295
-3.6866
-3.38482
-3.0963
-2.83139
-2.59754
-2.39358
-2.22503
-2.09435
-1.99881
-1.95257
-1.9476
-1.99151
-2.08218
-2.22979
-2.4191
-2.66754
-2.96585
-3.31819
-3.95554
-3.57677
-3.24264
-2.95601
-2.70994
-2.50567
-2.33586
-2.20571
-2.11648
-2.0638
-2.0651
-2.10961
-2.20723
-2.35564
-2.56857
-2.8279
-3.15838
-3.55143
-4.02145
-3.79306
-3.37179
-3.04218
-2.78285
-2.57229
-2.40907
-2.28152
-2.19626
-2.15421
-2.14991
-2.20506
-2.30622
-2.46645
-2.68369
-2.97672
-3.32463
-3.76275
-4.28555
-4.93143
-3.45123
-3.0556
-2.77383
-2.5681
-2.40936
-2.29813
-2.22077
-2.18689
-2.19795
-2.24805
-2.36413
-2.53053
-2.76465
-3.06569
-3.45996
-3.92464
-4.51143
-5.22283
-6.15757
-2.92948
-2.64193
-2.44789
-2.31633
-2.22136
-2.16977
-2.14822
-2.17035
-2.23901
-2.3486
-2.53238
-2.77345
-3.0953
-3.50036
-4.02661
-4.65216
-5.45522
-6.45676
-7.91665
-2.27047
-2.15352
-2.07253
-2.02696
-2.00262
-2.01488
-2.05221
-2.13264
-2.26115
-2.43346
-2.69036
-3.0155
-3.44127
-3.9772
-4.68039
-5.5369
-6.67124
-8.14498
-10.6681
-1.55399
-1.61954
-1.65558
-1.69791
-1.74589
-1.82265
-1.91884
-2.05654
-2.24342
-2.47767
-2.80914
-3.22476
-3.77036
-4.47002
-5.4138
-6.61245
-8.27781
-10.5617
-15.461
-0.869015
-1.07026
-1.20527
-1.32829
-1.44577
-1.58447
-1.73609
-1.92574
-2.16365
-2.45183
-2.85078
-3.35372
-4.02689
-4.92298
-6.1905
-7.90403
-10.4534
-14.2014
-24.8387
-0.285452
-0.52979
-0.729206
-0.91969
-1.1011
-1.29719
-1.49758
-1.72934
-2.00294
-2.32598
-2.77064
-3.33666
-4.12289
-5.24553
-6.99402
-9.72381
-14.6032
-23.6053
-55.7625
)
;

boundaryField
{
    up
    {
        type            calculated;
        value           nonuniform List<scalar> 
84
(
-50.5321
-27.3681
-16.7939
-11.4489
-8.42046
-6.50795
-5.18841
-4.21674
-3.46929
-2.87589
-2.39685
-2.00617
-1.68469
-1.41928
-1.19945
-1.01649
-0.863332
-0.734306
-0.624795
-0.530713
-0.448515
-0.373889
-0.297959
-0.18903
-0.182799
-0.232144
-0.271918
-0.314645
-0.364945
-0.42742
-0.508169
-0.615067
-0.780018
-1.43691
-2.02843
-2.18745
-2.20063
-2.29289
-2.39707
-2.48774
-2.55364
-2.59281
-2.59291
-2.55403
-2.48831
-2.39773
-2.29362
-2.20121
-2.18747
-2.02983
-1.44377
-0.781386
-0.615879
-0.508771
-0.42789
-0.36533
-0.314978
-0.27223
-0.23251
-0.183025
-0.188893
-0.297973
-0.373899
-0.448523
-0.530718
-0.624798
-0.734307
-0.863332
-1.01648
-1.19944
-1.41928
-1.68468
-2.00617
-2.39685
-2.87589
-3.4693
-4.21676
-5.18842
-6.50797
-8.42047
-11.4489
-16.7939
-27.3681
-50.5321
)
;
    }
    low
    {
        type            calculated;
        value           nonuniform List<scalar> 
84
(
-0.306334
-0.908109
-1.63893
-2.4136
-3.12763
-3.68631
-4.03695
-4.18344
-4.15609
-3.99943
-3.84555
-3.6632
-3.43326
-3.24303
-3.07493
-2.90501
-2.75164
-2.62615
-2.49477
-2.34685
-2.22166
-2.11206
-2.00661
-1.91151
-1.8203
-1.76338
-1.76374
-1.82904
-1.94327
-2.10434
-2.30035
-2.50056
-2.72857
-2.99418
-3.28162
-3.60955
-3.97829
-4.30519
-4.56509
-4.77285
-4.92471
-5.03018
-5.03019
-4.92472
-4.77288
-4.56513
-4.30523
-3.97834
-3.60962
-3.2816
-2.99422
-2.72855
-2.50055
-2.30034
-2.10433
-1.94326
-1.82904
-1.76374
-1.76339
-1.82032
-1.91157
-2.00662
-2.11208
-2.22167
-2.34686
-2.49478
-2.62615
-2.75164
-2.90501
-3.07492
-3.24302
-3.43325
-3.66318
-3.84553
-3.99942
-4.15608
-4.18344
-4.03697
-3.68633
-3.12765
-2.41362
-1.63895
-0.908117
-0.306337
)
;
    }
    left
    {
        type            calculated;
        value           nonuniform List<scalar> 
19
(
-0.280002
-0.519853
-0.723138
-0.919883
-1.1088
-1.31284
-1.52205
-1.76487
-2.05217
-2.3957
-2.87108
-3.48135
-4.33878
-5.58248
-7.53717
-10.6386
-16.2469
-26.7158
-52.4116
)
;
    }
    right
    {
        type            calculated;
        value           nonuniform List<scalar> 
19
(
-0.280004
-0.519854
-0.723139
-0.919883
-1.1088
-1.31284
-1.52205
-1.76487
-2.05217
-2.3957
-2.87107
-3.48134
-4.33877
-5.58247
-7.53716
-10.6386
-16.2469
-26.7158
-52.4116
)
;
    }
    frontAndBackPlanes
    {
        type            empty;
    }
}


// ************************************************************************* //
