/*--------------------------------*- C++ -*----------------------------------*\
  =========                 |
  \\      /  F ield         | OpenFOAM: The Open Source CFD Toolbox
   \\    /   O peration     | Website:  https://openfoam.org
    \\  /    A nd           | Version:  7
     \\/     M anipulation  |
\*---------------------------------------------------------------------------*/
FoamFile
{
    version     2.0;
    format      ascii;
    class       volScalarField;
    location    "0.3";
    object      gradTy;
}
// * * * * * * * * * * * * * * * * * * * * * * * * * * * * * * * * * * * * * //

dimensions      [0 -1 0 1 0 0 0];

internalField   nonuniform List<scalar> 
1596
(
-0.477722
-0.889961
-1.23339
-1.57103
-1.90501
-2.2783
-2.67549
-3.14638
-3.71269
-4.39048
-5.31617
-6.4926
-8.11077
-10.3997
-13.9332
-19.4212
-29.197
-47.2091
-111.524
-1.4568
-1.80391
-2.05155
-2.29214
-2.53726
-2.83324
-3.16658
-3.58192
-4.09879
-4.72173
-5.56296
-6.61231
-7.99678
-9.82059
-12.3773
-15.8184
-20.9213
-28.4149
-49.6829
-2.61022
-2.73689
-2.82963
-2.94851
-3.09167
-3.29793
-3.55066
-3.88784
-4.32311
-4.853
-5.56823
-6.44601
-7.57307
-8.99748
-10.8965
-13.2961
-16.618
-21.1708
-30.9509
-3.82273
-3.64801
-3.55287
-3.53454
-3.56697
-3.67478
-3.83657
-4.08232
-4.41987
-4.84058
-5.41715
-6.12012
-7.00959
-8.10497
-9.51765
-11.2255
-13.4751
-16.3959
-21.4108
-4.94544
-4.4854
-4.20531
-4.04914
-3.96976
-3.9764
-4.04375
-4.19351
-4.42897
-4.73876
-5.1808
-5.72421
-6.41151
-7.24796
-8.30653
-9.54957
-11.1308
-13.0987
-15.9764
-5.84231
-5.19857
-4.7723
-4.49438
-4.31123
-4.22063
-4.19611
-4.25191
-4.38835
-4.59325
-4.91237
-5.31684
-5.83719
-6.47209
-7.27087
-8.19402
-9.34164
-10.7253
-12.5458
-6.43769
-5.74756
-5.23939
-4.87124
-4.6015
-4.42404
-4.31516
-4.28359
-4.32826
-4.43761
-4.64752
-4.93292
-5.31593
-5.79245
-6.39654
-7.09202
-7.94587
-8.95307
-10.1937
-6.72807
-6.10735
-5.58904
-5.1729
-4.84193
-4.59406
-4.41268
-4.30366
-4.26623
-4.2906
-4.40479
-4.58836
-4.85743
-5.2071
-5.66119
-6.1885
-6.83448
-7.58737
-8.47875
-6.76789
-6.30336
-5.83757
-5.41568
-5.0506
-4.75068
-4.50963
-4.33355
-4.22355
-4.17252
-4.20266
-4.2982
-4.47107
-4.71652
-5.05135
-5.44919
-5.941
-6.51262
-7.17488
-6.60385
-6.30928
-5.93828
-5.55211
-5.18528
-4.8582
-4.57605
-4.34797
-4.17829
-4.06336
-4.02167
-4.04189
-4.13336
-4.2921
-4.53035
-4.82623
-5.20109
-5.64065
-6.14618
-6.39167
-6.21999
-5.94586
-5.61553
-5.26929
-4.93513
-4.62807
-4.3615
-4.1438
-3.97526
-3.87238
-3.82801
-3.85003
-3.93554
-4.09377
-4.30664
-4.58899
-4.92722
-5.31812
-6.1233
-6.07871
-5.89997
-5.63328
-5.32043
-4.99311
-4.67355
-4.37936
-4.12314
-3.9093
-3.75373
-3.65313
-3.61482
-3.63715
-3.72747
-3.87093
-4.07786
-4.3358
-4.63951
-5.7871
-5.85646
-5.77185
-5.57515
-5.30687
-5.00023
-4.6818
-4.37284
-4.08974
-3.84085
-3.64247
-3.49486
-3.40555
-3.37435
-3.40769
-3.49356
-3.63947
-3.83421
-4.07167
-5.48397
-5.61978
-5.61043
-5.47857
-5.25705
-4.97759
-4.66839
-4.35332
-4.05186
-3.77577
-3.54248
-3.35534
-3.22263
-3.14565
-3.13057
-3.16777
-3.26299
-3.40629
-3.59137
-5.20013
-5.38845
-5.43777
-5.36153
-5.18422
-4.93391
-4.63845
-4.32308
-4.00955
-3.71248
-3.45066
-3.23018
-3.06038
-2.94407
-2.88755
-2.8833
-2.93602
-3.037
-3.18012
-4.92037
-5.15793
-5.257
-5.22864
-5.09164
-4.87038
-4.59116
-4.27967
-3.95911
-3.64638
-3.36163
-3.11339
-2.91212
-2.76217
-2.67026
-2.63077
-2.64786
-2.71399
-2.82339
-4.66507
-4.93591
-5.07541
-5.08765
-4.98624
-4.79217
-4.52976
-4.22453
-3.90051
-3.5763
-3.27328
-3.00201
-2.77417
-2.59549
-2.47332
-2.40377
-2.39089
-2.4282
-2.51031
-4.43978
-4.73286
-4.90406
-4.94999
-4.87916
-4.70922
-4.46256
-4.16416
-3.83849
-3.50545
-3.18742
-2.89672
-2.64607
-2.44248
-2.29399
-2.19834
-2.15976
-2.17287
-2.23268
-4.21517
-4.547
-4.7506
-4.82712
-4.78339
-4.63467
-4.40194
-4.10959
-3.78245
-3.44156
-3.1101
-2.80197
-2.53076
-2.30457
-2.13209
-2.01258
-1.95084
-1.94274
-1.98383
-3.98611
-4.3612
-4.60034
-4.70739
-4.68942
-4.56063
-4.34114
-4.05497
-3.72729
-3.38009
-3.03731
-2.71412
-2.42488
-2.17847
-1.98406
-1.8422
-1.75873
-1.73132
-1.75658
-3.79015
-4.19312
-4.46459
-4.6008
-4.60694
-4.4964
-4.28878
-4.00807
-3.6798
-3.32689
-2.97395
-2.63728
-2.33181
-2.06687
-1.85166
-1.68748
-1.58133
-1.53367
-1.54392
-3.61763
-4.04606
-4.34677
-4.51041
-4.53933
-4.44576
-4.24898
-3.9731
-3.64415
-3.28592
-2.92366
-2.5747
-2.25446
-1.97245
-1.73734
-1.54994
-1.4175
-1.34383
-1.33541
-3.46054
-3.91793
-4.24743
-4.4373
-4.48783
-4.41022
-4.22356
-3.95223
-3.62279
-3.2598
-2.8891
-2.52896
-2.19536
-1.89798
-1.64458
-1.4338
-1.27007
-1.1568
-1.11291
-3.32294
-3.80992
-4.16619
-4.37813
-4.44526
-4.37793
-4.19621
-3.92465
-3.59073
-3.22021
-2.8382
-2.46527
-2.11768
-1.80584
-1.5363
-1.30587
-1.11095
-0.942501
-0.795339
-3.21358
-3.72817
-4.11529
-4.35886
-4.45839
-4.42235
-4.27066
-4.02578
-3.71398
-3.36081
-2.98807
-2.6181
-2.26645
-1.94636
-1.66518
-1.42292
-1.21142
-1.0156
-0.808587
-3.14003
-3.67077
-4.07377
-4.33595
-4.45699
-4.44446
-4.31726
-4.09612
-3.80536
-3.46917
-3.10597
-2.73786
-2.38001
-2.04761
-1.75089
-1.49636
-1.27995
-1.09496
-0.926286
-3.14244
-3.67691
-4.08599
-4.35836
-4.49379
-4.50031
-4.3955
-4.19919
-3.93359
-3.62044
-3.2756
-2.91787
-2.56087
-2.22021
-1.90926
-1.63924
-1.41118
-1.22212
-1.06014
-3.22964
-3.75458
-4.15647
-4.42611
-4.56418
-4.57981
-4.48994
-4.3138
-4.07187
-3.78339
-3.4613
-3.12016
-2.77008
-2.42493
-2.09992
-1.81108
-1.56554
-1.36467
-1.19856
-3.39399
-3.90231
-4.28559
-4.54101
-4.67138
-4.68735
-4.60573
-4.44537
-4.22532
-3.96275
-3.66765
-3.35008
-3.01487
-2.67142
-2.33392
-2.02267
-1.75236
-1.53131
-1.35242
-3.63237
-4.10913
-4.46219
-4.69357
-4.80793
-4.81735
-4.73884
-4.59087
-4.39141
-4.15617
-3.89273
-3.60736
-3.2987
-2.96866
-2.62565
-2.29099
-1.9874
-1.73495
-1.53316
-3.94286
-4.37275
-4.68762
-4.88806
-4.98034
-4.97797
-4.8984
-4.75966
-4.57883
-4.37094
-4.14224
-3.89716
-3.62907
-3.33087
-2.99894
-2.64782
-2.30286
-2.00094
-1.75852
-4.28532
-4.67497
-4.94914
-5.11411
-5.18001
-5.16216
-5.07847
-4.94627
-4.78182
-4.60005
-4.40707
-4.20839
-3.9958
-3.75576
-3.469
-3.13214
-2.75454
-2.38101
-2.06196
-4.68131
-5.02285
-5.24888
-5.37223
-5.40697
-5.36982
-5.27866
-5.14963
-4.99781
-4.83797
-4.67667
-4.5231
-4.37288
-4.21472
-4.02048
-3.76801
-3.42575
-3.00334
-2.52125
-5.14822
-5.42802
-5.59789
-5.6753
-5.67726
-5.62118
-5.52384
-5.39968
-5.26205
-5.12481
-4.99533
-4.88607
-4.80058
-4.74032
-4.68908
-4.63198
-4.51962
-4.32153
-4.00382
-5.67428
-5.87954
-5.97716
-5.99319
-5.94708
-5.85628
-5.73491
-5.5954
-5.44839
-5.30406
-5.16952
-5.05412
-4.96421
-4.90785
-4.88818
-4.9153
-4.97921
-5.06878
-5.1599
-6.27469
-6.37525
-6.38368
-6.32878
-6.22871
-6.09919
-5.95106
-5.79483
-5.63885
-5.49002
-5.35559
-5.24053
-5.14986
-5.08766
-5.0583
-5.06642
-5.11863
-5.22193
-5.38633
-6.94211
-6.90998
-6.82213
-6.69719
-6.54723
-6.38359
-6.21379
-6.04581
-5.88586
-5.73875
-5.61039
-5.50313
-5.41966
-5.36033
-5.32507
-5.30924
-5.31026
-5.32095
-5.33603
-7.56672
-7.40367
-7.22221
-7.02896
-6.82961
-6.63063
-6.4365
-6.25229
-6.08207
-5.92878
-5.79609
-5.68499
-5.59621
-5.52876
-5.48134
-5.44982
-5.43181
-5.42281
-5.41959
-8.08747
-7.82465
-7.5671
-7.31674
-7.07551
-6.84625
-6.63099
-6.43231
-6.25252
-6.09307
-5.95604
-5.84168
-5.74974
-5.67887
-5.62747
-5.59211
-5.57033
-5.55842
-5.55326
-8.50907
-8.16491
-7.84562
-7.54907
-7.27403
-7.02031
-6.78786
-6.57728
-6.38947
-6.22481
-6.08427
-5.96768
-5.87419
-5.80227
-5.75012
-5.71465
-5.69316
-5.68228
-5.67885
-8.81692
-8.4107
-8.0444
-7.71351
-7.41388
-7.14268
-6.89807
-6.67913
-6.48577
-6.31764
-6.17496
-6.05734
-5.96354
-5.8919
-5.84038
-5.806
-5.78568
-5.77605
-5.7737
-9.01139
-8.54943
-8.15045
-7.79888
-7.48559
-7.2051
-6.95424
-6.73111
-6.53504
-6.36529
-6.22174
-6.10389
-6.01035
-5.93943
-5.88908
-5.85647
-5.83847
-5.83177
-5.83288
-9.01144
-8.54952
-8.15056
-7.79899
-7.48571
-7.20522
-6.95436
-6.73123
-6.53516
-6.36542
-6.22186
-6.10402
-6.01048
-5.93956
-5.88921
-5.85661
-5.83861
-5.83192
-5.83303
-8.817
-8.41088
-8.04464
-7.71379
-7.41418
-7.14299
-6.89839
-6.67946
-6.4861
-6.31798
-6.1753
-6.0577
-5.96391
-5.89228
-5.84078
-5.80643
-5.78615
-5.77656
-5.77426
-8.50919
-8.16519
-7.846
-7.54951
-7.2745
-7.02081
-6.78837
-6.5778
-6.39
-6.22536
-6.08483
-5.96826
-5.87479
-5.80289
-5.75077
-5.71533
-5.69389
-5.68306
-5.67967
-8.08763
-7.82501
-7.56758
-7.31729
-7.07611
-6.84689
-6.63165
-6.43299
-6.25321
-6.09377
-5.95675
-5.84241
-5.75048
-5.67962
-5.62824
-5.59289
-5.57113
-5.55925
-5.55411
-7.56689
-7.40406
-7.22275
-7.02959
-6.83031
-6.63137
-6.43727
-6.25309
-6.0829
-5.92963
-5.79695
-5.68586
-5.59709
-5.52965
-5.48221
-5.45069
-5.43267
-5.42366
-5.42043
-6.9423
-6.9104
-6.82271
-6.69787
-6.548
-6.38441
-6.21465
-6.04671
-5.88679
-5.73971
-5.61137
-5.50412
-5.42064
-5.36127
-5.32595
-5.31003
-5.31092
-5.32146
-5.33639
-6.2749
-6.37573
-6.38438
-6.32966
-6.22976
-6.10038
-5.95239
-5.7963
-5.64046
-5.49177
-5.35751
-5.24263
-5.15216
-5.09013
-5.06092
-5.06901
-5.12091
-5.22339
-5.38621
-5.67442
-5.87963
-5.97726
-5.9933
-5.9472
-5.85638
-5.73498
-5.59541
-5.4483
-5.30383
-5.16909
-5.05341
-4.9631
-4.90623
-4.886
-4.91263
-4.97662
-5.06738
-5.16151
-5.14829
-5.42826
-5.5983
-5.67591
-5.67809
-5.62224
-5.52512
-5.40119
-5.26378
-5.12676
-4.99751
-4.88852
-4.80339
-4.74369
-4.6934
-4.63783
-4.52774
-4.33255
-4.01811
-4.68134
-5.02288
-5.24899
-5.37246
-5.40733
-5.37033
-5.27932
-5.15043
-4.99876
-4.83907
-4.67793
-4.52458
-4.37469
-4.21703
-4.0235
-3.77186
-3.43025
-3.00787
-2.52461
-4.28533
-4.67497
-4.9492
-5.11428
-5.18032
-5.16264
-5.07912
-4.94708
-4.78281
-4.60122
-4.40845
-4.21005
-3.99781
-3.7582
-3.47189
-3.13532
-2.75768
-2.38372
-2.06412
-3.94286
-4.37273
-4.68764
-4.88817
-4.98058
-4.97837
-4.89898
-4.76042
-4.57977
-4.37209
-4.14361
-3.89879
-3.63099
-3.33308
-3.00134
-2.65023
-2.30506
-2.0028
-1.76008
-3.63237
-4.10908
-4.46217
-4.69363
-4.80811
-4.81769
-4.73935
-4.59157
-4.3923
-4.15726
-3.89403
-3.60888
-3.30043
-2.97055
-2.62757
-2.29283
-1.98903
-1.73636
-1.5344
-3.39397
-3.90224
-4.28553
-4.54102
-4.67151
-4.68763
-4.60619
-4.446
-4.22614
-3.96376
-3.66885
-3.35146
-3.01639
-2.673
-2.33548
-2.02411
-1.75365
-1.53245
-1.35347
-3.22963
-3.75451
-4.15639
-4.42609
-4.56427
-4.58004
-4.49034
-4.31437
-4.07261
-3.78431
-3.46238
-3.12137
-2.77137
-2.42625
-2.10119
-1.81225
-1.56659
-1.36564
-1.1995
-3.14243
-3.67683
-4.08591
-4.35832
-4.49384
-4.50049
-4.39584
-4.19969
-3.93426
-3.62125
-3.27655
-2.91892
-2.56196
-2.2213
-1.9103
-1.6402
-1.41207
-1.22299
-1.06106
-3.14001
-3.67068
-4.07366
-4.33586
-4.45696
-4.44452
-4.31744
-4.09641
-3.80576
-3.46968
-3.10658
-2.73852
-2.38068
-2.04826
-1.75148
-1.4969
-1.28047
-1.09556
-0.927152
-3.21366
-3.72823
-4.11536
-4.35895
-4.45854
-4.42256
-4.27096
-4.02618
-3.71447
-3.3614
-2.98874
-2.61884
-2.26723
-1.94716
-1.66597
-1.42371
-1.21217
-1.0163
-0.809176
-3.32303
-3.81001
-4.16625
-4.37816
-4.44525
-4.37786
-4.19609
-3.92448
-3.59052
-3.21997
-2.83792
-2.46498
-2.11738
-1.80554
-1.53599
-1.30555
-1.1106
-0.942118
-0.794888
-3.46061
-3.91799
-4.24748
-4.43735
-4.48787
-4.41024
-4.22357
-3.95224
-3.62279
-3.25979
-2.88909
-2.52896
-2.19535
-1.89798
-1.64458
-1.43381
-1.27009
-1.15684
-1.11295
-3.61768
-4.0461
-4.34681
-4.51043
-4.53934
-4.44575
-4.24897
-3.97308
-3.64412
-3.28589
-2.92363
-2.57467
-2.25444
-1.97244
-1.73734
-1.54994
-1.41752
-1.34386
-1.33544
-3.79019
-4.19315
-4.46462
-4.60081
-4.60694
-4.49639
-4.28876
-4.00804
-3.67977
-3.32687
-2.97393
-2.63726
-2.3318
-2.06686
-1.85166
-1.68749
-1.58135
-1.53368
-1.54394
-3.98614
-4.36123
-4.60036
-4.7074
-4.68942
-4.56062
-4.34113
-4.05495
-3.72727
-3.38007
-3.03729
-2.71411
-2.42487
-2.17847
-1.98406
-1.84221
-1.75874
-1.73133
-1.75659
-4.21519
-4.54701
-4.75061
-4.82712
-4.78339
-4.63466
-4.40193
-4.10957
-3.78243
-3.44155
-3.11009
-2.80196
-2.53075
-2.30457
-2.13209
-2.01258
-1.95085
-1.94275
-1.98384
-4.4398
-4.73288
-4.90406
-4.94999
-4.87916
-4.70921
-4.46255
-4.16415
-3.83847
-3.50544
-3.18741
-2.89671
-2.64607
-2.44248
-2.294
-2.19834
-2.15977
-2.17287
-2.23268
-4.66508
-4.93591
-5.07541
-5.08764
-4.98623
-4.79216
-4.52975
-4.22452
-3.9005
-3.57629
-3.27327
-3.00201
-2.77417
-2.59549
-2.47332
-2.40377
-2.39089
-2.4282
-2.51031
-4.92038
-5.15793
-5.257
-5.22864
-5.09164
-4.87038
-4.59115
-4.27966
-3.9591
-3.64638
-3.36163
-3.11338
-2.91212
-2.76217
-2.67026
-2.63077
-2.64786
-2.71399
-2.82338
-5.20012
-5.38845
-5.43776
-5.36153
-5.18422
-4.93391
-4.63844
-4.32308
-4.00954
-3.71248
-3.45065
-3.23018
-3.06038
-2.94407
-2.88754
-2.8833
-2.93602
-3.037
-3.18011
-5.48397
-5.61978
-5.61043
-5.47857
-5.25705
-4.97759
-4.66839
-4.35332
-4.05186
-3.77577
-3.54248
-3.35534
-3.22263
-3.14565
-3.13057
-3.16777
-3.26298
-3.40628
-3.59136
-5.7871
-5.85646
-5.77186
-5.57515
-5.30687
-5.00024
-4.68181
-4.37284
-4.08975
-3.84085
-3.64247
-3.49486
-3.40555
-3.37435
-3.40769
-3.49356
-3.63946
-3.83419
-4.07166
-6.12329
-6.07871
-5.89997
-5.63328
-5.32043
-4.99311
-4.67355
-4.37936
-4.12313
-3.9093
-3.75373
-3.65313
-3.61482
-3.63714
-3.72746
-3.87091
-4.07785
-4.33578
-4.6395
-6.39165
-6.21999
-5.94587
-5.61554
-5.2693
-4.93513
-4.62808
-4.36151
-4.1438
-3.97526
-3.87238
-3.82801
-3.85003
-3.93553
-4.09376
-4.30663
-4.58898
-4.92721
-5.31811
-6.60385
-6.30929
-5.93829
-5.55212
-5.18529
-4.85821
-4.57606
-4.34797
-4.1783
-4.06336
-4.02166
-4.04188
-4.13335
-4.2921
-4.53034
-4.82622
-5.20108
-5.64064
-6.14618
-6.76789
-6.30338
-5.83758
-5.41569
-5.0506
-4.75069
-4.50963
-4.33356
-4.22355
-4.17252
-4.20266
-4.2982
-4.47107
-4.71651
-5.05134
-5.44918
-5.94099
-6.51262
-7.17489
-6.72808
-6.10737
-5.58905
-5.17292
-4.84193
-4.59407
-4.41268
-4.30366
-4.26623
-4.2906
-4.40479
-4.58836
-4.85742
-5.20709
-5.66118
-6.18849
-6.83448
-7.58736
-8.47876
-6.43771
-5.74758
-5.2394
-4.87125
-4.60151
-4.42404
-4.31516
-4.28359
-4.32827
-4.43761
-4.64751
-4.93292
-5.31593
-5.79244
-6.39653
-7.09202
-7.94587
-8.95308
-10.1937
-5.84234
-5.19859
-4.77231
-4.49439
-4.31124
-4.22063
-4.19611
-4.25191
-4.38836
-4.59325
-4.91236
-5.31684
-5.83719
-6.47208
-7.27086
-8.19402
-9.34165
-10.7253
-12.5458
-4.94547
-4.48542
-4.20532
-4.04915
-3.96977
-3.97641
-4.04376
-4.19351
-4.42897
-4.73876
-5.18079
-5.72421
-6.4115
-7.24796
-8.30652
-9.54957
-11.1308
-13.0987
-15.9764
-3.82275
-3.64802
-3.55288
-3.53455
-3.56697
-3.67479
-3.83658
-4.08233
-4.41987
-4.84058
-5.41715
-6.12011
-7.00959
-8.10497
-9.51765
-11.2255
-13.4751
-16.3959
-21.4108
-2.61023
-2.7369
-2.82964
-2.94852
-3.09167
-3.29794
-3.55066
-3.88785
-4.32311
-4.853
-5.56822
-6.44601
-7.57306
-8.99748
-10.8965
-13.2961
-16.618
-21.1708
-30.9509
-1.45681
-1.80391
-2.05155
-2.29214
-2.53727
-2.83325
-3.16658
-3.58193
-4.09879
-4.72173
-5.56295
-6.6123
-7.99678
-9.82058
-12.3773
-15.8184
-20.9213
-28.4149
-49.6829
-0.477725
-0.889962
-1.23339
-1.57103
-1.90501
-2.2783
-2.67549
-3.14638
-3.71269
-4.39048
-5.31617
-6.4926
-8.11076
-10.3997
-13.9332
-19.4212
-29.197
-47.2091
-111.524
)
;

boundaryField
{
    up
    {
        type            calculated;
        value           nonuniform List<scalar> 
84
(
-101.062
-54.7343
-33.603
-22.9525
-16.9595
-13.2195
-10.6803
-8.84388
-7.45516
-6.36612
-5.49219
-4.77792
-4.18274
-3.68053
-3.25163
-2.88068
-2.5561
-2.26909
-2.01255
-1.77923
-1.56158
-1.34716
-1.10473
-0.715972
-0.695028
-0.876597
-1.01336
-1.14975
-1.29888
-1.4718
-1.68214
-1.94666
-2.34362
-3.99349
-5.32974
-5.48992
-5.33674
-5.41603
-5.55029
-5.67766
-5.77362
-5.83502
-5.83517
-5.77421
-5.67852
-5.55116
-5.41689
-5.33706
-5.48851
-5.33154
-4.0103
-2.34674
-1.94856
-1.68361
-1.473
-1.29992
-1.1507
-1.01431
-0.877801
-0.695821
-0.715499
-1.10478
-1.34719
-1.56159
-1.77925
-2.01256
-2.26909
-2.5561
-2.88068
-3.25162
-3.68052
-4.18274
-4.77792
-5.49219
-6.36613
-7.45517
-8.84389
-10.6803
-13.2195
-16.9595
-22.9525
-33.603
-54.7343
-101.062
)
;
    }
    low
    {
        type            calculated;
        value           nonuniform List<scalar> 
84
(
-0.512159
-1.52039
-2.74927
-4.05852
-5.27367
-6.23364
-6.8453
-7.10993
-7.07434
-6.81153
-6.54621
-6.22578
-5.819
-5.47633
-5.16942
-4.85916
-4.57772
-4.34488
-4.10526
-3.84182
-3.61994
-3.42792
-3.24688
-3.08676
-2.93678
-2.8459
-2.85162
-2.96707
-3.16782
-3.45274
-3.80445
-4.17426
-4.60322
-5.10992
-5.66976
-6.31651
-7.04999
-7.71893
-8.26838
-8.71483
-9.0428
-9.26322
-9.26326
-9.04284
-8.71489
-8.26847
-7.71902
-7.05009
-6.31664
-5.66974
-5.11
-4.60319
-4.17425
-3.80444
-3.45274
-3.16782
-2.96709
-2.85164
-2.84593
-2.93683
-3.08687
-3.24692
-3.42797
-3.61998
-3.84185
-4.10528
-4.3449
-4.57773
-4.85916
-5.16941
-5.47632
-5.81899
-6.22576
-6.54618
-6.81152
-7.07433
-7.10994
-6.84533
-6.23367
-5.2737
-4.05856
-2.74929
-1.52041
-0.512162
)
;
    }
    left
    {
        type            calculated;
        value           nonuniform List<scalar> 
19
(
-0.468476
-0.8729
-1.22254
-1.5706
-1.91756
-2.30524
-2.71932
-3.21232
-3.80697
-4.52736
-5.51667
-6.7845
-8.54792
-11.0812
-15.0285
-21.2597
-32.4918
-53.4349
-104.825
)
;
    }
    right
    {
        type            calculated;
        value           nonuniform List<scalar> 
19
(
-0.468478
-0.872902
-1.22254
-1.5706
-1.91756
-2.30524
-2.71932
-3.21232
-3.80697
-4.52736
-5.51667
-6.7845
-8.54791
-11.0812
-15.0285
-21.2597
-32.4918
-53.4349
-104.825
)
;
    }
    frontAndBackPlanes
    {
        type            empty;
    }
}


// ************************************************************************* //
