/*--------------------------------*- C++ -*----------------------------------*\
  =========                 |
  \\      /  F ield         | OpenFOAM: The Open Source CFD Toolbox
   \\    /   O peration     | Website:  https://openfoam.org
    \\  /    A nd           | Version:  7
     \\/     M anipulation  |
\*---------------------------------------------------------------------------*/
FoamFile
{
    version     2.0;
    format      ascii;
    class       volScalarField;
    location    "0.07";
    object      gradTy;
}
// * * * * * * * * * * * * * * * * * * * * * * * * * * * * * * * * * * * * * //

dimensions      [0 -1 0 1 0 0 0];

internalField   nonuniform List<scalar> 
1596
(
-1.12456
-2.04863
-2.73358
-3.30198
-3.74901
-4.16124
-4.5022
-4.85371
-5.22802
-5.62232
-6.19205
-6.89679
-7.93081
-9.50502
-12.1435
-16.4569
-24.4334
-39.3593
-92.942
-3.36052
-4.023
-4.32308
-4.47348
-4.52349
-4.58969
-4.65373
-4.78964
-5.00515
-5.27762
-5.73792
-6.3385
-7.21672
-8.47364
-10.3969
-13.1108
-17.2998
-23.5516
-41.3357
-5.82902
-5.87925
-5.67836
-5.38698
-5.05308
-4.79203
-4.59218
-4.51562
-4.56125
-4.69374
-5.01546
-5.46966
-6.15409
-7.11986
-8.5572
-10.479
-13.2735
-17.171
-25.4817
-8.18031
-7.51165
-6.79417
-6.08193
-5.3985
-4.84081
-4.40026
-4.12429
-4.00402
-3.99625
-4.17463
-4.4778
-4.97229
-5.68218
-6.74112
-8.12293
-10.0738
-12.6775
-17.1014
-10.0792
-8.83663
-7.68839
-6.62007
-5.64038
-4.82618
-4.17409
-3.71793
-3.44394
-3.30544
-3.34908
-3.51352
-3.83958
-4.33549
-5.0981
-6.09292
-7.49142
-9.32037
-12.0039
-11.3294
-9.80912
-8.38544
-7.0576
-5.84786
-4.82336
-3.99156
-3.37711
-2.96513
-2.70923
-2.63253
-2.67647
-2.86039
-3.18183
-3.70991
-4.41338
-5.41835
-6.7336
-8.52452
-11.9257
-10.4225
-8.8992
-7.42305
-6.05621
-4.87111
-3.89276
-3.14314
-2.61022
-2.25118
-2.07027
-2.01296
-2.08099
-2.26365
-2.60697
-3.08554
-3.79294
-4.73544
-5.9874
-11.9983
-10.6994
-9.226
-7.70956
-6.25989
-4.96633
-3.87661
-3.01687
-2.38164
-1.93436
-1.66572
-1.52568
-1.5022
-1.57792
-1.77917
-2.08529
-2.56352
-3.22177
-4.1014
-11.7329
-10.7403
-9.41565
-7.94065
-6.46773
-5.1091
-3.93726
-2.98839
-2.26654
-1.74322
-1.40079
-1.19347
-1.09906
-1.09484
-1.19078
-1.36879
-1.67386
-2.11452
-2.71825
-11.2454
-10.5316
-9.40088
-8.03141
-6.59463
-5.22192
-4.00734
-3.00025
-2.21575
-1.63456
-1.2356
-0.977264
-0.830843
-0.769728
-0.79126
-0.878194
-1.05741
-1.33619
-1.7345
-10.7933
-10.2421
-9.27503
-8.02365
-6.65089
-5.296
-4.06747
-3.02712
-2.20072
-1.57807
-1.13797
-0.842639
-0.659724
-0.56011
-0.532067
-0.558139
-0.651123
-0.815338
-1.06473
-10.3438
-9.94587
-9.11406
-7.97022
-6.66639
-5.34301
-4.11657
-3.05909
-2.20555
-1.55377
-1.08441
-0.762885
-0.555065
-0.430307
-0.370773
-0.358322
-0.395543
-0.483221
-0.629916
-9.85682
-9.58723
-8.87291
-7.82874
-6.5978
-5.31969
-4.11359
-3.05862
-2.19652
-1.53145
-1.04688
-0.710906
-0.489058
-0.35009
-0.272528
-0.237645
-0.241279
-0.281082
-0.36118
-9.47708
-9.25655
-8.6155
-7.64452
-6.47386
-5.24017
-4.06159
-3.02102
-2.16394
-1.49853
-1.01068
-0.670335
-0.4434
-0.298589
-0.212543
-0.166247
-0.151476
-0.163534
-0.203197
-9.1656
-8.97581
-8.37291
-7.44564
-6.31636
-5.11866
-3.96794
-2.94798
-2.10522
-1.44945
-0.967927
-0.631511
-0.40662
-0.262227
-0.17423
-0.123655
-0.100131
-0.0975075
-0.11433
-8.88471
-8.7289
-8.14621
-7.23938
-6.13289
-4.96068
-3.8354
-2.83969
-2.01845
-1.38078
-0.913842
-0.588513
-0.371602
-0.232504
-0.147106
-0.0968083
-0.0703829
-0.0609958
-0.0659354
-8.65972
-8.51842
-7.93821
-7.03109
-5.9293
-4.77098
-3.66715
-2.69778
-1.90394
-1.29173
-0.84665
-0.538653
-0.334715
-0.204761
-0.125173
-0.0780409
-0.0521183
-0.040476
-0.0398645
-8.493
-8.35507
-7.761
-6.83413
-5.71919
-4.56201
-3.47374
-2.53057
-1.76779
-1.18644
-0.768673
-0.482731
-0.295448
-0.177352
-0.105643
-0.0633746
-0.0397951
-0.028277
-0.0255014
-8.32375
-8.23479
-7.63054
-6.67167
-5.52731
-4.35701
-3.27523
-2.35428
-1.62235
-1.07376
-0.685804
-0.42428
-0.255507
-0.1506
-0.0877357
-0.0510869
-0.0306705
-0.0203854
-0.0171045
-8.13419
-8.12243
-7.52111
-6.52749
-5.34403
-4.151
-3.06977
-2.16911
-1.46898
-0.95543
-0.599692
-0.364538
-0.215611
-0.124693
-0.0711283
-0.0403788
-0.0234166
-0.0148099
-0.0117683
-7.98672
-8.03825
-7.44046
-6.40739
-5.1755
-3.95049
-2.8638
-1.98108
-1.31293
-0.835742
-0.513586
-0.305772
-0.177173
-0.100367
-0.0560374
-0.0310683
-0.0175003
-0.0106467
-0.00812128
-7.85455
-7.98125
-7.3909
-6.31652
-5.02985
-3.76529
-2.66734
-1.79922
-1.16163
-0.720332
-0.431461
-0.250583
-0.141758
-0.078459
-0.0428109
-0.0231811
-0.0127142
-0.00748223
-0.00552019
-7.71284
-7.93761
-7.36736
-6.2562
-4.91332
-3.60459
-2.49029
-1.63249
-1.02222
-0.61434
-0.35671
-0.201027
-0.1105
-0.0595143
-0.0316466
-0.016717
-0.00893782
-0.005096
-0.00362818
-7.56083
-7.89401
-7.35518
-6.21454
-4.81854
-3.46472
-2.33154
-1.48072
-0.894566
-0.517375
-0.288569
-0.156211
-0.0825295
-0.0427842
-0.0219403
-0.0112214
-0.00583107
-0.00321265
-0.00207589
-7.41602
-7.86816
-7.40951
-6.29977
-4.89864
-3.52041
-2.36112
-1.49036
-0.893034
-0.511855
-0.282791
-0.151923
-0.0798547
-0.0413637
-0.0213064
-0.0110559
-0.00589822
-0.00335992
-0.00210716
-7.29309
-7.84302
-7.47775
-6.43689
-5.06768
-3.68532
-2.49892
-1.59222
-0.961165
-0.55395
-0.307026
-0.165242
-0.0869444
-0.0450901
-0.0232691
-0.0121353
-0.00654773
-0.00382948
-0.00254847
-7.26676
-7.8473
-7.54392
-6.57024
-5.24726
-3.87793
-2.6748
-1.73376
-1.06383
-0.622292
-0.34926
-0.189864
-0.100622
-0.0524078
-0.0270686
-0.0140914
-0.00759526
-0.00448138
-0.00306039
-7.35509
-7.89572
-7.61113
-6.6908
-5.42157
-4.08166
-2.87651
-1.90872
-1.20004
-0.719279
-0.413162
-0.229436
-0.123843
-0.0654106
-0.0340058
-0.0176285
-0.00933852
-0.00539098
-0.00364021
-7.53823
-7.99808
-7.69936
-6.81779
-5.60409
-4.30441
-3.10915
-2.12218
-1.37608
-0.852249
-0.506262
-0.290808
-0.162255
-0.0883891
-0.0470851
-0.0246632
-0.0128501
-0.00707163
-0.00448802
-7.80454
-8.14503
-7.80978
-6.95663
-5.79837
-4.54612
-3.37074
-2.37279
-1.59299
-1.02493
-0.634205
-0.380427
-0.222159
-0.126902
-0.0708048
-0.0385121
-0.0202695
-0.0107008
-0.00614708
-8.14572
-8.34557
-7.96607
-7.13448
-6.02759
-4.82316
-3.67169
-2.66764
-1.85704
-1.24422
-0.804839
-0.506709
-0.31194
-0.188842
-0.112217
-0.0650811
-0.0359724
-0.0190115
-0.01002
-8.47795
-8.57512
-8.16318
-7.35383
-6.29611
-5.13927
-4.01469
-3.00922
-2.1718
-1.51558
-1.0256
-0.678564
-0.441322
-0.28426
-0.181405
-0.114206
-0.0686806
-0.0383964
-0.0197699
-8.8464
-8.85036
-8.40686
-7.61509
-6.60119
-5.48997
-4.39484
-3.39381
-2.53602
-1.84102
-1.30179
-0.90398
-0.620132
-0.424227
-0.290641
-0.199927
-0.134123
-0.0843274
-0.0444817
-9.28473
-9.19483
-8.71736
-7.93802
-6.96323
-5.89668
-4.83449
-3.84489
-2.97479
-2.24754
-1.66272
-1.21396
-0.880274
-0.640839
-0.472616
-0.357373
-0.27429
-0.210967
-0.15618
-9.76509
-9.57672
-9.04274
-8.24884
-7.28853
-6.24988
-5.21312
-4.23708
-3.364
-2.6171
-2.00053
-1.51229
-1.13707
-0.858677
-0.658385
-0.521137
-0.428538
-0.367635
-0.324409
-10.316
-9.98862
-9.36271
-8.51984
-7.5414
-6.50359
-5.47396
-4.50385
-3.63055
-2.87492
-2.24341
-1.73496
-1.33748
-1.03701
-0.817676
-0.665502
-0.565404
-0.506801
-0.47924
-10.943
-10.4482
-9.71591
-8.80894
-7.79479
-6.73924
-5.70087
-4.72538
-3.84629
-3.08237
-2.44073
-1.92053
-1.51109
-1.19955
-0.971229
-0.811756
-0.705951
-0.641658
-0.606647
-11.4983
-10.8595
-10.0333
-9.06678
-8.01707
-6.94181
-5.89296
-4.91131
-4.0272
-3.25747
-2.60901
-2.08116
-1.66401
-1.34546
-1.11167
-0.948519
-0.841075
-0.776993
-0.743711
-11.9237
-11.196
-10.3039
-9.29231
-8.21408
-7.12204
-6.06365
-5.07617
-4.18751
-3.41298
-2.75932
-2.22589
-1.80337
-1.48021
-1.24331
-1.07861
-0.971455
-0.909208
-0.878929
-12.2571
-11.4632
-10.5209
-9.47404
-8.37289
-7.267
-6.20053
-5.20816
-4.31597
-3.53803
-2.88094
-2.34401
-1.91829
-1.59262
-1.3544
-1.18959
-1.08371
-1.0239
-0.996924
-12.5013
-11.6569
-10.6754
-9.60152
-8.48307
-7.3669
-6.29461
-5.29893
-4.40462
-3.62482
-2.966
-2.42737
-2.00022
-1.67359
-1.43523
-1.27103
-1.16665
-1.10897
-1.08454
-12.6741
-11.7707
-10.7569
-9.66472
-8.53594
-7.41429
-6.33936
-5.34258
-4.44787
-3.66784
-3.00882
-2.46996
-2.04265
-1.71605
-1.4781
-1.31469
-1.21158
-1.15558
-1.13314
-12.6741
-11.7708
-10.7571
-9.66489
-8.53614
-7.4145
-6.33958
-5.3428
-4.44809
-3.66804
-3.00901
-2.47014
-2.04281
-1.71621
-1.47825
-1.31483
-1.21172
-1.15573
-1.1333
-12.5013
-11.6572
-10.6757
-9.60196
-8.48358
-7.36747
-6.29522
-5.29955
-4.40523
-3.62541
-2.96656
-2.42789
-2.0007
-1.67405
-1.43566
-1.27145
-1.16707
-1.10941
-1.08502
-12.2572
-11.4636
-10.5214
-9.47474
-8.37372
-7.26792
-6.20152
-5.20916
-4.31696
-3.53898
-2.88183
-2.34484
-1.91905
-1.59333
-1.35507
-1.19023
-1.08436
-1.02457
-0.997635
-11.9238
-11.1964
-10.3046
-9.29322
-8.21517
-7.12327
-6.06496
-5.0775
-4.18882
-3.41424
-2.76049
-2.22697
-1.80435
-1.48111
-1.24415
-1.07941
-0.972242
-0.910011
-0.879776
-11.4985
-10.86
-10.0341
-9.06786
-8.01838
-6.9433
-5.89455
-4.91294
-4.0288
-3.25899
-2.61042
-2.08244
-1.66517
-1.3465
-1.11263
-0.949413
-0.841941
-0.777865
-0.744622
-10.9432
-10.4487
-9.7168
-8.81015
-7.79628
-6.74095
-5.70271
-4.72726
-3.84814
-3.08411
-2.44232
-1.92196
-1.51235
-1.20067
-0.972227
-0.812669
-0.706813
-0.642501
-0.607504
-10.3162
-9.98929
-9.36384
-8.52141
-7.54336
-6.50586
-5.47641
-4.50635
-3.63299
-2.8772
-2.24547
-1.73679
-1.33908
-1.0384
-0.818907
-0.666605
-0.566414
-0.507738
-0.480117
-9.76523
-9.57692
-9.04326
-8.24983
-7.29002
-6.25183
-5.21541
-4.23954
-3.36646
-2.61942
-2.00261
-1.51408
-1.13855
-0.859861
-0.659314
-0.521867
-0.429187
-0.36839
-0.325524
-9.28484
-9.19549
-8.71872
-7.94017
-6.96614
-5.9002
-4.83837
-3.84887
-2.97864
-2.25107
-1.66582
-1.2166
-0.882469
-0.642649
-0.474132
-0.358707
-0.275574
-0.212341
-0.157758
-8.84641
-8.85065
-8.40772
-7.61664
-6.6034
-5.49268
-4.39782
-3.3968
-2.53881
-1.84348
-1.30383
-0.905616
-0.621406
-0.425214
-0.29143
-0.200608
-0.134746
-0.0848737
-0.0448636
-8.47791
-8.57533
-8.16396
-7.35532
-6.29826
-5.14189
-4.0175
-3.01196
-2.17427
-1.51767
-1.02726
-0.679837
-0.442269
-0.284963
-0.181948
-0.114655
-0.0690637
-0.0386826
-0.0199024
-8.14564
-8.3457
-7.96676
-7.13588
-6.02962
-4.82561
-3.67427
-2.67007
-1.85916
-1.24594
-0.806149
-0.507667
-0.31262
-0.189326
-0.112573
-0.0653551
-0.036183
-0.019149
-0.0100583
-7.80445
-8.14509
-7.81039
-6.95793
-5.80028
-4.54839
-3.37306
-2.37492
-1.59477
-1.02632
-0.635219
-0.381137
-0.222641
-0.12723
-0.0710321
-0.0386725
-0.0203778
-0.0107605
-0.00615236
-7.5381
-7.99808
-7.69987
-6.81897
-5.60583
-4.30645
-3.11119
-2.124
-1.37754
-0.853348
-0.507034
-0.291326
-0.162593
-0.0886079
-0.0472274
-0.0247542
-0.0129032
-0.00709514
-0.00448448
-7.35497
-7.8957
-7.61159
-6.69187
-5.42313
-4.08345
-2.87825
-1.91022
-1.20121
-0.720128
-0.413738
-0.229808
-0.124077
-0.0655551
-0.0340937
-0.0176794
-0.00936424
-0.00540003
-0.00363705
-7.26664
-7.84728
-7.54434
-6.57119
-5.24861
-3.87944
-2.67623
-1.73496
-1.06474
-0.622935
-0.349685
-0.190131
-0.100785
-0.0525046
-0.0271242
-0.0141212
-0.00760894
-0.00448613
-0.00306028
-7.29298
-7.84301
-7.47809
-6.43764
-5.06872
-3.68646
-2.49999
-1.5931
-0.961825
-0.554407
-0.307323
-0.165426
-0.087054
-0.0451533
-0.0233038
-0.012153
-0.0065557
-0.00383293
-0.00255067
-7.4161
-7.86824
-7.40969
-6.30004
-4.89899
-3.52078
-2.36146
-1.49065
-0.89326
-0.512017
-0.282901
-0.151994
-0.0798983
-0.0413896
-0.0213209
-0.0110636
-0.00590227
-0.00336229
-0.00210765
-7.56092
-7.89404
-7.35509
-6.21431
-4.81823
-3.46438
-2.33123
-1.48046
-0.894363
-0.517227
-0.288467
-0.156142
-0.0824848
-0.0427557
-0.0219223
-0.0112101
-0.00582406
-0.00320825
-0.00207163
-7.7129
-7.93764
-7.36735
-6.25617
-4.9133
-3.60459
-2.49031
-1.63251
-1.02225
-0.614361
-0.356723
-0.201034
-0.110502
-0.0595138
-0.0316452
-0.0167154
-0.00893643
-0.00509494
-0.00362676
-7.85459
-7.98127
-7.39088
-6.31648
-5.02981
-3.76528
-2.66734
-1.79923
-1.16164
-0.720342
-0.431468
-0.250587
-0.14176
-0.0784593
-0.0428105
-0.0231804
-0.0127137
-0.00748186
-0.00551955
-7.98676
-8.03827
-7.44045
-6.40736
-5.17548
-3.95048
-2.8638
-1.98109
-1.31294
-0.835748
-0.513591
-0.305776
-0.177175
-0.100369
-0.0560381
-0.0310686
-0.0175006
-0.0106472
-0.0081215
-8.13421
-8.12245
-7.5211
-6.52747
-5.34401
-4.15099
-3.06976
-2.16911
-1.46898
-0.95543
-0.599694
-0.364541
-0.215613
-0.124695
-0.0711297
-0.0403799
-0.0234179
-0.0148119
-0.0117699
-8.32377
-8.2348
-7.63053
-6.67166
-5.52731
-4.35701
-3.27523
-2.35427
-1.62235
-1.07376
-0.685803
-0.424281
-0.25551
-0.150603
-0.0877376
-0.0510887
-0.0306732
-0.0203899
-0.0171088
-8.49301
-8.35507
-7.761
-6.83413
-5.71919
-4.56201
-3.47374
-2.53056
-1.76778
-1.18644
-0.768669
-0.482731
-0.295449
-0.177353
-0.105645
-0.0633772
-0.0398003
-0.0282861
-0.0255106
-8.65971
-8.51842
-7.93822
-7.03111
-5.92931
-4.77099
-3.66715
-2.69777
-1.90393
-1.29172
-0.846644
-0.53865
-0.334714
-0.204762
-0.125175
-0.0780447
-0.0521279
-0.0404932
-0.0398815
-8.88469
-8.72889
-8.14622
-7.2394
-6.13291
-4.96069
-3.83539
-2.83968
-2.01844
-1.38076
-0.913833
-0.588508
-0.3716
-0.232502
-0.147107
-0.096814
-0.0703998
-0.0610256
-0.0659634
-9.16558
-8.9758
-8.37292
-7.44567
-6.31638
-5.11868
-3.96793
-2.94797
-2.1052
-1.44943
-0.967915
-0.631502
-0.406613
-0.262222
-0.174229
-0.123664
-0.10016
-0.0975546
-0.11437
-9.47705
-9.25654
-8.61551
-7.64455
-6.47389
-5.24018
-4.06158
-3.02101
-2.16392
-1.49851
-1.01066
-0.670321
-0.443388
-0.298579
-0.212541
-0.166263
-0.151519
-0.1636
-0.203246
-9.8568
-9.58722
-8.87293
-7.82877
-6.59783
-5.31971
-4.11359
-3.05861
-2.1965
-1.53143
-1.04687
-0.710887
-0.489039
-0.350076
-0.272528
-0.237669
-0.241337
-0.281161
-0.361224
-10.3438
-9.94585
-9.11407
-7.97025
-6.66642
-5.34302
-4.11657
-3.05907
-2.20553
-1.55375
-1.08438
-0.762859
-0.555039
-0.430289
-0.370777
-0.358357
-0.39561
-0.483293
-0.629931
-10.7932
-10.2421
-9.27505
-8.02368
-6.65092
-5.29601
-4.06747
-3.02711
-2.20071
-1.57805
-1.13794
-0.842606
-0.659695
-0.560094
-0.532079
-0.558181
-0.651181
-0.815372
-1.06469
-11.2454
-10.5316
-9.40091
-8.03144
-6.59464
-5.22192
-4.00734
-3.00023
-2.21572
-1.63453
-1.23557
-0.977227
-0.830815
-0.76972
-0.791281
-0.878234
-1.05743
-1.33615
-1.7344
-11.7329
-10.7403
-9.41568
-7.94066
-6.46773
-5.10909
-3.93724
-2.98836
-2.26652
-1.74319
-1.40076
-1.19343
-1.09904
-1.09485
-1.19081
-1.36881
-1.67382
-2.11439
-2.71809
-11.9983
-10.6994
-9.22603
-7.70956
-6.25988
-4.96631
-3.87659
-3.01684
-2.38161
-1.93433
-1.66569
-1.52566
-1.5022
-1.57794
-1.7792
-2.08528
-2.56341
-3.22156
-4.10123
-11.9257
-10.4226
-8.89922
-7.42305
-6.0562
-4.87109
-3.89274
-3.14312
-2.61019
-2.25116
-2.07026
-2.01297
-2.08102
-2.26369
-2.60699
-3.0855
-3.79277
-4.73519
-5.9873
-11.3294
-9.80917
-8.38546
-7.0576
-5.84785
-4.82335
-3.99155
-3.3771
-2.96512
-2.70923
-2.63255
-2.67651
-2.86044
-3.18188
-3.70992
-4.41331
-5.41818
-6.73341
-8.52452
-10.0792
-8.83665
-7.68841
-6.62009
-5.64039
-4.82619
-4.1741
-3.71793
-3.44395
-3.30546
-3.34912
-3.51358
-3.83965
-4.33554
-5.09809
-6.09283
-7.49129
-9.32029
-12.0041
-8.18032
-7.51164
-6.79418
-6.08195
-5.39853
-4.84084
-4.40028
-4.12431
-4.00405
-3.9963
-4.17469
-4.47788
-4.97236
-5.68221
-6.74109
-8.12284
-10.0737
-12.6776
-17.1016
-5.82901
-5.87921
-5.67835
-5.387
-5.05311
-4.79207
-4.59221
-4.51565
-4.5613
-4.6938
-5.01554
-5.46974
-6.15415
-7.11987
-8.55715
-10.4789
-13.2735
-17.1711
-25.4818
-3.36052
-4.02295
-4.32305
-4.47347
-4.5235
-4.58971
-4.65376
-4.78967
-5.00519
-5.27768
-5.73799
-6.33857
-7.21676
-8.47363
-10.3968
-13.1107
-17.2998
-23.5517
-41.3357
-1.12457
-2.04862
-2.73356
-3.30195
-3.749
-4.16124
-4.5022
-4.85373
-5.22805
-5.62236
-6.19209
-6.89683
-7.93082
-9.50499
-12.1434
-16.4568
-24.4333
-39.3594
-92.942
)
;

boundaryField
{
    up
    {
        type            calculated;
        value           nonuniform List<scalar> 
84
(
-84.2447
-45.6178
-27.8153
-18.5432
-12.9872
-9.23078
-6.4999
-4.46646
-2.96859
-1.89866
-1.16651
-0.689315
-0.393748
-0.219763
-0.121998
-0.0690012
-0.0407316
-0.0254211
-0.016683
-0.011282
-0.00768281
-0.0051643
-0.00333115
-0.00173318
-0.00168194
-0.00224958
-0.00272995
-0.00322211
-0.00384054
-0.00493873
-0.00743151
-0.0133878
-0.0306351
-0.142955
-0.319869
-0.474291
-0.59583
-0.73398
-0.870725
-0.990322
-1.07917
-1.12876
-1.12892
-1.07966
-0.991056
-0.871596
-0.734917
-0.5967
-0.475112
-0.321076
-0.144764
-0.0309945
-0.0134453
-0.00741564
-0.00491272
-0.00382085
-0.00321131
-0.00272653
-0.00225189
-0.00168235
-0.00172823
-0.00332917
-0.00516331
-0.00768264
-0.0112831
-0.0166865
-0.0254288
-0.0407458
-0.0690238
-0.122028
-0.219793
-0.39376
-0.689284
-1.16641
-1.8985
-2.96841
-4.46634
-6.49991
-9.23097
-12.9875
-18.5435
-27.8154
-45.6177
-84.2445
)
;
    }
    low
    {
        type            calculated;
        value           nonuniform List<scalar> 
84
(
-1.21121
-3.52802
-6.17601
-8.73462
-10.805
-12.1426
-12.7245
-12.7122
-12.2946
-11.6371
-11.1104
-10.5948
-10.0109
-9.58565
-9.25294
-8.93265
-8.67181
-8.4999
-8.30415
-8.04315
-7.83515
-7.64859
-7.43719
-7.21635
-6.95797
-6.77395
-6.74766
-6.90702
-7.18708
-7.5709
-8.014
-8.40883
-8.8413
-9.3478
-9.87992
-10.4989
-11.2196
-11.8271
-12.2777
-12.6322
-12.894
-13.098
-13.098
-12.8941
-12.6323
-12.2778
-11.8272
-11.2197
-10.4991
-9.87982
-9.3479
-8.84118
-8.40873
-8.01388
-7.57079
-7.18696
-6.90693
-6.74758
-6.7739
-6.95797
-7.2165
-7.43717
-7.64862
-7.83518
-8.04316
-8.30416
-8.49991
-8.67181
-8.93263
-9.25291
-9.58562
-10.0108
-10.5948
-11.1103
-11.637
-12.2946
-12.7122
-12.7245
-12.1426
-10.805
-8.73466
-6.17605
-3.52806
-1.21123
)
;
    }
    left
    {
        type            calculated;
        value           nonuniform List<scalar> 
19
(
-1.10739
-2.02267
-2.73064
-3.32895
-3.80571
-4.2437
-4.60591
-4.9782
-5.37182
-5.79236
-6.40074
-7.15874
-8.287
-10.0381
-12.9986
-17.9197
-27.1132
-44.5
-87.3386
)
;
    }
    right
    {
        type            calculated;
        value           nonuniform List<scalar> 
19
(
-1.1074
-2.02266
-2.73062
-3.32893
-3.8057
-4.2437
-4.60592
-4.97822
-5.37184
-5.79239
-6.40078
-7.15877
-8.28699
-10.0381
-12.9985
-17.9195
-27.1131
-44.5001
-87.3387
)
;
    }
    frontAndBackPlanes
    {
        type            empty;
    }
}


// ************************************************************************* //
