/*--------------------------------*- C++ -*----------------------------------*\
  =========                 |
  \\      /  F ield         | OpenFOAM: The Open Source CFD Toolbox
   \\    /   O peration     | Website:  https://openfoam.org
    \\  /    A nd           | Version:  7
     \\/     M anipulation  |
\*---------------------------------------------------------------------------*/
FoamFile
{
    version     2.0;
    format      ascii;
    class       volScalarField;
    location    "0.099";
    object      gradTx;
}
// * * * * * * * * * * * * * * * * * * * * * * * * * * * * * * * * * * * * * //

dimensions      [0 -1 0 1 0 0 0];

internalField   nonuniform List<scalar> 
1596
(
-0.0810513
-0.4061
-0.719987
-0.989215
-1.20759
-1.37248
-1.49367
-1.57831
-1.6361
-1.68284
-1.72395
-1.77722
-1.86189
-2.00362
-2.23079
-2.60652
-3.22242
-4.2716
-6.15173
0.021032
-0.329125
-0.635643
-0.8901
-1.09525
-1.25105
-1.36648
-1.44603
-1.49777
-1.5312
-1.54939
-1.563
-1.57744
-1.60014
-1.63284
-1.67591
-1.70768
-1.67912
-1.48087
0.1062
-0.250341
-0.539422
-0.772377
-0.958465
-1.1005
-1.20627
-1.27922
-1.32538
-1.35079
-1.35706
-1.35045
-1.3317
-1.30248
-1.26103
-1.20338
-1.113
-0.958522
-0.67311
0.124333
-0.195279
-0.44766
-0.649244
-0.810156
-0.934286
-1.02761
-1.09288
-1.13435
-1.15572
-1.15804
-1.14469
-1.11477
-1.06766
-1.00096
-0.910675
-0.786628
-0.611656
-0.34822
0.0551988
-0.182043
-0.377307
-0.537224
-0.667066
-0.76942
-0.847772
-0.904025
-0.940835
-0.960178
-0.962908
-0.950429
-0.921373
-0.874088
-0.806198
-0.713948
-0.591253
-0.429121
-0.207573
-0.0902613
-0.218537
-0.34209
-0.451939
-0.545562
-0.622433
-0.683161
-0.728438
-0.759436
-0.77674
-0.781027
-0.772354
-0.749239
-0.709544
-0.650965
-0.569742
-0.461823
-0.32211
-0.140046
-0.279655
-0.300537
-0.348262
-0.403607
-0.457399
-0.505562
-0.545965
-0.577834
-0.600953
-0.614747
-0.61955
-0.614503
-0.598092
-0.567967
-0.52187
-0.455947
-0.36696
-0.251309
-0.10296
-0.473045
-0.409079
-0.388597
-0.391142
-0.40471
-0.422733
-0.441072
-0.457538
-0.470713
-0.479072
-0.482429
-0.479319
-0.468176
-0.44661
-0.412419
-0.361751
-0.291633
-0.198858
-0.0792919
-0.669537
-0.551811
-0.475189
-0.42772
-0.399742
-0.384505
-0.377157
-0.374518
-0.374235
-0.373979
-0.372859
-0.368919
-0.360413
-0.344932
-0.320302
-0.282795
-0.229488
-0.157148
-0.0622108
-0.785855
-0.653866
-0.547494
-0.466582
-0.407261
-0.364928
-0.335479
-0.315564
-0.30243
-0.29333
-0.28678
-0.280548
-0.272731
-0.260993
-0.243248
-0.216091
-0.176732
-0.121987
-0.0485008
-0.882409
-0.747943
-0.625846
-0.521626
-0.4369
-0.370394
-0.319846
-0.282539
-0.255806
-0.236755
-0.223413
-0.213319
-0.204363
-0.194237
-0.18091
-0.161338
-0.132914
-0.0926058
-0.0371952
-0.984299
-0.85368
-0.722736
-0.60076
-0.493721
-0.403991
-0.331816
-0.275816
-0.233876
-0.203198
-0.181435
-0.165859
-0.15406
-0.143629
-0.132503
-0.117938
-0.0975344
-0.0685039
-0.0278336
-1.0198
-0.907425
-0.781595
-0.655163
-0.537323
-0.433566
-0.346592
-0.276715
-0.222783
-0.182461
-0.153364
-0.132683
-0.117819
-0.106302
-0.0960455
-0.084592
-0.0697928
-0.0492134
-0.020196
-1.0389
-0.9447
-0.828386
-0.702942
-0.57946
-0.465997
-0.367494
-0.286066
-0.221701
-0.172696
-0.136813
-0.111219
-0.0931661
-0.0800849
-0.0698252
-0.0601245
-0.0490439
-0.0344991
-0.0142383
-1.05276
-0.974162
-0.868051
-0.746096
-0.620001
-0.499688
-0.39202
-0.300859
-0.227396
-0.170635
-0.128598
-0.0984617
-0.0773394
-0.062534
-0.0517905
-0.0429431
-0.0341997
-0.0237706
-0.00979128
-1.04538
-0.983564
-0.889403
-0.773983
-0.649066
-0.52577
-0.412449
-0.314513
-0.234312
-0.171594
-0.124734
-0.0909807
-0.0673669
-0.0510847
-0.0397761
-0.0313154
-0.0240069
-0.0162883
-0.0066254
-1.01366
-0.968532
-0.887855
-0.781711
-0.661569
-0.539197
-0.424012
-0.32267
-0.238555
-0.172129
-0.122165
-0.0860467
-0.0607962
-0.0435415
-0.031854
-0.0236275
-0.0172325
-0.0112737
-0.00447394
-0.971716
-0.938012
-0.86967
-0.773579
-0.660128
-0.54119
-0.426858
-0.324729
-0.239034
-0.170857
-0.119348
-0.0820477
-0.056006
-0.0383268
-0.0265429
-0.0185646
-0.0128125
-0.00801021
-0.00306778
-0.937989
-0.913368
-0.854127
-0.765601
-0.657258
-0.54096
-0.427343
-0.324739
-0.238051
-0.168827
-0.116474
-0.0786152
-0.0522847
-0.0345413
-0.0228724
-0.015187
-0.00993447
-0.00591737
-0.00217298
-0.861498
-0.85054
-0.80404
-0.727207
-0.628711
-0.520006
-0.411867
-0.313045
-0.228943
-0.161529
-0.110496
-0.0736452
-0.0481087
-0.031009
-0.0198786
-0.0126852
-0.00794089
-0.00453065
-0.00159785
-0.769361
-0.769736
-0.735672
-0.671238
-0.58422
-0.48541
-0.385388
-0.292977
-0.213839
-0.150227
-0.102067
-0.0673697
-0.043426
-0.0274949
-0.0172211
-0.0106794
-0.00647219
-0.00357276
-0.00121866
-0.666777
-0.674593
-0.651395
-0.599348
-0.524976
-0.438059
-0.34859
-0.265084
-0.193174
-0.135242
-0.0913931
-0.0598792
-0.0382204
-0.0238949
-0.0147328
-0.00897145
-0.00533641
-0.00289677
-0.000969509
-0.545845
-0.557372
-0.543772
-0.504981
-0.445697
-0.374044
-0.298827
-0.22774
-0.166064
-0.116165
-0.0783274
-0.0511435
-0.0324895
-0.0201897
-0.0123653
-0.00749417
-0.00447257
-0.00248343
-0.000888823
-0.402592
-0.397958
-0.376274
-0.339221
-0.29138
-0.238658
-0.186645
-0.139607
-0.100135
-0.0690318
-0.0459345
-0.0296417
-0.0186356
-0.0114822
-0.00699834
-0.00426479
-0.00262219
-0.00156666
-0.000652809
-0.269435
-0.295351
-0.311438
-0.311194
-0.293299
-0.260751
-0.219201
-0.174807
-0.132855
-0.0966659
-0.0677068
-0.0459697
-0.0304136
-0.0197465
-0.012707
-0.0082381
-0.00550669
-0.00389374
-0.00286565
-0.0898175
-0.0989874
-0.108477
-0.114712
-0.11548
-0.110097
-0.0993806
-0.0850391
-0.0692809
-0.0539995
-0.0404919
-0.0294834
-0.0209508
-0.0146252
-0.0100984
-0.00700716
-0.00500132
-0.00382771
-0.00323144
0.0908937
0.0815986
0.0645409
0.0430026
0.0208376
0.00144615
-0.0129813
-0.0216948
-0.0253154
-0.0251721
-0.0227228
-0.0193314
-0.0157555
-0.0124481
-0.00958796
-0.00730233
-0.00560354
-0.00450873
-0.0039148
0.268985
0.256535
0.230519
0.194416
0.153142
0.111895
0.075011
0.0451359
0.0230581
0.00812902
-0.00101948
-0.00610437
-0.00843994
-0.00903217
-0.00852741
-0.00749272
-0.00631738
-0.00536419
-0.00475231
0.425545
0.406114
0.370165
0.321531
0.265461
0.207846
0.154026
0.107682
0.0705642
0.0426473
0.0228501
0.0094057
0.000747366
-0.0044181
-0.00696295
-0.00771647
-0.00734671
-0.00660582
-0.00593725
0.581091
0.551179
0.503235
0.441347
0.371119
0.298847
0.230343
0.169779
0.119444
0.0797242
0.0498033
0.0279451
0.0124539
0.00188701
-0.00466163
-0.00806033
-0.00902762
-0.00865721
-0.00784945
0.689843
0.648677
0.590878
0.520316
0.442358
0.362801
0.287012
0.218906
0.16084
0.113427
0.0761583
0.0475
0.0258264
0.00970964
-0.00159108
-0.00869923
-0.0119266
-0.0123538
-0.0112746
0.783871
0.733372
0.666181
0.587633
0.503193
0.418135
0.337213
0.26386
0.200254
0.147035
0.103895
0.0694512
0.0421109
0.0203662
0.00353697
-0.00877551
-0.0160651
-0.0186934
-0.0178294
0.86297
0.800201
0.723477
0.638247
0.549473
0.461541
0.378326
0.302553
0.236047
0.179344
0.132276
0.0936318
0.06187
0.0353122
0.0130727
-0.00550034
-0.0192302
-0.027133
-0.0281523
0.902779
0.822461
0.732878
0.639081
0.545242
0.454752
0.370515
0.294471
0.227904
0.171065
0.123631
0.0844275
0.0518656
0.0240067
-0.000610552
-0.023516
-0.0442361
-0.0615988
-0.0727308
0.916229
0.83017
0.741616
0.653821
0.568701
0.487669
0.412032
0.342725
0.280517
0.225698
0.178279
0.137801
0.103394
0.073877
0.0479728
0.0237886
-5.01328e-05
-0.0248319
-0.0507321
0.918775
0.831128
0.746308
0.664424
0.585622
0.510412
0.439554
0.373778
0.313807
0.260023
0.212607
0.171455
0.136022
0.105664
0.0796947
0.0572073
0.0373612
0.0191986
0.00152867
0.849064
0.749665
0.659214
0.575775
0.498586
0.427534
0.36275
0.304344
0.25242
0.206794
0.167176
0.133127
0.103904
0.078799
0.0571953
0.038491
0.0222774
0.00839643
-0.0033594
0.730205
0.64244
0.563543
0.491608
0.425761
0.365653
0.311158
0.262171
0.218635
0.180291
0.146851
0.117933
0.0929252
0.0712561
0.0524326
0.0359517
0.0214375
0.00871405
-0.00242932
0.596283
0.524443
0.459379
0.400189
0.34631
0.29742
0.253315
0.213807
0.178756
0.147881
0.12091
0.0975034
0.0771591
0.0594146
0.0438839
0.0301692
0.0179849
0.0072147
-0.00229183
0.443006
0.388521
0.339606
0.295501
0.255652
0.219697
0.187384
0.158498
0.132885
0.110299
0.0905248
0.0733032
0.0582657
0.0450793
0.0334756
0.0231753
0.0139881
0.00585031
-0.00133404
0.276428
0.240195
0.208842
0.181177
0.156499
0.134405
0.114645
0.0970295
0.0814315
0.0676764
0.0556214
0.0450995
0.0358818
0.027764
0.0205855
0.0141789
0.00843458
0.0033245
-0.0011998
0.105407
0.0904304
0.0780391
0.0673109
0.0578263
0.0493844
0.0418751
0.0352216
0.0293698
0.0242475
0.0197927
0.015933
0.0125745
0.00963187
0.00703616
0.00471731
0.00262744
0.000749939
-0.0009352
-0.105357
-0.0903143
-0.0778769
-0.0671184
-0.0576165
-0.0491677
-0.0416599
-0.0350145
-0.0291755
-0.0240695
-0.019633
-0.0157929
-0.0124546
-0.00953252
-0.00695734
-0.00465903
-0.00258962
-0.000732212
0.000933368
-0.27638
-0.24009
-0.208697
-0.181006
-0.156313
-0.134214
-0.114456
-0.0968488
-0.0812632
-0.0675234
-0.0554855
-0.0449817
-0.0357826
-0.0276837
-0.0205242
-0.0141365
-0.00841115
-0.00331966
0.00118665
-0.442956
-0.388417
-0.339461
-0.295329
-0.255465
-0.219504
-0.187193
-0.158315
-0.132715
-0.110144
-0.0903864
-0.0731826
-0.0581628
-0.0449939
-0.033407
-0.0231229
-0.013951
-0.0058276
0.00134341
-0.596242
-0.524363
-0.459271
-0.400061
-0.346172
-0.297279
-0.253177
-0.213677
-0.178637
-0.147775
-0.120819
-0.0974268
-0.0770966
-0.0593657
-0.0438479
-0.0301454
-0.0179725
-0.0072128
0.00228406
-0.730174
-0.64238
-0.563459
-0.491509
-0.425653
-0.365544
-0.311052
-0.262073
-0.218547
-0.180215
-0.146788
-0.117882
-0.0928854
-0.0712269
-0.0524128
-0.0359403
-0.0214333
-0.00871534
0.00242432
-0.849054
-0.749634
-0.659164
-0.575712
-0.498516
-0.427466
-0.362687
-0.30429
-0.252378
-0.206763
-0.167156
-0.133118
-0.103903
-0.0788054
-0.0572076
-0.0385075
-0.0222955
-0.00841285
0.00334796
-0.91876
-0.831029
-0.746114
-0.664141
-0.585266
-0.510006
-0.439121
-0.37334
-0.313381
-0.259622
-0.212238
-0.171121
-0.135722
-0.105393
-0.0794488
-0.0569838
-0.0371642
-0.0190462
-0.00145589
-0.916373
-0.83056
-0.742253
-0.65468
-0.569741
-0.488841
-0.413282
-0.344003
-0.281778
-0.226907
-0.179414
-0.138851
-0.104361
-0.0747734
-0.0488193
-0.024614
-0.000777204
0.0239984
0.0499294
-0.9027
-0.822265
-0.732571
-0.638687
-0.54479
-0.454269
-0.370024
-0.293989
-0.227444
-0.170633
-0.123232
-0.0840607
-0.0515299
-0.0236991
0.000897215
0.0237958
0.0445408
0.0619844
0.0732728
-0.863015
-0.800315
-0.723655
-0.638481
-0.54975
-0.461848
-0.378645
-0.302869
-0.236346
-0.179616
-0.132515
-0.093837
-0.0620421
-0.0354517
-0.0131772
0.0054398
0.0192248
0.0271876
0.0282527
-0.783897
-0.733441
-0.666296
-0.58779
-0.503387
-0.418353
-0.337443
-0.264087
-0.200467
-0.147225
-0.104058
-0.069585
-0.0422167
-0.0204439
-0.00358352
0.00876596
0.0160948
0.0187516
0.0178943
-0.689872
-0.648752
-0.591002
-0.520484
-0.442562
-0.363027
-0.287244
-0.219129
-0.161043
-0.1136
-0.0763011
-0.0476127
-0.0259111
-0.0097678
0.00155974
0.00869578
0.0119485
0.0123908
0.011309
-0.581121
-0.55126
-0.503369
-0.441527
-0.371334
-0.29908
-0.230576
-0.169995
-0.119632
-0.0798799
-0.0499259
-0.0280377
-0.0125203
-0.00193002
0.00464014
0.00805846
0.00904115
0.0086787
0.00786854
-0.425573
-0.406195
-0.3703
-0.321711
-0.265671
-0.208068
-0.15424
-0.107874
-0.0707247
-0.0427743
-0.0229459
-0.0094748
-0.000794373
0.00438969
0.00695034
0.0077168
0.00735591
0.00661903
0.00594867
-0.269019
-0.256627
-0.230666
-0.194607
-0.153357
-0.112112
-0.0752112
-0.0453063
-0.0231935
-0.0082303
0.00094749
0.00605573
0.00840938
0.00901574
0.00852198
0.00749535
0.00632482
0.00537344
0.00476023
-0.0909251
-0.0816904
-0.0646885
-0.0431892
-0.0210398
-0.00164091
0.0128113
0.0215587
0.0252143
0.0251022
0.0226772
0.0193039
0.0157408
0.0124426
0.009589
0.00730751
0.00561071
0.00451636
0.0039215
0.0897398
0.0987584
0.108113
0.114262
0.115002
0.109645
0.0989924
0.0847311
0.0690526
0.0538402
0.0403862
0.0294168
0.0209112
0.0146036
0.0100881
0.00700368
0.00500139
0.00382975
0.00323548
0.269483
0.295528
0.311752
0.311615
0.29378
0.261239
0.219653
0.175194
0.133166
0.0969023
0.0678787
0.0460908
0.030497
0.0198036
0.0127463
0.00826592
0.00552718
0.00390967
0.00287831
0.40253
0.397753
0.375944
0.33881
0.290941
0.238237
0.186274
0.139302
0.0998976
0.0688564
0.0458098
0.0295562
0.018579
0.0114459
0.0069759
0.0042514
0.00261454
0.00156269
0.000651482
0.545873
0.557428
0.543851
0.505071
0.445786
0.374122
0.298888
0.227783
0.166091
0.116181
0.0783354
0.0511469
0.0324907
0.02019
0.0123653
0.00749427
0.00447272
0.00248364
0.000889052
0.666779
0.674595
0.651395
0.599347
0.524973
0.438054
0.348583
0.265077
0.193168
0.135237
0.0913896
0.0598771
0.0382194
0.0238947
0.0147331
0.00897204
0.00533705
0.0028973
0.000969769
0.769363
0.769738
0.735673
0.671238
0.584217
0.485406
0.385382
0.292972
0.213834
0.150223
0.102065
0.0673688
0.043426
0.0274955
0.017222
0.0106804
0.00647316
0.00357346
0.0012189
0.861499
0.850542
0.804041
0.727207
0.628709
0.520002
0.411863
0.31304
0.228939
0.161527
0.110495
0.0736449
0.0481092
0.03101
0.0198799
0.0126867
0.00794223
0.00453158
0.00159813
0.937991
0.913372
0.854131
0.765603
0.657258
0.540959
0.427341
0.324736
0.238048
0.168825
0.116473
0.0786152
0.0522855
0.0345427
0.0228742
0.0151889
0.00993627
0.00591859
0.00217334
0.971718
0.938016
0.869674
0.773582
0.660128
0.541189
0.426856
0.324726
0.239031
0.170855
0.119347
0.0820479
0.0560072
0.0383287
0.0265453
0.0185672
0.0128148
0.00801172
0.00306817
1.01366
0.968534
0.887858
0.781713
0.661569
0.539197
0.42401
0.322668
0.238553
0.172127
0.122164
0.0860474
0.060798
0.0435441
0.0318572
0.0236307
0.0172353
0.0112754
0.00447428
1.04538
0.983567
0.889407
0.773986
0.649068
0.52577
0.412449
0.314512
0.234311
0.171594
0.124735
0.0909821
0.0673695
0.0510881
0.0397799
0.031319
0.0240096
0.0162897
0.00662551
1.05276
0.974163
0.868054
0.746099
0.620003
0.499688
0.392019
0.300858
0.227395
0.170635
0.128599
0.0984637
0.0773425
0.0625378
0.0517943
0.0429462
0.0342015
0.023771
0.00979099
1.03891
0.944703
0.82839
0.702945
0.579463
0.465999
0.367495
0.286066
0.221701
0.172697
0.136815
0.111222
0.0931694
0.0800883
0.069828
0.0601259
0.0490436
0.0344979
0.0142376
1.01981
0.907429
0.781599
0.655167
0.537327
0.433568
0.346594
0.276717
0.222785
0.182463
0.153367
0.132685
0.117822
0.106304
0.0960457
0.0845902
0.0697895
0.0492101
0.0201948
0.984297
0.853679
0.722736
0.60076
0.493721
0.40399
0.331816
0.275817
0.233877
0.203199
0.181436
0.16586
0.15406
0.143628
0.132498
0.117931
0.0975274
0.0684987
0.0278323
0.882414
0.747948
0.62585
0.521629
0.436902
0.370396
0.319848
0.282541
0.255808
0.236756
0.223413
0.213318
0.20436
0.194231
0.180901
0.161327
0.132905
0.0925998
0.0371944
0.785864
0.653873
0.547497
0.466584
0.407263
0.36493
0.33548
0.315565
0.302431
0.293329
0.286778
0.280543
0.272722
0.260981
0.243235
0.216077
0.176721
0.121982
0.0485011
0.669544
0.551815
0.475191
0.427721
0.399743
0.384507
0.377158
0.374519
0.374234
0.373976
0.372853
0.368909
0.360399
0.344916
0.320286
0.282782
0.229481
0.157147
0.0622124
0.473051
0.409081
0.388598
0.391144
0.404712
0.422735
0.441073
0.457537
0.47071
0.479065
0.482419
0.479306
0.468161
0.446594
0.412406
0.361743
0.291631
0.198861
0.0792945
0.279659
0.30054
0.348266
0.403611
0.457402
0.505564
0.545965
0.577831
0.600947
0.614738
0.619538
0.614489
0.598078
0.567955
0.521864
0.455947
0.366965
0.251316
0.102962
0.0902642
0.218541
0.342096
0.451944
0.545566
0.622434
0.683159
0.728433
0.759428
0.77673
0.781016
0.772342
0.74923
0.70954
0.650967
0.56975
0.461834
0.322119
0.140047
-0.0551971
0.182048
0.377313
0.53723
0.667069
0.76942
0.84777
0.90402
0.940828
0.96017
0.9629
0.950423
0.921372
0.874092
0.806209
0.713963
0.591267
0.429128
0.207572
-0.124332
0.195283
0.447664
0.649247
0.810157
0.934285
1.0276
1.09287
1.13434
1.15572
1.15804
1.14469
1.11478
1.06767
1.00098
0.91069
0.786638
0.611658
0.348217
-0.1062
0.250342
0.539422
0.772375
0.958462
1.10049
1.20627
1.27922
1.32538
1.35079
1.35706
1.35046
1.33171
1.3025
1.26104
1.20339
1.11301
0.958517
0.673106
-0.0210316
0.329124
0.635638
0.890094
1.09525
1.25104
1.36648
1.44603
1.49777
1.53121
1.5494
1.56301
1.57745
1.60015
1.63284
1.67591
1.70768
1.67911
1.48087
0.0810524
0.406099
0.719982
0.989209
1.20759
1.37248
1.49367
1.57831
1.63611
1.68285
1.72396
1.77722
1.86189
2.00361
2.23078
2.60651
3.22241
4.2716
6.15173
)
;

boundaryField
{
    up
    {
        type            calculated;
        value           nonuniform List<scalar> 
84
(
-6.15173
-1.48087
-0.67311
-0.34822
-0.207573
-0.140046
-0.10296
-0.0792919
-0.0622108
-0.0485008
-0.0371952
-0.0278336
-0.020196
-0.0142383
-0.00979128
-0.0066254
-0.00447394
-0.00306778
-0.00217298
-0.00159785
-0.00121866
-0.000969509
-0.000888823
-0.000652809
-0.0023575
-0.00289006
-0.00352065
-0.00424454
-0.0052169
-0.00674279
-0.00942397
-0.0142553
-0.0215724
-0.0681416
-0.0509124
0.00152469
-0.00326416
-0.00236734
-0.00225407
-0.00131663
-0.00119133
-0.000932246
0.000930439
0.00117828
0.00132609
0.00224654
0.00236264
0.00325306
-0.00145315
0.0501176
0.0687712
0.0216661
0.0143023
0.00944617
0.00675418
0.00522362
0.00424967
0.00352577
0.00289477
0.00236793
0.000651482
0.000889052
0.000969769
0.0012189
0.00159813
0.00217334
0.00306817
0.00447428
0.00662551
0.00979099
0.0142376
0.0201948
0.0278323
0.0371944
0.0485011
0.0622124
0.0792945
0.102962
0.140047
0.207572
0.348217
0.673106
1.48087
6.15173
)
;
    }
    low
    {
        type            calculated;
        value           nonuniform List<scalar> 
84
(
-0.0727612
0.0338142
0.126313
0.145568
0.0681448
-0.0925798
-0.298136
-0.503225
-0.703864
-0.814169
-0.908187
-1.00688
-1.03298
-1.04698
-1.05816
-1.0456
-1.00901
-0.965953
-0.928647
-0.844388
-0.74736
-0.642218
-0.519878
-0.378483
-0.249486
-0.0824005
0.0824024
0.248316
0.400179
0.5577
0.673113
0.772387
0.858047
0.905428
0.924338
0.933124
0.869471
0.750392
0.613493
0.456265
0.285024
0.108948
-0.108898
-0.284974
-0.456212
-0.613448
-0.750355
-0.869453
-0.933101
-0.924458
-0.90535
-0.85808
-0.772408
-0.67314
-0.55773
-0.400208
-0.248352
-0.0824343
0.0823244
0.249531
0.378425
0.519901
0.642219
0.747361
0.844387
0.928649
0.965955
1.00901
1.0456
1.05816
1.04698
1.03298
1.00688
0.908191
0.814177
0.70387
0.50323
0.29814
0.0925831
-0.068143
-0.145568
-0.126316
-0.0338162
0.0727615
)
;
    }
    left
    {
        type            calculated;
        value           nonuniform List<scalar> 
19
(
-0.0729008
-0.392788
-0.714926
-0.995092
-1.22411
-1.39746
-1.52539
-1.61598
-1.6788
-1.73292
-1.78373
-1.85056
-1.95786
-2.1386
-2.42749
-2.91156
-3.71726
-5.11405
-5.33415
)
;
    }
    right
    {
        type            calculated;
        value           nonuniform List<scalar> 
19
(
0.0729021
0.392789
0.714924
0.995088
1.22411
1.39746
1.52539
1.61598
1.67881
1.73293
1.78374
1.85056
1.95786
2.13859
2.42748
2.91154
3.71725
5.11405
5.33416
)
;
    }
    frontAndBackPlanes
    {
        type            empty;
    }
}


// ************************************************************************* //
