/*--------------------------------*- C++ -*----------------------------------*\
  =========                 |
  \\      /  F ield         | OpenFOAM: The Open Source CFD Toolbox
   \\    /   O peration     | Website:  https://openfoam.org
    \\  /    A nd           | Version:  7
     \\/     M anipulation  |
\*---------------------------------------------------------------------------*/
FoamFile
{
    version     2.0;
    format      ascii;
    class       volScalarField;
    location    "0.24";
    object      gradTy;
}
// * * * * * * * * * * * * * * * * * * * * * * * * * * * * * * * * * * * * * //

dimensions      [0 -1 0 1 0 0 0];

internalField   nonuniform List<scalar> 
1596
(
-0.631384
-1.17305
-1.61768
-2.04591
-2.45833
-2.90871
-3.37479
-3.91813
-4.56348
-5.32893
-6.37995
-7.71723
-9.56889
-12.2048
-16.2985
-22.6788
-34.0705
-55.0784
-130.112
-1.92326
-2.37226
-2.67887
-2.96378
-3.24157
-3.57198
-3.93681
-4.3926
-4.96286
-5.65254
-6.59951
-7.78929
-9.37436
-11.4772
-14.443
-18.4466
-24.3969
-33.1413
-57.9592
-3.44189
-3.59322
-3.68486
-3.79621
-3.92558
-4.12417
-4.37088
-4.71497
-5.17373
-5.74302
-6.53585
-7.52298
-8.80952
-10.4516
-12.6582
-15.456
-19.3386
-24.662
-36.0868
-5.03379
-4.78261
-4.61815
-4.53863
-4.51174
-4.57108
-4.69029
-4.90921
-5.2387
-5.66876
-6.29138
-7.06957
-8.07723
-9.33666
-10.98
-12.9767
-15.6165
-19.0453
-24.9207
-6.5024
-5.87313
-5.45972
-5.19196
-5.01097
-4.93097
-4.92124
-5.01155
-5.20767
-5.49653
-5.95269
-6.53775
-7.30494
-8.26002
-9.49044
-10.9473
-12.812
-15.1359
-18.5266
-7.66998
-6.79949
-6.19161
-5.7602
-5.43889
-5.22759
-5.09462
-5.06061
-5.12801
-5.28294
-5.58546
-5.99991
-6.56539
-7.28008
-8.20415
-9.28646
-10.6464
-12.292
-14.4549
-8.4399
-7.51037
-6.79524
-6.24455
-5.80818
-5.48154
-5.23697
-5.08835
-5.03675
-5.06922
-5.23387
-5.49996
-5.89664
-6.41908
-7.10983
-7.92195
-8.93651
-10.1426
-11.631
-8.81092
-7.97417
-7.24751
-6.63504
-6.11898
-5.70042
-5.36124
-5.11196
-4.95431
-4.87772
-4.92065
-5.05834
-5.31274
-5.67833
-6.18586
-6.79469
-7.56103
-8.46666
-9.54602
-8.85721
-8.2255
-7.56951
-6.95148
-6.39236
-5.90696
-5.49082
-5.15502
-4.90391
-4.73052
-4.66602
-4.69172
-4.82444
-5.05908
-5.4182
-5.86749
-6.44624
-7.13413
-7.94162
-8.64163
-8.23111
-7.70036
-7.13123
-6.57214
-6.05348
-5.58576
-5.18414
-4.85729
-4.60276
-4.44694
-4.3769
-4.40618
-4.53076
-4.76774
-5.08881
-5.52192
-6.04739
-6.66496
-8.36804
-8.11527
-7.7108
-7.21581
-6.68543
-6.15968
-5.66174
-5.21234
-4.82544
-4.50371
-4.27085
-4.11932
-4.06064
-4.09219
-4.22729
-4.44281
-4.75878
-5.1571
-5.63268
-8.02584
-7.93531
-7.65367
-7.24159
-6.75558
-6.24023
-5.7279
-5.24485
-4.81048
-4.4328
-4.13449
-3.91291
-3.77862
-3.7305
-3.77932
-3.90634
-4.12594
-4.42201
-4.78744
-7.59899
-7.65352
-7.49222
-7.17025
-6.74223
-6.25468
-5.74545
-5.24556
-4.77927
-4.35962
-4.00959
-3.73089
-3.53405
-3.41956
-3.39669
-3.4505
-3.5916
-3.806
-4.08591
-7.21825
-7.35591
-7.28948
-7.04957
-6.68097
-6.22843
-5.73192
-5.22597
-4.73875
-4.28768
-3.89688
-3.57178
-3.32342
-3.15388
-3.07157
-3.06465
-3.14121
-3.28918
-3.50085
-6.8645
-7.06789
-7.07439
-6.9035
-6.58963
-6.17327
-5.69416
-5.18884
-4.68848
-4.21412
-3.79134
-3.42878
-3.1383
-2.92342
-2.79211
-2.73513
-2.75877
-2.85275
-3.00981
-6.51669
-6.78289
-6.85101
-6.73849
-6.4732
-6.09157
-5.63185
-5.13159
-4.62401
-4.1331
-3.68594
-3.29386
-2.96966
-2.71816
-2.54718
-2.44954
-2.43037
-2.4809
-2.59449
-6.2006
-6.51
-6.62816
-6.56431
-6.34062
-5.99011
-5.54927
-5.05604
-4.54506
-4.04263
-3.57722
-3.16238
-2.81178
-2.53136
-2.32885
-2.19877
-2.14545
-2.1614
-2.24057
-5.92279
-6.26218
-6.41967
-6.39553
-6.20631
-5.88186
-5.45724
-4.97054
-4.45755
-3.94644
-3.46688
-3.03427
-2.66299
-2.35983
-2.13243
-1.97664
-1.89622
-1.88476
-1.93673
-5.64364
-6.03657
-6.23548
-6.24734
-6.08768
-5.78454
-5.37246
-4.88987
-4.37382
-3.85436
-3.3622
-2.91441
-2.52592
-2.20411
-1.95639
-1.7796
-1.67713
-1.64355
-1.67383
-5.35567
-5.8098
-6.05567
-6.1043
-5.97261
-5.68862
-5.28723
-4.80775
-4.28866
-3.76186
-3.25914
-2.79902
-2.39684
-2.06025
-1.79626
-1.60233
-1.48168
-1.43005
-1.44316
-5.10854
-5.60421
-5.89374
-5.978
-5.87231
-5.60491
-5.21166
-4.73328
-4.20998
-3.67561
-3.16307
-2.69225
-2.27872
-1.93013
-1.65268
-1.44386
-1.30672
-1.23862
-1.23709
-4.88917
-5.42366
-5.75346
-5.8717
-5.79056
-5.53793
-5.1509
-4.67193
-4.14324
-3.60079
-3.07867
-2.59804
-2.17474
-1.81616
-1.52731
-1.30467
-1.15033
-1.06343
-1.04619
-4.68672
-5.26478
-5.63468
-5.78586
-5.72814
-5.48904
-5.10701
-4.62645
-4.09178
-3.54107
-3.0096
-2.51985
-2.08794
-1.7211
-1.42287
-1.18751
-1.01384
-0.899724
-0.855674
-4.50659
-5.12844
-5.53566
-5.71459
-5.67433
-5.44216
-5.05932
-4.57201
-4.02737
-3.46609
-2.92321
-2.42393
-1.9842
-1.6114
-1.30732
-1.06424
-0.873675
-0.723075
-0.603173
-4.36091
-5.02336
-5.47447
-5.6962
-5.69694
-5.50114
-5.15005
-4.68782
-4.16116
-3.61164
-3.07169
-2.56938
-2.12041
-1.7353
-1.41685
-1.16046
-0.953895
-0.780065
-0.61275
-4.26013
-4.94665
-5.42269
-5.67332
-5.70612
-5.54322
-5.22382
-4.78948
-4.2848
-3.7505
-3.21622
-2.71098
-2.25091
-1.84897
-1.51091
-1.23794
-1.021
-0.849515
-0.706158
-4.25769
-4.9481
-5.43306
-5.69948
-5.7541
-5.6183
-5.32842
-4.92389
-4.44638
-3.934
-3.41415
-2.91349
-2.44755
-2.03058
-1.67187
-1.37749
-1.14297
-0.96098
-0.816514
-4.36489
-5.03788
-5.51109
-5.77417
-5.83435
-5.71306
-5.44442
-5.06571
-4.61551
-4.12874
-3.62958
-3.14106
-2.67596
-2.24782
-1.86838
-1.54904
-1.29113
-1.0915
-0.936613
-4.57023
-5.21371
-5.65784
-5.90096
-5.95254
-5.83466
-5.57975
-5.22291
-4.7996
-4.3415
-3.86908
-3.40105
-2.94546
-2.51236
-2.11338
-1.765
-1.47613
-1.25049
-1.07698
-4.8679
-5.46034
-5.85905
-6.06884
-6.10103
-5.97826
-5.73164
-5.39396
-4.99767
-4.57155
-4.13246
-3.69512
-3.2616
-2.83538
-2.42334
-2.04418
-1.71515
-1.4519
-1.24954
-5.25328
-5.77407
-6.11693
-6.28468
-6.2901
-6.15638
-5.91364
-5.5923
-5.22203
-4.82927
-4.42816
-4.03102
-3.63451
-3.23371
-2.8245
-2.42034
-2.04198
-1.72237
-1.47309
-5.6711
-6.13018
-6.41529
-6.53645
-6.51078
-6.36256
-6.12101
-5.81403
-5.4686
-5.10943
-4.74905
-4.40009
-4.05707
-3.70873
-3.33598
-2.93598
-2.51508
-2.11562
-1.78288
-6.14837
-6.5372
-6.75677
-6.82514
-6.7637
-6.59739
-6.35409
-6.05872
-5.73535
-5.40703
-5.0853
-4.78563
-4.50559
-4.23569
-3.94774
-3.621
-3.22243
-2.76226
-2.25876
-6.70612
-7.00955
-7.15561
-7.16755
-7.06968
-6.88671
-6.64395
-6.36301
-6.06455
-5.76927
-5.48841
-5.23985
-5.02844
-4.85682
-4.70763
-4.56651
-4.38155
-4.12366
-3.7583
-7.32663
-7.53094
-7.58489
-7.52206
-7.36923
-7.15049
-6.88717
-6.59767
-6.29864
-6.00593
-5.72999
-5.48483
-5.27818
-5.11939
-5.01052
-4.96151
-4.95821
-4.98767
-5.02164
-8.02822
-8.09749
-8.039
-7.88912
-7.67252
-7.41076
-7.12062
-6.81772
-6.5155
-6.22548
-5.9581
-5.72211
-5.52397
-5.36899
-5.26126
-5.20574
-5.20651
-5.26953
-5.40188
-8.80268
-8.70592
-8.52838
-8.29328
-8.01744
-7.7169
-7.40407
-7.09137
-6.78947
-6.50711
-6.25323
-6.03339
-5.85157
-5.70914
-5.60583
-5.53684
-5.4974
-5.47894
-5.47356
-9.51531
-9.2605
-8.97088
-8.6552
-8.32252
-7.98309
-7.64557
-7.31887
-7.01099
-6.72829
-6.47719
-6.2614
-6.0827
-5.94079
-5.83398
-5.75754
-5.70685
-5.67567
-5.65811
-10.0974
-9.72725
-9.34974
-8.96882
-8.58945
-8.21782
-7.85964
-7.52093
-7.2075
-6.92382
-6.67447
-6.46198
-6.28692
-6.14832
-6.04406
-5.96974
-5.92073
-5.8914
-5.87604
-10.5634
-10.1017
-9.65456
-9.22204
-8.80576
-8.40867
-8.03405
-7.68563
-7.36752
-7.08276
-6.83463
-6.62492
-6.4534
-6.31869
-6.2184
-6.14821
-6.10336
-6.07845
-6.0678
-10.9024
-10.3716
-9.87189
-9.40132
-8.95846
-8.54337
-8.15727
-7.80214
-7.48087
-7.19551
-6.94852
-6.74117
-6.57277
-6.44163
-6.34509
-6.27878
-6.23762
-6.21614
-6.20847
-11.1202
-10.5249
-9.98788
-9.49416
-9.03648
-8.61188
-8.21994
-7.86156
-7.53888
-7.25347
-7.00733
-6.80154
-6.63517
-6.50647
-6.41273
-6.34967
-6.3122
-6.29491
-6.29186
-11.1203
-10.525
-9.98801
-9.4943
-9.03663
-8.61202
-8.2201
-7.86171
-7.53904
-7.25364
-7.0075
-6.80172
-6.63535
-6.50665
-6.41292
-6.34988
-6.31241
-6.29513
-6.29209
-10.9025
-10.3718
-9.87217
-9.40165
-8.95882
-8.54375
-8.15767
-7.80256
-7.4813
-7.19596
-6.94898
-6.74166
-6.57328
-6.44217
-6.34567
-6.2794
-6.2383
-6.21687
-6.20927
-10.5636
-10.102
-9.65501
-9.22256
-8.80633
-8.40929
-8.0347
-7.6863
-7.36822
-7.08348
-6.83539
-6.62571
-6.45423
-6.31956
-6.21933
-6.1492
-6.10442
-6.07958
-6.06901
-10.0976
-9.72766
-9.3503
-8.96949
-8.59018
-8.21861
-7.86047
-7.5218
-7.20841
-6.92476
-6.67544
-6.46299
-6.28797
-6.1494
-6.0452
-5.97092
-5.92197
-5.8927
-5.8774
-9.51551
-9.26096
-8.97152
-8.65596
-8.32337
-7.98401
-7.64655
-7.3199
-7.01207
-6.72941
-6.47835
-6.2626
-6.08395
-5.94207
-5.8353
-5.7589
-5.70825
-5.67711
-5.65959
-8.8029
-8.70642
-8.52907
-8.29411
-8.01838
-7.71792
-7.40516
-7.09252
-6.79067
-6.50837
-6.25454
-6.03474
-5.85295
-5.71053
-5.60721
-5.53818
-5.49868
-5.48014
-5.47466
-8.02846
-8.09806
-8.03984
-7.8902
-7.67381
-7.41224
-7.12227
-6.81954
-6.51749
-6.22765
-5.96046
-5.72468
-5.52676
-5.372
-5.26446
-5.20898
-5.20951
-5.2718
-5.4027
-7.32678
-7.53104
-7.58502
-7.52224
-7.36945
-7.15074
-6.88744
-6.59793
-6.29885
-6.00605
-5.72996
-5.48456
-5.27758
-5.11833
-5.00897
-4.95958
-4.95649
-4.98727
-5.02439
-6.70619
-7.00986
-7.15617
-7.16841
-7.07085
-6.88821
-6.64578
-6.36516
-6.067
-5.772
-5.49141
-5.24314
-5.03208
-4.861
-4.71272
-4.57306
-4.39028
-4.13517
-3.77294
-6.14839
-6.53725
-6.75694
-6.8255
-6.76428
-6.5982
-6.35514
-6.05999
-5.73683
-5.40871
-5.08716
-4.78772
-4.50799
-4.23856
-3.95125
-3.62525
-3.22725
-2.76704
-2.26235
-5.67111
-6.13019
-6.4154
-6.53674
-6.5113
-6.36333
-6.12204
-5.8153
-5.4701
-5.11115
-4.75099
-4.40229
-4.05958
-3.71162
-3.33923
-2.93946
-2.51845
-2.11851
-1.78516
-5.25327
-5.77403
-6.11697
-6.28488
-6.29051
-6.15705
-5.91457
-5.59348
-5.22345
-4.83092
-4.43003
-4.03312
-3.63685
-3.23626
-2.82718
-2.42295
-2.04433
-1.72433
-1.4747
-4.86788
-5.46027
-5.85903
-6.06897
-6.10137
-5.97885
-5.73248
-5.39505
-4.999
-4.57309
-4.1342
-3.69704
-3.26368
-2.83755
-2.42548
-2.04616
-1.71688
-1.45336
-1.25079
-4.57019
-5.2136
-5.65778
-5.90103
-5.9528
-5.83515
-5.5805
-5.2239
-4.80081
-4.34292
-3.87067
-3.40277
-2.94726
-2.51416
-2.11509
-1.76655
-1.47746
-1.25165
-1.078
-4.36486
-5.03777
-5.511
-5.7742
-5.83455
-5.71348
-5.44508
-5.0666
-4.6166
-4.13001
-3.63098
-3.14255
-2.67749
-2.2493
-1.86975
-1.55027
-1.29221
-1.09245
-0.937499
-4.25765
-4.94798
-5.43296
-5.69947
-5.75426
-5.61866
-5.329
-4.92468
-4.44735
-3.93512
-3.41537
-2.91478
-2.44883
-2.0318
-1.67299
-1.37849
-1.14386
-0.961804
-0.817342
-4.26009
-4.94653
-5.42256
-5.67324
-5.70615
-5.5434
-5.22417
-4.78999
-4.28545
-3.75126
-3.21705
-2.71184
-2.25175
-1.84976
-1.51162
-1.23856
-1.02156
-0.850095
-0.706907
-4.36101
-5.02342
-5.47454
-5.69631
-5.69712
-5.50141
-5.15042
-4.68829
-4.16173
-3.6123
-3.07241
-2.57014
-2.1212
-1.73608
-1.41761
-1.16118
-0.954568
-0.78067
-0.613236
-4.50669
-5.12853
-5.53572
-5.7146
-5.67427
-5.44202
-5.05912
-4.57174
-4.02706
-3.46576
-2.92287
-2.42359
-1.98388
-1.6111
-1.30704
-1.06398
-0.873406
-0.722787
-0.602822
-4.68679
-5.26484
-5.63473
-5.7859
-5.72817
-5.48905
-5.107
-4.62644
-4.09177
-3.54105
-3.00959
-2.51984
-2.08795
-1.72111
-1.42289
-1.18754
-1.01388
-0.899769
-0.85572
-4.88922
-5.4237
-5.75348
-5.87171
-5.79056
-5.5379
-5.15086
-4.67188
-4.1432
-3.60076
-3.07864
-2.59802
-2.17473
-1.81616
-1.52732
-1.30468
-1.15036
-1.06346
-1.04622
-5.10858
-5.60424
-5.89376
-5.97801
-5.8723
-5.60488
-5.21163
-4.73324
-4.20995
-3.67558
-3.16305
-2.69224
-2.27872
-1.93013
-1.65269
-1.44388
-1.30674
-1.23864
-1.23711
-5.3557
-5.80982
-6.05568
-6.1043
-5.9726
-5.6886
-5.28721
-4.80773
-4.28864
-3.76184
-3.25912
-2.79901
-2.39684
-2.06026
-1.79627
-1.60234
-1.48169
-1.43007
-1.44317
-5.64366
-6.03659
-6.23549
-6.24734
-6.08767
-5.78453
-5.37244
-4.88985
-4.3738
-3.85434
-3.36219
-2.91441
-2.52592
-2.20411
-1.95639
-1.77961
-1.67714
-1.64356
-1.67384
-5.92281
-6.26219
-6.41967
-6.39552
-6.2063
-5.88185
-5.45723
-4.97053
-4.45753
-3.94643
-3.46687
-3.03426
-2.66299
-2.35983
-2.13244
-1.97665
-1.89623
-1.88477
-1.93673
-6.20061
-6.51
-6.62815
-6.5643
-6.34061
-5.9901
-5.54926
-5.05603
-4.54506
-4.04263
-3.57722
-3.16238
-2.81178
-2.53136
-2.32885
-2.19878
-2.14545
-2.1614
-2.24057
-6.51669
-6.78288
-6.85101
-6.73848
-6.47319
-6.09157
-5.63185
-5.13159
-4.62401
-4.1331
-3.68593
-3.29386
-2.96966
-2.71816
-2.54718
-2.44953
-2.43036
-2.4809
-2.59449
-6.8645
-7.06788
-7.07438
-6.90349
-6.58962
-6.17327
-5.69416
-5.18884
-4.68848
-4.21412
-3.79134
-3.42878
-3.1383
-2.92341
-2.79211
-2.73512
-2.75876
-2.85273
-3.0098
-7.21824
-7.3559
-7.28948
-7.04957
-6.68098
-6.22843
-5.73192
-5.22597
-4.73875
-4.28768
-3.89688
-3.57178
-3.32342
-3.15388
-3.07156
-3.06465
-3.1412
-3.28916
-3.50084
-7.59898
-7.65351
-7.49222
-7.17025
-6.74224
-6.25469
-5.74546
-5.24557
-4.77928
-4.35962
-4.00959
-3.73089
-3.53405
-3.41955
-3.39669
-3.45049
-3.59159
-3.80598
-4.0859
-8.02581
-7.93529
-7.65367
-7.24159
-6.75559
-6.24023
-5.72791
-5.24485
-4.81048
-4.4328
-4.13449
-3.91291
-3.77861
-3.73049
-3.77931
-3.90632
-4.12592
-4.42199
-4.78743
-8.36801
-8.11526
-7.71081
-7.21582
-6.68544
-6.15969
-5.66175
-5.21235
-4.82544
-4.50371
-4.27085
-4.11931
-4.06064
-4.09218
-4.22728
-4.44279
-4.75876
-5.15707
-5.63266
-8.64162
-8.23112
-7.70038
-7.13125
-6.57215
-6.05349
-5.58577
-5.18415
-4.8573
-4.60276
-4.44694
-4.37689
-4.40617
-4.53075
-4.76773
-5.08879
-5.5219
-6.04737
-6.66496
-8.85721
-8.22552
-7.56953
-6.9515
-6.39237
-5.90697
-5.49083
-5.15502
-4.90391
-4.73052
-4.66602
-4.69171
-4.82443
-5.05907
-5.41819
-5.86747
-6.44622
-7.13411
-7.94162
-8.81094
-7.9742
-7.24753
-6.63506
-6.11899
-5.70043
-5.36125
-5.11197
-4.95431
-4.87772
-4.92065
-5.05834
-5.31273
-5.67831
-6.18584
-6.79467
-7.56102
-8.46665
-9.54603
-8.43993
-7.5104
-6.79526
-6.24456
-5.8082
-5.48155
-5.23697
-5.08836
-5.03676
-5.06922
-5.23386
-5.49995
-5.89663
-6.41906
-7.10981
-7.92194
-8.9365
-10.1426
-11.631
-7.67001
-6.79952
-6.19162
-5.76021
-5.4389
-5.22761
-5.09463
-5.06061
-5.12802
-5.28294
-5.58546
-5.9999
-6.56538
-7.28007
-8.20413
-9.28646
-10.6464
-12.292
-14.4549
-6.50244
-5.87315
-5.45974
-5.19197
-5.01098
-4.93099
-4.92125
-5.01155
-5.20768
-5.49653
-5.95269
-6.53775
-7.30493
-8.26
-9.49043
-10.9473
-12.812
-15.1359
-18.5266
-5.03382
-4.78263
-4.61816
-4.53865
-4.51175
-4.57109
-4.6903
-4.90921
-5.2387
-5.66876
-6.29137
-7.06957
-8.07722
-9.33665
-10.98
-12.9767
-15.6165
-19.0453
-24.9207
-3.44191
-3.59323
-3.68486
-3.79622
-3.92559
-4.12418
-4.37089
-4.71498
-5.17374
-5.74302
-6.53584
-7.52298
-8.80951
-10.4516
-12.6582
-15.456
-19.3386
-24.662
-36.0868
-1.92327
-2.37227
-2.67888
-2.96379
-3.24157
-3.57199
-3.93682
-4.39261
-4.96287
-5.65254
-6.59951
-7.78929
-9.37435
-11.4772
-14.443
-18.4466
-24.3969
-33.1413
-57.9592
-0.631388
-1.17305
-1.61768
-2.04591
-2.45833
-2.90871
-3.37479
-3.91813
-4.56348
-5.32893
-6.37995
-7.71722
-9.56888
-12.2048
-16.2985
-22.6788
-34.0705
-55.0784
-130.112
)
;

boundaryField
{
    up
    {
        type            calculated;
        value           nonuniform List<scalar> 
84
(
-117.907
-63.8582
-39.1917
-26.7351
-19.693
-15.2625
-12.2207
-9.99271
-8.28672
-6.93609
-5.84628
-4.95543
-4.21822
-3.60435
-3.09012
-2.65631
-2.28766
-1.97211
-1.69991
-1.46207
-1.25037
-1.05378
-0.847615
-0.541568
-0.524357
-0.664464
-0.775153
-0.891527
-1.0256
-1.18872
-1.3956
-1.66491
-2.07601
-3.72802
-5.16871
-5.49345
-5.46725
-5.64974
-5.86983
-6.06457
-6.20713
-6.29326
-6.29349
-6.20797
-6.06582
-5.87123
-5.65125
-5.46834
-5.49305
-5.17171
-3.74513
-2.07936
-1.66692
-1.39711
-1.18992
-1.0266
-0.892405
-0.77599
-0.665468
-0.524989
-0.541189
-0.847656
-1.0538
-1.25039
-1.46208
-1.69992
-1.97212
-2.28765
-2.6563
-3.09011
-3.60433
-4.21821
-4.95542
-5.84628
-6.9361
-8.28674
-9.99274
-12.2208
-15.2625
-19.693
-26.7351
-39.1917
-63.8581
-117.907
)
;
    }
    low
    {
        type            calculated;
        value           nonuniform List<scalar> 
84
(
-0.677399
-2.00912
-3.62882
-5.34944
-6.94022
-8.19041
-8.98079
-9.31708
-9.26414
-8.91956
-8.5775
-8.16856
-7.65066
-7.21942
-6.83634
-6.44878
-6.09814
-5.81001
-5.50993
-5.17461
-4.89114
-4.64383
-4.4074
-4.19547
-3.99368
-3.86873
-3.87117
-4.018
-4.27457
-4.6371
-5.08007
-5.53629
-6.05854
-6.66921
-7.3339
-8.0948
-8.95223
-9.71857
-10.3337
-10.8278
-11.1894
-11.438
-11.4381
-11.1894
-10.8278
-10.3338
-9.71867
-8.95235
-8.09495
-7.33386
-6.6693
-6.05848
-5.53627
-5.08004
-4.63708
-4.27455
-4.018
-3.87118
-3.86876
-3.99374
-4.19561
-4.40743
-4.64388
-4.89118
-5.17463
-5.50995
-5.81003
-6.09815
-6.44878
-6.83633
-7.2194
-7.65064
-8.16852
-8.57746
-8.91953
-9.26413
-9.3171
-8.98083
-8.19045
-6.94027
-5.34948
-3.62885
-2.00914
-0.677404
)
;
    }
    left
    {
        type            calculated;
        value           nonuniform List<scalar> 
19
(
-0.619269
-1.15087
-1.60392
-2.04596
-2.47513
-2.94346
-3.42983
-3.99898
-4.67663
-5.49051
-6.61403
-8.05565
-10.0746
-12.9939
-17.5692
-24.8167
-37.9086
-62.3381
-122.294
)
;
    }
    right
    {
        type            calculated;
        value           nonuniform List<scalar> 
19
(
-0.619273
-1.15087
-1.60392
-2.04596
-2.47513
-2.94347
-3.42983
-3.99898
-4.67663
-5.49051
-6.61402
-8.05564
-10.0745
-12.9938
-17.5692
-24.8167
-37.9086
-62.3381
-122.294
)
;
    }
    frontAndBackPlanes
    {
        type            empty;
    }
}


// ************************************************************************* //
