/*--------------------------------*- C++ -*----------------------------------*\
  =========                 |
  \\      /  F ield         | OpenFOAM: The Open Source CFD Toolbox
   \\    /   O peration     | Website:  https://openfoam.org
    \\  /    A nd           | Version:  7
     \\/     M anipulation  |
\*---------------------------------------------------------------------------*/
FoamFile
{
    version     2.0;
    format      ascii;
    class       volScalarField;
    location    "0.255";
    object      gradTx;
}
// * * * * * * * * * * * * * * * * * * * * * * * * * * * * * * * * * * * * * //

dimensions      [0 -1 0 1 0 0 0];

internalField   nonuniform List<scalar> 
1596
(
-0.0418306
-0.210033
-0.376643
-0.527827
-0.662929
-0.781814
-0.889957
-0.990866
-1.08926
-1.19424
-1.30826
-1.44227
-1.60929
-1.82846
-2.12261
-2.54971
-3.1996
-4.26655
-6.15224
0.00915993
-0.174942
-0.338887
-0.481286
-0.605736
-0.71312
-0.808365
-0.893214
-0.971185
-1.04698
-1.121
-1.1991
-1.28326
-1.37653
-1.47634
-1.57807
-1.65632
-1.65948
-1.47824
0.0509392
-0.143245
-0.301959
-0.434177
-0.54676
-0.641946
-0.723977
-0.793989
-0.854321
-0.907478
-0.953007
-0.993938
-1.02933
-1.05844
-1.07673
-1.07646
-1.03723
-0.923469
-0.665671
0.057563
-0.126665
-0.271977
-0.390553
-0.489761
-0.572412
-0.641827
-0.698906
-0.745128
-0.781756
-0.80826
-0.826078
-0.833814
-0.829952
-0.810889
-0.770412
-0.695375
-0.564376
-0.335932
0.0168668
-0.13277
-0.254342
-0.354833
-0.438925
-0.508754
-0.566369
-0.61242
-0.647716
-0.672724
-0.687144
-0.69145
-0.684506
-0.664912
-0.630343
-0.576453
-0.495497
-0.375201
-0.191659
-0.0678109
-0.164375
-0.253056
-0.331027
-0.398114
-0.45462
-0.500992
-0.537424
-0.56411
-0.580927
-0.587801
-0.584572
-0.570445
-0.544279
-0.504727
-0.448807
-0.372185
-0.267918
-0.122433
-0.180592
-0.218922
-0.26968
-0.321785
-0.370114
-0.412544
-0.447787
-0.475332
-0.494754
-0.505428
-0.507369
-0.499976
-0.482687
-0.454556
-0.414846
-0.361455
-0.292051
-0.202707
-0.0857407
-0.298909
-0.286271
-0.299973
-0.325437
-0.354285
-0.382209
-0.406359
-0.42539
-0.438262
-0.443913
-0.442286
-0.432473
-0.414014
-0.386077
-0.348255
-0.298991
-0.237081
-0.160294
-0.0642934
-0.421486
-0.372506
-0.35312
-0.3517
-0.359575
-0.371279
-0.382909
-0.392322
-0.397909
-0.398201
-0.392923
-0.380933
-0.361736
-0.334517
-0.298981
-0.253882
-0.198583
-0.131767
-0.0509259
-0.495134
-0.432584
-0.393525
-0.372751
-0.36399
-0.362117
-0.363017
-0.364092
-0.363371
-0.359122
-0.350839
-0.33726
-0.317826
-0.291738
-0.258739
-0.217804
-0.1686
-0.110351
-0.0415957
-0.555069
-0.486635
-0.435667
-0.400531
-0.377736
-0.363387
-0.353859
-0.346503
-0.339214
-0.330129
-0.31853
-0.303086
-0.283148
-0.2579
-0.227045
-0.189681
-0.145593
-0.0942906
-0.0349097
-0.61598
-0.546838
-0.488408
-0.441978
-0.406573
-0.379921
-0.359364
-0.342599
-0.327638
-0.312626
-0.296695
-0.278477
-0.257215
-0.232038
-0.20256
-0.167916
-0.127887
-0.0820953
-0.02997
-0.632208
-0.572256
-0.515132
-0.46509
-0.423355
-0.389253
-0.36125
-0.337654
-0.31683
-0.297117
-0.277649
-0.257124
-0.234752
-0.209665
-0.181426
-0.149215
-0.112794
-0.0718439
-0.0259438
-0.635697
-0.585838
-0.533479
-0.483532
-0.438654
-0.39957
-0.36585
-0.336551
-0.310526
-0.286436
-0.263524
-0.240611
-0.216922
-0.191613
-0.164203
-0.133903
-0.100434
-0.0634869
-0.0227134
-0.633816
-0.593133
-0.546699
-0.498964
-0.453135
-0.410927
-0.372875
-0.338808
-0.308147
-0.27995
-0.253661
-0.228273
-0.203065
-0.177231
-0.150266
-0.121398
-0.0902983
-0.0566381
-0.0200858
-0.617476
-0.586651
-0.547433
-0.504056
-0.459816
-0.41698
-0.37678
-0.339722
-0.305792
-0.274479
-0.245496
-0.218056
-0.191537
-0.165205
-0.138561
-0.110865
-0.0817519
-0.0508738
-0.0178893
-0.586199
-0.564723
-0.533416
-0.49598
-0.455498
-0.414425
-0.374395
-0.336418
-0.300956
-0.267916
-0.237302
-0.208574
-0.181249
-0.154696
-0.128449
-0.101821
-0.0744396
-0.045958
-0.0160304
-0.549631
-0.53411
-0.509746
-0.4785
-0.442776
-0.404882
-0.366601
-0.329252
-0.293662
-0.260092
-0.22882
-0.199548
-0.171947
-0.145496
-0.119776
-0.0941535
-0.0682732
-0.0418174
-0.014467
-0.518936
-0.508233
-0.489208
-0.462988
-0.431329
-0.396279
-0.359672
-0.323035
-0.287489
-0.253598
-0.221876
-0.192246
-0.164505
-0.13822
-0.112988
-0.0881957
-0.0634828
-0.0385729
-0.0132181
-0.466057
-0.461668
-0.448793
-0.42876
-0.402904
-0.372896
-0.340402
-0.306954
-0.273803
-0.241708
-0.211361
-0.182878
-0.156193
-0.130972
-0.106845
-0.0832064
-0.0596737
-0.0360289
-0.0122073
-0.407757
-0.408353
-0.401023
-0.386846
-0.366852
-0.342363
-0.314808
-0.285611
-0.256038
-0.226939
-0.1991
-0.172776
-0.148009
-0.124559
-0.102077
-0.07992
-0.0575793
-0.0347647
-0.0116313
-0.347137
-0.350969
-0.348247
-0.339409
-0.325099
-0.306295
-0.284167
-0.25997
-0.234902
-0.209817
-0.185507
-0.1623
-0.140299
-0.119358
-0.0991675
-0.0790375
-0.0582005
-0.0359238
-0.0120864
-0.280108
-0.285565
-0.286593
-0.282832
-0.274412
-0.261888
-0.246115
-0.228097
-0.208884
-0.189241
-0.169858
-0.151058
-0.132947
-0.11547
-0.0984343
-0.0812341
-0.0628881
-0.0418839
-0.0162717
-0.204625
-0.20172
-0.195422
-0.185844
-0.173696
-0.159946
-0.145705
-0.131922
-0.119355
-0.108344
-0.0988419
-0.090505
-0.0828029
-0.0752361
-0.0673874
-0.058771
-0.0486012
-0.0352726
-0.0158056
-0.136824
-0.152375
-0.169719
-0.186211
-0.199974
-0.209731
-0.215021
-0.21589
-0.212901
-0.206756
-0.198018
-0.187276
-0.174859
-0.161334
-0.147291
-0.133251
-0.11909
-0.103819
-0.084651
-0.0463784
-0.0538833
-0.0638084
-0.0746182
-0.0851802
-0.0946845
-0.102833
-0.10954
-0.115024
-0.119481
-0.122703
-0.124521
-0.124309
-0.121843
-0.117254
-0.111407
-0.104992
-0.0988363
-0.0930769
0.0442437
0.0347469
0.0213405
0.00549066
-0.0114465
-0.0283852
-0.0446866
-0.0600236
-0.0743998
-0.0878784
-0.100121
-0.11068
-0.118546
-0.122967
-0.123666
-0.121503
-0.117519
-0.113048
-0.108655
0.134805
0.121853
0.103745
0.0821689
0.0586782
0.0345593
0.0106704
-0.0125424
-0.0349997
-0.0567669
-0.0775522
-0.0967829
-0.113134
-0.12521
-0.131999
-0.133967
-0.132329
-0.128982
-0.125017
0.216893
0.198645
0.174747
0.147221
0.117707
0.0875493
0.0576302
0.0283451
-0.000312916
-0.0285746
-0.056381
-0.0832848
-0.107862
-0.128112
-0.141976
-0.148971
-0.150011
-0.147542
-0.143488
0.302363
0.277707
0.247368
0.21348
0.177758
0.141607
0.105902
0.0709651
0.0366759
0.00258901
-0.0315716
-0.0657467
-0.0987807
-0.1284
-0.151423
-0.165793
-0.171172
-0.170084
-0.165616
0.367419
0.33536
0.298557
0.25913
0.218788
0.178798
0.139827
0.101967
0.0648824
0.0278541
-0.00978833
-0.0485855
-0.0881005
-0.126475
-0.159899
-0.184485
-0.197237
-0.199166
-0.193932
0.428934
0.390477
0.347394
0.302623
0.257985
0.214594
0.172903
0.132803
0.0938147
0.0550411
0.0155293
-0.0258696
-0.0697541
-0.115563
-0.160146
-0.198793
-0.225071
-0.235772
-0.232633
0.486612
0.439851
0.390033
0.340167
0.291855
0.245886
0.202429
0.161171
0.121543
0.0826039
0.0433409
0.00229298
-0.0420283
-0.0908323
-0.143198
-0.196385
-0.242605
-0.273153
-0.279281
0.525184
0.465832
0.405764
0.347619
0.292523
0.240831
0.192391
0.146722
0.10321
0.0609729
0.0190853
-0.0238443
-0.0695893
-0.120579
-0.178677
-0.245681
-0.318639
-0.390875
-0.449587
0.550467
0.48538
0.424238
0.368684
0.318728
0.273886
0.233393
0.196471
0.162401
0.130494
0.100235
0.0710028
0.0420901
0.012348
-0.0199457
-0.0583026
-0.106402
-0.168537
-0.246751
0.570327
0.502813
0.443526
0.391784
0.346314
0.305999
0.269756
0.236743
0.206299
0.177867
0.151162
0.125979
0.102216
0.0799154
0.0592828
0.0402325
0.0224632
0.00460909
-0.0160059
0.542806
0.46563
0.400625
0.3452
0.297294
0.255413
0.218286
0.184966
0.154734
0.126973
0.101361
0.0776648
0.0557444
0.0356332
0.0176018
0.00194834
-0.0108092
-0.0201117
-0.0256908
0.478951
0.408143
0.349563
0.300342
0.258349
0.22204
0.19017
0.161817
0.136309
0.113096
0.0918844
0.072465
0.0546847
0.0384948
0.0239544
0.0110598
-0.000158414
-0.00966649
-0.0175523
0.399772
0.339902
0.290379
0.248965
0.213864
0.183712
0.157422
0.134176
0.11339
0.0945851
0.0774868
0.0618937
0.0476271
0.0345834
0.0227365
0.0120158
0.00239426
-0.00610339
-0.0135323
0.302143
0.255745
0.217799
0.186392
0.160008
0.137504
0.118001
0.10084
0.0855588
0.0717791
0.0592755
0.0478804
0.0374362
0.0278441
0.019069
0.0110526
0.00378119
-0.00270326
-0.00842007
0.1908
0.159826
0.135262
0.115321
0.098774
0.0847724
0.0727042
0.0621257
0.052731
0.0442736
0.0366023
0.0296046
0.023172
0.0172343
0.0117629
0.00671936
0.00209683
-0.00206655
-0.00576794
0.073402
0.0609772
0.0514638
0.0438419
0.0375368
0.032195
0.0275805
0.0235273
0.0199225
0.0166751
0.0137267
0.0110328
0.00854935
0.00624525
0.0041035
0.00210395
0.000237599
-0.00148596
-0.00306606
-0.0733667
-0.0608999
-0.0513589
-0.0437195
-0.0374042
-0.0320578
-0.027443
-0.023393
-0.0197942
-0.0165553
-0.0136175
-0.010936
-0.00846638
-0.00617746
-0.0040519
-0.00206935
-0.000220507
0.0014855
0.00304834
-0.190767
-0.159758
-0.135171
-0.115215
-0.0986603
-0.0846558
-0.0725887
-0.0620146
-0.052627
-0.044179
-0.036519
-0.0295343
-0.0231161
-0.0171938
-0.0117388
-0.00671223
-0.00210697
0.00203936
0.00572435
-0.302111
-0.25568
-0.217711
-0.186288
-0.159893
-0.137384
-0.11788
-0.100721
-0.0854443
-0.0716718
-0.0591772
-0.0477926
-0.03736
-0.0277803
-0.0190176
-0.0110137
-0.00375405
0.00271955
0.00842669
-0.399749
-0.339859
-0.290321
-0.248896
-0.213789
-0.183634
-0.157344
-0.134103
-0.113322
-0.0945258
-0.0774374
-0.0618554
-0.0476008
-0.0345695
-0.0227348
-0.0120256
-0.00241449
0.00607402
0.0134952
-0.478938
-0.408117
-0.349526
-0.300296
-0.258297
-0.221985
-0.190114
-0.161764
-0.136261
-0.113056
-0.0918534
-0.0724447
-0.054676
-0.0384981
-0.023969
-0.0110841
0.000127016
0.00963144
0.0175179
-0.542808
-0.465627
-0.400614
-0.345181
-0.29727
-0.255386
-0.21826
-0.184945
-0.154718
-0.126967
-0.101368
-0.0776863
-0.0557828
-0.0356902
-0.017677
-0.00203895
0.0107114
0.0200206
0.0256224
-0.570329
-0.502771
-0.443423
-0.391613
-0.346073
-0.305693
-0.269388
-0.236321
-0.205828
-0.177354
-0.150611
-0.125394
-0.101601
-0.0792709
-0.0586146
-0.0395583
-0.0218257
-0.00409912
0.0162385
-0.55057
-0.485652
-0.424685
-0.369305
-0.319515
-0.274829
-0.234482
-0.197696
-0.163753
-0.131968
-0.101831
-0.0727288
-0.0439659
-0.0144134
0.0176289
0.0556448
0.103315
0.164983
0.242813
-0.525145
-0.465723
-0.405573
-0.347343
-0.292163
-0.240393
-0.191884
-0.146154
-0.102592
-0.0603151
-0.0183992
0.0245462
0.0702933
0.121274
0.179366
0.246402
0.319495
0.392046
0.451313
-0.486648
-0.439935
-0.390159
-0.340326
-0.292039
-0.246089
-0.202648
-0.1614
-0.121783
-0.0828543
-0.0436039
-0.00257146
0.0417343
0.0905332
0.142923
0.196193
0.242564
0.273305
0.279569
-0.428957
-0.39053
-0.347473
-0.302723
-0.2581
-0.21472
-0.173037
-0.132945
-0.0939636
-0.055197
-0.0156924
0.0257016
0.06959
0.115424
0.160064
0.198806
0.225197
0.235994
0.232904
-0.367442
-0.335413
-0.298637
-0.259231
-0.218905
-0.178927
-0.139964
-0.102109
-0.0650283
-0.0280012
0.00964321
0.0484491
0.0879857
0.126402
0.15989
0.184553
0.197376
0.199348
0.194127
-0.302385
-0.277759
-0.247447
-0.213582
-0.177878
-0.14174
-0.106042
-0.0711087
-0.036819
-0.00272754
0.0314432
0.0656371
0.0987024
0.128367
0.151447
0.165873
0.171293
0.170228
0.165769
-0.216911
-0.198693
-0.174822
-0.147318
-0.117821
-0.0876753
-0.0577621
-0.0284778
0.000184417
0.0284555
0.0562776
0.0832054
0.107816
0.128108
0.142017
0.14905
0.150117
0.147662
0.143616
-0.134825
-0.121903
-0.103822
-0.0822694
-0.0587963
-0.0346884
-0.0108037
0.0124112
0.0348765
0.0566577
0.0774634
0.0967214
0.113106
0.125219
0.132044
0.13404
0.132422
0.129088
0.125133
-0.0442607
-0.0347933
-0.0214145
-0.00558796
0.0113323
0.0282615
0.0445607
0.0599026
0.0742901
0.087786
0.100051
0.110639
0.118535
0.122988
0.123716
0.121575
0.117607
0.11315
0.108769
0.046339
0.0537641
0.0636048
0.0743343
0.0848284
0.0942822
0.102401
0.109099
0.114595
0.119079
0.122343
0.124212
0.124056
0.121645
0.117106
0.111304
0.104932
0.0988278
0.0931461
0.136852
0.152481
0.169924
0.186523
0.200392
0.210243
0.215607
0.216528
0.213567
0.207427
0.198676
0.187907
0.175454
0.161888
0.147806
0.13373
0.119538
0.104239
0.0850419
0.204596
0.201615
0.195238
0.185588
0.173382
0.15959
0.145328
0.131543
0.118989
0.108003
0.098535
0.0902365
0.0825743
0.0750463
0.0672335
0.0586499
0.0485102
0.0352112
0.0157789
0.280125
0.2856
0.286645
0.2829
0.274491
0.261972
0.246198
0.228174
0.208952
0.189297
0.169902
0.151091
0.13297
0.115485
0.0984424
0.081237
0.0628871
0.0418809
0.0162698
0.347141
0.350974
0.348253
0.339416
0.325107
0.306303
0.284175
0.259976
0.234906
0.209819
0.185507
0.162298
0.140297
0.119355
0.0991633
0.0790331
0.0581965
0.035921
0.0120857
0.407761
0.408358
0.401028
0.386852
0.366858
0.342369
0.314813
0.285615
0.25604
0.226939
0.199099
0.172774
0.148006
0.124555
0.102074
0.0799167
0.0575766
0.0347632
0.0116309
0.466059
0.461671
0.448798
0.428765
0.402909
0.3729
0.340406
0.306956
0.273804
0.241707
0.211359
0.182876
0.15619
0.130969
0.106843
0.0832039
0.0596718
0.0360279
0.012207
0.51894
0.508237
0.489213
0.462993
0.431334
0.396283
0.359674
0.323036
0.287489
0.253597
0.221874
0.192243
0.164502
0.138217
0.112986
0.0881937
0.0634814
0.0385721
0.0132178
0.549633
0.534113
0.50975
0.478503
0.44278
0.404884
0.366603
0.329252
0.293661
0.260091
0.228817
0.199545
0.171945
0.145494
0.119774
0.0941517
0.0682719
0.0418167
0.0144668
0.5862
0.564725
0.533418
0.495982
0.4555
0.414426
0.374396
0.336417
0.300954
0.267914
0.2373
0.208571
0.181246
0.154694
0.128447
0.101819
0.0744384
0.0459573
0.0160303
0.617478
0.586653
0.547436
0.504059
0.459818
0.416981
0.37678
0.339722
0.30579
0.274477
0.245494
0.218053
0.191534
0.165203
0.138559
0.110864
0.0817508
0.0508732
0.0178892
0.633817
0.593135
0.546701
0.498965
0.453135
0.410927
0.372874
0.338806
0.308145
0.279948
0.253659
0.228271
0.203063
0.177229
0.150264
0.121397
0.0902972
0.0566376
0.0200857
0.635699
0.58584
0.533481
0.483533
0.438655
0.399569
0.365849
0.336549
0.310525
0.286434
0.263521
0.240608
0.21692
0.191611
0.164201
0.133902
0.100433
0.0634866
0.0227134
0.63221
0.572259
0.515135
0.465092
0.423355
0.389253
0.36125
0.337653
0.316829
0.297115
0.277647
0.257122
0.23475
0.209664
0.181425
0.149214
0.112794
0.0718439
0.0259439
0.615978
0.546838
0.488408
0.441976
0.406571
0.379918
0.359362
0.342597
0.327635
0.312623
0.296693
0.278475
0.257213
0.232037
0.202559
0.167915
0.127886
0.0820954
0.0299702
0.555072
0.486638
0.435669
0.400532
0.377736
0.363386
0.353858
0.346502
0.339212
0.330128
0.318528
0.303085
0.283147
0.2579
0.227045
0.189681
0.145593
0.0942912
0.03491
0.495139
0.432588
0.393527
0.372752
0.36399
0.362116
0.363017
0.364091
0.36337
0.359121
0.350838
0.337259
0.317825
0.291738
0.258739
0.217804
0.168601
0.110352
0.041596
0.421491
0.372509
0.353122
0.351701
0.359575
0.371278
0.382909
0.392322
0.397908
0.398201
0.392922
0.380933
0.361737
0.334518
0.298982
0.253883
0.198584
0.131768
0.0509262
0.298913
0.286272
0.299974
0.325437
0.354285
0.382209
0.406358
0.42539
0.438262
0.443912
0.442286
0.432473
0.414015
0.386078
0.348256
0.298993
0.237083
0.160295
0.0642935
0.180595
0.218923
0.269681
0.321786
0.370114
0.412545
0.447786
0.475332
0.494754
0.505428
0.50737
0.499977
0.482688
0.454557
0.414848
0.361457
0.292053
0.202708
0.0857406
0.0678129
0.164376
0.253058
0.331028
0.398114
0.45462
0.500992
0.537424
0.564111
0.580927
0.587802
0.584573
0.570446
0.54428
0.504728
0.448808
0.372186
0.267919
0.122432
-0.0168657
0.132771
0.254343
0.354834
0.438925
0.508754
0.566369
0.612421
0.647716
0.672724
0.687145
0.691451
0.684507
0.664913
0.630344
0.576453
0.495497
0.375201
0.191659
-0.0575628
0.126665
0.271978
0.390554
0.489761
0.572412
0.641827
0.698907
0.745128
0.781756
0.80826
0.826079
0.833815
0.829952
0.81089
0.770411
0.695374
0.564376
0.335931
-0.0509396
0.143245
0.30196
0.434177
0.54676
0.641946
0.723977
0.793989
0.854321
0.907479
0.953007
0.993938
1.02933
1.05844
1.07673
1.07646
1.03723
0.923467
0.665671
-0.00916001
0.174942
0.338887
0.481286
0.605736
0.71312
0.808366
0.893215
0.971185
1.04698
1.121
1.1991
1.28326
1.37653
1.47633
1.57807
1.65632
1.65947
1.47824
0.0418309
0.210033
0.376643
0.527827
0.662929
0.781815
0.889958
0.990866
1.08926
1.19424
1.30826
1.44227
1.60928
1.82846
2.12261
2.54971
3.1996
4.26655
6.15224
)
;

boundaryField
{
    up
    {
        type            calculated;
        value           nonuniform List<scalar> 
84
(
-6.15224
-1.47824
-0.665671
-0.335932
-0.191659
-0.122433
-0.0857407
-0.0642934
-0.0509259
-0.0415957
-0.0349097
-0.02997
-0.0259438
-0.0227134
-0.0200858
-0.0178893
-0.0160304
-0.014467
-0.0132181
-0.0122073
-0.0116313
-0.0120864
-0.0162717
-0.0158056
-0.0725541
-0.0873044
-0.103012
-0.11894
-0.136637
-0.157585
-0.183775
-0.217224
-0.255469
-0.446369
-0.255686
-0.0165112
-0.0256703
-0.0175264
-0.013517
-0.00841524
-0.00576679
-0.00306709
0.00304936
0.00572325
0.00842193
0.01348
0.0174921
0.0256019
0.0167371
0.25163
0.44842
0.255725
0.21746
0.183956
0.157731
0.136763
0.119055
0.103127
0.0874099
0.0729105
0.0157789
0.0162698
0.0120857
0.0116309
0.012207
0.0132178
0.0144668
0.0160303
0.0178892
0.0200857
0.0227134
0.0259439
0.0299702
0.03491
0.041596
0.0509262
0.0642935
0.0857406
0.122432
0.191659
0.335931
0.665671
1.47824
6.15224
)
;
    }
    low
    {
        type            calculated;
        value           nonuniform List<scalar> 
84
(
-0.0377257
0.0153271
0.0609499
0.0685039
0.0237811
-0.0690965
-0.191226
-0.316842
-0.44226
-0.512144
-0.569844
-0.627566
-0.636566
-0.635522
-0.630728
-0.610307
-0.575622
-0.538196
-0.505474
-0.448929
-0.389004
-0.328279
-0.261929
-0.188843
-0.124611
-0.0419907
0.0392454
0.122316
0.200719
0.285928
0.353615
0.417382
0.478495
0.521705
0.55077
0.575183
0.552594
0.489803
0.409664
0.310144
0.196158
0.0756581
-0.0756226
-0.196124
-0.310109
-0.409637
-0.489784
-0.552589
-0.575177
-0.550857
-0.521667
-0.478524
-0.417402
-0.353637
-0.28595
-0.200738
-0.122337
-0.0392628
0.0419524
0.124638
0.188816
0.261944
0.328283
0.389008
0.448932
0.505477
0.538198
0.575623
0.610309
0.630728
0.635523
0.636568
0.627564
0.569846
0.512149
0.442264
0.316846
0.191229
0.0690987
-0.02378
-0.068504
-0.0609508
-0.0153276
0.0377258
)
;
    }
    left
    {
        type            calculated;
        value           nonuniform List<scalar> 
19
(
-0.0370906
-0.201525
-0.371439
-0.527766
-0.668614
-0.793007
-0.906864
-1.01429
-1.12
-1.23549
-1.36309
-1.51521
-1.70895
-1.97016
-2.32761
-2.86299
-3.70101
-5.11303
-5.33613
)
;
    }
    right
    {
        type            calculated;
        value           nonuniform List<scalar> 
19
(
0.0370909
0.201525
0.371439
0.527766
0.668615
0.793007
0.906864
1.01429
1.12
1.23549
1.36309
1.51521
1.70895
1.97016
2.3276
2.86299
3.70101
5.11303
5.33613
)
;
    }
    frontAndBackPlanes
    {
        type            empty;
    }
}


// ************************************************************************* //
