/*--------------------------------*- C++ -*----------------------------------*\
  =========                 |
  \\      /  F ield         | OpenFOAM: The Open Source CFD Toolbox
   \\    /   O peration     | Website:  https://openfoam.org
    \\  /    A nd           | Version:  7
     \\/     M anipulation  |
\*---------------------------------------------------------------------------*/
FoamFile
{
    version     2.0;
    format      ascii;
    class       volScalarField;
    location    "0.09";
    object      gradTy;
}
// * * * * * * * * * * * * * * * * * * * * * * * * * * * * * * * * * * * * * //

dimensions      [0 -1 0 1 0 0 0];

internalField   nonuniform List<scalar> 
1596
(
-0.913862
-1.67493
-2.2565
-2.75998
-3.17789
-3.57704
-3.92217
-4.28183
-4.67008
-5.0914
-5.69511
-6.45744
-7.56765
-9.23309
-11.9634
-16.3608
-24.3957
-39.3521
-92.9404
-2.74841
-3.32088
-3.62118
-3.81684
-3.93567
-4.06496
-4.18424
-4.3598
-4.60694
-4.91697
-5.41855
-6.07869
-7.0288
-8.3647
-10.3576
-13.1278
-17.344
-23.5973
-41.3619
-4.81764
-4.912
-4.83071
-4.69202
-4.51527
-4.38458
-4.28441
-4.27441
-4.36548
-4.54033
-4.90485
-5.41595
-6.16723
-7.20396
-8.699
-10.6605
-13.4604
-17.333
-25.5943
-6.85376
-6.36205
-5.87142
-5.40301
-4.94908
-4.57672
-4.27166
-4.08335
-4.01772
-4.05202
-4.26974
-4.62287
-5.17749
-5.95266
-7.06563
-8.48292
-10.4331
-13.0002
-17.3553
-8.57307
-7.5889
-6.74102
-5.98203
-5.28487
-4.69761
-4.2083
-3.85554
-3.64166
-3.54141
-3.61732
-3.82137
-4.19858
-4.75416
-5.5717
-6.60686
-8.01324
-9.81198
-12.4267
-9.77854
-8.53374
-7.44278
-6.46112
-5.56757
-4.799
-4.15013
-3.65082
-3.30214
-3.07904
-3.02535
-3.09617
-3.31958
-3.69291
-4.27671
-5.02854
-6.05848
-7.364
-9.10502
-10.4236
-9.16906
-7.97608
-6.85735
-5.82323
-4.91205
-4.131
-3.5055
-3.03803
-2.70629
-2.53828
-2.49385
-2.58716
-2.81037
-3.2062
-3.7384
-4.48816
-5.44697
-6.67969
-10.5884
-9.49676
-8.33064
-7.16402
-6.04985
-5.0389
-4.15588
-3.42698
-2.85891
-2.4342
-2.16862
-2.02735
-2.01333
-2.11483
-2.35968
-2.7182
-3.24988
-3.9472
-4.83995
-10.4208
-9.59482
-8.54725
-7.40501
-6.26237
-5.18915
-4.2302
-3.41755
-2.76458
-2.26027
-1.91203
-1.69022
-1.58914
-1.59384
-1.7195
-1.94153
-2.30166
-2.79479
-3.43694
-10.0232
-9.44804
-8.56569
-7.50744
-6.38939
-5.29866
-4.29864
-3.43042
-2.71553
-2.15045
-1.73813
-1.45378
-1.28574
-1.21665
-1.25129
-1.36863
-1.59583
-1.92972
-2.38059
-9.63271
-9.21029
-8.47265
-7.51415
-6.44769
-5.36846
-4.35294
-3.45157
-2.69411
-2.08462
-1.62457
-1.29353
-1.07612
-0.953292
-0.921684
-0.962293
-1.09036
-1.30315
-1.60751
-9.22803
-8.95115
-8.33699
-7.4732
-6.4658
-5.41207
-4.39616
-3.47659
-2.6905
-2.04893
-1.55392
-1.18866
-0.935752
-0.774995
-0.696989
-0.683624
-0.740787
-0.865026
-1.06033
-8.7788
-8.62467
-8.12017
-7.34686
-6.40416
-5.3894
-4.38983
-3.46992
-2.67248
-2.01424
-1.49903
-1.11299
-0.838006
-0.653324
-0.54545
-0.496628
-0.505931
-0.568714
-0.686479
-8.4194
-8.31733
-7.88502
-7.18106
-6.29359
-5.31774
-4.34065
-3.43045
-2.63351
-1.97047
-1.44703
-1.05135
-0.765295
-0.567885
-0.443028
-0.373062
-0.352379
-0.375034
-0.440394
-8.11699
-8.05097
-7.66127
-7.00245
-6.15474
-5.21069
-4.25585
-3.36003
-2.57125
-1.91226
-1.39001
-0.993717
-0.705357
-0.503867
-0.371598
-0.290915
-0.253226
-0.251513
-0.283492
-7.83857
-7.81207
-7.45082
-6.81835
-5.99493
-5.07326
-4.13756
-3.25813
-2.483
-1.83526
-1.32214
-0.932933
-0.649547
-0.450828
-0.31826
-0.234298
-0.188631
-0.173546
-0.185645
-7.60689
-7.60385
-7.25774
-6.63542
-5.82115
-4.911
-3.98926
-3.12616
-2.36841
-1.73782
-1.24058
-0.865064
-0.592742
-0.402257
-0.274663
-0.192623
-0.145016
-0.123818
-0.125019
-7.42398
-7.4359
-7.09339
-6.46672
-5.64696
-4.7363
-3.82129
-2.97205
-2.23307
-1.62348
-1.14701
-0.790185
-0.533515
-0.355265
-0.236285
-0.159585
-0.113829
-0.0910103
-0.0868919
-7.23622
-7.30311
-6.97024
-6.33184
-5.49433
-4.57058
-3.65265
-2.8115
-2.0892
-1.50117
-1.04748
-0.711929
-0.473456
-0.30971
-0.201397
-0.131943
-0.0901477
-0.068244
-0.0620236
-7.02843
-7.1735
-6.86385
-6.21473
-5.35337
-4.40837
-3.48077
-2.64381
-1.93715
-1.37174
-0.942897
-0.63094
-0.412751
-0.265194
-0.168892
-0.107803
-0.0711178
-0.0514953
-0.0449343
-6.85693
-7.06613
-6.78199
-6.1215
-5.23075
-4.2568
-3.31274
-2.47555
-1.78267
-1.23992
-0.836941
-0.549861
-0.353081
-0.222534
-0.138815
-0.0865103
-0.0553803
-0.0386371
-0.0326064
-6.70039
-6.98067
-6.72562
-6.05479
-5.1318
-4.1234
-3.15713
-2.3152
-1.63332
-1.11196
-0.734384
-0.472091
-0.296661
-0.182993
-0.111674
-0.0679771
-0.0423266
-0.0285551
-0.0233911
-6.53994
-6.90654
-6.68958
-6.01324
-5.05889
-4.01367
-3.02131
-2.17058
-1.49632
-0.993797
-0.63971
-0.400744
-0.245468
-0.147678
-0.087955
-0.052257
-0.0316775
-0.0206402
-0.016302
-6.37821
-6.8356
-6.66217
-5.9841
-5.00042
-3.91801
-2.89814
-2.03643
-1.36765
-0.882288
-0.550132
-0.333392
-0.197394
-0.114804
-0.0661583
-0.0381469
-0.0224632
-0.0140255
-0.00993114
-6.23181
-6.78217
-6.68306
-6.04845
-5.0802
-3.9915
-2.95524
-2.07456
-1.38986
-0.893898
-0.555246
-0.335527
-0.198291
-0.115395
-0.0667532
-0.0389315
-0.0233538
-0.0148265
-0.0100301
-6.11484
-6.73552
-6.70881
-6.13754
-5.21223
-4.14048
-3.09882
-2.1976
-1.48599
-0.963818
-0.602908
-0.366584
-0.217787
-0.127305
-0.073877
-0.0432418
-0.0260916
-0.0168387
-0.0119563
-6.09487
-6.7338
-6.7485
-6.22927
-5.34972
-4.30531
-3.26846
-2.353
-1.61556
-1.06389
-0.67532
-0.416356
-0.250527
-0.148052
-0.0865981
-0.0509192
-0.0307988
-0.0199781
-0.0143843
-6.18709
-6.79027
-6.80694
-6.31843
-5.47992
-4.4692
-3.4479
-2.52786
-1.77025
-1.19032
-0.77185
-0.486196
-0.298726
-0.179922
-0.106758
-0.0632022
-0.0381131
-0.0244817
-0.0174454
-6.37353
-6.90893
-6.89728
-6.42041
-5.61619
-4.64182
-3.64376
-2.72738
-1.95535
-1.34919
-0.89941
-0.583381
-0.369468
-0.229306
-0.139641
-0.0840514
-0.0506728
-0.0319351
-0.0220337
-6.6428
-7.0766
-7.01494
-6.53674
-5.76164
-4.8251
-3.85632
-2.9512
-2.17124
-1.54264
-1.06211
-0.713719
-0.469693
-0.303606
-0.192371
-0.119586
-0.0730505
-0.0453365
-0.0299485
-6.98555
-7.29581
-7.17549
-6.6889
-5.9378
-5.03717
-4.09922
-3.20916
-2.42552
-1.77752
-1.26713
-0.885239
-0.608411
-0.412748
-0.275372
-0.179882
-0.113695
-0.070681
-0.0448991
-7.32732
-7.5412
-7.37024
-6.87576
-6.14691
-5.28118
-4.37527
-3.50362
-2.72062
-2.05711
-1.5192
-1.10442
-0.794035
-0.56737
-0.401736
-0.280154
-0.187989
-0.120437
-0.0749178
-7.70436
-7.82587
-7.60436
-7.09915
-6.38877
-5.55559
-4.6821
-3.83209
-3.05479
-2.38117
-1.82007
-1.37511
-1.03258
-0.776157
-0.584166
-0.439253
-0.321434
-0.222836
-0.137706
-8.14369
-8.16944
-7.89604
-7.37806
-6.68407
-5.88307
-5.04404
-4.22046
-3.45552
-2.77879
-2.20099
-1.73029
-1.35835
-1.07468
-0.861524
-0.704206
-0.57926
-0.473485
-0.372936
-8.6205
-8.54579
-8.20272
-7.65042
-6.95126
-6.16452
-5.34714
-4.54394
-3.7917
-3.11642
-2.52985
-2.04113
-1.646
-1.33836
-1.1064
-0.940959
-0.824278
-0.743569
-0.681969
-9.15854
-8.94888
-8.50941
-7.89796
-7.16906
-6.37394
-5.55973
-4.76485
-4.02077
-3.34948
-2.76328
-2.27
-1.86722
-1.54999
-1.30952
-1.13764
-1.02226
-0.955171
-0.926717
-9.75962
-9.3909
-8.8466
-8.16849
-7.40006
-6.58438
-5.76135
-4.96448
-4.22148
-3.55161
-2.96689
-2.47415
-2.0715
-1.75418
-1.51402
-1.34141
-1.22369
-1.1499
-1.10773
-10.2903
-9.78408
-9.14774
-8.40909
-7.60301
-6.76595
-5.9325
-5.13199
-4.38908
-3.72076
-3.13814
-2.64738
-2.24657
-1.93101
-1.69292
-1.5226
-1.40769
-1.33719
-1.29879
-10.6975
-10.1046
-9.40316
-8.61888
-7.78318
-6.92867
-6.08632
-5.28245
-4.53944
-3.87251
-3.2921
-2.80378
-2.4056
-2.0929
-1.85824
-1.69179
-1.58146
-1.516
-1.48295
-11.0154
-10.3583
-9.60758
-8.78815
-7.9292
-7.06074
-6.2111
-5.40438
-4.66128
-3.99566
-3.41746
-2.93174
-2.53649
-2.22702
-1.99613
-1.83379
-1.72811
-1.66765
-1.63982
-11.247
-10.5415
-9.75315
-8.90732
-8.03123
-7.15265
-6.2978
-5.48918
-4.74624
-4.0819
-3.50574
-3.02241
-2.62985
-2.32332
-2.09573
-1.93688
-1.83496
-1.77831
-1.7542
-11.4086
-10.6488
-9.83038
-8.96714
-8.081
-7.197
-6.33971
-5.53054
-4.78821
-4.12508
-3.55051
-3.06895
-2.67828
-2.37376
-2.14837
-1.99185
-1.89252
-1.83863
-1.81741
-11.4087
-10.6489
-9.83051
-8.96729
-8.08117
-7.19718
-6.33989
-5.53073
-4.7884
-4.12526
-3.5507
-3.06913
-2.67846
-2.37393
-2.14854
-1.99203
-1.8927
-1.83882
-1.81761
-11.2471
-10.5417
-9.75344
-8.90769
-8.03166
-7.15313
-6.29831
-5.48972
-4.74679
-4.08244
-3.50628
-3.02294
-2.63037
-2.32383
-2.09624
-1.93739
-1.83549
-1.77888
-1.75482
-11.0155
-10.3586
-9.60803
-8.78873
-7.92989
-7.06151
-6.21192
-5.40525
-4.66216
-3.99653
-3.41833
-2.93258
-2.5373
-2.22782
-1.99693
-1.8346
-1.72895
-1.66853
-1.64076
-10.6976
-10.105
-9.40375
-8.61964
-7.78407
-6.92968
-6.08741
-5.28359
-4.5406
-3.87366
-3.29323
-2.80488
-2.40665
-2.09393
-1.85925
-1.6928
-1.58249
-1.51708
-1.48409
-10.2904
-9.78451
-9.14842
-8.40998
-7.60408
-6.76717
-5.93383
-5.13338
-4.39049
-3.72216
-3.1395
-2.64869
-2.24782
-1.93221
-1.69409
-1.52375
-1.40885
-1.33839
-1.30006
-9.7598
-9.39139
-8.84735
-8.16948
-7.40127
-6.58577
-5.76286
-4.96607
-4.2231
-3.55321
-2.96843
-2.47562
-2.07289
-1.75549
-1.51527
-1.34261
-1.22487
-1.15109
-1.10896
-9.15875
-8.94946
-8.51035
-7.89925
-7.17067
-6.37582
-5.5618
-4.76704
-4.02299
-3.35167
-2.76539
-2.272
-1.86909
-1.55175
-1.3112
-1.13922
-1.02378
-0.95659
-0.927999
-8.62063
-8.54593
-8.20306
-7.65108
-6.95228
-6.16589
-5.3488
-4.54581
-3.79367
-3.11837
-2.5317
-2.04281
-1.64746
-1.33958
-1.10739
-0.941784
-0.825085
-0.744632
-0.683684
-8.14377
-8.16995
-7.89708
-7.37971
-6.68634
-5.88589
-5.04729
-4.22396
-3.4591
-2.78228
-2.20427
-1.73329
-1.36104
-1.07708
-0.863711
-0.706305
-0.581437
-0.475927
-0.375789
-7.70436
-7.82605
-7.60494
-7.10025
-6.39041
-5.55769
-4.68454
-3.8347
-3.0574
-2.38364
-1.8223
-1.37705
-1.03424
-0.777566
-0.585404
-0.440404
-0.322532
-0.223832
-0.138444
-7.32729
-7.54131
-7.37074
-6.87679
-6.14849
-5.28322
-4.37761
-3.50608
-2.72302
-2.05931
-1.52112
-1.10603
-0.795362
-0.568463
-0.40266
-0.280966
-0.1887
-0.120995
-0.0752624
-6.98549
-7.29585
-7.1759
-6.68983
-5.93927
-5.03908
-4.10139
-3.2114
-2.42765
-1.77941
-1.26872
-0.886532
-0.609435
-0.413557
-0.276023
-0.180417
-0.114124
-0.0709906
-0.0450646
-6.64272
-7.07659
-7.01528
-6.53759
-5.76301
-4.82687
-3.85831
-2.9532
-2.1731
-1.54425
-1.06341
-0.71474
-0.470471
-0.304197
-0.192822
-0.119931
-0.073305
-0.045506
-0.0300299
-6.37342
-6.90887
-6.89754
-6.42116
-5.61743
-4.64343
-3.64555
-2.72915
-1.95694
-1.35053
-0.900461
-0.584175
-0.370053
-0.229732
-0.139951
-0.084273
-0.0508238
-0.0320287
-0.0220757
-6.187
-6.79019
-6.80716
-6.3191
-5.48104
-4.47063
-3.44946
-2.52937
-1.77158
-1.1914
-0.772678
-0.486804
-0.29916
-0.180228
-0.10697
-0.0633452
-0.0382046
-0.0245359
-0.0174708
-6.09477
-6.73373
-6.7487
-6.22986
-5.35069
-4.30654
-3.26978
-2.35425
-1.61664
-1.06475
-0.675964
-0.416819
-0.25085
-0.148273
-0.0867458
-0.0510146
-0.0308577
-0.0200135
-0.0144047
-6.11475
-6.73545
-6.70895
-6.138
-5.21298
-4.14142
-3.09981
-2.19853
-1.48678
-0.964441
-0.60337
-0.366912
-0.218012
-0.127456
-0.0739749
-0.0433031
-0.0261287
-0.0168621
-0.0119743
-6.23189
-6.78223
-6.68319
-6.04866
-5.0805
-3.99184
-2.9556
-2.0749
-1.39016
-0.894145
-0.555438
-0.335671
-0.198396
-0.115469
-0.0668044
-0.0389661
-0.0233773
-0.0148427
-0.0100376
-6.37829
-6.83565
-6.66213
-5.98395
-5.00018
-3.9177
-2.89782
-2.03614
-1.3674
-0.882092
-0.549984
-0.333285
-0.197319
-0.114753
-0.0661231
-0.0381229
-0.0224469
-0.0140138
-0.00991776
-6.53999
-6.90657
-6.68959
-6.01323
-5.05887
-4.01366
-3.02131
-2.17059
-1.49635
-0.993821
-0.63973
-0.400759
-0.245478
-0.147684
-0.0879572
-0.0522572
-0.031677
-0.0206395
-0.0162998
-6.70042
-6.9807
-6.72561
-6.05476
-5.13176
-4.12337
-3.15712
-2.3152
-1.63333
-1.11197
-0.734393
-0.472099
-0.296666
-0.182996
-0.111675
-0.0679775
-0.0423269
-0.0285555
-0.0233908
-6.85696
-7.06615
-6.78198
-6.12148
-5.23072
-4.25678
-3.31273
-2.47555
-1.78267
-1.23993
-0.836946
-0.549865
-0.353084
-0.222536
-0.138817
-0.0865115
-0.0553819
-0.0386395
-0.0326083
-7.02845
-7.17351
-6.86385
-6.21471
-5.35335
-4.40835
-3.48076
-2.64381
-1.93715
-1.37174
-0.942897
-0.630941
-0.412752
-0.265195
-0.168893
-0.107805
-0.0711213
-0.0515005
-0.0449394
-7.23623
-7.30313
-6.97024
-6.33182
-5.49432
-4.57058
-3.65265
-2.8115
-2.0892
-1.50116
-1.04747
-0.711927
-0.473455
-0.30971
-0.201398
-0.131946
-0.0901538
-0.0682537
-0.0620332
-7.42399
-7.4359
-7.09339
-6.46672
-5.64696
-4.73631
-3.82129
-2.97205
-2.23307
-1.62347
-1.147
-0.79018
-0.533512
-0.355263
-0.236286
-0.15959
-0.113839
-0.0910265
-0.086908
-7.60689
-7.60384
-7.25773
-6.63542
-5.82116
-4.91101
-3.98926
-3.12616
-2.3684
-1.73781
-1.24057
-0.865055
-0.592736
-0.402254
-0.274664
-0.19263
-0.145032
-0.123844
-0.125043
-7.83856
-7.81206
-7.45082
-6.81836
-5.99494
-5.07327
-4.13756
-3.25813
-2.48299
-1.83525
-1.32213
-0.93292
-0.649537
-0.450822
-0.318261
-0.234308
-0.188655
-0.173582
-0.185678
-8.11697
-8.05096
-7.66127
-7.00247
-6.15476
-5.2107
-4.25585
-3.36002
-2.57124
-1.91224
-1.38999
-0.9937
-0.705344
-0.503859
-0.3716
-0.290931
-0.25326
-0.25156
-0.28353
-8.41938
-8.31731
-7.88502
-7.18108
-6.29361
-5.31776
-4.34066
-3.43044
-2.63349
-1.97045
-1.44701
-1.05133
-0.765278
-0.567876
-0.443033
-0.373085
-0.352421
-0.375086
-0.440429
-8.77878
-8.62466
-8.12018
-7.34688
-6.40419
-5.38942
-4.38984
-3.46991
-2.67246
-2.01422
-1.49901
-1.11296
-0.837987
-0.653316
-0.545459
-0.496657
-0.505977
-0.568761
-0.686497
-9.228
-8.95114
-8.337
-7.47322
-6.46582
-5.41208
-4.39616
-3.47657
-2.69048
-2.0489
-1.55388
-1.18863
-0.935733
-0.77499
-0.697003
-0.683655
-0.740825
-0.865049
-1.06031
-9.63267
-9.21028
-8.47267
-7.51418
-6.44772
-5.36847
-4.35293
-3.45155
-2.69408
-2.08459
-1.62454
-1.2935
-1.07611
-0.953294
-0.921703
-0.962321
-1.09038
-1.30313
-1.60746
-10.0232
-9.44805
-8.56572
-7.50747
-6.3894
-5.29867
-4.29863
-3.4304
-2.7155
-2.15042
-1.7381
-1.45376
-1.28573
-1.21666
-1.25131
-1.36864
-1.59581
-1.92965
-2.3805
-10.4208
-9.59485
-8.54728
-7.40503
-6.26238
-5.18914
-4.23018
-3.41753
-2.76455
-2.26024
-1.91201
-1.69021
-1.58914
-1.59386
-1.71952
-1.94152
-2.30159
-2.79466
-3.43683
-10.5884
-9.4968
-8.33067
-7.16403
-6.04984
-5.03888
-4.15586
-3.42696
-2.85889
-2.43418
-2.16861
-2.02735
-2.01335
-2.11485
-2.35969
-2.71816
-3.24977
-3.94705
-4.83987
-10.4236
-9.1691
-7.9761
-6.85735
-5.82322
-4.91204
-4.13099
-3.50549
-3.03803
-2.70629
-2.53829
-2.49388
-2.58719
-2.81039
-3.20619
-3.73834
-4.48804
-5.44683
-6.67965
-9.77857
-8.53377
-7.4428
-6.46113
-5.56757
-4.799
-4.15013
-3.65083
-3.30215
-3.07906
-3.02538
-3.09621
-3.31961
-3.69292
-4.27668
-5.02846
-6.05837
-7.36391
-9.10505
-8.57309
-7.58892
-6.74103
-5.98204
-5.28488
-4.69762
-4.20832
-3.85556
-3.64169
-3.54145
-3.61736
-3.82142
-4.19861
-4.75417
-5.57167
-6.60678
-8.01317
-9.81196
-12.4268
-6.85377
-6.36205
-5.87142
-5.40302
-4.9491
-4.57675
-4.27168
-4.08338
-4.01776
-4.05207
-4.26979
-4.62292
-5.17752
-5.95266
-7.06559
-8.48286
-10.433
-13.0003
-17.3554
-4.81764
-4.91197
-4.8307
-4.69203
-4.51529
-4.3846
-4.28444
-4.27445
-4.36553
-4.54038
-4.9049
-5.41599
-6.16725
-7.20395
-8.69896
-10.6604
-13.4604
-17.333
-25.5943
-2.74841
-3.32085
-3.62115
-3.81683
-3.93567
-4.06497
-4.18426
-4.35983
-4.60698
-4.91701
-5.4186
-6.07873
-7.02881
-8.36468
-10.3576
-13.1278
-17.344
-23.5973
-41.3619
-0.913868
-1.67492
-2.25648
-2.75997
-3.17788
-3.57704
-3.92218
-4.28185
-4.67011
-5.09143
-5.69514
-6.45746
-7.56765
-9.23306
-11.9633
-16.3607
-24.3957
-39.3521
-92.9404
)
;

boundaryField
{
    up
    {
        type            calculated;
        value           nonuniform List<scalar> 
84
(
-84.2352
-45.619
-27.8886
-18.7526
-13.3712
-9.78694
-7.18622
-5.21613
-3.71035
-2.57349
-1.73794
-1.1444
-0.738054
-0.470206
-0.299546
-0.193508
-0.128293
-0.0877643
-0.0617416
-0.0441837
-0.0317378
-0.0225592
-0.0154336
-0.00853655
-0.00819876
-0.0107375
-0.012981
-0.0156251
-0.0193769
-0.0256706
-0.0373312
-0.0594677
-0.108134
-0.350339
-0.680934
-0.92471
-1.09391
-1.2869
-1.47352
-1.63277
-1.74887
-1.8135
-1.81371
-1.74951
-1.63374
-1.47469
-1.28821
-1.09515
-0.925858
-0.682775
-0.353604
-0.108841
-0.0597175
-0.0374299
-0.0257104
-0.0193943
-0.0156365
-0.0129939
-0.0107573
-0.00820622
-0.00852046
-0.0154297
-0.0225581
-0.0317391
-0.0441879
-0.0617499
-0.0877782
-0.128314
-0.193535
-0.299573
-0.470224
-0.738051
-1.14436
-1.73787
-2.5734
-3.71027
-5.21611
-7.18628
-9.78708
-13.3713
-18.7527
-27.8887
-45.6189
-84.2351
)
;
    }
    low
    {
        type            calculated;
        value           nonuniform List<scalar> 
84
(
-0.983123
-2.88105
-5.09659
-7.30692
-9.1767
-10.4664
-11.1095
-11.2077
-10.9089
-10.3594
-9.89932
-9.43213
-8.89339
-8.49057
-8.16665
-7.85085
-7.58477
-7.39414
-7.18055
-6.90854
-6.68311
-6.47941
-6.26038
-6.04213
-5.80341
-5.63974
-5.62252
-5.77493
-6.04231
-6.41066
-6.8403
-7.2374
-7.67254
-8.17461
-8.70003
-9.30107
-9.98784
-10.5673
-10.9991
-11.3373
-11.5856
-11.7756
-11.7756
-11.5856
-11.3373
-10.9992
-10.5674
-9.98795
-9.3012
-8.69995
-8.17469
-7.67243
-7.23731
-6.84021
-6.41058
-6.04222
-5.77487
-5.62247
-5.63972
-5.80341
-6.04226
-6.26038
-6.47943
-6.68313
-6.90855
-7.18056
-7.39416
-7.58477
-7.85085
-8.16663
-8.49055
-8.89337
-9.4321
-9.89927
-10.3593
-10.9089
-11.2077
-11.1095
-10.4664
-9.17674
-7.30697
-5.09663
-2.88108
-0.983136
)
;
    }
    left
    {
        type            calculated;
        value           nonuniform List<scalar> 
19
(
-0.898698
-1.65012
-2.24825
-2.77459
-3.21638
-3.63719
-4.0014
-4.38068
-4.78847
-5.23739
-5.88255
-6.70407
-7.91681
-9.76888
-12.8309
-17.8428
-27.0961
-44.509
-87.3443
)
;
    }
    right
    {
        type            calculated;
        value           nonuniform List<scalar> 
19
(
-0.898705
-1.65012
-2.24823
-2.77457
-3.21637
-3.63718
-4.0014
-4.38069
-4.7885
-5.23742
-5.88257
-6.70408
-7.91679
-9.76883
-12.8308
-17.8427
-27.0961
-44.509
-87.3443
)
;
    }
    frontAndBackPlanes
    {
        type            empty;
    }
}


// ************************************************************************* //
