/*--------------------------------*- C++ -*----------------------------------*\
  =========                 |
  \\      /  F ield         | OpenFOAM: The Open Source CFD Toolbox
   \\    /   O peration     | Website:  https://openfoam.org
    \\  /    A nd           | Version:  7
     \\/     M anipulation  |
\*---------------------------------------------------------------------------*/
FoamFile
{
    version     2.0;
    format      ascii;
    class       volScalarField;
    location    "0.09";
    object      T;
}
// * * * * * * * * * * * * * * * * * * * * * * * * * * * * * * * * * * * * * //

dimensions      [0 0 0 1 0 0 0];

internalField   nonuniform List<scalar> 
1596
(
4.9722
4.89337
4.8154
4.74649
4.68975
4.64526
4.61187
4.58676
4.56779
4.55067
4.53244
4.50881
4.47135
4.40937
4.30756
4.13468
3.8352
3.29991
2.31002
4.88128
4.6389
4.41853
4.22992
4.07629
3.95614
3.86562
3.79817
3.74798
3.7064
3.66661
3.62019
3.55342
3.45027
3.292
3.0477
2.67402
2.10094
1.19873
4.77803
4.378
4.0311
3.74037
3.50554
3.32241
3.18443
3.0824
3.0078
2.94964
2.89903
2.84576
2.77506
2.67044
2.51395
2.27926
1.93436
1.43541
0.706377
4.68305
4.1446
3.6899
3.31355
3.01093
2.77515
2.59729
2.4663
2.37179
2.30151
2.24549
2.19294
2.12966
2.04032
1.90888
1.71327
1.42912
1.02731
0.461716
4.61267
3.96501
3.42268
2.97546
2.61575
2.3348
2.12206
1.9653
1.85284
1.77178
1.71155
1.66129
1.60785
1.53749
1.43614
1.28524
1.0652
0.754723
0.323453
4.57401
3.85118
3.24161
2.73649
2.32805
2.00711
1.76243
1.5812
1.45098
1.35847
1.29276
1.243
1.19713
1.14294
1.06821
0.957211
0.79362
0.5604
0.235395
4.56369
3.79895
3.1419
2.59077
2.14068
1.78373
1.50903
1.30383
1.15533
1.05004
0.976738
0.9246
0.882408
0.839298
0.784632
0.705102
0.586928
0.415743
0.173911
4.5721
3.79303
3.10662
2.52077
2.03583
1.64672
1.34395
1.11543
0.948408
0.829328
0.746703
0.689632
0.64749
0.610435
0.569154
0.512424
0.428645
0.305529
0.128375
4.59165
3.81817
3.1173
2.50682
1.99348
1.57611
1.24749
0.996709
0.811443
0.678223
0.585315
0.521659
0.476943
0.442024
0.408615
0.36724
0.308226
0.221171
0.0937015
4.6109
3.85292
3.14881
2.52313
1.98848
1.54792
1.19697
0.926326
0.724376
0.577891
0.474967
0.404341
0.35581
0.320649
0.291303
0.259697
0.217825
0.157048
0.0671263
4.62404
3.88257
3.18182
2.54876
1.99996
1.54213
1.17351
0.886551
0.670584
0.512747
0.401067
0.324097
0.271617
0.235117
0.207523
0.181829
0.151405
0.109213
0.0469916
4.6372
3.91102
3.21541
2.57878
2.02028
1.54944
1.16688
0.866712
0.639237
0.472012
0.353051
0.270733
0.214732
0.17659
0.149504
0.127218
0.104159
0.0746462
0.0321695
4.64747
3.93378
3.24298
2.60455
2.03944
1.55918
1.16627
0.856175
0.620036
0.445783
0.32143
0.235193
0.176599
0.137152
0.110174
0.0899028
0.0715338
0.0504546
0.0216125
4.651
3.94397
3.25624
2.61695
2.04791
1.56185
1.16247
0.846205
0.60475
0.426294
0.298837
0.21045
0.150525
0.110505
0.0837685
0.0648805
0.049573
0.0340333
0.014347
4.65197
3.94569
3.25753
2.61642
2.04444
1.55491
1.15209
0.832828
0.589074
0.40906
0.280687
0.191874
0.131892
0.0921295
0.0659972
0.0482862
0.035102
0.0232056
0.00952067
4.65173
3.94172
3.24923
2.60416
2.029
1.53726
1.13321
0.813627
0.570255
0.391115
0.263872
0.176255
0.117428
0.0787494
0.0536733
0.0371694
0.0256179
0.0161896
0.006403
4.64858
3.93046
3.23002
2.57881
1.99999
1.50705
1.10385
0.786535
0.546203
0.370358
0.246269
0.161431
0.104924
0.0681253
0.0445755
0.0294245
0.0192834
0.0116329
0.00441412
4.64355
3.91334
3.20153
2.54184
1.9585
1.46497
1.06427
0.751457
0.516533
0.34616
0.227039
0.146375
0.0931979
0.0589563
0.037336
0.0236955
0.0148703
0.00859827
0.00313464
4.64168
3.89839
3.17214
2.50092
1.911
1.41608
1.01824
0.711035
0.482954
0.319494
0.20658
0.131056
0.0818954
0.0506614
0.031229
0.019195
0.0116244
0.00648636
0.0022856
4.64174
3.8859
3.14325
2.45786
1.85928
1.36199
0.967061
0.666256
0.446163
0.290789
0.185086
0.115458
0.0708313
0.0429207
0.0258402
0.0154611
0.00909346
0.00493067
0.00169242
4.64048
3.87201
3.11213
2.4112
1.80283
1.30276
0.91113
0.617659
0.406694
0.260487
0.162861
0.0997389
0.0600226
0.0356358
0.0209865
0.0122603
0.00703361
0.00372599
0.00125469
4.64044
3.86
3.08261
2.36514
1.74587
1.24229
0.853779
0.567903
0.366543
0.229998
0.140834
0.0844552
0.049757
0.0289083
0.0166482
0.00950229
0.00532536
0.00276307
0.000917682
4.64302
3.85309
3.05891
2.32448
1.69331
1.18515
0.798906
0.520066
0.327977
0.200878
0.12
0.0701921
0.0403385
0.0228611
0.0128392
0.00714
0.00389418
0.00196854
0.00064381
4.6479
3.85208
3.04325
2.29263
1.64924
1.1355
0.750258
0.477184
0.293234
0.174638
0.101293
0.0574689
0.0320153
0.0175796
0.00955474
0.00512191
0.00266534
0.00125728
0.000363628
4.66015
3.87592
3.06912
2.31418
1.66367
1.14283
0.752147
0.475786
0.290406
0.171616
0.0987078
0.0555177
0.030661
0.0166928
0.00899293
0.00476344
0.00242159
0.00108192
0.000268978
4.67575
3.91681
3.12703
2.37934
1.72716
1.19831
0.796517
0.508702
0.313299
0.186686
0.108165
0.0612192
0.0339845
0.0185808
0.0100508
0.00535456
0.00274862
0.00124882
0.000322401
4.68506
3.94756
3.17662
2.44093
1.79226
1.25931
0.848397
0.549352
0.34296
0.207015
0.121332
0.0693151
0.0387188
0.0212174
0.0114569
0.00607891
0.00311112
0.00141604
0.000370512
4.68812
3.9669
3.21544
2.49599
1.85631
1.32414
0.907315
0.598342
0.380715
0.234234
0.139802
0.081147
0.045866
0.0252682
0.0136006
0.00713226
0.00358955
0.00160721
0.000415391
4.68785
3.97948
3.24789
2.54778
1.92143
1.39425
0.974562
0.657168
0.428349
0.270297
0.165498
0.0984273
0.0568068
0.0317374
0.0171311
0.00888025
0.00435875
0.00188911
0.000470038
4.68499
3.98798
3.27703
2.59862
1.98887
1.47005
1.05031
0.726208
0.486688
0.316482
0.199991
0.122802
0.0730595
0.0418665
0.0229394
0.0118689
0.00569522
0.00237159
0.000557522
4.68169
3.9971
3.30796
2.65272
2.0615
1.5533
1.13563
0.806367
0.556822
0.374214
0.245013
0.156173
0.0965104
0.057339
0.0323513
0.0169828
0.00806901
0.0032376
0.000715381
4.68265
4.01363
3.34729
2.71561
2.14352
1.64694
1.23256
0.899243
0.640302
0.445244
0.302602
0.200821
0.129559
0.0804906
0.0474194
0.0257706
0.0123942
0.00483684
0.000991547
4.68538
4.03376
3.39108
2.78362
2.23164
1.74821
1.33904
1.00357
0.736753
0.530106
0.374135
0.258846
0.174861
0.114341
0.071265
0.0410826
0.0207952
0.00822984
0.00146067
4.68915
4.05633
3.4381
2.85557
2.32485
1.85628
1.45447
1.11914
0.846514
0.629815
0.461372
0.332764
0.235678
0.162881
0.108569
0.0681045
0.0384235
0.017595
0.00409283
4.69199
4.07516
3.47805
2.91773
2.40676
1.95306
1.56006
1.22739
0.952046
0.728455
0.55039
0.410778
0.302335
0.218516
0.153812
0.103452
0.0639766
0.0331346
0.00939386
4.6888
4.07622
3.48964
2.94268
2.44508
2.00277
1.61801
1.28999
1.01585
0.790483
0.608394
0.463236
0.348361
0.257736
0.18623
0.129189
0.08309
0.0453909
0.0140445
4.68122
4.06512
3.48199
2.9422
2.45313
2.01905
1.64117
1.31811
1.04685
0.822355
0.639424
0.492062
0.373948
0.279371
0.203529
0.142019
0.091601
0.0500325
0.0154549
4.67604
4.0582
3.47847
2.94483
2.46284
2.03553
1.66329
1.34429
1.07536
0.851532
0.667814
0.518497
0.39753
0.299476
0.21981
0.154338
0.100022
0.0548282
0.0170172
4.67388
4.05606
3.47941
2.95056
2.47393
2.05169
1.68364
1.3676
1.1003
0.876806
0.692278
0.541225
0.417794
0.31676
0.233822
0.164954
0.107287
0.0589729
0.0183781
4.67254
4.055
3.48076
2.95552
2.4829
2.06445
1.69953
1.38571
1.11965
0.896402
0.711256
0.558871
0.433539
0.330193
0.244707
0.173187
0.112904
0.0621648
0.0194264
4.67137
4.05365
3.48089
2.95808
2.48823
2.07243
1.70972
1.39751
1.13238
0.909394
0.723905
0.570674
0.444092
0.339199
0.251992
0.178675
0.116621
0.0642556
0.0201069
4.66914
4.05046
3.47843
2.95712
2.48901
2.0749
1.71364
1.40253
1.13812
0.915463
0.729958
0.576421
0.449296
0.343684
0.25565
0.18145
0.118513
0.0653275
0.0204607
4.66915
4.05049
3.47847
2.95716
2.48906
2.07495
1.7137
1.40259
1.13817
0.915507
0.729997
0.576456
0.449326
0.34371
0.255671
0.181466
0.118525
0.0653345
0.0204631
4.6714
4.05373
3.48101
2.95822
2.48838
2.07258
1.70988
1.39766
1.13253
0.909527
0.724025
0.57078
0.444184
0.339277
0.252056
0.178725
0.116657
0.0642771
0.0201144
4.67259
4.05513
3.48094
2.95574
2.48315
2.06471
1.69978
1.38596
1.11988
0.896615
0.711448
0.55904
0.433685
0.330316
0.244807
0.173265
0.11296
0.0621981
0.0194379
4.67395
4.05623
3.47966
2.95086
2.47426
2.05204
1.68398
1.36793
1.10061
0.877091
0.692533
0.541449
0.417987
0.316921
0.233953
0.165055
0.107359
0.0590162
0.018393
4.67613
4.05841
3.47878
2.9452
2.46325
2.03596
1.66372
1.3447
1.07575
0.851883
0.668126
0.518769
0.397763
0.299669
0.219966
0.154458
0.100106
0.054879
0.0170347
4.68132
4.06537
3.48235
2.94264
2.45361
2.01956
1.64167
1.3186
1.04729
0.82276
0.639781
0.49237
0.374209
0.279586
0.2037
0.142149
0.0916919
0.050086
0.015473
4.6889
4.0765
3.49005
2.94319
2.44564
2.00335
1.61859
1.29055
1.01636
0.790939
0.608792
0.463575
0.348644
0.257965
0.186409
0.129322
0.0831803
0.045443
0.0140622
4.69212
4.07556
3.47869
2.91855
2.40769
1.95405
1.56106
1.22836
0.952941
0.72926
0.551096
0.411382
0.302845
0.218941
0.154162
0.103735
0.0641954
0.0332821
0.00945211
4.68932
4.05682
3.43885
2.85653
2.32594
1.85743
1.45561
1.12023
0.847507
0.630691
0.462124
0.333396
0.236201
0.163307
0.108911
0.0683699
0.0386155
0.0177122
0.00413305
4.68552
4.03419
3.39176
2.78448
2.23261
1.74922
1.34002
1.00448
0.737562
0.530797
0.374709
0.25931
0.175229
0.114627
0.0714811
0.0412363
0.0208916
0.00827603
0.00146977
4.68279
4.01404
3.34794
2.71644
2.14444
1.64788
1.23347
0.900065
0.641012
0.445833
0.303074
0.20119
0.12984
0.0807002
0.0475695
0.0258701
0.012451
0.00486072
0.000995549
4.68181
3.99749
3.30857
2.6535
2.06237
1.55418
1.13645
0.8071
0.557437
0.374708
0.245396
0.156461
0.0967225
0.0574903
0.0324543
0.0170471
0.00810334
0.00325094
0.000717166
4.6851
3.98834
3.2776
2.59935
1.98967
1.47086
1.05105
0.72685
0.487212
0.316891
0.200297
0.123024
0.0732168
0.0419739
0.0230088
0.0119098
0.00571575
0.00237908
0.000558326
4.68795
3.97981
3.24841
2.54845
1.92217
1.39497
0.975217
0.65772
0.428787
0.270628
0.165739
0.0985962
0.0569216
0.0318123
0.0171772
0.00890593
0.00437098
0.00189336
0.000470445
4.68821
3.96718
3.21591
2.49659
1.85696
1.32477
0.907875
0.598803
0.381073
0.234497
0.139988
0.0812733
0.0459488
0.0253202
0.0136311
0.00714856
0.00359708
0.00160986
0.000415718
4.68513
3.94781
3.17703
2.44145
1.79281
1.25984
0.848863
0.549729
0.343246
0.207221
0.121475
0.0694095
0.038779
0.021254
0.0114778
0.00608992
0.00311632
0.0014181
0.000370928
4.67581
3.91702
3.12737
2.37977
1.72762
1.19875
0.796895
0.509005
0.313527
0.186848
0.108275
0.0612911
0.0340296
0.0186079
0.0100663
0.00536288
0.00275286
0.00125079
0.00032297
4.66015
3.87597
3.06921
2.3143
1.6638
1.14295
0.752255
0.475875
0.290475
0.171667
0.098743
0.0555412
0.0306758
0.0167015
0.00899768
0.00476574
0.00242249
0.00108203
0.000268757
4.64787
3.85203
3.04317
2.29253
1.64914
1.13541
0.75018
0.477122
0.293187
0.174604
0.101269
0.0574529
0.0320044
0.0175722
0.00954974
0.00511855
0.00266314
0.00125588
0.000362936
4.64302
3.85309
3.0589
2.32447
1.69331
1.18515
0.798913
0.520074
0.327985
0.200884
0.120004
0.070194
0.0403391
0.0228611
0.0128389
0.0071396
0.00389385
0.00196828
0.000643646
4.64043
3.86
3.0826
2.36513
1.74587
1.24229
0.853785
0.567908
0.366548
0.230002
0.140836
0.0844562
0.0497573
0.0289082
0.016648
0.00950214
0.00532527
0.00276303
0.00091764
4.64047
3.872
3.11212
2.4112
1.80283
1.30276
0.911134
0.617663
0.406697
0.26049
0.162863
0.0997398
0.0600231
0.0356361
0.0209867
0.0122605
0.00703389
0.0037262
0.00125474
4.64174
3.8859
3.14324
2.45786
1.85928
1.36199
0.967063
0.666258
0.446165
0.29079
0.185087
0.115459
0.0708321
0.0429214
0.0258409
0.0154619
0.00909421
0.00493122
0.00169259
4.64168
3.89839
3.17214
2.50092
1.911
1.41608
1.01824
0.711035
0.482954
0.319494
0.20658
0.131057
0.0818966
0.0506627
0.0312304
0.0191965
0.0116258
0.00648739
0.00228591
4.64355
3.91333
3.20153
2.54184
1.9585
1.46497
1.06427
0.751456
0.516532
0.34616
0.227039
0.146377
0.0931995
0.0589582
0.0373383
0.023698
0.0148727
0.00859996
0.00313514
4.64858
3.93046
3.23002
2.57881
1.99999
1.50705
1.10385
0.786533
0.546202
0.370357
0.24627
0.161432
0.104926
0.0681283
0.0445791
0.0294284
0.0192871
0.0116355
0.00441483
4.65173
3.94173
3.24923
2.60416
2.029
1.53726
1.13321
0.813625
0.570254
0.391114
0.263873
0.176257
0.117431
0.0787538
0.0536786
0.0371752
0.0256231
0.0161931
0.00640388
4.65197
3.94569
3.25753
2.61642
2.04444
1.55491
1.15208
0.832825
0.589072
0.40906
0.280688
0.191877
0.131896
0.0921358
0.0660047
0.048294
0.0351088
0.0232098
0.00952155
4.651
3.94397
3.25624
2.61696
2.04791
1.56185
1.16247
0.846203
0.604748
0.426294
0.298839
0.210454
0.150532
0.110514
0.0837783
0.0648902
0.0495808
0.0340376
0.0143476
4.64747
3.93378
3.24298
2.60455
2.03944
1.55918
1.16626
0.856172
0.620035
0.445784
0.321434
0.2352
0.176608
0.137163
0.110185
0.0899133
0.0715412
0.0504578
0.0216125
4.6372
3.91102
3.21542
2.57878
2.02028
1.54943
1.16687
0.86671
0.639237
0.472015
0.353057
0.270742
0.214743
0.176602
0.149515
0.127227
0.104163
0.074647
0.0321685
4.62404
3.88257
3.18182
2.54876
1.99996
1.54212
1.1735
0.88655
0.670585
0.512751
0.401074
0.324106
0.271629
0.235128
0.207532
0.181834
0.151405
0.10921
0.0469897
4.6109
3.85292
3.14881
2.52313
1.98848
1.54792
1.19697
0.926326
0.724378
0.577896
0.474974
0.40435
0.355819
0.320656
0.291306
0.259695
0.217819
0.157041
0.0671239
4.59166
3.81817
3.1173
2.50681
1.99347
1.5761
1.24748
0.996709
0.811446
0.678227
0.585321
0.521665
0.476947
0.442024
0.408609
0.367229
0.308213
0.221161
0.0936997
4.5721
3.79303
3.10661
2.52076
2.03582
1.64671
1.34395
1.11543
0.94841
0.829331
0.746706
0.689632
0.647486
0.610425
0.569138
0.512405
0.428627
0.305519
0.128375
4.56369
3.79895
3.1419
2.59076
2.14067
1.78372
1.50903
1.30383
1.15533
1.05004
0.976735
0.924592
0.882394
0.839279
0.784608
0.705078
0.58691
0.415735
0.173913
4.57401
3.85117
3.24161
2.73649
2.32805
2.00711
1.76243
1.5812
1.45098
1.35846
1.29275
1.24299
1.19711
1.14292
1.06819
0.957188
0.793607
0.560397
0.235398
4.61267
3.96501
3.42268
2.97546
2.61575
2.3348
2.12206
1.96529
1.85283
1.77176
1.71154
1.66127
1.60783
1.53746
1.43612
1.28523
1.0652
0.754726
0.323457
4.68305
4.1446
3.6899
3.31355
3.01093
2.77515
2.59729
2.4663
2.37178
2.30149
2.24547
2.19292
2.12964
2.0403
1.90886
1.71327
1.42912
1.02732
0.461719
4.77802
4.378
4.03111
3.74038
3.50554
3.32241
3.18443
3.0824
3.00779
2.94963
2.89901
2.84574
2.77505
2.67042
2.51395
2.27926
1.93436
1.43542
0.706378
4.88127
4.63891
4.41853
4.22992
4.07629
3.95614
3.86562
3.79817
3.74797
3.70639
3.6666
3.62018
3.55341
3.45027
3.29201
3.04771
2.67403
2.10094
1.19872
4.9722
4.89337
4.8154
4.74649
4.68975
4.64526
4.61187
4.58676
4.56778
4.55067
4.53244
4.5088
4.47135
4.40937
4.30757
4.13468
3.8352
3.29991
2.31001
)
;

boundaryField
{
    up
    {
        type            fixedValue;
        value           uniform 0;
    }
    low
    {
        type            fixedValue;
        value           uniform 5;
    }
    left
    {
        type            fixedValue;
        value           uniform 5;
    }
    right
    {
        type            fixedValue;
        value           uniform 5;
    }
    frontAndBackPlanes
    {
        type            empty;
    }
}


// ************************************************************************* //
