/*--------------------------------*- C++ -*----------------------------------*\
  =========                 |
  \\      /  F ield         | OpenFOAM: The Open Source CFD Toolbox
   \\    /   O peration     | Website:  https://openfoam.org
    \\  /    A nd           | Version:  7
     \\/     M anipulation  |
\*---------------------------------------------------------------------------*/
FoamFile
{
    version     2.0;
    format      ascii;
    class       volScalarField;
    location    "0.19";
    object      T;
}
// * * * * * * * * * * * * * * * * * * * * * * * * * * * * * * * * * * * * * //

dimensions      [0 0 0 1 0 0 0];

internalField   nonuniform List<scalar> 
1596
(
0.996836
0.987785
0.978609
0.970076
0.962428
0.955619
0.949526
0.943818
0.938242
0.932208
0.925253
0.916737
0.905324
0.889215
0.86569
0.8288
0.767536
0.659928
0.461929
0.986344
0.958229
0.931969
0.908272
0.887259
0.868669
0.852101
0.836844
0.822252
0.807202
0.79072
0.771612
0.747812
0.716863
0.675812
0.619277
0.539096
0.421349
0.239721
0.974002
0.926845
0.884855
0.847771
0.815223
0.786642
0.761367
0.738448
0.716996
0.695657
0.673241
0.648355
0.618848
0.582331
0.536253
0.47647
0.397483
0.291013
0.141746
0.961925
0.897079
0.840985
0.792177
0.749696
0.712658
0.680176
0.651155
0.624568
0.598977
0.573123
0.545578
0.5143
0.477136
0.431966
0.375642
0.304459
0.213489
0.0938158
0.952039
0.87206
0.80371
0.744686
0.693578
0.649256
0.610673
0.576649
0.546087
0.517534
0.489732
0.461267
0.430245
0.394733
0.352927
0.302344
0.240351
0.163882
0.0675895
0.945548
0.853843
0.775245
0.707367
0.648651
0.597865
0.553884
0.5155
0.481591
0.450727
0.42167
0.393043
0.363076
0.330007
0.292233
0.247686
0.194344
0.130134
0.051657
0.942546
0.842884
0.756172
0.680733
0.615243
0.558563
0.509591
0.467152
0.430138
0.397163
0.367022
0.338375
0.309553
0.278916
0.244987
0.205951
0.160125
0.105952
0.0410874
0.942238
0.838175
0.745527
0.663835
0.592358
0.530249
0.476552
0.430188
0.390105
0.35498
0.32365
0.294809
0.266875
0.238296
0.207675
0.173351
0.133835
0.0878295
0.0335571
0.943866
0.83838
0.741828
0.655167
0.578477
0.511375
0.45317
0.402944
0.359747
0.322337
0.289599
0.26027
0.232836
0.205815
0.17786
0.147416
0.113103
0.073753
0.0278946
0.945919
0.840901
0.742198
0.651883
0.570879
0.499361
0.436991
0.383078
0.336814
0.297058
0.26276
0.232699
0.205424
0.179507
0.153643
0.12635
0.0963192
0.0624455
0.0234339
0.94751
0.843684
0.744066
0.65129
0.566934
0.491715
0.425683
0.368415
0.319277
0.277251
0.241361
0.210437
0.183083
0.157924
0.133687
0.108951
0.0824572
0.053137
0.0198012
0.949412
0.847183
0.747314
0.65284
0.565836
0.487486
0.418223
0.357903
0.306086
0.261887
0.224411
0.192541
0.16493
0.140247
0.117249
0.0945629
0.070971
0.0454258
0.0168071
0.95115
0.850649
0.750909
0.655261
0.566165
0.4852
0.413142
0.350121
0.29589
0.249701
0.210742
0.177943
0.150005
0.125631
0.103599
0.0825789
0.0613845
0.0389855
0.0143133
0.952124
0.852953
0.753463
0.65702
0.566324
0.483259
0.408896
0.343609
0.287336
0.239455
0.199232
0.165644
0.137425
0.113309
0.0920921
0.0724759
0.0533036
0.03356
0.0122181
0.95288
0.854567
0.755171
0.658036
0.566006
0.48119
0.404902
0.337723
0.279752
0.230479
0.189236
0.155035
0.126636
0.10279
0.082305
0.063909
0.0464685
0.028982
0.0104569
0.953581
0.855815
0.756272
0.658373
0.56509
0.478718
0.400766
0.331991
0.272622
0.222242
0.180228
0.145611
0.117166
0.0936474
0.0738689
0.0565745
0.0406493
0.0251035
0.00897383
0.953972
0.856413
0.756489
0.657709
0.563188
0.475387
0.395984
0.325881
0.265409
0.214213
0.171698
0.136896
0.108576
0.085489
0.0664422
0.0501902
0.0356313
0.021786
0.00771677
0.954168
0.856506
0.755966
0.656154
0.56034
0.471157
0.390439
0.319211
0.257879
0.206129
0.163364
0.128598
0.100581
0.0780434
0.0597783
0.0445439
0.0312474
0.0189186
0.00664254
0.954804
0.857103
0.755787
0.654736
0.557451
0.466774
0.384705
0.31239
0.250297
0.198128
0.155267
0.120684
0.0930921
0.0711877
0.0537385
0.0394991
0.0273808
0.0164191
0.00571809
0.955672
0.858161
0.756049
0.653621
0.554701
0.462393
0.378896
0.305481
0.242671
0.190173
0.147326
0.113042
0.0859736
0.0647717
0.0481689
0.0349108
0.0239093
0.0142035
0.00491098
0.956311
0.85904
0.756187
0.652366
0.551757
0.457769
0.372826
0.298338
0.234879
0.182148
0.139426
0.105548
0.0790949
0.0586577
0.0429285
0.0306421
0.0207141
0.0121887
0.00419001
0.957002
0.860021
0.756486
0.65129
0.548968
0.453258
0.366834
0.29126
0.227166
0.174238
0.131688
0.0982621
0.0724601
0.0528033
0.0379375
0.0265877
0.017682
0.0102837
0.00352073
0.957881
0.861356
0.757234
0.65071
0.546681
0.449223
0.361279
0.284581
0.219818
0.166666
0.124265
0.0912682
0.0660887
0.0471714
0.03311
0.0226188
0.014652
0.00832834
0.00282583
0.958873
0.86297
0.758381
0.650621
0.544947
0.445779
0.356324
0.278486
0.213016
0.159581
0.117257
0.0846063
0.0599605
0.0416875
0.028322
0.0185578
0.0113787
0.00600128
0.00180487
0.960552
0.867003
0.76394
0.656942
0.551369
0.451788
0.361564
0.282751
0.216227
0.161754
0.118486
0.0850375
0.0597688
0.0410531
0.0274127
0.0175151
0.0103344
0.00511709
0.00134496
0.962451
0.872439
0.772551
0.66813
0.564355
0.465699
0.375551
0.296066
0.228288
0.17218
0.127086
0.0918153
0.0648738
0.0447367
0.029969
0.0192256
0.0114255
0.00574321
0.00157349
0.963447
0.875879
0.778614
0.676675
0.574955
0.477711
0.388229
0.308663
0.24014
0.18277
0.136076
0.0990586
0.0704074
0.0487436
0.0327237
0.0210216
0.0125206
0.00632956
0.00176532
0.963553
0.87723
0.781928
0.682287
0.582817
0.487449
0.399239
0.32023
0.251543
0.193372
0.145384
0.106765
0.0764058
0.0531187
0.0357098
0.0229215
0.0136294
0.00688471
0.00192761
0.963103
0.877152
0.783323
0.685852
0.588797
0.495681
0.409243
0.331328
0.262979
0.204417
0.15541
0.115314
0.0832185
0.058159
0.0391525
0.0250763
0.0148453
0.00746335
0.00208322
0.962174
0.876075
0.783493
0.688191
0.593732
0.503183
0.418916
0.342528
0.274933
0.216335
0.166569
0.125119
0.0912558
0.0642416
0.0433524
0.0276848
0.0162748
0.00811432
0.00224849
0.961023
0.874705
0.783397
0.690362
0.598666
0.510914
0.429099
0.354546
0.288021
0.229678
0.179385
0.136721
0.101085
0.0719317
0.0488055
0.0311001
0.0181036
0.0089029
0.00243792
0.960268
0.874049
0.784182
0.69353
0.604705
0.519871
0.440655
0.368121
0.30288
0.245027
0.194441
0.150753
0.113434
0.0820493
0.0563449
0.0360221
0.0207595
0.00997076
0.00265487
0.95965
0.873778
0.785565
0.697479
0.611688
0.529942
0.453519
0.383234
0.319556
0.262515
0.211996
0.167662
0.129007
0.0956086
0.0672727
0.0438658
0.0254352
0.011948
0.00291131
0.95913
0.873882
0.787585
0.702291
0.619733
0.541263
0.467842
0.400057
0.33825
0.282399
0.232401
0.187964
0.148598
0.113854
0.0834626
0.0572067
0.035163
0.0176361
0.004689
0.958486
0.873579
0.78881
0.705876
0.626119
0.550548
0.479849
0.414413
0.354468
0.299943
0.250746
0.206631
0.167153
0.131874
0.10045
0.0724684
0.0476919
0.0261691
0.00794865
0.957041
0.870937
0.786197
0.704151
0.625802
0.551879
0.482842
0.418921
0.360233
0.306642
0.258038
0.214186
0.174669
0.139101
0.107189
0.0785256
0.0528214
0.0299388
0.00960281
0.955028
0.86679
0.781197
0.699157
0.621357
0.54828
0.4802
0.4172
0.359303
0.306302
0.258059
0.214337
0.174739
0.138923
0.106679
0.0776945
0.0518074
0.0290239
0.00916812
0.953436
0.863545
0.777325
0.695338
0.618017
0.545647
0.47835
0.416099
0.358839
0.306316
0.258376
0.214788
0.175177
0.139237
0.106816
0.0776514
0.051636
0.0288273
0.00907693
0.952411
0.861382
0.774719
0.692776
0.615809
0.543959
0.477237
0.415532
0.358735
0.306555
0.258828
0.215332
0.175704
0.139667
0.107105
0.0777905
0.0516502
0.0287803
0.00905317
0.951665
0.85981
0.772826
0.690919
0.614211
0.542742
0.47644
0.415131
0.358668
0.306735
0.259161
0.215731
0.17609
0.139982
0.107318
0.0778922
0.0516586
0.0287439
0.00903681
0.951117
0.858646
0.771425
0.689538
0.61301
0.541804
0.475789
0.414752
0.35852
0.306758
0.259292
0.215912
0.17627
0.14012
0.107392
0.0778995
0.0516132
0.0286833
0.00901183
0.950592
0.857675
0.770323
0.688477
0.612084
0.541054
0.475227
0.414365
0.358283
0.306638
0.259255
0.215924
0.176303
0.140151
0.107409
0.0778947
0.0515904
0.0286568
0.00900289
0.950594
0.857679
0.770328
0.688484
0.612091
0.541062
0.475235
0.414373
0.358291
0.306645
0.259262
0.215931
0.176309
0.140156
0.107413
0.0778981
0.0515928
0.0286583
0.00900338
0.951121
0.858658
0.771441
0.689557
0.613032
0.541827
0.475814
0.414776
0.358544
0.306781
0.259314
0.215932
0.176288
0.140135
0.107406
0.0779102
0.051621
0.0286881
0.00901349
0.951672
0.859828
0.772852
0.69095
0.614247
0.54278
0.476479
0.41517
0.358707
0.306772
0.259196
0.215763
0.176119
0.140007
0.107339
0.0779088
0.0516706
0.0287512
0.0090393
0.95242
0.861406
0.774754
0.692818
0.615856
0.544009
0.477289
0.415584
0.358786
0.306604
0.258874
0.215374
0.175742
0.1397
0.107133
0.0778123
0.0516658
0.0287897
0.0090564
0.953448
0.863574
0.777367
0.69539
0.618076
0.545709
0.478414
0.416163
0.358902
0.306377
0.258433
0.214841
0.175223
0.139278
0.106849
0.0776777
0.0516548
0.0288386
0.00908075
0.955042
0.866824
0.781246
0.699216
0.621425
0.548353
0.480275
0.417275
0.359376
0.306372
0.258124
0.214396
0.174792
0.138969
0.106716
0.077723
0.0518273
0.0290354
0.0091718
0.957056
0.870974
0.786252
0.704218
0.625879
0.551961
0.482927
0.419006
0.360316
0.306721
0.258111
0.214251
0.174726
0.139147
0.107225
0.0785508
0.0528366
0.029946
0.00960452
0.958504
0.873633
0.788897
0.705989
0.626255
0.550701
0.480013
0.414584
0.354642
0.300117
0.250917
0.206797
0.167311
0.132023
0.10059
0.0725959
0.0478011
0.026249
0.00798229
0.959152
0.873947
0.787688
0.702427
0.619897
0.541449
0.468044
0.400269
0.338466
0.282615
0.232612
0.188168
0.148791
0.114035
0.0836262
0.0573474
0.0352728
0.0177065
0.00471408
0.959668
0.873833
0.785655
0.697599
0.611833
0.530105
0.453696
0.383418
0.319741
0.262697
0.21217
0.167826
0.129156
0.0957409
0.0673836
0.0439508
0.0254912
0.0119757
0.00291685
0.960284
0.8741
0.784266
0.693644
0.604842
0.520026
0.440822
0.368292
0.303051
0.245192
0.194596
0.150895
0.11356
0.0821549
0.056428
0.0360811
0.0207955
0.00998789
0.00265915
0.961038
0.874752
0.783476
0.690468
0.598796
0.511061
0.429255
0.354706
0.288178
0.229827
0.179523
0.136844
0.10119
0.0720169
0.0488698
0.0311441
0.0181301
0.00891593
0.00244144
0.962187
0.876117
0.783565
0.68829
0.593853
0.503319
0.419062
0.342675
0.275077
0.21647
0.166691
0.125225
0.0913443
0.0643114
0.0434038
0.0277196
0.0162959
0.008125
0.00225149
0.963115
0.87719
0.783389
0.685942
0.588909
0.495807
0.409376
0.331462
0.263108
0.204536
0.155517
0.115405
0.0832932
0.058217
0.0391946
0.0251049
0.0148628
0.00747245
0.00208587
0.963563
0.877263
0.781986
0.682369
0.582918
0.487562
0.399359
0.32035
0.251658
0.193478
0.145477
0.106844
0.0764692
0.0531673
0.0357452
0.0229456
0.0136445
0.00689274
0.00193005
0.963455
0.875907
0.778665
0.676747
0.575044
0.477812
0.388336
0.30877
0.240242
0.182863
0.136156
0.099126
0.0704614
0.048785
0.0327539
0.0210425
0.012534
0.006337
0.00176773
0.962458
0.872463
0.772595
0.668192
0.564433
0.465788
0.375644
0.296159
0.228376
0.17226
0.127156
0.0918733
0.0649203
0.0447725
0.0299955
0.0192443
0.0114379
0.00575044
0.00157606
0.960552
0.867008
0.763951
0.656958
0.551391
0.451813
0.361592
0.282779
0.216254
0.161779
0.118507
0.0850558
0.0597831
0.0410636
0.0274198
0.0175192
0.0103362
0.00511727
0.00134456
0.95887
0.862963
0.75837
0.650607
0.54493
0.445761
0.356306
0.278469
0.213001
0.159568
0.117245
0.0845971
0.0599529
0.0416812
0.0283167
0.0185532
0.0113749
0.00599842
0.00180343
0.95788
0.861354
0.757232
0.650708
0.546679
0.449222
0.361278
0.284581
0.219819
0.166667
0.124267
0.0912707
0.0660912
0.0471737
0.033112
0.0226204
0.0146531
0.00832895
0.00282596
0.957002
0.86002
0.756484
0.651288
0.548967
0.453258
0.366834
0.291261
0.227167
0.174239
0.13169
0.0982641
0.0724621
0.052805
0.0379389
0.0265888
0.0176828
0.0102841
0.00352083
0.95631
0.859039
0.756185
0.652364
0.551756
0.457769
0.372826
0.298338
0.23488
0.18215
0.139428
0.10555
0.0790964
0.058659
0.0429296
0.030643
0.0207146
0.012189
0.00419009
0.955671
0.858161
0.756049
0.65362
0.5547
0.462393
0.378896
0.305482
0.242672
0.190174
0.147327
0.113043
0.0859747
0.0647728
0.0481698
0.0349115
0.0239098
0.0142038
0.00491106
0.954803
0.857103
0.755787
0.654736
0.557451
0.466774
0.384706
0.312391
0.250298
0.198129
0.155268
0.120685
0.093093
0.0711886
0.0537392
0.0394997
0.0273812
0.0164193
0.00571815
0.954168
0.856505
0.755966
0.656154
0.56034
0.471158
0.39044
0.319212
0.25788
0.20613
0.163365
0.128599
0.100582
0.0780441
0.0597789
0.0445443
0.0312478
0.0189188
0.00664258
0.953971
0.856413
0.756489
0.657709
0.563188
0.475388
0.395985
0.325882
0.26541
0.214214
0.171699
0.136896
0.108576
0.0854896
0.0664427
0.0501906
0.0356315
0.0217861
0.00771679
0.953581
0.855815
0.756273
0.658373
0.565091
0.478719
0.400766
0.331992
0.272623
0.222243
0.180228
0.145612
0.117166
0.0936478
0.0738692
0.0565747
0.0406494
0.0251036
0.00897384
0.95288
0.854568
0.755172
0.658037
0.566006
0.481191
0.404902
0.337723
0.279752
0.230479
0.189237
0.155035
0.126636
0.10279
0.0823052
0.0639091
0.0464685
0.028982
0.0104569
0.952124
0.852954
0.753464
0.657021
0.566325
0.483259
0.408897
0.34361
0.287336
0.239455
0.199232
0.165644
0.137426
0.113309
0.0920921
0.0724758
0.0533034
0.0335599
0.0122181
0.95115
0.85065
0.75091
0.655261
0.566166
0.4852
0.413142
0.350121
0.29589
0.249701
0.210742
0.177943
0.150005
0.12563
0.103599
0.0825786
0.0613842
0.0389853
0.0143132
0.949412
0.847184
0.747315
0.65284
0.565836
0.487486
0.418223
0.357903
0.306086
0.261887
0.224411
0.192541
0.16493
0.140247
0.117248
0.0945624
0.0709705
0.0454255
0.0168071
0.94751
0.843685
0.744066
0.65129
0.566934
0.491715
0.425683
0.368415
0.319276
0.27725
0.241361
0.210437
0.183083
0.157923
0.133686
0.10895
0.0824566
0.0531367
0.0198012
0.945919
0.840902
0.742198
0.651883
0.570878
0.499361
0.43699
0.383078
0.336813
0.297057
0.262759
0.232698
0.205423
0.179506
0.153642
0.126349
0.0963187
0.0624453
0.023434
0.943866
0.83838
0.741828
0.655166
0.578476
0.511375
0.453169
0.402943
0.359746
0.322336
0.289598
0.260269
0.232835
0.205813
0.177858
0.147415
0.113102
0.0737529
0.0278947
0.942238
0.838175
0.745527
0.663834
0.592357
0.530248
0.476551
0.430187
0.390104
0.354979
0.323648
0.294808
0.266874
0.238295
0.207674
0.17335
0.133834
0.0878295
0.0335573
0.942546
0.842884
0.756171
0.680732
0.615242
0.558562
0.50959
0.467151
0.430136
0.397162
0.367021
0.338373
0.309551
0.278915
0.244987
0.20595
0.160125
0.105953
0.0410876
0.945548
0.853842
0.775244
0.707366
0.64865
0.597864
0.553883
0.515499
0.481589
0.450725
0.421669
0.393042
0.363075
0.330006
0.292233
0.247686
0.194344
0.130135
0.0516572
0.952039
0.872059
0.803709
0.744685
0.693577
0.649255
0.610672
0.576648
0.546085
0.517533
0.48973
0.461266
0.430244
0.394733
0.352927
0.302344
0.240351
0.163882
0.0675896
0.961924
0.897078
0.840985
0.792176
0.749696
0.712657
0.680175
0.651154
0.624567
0.598975
0.573122
0.545576
0.514299
0.477136
0.431966
0.375642
0.304459
0.213489
0.0938158
0.974002
0.926845
0.884855
0.84777
0.815222
0.786641
0.761366
0.738447
0.716995
0.695656
0.67324
0.648354
0.618847
0.582331
0.536254
0.47647
0.397484
0.291013
0.141746
0.986344
0.958229
0.931969
0.908272
0.887259
0.868669
0.852101
0.836844
0.822251
0.807201
0.79072
0.771611
0.747812
0.716864
0.675813
0.619278
0.539096
0.421348
0.239721
0.996835
0.987785
0.978609
0.970076
0.962427
0.955619
0.949526
0.943817
0.938242
0.932208
0.925253
0.916737
0.905324
0.889215
0.865691
0.8288
0.767536
0.659928
0.461928
)
;

boundaryField
{
    up
    {
        type            fixedValue;
        value           uniform 0;
    }
    low
    {
        type            fixedValue;
        value           uniform 1;
    }
    left
    {
        type            fixedValue;
        value           uniform 1;
    }
    right
    {
        type            fixedValue;
        value           uniform 1;
    }
    frontAndBackPlanes
    {
        type            empty;
    }
}


// ************************************************************************* //
