/*--------------------------------*- C++ -*----------------------------------*\
  =========                 |
  \\      /  F ield         | OpenFOAM: The Open Source CFD Toolbox
   \\    /   O peration     | Website:  https://openfoam.org
    \\  /    A nd           | Version:  7
     \\/     M anipulation  |
\*---------------------------------------------------------------------------*/
FoamFile
{
    version     2.0;
    format      ascii;
    class       volScalarField;
    location    "0.08";
    object      gradTz;
}
// * * * * * * * * * * * * * * * * * * * * * * * * * * * * * * * * * * * * * //

dimensions      [0 -1 0 1 0 0 0];

internalField   nonuniform List<scalar> 
1596
(
-8.06552e-16
-3.81845e-16
3.99358e-16
1.89451e-17
-7.32156e-16
0
-3.25056e-16
-3.20867e-16
-3.61461e-17
-1.76868e-16
-6.96638e-19
-1.78455e-16
8.06589e-16
-1.79549e-16
8.31779e-16
7.23181e-16
4.31685e-16
5.4983e-16
0
7.94095e-16
0
1.04847e-15
-1.46879e-17
-2.94301e-16
2.89897e-16
6.36498e-16
3.51487e-17
2.94247e-16
-1.44745e-16
2.91033e-16
-1.943e-18
-4.06516e-16
-2.57661e-16
-6.70835e-16
-6.60279e-16
-6.04641e-16
3.47349e-16
0
-3.73654e-16
0
-6.50807e-16
2.28665e-17
5.39784e-16
-1.78375e-16
2.61127e-17
-3.37916e-18
-2.40507e-18
-1.85627e-18
8.72935e-17
0
2.10483e-16
5.84516e-16
-5.84482e-17
4.98192e-17
1.15545e-16
1.90909e-16
0
6.07648e-16
-1.60633e-16
1.60046e-16
0
-1.46013e-16
-1.5746e-16
2.29309e-16
-1.71901e-16
0
0
-9.79163e-17
4.59312e-17
0
-1.65803e-16
-1.98146e-16
1.43718e-16
-1.66162e-16
-8.42302e-18
0
1.08499e-16
2.52953e-16
-1.98744e-16
0
-4.94352e-17
-1.55604e-16
0
2.15021e-16
-1.9903e-17
-1.8142e-17
-4.3006e-17
1.02396e-16
1.36383e-16
1.66165e-17
2.49519e-17
-1.55185e-16
7.60625e-18
7.31731e-17
-3.37087e-17
-2.81755e-17
-3.4294e-16
2.93947e-16
-2.24714e-16
-1.04724e-18
-1.58127e-16
4.1612e-18
-4.17501e-18
-1.02416e-16
0
-3.35084e-17
-1.23202e-16
-1.22371e-16
8.84133e-17
1.18222e-16
-1.53622e-18
-7.11342e-17
-7.42185e-17
5.85165e-17
2.35468e-16
-3.47664e-16
3.42193e-16
1.68904e-16
0
1.24173e-16
6.22454e-17
-2.84627e-17
1.276e-16
-2.20885e-17
-1.03381e-16
4.12667e-19
-5.43387e-17
-8.86469e-17
-6.12976e-17
5.77752e-17
7.17603e-17
-1.00198e-18
-2.33786e-17
4.26982e-17
5.63512e-16
-5.79088e-16
0
0
-1.37652e-16
0
0
0
5.91284e-17
0
0
5.17059e-17
6.64012e-19
2.58018e-17
-5.17093e-17
0
2.74984e-17
1.24728e-17
0
-3.43251e-16
6.39047e-16
0
0
1.41762e-16
0
-3.68853e-17
3.6848e-17
-6.01841e-17
2.17393e-17
-2.18983e-17
0
3.08849e-17
4.29553e-17
0
-2.44632e-17
-2.80251e-17
-1.11506e-17
9.65001e-16
-4.32788e-16
0
-2.13117e-16
2.10732e-16
0
1.01977e-16
0
0
0
1.67144e-17
-1.67946e-17
0
-2.45299e-17
-6.13934e-18
0
7.86295e-18
1.23197e-17
0
-2.45374e-16
0
0
2.17004e-16
-3.76832e-16
4.09982e-17
1.70789e-17
-3.17607e-17
8.38058e-18
2.6267e-18
-1.72952e-17
-2.15952e-17
0
1.48832e-17
-3.70973e-18
3.76541e-18
1.42953e-17
-1.01269e-17
-4.06072e-18
1.66952e-16
-3.93951e-17
1.6274e-16
4.74897e-16
-5.27982e-17
-1.63829e-16
0
0
0
3.74558e-17
1.12763e-17
3.65297e-17
-8.55848e-18
-1.46169e-17
-6.56048e-18
-4.5953e-18
2.16315e-18
-5.17578e-18
3.76072e-18
-2.08222e-16
2.06015e-16
-3.59328e-16
-4.71274e-16
4.07471e-16
1.20294e-16
-2.03963e-16
1.44017e-16
-1.00119e-16
2.66038e-17
1.40438e-17
-1.05138e-17
3.8833e-18
-4.02399e-18
1.28205e-17
0
-1.06453e-18
8.83092e-18
-1.36662e-18
-1.46436e-15
6.37933e-16
3.11873e-19
-9.46983e-17
2.86648e-17
1.1769e-16
-2.12883e-16
-6.7369e-17
4.57905e-17
-3.05022e-17
-2.02495e-17
0
-1.54664e-17
-4.12656e-18
-5.69457e-18
-3.1658e-18
2.33518e-19
-4.07353e-18
4.91572e-19
2.39152e-16
-1.95565e-16
-2.81615e-19
-1.20627e-16
-2.48056e-16
2.21492e-16
1.26028e-18
6.5651e-17
-4.45831e-17
5.8111e-17
1.18021e-17
7.84064e-18
1.64782e-17
0
9.50315e-18
4.08191e-18
0
1.78261e-18
2.92686e-19
0
1.89721e-16
1.18167e-16
-2.63821e-16
2.3896e-16
-3.22171e-16
1.97728e-16
5.16126e-17
-1.68056e-17
-6.13346e-17
7.09663e-18
-7.06161e-18
-1.40886e-17
4.18625e-18
-2.09896e-18
-3.57633e-18
1.1946e-18
-7.5268e-19
4.7446e-19
-2.21915e-16
6.55975e-16
-4.98152e-16
2.18947e-16
0
0
-2.97412e-17
6.98564e-17
-3.13035e-17
5.45342e-17
0
0
8.81988e-18
-6.46404e-18
-3.10858e-18
9.61887e-19
-9.56956e-19
5.27704e-19
0
3.56104e-17
2.07928e-16
-1.36698e-16
-1.06983e-16
-1.33408e-16
-1.75969e-17
5.38414e-17
0
-2.81964e-17
-1.58177e-17
1.30503e-17
-7.95831e-18
4.78902e-18
0
1.32105e-18
1.79022e-18
0
0
0
-3.49984e-17
2.64096e-16
6.71083e-17
-3.25869e-16
7.12572e-17
5.26281e-17
0
0
2.51525e-17
-1.38008e-17
-1.26225e-17
7.69714e-18
-4.63134e-18
0
-5.94513e-19
3.94788e-19
0
-2.52826e-19
-8.90763e-20
-1.5976e-16
4.70551e-16
-5.19536e-16
-1.59887e-16
8.94223e-17
-4.58697e-17
3.09193e-17
0
-1.28102e-17
8.83576e-18
0
0
1.39226e-18
-1.39386e-18
2.3141e-19
-3.96304e-19
3.41975e-19
8.02335e-20
6.84627e-20
9.10987e-17
-7.34179e-17
3.15108e-16
-1.97725e-16
-6.00467e-17
1.37516e-17
6.83475e-17
1.7589e-17
1.22575e-17
0
3.34599e-18
-3.01607e-18
1.76119e-18
-1.11017e-18
8.09129e-19
-1.1305e-18
-2.57356e-19
2.02401e-19
4.32222e-20
2.26525e-16
-2.38424e-16
0
1.3562e-16
-7.69162e-17
-3.94011e-17
1.50605e-17
-5.77427e-17
0
-8.04057e-19
-4.65646e-18
-2.17732e-18
2.09949e-18
-3.16613e-19
-7.82009e-19
4.34428e-19
0
8.85372e-20
-4.19684e-20
4.32049e-16
-6.51897e-17
2.23789e-16
-1.72407e-16
6.06551e-17
-1.18071e-17
-5.62873e-17
-1.10379e-17
1.7552e-17
-1.28412e-18
-4.65615e-18
3.33395e-18
-1.1922e-18
-9.28237e-19
0
0
0
-8.90082e-20
2.94669e-21
-3.53986e-16
3.36538e-16
1.52877e-20
3.4363e-17
2.40267e-17
-4.14378e-17
4.10616e-17
-2.51382e-17
1.62874e-17
-3.05019e-18
5.47957e-18
1.14751e-18
-3.69522e-19
2.32863e-20
-3.97264e-20
-8.55956e-20
0
0
0
0
0
1.18794e-16
-8.3687e-17
-1.48345e-16
0
0
-6.89631e-18
-7.9897e-18
4.74796e-18
0
-1.44722e-18
7.91215e-19
-1.69022e-18
1.78874e-18
-3.58817e-19
3.80008e-19
3.19965e-20
0
-6.81391e-17
6.89777e-17
0
-3.74277e-17
3.56658e-17
4.45584e-17
0
6.96217e-18
4.41361e-18
-2.39689e-17
0
-1.69309e-18
9.30943e-19
4.50481e-19
-2.45641e-19
2.81601e-19
0
-7.20261e-20
0
-3.51593e-17
-3.09287e-17
1.82415e-18
3.8456e-17
-8.38502e-17
0
-1.32627e-17
0
1.97699e-17
5.46229e-18
0
6.60034e-18
-5.44867e-18
7.82239e-19
-3.56299e-19
3.25129e-19
5.24205e-19
1.45357e-19
-1.15137e-19
0
6.86203e-17
-4.84789e-17
5.83008e-17
5.2786e-17
0
2.58314e-17
-2.19932e-17
-1.09865e-17
1.08728e-17
-1.57586e-17
-4.75217e-18
0
0
3.52811e-19
0
0
5.58454e-20
0
-3.24003e-16
2.52811e-16
0
6.87927e-18
-2.84774e-17
-1.29389e-18
1.90809e-17
7.78503e-18
-1.33156e-17
-1.86128e-17
2.02329e-17
-5.74541e-18
0
-1.16579e-18
0
0
0
-2.18177e-19
1.75046e-19
-9.63323e-17
8.14909e-17
1.84849e-16
-1.70946e-16
4.50601e-17
4.64421e-18
-1.92603e-17
1.28927e-17
1.67066e-17
9.1216e-18
-1.74886e-17
0
3.9093e-18
-6.49391e-19
-1.32942e-18
-1.73998e-18
1.3174e-18
-1.05471e-19
2.4278e-19
-3.43084e-16
4.09792e-16
-3.96316e-16
5.86394e-17
4.04225e-17
-3.52166e-17
2.61459e-17
-1.52235e-17
0
-8.32834e-18
8.72351e-18
3.60023e-18
4.57925e-18
3.47221e-18
-4.80897e-18
-3.40729e-19
0
-1.23918e-19
4.20955e-20
-3.70644e-16
-9.59203e-17
-1.43153e-16
8.15151e-17
-1.00626e-16
7.26941e-17
-3.96109e-17
2.53963e-17
-3.6631e-18
-3.28644e-18
-1.09814e-17
7.49516e-18
-1.49229e-18
5.70642e-18
-6.1259e-18
1.67383e-19
4.52805e-19
0
-8.51979e-20
4.00747e-16
-1.05053e-16
0
0
-1.03419e-16
1.90356e-16
-3.94821e-17
-5.38142e-18
3.81457e-17
-1.39127e-18
0
0
-3.84625e-18
0
-6.07635e-18
1.28951e-17
-8.34645e-18
0
4.33219e-20
1.31193e-16
2.26826e-16
0
-8.06145e-17
-5.19895e-17
-3.54455e-17
-4.18646e-17
1.34182e-17
-3.39437e-17
-1.41041e-17
0
0
7.91022e-18
0
0
-9.63767e-18
1.64269e-17
0
0
9.02006e-16
-1.34912e-16
-4.86953e-16
-2.17991e-16
2.99675e-16
7.94631e-17
4.0593e-17
0
-1.09764e-17
8.67781e-18
2.14087e-17
-6.36524e-18
-6.94127e-18
9.92518e-18
-1.05574e-17
-2.42178e-18
0
0
0
7.22131e-17
-5.16343e-16
5.01769e-16
-4.27191e-17
-2.85753e-16
4.2311e-16
-1.99857e-16
0
0
6.60463e-17
-5.1356e-17
0
-1.07981e-17
1.96019e-17
-1.5608e-18
4.92246e-18
1.36073e-18
2.52528e-20
2.63968e-19
0
0
0
3.62758e-16
-2.45885e-16
2.08673e-16
-3.147e-16
8.30572e-17
0
-2.22551e-17
3.02529e-17
-3.09203e-17
-4.90925e-18
3.44136e-19
-2.80633e-18
-2.91491e-19
-2.18958e-18
-6.39964e-19
-3.31456e-19
5.89585e-16
-1.01738e-15
4.65544e-16
0
9.64019e-17
-1.33152e-16
1.10115e-16
-8.6695e-17
0
-3.04354e-17
4.30256e-17
0
0
3.23276e-19
0
-3.32768e-18
2.2205e-18
2.85209e-19
5.45414e-19
6.0633e-16
0
-1.98972e-16
2.21376e-16
-1.17273e-16
2.47389e-16
-1.11248e-16
-7.15149e-17
7.22618e-17
-6.40179e-18
0
0
3.18086e-18
-4.70279e-18
-3.18273e-18
5.89258e-18
-1.25931e-18
5.88198e-19
0
3.43138e-16
2.39187e-16
-2.32213e-17
-2.12534e-16
-1.89875e-17
-1.21267e-16
2.20307e-17
9.26065e-17
-4.17144e-18
6.52201e-18
0
0
-3.25858e-18
0
3.46408e-18
-3.70573e-18
0
4.55267e-19
-1.2348e-19
-1.8189e-16
-1.20267e-16
1.12886e-16
-1.15651e-17
-4.81033e-18
1.18978e-17
0
-2.63807e-18
3.46023e-17
-2.9103e-17
0
7.70262e-18
-1.91215e-18
-6.381e-18
-5.46318e-19
-4.12529e-19
0
-3.5833e-19
0
7.06906e-17
-1.30698e-16
2.14081e-18
5.08464e-17
4.00334e-17
-3.94035e-17
-2.35917e-17
2.6559e-17
-7.66253e-18
6.08952e-18
-4.93539e-18
5.08761e-18
0
1.10422e-20
-3.99633e-19
1.43028e-18
-4.75377e-21
0
0
7.06932e-17
-7.04283e-17
-5.05732e-17
4.504e-17
7.04077e-17
-7.08233e-17
-1.17965e-17
1.18286e-17
-7.73027e-18
7.81006e-18
-4.93577e-18
9.0217e-18
-2.5302e-18
-1.6463e-18
-4.63057e-19
1.62693e-19
3.57297e-19
9.23973e-20
-6.90977e-20
0
-1.62536e-17
8.75262e-17
-9.55719e-17
7.00428e-17
-6.24941e-17
0
3.78054e-17
-3.40725e-17
0
9.69347e-18
-1.21456e-17
-6.09005e-18
6.38276e-18
1.06503e-18
0
0
-3.58505e-19
1.29328e-19
2.80936e-16
-5.02631e-16
4.80244e-16
-3.91983e-16
1.48899e-16
-1.05683e-16
1.01223e-16
1.02373e-17
-3.37622e-17
2.99778e-17
0
-1.678e-17
1.53312e-17
-2.55785e-18
-1.0432e-18
1.49666e-18
1.07056e-18
3.4804e-19
-1.2496e-19
6.81427e-16
0
-2.26106e-16
1.76168e-16
1.87705e-17
-1.26382e-16
2.132e-16
-1.71642e-16
6.44084e-17
-2.24047e-17
2.29331e-17
4.03474e-18
6.05156e-18
2.49137e-18
-1.82054e-18
-3.04108e-19
-2.29287e-18
0
2.08666e-19
5.15498e-16
-5.8037e-16
0
4.46353e-17
1.69594e-16
-1.62952e-16
2.38743e-17
1.89877e-17
7.70906e-18
1.1697e-17
0
0
-1.02549e-17
1.78438e-17
-6.24805e-18
-2.03006e-18
2.22258e-18
1.68776e-19
-3.88173e-19
8.33979e-17
5.11036e-16
-5.27544e-17
-3.1914e-16
2.81733e-16
2.91724e-17
-2.33653e-17
-1.85454e-17
5.0798e-17
-6.25739e-17
3.02765e-17
-3.0944e-17
3.53525e-18
-5.45632e-18
7.77527e-18
-5.25809e-18
0
0
2.94412e-19
0
1.23081e-16
-3.26907e-16
3.76094e-16
-2.51092e-16
2.50494e-16
0
6.13233e-17
-6.16043e-17
-3.59762e-17
5.14233e-17
0
1.55274e-17
-1.96309e-17
-2.67592e-18
0
-2.38604e-19
-3.67809e-19
-6.70054e-20
-1.24926e-15
5.73494e-16
0
-2.99684e-16
2.99655e-16
1.47998e-16
-9.61879e-17
3.11043e-17
0
-1.03129e-18
5.02323e-18
-6.36241e-18
-6.93987e-18
9.92294e-18
-1.05514e-17
0
1.54643e-18
-1.32091e-19
-2.34307e-19
7.49377e-16
-7.19012e-16
0
7.85106e-17
6.32032e-17
-5.3068e-17
0
-3.25976e-17
-2.17742e-17
0
-2.65471e-18
0
7.92252e-18
0
0
1.87704e-18
6.47901e-18
-8.73592e-18
0
-1.25199e-19
1.05111e-16
-8.70064e-17
5.52146e-17
-2.89025e-16
1.02502e-16
0
5.38894e-18
1.44869e-17
0
-1.06233e-17
2.15167e-17
-2.26045e-17
2.53463e-18
0
-7.02623e-19
0
0
0
-8.04222e-20
0
8.04157e-17
0
-8.79336e-17
8.93315e-17
0
1.92651e-17
-1.20328e-17
3.77687e-17
-1.69663e-17
3.92601e-18
-5.00782e-18
3.42773e-18
-6.14662e-18
-8.57914e-19
0
-2.1638e-19
0
2.79599e-16
-4.75732e-16
0
-5.71173e-17
4.34927e-17
0
0
-3.35117e-17
0
-8.34246e-18
-8.74052e-18
-3.60837e-18
4.59136e-18
0
1.10295e-18
0
0
4.07415e-19
-3.84285e-19
0
3.76766e-16
-2.97852e-16
5.28775e-17
-4.02745e-17
-1.21061e-17
3.15809e-17
2.74608e-17
-2.39937e-17
7.43733e-18
1.64371e-18
-2.893e-18
1.09456e-17
-3.17965e-18
-4.54993e-18
1.27468e-18
-1.82651e-19
1.12e-19
-2.14065e-20
-7.02938e-16
2.53174e-16
0
0
1.47711e-17
-1.50206e-17
5.50405e-18
6.72444e-19
1.95668e-17
6.9427e-18
-6.05615e-18
-7.59146e-19
-1.58059e-18
1.1693e-18
0
2.49753e-19
1.67413e-19
6.05515e-20
1.93484e-20
0
1.99337e-16
-1.65846e-16
4.92159e-17
3.69287e-17
-6.65301e-18
-1.51961e-17
-9.92148e-18
-2.3505e-17
6.53331e-18
-1.7768e-18
3.9154e-18
1.47805e-18
-1.06346e-18
1.1288e-18
3.6736e-19
-5.49269e-19
-5.59283e-20
0
-4.17031e-17
-1.62838e-16
4.99865e-17
3.84716e-17
-1.03434e-16
6.68874e-17
2.06031e-17
-2.10595e-17
1.04335e-17
-6.20044e-18
0
0
-1.54902e-18
2.46261e-18
-8.89842e-19
4.86443e-19
-5.36618e-19
6.48356e-20
-1.15231e-19
7.48733e-17
6.25871e-17
-4.8694e-17
2.52862e-17
-3.68833e-17
-3.578e-17
0
0
0
0
0
0
8.30012e-19
-1.42624e-18
1.5084e-18
-2.8249e-19
3.6663e-19
1.26958e-19
-1.05492e-19
1.61531e-16
-2.18726e-16
2.69669e-16
-8.53976e-17
1.22662e-16
-5.45052e-17
9.05159e-17
-4.20043e-17
-1.23291e-17
1.26121e-17
0
1.44637e-18
-8.10879e-19
1.25115e-18
-6.42955e-19
-4.8259e-19
-6.24627e-19
5.77109e-20
8.63363e-20
2.54863e-16
6.16667e-17
0
-6.8845e-17
-3.92046e-17
7.99835e-17
6.95493e-19
-1.91905e-17
9.38384e-18
-4.28975e-18
0
-1.14496e-18
0
-5.11357e-19
3.32766e-19
-2.1845e-19
-6.3063e-20
3.0617e-20
0
3.51099e-16
-6.51885e-17
2.24235e-16
-1.7315e-16
-2.61381e-17
7.44438e-17
-4.38619e-17
3.50768e-18
2.11537e-18
-4.56837e-18
3.789e-18
0
0
7.52928e-19
-1.30694e-19
5.62701e-20
2.23333e-19
-7.27833e-20
0
4.41864e-21
0
-5.30931e-17
2.54647e-16
-1.6371e-16
-1.21625e-16
6.49903e-17
-4.10852e-17
3.49758e-17
1.18108e-17
-6.4645e-18
2.06207e-18
-1.53891e-18
3.7307e-19
1.26207e-18
-3.85936e-20
-2.47676e-19
2.17277e-19
-4.63424e-20
8.18189e-16
-2.52538e-16
8.55811e-17
-2.81929e-16
6.00466e-17
-7.35886e-17
4.30314e-17
0
0
-9.63535e-19
-1.72313e-18
-4.29146e-19
0
-1.44452e-18
-8.09117e-19
4.48884e-19
-2.67622e-20
7.40927e-20
1.03354e-19
0
-2.3505e-16
3.36607e-16
4.07404e-17
-2.25387e-16
4.58697e-17
-5.32634e-17
1.80208e-17
3.4328e-17
0
0
4.07249e-19
2.39028e-18
0
-1.0861e-18
-3.64731e-19
6.03497e-20
-1.06132e-19
-1.4815e-19
0
-1.33039e-16
6.19203e-17
2.28249e-16
1.22425e-16
-2.1056e-16
8.63016e-17
-3.9225e-17
2.28193e-17
-2.02758e-17
0
0
0
-2.76617e-18
2.99579e-19
-5.97464e-19
0
-2.42164e-20
1.1373e-19
-6.01083e-16
5.53208e-16
4.83798e-16
-5.78737e-16
2.09465e-16
-1.8804e-16
0
4.34143e-17
-5.46099e-17
2.61053e-17
-1.4356e-17
8.89945e-18
5.46219e-18
2.86083e-18
1.71931e-18
0
0
0
0
7.02022e-16
-3.62227e-16
0
0
-8.30362e-17
1.60949e-16
-1.00612e-16
-4.76897e-17
4.71522e-17
2.36002e-17
3.10346e-17
-9.23404e-18
3.15359e-18
1.60298e-18
9.57058e-19
7.51817e-19
1.15001e-18
-5.06066e-20
5.15474e-20
-6.95374e-16
6.05152e-16
2.6877e-16
-1.47201e-16
2.37832e-16
-1.49242e-16
-9.0469e-17
-6.23686e-17
0
-4.96711e-17
5.2785e-18
1.15348e-17
-6.63209e-18
-4.1865e-18
-1.23519e-18
-9.5578e-19
-7.70121e-19
0
0
-2.39133e-16
0
1.55511e-16
4.05462e-19
0
0
9.33217e-17
6.43556e-17
0
2.84384e-17
0
-1.70659e-17
-3.6309e-18
6.06907e-18
0
3.31213e-18
-4.24003e-19
4.3254e-19
0
5.27207e-16
0
2.84246e-16
-4.97928e-16
3.99586e-16
2.54065e-16
-1.84417e-17
0
8.00487e-18
3.84401e-17
0
-2.08031e-17
1.90677e-17
-1.51998e-17
-3.01495e-18
-2.54971e-18
-8.98389e-19
-2.00349e-19
-1.10648e-18
-4.56963e-16
6.49184e-16
-1.61931e-16
-3.75364e-16
-1.89622e-16
-1.39562e-16
-1.99559e-16
-5.95895e-17
1.09326e-17
1.40703e-17
-1.40439e-17
3.28218e-17
-1.31886e-17
2.25191e-17
-4.07448e-18
0
6.3009e-18
-4.39687e-18
1.02944e-18
1.08423e-15
-3.84474e-17
-6.83992e-16
4.749e-16
-3.84212e-16
2.85215e-16
-1.83611e-17
-7.27319e-17
5.20541e-17
1.54319e-17
-4.15131e-18
-2.91987e-17
6.75668e-18
1.06864e-17
-2.45631e-18
2.48433e-18
-6.5262e-18
-2.96356e-18
-3.2104e-18
5.32259e-16
2.00399e-16
3.18217e-16
-2.44056e-16
-1.6273e-16
2.29038e-17
-8.75395e-17
2.02928e-16
1.16909e-17
6.49755e-17
3.29446e-17
-2.70499e-17
0
-1.48845e-17
0
0
1.69961e-17
6.47057e-18
3.62124e-18
4.80835e-16
0
3.07862e-16
2.42481e-16
-1.83219e-16
1.38099e-16
0
-7.51358e-17
-9.17278e-17
-6.78133e-17
-3.32362e-17
2.73558e-17
0
0
0
0
-1.60691e-17
-1.82464e-17
0
-9.40681e-16
0
-3.39998e-17
-3.1399e-17
2.84037e-16
-1.23392e-16
-4.93061e-17
-5.05582e-17
9.60458e-17
0
2.17396e-17
-2.1081e-18
2.61959e-17
0
0
4.02043e-17
-3.1445e-18
2.20081e-17
-1.21777e-17
6.49347e-16
1.63419e-16
-1.61732e-16
-1.25763e-16
-3.5813e-16
2.17338e-16
2.26345e-16
-1.35968e-17
-6.98568e-17
7.57548e-17
1.43875e-17
-8.13397e-17
-5.89799e-17
-4.99799e-17
-5.56781e-17
-4.66659e-17
5.35481e-17
-2.39051e-18
1.24725e-17
-1.92202e-16
7.87495e-17
-3.62722e-16
5.09748e-17
-5.07893e-17
0
-1.15459e-16
-2.07999e-17
-1.05602e-16
2.38422e-17
1.03381e-16
6.52135e-17
-1.87569e-17
-7.61811e-18
5.20223e-17
0
-1.23112e-16
-5.323e-17
-1.05948e-18
4.1132e-16
-9.64513e-18
5.69199e-16
-2.47037e-16
1.04723e-18
5.53399e-18
1.56926e-16
-2.94708e-17
1.02416e-16
-9.51229e-17
-9.11847e-17
0
1.22369e-16
8.68652e-17
1.48353e-18
-2.20727e-18
7.18382e-17
5.40615e-17
0
-2.87483e-16
0
-4.59436e-17
2.41326e-16
7.13173e-18
4.95012e-17
-1.51745e-16
1.38238e-16
1.70138e-16
1.65594e-16
1.63863e-16
0
-1.18879e-16
0
7.96383e-18
-8.27115e-18
0
-9.33513e-19
4.8808e-17
2.1289e-16
2.26156e-17
-1.27649e-16
4.10256e-16
-1.25817e-16
0
0
-2.20644e-16
-1.64847e-16
-1.60424e-16
-3.24835e-16
-4.59307e-17
0
0
0
-1.90065e-17
2.01136e-17
1.39265e-16
-4.96034e-17
2.43156e-17
0
-3.104e-16
-2.55072e-16
2.85686e-16
-2.87467e-16
-4.00364e-16
4.56301e-16
1.48672e-16
0
2.04792e-16
2.67233e-16
-5.73427e-17
3.25744e-16
-5.42788e-17
5.6491e-17
2.32208e-16
-1.32363e-16
0
-4.01382e-16
0
-3.69573e-16
3.56466e-16
0
5.86164e-16
2.65462e-16
-5.91538e-16
5.05518e-16
-1.3656e-18
-1.46226e-16
-2.58736e-16
0
4.10517e-16
-6.70835e-16
7.25916e-16
-9.26574e-16
0
0
4.03015e-16
-5.92388e-18
-1.42681e-17
-7.40363e-16
7.60613e-16
-3.58975e-16
3.57512e-16
3.52895e-16
-2.83565e-16
0
0
6.15541e-16
-6.26145e-16
-6.44677e-16
6.45999e-16
-6.34932e-16
6.91585e-16
-1.08855e-15
0
)
;

boundaryField
{
    up
    {
        type            calculated;
        value           nonuniform List<scalar> 
84
(
0
0
0
0
-3.37087e-17
5.85165e-17
-2.33786e-17
1.24728e-17
-1.11506e-17
0
-4.06072e-18
3.76072e-18
-1.36662e-18
4.91572e-19
2.92686e-19
4.7446e-19
0
0
-8.90763e-20
6.84627e-20
4.32222e-20
-4.19684e-20
2.94669e-21
0
1.48259e-20
1.02403e-20
-1.03496e-19
0
1.75046e-19
2.81809e-19
4.20955e-20
-8.51979e-20
4.33219e-20
0
2.21861e-20
2.61006e-19
-3.22124e-19
5.3724e-19
0
-1.20902e-19
0
0
-6.87062e-20
1.29328e-19
-1.2496e-19
2.08666e-19
-3.88173e-19
2.94412e-19
-6.70054e-20
-2.34307e-19
0
0
0
-3.84285e-19
-6.10284e-20
1.93484e-20
0
-1.15231e-19
-1.05492e-19
7.15331e-20
0
0
-4.63424e-20
1.03354e-19
-1.4815e-19
1.1373e-19
0
5.15474e-20
0
0
-1.10648e-18
1.02944e-18
-3.2104e-18
3.62124e-18
0
-1.21777e-17
1.24725e-17
-1.05948e-18
0
4.8808e-17
-4.96034e-17
0
0
0
)
;
    }
    low
    {
        type            calculated;
        value           nonuniform List<scalar> 
84
(
-8.07898e-16
7.94095e-16
-3.7122e-16
6.09534e-16
1.09716e-16
-2.85173e-17
2.38202e-16
4.5209e-17
0
9.679e-16
-2.45374e-16
1.65032e-16
-2.08222e-16
-1.46513e-15
2.39152e-16
0
-2.21915e-16
3.56104e-17
-3.49984e-17
-1.5976e-16
9.10987e-17
2.26525e-16
4.29772e-16
-3.53986e-16
0
-6.81391e-17
-3.51593e-17
0
-3.24003e-16
-9.63323e-17
-3.41894e-16
-3.6994e-16
4.00566e-16
1.31193e-16
9.02816e-16
7.22131e-17
0
5.89585e-16
6.08826e-16
3.44438e-16
-1.82563e-16
7.06906e-17
7.06932e-17
0
2.80936e-16
6.83923e-16
5.15498e-16
8.54339e-17
0
-1.25006e-15
7.49377e-16
-1.25199e-19
-8.04222e-20
2.79599e-16
0
-7.00233e-16
0
-4.17031e-17
7.48733e-17
1.5985e-16
2.52181e-16
3.48821e-16
4.41864e-21
8.16757e-16
0
0
-6.01083e-16
7.01953e-16
-6.95625e-16
-2.39133e-16
5.27981e-16
-4.56963e-16
1.08807e-15
5.34643e-16
4.80835e-16
-9.40681e-16
6.46836e-16
-1.89468e-16
4.1132e-16
-2.86266e-16
2.1289e-16
2.67504e-17
-4.01382e-16
4.03688e-16
)
;
    }
    left
    {
        type            calculated;
        value           nonuniform List<scalar> 
19
(
-8.06552e-16
-3.82342e-16
3.99358e-16
1.93047e-17
-7.32969e-16
0
-3.25056e-16
-3.20867e-16
-3.79942e-17
-1.76868e-16
-6.96638e-19
-1.78455e-16
8.145e-16
-1.79549e-16
8.31779e-16
7.23181e-16
4.31685e-16
6.3784e-16
0
)
;
    }
    right
    {
        type            calculated;
        value           nonuniform List<scalar> 
19
(
4.03015e-16
-5.42664e-18
-1.42681e-17
-7.40723e-16
7.61426e-16
-3.58975e-16
3.57512e-16
3.52895e-16
-2.81717e-16
0
0
6.2158e-16
-6.34055e-16
-6.44677e-16
6.45999e-16
-6.34932e-16
6.91585e-16
-1.17656e-15
0
)
;
    }
    frontAndBackPlanes
    {
        type            empty;
    }
}


// ************************************************************************* //
