/*--------------------------------*- C++ -*----------------------------------*\
  =========                 |
  \\      /  F ield         | OpenFOAM: The Open Source CFD Toolbox
   \\    /   O peration     | Website:  https://openfoam.org
    \\  /    A nd           | Version:  7
     \\/     M anipulation  |
\*---------------------------------------------------------------------------*/
FoamFile
{
    version     2.0;
    format      ascii;
    class       volScalarField;
    location    "0.06";
    object      gradTz;
}
// * * * * * * * * * * * * * * * * * * * * * * * * * * * * * * * * * * * * * //

dimensions      [0 -1 0 1 0 0 0];

internalField   nonuniform List<scalar> 
1596
(
-1.129e-15
-5.27484e-16
5.59507e-16
3.32832e-17
-1.00857e-15
0
-4.38487e-16
-4.33287e-16
-5.81599e-17
-2.43516e-16
-5.7138e-19
-2.46703e-16
1.12922e-15
-2.49933e-16
1.15189e-15
1.00551e-15
6.01379e-16
7.70634e-16
0
1.10369e-15
0
1.41175e-15
-2.39386e-17
-3.79891e-16
3.74064e-16
8.48885e-16
5.63555e-17
3.88428e-16
-1.9234e-16
3.87637e-16
-1.45574e-18
-5.40733e-16
-3.44213e-16
-9.2763e-16
-9.17366e-16
-8.4337e-16
4.87492e-16
0
-5.09327e-16
0
-8.55119e-16
3.68152e-17
6.76301e-16
-2.4102e-16
4.07525e-17
-3.84484e-18
-2.32431e-18
-1.42181e-18
1.04112e-16
0
2.7976e-16
7.66357e-16
-7.70028e-17
6.75086e-17
1.55265e-16
2.65283e-16
0
8.42368e-16
-2.09449e-16
2.08685e-16
0
-1.84934e-16
-2.02264e-16
2.77388e-16
-1.93574e-16
0
0
-1.32115e-16
5.49242e-17
0
-2.1327e-16
-2.45863e-16
1.82083e-16
-2.23964e-16
-1.12492e-17
0
1.51899e-16
3.35068e-16
-2.4616e-16
0
-5.58647e-17
-1.79178e-16
0
2.40342e-16
-2.13885e-17
-1.96489e-17
-6.04639e-17
1.09385e-16
1.50357e-16
1.95903e-17
4.09302e-17
-1.96459e-16
9.47645e-18
9.32733e-17
-4.45474e-17
-3.94458e-17
-4.51419e-16
3.67967e-16
-2.65336e-16
-1.54018e-18
-1.65619e-16
4.19959e-18
-4.21353e-18
-9.77243e-17
0
-4.41291e-17
-1.32656e-16
-1.34459e-16
9.14835e-17
1.3693e-16
-1.73199e-18
-8.20963e-17
-9.46058e-17
7.58622e-17
3.29655e-16
-4.6006e-16
4.27705e-16
1.96524e-16
0
1.31266e-16
6.10986e-17
-2.7156e-17
1.20713e-16
-2.0031e-17
-9.92631e-17
1.97367e-19
-4.90484e-17
-9.16361e-17
-5.96222e-17
5.86494e-17
8.28189e-17
-1.17922e-18
-2.95849e-17
6.88667e-17
7.52132e-16
-7.30806e-16
0
0
-1.4176e-16
0
0
0
4.7352e-17
0
0
4.75045e-17
1.69639e-19
2.85874e-17
-5.29881e-17
0
2.816e-17
1.36893e-17
0
-4.48283e-16
8.22884e-16
0
0
1.45993e-16
0
-3.12415e-17
3.12099e-17
-4.81975e-17
1.62356e-17
-1.63544e-17
0
2.29538e-17
3.75232e-17
0
-2.1171e-17
-2.86656e-17
-1.23488e-17
1.33441e-15
-5.89577e-16
0
-2.51338e-16
2.48525e-16
0
9.90441e-17
0
0
0
1.14677e-17
-1.15227e-17
0
-1.84747e-17
-4.31368e-18
0
8.43806e-18
1.01167e-17
0
-3.39398e-16
0
0
2.58376e-16
-4.36075e-16
5.57426e-17
2.34932e-17
-2.71336e-17
9.05758e-18
2.36864e-18
-1.21398e-17
-1.32618e-17
0
8.63545e-18
-2.37972e-18
2.41543e-18
1.09678e-17
-8.46306e-18
-3.21832e-18
2.1342e-16
-6.27308e-17
2.10313e-16
5.7753e-16
-7.56149e-17
-1.8419e-16
0
0
0
2.73882e-17
7.14652e-18
2.16242e-17
-4.98489e-18
-8.48097e-18
-3.33148e-18
-2.62225e-18
1.26843e-18
-3.22605e-18
2.95375e-18
-2.79776e-16
2.78434e-16
-4.74568e-16
-5.74056e-16
4.82919e-16
1.26549e-16
-2.07394e-16
1.34235e-16
-8.46609e-17
2.2317e-17
9.97652e-18
-6.46713e-18
1.81372e-18
-1.98301e-18
6.56702e-18
0
-5.71897e-19
5.11009e-18
-8.08237e-19
-2.02609e-15
8.66335e-16
2.04457e-19
-1.10491e-16
4.17708e-17
1.24231e-16
-2.20122e-16
-6.22528e-17
3.83956e-17
-2.2984e-17
-1.35979e-17
0
-8.29069e-18
-2.08614e-18
-2.47184e-18
-1.31023e-18
8.90269e-20
-2.05208e-18
3.65532e-19
3.30735e-16
-2.62129e-16
-7.99286e-19
-1.48631e-16
-2.83165e-16
2.47464e-16
1.56538e-18
6.06653e-17
-3.73832e-17
4.37985e-17
8.1527e-18
5.03879e-18
8.67116e-18
0
4.01026e-18
1.62969e-18
0
7.98737e-19
1.8555e-19
0
2.54295e-16
1.44614e-16
-3.325e-16
2.71966e-16
-3.51637e-16
2.03414e-16
4.56939e-17
-1.77168e-17
-4.78774e-17
4.55686e-18
-4.53438e-18
-7.38706e-18
1.92295e-18
-8.97899e-19
-1.37984e-18
4.04725e-19
-2.5241e-19
1.99701e-19
-3.0636e-16
8.60698e-16
-6.58377e-16
2.65903e-16
0
0
-2.73891e-17
6.69229e-17
-2.48348e-17
4.19398e-17
0
0
4.54592e-18
-3.05769e-18
-1.22197e-18
3.68553e-19
-3.27708e-19
1.79845e-19
0
5.75145e-17
2.87285e-16
-1.74798e-16
-1.31e-16
-1.47274e-16
-9.06554e-18
5.67796e-17
0
-2.19674e-17
-1.01567e-17
8.40341e-18
-4.54749e-18
2.41493e-18
0
5.42078e-19
6.36589e-19
0
0
0
-5.6808e-17
3.32583e-16
6.76874e-17
-3.99895e-16
7.94017e-17
5.53031e-17
0
0
1.91325e-17
-1.07493e-17
-8.12792e-18
4.39825e-18
-2.33542e-18
0
-2.16841e-19
1.39611e-19
0
-6.78337e-20
-2.3255e-20
-2.11368e-16
6.24665e-16
-6.63828e-16
-1.84071e-16
1.05461e-16
-4.6355e-17
2.85846e-17
0
-9.68515e-18
6.19336e-18
0
0
6.36076e-19
-6.36809e-19
8.12926e-20
-1.44148e-19
9.56267e-20
2.38643e-20
1.79282e-20
1.25338e-16
-9.65944e-17
3.87126e-16
-2.40086e-16
-6.44734e-17
1.62403e-17
6.50815e-17
1.42309e-17
9.26723e-18
0
1.88102e-18
-1.6927e-18
8.72409e-19
-4.84227e-19
2.76686e-19
-3.4771e-19
-7.00545e-20
5.17182e-20
9.93322e-21
3.02723e-16
-3.23403e-16
0
1.51104e-16
-8.80089e-17
-3.87919e-17
1.13971e-17
-4.81867e-17
0
-5.40772e-19
-2.80879e-18
-1.10353e-18
9.06963e-19
-1.55319e-19
-2.67412e-19
1.30155e-19
0
1.9918e-20
-9.64507e-21
6.02772e-16
-8.5135e-17
2.67318e-16
-2.04616e-16
5.97837e-17
-1.84195e-17
-5.075e-17
-7.97565e-18
1.21526e-17
-9.73374e-19
-2.34009e-18
1.59491e-18
-5.23662e-19
-3.29485e-19
0
0
0
-1.99903e-20
6.28545e-22
-4.77646e-16
4.4955e-16
-2.68782e-19
3.82983e-17
2.46274e-17
-3.68862e-17
3.41427e-17
-1.85513e-17
1.0657e-17
-1.60429e-18
2.83063e-18
4.71773e-19
-1.34556e-19
8.88847e-21
-7.07984e-21
-2.09464e-20
0
0
0
0
0
1.36939e-16
-1.08486e-16
-1.56765e-16
0
0
-4.78912e-18
-4.92876e-18
2.50038e-18
0
-5.94993e-19
2.84236e-19
-5.04781e-19
5.19215e-19
-8.39894e-20
8.9343e-20
6.58111e-21
0
-9.15824e-17
9.27095e-17
0
-4.19942e-17
3.81736e-17
4.29797e-17
0
4.83486e-18
2.22566e-18
-1.32938e-17
0
-6.6611e-19
3.17526e-19
1.37423e-19
-6.62901e-20
6.71915e-20
0
-1.48493e-20
0
-4.73243e-17
-3.92863e-17
2.32102e-18
4.3148e-17
-8.55459e-17
0
-1.08704e-17
0
1.22253e-17
2.87975e-18
0
2.55505e-18
-1.92696e-18
2.87566e-19
-6.2808e-20
9.45882e-20
1.18562e-19
2.988e-20
-2.36226e-20
0
9.00188e-17
-5.78528e-17
6.87052e-17
5.44326e-17
0
2.085e-17
-1.70159e-17
-6.88464e-18
5.69217e-18
-8.11574e-18
-1.96412e-18
0
0
9.07963e-20
0
0
1.05441e-20
0
-4.37568e-16
3.43646e-16
0
1.00259e-17
-2.8114e-17
-1.19516e-18
1.69332e-17
5.20253e-18
-1.02681e-17
-1.13749e-17
1.03666e-17
-2.9388e-18
0
-3.98988e-19
0
0
0
-4.02472e-20
3.19996e-20
-1.32833e-16
1.07629e-16
2.28161e-16
-2.05748e-16
5.03888e-17
5.94156e-18
-1.70407e-17
1.01893e-17
1.16879e-17
5.51252e-18
-1.04152e-17
0
1.54952e-18
-4.49501e-19
-4.53565e-19
-4.42656e-19
3.16458e-19
-1.66129e-20
4.20871e-20
-4.82514e-16
5.35512e-16
-5.12354e-16
7.05198e-17
4.47571e-17
-3.75991e-17
2.61622e-17
-1.32945e-17
0
-5.9564e-18
5.10568e-18
2.05385e-18
2.32493e-18
1.36796e-18
-1.83343e-18
-1.56637e-19
0
-2.33386e-20
6.58691e-21
-5.20994e-16
-1.2768e-16
-1.78629e-16
1.04581e-16
-1.14625e-16
7.66324e-17
-4.01847e-17
2.27153e-17
-3.78988e-18
-3.21398e-18
-6.9905e-18
5.03016e-18
-5.4109e-19
2.6099e-18
-2.80175e-18
-6.40399e-21
1.72455e-19
0
-1.47872e-20
5.63309e-16
-1.4097e-16
0
0
-1.18379e-16
2.12576e-16
-4.18267e-17
-4.89264e-18
3.23975e-17
-1.37773e-18
0
0
-2.19061e-18
0
-2.92273e-18
5.82173e-18
-3.64029e-18
0
8.47919e-21
1.81572e-16
3.04898e-16
0
-1.00781e-16
-5.89183e-17
-3.47415e-17
-4.46228e-17
1.27654e-17
-3.08935e-17
-1.11219e-17
0
0
5.43134e-18
0
0
-4.92641e-18
8.56672e-18
0
0
1.24952e-15
-2.0016e-16
-6.46105e-16
-2.67094e-16
3.69212e-16
9.0396e-17
4.32674e-17
0
-1.01347e-17
7.42431e-18
1.77508e-17
-5.08926e-18
-4.76604e-18
6.43497e-18
-6.84484e-18
-1.36943e-18
0
0
0
1.00008e-16
-6.8912e-16
6.67381e-16
-5.40962e-17
-3.40461e-16
4.9236e-16
-2.261e-16
0
0
5.93727e-17
-4.49875e-17
0
-7.74899e-18
1.43054e-17
-9.45985e-19
3.27162e-18
8.6132e-19
1.85508e-20
1.57579e-19
0
0
0
4.52837e-16
-3.08305e-16
2.37835e-16
-3.53295e-16
8.99046e-17
0
-2.0746e-17
2.58115e-17
-2.63809e-17
-3.75077e-18
3.54279e-19
-1.92373e-18
-1.77267e-19
-1.45253e-18
-4.25151e-19
-2.15945e-19
8.08737e-16
-1.37815e-15
6.2184e-16
0
1.14887e-16
-1.59753e-16
1.20664e-16
-9.46011e-17
0
-2.78912e-17
3.97074e-17
0
0
3.42875e-19
0
-2.34296e-18
1.54608e-18
1.68321e-19
3.59571e-19
8.49391e-16
0
-2.58108e-16
2.86668e-16
-1.40749e-16
2.92132e-16
-1.28194e-16
-7.46174e-17
7.53967e-17
-6.16477e-18
0
0
2.61781e-18
-3.61895e-18
-2.3573e-18
4.30978e-18
-9.08944e-19
4.06047e-19
0
4.80134e-16
3.19989e-16
-3.9202e-17
-2.7573e-16
-2.33237e-17
-1.40439e-16
3.03285e-17
1.02209e-16
-4.26613e-18
6.28053e-18
0
0
-2.68177e-18
0
2.62876e-18
-2.81214e-18
0
3.32905e-19
-8.94729e-20
-2.54386e-16
-1.60956e-16
1.5122e-16
-1.47634e-17
-5.92514e-18
1.40603e-17
0
-2.84641e-18
3.4759e-17
-2.92078e-17
0
6.63475e-18
-1.87152e-18
-5.2611e-18
-4.27608e-19
-3.15063e-19
0
-2.62757e-19
0
9.69794e-17
-1.77285e-16
4.96511e-18
6.60919e-17
4.85436e-17
-4.75679e-17
-2.61556e-17
2.93642e-17
-7.69654e-18
6.16838e-18
-4.48023e-18
4.61842e-18
0
8.95944e-21
-3.08037e-19
1.10643e-18
-3.58864e-21
0
0
9.6983e-17
-9.66196e-17
-6.57328e-17
5.86756e-17
8.51899e-17
-8.56928e-17
-1.30786e-17
1.31167e-17
-7.76623e-18
7.84561e-18
-4.48066e-18
8.02453e-18
-2.247e-18
-1.36553e-18
-3.60029e-19
1.3192e-19
2.72483e-19
6.92264e-20
-5.1652e-20
0
-2.20231e-17
1.13492e-16
-1.24334e-16
8.46954e-17
-7.57891e-17
0
3.98609e-17
-3.60585e-17
0
8.76376e-18
-1.0918e-17
-5.02153e-18
5.26289e-18
8.24165e-19
0
0
-2.62919e-19
9.44012e-20
3.85352e-16
-6.81619e-16
6.33787e-16
-5.01187e-16
1.87368e-16
-1.22082e-16
1.17463e-16
1.09656e-17
-3.37611e-17
2.98806e-17
0
-1.4311e-17
1.30727e-17
-2.01451e-18
-8.07269e-19
1.10471e-18
7.74872e-19
2.55244e-19
-9.1213e-20
9.5347e-16
0
-2.93856e-16
2.29133e-16
2.30578e-17
-1.46037e-16
2.40525e-16
-1.84328e-16
6.74871e-17
-2.09593e-17
2.14537e-17
3.48977e-18
4.88465e-18
1.96215e-18
-1.3461e-18
-2.43019e-19
-1.65721e-18
0
1.42858e-19
7.06061e-16
-7.94978e-16
0
5.68121e-17
2.04258e-16
-1.94574e-16
2.65602e-17
2.0033e-17
7.77071e-18
1.09935e-17
0
0
-8.12618e-18
1.36655e-17
-4.6674e-18
-1.41382e-18
1.5479e-18
1.13728e-19
-2.63689e-19
1.33083e-16
7.00822e-16
-6.92077e-17
-3.97618e-16
3.51907e-16
3.4079e-17
-2.5994e-17
-1.95662e-17
4.9038e-17
-6.01157e-17
2.58362e-17
-2.64058e-17
2.52424e-18
-4.27298e-18
5.34828e-18
-3.62327e-18
0
0
1.80094e-19
0
1.66255e-16
-4.20442e-16
4.85023e-16
-2.98337e-16
2.97627e-16
0
6.20097e-17
-6.22939e-17
-3.20296e-17
4.50561e-17
0
1.13645e-17
-1.43302e-17
-1.83485e-18
0
-1.45671e-19
-2.02951e-19
-5.14604e-20
-1.73018e-15
7.83039e-16
0
-3.69256e-16
3.69219e-16
1.65912e-16
-1.07298e-16
3.1076e-17
0
-8.87196e-19
3.46808e-18
-5.08901e-18
-4.76757e-18
6.43694e-18
-6.8446e-18
0
8.34257e-19
-2.69621e-20
-1.31451e-19
1.02792e-15
-9.76932e-16
0
9.70718e-17
7.41824e-17
-6.00311e-17
0
-3.2568e-17
-1.93945e-17
0
-2.69653e-18
0
5.44264e-18
0
0
9.49821e-19
3.11688e-18
-4.29639e-18
0
-3.38949e-19
1.41051e-16
-1.11594e-16
6.35228e-17
-3.38307e-16
1.15988e-16
0
4.90094e-18
1.28002e-17
0
-7.99238e-18
1.35755e-17
-1.42618e-17
1.31063e-18
0
-4.3081e-19
0
0
0
-2.63951e-19
0
1.03141e-16
0
-9.72041e-17
9.87494e-17
0
1.69183e-17
-9.45312e-18
2.77805e-17
-1.20275e-17
2.24131e-18
-2.54492e-18
1.43419e-18
-2.81525e-18
-3.66757e-19
0
-5.05922e-20
0
3.76616e-16
-6.42407e-16
0
-6.76566e-17
4.78977e-17
0
0
-2.87322e-17
0
-5.96921e-18
-5.11867e-18
-2.05997e-18
2.33328e-18
0
3.73851e-19
0
0
8.49001e-20
-7.16686e-20
0
4.89671e-16
-3.84953e-16
6.26346e-17
-4.43535e-17
-1.15942e-17
2.8843e-17
2.23388e-17
-1.66998e-17
5.11047e-18
1.28532e-18
-1.31014e-18
4.78138e-18
-1.31734e-18
-1.48571e-18
3.68034e-19
-3.73945e-20
2.10412e-20
-3.59995e-21
-9.68078e-16
3.44481e-16
0
0
1.50924e-17
-1.53473e-17
3.87844e-18
-6.75324e-19
1.28395e-17
3.88145e-18
-3.21155e-18
-4.63114e-19
-5.73629e-19
4.00675e-19
0
5.66065e-20
3.42747e-20
1.13563e-20
3.25385e-21
0
2.59721e-16
-2.05202e-16
5.87359e-17
3.78358e-17
-6.63103e-18
-1.29041e-17
-7.45202e-18
-1.51274e-17
3.54152e-18
-6.01391e-19
1.83056e-18
5.36414e-19
-3.00927e-19
3.19415e-19
7.75841e-20
-1.2016e-19
-1.04892e-20
0
-5.84145e-17
-2.14668e-16
6.13792e-17
4.31682e-17
-1.03643e-16
6.40145e-17
1.58252e-17
-1.61758e-17
6.54009e-18
-3.36108e-18
0
0
-5.00818e-19
7.61359e-19
-2.50773e-19
1.09827e-19
-1.2025e-19
1.31945e-20
-2.35657e-20
1.03003e-16
8.18719e-17
-5.92258e-17
2.52452e-17
-4.10824e-17
-3.22701e-17
0
0
0
0
0
0
2.88538e-19
-4.12579e-19
4.36347e-19
-6.47727e-20
8.67638e-20
2.61257e-20
-2.16104e-20
2.26143e-16
-2.76576e-16
3.38647e-16
-8.94709e-17
1.30924e-16
-4.66341e-17
7.38956e-17
-3.13512e-17
-7.13755e-18
7.30139e-18
0
5.94522e-19
-2.81887e-19
3.70714e-19
-2.1339e-19
-1.33682e-19
-1.42092e-19
1.41399e-20
1.73277e-20
3.58787e-16
8.05341e-17
0
-7.71173e-17
-3.80544e-17
7.39677e-17
-1.35246e-18
-1.43643e-17
6.39658e-18
-2.46216e-18
0
-4.70632e-19
0
-1.69427e-19
1.00057e-19
-5.68883e-20
-1.51859e-20
6.08527e-21
0
4.91481e-16
-8.51333e-17
2.68382e-16
-2.06097e-16
-2.74346e-17
6.80695e-17
-3.96468e-17
3.28613e-18
1.80899e-18
-2.80454e-18
2.15024e-18
0
0
2.70437e-19
-3.15194e-20
1.12891e-20
5.31115e-20
-1.62923e-20
0
-8.2839e-20
0
-6.53938e-17
2.88588e-16
-1.81865e-16
-1.15962e-16
6.14028e-17
-3.14327e-17
2.5934e-17
7.4602e-18
-3.60145e-18
1.06016e-18
-7.2295e-19
1.72826e-19
4.40643e-19
-1.91183e-20
-6.36285e-20
5.07589e-20
-1.0643e-20
1.12676e-15
-3.43153e-16
9.94065e-17
-3.37838e-16
6.44733e-17
-7.20239e-17
4.32537e-17
0
0
-6.99977e-19
-1.32578e-18
-2.85845e-19
0
-5.64258e-19
-2.76666e-19
1.34475e-19
-7.02987e-21
2.09242e-20
2.46542e-20
0
-3.11282e-16
4.16168e-16
3.46758e-17
-2.56965e-16
4.6355e-17
-4.81016e-17
1.91733e-17
2.813e-17
0
0
2.48491e-19
1.24045e-18
0
-4.14051e-19
-1.22548e-19
2.10306e-20
-2.53233e-20
-3.76695e-20
0
-1.69046e-16
9.52924e-17
2.83545e-16
1.32099e-16
-2.22194e-16
8.69981e-17
-3.30354e-17
1.98602e-17
-1.46219e-17
0
0
0
-1.22531e-18
8.54644e-20
-2.17916e-19
0
-6.60003e-21
2.99737e-20
-8.21215e-16
7.4733e-16
6.03058e-16
-7.17022e-16
2.33213e-16
-2.05436e-16
0
3.73726e-17
-4.56767e-17
2.00761e-17
-9.45818e-18
5.20441e-18
2.81816e-18
1.26724e-18
6.67605e-19
0
0
0
0
9.78509e-16
-4.83977e-16
0
0
-9.5756e-17
1.68797e-16
-1.04528e-16
-4.17547e-17
4.12841e-17
1.73982e-17
2.06061e-17
-5.40008e-18
1.62251e-18
6.47891e-19
3.66716e-19
2.53975e-19
3.89728e-19
-1.60555e-20
1.63539e-20
-9.6167e-16
8.19894e-16
3.38737e-16
-1.89219e-16
2.70051e-16
-1.67953e-16
-9.0927e-17
-5.74953e-17
0
-3.67107e-17
4.67321e-18
6.87671e-18
-3.46797e-18
-1.92309e-18
-4.84422e-19
-3.10214e-19
-2.51739e-19
0
0
-3.3057e-16
0
2.00885e-16
9.25052e-19
0
0
9.37941e-17
5.9327e-17
0
2.14396e-17
0
-1.00299e-17
-1.70043e-18
2.85939e-18
0
1.37799e-18
-1.67252e-19
1.70619e-19
0
7.3809e-16
0
3.602e-16
-6.1681e-16
4.7374e-16
2.72658e-16
-2.42612e-17
0
7.87552e-18
3.08571e-17
0
-1.21762e-17
1.01903e-17
-7.47034e-18
-1.39146e-18
-1.04147e-18
-3.93463e-19
-9.89524e-20
-6.7443e-19
-6.23873e-16
8.818e-16
-2.09381e-16
-4.62466e-16
-2.20831e-16
-1.51896e-16
-2.00102e-16
-5.2512e-17
1.1922e-17
9.99538e-18
-9.97661e-18
1.95212e-17
-7.24768e-18
1.1395e-17
-2.00812e-18
0
3.60447e-18
-2.73977e-18
6.11753e-19
1.51792e-15
-5.99946e-17
-8.92959e-16
5.77534e-16
-4.48217e-16
3.10792e-16
-2.36041e-17
-6.53238e-17
4.22362e-17
1.08367e-17
-3.68717e-18
-1.78357e-17
3.69347e-18
6.61374e-18
-1.36908e-18
1.3847e-18
-3.73335e-18
-2.60432e-18
-2.57912e-18
7.45163e-16
2.68898e-16
4.10337e-16
-2.97316e-16
-1.81154e-16
3.30392e-17
-8.24241e-17
1.86374e-16
1.12768e-17
4.8575e-17
2.24941e-17
-1.76708e-17
0
-8.63705e-18
0
0
1.29334e-17
4.6401e-18
2.87408e-18
6.64349e-16
0
3.93116e-16
2.95397e-16
-2.06611e-16
1.46209e-16
0
-6.64309e-17
-7.46718e-17
-5.0776e-17
-2.26932e-17
1.78706e-17
0
0
0
0
-1.22745e-17
-1.68584e-17
0
-1.29889e-15
0
-5.32384e-17
-5.0012e-17
3.21198e-16
-1.20924e-16
-4.40096e-17
-4.59629e-17
7.78128e-17
0
1.62362e-17
-1.48558e-18
2.24795e-17
0
0
3.68363e-17
-2.93277e-18
2.03626e-17
-1.33648e-17
8.90121e-16
2.12038e-16
-2.09849e-16
-1.54456e-16
-3.98955e-16
2.27021e-16
2.16612e-16
-1.49567e-17
-5.81115e-17
6.587e-17
1.1892e-17
-7.11972e-17
-4.85829e-17
-4.77798e-17
-5.43813e-17
-4.28791e-17
5.68951e-17
-2.46891e-18
1.36883e-17
-2.59542e-16
1.01555e-16
-4.56665e-16
5.82884e-17
-5.80763e-17
0
-1.11128e-16
-2.54146e-17
-1.00764e-16
2.90367e-17
9.92634e-17
5.79422e-17
-1.78235e-17
-1.49488e-17
5.03853e-17
0
-1.37445e-16
-6.40634e-17
-1.24684e-18
5.6515e-16
-1.2398e-17
7.12791e-16
-2.93483e-16
1.54017e-18
6.02615e-18
1.65815e-16
-3.91427e-17
9.77243e-17
-9.07807e-17
-8.79484e-17
0
1.34457e-16
8.97945e-17
1.67255e-18
-2.51569e-18
8.29158e-17
6.50376e-17
0
-3.92176e-16
0
-5.16818e-17
2.90433e-16
1.05801e-17
5.59394e-17
-1.6034e-16
1.44043e-16
1.92172e-16
1.88445e-16
1.88478e-16
0
-1.30622e-16
0
9.64419e-18
-1.00163e-17
0
-1.22811e-18
6.65012e-17
2.98323e-16
3.85135e-17
-1.55952e-16
5.11221e-16
-1.53161e-16
0
0
-2.66987e-16
-1.86195e-16
-1.82561e-16
-3.89e-16
-5.49236e-17
0
0
0
-2.48791e-17
2.63284e-17
1.9052e-16
-6.76225e-17
4.22181e-17
0
-4.02363e-16
-3.13071e-16
3.63173e-16
-3.69789e-16
-5.09522e-16
5.61133e-16
1.96847e-16
0
2.52442e-16
3.5058e-16
-7.45413e-17
4.33047e-16
-7.25338e-17
7.549e-17
3.20126e-16
-1.81099e-16
0
-5.59428e-16
0
-5.05243e-16
4.839e-16
0
7.63356e-16
3.40934e-16
-7.80105e-16
6.86252e-16
-1.0971e-18
-1.94309e-16
-3.39434e-16
0
5.75067e-16
-9.2763e-16
1.0082e-15
-1.28795e-15
0
0
5.64048e-16
-1.05844e-17
-2.5156e-17
-1.02028e-15
1.05683e-15
-4.9384e-16
4.91827e-16
4.85995e-16
-3.73846e-16
0
0
8.64378e-16
-8.79269e-16
-8.86947e-16
8.93287e-16
-8.82151e-16
9.64946e-16
-1.52392e-15
0
)
;

boundaryField
{
    up
    {
        type            calculated;
        value           nonuniform List<scalar> 
84
(
0
0
0
0
-4.45474e-17
7.58622e-17
-2.95849e-17
1.36893e-17
-1.23488e-17
0
-3.21832e-18
2.95375e-18
-8.08237e-19
3.65532e-19
1.8555e-19
1.99701e-19
0
0
-2.3255e-20
1.79282e-20
9.93322e-21
-9.64507e-21
6.28545e-22
0
3.38203e-21
2.48755e-21
-2.09994e-20
0
3.19996e-20
5.20788e-20
6.58691e-21
-1.47872e-20
8.47919e-21
0
3.82546e-20
1.52595e-19
-2.07134e-19
3.51354e-19
0
-8.6438e-20
0
0
-5.11037e-20
9.44012e-20
-9.1213e-20
1.42858e-19
-2.63689e-19
1.80094e-19
-5.14604e-20
-1.31451e-19
0
0
0
-7.16686e-20
-1.40992e-20
3.25385e-21
0
-2.35657e-20
-2.16104e-20
1.39512e-20
0
0
-1.0643e-20
2.46542e-20
-3.76695e-20
2.99737e-20
0
1.63539e-20
0
0
-6.7443e-19
6.11753e-19
-2.57912e-18
2.87408e-18
0
-1.33648e-17
1.36883e-17
-1.24684e-18
0
6.65012e-17
-6.76225e-17
0
0
0
)
;
    }
    low
    {
        type            calculated;
        value           nonuniform List<scalar> 
84
(
-1.13146e-15
1.10369e-15
-5.04905e-16
8.4572e-16
1.54015e-16
-4.00279e-17
3.34233e-16
7.30256e-17
0
1.3393e-15
-3.39398e-16
2.09969e-16
-2.79776e-16
-2.02781e-15
3.30735e-16
0
-3.0636e-16
5.75145e-17
-5.6808e-17
-2.11368e-16
1.25338e-16
3.02723e-16
5.99804e-16
-4.77646e-16
0
-9.15824e-17
-4.73243e-17
0
-4.37568e-16
-1.32833e-16
-4.81152e-16
-5.20407e-16
5.63529e-16
1.81572e-16
1.25121e-15
1.00008e-16
0
8.08737e-16
8.53612e-16
4.82315e-16
-2.55509e-16
9.69794e-17
9.6983e-17
0
3.85352e-16
9.5769e-16
7.06061e-16
1.36648e-16
0
-1.73188e-15
1.02792e-15
-3.38949e-19
-2.63951e-19
3.76616e-16
0
-9.64145e-16
0
-5.84145e-17
1.03003e-16
2.23679e-16
3.5509e-16
4.88511e-16
-8.2839e-20
1.12521e-15
0
0
-8.21215e-16
9.79014e-16
-9.6264e-16
-3.3057e-16
7.39809e-16
-6.23873e-16
1.52482e-15
7.49294e-16
6.64349e-16
-1.29889e-15
8.85962e-16
-2.54965e-16
5.6515e-16
-3.9006e-16
2.98323e-16
4.66409e-17
-5.59428e-16
5.65279e-16
)
;
    }
    left
    {
        type            calculated;
        value           nonuniform List<scalar> 
19
(
-1.129e-15
-5.28183e-16
5.59507e-16
3.42686e-17
-1.01036e-15
0
-4.38487e-16
-4.33287e-16
-6.14772e-17
-2.43516e-16
-5.7138e-19
-2.46703e-16
1.14079e-15
-2.49933e-16
1.15189e-15
1.00551e-15
6.01379e-16
8.93307e-16
0
)
;
    }
    right
    {
        type            calculated;
        value           nonuniform List<scalar> 
19
(
5.64048e-16
-9.88556e-18
-2.5156e-17
-1.02126e-15
1.05862e-15
-4.9384e-16
4.91827e-16
4.85995e-16
-3.70528e-16
0
0
8.73709e-16
-8.90832e-16
-8.86947e-16
8.93287e-16
-8.82151e-16
9.64946e-16
-1.64659e-15
0
)
;
    }
    frontAndBackPlanes
    {
        type            empty;
    }
}


// ************************************************************************* //
