/*--------------------------------*- C++ -*----------------------------------*\
  =========                 |
  \\      /  F ield         | OpenFOAM: The Open Source CFD Toolbox
   \\    /   O peration     | Website:  https://openfoam.org
    \\  /    A nd           | Version:  7
     \\/     M anipulation  |
\*---------------------------------------------------------------------------*/
FoamFile
{
    version     2.0;
    format      ascii;
    class       volScalarField;
    location    "0.06";
    object      T;
}
// * * * * * * * * * * * * * * * * * * * * * * * * * * * * * * * * * * * * * //

dimensions      [0 0 0 1 0 0 0];

internalField   nonuniform List<scalar> 
1596
(
6.94502
6.79049
6.64136
6.51557
6.41913
6.35046
6.30492
6.27536
6.25715
6.24345
6.23092
6.21433
6.18167
6.11671
5.99565
5.77142
5.36398
4.61998
3.2347
6.76769
6.29764
5.8815
5.54227
5.28511
5.10223
4.98
4.90138
4.85349
4.82204
4.79867
4.77343
4.72783
4.63817
4.47414
4.18552
3.70483
2.92958
1.67805
6.57354
5.81052
5.16617
4.65184
4.26494
3.99019
3.806
3.68813
3.61723
3.57444
3.54814
3.52648
3.49087
3.41826
3.28017
3.03212
2.62009
1.97424
0.983957
6.40589
5.40043
4.57219
3.9184
3.42789
3.07893
2.84376
2.69302
2.60251
2.55025
2.52233
2.50615
2.48514
2.4397
2.34599
2.16716
1.8599
1.37275
0.633017
6.29373
5.11256
4.14515
3.38232
2.80812
2.39708
2.11754
1.93682
1.82712
1.76418
1.73214
1.71787
1.707
1.68378
1.62951
1.51506
1.30588
0.961556
0.429278
6.24357
4.95588
3.89065
3.04384
2.40061
1.93527
1.6148
1.40473
1.27479
1.19887
1.15924
1.14207
1.13456
1.12414
1.0967
1.03016
0.897669
0.666841
0.296435
6.24215
4.90819
3.78139
2.8717
2.17106
1.65709
1.2978
1.05842
0.907161
0.816401
0.766605
0.742942
0.73336
0.727466
0.714658
0.67882
0.599865
0.452355
0.203412
6.26836
4.9324
3.77393
2.8198
2.07229
1.51514
1.1194
0.851329
0.678497
0.572156
0.51109
0.479272
0.464674
0.458059
0.451196
0.43256
0.387749
0.297602
0.136467
6.30833
4.99809
3.82984
2.84625
2.06121
1.46618
1.03675
0.741233
0.54735
0.425589
0.353274
0.313109
0.292583
0.282817
0.276916
0.266569
0.241785
0.188835
0.0885864
6.34358
5.06926
3.90595
2.90628
2.09407
1.46854
1.01043
0.690745
0.478006
0.342344
0.259959
0.212404
0.186462
0.173126
0.166085
0.159058
0.145186
0.115077
0.0552335
6.36596
5.12407
3.973
2.96795
2.13905
1.4918
1.01178
0.67286
0.444785
0.297726
0.20715
0.153708
0.123487
0.107139
0.0984865
0.0924007
0.0840552
0.0672313
0.0329221
6.38681
5.17147
4.03224
3.02573
2.18592
1.5229
1.02616
0.672191
0.431972
0.275885
0.178924
0.121043
0.0877056
0.069164
0.0591391
0.0530724
0.0473325
0.0378118
0.0187664
6.40178
5.2056
4.07515
3.06838
2.2217
1.54818
1.04005
0.675719
0.427141
0.264902
0.163697
0.102979
0.0677454
0.047913
0.0370478
0.0308429
0.0263162
0.0206511
0.0102718
6.40477
5.21638
4.09051
3.08429
2.23488
1.5567
1.04334
0.674222
0.421843
0.256911
0.153959
0.0921674
0.0562786
0.0360289
0.0248937
0.0186951
0.0147993
0.0111329
0.00545079
6.40289
5.21124
4.08335
3.07586
2.2256
1.54691
1.03335
0.664349
0.41236
0.247995
0.145661
0.0844347
0.0489997
0.0290758
0.0181544
0.0121714
0.00870227
0.00609215
0.00286117
6.39836
5.19482
4.05792
3.04587
2.1951
1.51878
1.00918
0.644641
0.39688
0.236117
0.136605
0.0774473
0.0434486
0.0244759
0.0141581
0.00858546
0.00550029
0.00350005
0.0015319
6.38813
5.16418
4.01206
2.99261
2.14191
1.47104
0.969698
0.614059
0.374399
0.220248
0.125696
0.0700188
0.0383405
0.02085
0.0114447
0.00643906
0.00375163
0.00216209
0.000865448
6.37388
5.12151
3.94821
2.91853
2.06828
1.40561
0.916425
0.573705
0.345599
0.200693
0.112915
0.0618767
0.0332119
0.0175956
0.00931425
0.00497645
0.00270335
0.00143434
0.000526427
6.36439
5.08017
3.8797
2.83531
1.98372
1.32983
0.854787
0.527376
0.312987
0.178978
0.0990919
0.0533747
0.0281059
0.0145609
0.00749559
0.00385984
0.00199671
0.000997867
0.000342397
6.35758
5.04031
3.8081
2.74495
1.8903
1.24568
0.786546
0.476554
0.277708
0.155912
0.0847314
0.0447783
0.0231139
0.0117194
0.00588783
0.00294524
0.00147049
0.000705081
0.000231338
6.34815
4.99582
3.72917
2.64525
1.78734
1.15347
0.712563
0.422258
0.240693
0.132213
0.0703225
0.0363777
0.0183787
0.00911579
0.00447492
0.00218252
0.00105939
0.000492967
0.00015724
6.34104
4.95337
3.65019
2.54339
1.6813
1.05856
0.636954
0.367443
0.203928
0.109133
0.0565975
0.0285698
0.0140942
0.00682861
0.00327429
0.00155882
0.000737917
0.000335097
0.00010492
6.33936
4.92011
3.58008
2.44845
1.58026
0.967391
0.564385
0.315223
0.169337
0.0877695
0.0441396
0.0216379
0.010382
0.00489877
0.00228993
0.00106305
0.000490376
0.000216995
6.67708e-05
6.34318
4.89975
3.52582
2.36895
1.49246
0.886691
0.499665
0.268646
0.13865
0.0690037
0.0333428
0.0157279
0.00727648
0.00331822
0.00150211
0.00067523
0.000299728
0.000124864
3.4011e-05
6.36259
4.92915
3.54796
2.37744
1.48907
0.876702
0.488149
0.258732
0.131466
0.0644118
0.030683
0.0143079
0.00657031
0.00298875
0.00135693
0.000613857
0.00027259
0.000109835
2.54955e-05
6.39026
4.99578
3.63263
2.46032
1.55727
0.925657
0.519514
0.276964
0.14122
0.0692919
0.0330047
0.0153824
0.00706747
0.00322594
0.00147732
0.000679852
0.000310373
0.00012991
3.19162e-05
6.40843
5.05296
3.71731
2.55367
1.64229
0.992532
0.566154
0.306299
0.15807
0.0782211
0.0374074
0.0174169
0.0079539
0.00359285
0.00162535
0.000742044
0.000340437
0.000145677
3.7369e-05
6.41693
5.0977
3.79719
2.65306
1.74177
1.07751
0.630161
0.349675
0.184894
0.0935134
0.0455051
0.0214154
0.00979156
0.00437037
0.00192266
0.000842704
0.000372158
0.000156714
4.07906e-05
6.42108
5.13651
3.87621
2.75961
1.85562
1.18086
0.712858
0.409319
0.224267
0.117558
0.0591994
0.0287213
0.0134354
0.00604888
0.00261836
0.00108889
0.000441431
0.00017069
4.21909e-05
6.42204
5.17196
3.95531
2.87181
1.98093
1.29994
0.812963
0.485507
0.27759
0.152254
0.0803681
0.0408934
0.0200269
0.00937643
0.00414716
0.00169581
0.000632841
0.000210695
4.36826e-05
6.42332
5.21007
4.0391
2.99153
2.11747
1.43379
0.929989
0.578785
0.346392
0.19971
0.111244
0.0599497
0.0311898
0.0155349
0.00728115
0.00309804
0.00114076
0.000336252
5.23375e-05
6.43272
5.26087
4.13598
3.12449
2.26855
1.58428
1.06538
0.6909
0.43297
0.262658
0.154694
0.0885945
0.0492592
0.0263873
0.0133841
0.00617687
0.00242454
0.000704294
8.39914e-05
6.4451
5.3162
4.23745
3.26294
2.42774
1.7466
1.21625
0.820895
0.538096
0.343169
0.213564
0.129965
0.077294
0.0446792
0.0247543
0.0126903
0.00562775
0.00183517
0.0001779
6.45865
5.37302
4.34027
3.40391
2.5925
1.91887
1.38161
0.968962
0.66324
0.443866
0.291331
0.188021
0.119397
0.0744116
0.045144
0.0260305
0.0136005
0.00575742
0.00118488
6.46972
5.42078
4.42793
3.52642
2.73914
2.07654
1.53781
1.11382
0.790438
0.550502
0.377351
0.255255
0.170591
0.112546
0.0729643
0.0457077
0.0266462
0.0131334
0.00352994
6.46956
5.43597
4.46541
3.58654
2.81754
2.16636
1.63165
1.20515
0.87445
0.624247
0.439653
0.306244
0.211199
0.144103
0.0969041
0.0632819
0.0388151
0.0204702
0.00615535
6.461
5.4279
4.46709
3.60142
2.84513
2.20387
1.67528
1.25107
0.91943
0.665916
0.47659
0.337804
0.237264
0.164896
0.112848
0.0748338
0.0464552
0.0247072
0.00748638
6.45554
5.42423
4.4719
3.61718
2.87135
2.23832
1.71489
1.29271
0.960419
0.704208
0.510893
0.367466
0.262078
0.184959
0.12845
0.086315
0.0541848
0.029086
0.00890604
6.45426
5.42632
4.48102
3.63465
2.89663
2.26966
1.74998
1.32915
0.996144
0.737618
0.540952
0.393623
0.284121
0.202917
0.142513
0.0967261
0.0612253
0.0330879
0.010212
6.45361
5.42843
4.48845
3.64833
2.91618
2.29383
1.77708
1.35742
1.02402
0.763861
0.564737
0.414478
0.301826
0.217435
0.153944
0.105221
0.0669814
0.0363618
0.0112834
6.45266
5.42864
4.49198
3.65608
2.92807
2.3091
1.7946
1.376
1.04258
0.781537
0.580914
0.428782
0.314057
0.227521
0.161915
0.111155
0.0709979
0.0386387
0.0120264
6.44945
5.42459
4.48962
3.65639
2.93113
2.31451
1.80175
1.38418
1.05116
0.789981
0.588828
0.435907
0.320235
0.232672
0.166023
0.114234
0.0730944
0.0398335
0.0124197
6.44947
5.42464
4.48969
3.65646
2.93121
2.31459
1.80182
1.38425
1.05123
0.790034
0.588872
0.435944
0.320265
0.232696
0.166042
0.114248
0.0731044
0.0398395
0.0124218
6.45271
5.42878
4.49216
3.6563
2.92831
2.30933
1.79483
1.3762
1.04276
0.781696
0.581048
0.428894
0.314148
0.227594
0.161973
0.111198
0.0710281
0.0386567
0.0120327
6.45369
5.42864
4.48875
3.64868
2.91656
2.29422
1.77745
1.35775
1.02431
0.764115
0.564951
0.414654
0.301969
0.217549
0.154033
0.105288
0.0670277
0.0363893
0.0112929
6.45437
5.4266
4.48143
3.63513
2.89715
2.27017
1.75047
1.3296
0.996537
0.737954
0.541232
0.393852
0.284306
0.203063
0.142625
0.09681
0.0612835
0.0331224
0.0102239
6.45568
5.42458
4.47241
3.61778
2.872
2.23896
1.7155
1.29327
0.960901
0.704615
0.511229
0.367738
0.262295
0.185128
0.128579
0.08641
0.05425
0.0291244
0.0089192
6.46116
5.42832
4.46769
3.60214
2.8459
2.20464
1.676
1.25171
0.919985
0.666379
0.476966
0.338103
0.237498
0.165075
0.112982
0.0749312
0.0465211
0.0247453
0.00749916
6.46974
5.43645
4.4661
3.58738
2.81843
2.16725
1.63248
1.20589
0.875074
0.624759
0.440062
0.306563
0.211443
0.144287
0.09704
0.0633787
0.0388798
0.0205076
0.00616829
6.46995
5.42148
4.429
3.52775
2.7406
2.07801
1.5392
1.11506
0.791484
0.551357
0.378028
0.255777
0.170986
0.112843
0.0731855
0.0458716
0.0267644
0.0132097
0.00355942
6.45895
5.37385
4.34153
3.40544
2.59416
1.92051
1.38312
0.970275
0.664327
0.444731
0.291997
0.188523
0.11977
0.0746866
0.0453458
0.0261766
0.013701
0.00581699
0.00120492
6.44535
5.31695
4.23858
3.26431
2.4292
1.74801
1.21751
0.821948
0.538933
0.343806
0.214034
0.130304
0.077535
0.0448495
0.0248735
0.0127704
0.00567569
0.00185661
0.000181222
6.43297
5.26159
4.13708
3.12581
2.26993
1.58557
1.0665
0.691805
0.433661
0.263163
0.15505
0.0888389
0.0494252
0.0264991
0.013458
0.00622252
0.0024481
0.000711591
8.34496e-05
6.42355
5.21076
4.04015
2.99278
2.11875
1.43496
0.93097
0.579549
0.346951
0.2001
0.111506
0.0601208
0.0312998
0.0156045
0.00732363
0.00312147
0.00115072
0.000337748
5.1038e-05
6.42225
5.1726
3.9563
2.87298
1.9821
1.30098
0.813806
0.486138
0.278032
0.152547
0.0805554
0.0410092
0.0200967
0.00941724
0.0041695
0.0017062
0.000635913
0.000210115
4.26057e-05
6.42127
5.13711
3.87712
2.76068
1.85666
1.18177
0.713563
0.409827
0.224607
0.117773
0.0593299
0.0287972
0.0134779
0.00607137
0.00262899
0.00109262
0.000441659
0.000169714
4.15109e-05
6.41709
5.09822
3.798
2.65399
1.74267
1.07827
0.630732
0.350071
0.18515
0.093668
0.0455939
0.021464
0.00981666
0.00438224
0.0019273
0.000843662
0.000371643
0.000155992
4.04486e-05
6.40856
5.05341
3.71801
2.55446
1.64303
0.993141
0.566603
0.306601
0.158258
0.078331
0.0374679
0.0174482
0.00796905
0.00359936
0.00162751
0.000742272
0.000340076
0.000145357
3.72572e-05
6.39038
4.99616
3.6332
2.46096
1.55786
0.926133
0.519859
0.277192
0.14136
0.0693714
0.0330473
0.015404
0.00707761
0.00323023
0.00147884
0.000680215
0.0003104
0.000129918
3.19369e-05
6.36261
4.92924
3.5481
2.3776
1.48922
0.876829
0.488242
0.258794
0.131504
0.0644329
0.0306939
0.014313
0.00657233
0.00298932
0.00135692
0.0006137
0.000272464
0.00010976
2.54455e-05
6.34314
4.89965
3.52568
2.3688
1.49232
0.886578
0.49958
0.268585
0.138609
0.068977
0.033326
0.0157177
0.00727044
0.00331473
0.00150013
0.000674145
0.000299162
0.000124578
3.38867e-05
6.33936
4.9201
3.58007
2.44844
1.58026
0.967401
0.564394
0.315228
0.169339
0.0877692
0.0441383
0.0216364
0.0103807
0.00489777
0.00228926
0.00106263
0.000490133
0.000216861
6.6711e-05
6.34104
4.95336
3.65018
2.54339
1.6813
1.05857
0.63696
0.367447
0.20393
0.109133
0.056597
0.0285691
0.0140935
0.00682805
0.0032739
0.00155857
0.000737766
0.000335015
0.000104882
6.34814
4.99581
3.72917
2.64525
1.78734
1.15347
0.712567
0.42226
0.240694
0.132214
0.070323
0.0363778
0.0183786
0.00911563
0.00447476
0.0021824
0.00105933
0.00049294
0.000157218
6.35758
5.0403
3.80809
2.74495
1.8903
1.24568
0.786548
0.476556
0.27771
0.155913
0.0847325
0.044779
0.0231143
0.0117196
0.00588791
0.0029453
0.00147056
0.000705151
0.000231345
6.36439
5.08016
3.8797
2.83531
1.98372
1.32983
0.854786
0.527377
0.312988
0.178979
0.0990933
0.0533759
0.0281067
0.0145614
0.00749595
0.00386015
0.00199703
0.000998136
0.000342466
6.37388
5.12151
3.94821
2.91853
2.06828
1.40561
0.916423
0.573704
0.3456
0.200694
0.112917
0.0618782
0.033213
0.0175965
0.00931498
0.00497719
0.00270415
0.00143501
0.00052662
6.38813
5.16418
4.01206
2.99261
2.14191
1.47104
0.969695
0.614057
0.374399
0.22025
0.125698
0.0700205
0.0383421
0.0208513
0.011446
0.00644062
0.00375337
0.00216352
0.000865854
6.39836
5.19482
4.05792
3.04587
2.1951
1.51878
1.00918
0.644638
0.396879
0.236118
0.136607
0.0774494
0.0434507
0.024478
0.0141605
0.00858852
0.00550373
0.0035028
0.00153262
6.40289
5.21125
4.08336
3.07586
2.2256
1.5469
1.03335
0.664346
0.412359
0.247996
0.145663
0.0844371
0.0490024
0.0290791
0.0181587
0.0121771
0.00870847
0.00609685
0.00286222
6.40477
5.21639
4.09051
3.08429
2.23487
1.55669
1.04334
0.674219
0.421842
0.256912
0.153961
0.0921704
0.0562824
0.0360343
0.0249012
0.0187047
0.0148094
0.01114
0.00545196
6.40178
5.20561
4.07516
3.06838
2.22169
1.54817
1.04005
0.675716
0.42714
0.264904
0.163699
0.102983
0.0677513
0.0479218
0.0370601
0.0308578
0.0263307
0.02066
0.0102725
6.38681
5.17148
4.03224
3.02574
2.18592
1.5229
1.02616
0.672189
0.431972
0.275887
0.178928
0.121049
0.0877148
0.0691777
0.0591572
0.0530926
0.0473498
0.0378204
0.0187656
6.36596
5.12408
3.973
2.96796
2.13905
1.4918
1.01177
0.67286
0.444787
0.297729
0.207155
0.153717
0.123501
0.107158
0.0985095
0.0924233
0.0840708
0.0672354
0.0329185
6.34359
5.06926
3.90596
2.90628
2.09407
1.46854
1.01043
0.690746
0.478008
0.342349
0.259967
0.212416
0.18648
0.173148
0.166109
0.159076
0.145193
0.115072
0.055227
6.30834
4.99809
3.82984
2.84625
2.06121
1.46617
1.03675
0.741234
0.547353
0.425595
0.353284
0.313123
0.292602
0.282837
0.276932
0.266573
0.241774
0.188818
0.0885781
6.26837
4.9324
3.77392
2.81979
2.07228
1.51513
1.1194
0.851331
0.678501
0.572162
0.511101
0.479285
0.464688
0.458069
0.451193
0.432541
0.387718
0.297574
0.13646
6.24215
4.90819
3.78138
2.87169
2.17105
1.65709
1.2978
1.05842
0.907164
0.816406
0.766612
0.742949
0.733362
0.727456
0.71463
0.678776
0.599817
0.452324
0.203411
6.24357
4.95587
3.89064
3.04383
2.40061
1.93527
1.6148
1.40473
1.27479
1.19887
1.15924
1.14206
1.13454
1.12411
1.09665
1.0301
0.897619
0.666819
0.296442
6.29373
5.11256
4.14514
3.38231
2.80812
2.39707
2.11754
1.93681
1.82712
1.76418
1.73213
1.71785
1.70697
1.68373
1.62944
1.515
1.30584
0.961555
0.429292
6.40588
5.40043
4.5722
3.9184
3.42789
3.07893
2.84376
2.69301
2.6025
2.55024
2.52231
2.50612
2.4851
2.43965
2.34593
2.16713
1.85989
1.37277
0.633033
6.57354
5.81053
5.16618
4.65185
4.26495
3.99019
3.80599
3.68812
3.61722
3.57442
3.54811
3.52644
3.49083
3.41822
3.28014
3.03212
2.62012
1.97427
0.983966
6.76769
6.29764
5.88152
5.54228
5.28511
5.10223
4.98
4.90138
4.85348
4.82203
4.79865
4.77341
4.72781
4.63815
4.47414
4.18554
3.70486
2.9296
1.67805
6.94502
6.79049
6.64136
6.51557
6.41913
6.35046
6.30492
6.27536
6.25715
6.24344
6.23091
6.21433
6.18167
6.11671
5.99567
5.77144
5.36399
4.61998
3.23469
)
;

boundaryField
{
    up
    {
        type            fixedValue;
        value           uniform 0;
    }
    low
    {
        type            fixedValue;
        value           uniform 7;
    }
    left
    {
        type            fixedValue;
        value           uniform 7;
    }
    right
    {
        type            fixedValue;
        value           uniform 7;
    }
    frontAndBackPlanes
    {
        type            empty;
    }
}


// ************************************************************************* //
