/*--------------------------------*- C++ -*----------------------------------*\
  =========                 |
  \\      /  F ield         | OpenFOAM: The Open Source CFD Toolbox
   \\    /   O peration     | Website:  https://openfoam.org
    \\  /    A nd           | Version:  7
     \\/     M anipulation  |
\*---------------------------------------------------------------------------*/
FoamFile
{
    version     2.0;
    format      ascii;
    class       volScalarField;
    location    "0.08";
    object      gradTx;
}
// * * * * * * * * * * * * * * * * * * * * * * * * * * * * * * * * * * * * * //

dimensions      [0 -1 0 1 0 0 0];

internalField   nonuniform List<scalar> 
1596
(
-0.0960646
-0.481163
-0.849855
-1.16035
-1.40473
-1.58092
-1.70226
-1.77888
-1.82315
-1.8529
-1.8734
-1.90313
-1.96199
-2.07706
-2.27885
-2.63328
-3.23388
-4.27442
-6.15155
0.0267483
-0.384879
-0.743017
-1.03577
-1.26566
-1.43339
-1.55096
-1.62539
-1.66738
-1.68832
-1.69164
-1.6885
-1.68403
-1.68589
-1.69657
-1.71824
-1.73128
-1.68874
-1.48232
0.129744
-0.282646
-0.615908
-0.881178
-1.08837
-1.24118
-1.3498
-1.41979
-1.45952
-1.47674
-1.47373
-1.45714
-1.42705
-1.38457
-1.32758
-1.25268
-1.14461
-0.974203
-0.676748
0.153285
-0.207147
-0.491713
-0.716982
-0.893535
-1.02592
-1.12173
-1.18537
-1.22297
-1.2397
-1.23745
-1.21992
-1.18558
-1.13283
-1.05825
-0.957264
-0.819923
-0.630521
-0.353648
0.0748998
-0.182107
-0.394659
-0.567932
-0.706754
-0.813811
-0.893389
-0.948443
-0.982979
-1.0001
-1.00155
-0.989074
-0.960849
-0.914232
-0.845541
-0.749698
-0.619867
-0.447412
-0.213748
-0.0904025
-0.217791
-0.343516
-0.455947
-0.551338
-0.628659
-0.688588
-0.73224
-0.761563
-0.777894
-0.782682
-0.776373
-0.757266
-0.722458
-0.668409
-0.589741
-0.481
-0.336404
-0.145725
-0.303668
-0.308609
-0.345727
-0.393721
-0.442174
-0.486193
-0.523231
-0.552369
-0.573613
-0.586745
-0.592615
-0.590751
-0.579627
-0.556453
-0.518023
-0.458973
-0.374415
-0.259357
-0.107089
-0.519359
-0.431391
-0.391417
-0.378653
-0.380623
-0.39008
-0.402308
-0.414573
-0.425208
-0.432658
-0.436917
-0.436821
-0.430905
-0.416642
-0.391249
-0.349733
-0.287581
-0.19992
-0.0812561
-0.737017
-0.59283
-0.491256
-0.422235
-0.376998
-0.348755
-0.332269
-0.323631
-0.319873
-0.318246
-0.317628
-0.316167
-0.312198
-0.303369
-0.28726
-0.259471
-0.215896
-0.151751
-0.0618544
-0.865489
-0.70902
-0.576396
-0.470919
-0.390871
-0.332429
-0.291515
-0.264111
-0.246677
-0.235768
-0.229334
-0.225011
-0.220872
-0.214709
-0.204412
-0.186326
-0.156915
-0.111811
-0.046165
-0.972578
-0.815924
-0.667712
-0.537346
-0.429478
-0.344428
-0.280465
-0.234404
-0.202726
-0.181627
-0.168266
-0.159784
-0.153872
-0.148309
-0.141153
-0.129416
-0.110159
-0.0796209
-0.0334563
-1.0864
-0.935372
-0.778461
-0.629
-0.496595
-0.385962
-0.298425
-0.232423
-0.184986
-0.152212
-0.130605
-0.116736
-0.107772
-0.101261
-0.0952313
-0.087169
-0.0746583
-0.0546184
-0.0233671
-1.12807
-0.9979
-0.847298
-0.693296
-0.549079
-0.423041
-0.319427
-0.23869
-0.178911
-0.136556
-0.107907
-0.0892047
-0.0772231
-0.0692905
-0.0633488
-0.0572157
-0.0489112
-0.0360275
-0.0156535
-1.15243
-1.04241
-0.902279
-0.749167
-0.598445
-0.461549
-0.345362
-0.252422
-0.182034
-0.131214
-0.0962337
-0.0730929
-0.0582248
-0.048704
-0.0423187
-0.0370545
-0.0312248
-0.0229658
-0.0100779
-1.17177
-1.07869
-0.949171
-0.799074
-0.644662
-0.499688
-0.373321
-0.270084
-0.190532
-0.132292
-0.0917336
-0.0646636
-0.0472086
-0.0361731
-0.0291515
-0.0241691
-0.0197041
-0.0142789
-0.0062656
-1.16828
-1.09345
-0.976243
-0.832135
-0.677812
-0.528676
-0.395738
-0.285271
-0.199012
-0.135215
-0.0904463
-0.0604048
-0.040993
-0.0287928
-0.0212244
-0.0162943
-0.0125629
-0.00880421
-0.00380534
-1.1381
-1.08168
-0.97853
-0.843313
-0.692827
-0.543603
-0.408059
-0.293891
-0.203861
-0.136811
-0.0895508
-0.0577584
-0.0372136
-0.0243573
-0.0164939
-0.0116074
-0.00830323
-0.00551331
-0.00230277
-1.09659
-1.05296
-0.962737
-0.837286
-0.692661
-0.545981
-0.410692
-0.295582
-0.204221
-0.135931
-0.0877344
-0.0553283
-0.0344371
-0.0214316
-0.0135605
-0.00880468
-0.00580595
-0.00359868
-0.00142574
-1.06431
-1.03091
-0.949976
-0.831368
-0.690649
-0.545462
-0.410175
-0.294435
-0.202392
-0.133633
-0.0852405
-0.0528466
-0.0320886
-0.0192693
-0.0115977
-0.00705791
-0.00432247
-0.00249422
-0.000927525
-0.983327
-0.966195
-0.899599
-0.793259
-0.662241
-0.52425
-0.394183
-0.282274
-0.193138
-0.126643
-0.0800167
-0.0489765
-0.0292239
-0.0171291
-0.0099678
-0.00579698
-0.00335718
-0.00182465
-0.000639734
-0.883294
-0.880109
-0.828185
-0.735705
-0.616929
-0.4892
-0.367524
-0.262363
-0.178585
-0.116266
-0.0727924
-0.0440514
-0.0259131
-0.0149133
-0.00847294
-0.00477567
-0.00266038
-0.00138483
-0.00046418
-0.769701
-0.776085
-0.73762
-0.659892
-0.555638
-0.441191
-0.331083
-0.235559
-0.159496
-0.103112
-0.064001
-0.0383358
-0.0222781
-0.0126358
-0.00705302
-0.00389144
-0.00211593
-0.00107472
-0.00035103
-0.633119
-0.644777
-0.619018
-0.558248
-0.472636
-0.376383
-0.282635
-0.200807
-0.13554
-0.0872197
-0.0538139
-0.0320053
-0.0184445
-0.0103605
-0.00572019
-0.00312232
-0.00168797
-0.000866346
-0.000297966
-0.468634
-0.462572
-0.431143
-0.378247
-0.312369
-0.243319
-0.179218
-0.125163
-0.083169
-0.0527295
-0.0320521
-0.018772
-0.0106421
-0.00587279
-0.00318324
-0.00171334
-0.000931884
-0.000505252
-0.000201851
-0.31395
-0.342105
-0.352981
-0.340066
-0.305076
-0.255385
-0.200338
-0.147962
-0.103488
-0.0689096
-0.0439575
-0.0270654
-0.0161746
-0.00944805
-0.00544526
-0.00314592
-0.00187329
-0.00120152
-0.000838934
-0.104355
-0.11368
-0.121778
-0.124556
-0.120053
-0.108566
-0.0921504
-0.0735593
-0.0554967
-0.0397717
-0.0272354
-0.0179929
-0.0115334
-0.00722592
-0.00445674
-0.00274736
-0.00173941
-0.00120065
-0.000956538
0.107012
0.0981198
0.0790343
0.054046
0.0285031
0.00693913
-0.00809518
-0.0162312
-0.0187884
-0.0177126
-0.0148211
-0.011519
-0.00849315
-0.00603638
-0.0041691
-0.0028377
-0.00194447
-0.00141852
-0.00116329
0.314546
0.302521
0.271423
0.226075
0.17404
0.123181
0.0795407
0.046146
0.023183
0.0089865
0.00121811
-0.00248641
-0.00382612
-0.00394054
-0.00346637
-0.0028006
-0.00215219
-0.00167705
-0.00140625
0.495356
0.475606
0.43207
0.370103
0.298104
0.225398
0.159874
0.106251
0.065983
0.0379723
0.0198644
0.0088293
0.00252309
-0.000807949
-0.00227208
-0.00264726
-0.00242873
-0.00205252
-0.00174979
0.672529
0.640404
0.582008
0.50321
0.413048
0.321579
0.237567
0.166611
0.110997
0.0701291
0.0418313
0.0230813
0.0111363
0.00380734
-0.000339896
-0.00235055
-0.00290595
-0.00272998
-0.0023519
0.793363
0.748342
0.678593
0.589739
0.490404
0.389949
0.296672
0.216107
0.150916
0.101016
0.0647124
0.0392128
0.0217708
0.0100551
0.00253792
-0.00188888
-0.00382932
-0.00412418
-0.00359725
0.895263
0.839543
0.759204
0.661566
0.555173
0.448546
0.349157
0.262053
0.189903
0.132919
0.0898427
0.0581919
0.0353337
0.0188714
0.00723149
-0.00070734
-0.00519945
-0.00681065
-0.00639675
0.978511
0.908914
0.818217
0.713832
0.603469
0.494308
0.392583
0.302501
0.22647
0.164823
0.116704
0.080023
0.0523756
0.0313612
0.0153189
0.00291919
-0.00574468
-0.0105636
-0.0112319
1.01659
0.92777
0.82388
0.711835
0.598152
0.488475
0.387588
0.298613
0.223332
0.16187
0.113382
0.0759925
0.04743
0.0252496
0.00752527
-0.00755699
-0.0202655
-0.0303399
-0.0363435
1.025
0.93015
0.82814
0.723686
0.62042
0.52143
0.429503
0.346622
0.274166
0.212557
0.161589
0.120347
0.0874083
0.0611023
0.0397791
0.0214754
0.0047862
-0.0114942
-0.0277003
1.02166
0.925023
0.827352
0.729885
0.63417
0.542131
0.455796
0.376823
0.306514
0.245432
0.193636
0.150665
0.115485
0.0869317
0.0638251
0.0448714
0.0289549
0.015024
0.00200576
0.939558
0.830262
0.727379
0.629936
0.538314
0.453479
0.376446
0.307914
0.2483
0.197442
0.154877
0.119841
0.0911888
0.0677988
0.0486502
0.0327815
0.0194682
0.00827609
-0.00117004
0.805
0.708795
0.619459
0.535933
0.458262
0.386934
0.322491
0.265272
0.215449
0.172781
0.136848
0.107014
0.0823549
0.0619734
0.0450588
0.0308316
0.0186866
0.00825565
-0.000785225
0.655492
0.576887
0.503452
0.435048
0.371851
0.314177
0.262318
0.216404
0.17646
0.142209
0.113274
0.0891265
0.0690232
0.0522554
0.0381948
0.026232
0.0159046
0.00694617
-0.000883416
0.486019
0.426477
0.371413
0.320622
0.274063
0.231813
0.193955
0.16049
0.131372
0.106355
0.0851532
0.067373
0.0524787
0.0399639
0.0293881
0.0203209
0.0124438
0.00558351
-0.000421695
0.302879
0.263312
0.228109
0.196351
0.167613
0.141735
0.118654
0.0983019
0.0806114
0.0654055
0.0524978
0.0416422
0.0325109
0.0247968
0.0182371
0.0125739
0.00762084
0.00328296
-0.000528935
0.115393
0.0990062
0.0850999
0.0728113
0.0618072
0.0519691
0.0432504
0.0356135
0.029021
0.0233956
0.0186555
0.0146975
0.0113903
0.00861131
0.0062552
0.00422053
0.00243308
0.000853502
-0.000552302
-0.115338
-0.0988789
-0.0849226
-0.0726025
-0.0615823
-0.0517404
-0.0430276
-0.0354037
-0.0288288
-0.0232238
-0.0185052
-0.0145687
-0.0112823
-0.00852325
-0.0061861
-0.00416961
-0.00239971
-0.00083705
0.000552406
-0.302826
-0.263197
-0.22795
-0.196165
-0.167413
-0.141534
-0.118459
-0.0981195
-0.0804455
-0.0652585
-0.0523704
-0.0415342
-0.0324216
-0.0247254
-0.0181827
-0.012536
-0.00759873
-0.00327613
0.000521051
-0.485964
-0.426362
-0.371255
-0.320436
-0.273863
-0.231611
-0.19376
-0.160307
-0.131207
-0.10621
-0.0850273
-0.0672663
-0.0523902
-0.0398921
-0.0293315
-0.0202783
-0.0124139
-0.00556526
0.000429281
-0.655446
-0.576798
-0.503332
-0.434909
-0.371703
-0.31403
-0.262179
-0.216277
-0.176349
-0.142114
-0.113195
-0.089062
-0.0689722
-0.0522165
-0.0381665
-0.0262133
-0.0158944
-0.00694362
0.000879093
-0.804966
-0.708727
-0.619366
-0.535825
-0.458148
-0.386821
-0.322387
-0.26518
-0.215372
-0.172718
-0.136799
-0.106977
-0.0823276
-0.0619546
-0.0450469
-0.0308253
-0.0186846
-0.00825671
0.000782551
-0.939544
-0.830224
-0.727321
-0.629866
-0.538242
-0.453412
-0.376389
-0.307872
-0.248271
-0.197426
-0.154872
-0.119844
-0.0911972
-0.0678109
-0.0486644
-0.0327964
-0.0194821
-0.00828699
0.0011638
-1.02164
-0.924909
-0.827136
-0.729579
-0.633799
-0.541722
-0.455378
-0.376418
-0.306139
-0.245097
-0.193344
-0.150416
-0.115274
-0.0867512
-0.0636688
-0.0447344
-0.0288362
-0.0149322
-0.00196076
-1.02516
-0.930575
-0.828833
-0.724613
-0.621528
-0.522654
-0.430777
-0.347884
-0.275367
-0.213661
-0.162576
-0.121213
-0.0881588
-0.0617542
-0.0403544
-0.0220008
-0.00528305
0.0110188
0.0272677
-1.0165
-0.927551
-0.82355
-0.711431
-0.597708
-0.488023
-0.38715
-0.298203
-0.222957
-0.16153
-0.113077
-0.0757199
-0.0471863
-0.0250312
-0.00732644
0.00774543
0.0204635
0.0305842
0.0366859
-0.978558
-0.909037
-0.818415
-0.714096
-0.603786
-0.494657
-0.392939
-0.302844
-0.226782
-0.165093
-0.116929
-0.080204
-0.0525179
-0.0314697
-0.0153965
-0.00296358
0.0057377
0.0105946
0.0112909
-0.895289
-0.839617
-0.759334
-0.66175
-0.555402
-0.448804
-0.349423
-0.262306
-0.19013
-0.13311
-0.0899967
-0.0583117
-0.035424
-0.0189364
-0.00727264
0.00069234
0.00521156
0.00684124
0.00642755
-0.793394
-0.748423
-0.678733
-0.589936
-0.490644
-0.390212
-0.296935
-0.21635
-0.151125
-0.101186
-0.0648441
-0.0393118
-0.0218431
-0.0101057
-0.00256885
0.00187752
0.00383602
0.00414136
0.00361003
-0.672561
-0.640494
-0.582162
-0.503422
-0.413299
-0.321846
-0.237823
-0.166839
-0.111184
-0.0702749
-0.04194
-0.02316
-0.0111918
-0.00384458
0.00031807
0.00234247
0.00290883
0.00273839
0.00235706
-0.495387
-0.475699
-0.432227
-0.370314
-0.298346
-0.225646
-0.160102
-0.106444
-0.0661358
-0.0380859
-0.0199454
-0.00888547
-0.00256102
0.000783858
0.00225906
0.00264312
0.00243066
0.00205693
0.001752
-0.314585
-0.302628
-0.271596
-0.226297
-0.174283
-0.123415
-0.0797447
-0.0463089
-0.0233038
-0.00907099
-0.00127473
0.00244963
0.00380307
0.00392732
0.00346044
0.00279986
0.00215436
0.00167999
0.00140769
-0.107049
-0.0982286
-0.0792076
-0.0542588
-0.0287236
-0.00713953
0.00793192
0.01611
0.0187054
0.0176595
0.0147888
0.0115004
0.00848318
0.00603217
0.0041687
0.00283959
0.0019472
0.0014211
0.00116484
0.104265
0.113416
0.121372
0.124077
0.119575
0.108146
0.0918188
0.0733189
0.0553348
0.0396695
0.0271741
0.017958
0.0115147
0.00721697
0.00445335
0.00274684
0.00173999
0.0012015
0.000957566
0.314003
0.342301
0.353314
0.340495
0.305538
0.255823
0.200713
0.148257
0.103704
0.0690591
0.044056
0.0271284
0.0162141
0.00947275
0.0054609
0.00315607
0.00188009
0.0012063
0.000842346
0.468561
0.462335
0.430774
0.377808
0.311925
0.242919
0.178889
0.124911
0.0829878
0.052606
0.0319717
0.0187217
0.0106119
0.00585536
0.00317357
0.00170816
0.000929188
0.000503934
0.000201421
0.63315
0.64484
0.619103
0.558341
0.472722
0.376453
0.282686
0.20084
0.13556
0.0872308
0.0538196
0.0320082
0.018446
0.0103614
0.00572075
0.00312271
0.00168823
0.000866522
0.000298084
0.769703
0.776086
0.737619
0.659888
0.555632
0.441183
0.331076
0.235553
0.159492
0.10311
0.0640004
0.038336
0.0222787
0.0126366
0.00705375
0.00389206
0.0021164
0.00107505
0.000351167
0.883296
0.880112
0.828186
0.735703
0.616924
0.489194
0.367518
0.262358
0.178582
0.116264
0.0727923
0.0440521
0.025914
0.0149143
0.00847381
0.00477643
0.002661
0.00138526
0.000464321
0.983328
0.966197
0.8996
0.793258
0.662238
0.524245
0.394178
0.28227
0.193135
0.126641
0.0800165
0.0489771
0.0292248
0.0171301
0.00996881
0.00579797
0.00335809
0.0018253
0.000639941
1.06431
1.03092
0.94998
0.83137
0.690649
0.54546
0.410171
0.294432
0.20239
0.133632
0.0852402
0.052847
0.0320894
0.0192704
0.011599
0.00705936
0.00432387
0.00249524
0.000927837
1.09659
1.05296
0.962741
0.837288
0.692662
0.54598
0.410689
0.295579
0.204219
0.135929
0.0877339
0.0553286
0.034438
0.0214331
0.0135624
0.00880689
0.00580811
0.00360021
0.00142617
1.1381
1.08169
0.978532
0.843315
0.692827
0.543602
0.408057
0.293889
0.203859
0.136809
0.0895503
0.0577589
0.037215
0.0243595
0.0164968
0.0116107
0.00830635
0.0055154
0.00230327
1.16828
1.09346
0.976247
0.832139
0.677814
0.528677
0.395738
0.28527
0.19901
0.135214
0.0904463
0.0604058
0.0409951
0.028796
0.0212285
0.0162988
0.0125669
0.00880662
0.00380575
1.17177
1.07869
0.949174
0.799077
0.644665
0.499689
0.37332
0.270083
0.190531
0.132292
0.091734
0.0646653
0.0472117
0.0361775
0.0291568
0.0241745
0.0197084
0.0142809
0.00626565
1.15243
1.04242
0.902282
0.749171
0.598448
0.461551
0.345362
0.252422
0.182034
0.131215
0.0962352
0.0730957
0.0582291
0.0487094
0.0423246
0.0370595
0.0312279
0.0229664
0.0100773
1.12807
0.997904
0.847303
0.693301
0.549083
0.423044
0.319429
0.238691
0.178912
0.136558
0.10791
0.0892085
0.0772281
0.0692959
0.0633535
0.0572183
0.048911
0.0360254
0.015652
1.08639
0.935371
0.778462
0.629001
0.496596
0.385962
0.298426
0.232423
0.184987
0.152214
0.130608
0.11674
0.107775
0.101264
0.095232
0.0871664
0.0746527
0.0546126
0.0233649
0.972583
0.81593
0.667717
0.53735
0.429481
0.34443
0.280467
0.234407
0.202729
0.181629
0.168269
0.159786
0.153873
0.148307
0.141147
0.129406
0.110147
0.079612
0.0334542
0.865499
0.709027
0.5764
0.470921
0.390873
0.332431
0.291517
0.264113
0.246679
0.235769
0.229334
0.225009
0.220867
0.214699
0.204398
0.186308
0.156899
0.111802
0.0461642
0.737026
0.592835
0.491258
0.422236
0.376999
0.348757
0.332271
0.323633
0.319874
0.318244
0.317624
0.316159
0.312185
0.303351
0.287238
0.259449
0.215879
0.151744
0.0618558
0.519366
0.431394
0.391418
0.378654
0.380625
0.390082
0.40231
0.414572
0.425206
0.432653
0.436908
0.436806
0.430885
0.416618
0.391225
0.349714
0.287571
0.19992
0.0812599
0.303673
0.308612
0.345731
0.393726
0.442178
0.486195
0.523231
0.552367
0.573607
0.586735
0.592601
0.590732
0.579605
0.556431
0.518005
0.458963
0.374416
0.259365
0.107094
0.090406
0.217796
0.343523
0.455954
0.551343
0.62866
0.688586
0.732235
0.761554
0.777882
0.782666
0.776354
0.757247
0.722444
0.668403
0.589746
0.481014
0.336418
0.145729
-0.0748977
0.182114
0.394668
0.56794
0.706758
0.813812
0.893386
0.948436
0.98297
1.00009
1.00153
0.989061
0.960839
0.914231
0.845551
0.749718
0.619889
0.447426
0.213749
-0.153285
0.207153
0.491719
0.716986
0.893536
1.02592
1.12173
1.18536
1.22296
1.23969
1.23744
1.21992
1.18558
1.13284
1.05828
0.95729
0.819944
0.630528
0.353644
-0.129744
0.282648
0.615909
0.881176
1.08837
1.24118
1.3498
1.41978
1.45952
1.47674
1.47374
1.45715
1.42707
1.38459
1.32761
1.2527
1.14462
0.9742
0.676741
-0.0267476
0.384877
0.74301
1.03576
1.26566
1.43338
1.55096
1.62539
1.66738
1.68832
1.69165
1.68852
1.68405
1.68591
1.69658
1.71824
1.73127
1.68873
1.48231
0.0960661
0.481161
0.849848
1.16034
1.40472
1.58091
1.70225
1.77888
1.82316
1.85291
1.87342
1.90314
1.962
2.07707
2.27884
2.63326
3.23386
4.27442
6.15155
)
;

boundaryField
{
    up
    {
        type            calculated;
        value           nonuniform List<scalar> 
84
(
-6.15155
-1.48232
-0.676748
-0.353648
-0.213748
-0.145725
-0.107089
-0.0812561
-0.0618544
-0.046165
-0.0334563
-0.0233671
-0.0156535
-0.0100779
-0.0062656
-0.00380534
-0.00230277
-0.00142574
-0.000927525
-0.000639734
-0.00046418
-0.00035103
-0.000297966
-0.000201851
-0.000677596
-0.000842542
-0.0010337
-0.00123846
-0.00149683
-0.00191742
-0.00276389
-0.00455359
-0.00750619
-0.0331748
-0.0274295
0.00203414
-0.00108726
-0.000729701
-0.000847947
-0.000404268
-0.000519875
-0.00054877
0.000548903
0.000512088
0.000411921
0.000843829
0.000727278
0.00108129
-0.00198978
0.0270092
0.0335731
0.00756066
0.00456936
0.00276582
0.00191599
0.00149536
0.00123796
0.00103431
0.000843659
0.000680245
0.000201421
0.000298084
0.000351167
0.000464321
0.000639941
0.000927837
0.00142617
0.00230327
0.00380575
0.00626565
0.0100773
0.015652
0.0233649
0.0334542
0.0461642
0.0618558
0.0812599
0.107094
0.145729
0.213749
0.353644
0.676741
1.48231
6.15155
)
;
    }
    low
    {
        type            calculated;
        value           nonuniform List<scalar> 
84
(
-0.0860986
0.042215
0.153805
0.178364
0.0899871
-0.0930684
-0.324657
-0.553318
-0.775533
-0.897492
-1.0022
-1.11309
-1.14493
-1.16419
-1.18108
-1.17227
-1.13701
-1.09455
-1.05853
-0.968708
-0.862814
-0.745771
-0.606793
-0.4435
-0.29252
-0.0962627
0.0977113
0.292094
0.468314
0.648509
0.777358
0.885339
0.975894
1.02214
1.03623
1.03941
0.963547
0.828292
0.675154
0.501068
0.312594
0.119381
-0.119326
-0.31254
-0.50101
-0.675104
-0.828251
-0.963526
-1.03938
-1.03636
-1.02205
-0.975927
-0.885358
-0.777384
-0.648541
-0.468346
-0.292135
-0.0977481
0.0961738
0.292571
0.443431
0.606819
0.745772
0.862815
0.968708
1.05853
1.09456
1.13701
1.17228
1.18108
1.16419
1.14493
1.11309
1.0022
0.897501
0.775539
0.553323
0.324662
0.0930723
-0.0899848
-0.178365
-0.153808
-0.0422178
0.0860991
)
;
    }
    left
    {
        type            calculated;
        value           nonuniform List<scalar> 
19
(
-0.0869451
-0.467033
-0.846461
-1.17048
-1.4275
-1.61325
-1.74167
-1.82407
-1.87267
-1.90882
-1.93767
-1.97913
-2.05866
-2.21096
-2.4731
-2.93525
-3.72593
-5.11498
-5.33323
)
;
    }
    right
    {
        type            calculated;
        value           nonuniform List<scalar> 
19
(
0.0869469
0.467033
0.846456
1.17047
1.4275
1.61325
1.74166
1.82407
1.87267
1.90883
1.93768
1.97914
2.05866
2.21095
2.47309
2.93522
3.72591
5.11498
5.33324
)
;
    }
    frontAndBackPlanes
    {
        type            empty;
    }
}


// ************************************************************************* //
