/*--------------------------------*- C++ -*----------------------------------*\
  =========                 |
  \\      /  F ield         | OpenFOAM: The Open Source CFD Toolbox
   \\    /   O peration     | Website:  https://openfoam.org
    \\  /    A nd           | Version:  7
     \\/     M anipulation  |
\*---------------------------------------------------------------------------*/
FoamFile
{
    version     2.0;
    format      ascii;
    class       volScalarField;
    location    "0.08";
    object      gradTy;
}
// * * * * * * * * * * * * * * * * * * * * * * * * * * * * * * * * * * * * * //

dimensions      [0 -1 0 1 0 0 0];

internalField   nonuniform List<scalar> 
1596
(
-0.201209
-0.367823
-0.493497
-0.600324
-0.686911
-0.768236
-0.837026
-0.908148
-0.984271
-1.0657
-1.18296
-1.3299
-1.54492
-1.86986
-2.40791
-3.2802
-4.88226
-7.87101
-18.5882
-0.603456
-0.726265
-0.786969
-0.822843
-0.841077
-0.86157
-0.88037
-0.911523
-0.957548
-1.01559
-1.11173
-1.23814
-1.42167
-1.68196
-2.07462
-2.62398
-3.46503
-4.71565
-8.27024
-1.05295
-1.06862
-1.0428
-1.00255
-0.9539
-0.916305
-0.887011
-0.87836
-0.891673
-0.922051
-0.990541
-1.08735
-1.23161
-1.43286
-1.72713
-2.11631
-2.67611
-3.45295
-5.10949
-1.48902
-1.37582
-1.2588
-1.14461
-1.03408
-0.943121
-0.869434
-0.822985
-0.803897
-0.805991
-0.845286
-0.911017
-1.0165
-1.16594
-1.38419
-1.66502
-2.05557
-2.57251
-3.44964
-1.85011
-1.63104
-1.436
-1.25783
-1.09383
-0.956035
-0.842871
-0.761915
-0.712485
-0.687821
-0.699228
-0.735929
-0.806612
-0.91256
-1.07164
-1.27568
-1.55689
-1.91981
-2.44912
-2.09638
-1.82344
-1.57673
-1.35061
-1.1442
-0.967414
-0.820385
-0.708906
-0.632065
-0.583164
-0.569328
-0.580375
-0.621189
-0.691237
-0.803399
-0.950037
-1.15454
-1.41721
-1.77039
-2.22181
-1.94918
-1.6821
-1.4274
-1.19127
-0.984247
-0.809392
-0.671755
-0.570843
-0.50059
-0.464669
-0.453791
-0.469705
-0.51057
-0.585253
-0.687369
-0.834256
-1.02537
-1.27439
-2.24678
-2.01042
-1.75066
-1.48693
-1.23446
-1.00663
-0.810484
-0.651497
-0.530233
-0.441732
-0.387089
-0.358014
-0.35376
-0.371447
-0.416534
-0.483821
-0.585939
-0.722657
-0.900865
-2.20437
-2.02485
-1.79147
-1.53407
-1.27633
-1.03578
-0.823877
-0.647627
-0.509181
-0.405032
-0.334597
-0.290551
-0.270258
-0.269987
-0.292303
-0.33283
-0.400255
-0.494739
-0.620459
-2.11647
-1.98968
-1.79191
-1.55322
-1.30144
-1.05771
-0.837462
-0.649869
-0.498962
-0.382907
-0.300316
-0.244788
-0.212429
-0.198873
-0.204365
-0.225006
-0.266237
-0.328371
-0.414331
-2.03252
-1.93718
-1.77004
-1.55295
-1.31262
-1.07179
-0.84862
-0.654414
-0.495068
-0.370406
-0.278872
-0.214905
-0.17386
-0.150945
-0.144655
-0.151288
-0.173672
-0.211927
-0.26809
-1.94731
-1.88174
-1.74034
-1.54335
-1.31574
-1.08059
-0.857611
-0.659899
-0.494987
-0.364199
-0.266215
-0.196173
-0.149044
-0.119758
-0.105569
-0.102793
-0.112272
-0.133728
-0.16841
-1.85389
-1.81332
-1.69452
-1.51645
-1.30253
-1.07578
-0.856472
-0.658992
-0.4921
-0.358324
-0.256799
-0.183234
-0.132496
-0.0993938
-0.0803825
-0.0717463
-0.07294
-0.0832528
-0.103255
-1.7801
-1.74961
-1.64531
-1.48143
-1.279
-1.06054
-0.846207
-0.651125
-0.484779
-0.350491
-0.247828
-0.172888
-0.120568
-0.0856463
-0.0641121
-0.0522199
-0.0485227
-0.0519335
-0.0624703
-1.71878
-1.69499
-1.59878
-1.44376
-1.2494
-1.03765
-0.828267
-0.636634
-0.472511
-0.33959
-0.237701
-0.163133
-0.110842
-0.0756161
-0.0532025
-0.0398537
-0.0335913
-0.0330614
-0.0378826
-1.66289
-1.64651
-1.55523
-1.40491
-1.21521
-1.00816
-0.803123
-0.615467
-0.454809
-0.324814
-0.225327
-0.152632
-0.101708
-0.067365
-0.045255
-0.0316695
-0.0243637
-0.0218345
-0.0234526
-1.61718
-1.60473
-1.51535
-1.36608
-1.17772
-0.973084
-0.771433
-0.587908
-0.431649
-0.3059
-0.210224
-0.140704
-0.0922696
-0.0597512
-0.0387996
-0.025792
-0.0183986
-0.0150701
-0.0150549
-1.58208
-1.57167
-1.48149
-1.32993
-1.13967
-0.934917
-0.735276
-0.55557
-0.404188
-0.283605
-0.192788
-0.127431
-0.0823278
-0.0523129
-0.0330917
-0.0211708
-0.014251
-0.0108147
-0.0100783
-1.54617
-1.54637
-1.45644
-1.3007
-1.10569
-0.898116
-0.698557
-0.521648
-0.374889
-0.259717
-0.174222
-0.113539
-0.0722183
-0.0450715
-0.02788
-0.0173048
-0.0111434
-0.00795853
-0.00698959
-1.50617
-1.52211
-1.43518
-1.27516
-1.07385
-0.861636
-0.660829
-0.486084
-0.343916
-0.234494
-0.154787
-0.0992228
-0.06204
-0.0380135
-0.023028
-0.01393
-0.00866082
-0.00589927
-0.00494301
-1.47388
-1.5028
-1.41925
-1.2545
-1.04544
-0.82686
-0.62346
-0.450146
-0.312376
-0.208846
-0.135182
-0.084983
-0.0521103
-0.0313014
-0.0185678
-0.0109685
-0.00661996
-0.00433984
-0.00350415
-1.44456
-1.4883
-1.40892
-1.23945
-1.02178
-0.795513
-0.588318
-0.415603
-0.281791
-0.183982
-0.116302
-0.0714329
-0.0428163
-0.0251504
-0.0145889
-0.00841783
-0.00494433
-0.00313444
-0.00245221
-1.4139
-1.47618
-1.40314
-1.22995
-1.00366
-0.769035
-0.557134
-0.384163
-0.253633
-0.161042
-0.0989572
-0.0591027
-0.0344748
-0.0197276
-0.0111597
-0.00628356
-0.00359568
-0.00220496
-0.0016639
-1.38218
-1.46436
-1.39925
-1.22344
-0.989088
-0.746014
-0.529048
-0.35529
-0.227521
-0.139717
-0.0828327
-0.0476933
-0.0268137
-0.0147992
-0.00808596
-0.0044132
-0.00245424
-0.00144835
-0.000985429
-1.35282
-1.45597
-1.40649
-1.2385
-1.0055
-0.759461
-0.538124
-0.360246
-0.229558
-0.140166
-0.0825648
-0.0472938
-0.0264937
-0.0146168
-0.00801595
-0.00442999
-0.00251844
-0.00152283
-0.000996793
-1.32874
-1.44837
-1.41532
-1.26074
-1.03562
-0.79124
-0.566838
-0.383276
-0.246346
-0.151521
-0.0897459
-0.0516321
-0.0290238
-0.0160604
-0.00882924
-0.00489897
-0.00280715
-0.00173216
-0.00119498
-1.32416
-1.44846
-1.42548
-1.28275
-1.06707
-0.827111
-0.601837
-0.413535
-0.270049
-0.16865
-0.101294
-0.0590072
-0.0335241
-0.0187063
-0.0103364
-0.00574628
-0.0032952
-0.00204564
-0.00143674
-1.34238
-1.45905
-1.43778
-1.30317
-1.09699
-0.863667
-0.64016
-0.449007
-0.299689
-0.19142
-0.117564
-0.0699833
-0.0405694
-0.0230339
-0.0128764
-0.00717851
-0.00408156
-0.00249608
-0.00173183
-1.3796
-1.48142
-1.45549
-1.32546
-1.12813
-0.902719
-0.682987
-0.490692
-0.33639
-0.221165
-0.140015
-0.086006
-0.051467
-0.030135
-0.0172882
-0.00978172
-0.00552864
-0.00328173
-0.00217734
-1.43348
-1.51322
-1.47818
-1.35033
-1.16122
-0.944531
-0.730183
-0.538408
-0.380258
-0.25844
-0.169618
-0.108322
-0.0675749
-0.0413381
-0.0247539
-0.0145056
-0.00830272
-0.00480879
-0.0029931
-1.50218
-1.55549
-1.50969
-1.38263
-1.2008
-0.992643
-0.784223
-0.593867
-0.432662
-0.304591
-0.207864
-0.138587
-0.0906637
-0.0584615
-0.0370502
-0.022962
-0.0136855
-0.00794015
-0.00467519
-1.56993
-1.60317
-1.5486
-1.42247
-1.24755
-1.04777
-0.845671
-0.657545
-0.49417
-0.360458
-0.255948
-0.178348
-0.122584
-0.0836269
-0.0565449
-0.0376884
-0.0240975
-0.0145568
-0.00838152
-1.64475
-1.65924
-1.59602
-1.47014
-1.30123
-1.10936
-0.91382
-0.728805
-0.564437
-0.426162
-0.314532
-0.228779
-0.164949
-0.118873
-0.0858138
-0.062041
-0.0436927
-0.0290209
-0.0167832
-1.73265
-1.72797
-1.65579
-1.52951
-1.36597
-1.18186
-0.993372
-0.81261
-0.648731
-0.507306
-0.389672
-0.296295
-0.224431
-0.171059
-0.132133
-0.104356
-0.0832599
-0.0662467
-0.0507607
-1.82838
-1.80366
-1.71858
-1.58713
-1.42432
-1.24443
-1.06084
-0.883813
-0.721312
-0.57845
-0.457058
-0.358102
-0.279811
-0.220091
-0.175948
-0.144979
-0.123538
-0.109017
-0.098283
-1.93714
-1.88498
-1.78094
-1.63851
-1.4708
-1.29012
-1.10765
-0.932227
-0.770758
-0.627668
-0.505033
-0.403751
-0.322556
-0.259697
-0.21279
-0.179655
-0.157565
-0.144615
-0.138749
-2.05964
-1.97487
-1.84969
-1.69414
-1.51888
-1.33438
-1.15022
-0.974166
-0.812364
-0.668728
-0.545357
-0.443055
-0.360748
-0.296818
-0.24907
-0.215157
-0.192295
-0.178157
-0.170249
-2.16791
-2.05504
-1.91127
-1.7437
-1.5611
-1.3725
-1.18629
-1.00934
-0.847143
-0.703197
-0.579469
-0.476705
-0.393898
-0.329513
-0.281485
-0.247479
-0.224774
-0.211019
-0.203691
-2.25088
-2.12049
-1.96363
-1.78698
-1.59856
-1.40655
-1.21853
-1.04072
-0.878143
-0.733953
-0.610025
-0.507041
-0.424044
-0.359557
-0.31162
-0.277895
-0.255716
-0.242681
-0.236213
-2.31578
-2.17237
-2.00557
-1.82189
-1.62885
-1.43407
-1.24453
-1.06599
-0.903116
-0.758788
-0.634819
-0.531822
-0.44887
-0.384518
-0.33688
-0.3036
-0.282052
-0.26979
-0.264197
-2.36317
-2.20991
-2.03544
-1.84642
-1.64995
-1.45313
-1.2625
-1.08347
-0.920437
-0.7761
-0.652216
-0.549344
-0.46657
-0.402464
-0.355184
-0.322347
-0.301353
-0.289708
-0.284762
-2.39647
-2.23193
-2.05126
-1.85867
-1.66016
-1.46225
-1.27112
-1.09193
-0.928939
-0.784724
-0.661006
-0.558316
-0.475744
-0.411867
-0.364871
-0.332366
-0.311774
-0.300586
-0.296137
-2.39648
-2.23195
-2.05128
-1.8587
-1.66019
-1.46229
-1.27116
-1.09197
-0.928979
-0.784763
-0.661044
-0.558352
-0.475778
-0.4119
-0.364903
-0.332399
-0.311807
-0.30062
-0.296173
-2.36318
-2.20995
-2.0355
-1.8465
-1.65004
-1.45323
-1.26262
-1.08358
-0.920552
-0.776214
-0.652326
-0.549449
-0.466671
-0.402561
-0.355279
-0.322442
-0.30145
-0.289811
-0.284872
-2.3158
-2.17243
-2.00567
-1.82201
-1.629
-1.43424
-1.24471
-1.06618
-0.903302
-0.758971
-0.634995
-0.53199
-0.44903
-0.384672
-0.33703
-0.303748
-0.282203
-0.269948
-0.264366
-2.25091
-2.12057
-1.96375
-1.78714
-1.59876
-1.40677
-1.21877
-1.04096
-0.87839
-0.734194
-0.610256
-0.50726
-0.42425
-0.359753
-0.311807
-0.278079
-0.255901
-0.242872
-0.236416
-2.16794
-2.05513
-1.91142
-1.74389
-1.56133
-1.37277
-1.18658
-1.00964
-0.847444
-0.70349
-0.579748
-0.476967
-0.394142
-0.329742
-0.2817
-0.247687
-0.22498
-0.21123
-0.203913
-2.05968
-1.97497
-1.84985
-1.69436
-1.51914
-1.33469
-1.15055
-0.974512
-0.81271
-0.669063
-0.545672
-0.443347
-0.361016
-0.297064
-0.249299
-0.215373
-0.192503
-0.178364
-0.170462
-1.93718
-1.8851
-1.78114
-1.63879
-1.47115
-1.29053
-1.1081
-0.932696
-0.771226
-0.628118
-0.505454
-0.404138
-0.322908
-0.260017
-0.213084
-0.179927
-0.157821
-0.144854
-0.138968
-1.8284
-1.80369
-1.71866
-1.58729
-1.42457
-1.24475
-1.06123
-0.884242
-0.721754
-0.57888
-0.457457
-0.358455
-0.280112
-0.220338
-0.176147
-0.14514
-0.123688
-0.109202
-0.098569
-1.73266
-1.72809
-1.65603
-1.52989
-1.36648
-1.18249
-0.994081
-0.813359
-0.649478
-0.508015
-0.390319
-0.296868
-0.224927
-0.171485
-0.132507
-0.1047
-0.0836053
-0.0666257
-0.0512001
-1.64475
-1.65929
-1.59615
-1.4704
-1.30161
-1.10984
-0.914359
-0.729366
-0.564981
-0.42666
-0.314966
-0.229143
-0.165246
-0.119116
-0.0860176
-0.0622239
-0.0438639
-0.029174
-0.0168945
-1.56992
-1.6032
-1.54872
-1.42272
-1.24792
-1.04823
-0.846185
-0.658068
-0.494662
-0.360893
-0.256313
-0.178642
-0.122814
-0.0838078
-0.0566915
-0.0378139
-0.024206
-0.0146405
-0.00842809
-1.50217
-1.5555
-1.5098
-1.38286
-1.20115
-0.993075
-0.784698
-0.594338
-0.433092
-0.304958
-0.20816
-0.138816
-0.0908358
-0.0585911
-0.0371503
-0.0230419
-0.0137486
-0.00798394
-0.00469427
-1.43346
-1.51323
-1.47827
-1.35054
-1.16154
-0.944932
-0.730616
-0.538826
-0.380628
-0.258744
-0.169854
-0.108498
-0.0677018
-0.0414297
-0.024821
-0.0145551
-0.00833801
-0.00483067
-0.00300053
-1.37958
-1.48141
-1.45557
-1.32565
-1.12842
-0.903082
-0.683372
-0.491055
-0.336701
-0.221413
-0.1402
-0.0861387
-0.0515594
-0.030199
-0.0173324
-0.00981197
-0.00554805
-0.00329242
-0.00218011
-1.34236
-1.45904
-1.43785
-1.30334
-1.09725
-0.863989
-0.640493
-0.449312
-0.299944
-0.191616
-0.117706
-0.0700822
-0.040636
-0.0230782
-0.0129055
-0.00719692
-0.00409234
-0.00250151
-0.0017332
-1.32414
-1.44844
-1.42553
-1.2829
-1.0673
-0.827385
-0.602115
-0.413784
-0.270252
-0.168802
-0.101402
-0.0590806
-0.0335723
-0.0187374
-0.0103559
-0.00575792
-0.00330163
-0.00204892
-0.0014381
-1.32872
-1.44836
-1.41537
-1.26086
-1.0358
-0.791449
-0.567046
-0.38346
-0.246494
-0.151632
-0.0898228
-0.0516835
-0.0290569
-0.0160812
-0.00884183
-0.00490621
-0.00281105
-0.00173432
-0.00119651
-1.35284
-1.45599
-1.40651
-1.23854
-1.00557
-0.759533
-0.538195
-0.360311
-0.229611
-0.140207
-0.0825951
-0.0473151
-0.0265082
-0.0146263
-0.00802194
-0.00443367
-0.00252069
-0.00152428
-0.000997329
-1.3822
-1.46436
-1.39924
-1.2234
-0.989032
-0.745949
-0.528984
-0.355234
-0.227476
-0.139683
-0.0828075
-0.0476757
-0.0268017
-0.0147913
-0.00808072
-0.00440974
-0.00245198
-0.00144682
-0.000983811
-1.41392
-1.47619
-1.40314
-1.22995
-1.00366
-0.769033
-0.557136
-0.384167
-0.253639
-0.161047
-0.0989607
-0.0591049
-0.034476
-0.019728
-0.0111597
-0.00628335
-0.00359542
-0.00220473
-0.0016635
-1.44457
-1.48831
-1.40892
-1.23945
-1.02177
-0.795508
-0.588317
-0.415604
-0.281793
-0.183984
-0.116304
-0.0714341
-0.042817
-0.0251507
-0.0145889
-0.00841778
-0.00494427
-0.00313441
-0.0024521
-1.47389
-1.50281
-1.41924
-1.25449
-1.04544
-0.826857
-0.623459
-0.450146
-0.312377
-0.208847
-0.135183
-0.0849838
-0.0521108
-0.0313017
-0.018568
-0.0109686
-0.00662013
-0.00434011
-0.00350434
-1.50617
-1.52211
-1.43518
-1.27515
-1.07385
-0.861634
-0.660828
-0.486084
-0.343916
-0.234494
-0.154787
-0.0992232
-0.0620404
-0.0380139
-0.0230283
-0.0139303
-0.00866128
-0.00589998
-0.00494367
-1.54618
-1.54637
-1.45644
-1.3007
-1.10569
-0.898116
-0.698556
-0.521647
-0.374888
-0.259716
-0.174222
-0.113539
-0.0722185
-0.0450718
-0.0278803
-0.0173053
-0.0111443
-0.00795996
-0.00699102
-1.58208
-1.57167
-1.48149
-1.32993
-1.13967
-0.934918
-0.735275
-0.555569
-0.404186
-0.283603
-0.192787
-0.12743
-0.0823275
-0.0523129
-0.033092
-0.0211715
-0.0142526
-0.0108173
-0.0100809
-1.61718
-1.60473
-1.51535
-1.36608
-1.17773
-0.973086
-0.771433
-0.587906
-0.431646
-0.305897
-0.210223
-0.140702
-0.0922688
-0.0597509
-0.0387998
-0.0257931
-0.0184013
-0.0150746
-0.0150593
-1.66289
-1.64651
-1.55523
-1.40491
-1.21521
-1.00816
-0.803124
-0.615465
-0.454806
-0.324811
-0.225324
-0.15263
-0.101707
-0.0673641
-0.0452551
-0.0316712
-0.024368
-0.0218415
-0.0234591
-1.71878
-1.69499
-1.59878
-1.44377
-1.24941
-1.03766
-0.828267
-0.636632
-0.472507
-0.339586
-0.237697
-0.16313
-0.11084
-0.0756146
-0.0532025
-0.0398564
-0.0335979
-0.0330713
-0.0378908
-1.78009
-1.74961
-1.64531
-1.48143
-1.27901
-1.06054
-0.846208
-0.651123
-0.484775
-0.350487
-0.247824
-0.172884
-0.120565
-0.0856443
-0.0641125
-0.0522241
-0.0485317
-0.0519458
-0.0624789
-1.85389
-1.81332
-1.69453
-1.51645
-1.30253
-1.07578
-0.856472
-0.65899
-0.492097
-0.358319
-0.256794
-0.183229
-0.132492
-0.0993916
-0.0803836
-0.0717522
-0.0729509
-0.0832656
-0.103261
-1.94731
-1.88174
-1.74034
-1.54335
-1.31574
-1.08059
-0.85761
-0.659896
-0.494982
-0.364193
-0.266209
-0.196167
-0.149039
-0.119756
-0.105572
-0.1028
-0.112283
-0.133738
-0.16841
-2.03251
-1.93718
-1.77004
-1.55296
-1.31262
-1.07179
-0.848619
-0.654411
-0.495063
-0.3704
-0.278866
-0.214898
-0.173856
-0.150944
-0.144659
-0.151295
-0.173679
-0.211927
-0.26808
-2.11646
-1.98969
-1.79191
-1.55323
-1.30144
-1.05771
-0.83746
-0.649864
-0.498956
-0.382901
-0.300309
-0.244782
-0.212426
-0.198874
-0.20437
-0.225012
-0.266236
-0.328358
-0.414311
-2.20437
-2.02486
-1.79147
-1.53408
-1.27634
-1.03578
-0.823873
-0.647622
-0.509175
-0.405026
-0.334591
-0.290547
-0.270258
-0.269991
-0.292308
-0.332831
-0.400244
-0.494712
-0.620432
-2.24678
-2.01043
-1.75067
-1.48693
-1.23446
-1.00663
-0.810479
-0.651492
-0.530227
-0.441727
-0.387086
-0.358014
-0.353763
-0.371453
-0.416537
-0.483816
-0.585916
-0.72262
-0.90084
-2.22182
-1.94919
-1.6821
-1.4274
-1.19127
-0.984244
-0.809388
-0.671751
-0.57084
-0.500588
-0.464669
-0.453795
-0.469712
-0.510577
-0.585254
-0.687358
-0.834227
-1.02533
-1.27437
-2.09639
-1.82345
-1.57674
-1.35061
-1.1442
-0.967413
-0.820384
-0.708906
-0.632065
-0.583167
-0.569334
-0.580384
-0.621199
-0.691244
-0.803396
-0.950021
-1.15451
-1.41719
-1.7704
-1.85011
-1.63104
-1.436
-1.25783
-1.09383
-0.956037
-0.842873
-0.761918
-0.712489
-0.687828
-0.699238
-0.735941
-0.806622
-0.912564
-1.07163
-1.27566
-1.55687
-1.9198
-2.44914
-1.48902
-1.37582
-1.2588
-1.14462
-1.03408
-0.943126
-0.869439
-0.822991
-0.803905
-0.806001
-0.845298
-0.91103
-1.01651
-1.16594
-1.38418
-1.665
-2.05557
-2.57252
-3.44966
-1.05295
-1.06861
-1.0428
-1.00255
-0.953904
-0.91631
-0.887018
-0.878368
-0.891682
-0.922063
-0.990555
-1.08736
-1.23161
-1.43286
-1.72712
-2.1163
-2.67611
-3.45296
-5.10951
-0.603456
-0.726257
-0.786964
-0.822841
-0.841078
-0.861573
-0.880375
-0.911529
-0.957557
-1.0156
-1.11175
-1.23815
-1.42168
-1.68196
-2.07461
-2.62397
-3.46503
-4.71566
-8.27024
-0.20121
-0.367821
-0.493493
-0.60032
-0.686909
-0.768235
-0.837027
-0.908151
-0.984276
-1.06571
-1.18297
-1.32991
-1.54492
-1.86986
-2.4079
-3.28019
-4.88225
-7.87102
-18.5882
)
;

boundaryField
{
    up
    {
        type            calculated;
        value           nonuniform List<scalar> 
84
(
-16.8478
-9.12377
-5.57174
-3.73304
-2.64161
-1.90927
-1.37665
-0.97554
-0.673425
-0.450546
-0.29167
-0.182959
-0.111744
-0.0671028
-0.0402118
-0.0244941
-0.0154246
-0.0101254
-0.00689937
-0.00480898
-0.00336982
-0.00233449
-0.00155478
-0.000836678
-0.000806569
-0.00106498
-0.00128896
-0.00154049
-0.00188888
-0.00249765
-0.00372489
-0.00627972
-0.0125347
-0.0471474
-0.0975853
-0.137949
-0.16773
-0.201483
-0.234413
-0.262804
-0.283669
-0.29529
-0.295327
-0.283784
-0.262978
-0.234621
-0.201711
-0.167945
-0.13815
-0.0978934
-0.0476505
-0.0126408
-0.00630913
-0.00373159
-0.00249756
-0.00188746
-0.00153966
-0.00128924
-0.00106662
-0.000807074
-0.000834762
-0.00155417
-0.00233426
-0.00336991
-0.0048095
-0.00690058
-0.0101277
-0.0154283
-0.0244993
-0.0402178
-0.0671078
-0.111745
-0.182951
-0.291653
-0.450521
-0.673401
-0.975527
-1.37666
-1.9093
-2.64166
-3.73308
-5.57176
-9.12376
-16.8478
)
;
    }
    low
    {
        type            calculated;
        value           nonuniform List<scalar> 
84
(
-0.216565
-0.632977
-1.11463
-1.58848
-1.98158
-2.24506
-2.36904
-2.37905
-2.30848
-2.18852
-2.0902
-1.99217
-1.88019
-1.79754
-1.73195
-1.6684
-1.61567
-1.57922
-1.53805
-1.48449
-1.44075
-1.40128
-1.35785
-1.31369
-1.26395
-1.22928
-1.22504
-1.2563
-1.31117
-1.38656
-1.47404
-1.55356
-1.64059
-1.74157
-1.84734
-1.96919
-2.10956
-2.22791
-2.31585
-2.38486
-2.43568
-2.47491
-2.47492
-2.43569
-2.38487
-2.31587
-2.22792
-2.10959
-1.96922
-1.84733
-1.74159
-1.64057
-1.55354
-1.47402
-1.38654
-1.31115
-1.25629
-1.22503
-1.22927
-1.26395
-1.31371
-1.35785
-1.40128
-1.44075
-1.48449
-1.53805
-1.57923
-1.61567
-1.6684
-1.73195
-1.79753
-1.88018
-1.99216
-2.09019
-2.18851
-2.30847
-2.37905
-2.36904
-2.24507
-1.98159
-1.58848
-1.11463
-0.632984
-0.216568
)
;
    }
    left
    {
        type            calculated;
        value           nonuniform List<scalar> 
19
(
-0.197987
-0.362716
-0.492243
-0.604245
-0.696121
-0.782141
-0.854941
-0.930081
-1.01007
-1.09687
-1.22213
-1.38037
-1.61517
-1.97662
-2.58022
-3.57488
-5.42057
-8.90102
-17.4684
)
;
    }
    right
    {
        type            calculated;
        value           nonuniform List<scalar> 
19
(
-0.197988
-0.362715
-0.49224
-0.604242
-0.696119
-0.78214
-0.854942
-0.930084
-1.01007
-1.09688
-1.22214
-1.38037
-1.61516
-1.9766
-2.58019
-3.57486
-5.42055
-8.90103
-17.4684
)
;
    }
    frontAndBackPlanes
    {
        type            empty;
    }
}


// ************************************************************************* //
