/*--------------------------------*- C++ -*----------------------------------*\
  =========                 |
  \\      /  F ield         | OpenFOAM: The Open Source CFD Toolbox
   \\    /   O peration     | Website:  https://openfoam.org
    \\  /    A nd           | Version:  7
     \\/     M anipulation  |
\*---------------------------------------------------------------------------*/
FoamFile
{
    version     2.0;
    format      ascii;
    class       volScalarField;
    location    "0.08";
    object      T;
}
// * * * * * * * * * * * * * * * * * * * * * * * * * * * * * * * * * * * * * //

dimensions      [0 0 0 1 0 0 0];

internalField   nonuniform List<scalar> 
1596
(
0.993871
0.976524
0.959465
0.944557
0.932498
0.923274
0.916579
0.911748
0.908299
0.90533
0.90226
0.898231
0.89153
0.879954
0.860358
0.826388
0.766879
0.65999
0.462025
0.973889
0.920695
0.87263
0.831973
0.799443
0.774613
0.756493
0.743533
0.734402
0.727265
0.720758
0.713207
0.701835
0.683347
0.653826
0.606853
0.533557
0.419825
0.239744
0.951403
0.863968
0.788614
0.726198
0.67666
0.63894
0.611381
0.591791
0.578206
0.568271
0.560179
0.551908
0.540502
0.522592
0.494424
0.450443
0.383952
0.285943
0.141124
0.931041
0.813975
0.715687
0.635257
0.571675
0.52326
0.487796
0.462637
0.445365
0.433321
0.424455
0.416626
0.40703
0.392585
0.369964
0.3345
0.280989
0.203274
0.0919128
0.916329
0.776372
0.65977
0.56464
0.489356
0.431825
0.389451
0.359293
0.338616
0.324578
0.314973
0.307633
0.299996
0.289359
0.272866
0.246623
0.206424
0.147645
0.0639015
0.908629
0.753396
0.62305
0.516098
0.430924
0.365358
0.316647
0.281704
0.25759
0.241339
0.230628
0.223273
0.216941
0.209287
0.197896
0.179543
0.150763
0.107815
0.0459215
0.906992
0.743707
0.603934
0.487746
0.394197
0.321421
0.266755
0.227106
0.19943
0.18068
0.16842
0.160439
0.154569
0.148758
0.140971
0.128566
0.108689
0.0782191
0.0333158
0.909208
0.74368
0.598332
0.475311
0.374822
0.29564
0.235416
0.191195
0.159917
0.138487
0.124367
0.115291
0.10919
0.104219
0.0986469
0.0903263
0.0769398
0.0558915
0.0240091
0.913618
0.749889
0.60204
0.47428
0.368189
0.283401
0.218071
0.169499
0.134696
0.110552
0.0944379
0.0840137
0.0772417
0.0724036
0.0679863
0.0622427
0.0533212
0.0391094
0.0170067
0.917813
0.757765
0.609661
0.479084
0.368852
0.279507
0.209802
0.157377
0.119382
0.0927307
0.0747244
0.0629461
0.0553453
0.0502643
0.0463317
0.0421027
0.0361116
0.0266852
0.0117519
0.920616
0.764275
0.617177
0.485356
0.372449
0.279769
0.206649
0.151102
0.110462
0.0817029
0.062084
0.049123
0.0407357
0.0352817
0.0314708
0.0280733
0.0239233
0.0177258
0.00788635
0.923358
0.770314
0.624471
0.492119
0.377418
0.282262
0.206485
0.148443
0.105666
0.075194
0.0542675
0.0403466
0.0313018
0.025481
0.0216298
0.018658
0.0156153
0.0115074
0.00514305
0.925443
0.774994
0.630231
0.497647
0.381753
0.284852
0.207153
0.147286
0.102944
0.0712296
0.0493695
0.0347764
0.0252758
0.0191919
0.0152797
0.0125339
0.0101494
0.00735356
0.00327223
0.926076
0.776918
0.632802
0.500142
0.383597
0.285698
0.206885
0.145964
0.100732
0.0683331
0.0459814
0.0310543
0.0213428
0.0151511
0.0112354
0.00864257
0.00666287
0.00467846
0.00204745
0.926144
0.776972
0.632721
0.499756
0.382764
0.28436
0.205067
0.143752
0.0982414
0.0656789
0.0432545
0.0283153
0.0186289
0.0124879
0.00865161
0.00620267
0.00449457
0.00301357
0.00127808
0.925932
0.775749
0.630505
0.496774
0.379297
0.280675
0.201385
0.140238
0.0949972
0.0627517
0.0406449
0.0259927
0.0165492
0.0106072
0.00693734
0.00465341
0.00315494
0.00199892
0.000810485
0.925076
0.772903
0.625883
0.490935
0.372904
0.274322
0.195505
0.135084
0.0906616
0.0592128
0.0378079
0.0237307
0.0147346
0.00912831
0.00570699
0.00362021
0.00230789
0.00137911
0.000530707
0.923793
0.768738
0.619192
0.482552
0.363836
0.265477
0.187528
0.128327
0.0852157
0.0549945
0.0346327
0.0213807
0.0130043
0.00784505
0.00473801
0.00287687
0.00174288
0.000988475
0.000361646
0.923164
0.764952
0.612184
0.473207
0.353412
0.255173
0.178224
0.120509
0.0790169
0.050309
0.0312205
0.0189615
0.0113174
0.00667503
0.00392093
0.0023006
0.00133896
0.000727993
0.000255406
0.922928
0.761601
0.605139
0.463259
0.341988
0.243725
0.167855
0.111837
0.0722195
0.0452602
0.0276294
0.0164914
0.00965992
0.00557937
0.00319948
0.00182541
0.00102926
0.000541638
0.000184205
0.922408
0.757893
0.597509
0.45242
0.329468
0.231165
0.15652
0.102438
0.0649461
0.0399496
0.0239316
0.0140127
0.0080472
0.00455216
0.00255259
0.00142103
0.000780494
0.000400357
0.000133219
0.922164
0.754568
0.590143
0.4416
0.316743
0.218287
0.14488
0.0928243
0.0575722
0.0346355
0.0202933
0.0116234
0.00653014
0.00361321
0.00198077
0.00107705
0.000577521
0.000289793
9.49645e-05
0.922516
0.752368
0.584011
0.431875
0.304874
0.206041
0.13371
0.083583
0.0505104
0.0295886
0.0168798
0.00941672
0.0051555
0.00278124
0.00148683
0.000787978
0.000411377
0.000201119
6.48572e-05
0.923411
0.751536
0.5797
0.424083
0.294808
0.195336
0.123782
0.0753
0.0441653
0.0250639
0.013838
0.00746822
0.00395622
0.00206593
0.00106902
0.000546936
0.000273156
0.000124933
3.56397e-05
0.925971
0.756242
0.584445
0.42762
0.296738
0.195866
0.123398
0.0744977
0.0433018
0.0243308
0.0132968
0.00710578
0.00373095
0.00193379
0.000994521
0.000505083
0.000247926
0.000107961
2.64228e-05
0.929324
0.764845
0.596305
0.440507
0.308775
0.205878
0.130971
0.0797824
0.0467444
0.0264478
0.0145371
0.00780539
0.00411448
0.00214051
0.00110588
0.000565977
0.000281491
0.000125188
3.19411e-05
0.931377
0.771544
0.606882
0.453256
0.321749
0.217505
0.140369
0.0867412
0.0515197
0.0295132
0.0163914
0.00886816
0.00469352
0.00244114
0.00125588
0.000639084
0.000316983
0.000141603
3.67991e-05
0.932131
0.776039
0.615625
0.465237
0.335154
0.230489
0.151605
0.0955983
0.0579648
0.0338852
0.0191751
0.0105382
0.00563677
0.00293996
0.00150131
0.000750767
0.000364167
0.000159567
4.10104e-05
0.93222
0.779286
0.623356
0.476987
0.349286
0.245024
0.164894
0.106647
0.0664429
0.0399528
0.0232545
0.0131239
0.00717889
0.00379792
0.00194042
0.000953075
0.000446168
0.000187073
4.58594e-05
0.931802
0.781795
0.630596
0.48881
0.36421
0.261044
0.180175
0.119923
0.0771168
0.0479789
0.0289414
0.0169353
0.00959025
0.00522447
0.00271608
0.00132943
0.000603063
0.00023897
5.41079e-05
0.931331
0.784508
0.638296
0.501415
0.380343
0.278749
0.197557
0.135552
0.090187
0.0582497
0.0365821
0.022338
0.0132157
0.00751222
0.00404853
0.00202123
0.000907445
0.000342376
7.08578e-05
0.931801
0.788817
0.647762
0.515844
0.398424
0.298625
0.217368
0.153811
0.105954
0.0711228
0.0465909
0.0297802
0.0185043
0.0110766
0.00628624
0.00328164
0.00150494
0.000552326
0.000103566
0.932653
0.793854
0.658088
0.531248
0.417708
0.320067
0.239173
0.174456
0.124378
0.0867546
0.0592882
0.0397038
0.025975
0.0164692
0.00996703
0.00557918
0.00273291
0.00103395
0.000164947
0.933712
0.799329
0.66896
0.547335
0.437939
0.342861
0.262829
0.197449
0.145554
0.10539
0.0750687
0.0526403
0.0362744
0.0244319
0.0159081
0.00977021
0.00540514
0.0024253
0.000546928
0.934548
0.803925
0.678225
0.561268
0.455786
0.363399
0.284656
0.219235
0.166215
0.124159
0.0915187
0.0666329
0.047876
0.0338315
0.0233373
0.0154241
0.0093987
0.00480592
0.00134317
0.934076
0.80468
0.681409
0.56733
0.464572
0.374355
0.297023
0.232211
0.17908
0.136335
0.10261
0.0764119
0.0562491
0.0408031
0.028976
0.0198112
0.0125965
0.00682141
0.00209484
0.932644
0.802768
0.680402
0.567915
0.466935
0.378347
0.302293
0.238319
0.185582
0.142831
0.108784
0.0820319
0.0611563
0.0449027
0.0322309
0.0222219
0.0142039
0.00770851
0.00236946
0.931685
0.801639
0.680119
0.568978
0.469469
0.382221
0.30722
0.243939
0.191529
0.148771
0.114445
0.0872108
0.0657096
0.048741
0.0353146
0.0245445
0.0157894
0.00861258
0.00266414
0.931328
0.801429
0.680648
0.570549
0.472149
0.385901
0.31168
0.248902
0.196715
0.153919
0.11934
0.0916894
0.0696532
0.0520727
0.0379977
0.0265697
0.0171742
0.00940332
0.00292357
0.931113
0.801373
0.681161
0.571846
0.474276
0.388779
0.315147
0.252754
0.200742
0.157923
0.123157
0.095192
0.0727451
0.0546897
0.0401074
0.0281617
0.0182607
0.0100222
0.00312676
0.930909
0.801196
0.681336
0.572549
0.475554
0.390586
0.317378
0.255271
0.203403
0.160592
0.125717
0.0975527
0.0748362
0.0564628
0.0415365
0.0292375
0.0189912
0.010435
0.00326136
0.930462
0.80058
0.680894
0.572432
0.475805
0.391182
0.318258
0.256359
0.204615
0.161849
0.126952
0.0987111
0.0758755
0.0573527
0.0422596
0.0297855
0.0193655
0.0106478
0.00333159
0.930464
0.800585
0.680902
0.572442
0.475815
0.391192
0.318269
0.256369
0.204625
0.161858
0.12696
0.0987178
0.0758811
0.0573574
0.0422634
0.0297885
0.0193676
0.0106491
0.00333202
0.930916
0.801213
0.68136
0.572577
0.475585
0.390618
0.31741
0.255302
0.203432
0.160618
0.12574
0.0975727
0.0748533
0.0564771
0.0415481
0.0292465
0.0189976
0.0104388
0.0032627
0.931123
0.8014
0.6812
0.571893
0.474327
0.388831
0.315199
0.252803
0.200788
0.157965
0.123194
0.0952238
0.0727722
0.0547123
0.0401256
0.0281757
0.0182707
0.0100281
0.00312881
0.931342
0.801465
0.680699
0.570612
0.472218
0.385972
0.31175
0.248969
0.196777
0.153974
0.119388
0.0917314
0.0696887
0.0521021
0.0380213
0.0265878
0.017187
0.00941098
0.00292621
0.931703
0.801683
0.680184
0.569056
0.469555
0.382309
0.307307
0.244021
0.191605
0.148839
0.114504
0.0872615
0.0657521
0.0487759
0.0353424
0.0245657
0.0158043
0.00862146
0.00266719
0.932665
0.80282
0.680478
0.568007
0.467036
0.378451
0.302396
0.238415
0.18567
0.142909
0.108851
0.082089
0.0612036
0.0449411
0.0322611
0.0222446
0.0142196
0.00771774
0.00237257
0.934099
0.80474
0.681496
0.567437
0.46469
0.374476
0.297142
0.232322
0.17918
0.136422
0.102685
0.0764743
0.0563
0.0408436
0.0290073
0.0198342
0.0126121
0.00683046
0.00209792
0.934576
0.804012
0.67836
0.56144
0.45598
0.363603
0.284858
0.219426
0.166388
0.124311
0.0916481
0.0667409
0.0479646
0.0339033
0.0233948
0.0154695
0.00943316
0.00482887
0.00135216
0.933748
0.799432
0.669119
0.547536
0.438164
0.343095
0.263057
0.19766
0.145743
0.105551
0.0752036
0.0527505
0.0363629
0.0245021
0.015963
0.00981206
0.005435
0.0024434
0.000553108
0.932684
0.793945
0.65823
0.531428
0.417908
0.32027
0.239367
0.174632
0.124529
0.08688
0.059389
0.0397829
0.0260359
0.0165154
0.0100012
0.00560316
0.00274779
0.00104101
0.000166292
0.93183
0.788904
0.647899
0.516016
0.398613
0.298816
0.217546
0.153967
0.106084
0.0712277
0.0466722
0.0298415
0.0185498
0.0111097
0.00630944
0.0032968
0.00151343
0.000555722
0.000104011
0.931358
0.784591
0.638427
0.501579
0.380521
0.278925
0.197717
0.135689
0.0902984
0.0583359
0.0366465
0.0223848
0.0132489
0.00753529
0.00406386
0.00203058
0.000912244
0.000344054
7.096e-05
0.931826
0.781872
0.630719
0.488963
0.364375
0.261204
0.180318
0.120042
0.07721
0.0480486
0.0289915
0.0169703
0.00961405
0.00524016
0.00272589
0.00133497
0.000605652
0.000239754
5.40944e-05
0.932242
0.779356
0.623468
0.477127
0.349435
0.245166
0.165018
0.106747
0.0665193
0.040008
0.0232927
0.0131495
0.00719555
0.00380833
0.00194651
0.000956246
0.000447509
0.000187418
4.58236e-05
0.932149
0.776102
0.615725
0.465361
0.335285
0.230612
0.15171
0.095681
0.0580259
0.033928
0.0192037
0.0105567
0.00564826
0.00294676
0.00150505
0.000752574
0.000364874
0.000159736
4.09931e-05
0.931392
0.771598
0.606969
0.453363
0.321861
0.217608
0.140455
0.0868075
0.0515676
0.0295459
0.0164127
0.0088815
0.00470151
0.00244568
0.00125827
0.000640199
0.000317428
0.00014174
3.68149e-05
0.929337
0.76489
0.596377
0.440596
0.308866
0.205961
0.131039
0.0798347
0.0467817
0.0264729
0.0145532
0.00781526
0.00412028
0.00214374
0.00110757
0.000566799
0.000281868
0.000125353
3.19891e-05
0.925973
0.756253
0.584464
0.427643
0.296762
0.195889
0.123417
0.0745129
0.0433129
0.0243383
0.0133017
0.00710882
0.00373271
0.00193473
0.000994966
0.000505263
0.000247978
0.000107953
2.63932e-05
0.923406
0.751524
0.579683
0.424063
0.294788
0.195318
0.123767
0.0752886
0.044157
0.025058
0.013834
0.00746555
0.00395446
0.00206477
0.00106827
0.000546457
0.000272862
0.000124758
3.55574e-05
0.922515
0.752366
0.584009
0.431874
0.304874
0.206042
0.133712
0.0835845
0.0505115
0.0295893
0.0168802
0.00941679
0.00515543
0.00278111
0.0014867
0.000787871
0.000411302
0.000201071
6.4832e-05
0.922164
0.754567
0.590141
0.4416
0.316743
0.218288
0.144881
0.0928253
0.057573
0.034636
0.0202935
0.0116234
0.0065301
0.00361314
0.0019807
0.001077
0.00057749
0.000289776
9.49554e-05
0.922408
0.757892
0.597508
0.45242
0.329468
0.231165
0.156521
0.102438
0.0649465
0.0399499
0.0239318
0.0140128
0.00804724
0.00455217
0.0025526
0.00142105
0.000780517
0.000400377
0.000133223
0.922928
0.7616
0.605138
0.463259
0.341988
0.243726
0.167855
0.111837
0.0722198
0.0452604
0.0276296
0.0164916
0.00966004
0.00557947
0.00319958
0.0018255
0.00102936
0.000541709
0.000184225
0.923164
0.764951
0.612183
0.473207
0.353412
0.255173
0.178224
0.120509
0.079017
0.0503092
0.0312207
0.0189616
0.0113176
0.00667522
0.00392113
0.00230081
0.00133916
0.000728142
0.000255451
0.923793
0.768738
0.619192
0.482552
0.363836
0.265476
0.187528
0.128327
0.0852155
0.0549945
0.0346328
0.0213809
0.0130045
0.00784535
0.00473835
0.00287724
0.00174324
0.000988745
0.000361727
0.925076
0.772903
0.625884
0.490935
0.372904
0.274322
0.195504
0.135084
0.0906613
0.0592127
0.037808
0.023731
0.014735
0.00912877
0.00570755
0.00362083
0.0023085
0.00137956
0.000530835
0.925932
0.775749
0.630506
0.496775
0.379297
0.280674
0.201384
0.140238
0.0949969
0.0627516
0.040645
0.025993
0.0165497
0.010608
0.00693823
0.00465441
0.0031559
0.00199959
0.000810659
0.926144
0.776973
0.632722
0.499756
0.382764
0.28436
0.205066
0.143751
0.098241
0.0656789
0.0432547
0.0283158
0.0186297
0.012489
0.00865295
0.00620415
0.00449592
0.00301445
0.00127827
0.926076
0.776919
0.632802
0.500143
0.383597
0.285698
0.206884
0.145964
0.100732
0.0683332
0.0459817
0.031055
0.021344
0.0151527
0.0112373
0.00864456
0.00666459
0.00467948
0.00204761
0.925443
0.774995
0.630232
0.497648
0.381753
0.284851
0.207152
0.147286
0.102943
0.0712298
0.0493701
0.0347776
0.0252774
0.0191941
0.0152822
0.0125362
0.0101512
0.00735447
0.00327225
0.923358
0.770315
0.624472
0.49212
0.377417
0.282261
0.206484
0.148443
0.105666
0.0751945
0.0542685
0.0403482
0.0313039
0.0254837
0.0216325
0.0186604
0.0156169
0.0115079
0.00514285
0.920616
0.764276
0.617178
0.485357
0.372449
0.279768
0.206649
0.151101
0.110462
0.0817036
0.0620854
0.049125
0.0407382
0.0352845
0.0314733
0.0280751
0.0239239
0.0177254
0.0078859
0.917813
0.757766
0.609661
0.479084
0.368851
0.279507
0.209802
0.157377
0.119382
0.0927318
0.0747261
0.0629483
0.0553477
0.0502665
0.0463331
0.042103
0.0361107
0.0266838
0.0117513
0.913618
0.74989
0.60204
0.474279
0.368188
0.2834
0.218071
0.1695
0.134697
0.110553
0.0944395
0.0840155
0.0772433
0.0724044
0.0679859
0.0622408
0.0533185
0.0391071
0.0170061
0.909208
0.74368
0.598331
0.47531
0.374821
0.295639
0.235415
0.191195
0.159917
0.138487
0.124368
0.115292
0.10919
0.104218
0.0986441
0.0903222
0.0769355
0.0558888
0.0240089
0.906992
0.743707
0.603933
0.487745
0.394196
0.321421
0.266754
0.227106
0.199431
0.18068
0.16842
0.160438
0.154567
0.148754
0.140966
0.12856
0.108684
0.0782169
0.033316
0.908628
0.753395
0.623049
0.516097
0.430923
0.365358
0.316647
0.281704
0.257589
0.241339
0.230627
0.223271
0.216937
0.209282
0.197889
0.179538
0.150759
0.107814
0.0459222
0.916328
0.776371
0.65977
0.564639
0.489356
0.431825
0.389451
0.359292
0.338615
0.324576
0.31497
0.307628
0.29999
0.289353
0.272859
0.246618
0.206422
0.147646
0.0639025
0.93104
0.813975
0.715687
0.635257
0.571675
0.52326
0.487796
0.462636
0.445363
0.433318
0.424451
0.41662
0.407024
0.392579
0.369959
0.334498
0.280989
0.203276
0.0919138
0.951403
0.863968
0.788615
0.726199
0.676661
0.63894
0.61138
0.59179
0.578204
0.568268
0.560175
0.551904
0.540498
0.522589
0.494422
0.450443
0.383954
0.285945
0.141124
0.973889
0.920695
0.872631
0.831974
0.799443
0.774613
0.756493
0.743533
0.7344
0.727263
0.720756
0.713205
0.701833
0.683346
0.653827
0.606855
0.53356
0.419827
0.239744
0.99387
0.976524
0.959465
0.944557
0.932498
0.923274
0.916579
0.911748
0.908298
0.90533
0.902259
0.898231
0.89153
0.879954
0.86036
0.826389
0.76688
0.65999
0.462024
)
;

boundaryField
{
    up
    {
        type            fixedValue;
        value           uniform 0;
    }
    low
    {
        type            fixedValue;
        value           uniform 1;
    }
    left
    {
        type            fixedValue;
        value           uniform 1;
    }
    right
    {
        type            fixedValue;
        value           uniform 1;
    }
    frontAndBackPlanes
    {
        type            empty;
    }
}


// ************************************************************************* //
