/*--------------------------------*- C++ -*----------------------------------*\
  =========                 |
  \\      /  F ield         | OpenFOAM: The Open Source CFD Toolbox
   \\    /   O peration     | Website:  https://openfoam.org
    \\  /    A nd           | Version:  7
     \\/     M anipulation  |
\*---------------------------------------------------------------------------*/
FoamFile
{
    version     2.0;
    format      ascii;
    class       volScalarField;
    location    "0.143";
    object      gradTz;
}
// * * * * * * * * * * * * * * * * * * * * * * * * * * * * * * * * * * * * * //

dimensions      [0 -1 0 1 0 0 0];

internalField   nonuniform List<scalar> 
1596
(
-9.68072e-16
-4.66355e-16
4.78649e-16
1.47319e-17
-8.99361e-16
0
-4.12361e-16
-4.06706e-16
-3.35085e-17
-2.17767e-16
-1.5449e-18
-2.17879e-16
9.67907e-16
-2.16865e-16
1.01058e-15
8.74248e-16
5.20618e-16
6.59111e-16
0
9.62252e-16
0
1.3256e-15
-1.2582e-17
-3.94105e-16
3.89541e-16
8.20229e-16
3.23674e-17
3.85177e-16
-1.87106e-16
3.74473e-16
-4.46164e-18
-5.21346e-16
-3.27561e-16
-8.16412e-16
-7.98854e-16
-7.28284e-16
4.15697e-16
0
-4.64901e-16
0
-8.49894e-16
1.98745e-17
7.52509e-16
-2.24072e-16
2.35093e-17
-5.09985e-18
-4.59922e-18
-4.48537e-18
1.30747e-16
0
2.70257e-16
7.61601e-16
-7.54876e-17
6.19844e-17
1.45132e-16
2.30812e-16
0
7.39326e-16
-2.12329e-16
2.11553e-16
0
-2.00104e-16
-2.10691e-16
3.38142e-16
-2.80064e-16
0
0
-1.19832e-16
6.8468e-17
0
-2.21439e-16
-2.76258e-16
1.94419e-16
-2.07995e-16
-1.06516e-17
0
1.30199e-16
3.2942e-16
-2.83114e-16
0
-7.90791e-17
-2.43538e-16
0
3.5389e-16
-3.43992e-17
-3.11915e-17
-4.47133e-17
1.78667e-16
2.26059e-16
2.48113e-17
1.84419e-17
-2.10125e-16
1.04933e-17
9.79849e-17
-4.31541e-17
-3.38107e-17
-4.50258e-16
4.12878e-16
-3.4324e-16
-1.02512e-18
-2.81586e-16
7.78139e-18
-7.80722e-18
-2.08421e-16
0
-3.71575e-17
-2.12542e-16
-2.03737e-16
1.59057e-16
1.80669e-16
-2.42599e-18
-1.08592e-16
-9.93847e-17
7.67832e-17
2.82562e-16
-4.56123e-16
4.87505e-16
2.62318e-16
0
2.17994e-16
1.21279e-16
-5.7472e-17
2.62745e-16
-4.80381e-17
-2.09998e-16
1.52847e-18
-1.19452e-16
-1.59697e-16
-1.1965e-16
1.05632e-16
1.09548e-16
-1.48708e-18
-3.15764e-17
3.78173e-17
7.30056e-16
-8.15649e-16
0
0
-2.5665e-16
0
0
0
1.52519e-16
0
0
1.10963e-16
3.16487e-18
3.88808e-17
-9.31555e-17
0
4.9554e-17
2.04131e-17
0
-4.61037e-16
8.76387e-16
0
0
2.64314e-16
0
-8.89757e-17
8.88858e-17
-1.55242e-16
6.17274e-17
-6.21789e-17
0
8.88893e-17
9.78352e-17
0
-5.61771e-17
-5.05879e-17
-1.7991e-17
1.18269e-15
-5.4363e-16
0
-3.34201e-16
3.30461e-16
0
2.10352e-16
0
0
0
5.34048e-17
-5.36609e-17
0
-6.93133e-17
-1.89827e-17
0
1.06571e-17
3.06289e-17
0
-3.00407e-16
0
0
3.35975e-16
-6.09879e-16
4.54337e-17
1.77765e-17
-7.86094e-17
1.27485e-17
5.09e-18
-5.49415e-17
-8.16072e-17
0
6.03299e-17
-1.30308e-17
1.32263e-17
3.91503e-17
-2.44577e-17
-1.0701e-17
2.29945e-16
-3.61675e-17
2.21778e-16
7.11186e-16
-5.51323e-17
-2.76433e-16
0
0
0
1.1403e-16
4.16805e-17
1.46002e-16
-3.49686e-17
-5.92507e-17
-3.20258e-17
-1.90587e-17
8.64828e-18
-1.93264e-17
1.00754e-17
-2.66963e-16
2.62401e-16
-4.73728e-16
-7.03479e-16
6.3364e-16
2.24009e-16
-4.00751e-16
3.21984e-16
-2.57921e-16
6.80184e-17
4.59392e-17
-4.00603e-17
2.14317e-17
-2.05618e-17
6.20678e-17
0
-4.85049e-18
3.69856e-17
-5.57298e-18
-1.79171e-15
8.04233e-16
5.93367e-19
-1.50512e-16
2.93208e-17
2.17651e-16
-4.05643e-16
-1.51315e-16
1.18818e-16
-9.26313e-17
-7.26156e-17
0
-7.39692e-17
-2.13542e-17
-3.54757e-17
-2.08009e-17
1.61951e-18
-2.08717e-17
1.09482e-18
2.92781e-16
-2.51522e-16
2.25921e-19
-1.76387e-16
-4.06804e-16
3.75185e-16
2.08943e-18
1.47457e-16
-1.15685e-16
1.76509e-16
4.01591e-17
3.02714e-17
8.31219e-17
0
6.27281e-17
2.85111e-17
0
1.06129e-17
8.24038e-19
0
2.44005e-16
1.74259e-16
-3.72894e-16
3.93302e-16
-5.65179e-16
3.78207e-16
1.23612e-16
-2.7135e-17
-1.77561e-16
2.75821e-17
-2.7446e-17
-7.28644e-17
2.62511e-17
-1.36764e-17
-2.68908e-17
1.06949e-17
-6.73961e-18
3.12806e-18
-2.72406e-16
8.72129e-16
-6.54911e-16
3.26588e-16
0
0
-6.69405e-17
1.48271e-16
-8.81735e-17
1.60916e-16
0
0
4.73401e-17
-3.91982e-17
-2.44799e-17
7.76583e-18
-8.41754e-18
4.57288e-18
0
3.15269e-17
2.5491e-16
-1.88828e-16
-1.57655e-16
-2.29443e-16
-5.58586e-17
9.88907e-17
0
-8.13929e-17
-5.81877e-17
4.99769e-17
-3.66002e-17
2.66828e-17
0
9.70335e-18
1.65507e-17
0
0
0
-3.05761e-17
3.71585e-16
1.22471e-16
-4.78965e-16
1.20566e-16
9.70867e-17
0
0
7.51704e-17
-3.99116e-17
-4.83385e-17
3.53991e-17
-2.58043e-17
0
-5.39647e-18
4.01187e-18
0
-3.36982e-18
-1.19922e-18
-2.09238e-16
6.14385e-16
-7.17845e-16
-2.58215e-16
1.39181e-16
-8.95146e-17
6.88384e-17
0
-3.84862e-17
2.97143e-17
0
0
9.08939e-18
-9.09986e-18
2.24539e-18
-3.4574e-18
4.54225e-18
8.19401e-19
9.08466e-19
1.12288e-16
-9.67929e-17
4.61194e-16
-2.94413e-16
-1.06776e-16
1.89752e-17
1.46255e-16
4.77122e-17
3.68255e-17
0
1.58666e-17
-1.44571e-17
1.02372e-17
-7.79771e-18
8.23293e-18
-1.33828e-17
-3.51908e-18
2.98856e-18
7.37304e-19
2.91784e-16
-3.00312e-16
0
2.28524e-16
-1.24282e-16
-7.96717e-17
4.41175e-17
-1.49894e-16
0
-2.67887e-18
-1.98549e-17
-1.20589e-17
1.49984e-17
-1.6189e-18
-7.95699e-18
5.37183e-18
0
1.62696e-18
-7.15916e-19
5.21201e-16
-8.65861e-17
3.38787e-16
-2.63615e-16
1.2198e-16
-1.61242e-18
-1.28949e-16
-3.54254e-17
6.05781e-17
-3.53287e-18
-2.61688e-17
2.05369e-17
-8.3334e-18
-9.01943e-18
0
0
0
-1.63989e-18
5.85145e-20
-4.48747e-16
4.32923e-16
2.90214e-19
5.68651e-17
4.5097e-17
-9.57609e-17
1.05498e-16
-7.73949e-17
5.96853e-17
-1.58038e-17
2.92892e-17
8.63533e-18
-3.33845e-18
1.63081e-19
-8.12812e-19
-1.44986e-18
0
0
0
0
0
1.87675e-16
-1.07356e-16
-2.64923e-16
0
0
-2.23964e-17
-3.16048e-17
2.34837e-17
0
-1.08907e-17
7.39728e-18
-2.10835e-17
2.34553e-17
-6.47015e-18
6.83888e-18
6.88458e-19
0
-8.67716e-17
8.78395e-17
0
-6.10714e-17
6.10004e-17
9.01662e-17
0
2.26103e-17
2.2843e-17
-1.09269e-16
0
-1.27851e-17
8.77423e-18
5.32087e-18
-3.52917e-18
4.7869e-18
0
-1.53819e-18
0
-4.46815e-17
-4.24783e-17
2.50904e-18
6.27493e-17
-1.56116e-16
0
-3.36401e-17
0
7.53517e-17
2.64257e-17
0
5.06139e-17
-4.84982e-17
5.91247e-18
-7.24672e-18
3.34428e-18
9.28924e-18
3.09744e-18
-2.45761e-18
0
9.03689e-17
-7.30196e-17
8.95057e-17
9.70575e-17
0
6.72801e-17
-6.11618e-17
-4.09992e-17
5.30384e-17
-7.86856e-17
-3.24303e-17
0
0
4.83582e-18
0
0
1.14181e-18
0
-4.10247e-16
3.17005e-16
0
6.73543e-18
-5.51398e-17
-2.81398e-18
4.39702e-17
2.59369e-17
-3.6472e-17
-7.37944e-17
1.02721e-16
-2.85734e-17
0
-1.0137e-17
0
0
0
-4.46254e-18
3.58086e-18
-1.18322e-16
1.06565e-16
2.67263e-16
-2.56009e-16
7.44495e-17
5.66962e-18
-4.45685e-17
3.50889e-17
5.41772e-17
3.67527e-17
-7.19027e-17
0
2.79832e-17
7.39076e-19
-1.16037e-17
-2.14946e-17
1.72724e-17
-2.24153e-18
4.5015e-18
-4.08756e-16
5.46272e-16
-5.36596e-16
8.83234e-17
6.91715e-17
-6.36652e-17
5.13654e-17
-3.64399e-17
0
-2.65144e-17
3.67036e-17
1.56665e-17
2.33087e-17
2.47992e-17
-3.60925e-17
-1.41718e-18
0
-1.97993e-18
6.78552e-19
-4.41864e-16
-1.24378e-16
-2.04791e-16
1.11819e-16
-1.64326e-16
1.33269e-16
-7.68528e-17
5.89195e-17
-5.91674e-18
-5.71078e-18
-4.11055e-17
2.5673e-17
-1.02978e-17
3.3117e-17
-3.55514e-17
3.0042e-18
3.32553e-18
0
-1.23307e-18
4.77752e-16
-1.34828e-16
0
0
-1.68689e-16
3.21609e-16
-7.19689e-17
-1.22203e-17
9.54528e-17
-2.76113e-18
0
0
-1.66104e-17
0
-3.24879e-17
7.52012e-17
-5.09346e-17
0
5.34506e-19
1.60418e-16
2.90413e-16
0
-1.15246e-16
-8.6007e-17
-6.97904e-17
-7.54853e-17
2.85084e-17
-7.6909e-17
-3.84266e-17
0
0
2.59618e-17
0
0
-4.67174e-17
7.78175e-17
0
0
1.10162e-15
-1.44879e-16
-6.36606e-16
-3.21365e-16
4.38142e-16
1.30426e-16
7.31924e-17
0
-2.41929e-17
2.16329e-17
5.43356e-17
-1.70161e-17
-2.27817e-17
3.46097e-17
-3.68141e-17
-1.02035e-17
0
0
0
8.82146e-17
-6.68905e-16
6.53482e-16
-5.98678e-17
-4.3834e-16
6.72211e-16
-3.30277e-16
0
0
1.49656e-16
-1.20631e-16
0
-3.253e-17
5.75797e-17
-5.76873e-18
1.60797e-17
4.73794e-18
6.59239e-20
9.91129e-19
0
0
0
5.19195e-16
-3.49611e-16
3.40209e-16
-5.24317e-16
1.45482e-16
0
-4.75581e-17
7.23446e-17
-7.39405e-17
-1.35285e-17
2.86845e-19
-8.78078e-18
-1.12382e-18
-7.00999e-18
-2.01037e-18
-1.07432e-18
7.31264e-16
-1.28713e-15
6.01763e-16
0
1.47155e-16
-2.01401e-16
1.88933e-16
-1.49556e-16
0
-6.57696e-17
9.23088e-17
0
0
2.73713e-19
0
-9.6976e-18
6.57153e-18
1.05659e-18
1.73532e-18
7.2685e-16
0
-2.68521e-16
2.99511e-16
-1.76955e-16
3.82038e-16
-1.77592e-16
-1.30378e-16
1.3174e-16
-1.28792e-17
0
0
7.68486e-18
-1.23886e-17
-8.6557e-18
1.62772e-17
-3.5172e-18
1.74071e-18
0
4.12126e-16
3.08108e-16
-1.78545e-17
-2.86571e-16
-2.76919e-17
-1.91832e-16
2.54926e-17
1.56278e-16
-7.75294e-18
1.31211e-17
0
0
-7.87262e-18
0
9.06002e-18
-9.69206e-18
0
1.23103e-18
-3.38341e-19
-2.18631e-16
-1.54778e-16
1.45071e-16
-1.59518e-17
-6.97498e-18
1.82793e-17
0
-4.5699e-18
6.57107e-17
-5.53249e-17
0
1.74992e-17
-3.67888e-18
-1.51939e-17
-1.36899e-18
-1.05905e-18
0
-9.64929e-19
0
8.75936e-17
-1.64811e-16
-3.29271e-19
6.83021e-17
5.93416e-17
-5.87687e-17
-3.94516e-17
4.45778e-17
-1.45249e-17
1.14189e-17
-1.05435e-17
1.08687e-17
0
2.66232e-20
-1.01113e-18
3.62028e-18
-1.23095e-20
0
0
8.75967e-17
-8.72684e-17
-6.79409e-17
6.03041e-17
1.04677e-16
-1.05295e-16
-1.97267e-17
1.97757e-17
-1.46494e-17
1.48024e-17
-1.0544e-17
1.9727e-17
-5.53383e-18
-3.88049e-18
-1.16537e-18
3.92062e-19
9.16226e-19
2.40981e-19
-1.80602e-19
0
-2.05302e-17
1.18023e-16
-1.28261e-16
1.04287e-16
-9.26597e-17
0
6.75457e-17
-6.05731e-17
0
2.08614e-17
-2.63253e-17
-1.44997e-17
1.51966e-17
2.71806e-18
0
0
-9.65211e-19
3.49964e-19
3.48286e-16
-6.34329e-16
6.31501e-16
-5.39986e-16
2.09782e-16
-1.67734e-16
1.59657e-16
1.79871e-17
-6.46787e-17
5.7671e-17
0
-3.88455e-17
3.54504e-17
-6.4794e-18
-2.66233e-18
4.05476e-18
2.95891e-18
9.37035e-19
-3.38145e-19
8.18459e-16
0
-3.04287e-16
2.3676e-16
2.73742e-17
-2.00957e-16
3.50514e-16
-3.01464e-16
1.16722e-16
-4.6876e-17
4.79817e-17
9.21998e-18
1.51219e-17
6.311e-18
-5.0055e-18
-7.28907e-19
-6.3728e-18
0
6.2408e-19
6.40882e-16
-7.21447e-16
0
6.19456e-17
2.55161e-16
-2.48211e-16
4.01547e-17
3.43296e-17
1.47248e-17
2.46176e-17
0
0
-2.61396e-17
4.76642e-17
-1.71865e-17
-6.00556e-18
6.57509e-18
5.18128e-19
-1.17609e-18
7.66464e-17
6.34215e-16
-7.0126e-17
-4.58042e-16
4.02897e-16
4.58414e-17
-3.92987e-17
-3.35298e-17
1.03788e-16
-1.28547e-16
7.23807e-17
-7.39764e-17
1.04916e-17
-1.42948e-17
2.40162e-17
-1.61261e-17
0
0
1.06101e-18
0
1.56442e-16
-4.48088e-16
5.13385e-16
-3.86752e-16
3.85831e-16
0
1.1856e-16
-1.19104e-16
-8.25219e-17
1.20748e-16
0
4.55466e-17
-5.76395e-17
-8.36887e-18
0
-8.68939e-19
-1.57e-18
-1.21305e-19
-1.52613e-15
7.16809e-16
0
-4.38099e-16
4.38055e-16
2.48291e-16
-1.62549e-16
6.14892e-17
0
-2.50181e-18
1.61568e-17
-1.69987e-17
-2.2761e-17
3.45758e-17
-3.67656e-17
0
6.95566e-18
-1.18163e-18
-9.80693e-19
9.29606e-16
-9.05475e-16
0
1.14023e-16
9.91134e-17
-8.78374e-17
0
-6.44412e-17
-5.07559e-17
0
-4.03789e-18
0
2.59839e-17
0
0
9.36792e-18
3.43009e-17
-4.49824e-17
0
3.57007e-20
1.34897e-16
-1.19466e-16
8.88627e-17
-4.55846e-16
1.69731e-16
0
1.22321e-17
3.41069e-17
0
-3.12814e-17
8.06343e-17
-8.4711e-17
1.24421e-17
0
-2.21807e-18
0
0
0
6.02472e-20
0
1.10416e-16
0
-1.5033e-16
1.5272e-16
0
4.57634e-17
-3.36472e-17
1.16191e-16
-5.4786e-17
1.70689e-17
-2.54621e-17
2.18988e-17
-3.56181e-17
-5.43492e-18
0
-2.6669e-18
0
3.56053e-16
-6.03531e-16
0
-8.76026e-17
7.40777e-17
0
0
-8.22498e-17
0
-2.65428e-17
-3.67469e-17
-1.56879e-17
2.33446e-17
0
9.61079e-18
0
0
5.58689e-18
-5.88487e-18
0
5.05342e-16
-4.02694e-16
8.11e-17
-6.85964e-17
-2.52082e-17
7.0213e-17
7.21343e-17
-7.86211e-17
2.49791e-17
3.46258e-18
-1.74138e-17
6.93669e-17
-2.12221e-17
-4.19773e-17
1.35925e-17
-2.91956e-18
1.78541e-18
-4.58828e-19
-8.6497e-16
3.17118e-16
0
0
2.78173e-17
-2.82871e-17
1.62969e-17
7.78762e-18
6.8781e-17
3.10053e-17
-2.93354e-17
-2.27981e-18
-1.28346e-17
1.01524e-17
0
3.80537e-18
2.67598e-18
1.23815e-18
4.14715e-19
0
2.65353e-16
-2.37567e-16
7.41233e-17
6.853e-17
-1.28944e-17
-3.69261e-17
-2.87374e-17
-8.48061e-17
3.0099e-17
-1.42945e-17
2.24553e-17
1.2002e-17
-1.24259e-17
1.31894e-17
6.7008e-18
-9.17845e-18
-1.14361e-18
0
-4.99418e-17
-2.12993e-16
7.2131e-17
6.27691e-17
-1.98069e-16
1.36789e-16
5.75997e-17
-5.88758e-17
3.89194e-17
-2.85655e-17
0
0
-1.56286e-17
2.68341e-17
-1.1085e-17
8.61765e-18
-9.49565e-18
1.39029e-18
-2.46121e-18
9.21742e-17
8.27119e-17
-7.11853e-17
4.83402e-17
-6.0872e-17
-7.92479e-17
0
0
0
0
0
0
7.93585e-18
-1.81241e-17
1.91682e-17
-5.15543e-18
6.43059e-18
2.7242e-18
-2.28478e-18
1.93837e-16
-3.03821e-16
3.78129e-16
-1.54251e-16
2.16096e-16
-1.32204e-16
2.36256e-16
-1.24485e-16
-5.37797e-17
5.50142e-17
0
1.0885e-17
-7.75291e-18
1.58962e-17
-6.40351e-18
-6.66569e-18
-1.17747e-17
9.59594e-19
1.90766e-18
3.03248e-16
8.19071e-17
0
-1.13426e-16
-7.96419e-17
1.74846e-16
1.08899e-17
-5.81746e-17
3.23887e-17
-1.94372e-17
0
-8.61668e-18
0
-5.53963e-18
4.17311e-18
-3.3834e-18
-1.07373e-18
6.81971e-19
0
4.21354e-16
-8.65848e-17
3.38812e-16
-2.63848e-16
-4.77784e-17
1.67185e-16
-9.9928e-17
6.5324e-18
4.79594e-18
-1.91172e-17
1.77079e-17
0
0
7.16365e-18
-2.07505e-18
1.18923e-18
3.8798e-18
-1.34099e-18
0
7.81536e-20
0
-7.69037e-17
4.1831e-16
-2.77254e-16
-2.58224e-16
1.39841e-16
-1.2136e-16
1.08806e-16
4.66861e-17
-3.11259e-17
1.15248e-17
-9.66459e-18
2.05561e-18
1.24966e-17
7.73025e-20
-3.8618e-18
3.7508e-18
-7.93381e-19
1.00791e-15
-3.17482e-16
1.35431e-16
-4.27885e-16
1.06775e-16
-1.51469e-16
8.43023e-17
0
0
-2.85879e-18
-4.35758e-18
-1.25898e-18
0
-1.19852e-17
-8.2332e-18
5.55088e-18
-3.90309e-19
8.77275e-19
1.65034e-18
0
-3.07482e-16
4.88533e-16
8.89734e-17
-3.6923e-16
8.95144e-17
-1.23258e-16
2.92174e-17
9.18057e-17
0
0
1.52171e-18
1.28096e-17
0
-9.21621e-18
-3.78585e-18
5.75564e-19
-1.6864e-18
-2.10126e-18
0
-1.85557e-16
5.88619e-17
3.294e-16
2.17461e-16
-3.88045e-16
1.69694e-16
-1.0065e-16
5.56365e-17
-6.53751e-17
0
0
0
-1.87499e-17
3.65285e-18
-5.42304e-18
0
-3.08537e-19
1.51319e-18
-7.50333e-16
7.02915e-16
6.94983e-16
-8.38975e-16
3.55588e-16
-3.28332e-16
0
1.07888e-16
-1.42679e-16
7.69845e-17
-5.32383e-17
3.95765e-17
2.93526e-17
1.93915e-17
1.41062e-17
0
0
0
0
8.48534e-16
-4.68085e-16
0
0
-1.33743e-16
2.98507e-16
-1.89351e-16
-1.15788e-16
1.14482e-16
7.3783e-17
1.13884e-16
-4.10645e-17
1.68897e-17
1.13876e-17
7.72605e-18
6.55649e-18
1.02931e-17
-4.91379e-19
5.00514e-19
-8.5156e-16
7.65535e-16
3.79889e-16
-2.01778e-16
3.92615e-16
-2.49787e-16
-1.7884e-16
-1.4023e-16
0
-1.55998e-16
1.11321e-17
4.9498e-17
-3.47052e-17
-2.62515e-17
-9.30056e-18
-8.95162e-18
-7.20935e-18
0
0
-2.9295e-16
0
2.1172e-16
-1.46339e-20
0
0
1.84479e-16
1.44698e-16
0
8.63974e-17
0
-7.47666e-17
-2.00848e-17
3.46385e-17
0
2.16425e-17
-2.97478e-18
3.03467e-18
0
6.32649e-16
0
3.99112e-16
-7.24055e-16
6.20529e-16
4.58188e-16
-2.1195e-17
0
1.44202e-17
1.06843e-16
0
-8.87074e-17
9.29389e-17
-8.099e-17
-1.72887e-17
-1.7116e-17
-5.40593e-18
-1.03982e-18
-4.28405e-18
-5.71356e-16
8.1838e-16
-2.20289e-16
-5.50128e-16
-3.02237e-16
-2.46157e-16
-3.97653e-16
-1.44067e-16
1.70631e-17
4.60257e-17
-4.59392e-17
1.34311e-16
-5.8541e-17
1.11883e-16
-2.08171e-17
0
2.63735e-17
-1.64142e-17
4.18969e-18
1.30107e-15
-3.61825e-17
-9.18654e-16
7.11191e-16
-6.14337e-16
5.05375e-16
-2.27143e-17
-1.68655e-16
1.38447e-16
5.02224e-17
-8.52877e-18
-1.13813e-16
3.06513e-17
3.84364e-17
-1.0498e-17
1.06177e-17
-2.73165e-17
-5.44629e-18
-8.27454e-18
6.38711e-16
2.57686e-16
4.35541e-16
-3.6441e-16
-2.78397e-16
2.26206e-17
-1.90018e-16
4.54217e-16
2.09096e-17
1.89287e-16
1.06852e-16
-9.28381e-17
0
-6.033e-17
0
0
4.71153e-17
1.96968e-17
9.5323e-18
5.89976e-16
0
4.27844e-16
3.62057e-16
-3.05137e-16
2.52786e-16
0
-1.75728e-16
-2.36036e-16
-1.95671e-16
-1.07798e-16
9.38879e-17
0
0
0
0
-4.42998e-17
-3.81445e-17
0
-1.15539e-15
0
-3.05561e-17
-2.73599e-17
4.6879e-16
-2.44289e-16
-1.08208e-16
-1.09305e-16
2.44642e-16
0
6.1727e-17
-6.32645e-18
6.1364e-17
0
0
8.51256e-17
-6.45472e-18
4.58847e-17
-1.99307e-17
8.06931e-16
2.21261e-16
-2.18977e-16
-1.8459e-16
-6.01546e-16
3.97442e-16
4.60241e-16
-1.90946e-17
-1.71009e-16
1.75165e-16
3.5647e-17
-1.87349e-16
-1.47349e-16
-1.0032e-16
-1.08087e-16
-9.83851e-17
9.15979e-17
-4.24339e-18
2.04132e-17
-2.44495e-16
1.07191e-16
-5.09188e-16
8.16727e-17
-8.13755e-17
0
-2.31502e-16
-2.55018e-17
-2.14903e-16
2.90005e-17
2.09996e-16
1.47137e-16
-3.81927e-17
5.79605e-18
1.02155e-16
0
-1.97245e-16
-7.67761e-17
-1.57244e-18
5.07982e-16
-1.31218e-17
8.01595e-16
-3.71273e-16
1.02512e-18
9.33841e-18
2.76035e-16
-3.24975e-17
2.0842e-16
-1.94562e-16
-1.84114e-16
0
2.03736e-16
1.5649e-16
2.34285e-18
-3.43349e-18
1.09652e-16
7.80173e-17
0
-3.5884e-16
0
-7.50195e-17
3.56689e-16
6.90734e-18
7.91847e-17
-2.66921e-16
2.49256e-16
2.76997e-16
2.66799e-16
2.5918e-16
0
-1.97926e-16
0
1.14275e-17
-1.18685e-17
0
-1.20142e-18
6.02863e-17
2.54856e-16
1.82885e-17
-1.83762e-16
5.75328e-16
-1.81968e-16
0
0
-3.2644e-16
-2.68382e-16
-2.58469e-16
-4.86972e-16
-6.84677e-17
0
0
0
-2.46458e-17
2.60815e-17
1.71277e-16
-6.12267e-17
1.92289e-17
0
-4.1261e-16
-3.64484e-16
3.9025e-16
-3.88806e-16
-5.51448e-16
6.59908e-16
1.93735e-16
0
2.93952e-16
3.50214e-16
-7.55756e-17
4.16863e-16
-6.87415e-17
7.15432e-17
2.83247e-16
-1.62767e-16
0
-4.84516e-16
0
-4.57833e-16
4.46208e-16
0
7.80019e-16
3.61654e-16
-7.75256e-16
6.34509e-16
-3.17184e-18
-1.89021e-16
-3.39079e-16
0
4.91288e-16
-8.16411e-16
8.7859e-16
-1.12026e-15
0
0
4.83828e-16
-4.51123e-18
-1.10366e-17
-9.08483e-16
9.22566e-16
-4.42181e-16
4.40378e-16
4.34211e-16
-3.71401e-16
0
0
7.35715e-16
-7.4839e-16
-7.9005e-16
7.86186e-16
-7.68186e-16
8.32734e-16
-1.30629e-15
0
)
;

boundaryField
{
    up
    {
        type            calculated;
        value           nonuniform List<scalar> 
84
(
0
0
0
0
-4.31541e-17
7.67832e-17
-3.15764e-17
2.04131e-17
-1.7991e-17
0
-1.0701e-17
1.00754e-17
-5.57298e-18
1.09482e-18
8.24038e-19
3.12806e-18
0
0
-1.19922e-18
9.08466e-19
7.37304e-19
-7.15916e-19
5.85145e-20
0
2.73015e-19
1.59247e-19
-2.28044e-18
0
3.58086e-18
4.86711e-18
6.78552e-19
-1.23307e-18
5.34506e-19
0
-2.29032e-19
1.00853e-18
-1.06214e-18
1.72494e-18
0
-3.35873e-19
0
0
-1.80424e-19
3.49964e-19
-3.38145e-19
6.2408e-19
-1.17609e-18
1.06101e-18
-1.21305e-19
-9.80693e-19
0
0
0
-5.88487e-18
-8.25272e-19
4.14715e-19
0
-2.46121e-18
-2.28478e-18
1.63536e-18
0
0
-7.93381e-19
1.65034e-18
-2.10126e-18
1.51319e-18
0
5.00514e-19
0
0
-4.28405e-18
4.18969e-18
-8.27454e-18
9.5323e-18
0
-1.99307e-17
2.04132e-17
-1.57244e-18
0
6.02863e-17
-6.12267e-17
0
0
0
)
;
    }
    low
    {
        type            calculated;
        value           nonuniform List<scalar> 
84
(
-9.69072e-16
9.62252e-16
-4.63071e-16
7.40786e-16
1.31172e-16
-3.40929e-17
2.84892e-16
4.00122e-17
0
1.18522e-15
-3.00407e-16
2.28443e-16
-2.66963e-16
-1.792e-15
2.92781e-16
0
-2.72406e-16
3.15269e-17
-3.05761e-17
-2.09238e-16
1.12288e-16
2.91784e-16
5.18758e-16
-4.48747e-16
0
-8.67716e-17
-4.46815e-17
0
-4.10247e-16
-1.18322e-16
-4.07304e-16
-4.40812e-16
4.77162e-16
1.60418e-16
1.10198e-15
8.82146e-17
0
7.31264e-16
7.28948e-16
4.13242e-16
-2.19216e-16
8.75936e-17
8.75967e-17
0
3.48286e-16
8.20556e-16
6.40882e-16
7.82173e-17
0
-1.52649e-15
9.29606e-16
3.57007e-20
6.02472e-20
3.56053e-16
0
-8.6236e-16
0
-4.99418e-17
9.21742e-17
1.9225e-16
3.00544e-16
4.1891e-16
7.81536e-20
1.00605e-15
0
0
-7.50333e-16
8.47886e-16
-8.51244e-16
-2.9295e-16
6.32938e-16
-5.71356e-16
1.30408e-15
6.4072e-16
5.89976e-16
-1.15539e-15
8.04736e-16
-2.42165e-16
5.07982e-16
-3.57867e-16
2.54856e-16
2.1059e-17
-4.84516e-16
4.84328e-16
)
;
    }
    left
    {
        type            calculated;
        value           nonuniform List<scalar> 
19
(
-9.68072e-16
-4.66835e-16
4.78649e-16
1.48135e-17
-8.99789e-16
0
-4.12361e-16
-4.06706e-16
-3.50998e-17
-2.17767e-16
-1.5449e-18
-2.17879e-16
9.7743e-16
-2.16865e-16
1.01058e-15
8.74248e-16
5.20618e-16
7.65234e-16
0
)
;
    }
    right
    {
        type            calculated;
        value           nonuniform List<scalar> 
19
(
4.83828e-16
-4.03048e-18
-1.10366e-17
-9.08565e-16
9.22994e-16
-4.42181e-16
4.40378e-16
4.34211e-16
-3.69809e-16
0
0
7.42588e-16
-7.57912e-16
-7.9005e-16
7.86186e-16
-7.68186e-16
8.32734e-16
-1.41242e-15
0
)
;
    }
    frontAndBackPlanes
    {
        type            empty;
    }
}


// ************************************************************************* //
