/*--------------------------------*- C++ -*----------------------------------*\
  =========                 |
  \\      /  F ield         | OpenFOAM: The Open Source CFD Toolbox
   \\    /   O peration     | Website:  https://openfoam.org
    \\  /    A nd           | Version:  7
     \\/     M anipulation  |
\*---------------------------------------------------------------------------*/
FoamFile
{
    version     2.0;
    format      ascii;
    class       volScalarField;
    location    "0.345";
    object      T;
}
// * * * * * * * * * * * * * * * * * * * * * * * * * * * * * * * * * * * * * //

dimensions      [0 0 0 1 0 0 0];

internalField   nonuniform List<scalar> 
1596
(
4.98879
4.95654
4.92324
4.89115
4.86071
4.8314
4.80253
4.77269
4.74085
4.70468
4.66236
4.61147
4.54626
4.4585
4.33516
4.1468
3.83834
3.29952
2.30953
4.95147
4.85094
4.75516
4.66547
4.58134
4.50105
4.42263
4.34312
4.26004
4.16914
4.06689
3.94906
3.80744
3.63163
3.40841
3.11202
2.702
2.10836
1.19852
4.90725
4.73801
4.58427
4.44342
4.3128
4.18938
4.07013
3.9512
3.8293
3.69952
3.55782
3.39964
3.21706
3.0008
2.74044
2.41717
2.00449
1.46105
0.709358
4.86347
4.62978
4.42373
4.23799
4.06758
3.90819
3.75593
3.60646
3.4561
3.29981
3.13359
2.9531
2.75138
2.52086
2.25388
1.93725
1.55409
1.08046
0.471287
4.82701
4.53747
4.28567
4.06095
3.85647
3.66696
3.48793
3.31475
3.14356
2.9694
2.78847
2.59675
2.38822
2.15672
1.89662
1.59854
1.2516
0.841829
0.342634
4.80239
4.46881
4.17848
3.92012
3.6862
3.47095
3.26956
3.07729
2.89022
2.70352
2.51359
2.31668
2.10747
1.88081
1.63237
1.35519
1.04198
0.684406
0.266262
4.79031
4.42605
4.10487
3.81787
3.5582
3.32031
3.0994
2.8908
2.69063
2.49423
2.29813
2.09878
1.89133
1.67129
1.43509
1.1773
0.892721
0.576176
0.217367
4.78822
4.40619
4.06206
3.75131
3.46911
3.21087
2.97222
2.74879
2.53687
2.33197
2.13077
1.92981
1.72459
1.51099
1.28588
1.04474
0.783586
0.499022
0.18414
4.7936
4.40495
4.04535
3.71557
3.41377
3.137
2.88177
2.64425
2.42103
2.2079
2.00165
1.79893
1.59541
1.38722
1.17145
0.944082
0.701843
0.442303
0.160521
4.80101
4.41318
4.04468
3.70067
3.38246
3.08916
2.81855
2.5676
2.33339
2.11206
1.90057
1.69566
1.49316
1.2893
1.08125
0.86529
0.638502
0.398968
0.142923
4.80715
4.42339
4.05079
3.69689
3.36559
3.05806
2.77356
2.51008
2.26536
2.03597
1.81914
1.61173
1.40967
1.2093
1.00774
0.80143
0.587605
0.364569
0.129234
4.81484
4.43734
4.06353
3.7027
3.3608
3.04086
2.74367
2.46833
2.21337
1.97591
1.7535
1.54316
1.34094
1.1432
0.947026
0.748861
0.545982
0.33672
0.118337
4.82227
4.45224
4.07919
3.71366
3.36321
3.03252
2.72382
2.43737
2.17256
1.92715
1.69905
1.48551
1.28271
1.087
0.895394
0.704291
0.510895
0.313449
0.109371
4.82715
4.46378
4.09249
3.72398
3.36685
3.02709
2.70824
2.41167
2.1377
1.88474
1.65117
1.43448
1.23098
1.03705
0.849603
0.664935
0.480123
0.293233
0.101704
4.83143
4.47357
4.10405
3.73339
3.37074
3.0231
2.69513
2.38927
2.10672
1.8466
1.60777
1.38801
1.18378
0.991493
0.807941
0.629291
0.452438
0.275215
0.0949717
4.83561
4.48262
4.11459
3.74202
3.37447
3.0197
2.68333
2.36878
2.07811
1.81114
1.56723
1.34449
1.13954
0.948834
0.769042
0.596167
0.426879
0.258727
0.0889021
4.83871
4.48974
4.12285
3.74845
3.37639
3.01505
2.67088
2.3482
2.04986
1.77639
1.52766
1.30211
1.09657
0.907518
0.73152
0.564389
0.402532
0.243165
0.0832564
4.8411
4.49525
4.12908
3.75275
3.37634
3.00876
2.6572
2.32677
2.0211
1.74139
1.48803
1.25981
1.05379
0.866497
0.694398
0.533108
0.378729
0.228087
0.0778639
4.8449
4.50252
4.13686
3.75835
3.37739
3.00345
2.64441
2.30615
1.99305
1.70697
1.44883
1.21777
1.0111
0.825464
0.657234
0.50184
0.355045
0.213211
0.0726205
4.84934
4.51118
4.14618
3.76538
3.3797
2.99921
2.6325
2.28622
1.96546
1.67274
1.40951
1.17531
0.967713
0.783502
0.619044
0.469625
0.330678
0.198017
0.0673577
4.85275
4.51873
4.15457
3.77158
3.38121
2.99418
2.61977
2.2654
1.93684
1.6373
1.36873
1.13109
0.922261
0.739205
0.578368
0.435016
0.30436
0.181654
0.0618043
4.85606
4.52595
4.16261
3.77746
3.38238
2.98872
2.6065
2.24383
1.90721
1.60049
1.32614
1.08456
0.873958
0.69152
0.533858
0.396392
0.274383
0.162767
0.0554886
4.85971
4.53352
4.1709
3.78346
3.38353
2.98308
2.59281
2.22154
1.87644
1.56199
1.28122
1.03497
0.821788
0.639126
0.483796
0.351516
0.237995
0.138602
0.0470874
4.86345
4.54102
4.17881
3.78877
3.38374
2.97626
2.57769
2.1975
1.84345
1.52065
1.23269
0.980859
0.764135
0.580187
0.425992
0.29753
0.191179
0.103672
0.0313646
4.86917
4.55551
4.19992
3.81428
3.41137
3.00378
2.60297
2.21866
1.85894
1.52938
1.23422
0.975454
0.752709
0.564146
0.407042
0.277467
0.172001
0.0880369
0.0235589
4.87536
4.57362
4.22957
3.85457
3.46081
3.06026
2.66397
2.28135
1.92044
1.58704
1.28586
1.01974
0.78921
0.593297
0.42982
0.294986
0.185043
0.096787
0.0272836
4.87829
4.5837
4.24777
3.88129
3.49577
3.10249
2.71181
2.33263
1.97259
1.63741
1.33199
1.05978
0.822187
0.619203
0.449436
0.309418
0.195261
0.103306
0.0299247
4.87796
4.58544
4.25389
3.89353
3.51514
3.12914
2.74504
2.37095
2.01387
1.67911
1.37147
1.09471
0.850992
0.641353
0.465442
0.32041
0.202446
0.107554
0.0315444
4.87542
4.58101
4.25095
3.89491
3.52286
3.14425
2.7676
2.40005
2.04777
1.7154
1.40737
1.12748
0.878393
0.662174
0.479779
0.329389
0.207612
0.110229
0.0324743
4.87082
4.57181
4.24151
3.88887
3.52292
3.15208
2.78377
2.42407
2.07822
1.75006
1.44339
1.16174
0.907959
0.684934
0.495097
0.338181
0.211828
0.111894
0.0329293
4.86496
4.56025
4.22914
3.87972
3.52009
3.15757
2.79846
2.44778
2.1098
1.78747
1.48389
1.202
0.944391
0.714332
0.51557
0.349838
0.216776
0.113209
0.0330861
4.85995
4.54995
4.21823
3.87233
3.51942
3.16579
2.81662
2.47592
2.14703
1.8321
1.53345
1.25326
0.993424
0.756859
0.547901
0.370117
0.226084
0.115441
0.033003
4.85492
4.53993
4.20815
3.86648
3.52112
3.17728
2.83909
2.50959
2.19134
1.88577
1.59453
1.31907
1.06029
0.820072
0.602041
0.410185
0.249463
0.123894
0.0328372
4.84977
4.53037
4.19949
3.86315
3.52649
3.19361
2.86762
2.55072
2.2448
1.95076
1.66982
1.40292
1.15021
0.912333
0.691258
0.489289
0.310658
0.161348
0.0450546
4.84373
4.51843
4.18675
3.85389
3.52391
3.19988
2.88404
2.57787
2.28275
1.99921
1.72823
1.47061
1.22623
0.995193
0.778215
0.575357
0.387556
0.217638
0.06805
4.83424
4.49659
4.15781
3.82195
3.49199
3.17008
2.8577
2.55574
2.26514
1.9861
1.71945
1.46588
1.2253
0.997882
0.784462
0.584952
0.399687
0.229793
0.0748789
4.82213
4.46824
4.11887
3.7765
3.44297
3.11954
2.80699
2.50569
2.21623
1.93852
1.67326
1.42115
1.18213
0.956616
0.745838
0.550232
0.37088
0.209708
0.0668849
4.81154
4.4436
4.08516
3.7373
3.4008
3.07617
2.76365
2.46315
2.17499
1.8989
1.6355
1.38551
1.14894
0.926322
0.719082
0.527796
0.353663
0.198662
0.0629266
4.80349
4.42439
4.05857
3.70615
3.36716
3.04151
2.72899
2.42919
2.14221
1.86762
1.60602
1.35809
1.12388
0.903954
0.699807
0.51204
0.341869
0.191284
0.0603872
4.7972
4.40941
4.03788
3.68196
3.34108
3.0147
2.70224
2.40307
2.11711
1.84382
1.58376
1.33758
1.10533
0.887585
0.685852
0.500743
0.333482
0.186077
0.0586208
4.79261
4.39855
4.02299
3.66467
3.32255
2.99574
2.68342
2.38477
2.09961
1.82732
1.5684
1.32351
1.09267
0.876453
0.676386
0.493082
0.327781
0.182522
0.0574096
4.78918
4.39131
4.01363
3.65421
3.31164
2.9848
2.67274
2.37454
2.08996
1.81833
1.56014
1.31605
1.08606
0.870726
0.671593
0.489266
0.324987
0.180809
0.0568415
4.78919
4.39133
4.01365
3.65424
3.31167
2.98483
2.67277
2.37457
2.08998
1.81835
1.56017
1.31607
1.08607
0.870741
0.671606
0.489276
0.324994
0.180813
0.0568428
4.79263
4.3986
4.02305
3.66474
3.32263
2.99582
2.6835
2.38486
2.09969
1.82739
1.56847
1.32357
1.09273
0.876502
0.676428
0.493115
0.327805
0.182537
0.0574147
4.79723
4.40949
4.03798
3.68208
3.34121
3.01483
2.70237
2.4032
2.11723
1.84394
1.58386
1.33768
1.10542
0.887659
0.685914
0.500791
0.333516
0.186097
0.0586277
4.80353
4.42448
4.0587
3.7063
3.36732
3.04168
2.72916
2.42936
2.14237
1.86777
1.60615
1.35821
1.12398
0.904045
0.699881
0.512097
0.341909
0.191307
0.0603949
4.81158
4.44371
4.08532
3.73748
3.401
3.07638
2.76386
2.46336
2.17519
1.89908
1.63567
1.38565
1.14906
0.926426
0.719164
0.527857
0.353704
0.198685
0.0629338
4.82218
4.46837
4.11904
3.77671
3.4432
3.11978
2.80723
2.50593
2.21645
1.93872
1.67344
1.4213
1.18226
0.956716
0.74591
0.55028
0.370907
0.209718
0.0668856
4.83429
4.49673
4.15801
3.82218
3.49225
3.17035
2.85797
2.556
2.26538
1.98631
1.71963
1.46603
1.22541
0.997943
0.78448
0.584932
0.399642
0.229744
0.0748535
4.8438
4.51863
4.18707
3.85431
3.52441
3.20046
2.88467
2.57855
2.28347
1.99995
1.72899
1.47138
1.22701
0.995973
0.778992
0.576112
0.388245
0.218173
0.0682867
4.84985
4.53061
4.19987
3.86367
3.52713
3.19434
2.86845
2.55162
2.24577
1.95178
1.67088
1.40401
1.15131
0.913425
0.692306
0.490237
0.31143
0.16186
0.0452427
4.85498
4.54013
4.20848
3.86692
3.52167
3.17792
2.83981
2.51037
2.19217
1.88663
1.59542
1.31995
1.06116
0.820885
0.602757
0.410756
0.24985
0.124086
0.0328737
4.86
4.55013
4.21853
3.87274
3.51993
3.16639
2.8173
2.47665
2.1478
1.83289
1.53425
1.25404
0.994158
0.757512
0.548438
0.370511
0.22633
0.11556
0.033034
4.86501
4.56041
4.22941
3.8801
3.52056
3.15813
2.79909
2.44846
2.11051
1.7882
1.48461
1.20269
0.945015
0.714866
0.515991
0.350137
0.216963
0.113305
0.033114
4.87087
4.57195
4.24176
3.88922
3.52336
3.1526
2.78435
2.4247
2.07888
1.75072
1.44404
1.16235
0.908496
0.685382
0.495444
0.338428
0.211985
0.111979
0.0329553
4.87546
4.58113
4.25117
3.89523
3.52326
3.14473
2.76814
2.40063
2.04837
1.716
1.40795
1.12801
0.878861
0.66256
0.480078
0.329604
0.207753
0.110308
0.0324997
4.87799
4.58554
4.25409
3.89381
3.5155
3.12957
2.74553
2.37147
2.01442
1.67965
1.37198
1.09518
0.851404
0.641693
0.465707
0.320604
0.202578
0.10763
0.0315704
4.87831
4.5838
4.24794
3.88153
3.49609
3.10288
2.71226
2.3331
1.97308
1.63789
1.33245
1.0602
0.822553
0.619508
0.449677
0.3096
0.195389
0.103384
0.0299535
4.87538
4.5737
4.22971
3.85478
3.46109
3.06061
2.66436
2.28177
1.92087
1.58747
1.28627
1.02011
0.789539
0.593574
0.430045
0.295162
0.185173
0.0968722
0.027318
4.86917
4.55552
4.19995
3.81433
3.41144
3.00386
2.60307
2.21877
1.85905
1.52948
1.2343
0.975518
0.752753
0.56417
0.407047
0.277458
0.171983
0.0880184
0.0235492
4.86344
4.54099
4.17876
3.78871
3.38366
2.97618
2.57759
2.19739
1.84334
1.52054
1.23258
0.98075
0.76403
0.580088
0.4259
0.297449
0.191112
0.103624
0.0313437
4.85971
4.53351
4.17089
3.78344
3.38351
2.98306
2.59278
2.22152
1.87642
1.56197
1.28121
1.03496
0.821786
0.639128
0.483801
0.351523
0.238003
0.138608
0.0470895
4.85606
4.52594
4.1626
3.77744
3.38236
2.9887
2.60648
2.24382
1.9072
1.60048
1.32614
1.08456
0.873959
0.691523
0.533863
0.396398
0.274388
0.162771
0.0554896
4.85275
4.51872
4.15456
3.77157
3.3812
2.99416
2.61976
2.26539
1.93683
1.63729
1.36873
1.13109
0.922263
0.739209
0.578372
0.43502
0.304364
0.181656
0.0618049
4.84934
4.51117
4.14617
3.76537
3.37969
2.9992
2.63249
2.28622
1.96545
1.67274
1.40951
1.17531
0.967715
0.783505
0.619047
0.469627
0.33068
0.198018
0.0673581
4.8449
4.50251
4.13685
3.75834
3.37738
3.00344
2.6444
2.30615
1.99305
1.70697
1.44883
1.21777
1.01111
0.825467
0.657237
0.501842
0.355047
0.213212
0.0726207
4.84109
4.49524
4.12908
3.75275
3.37633
3.00875
2.65719
2.32677
2.0211
1.74139
1.48803
1.25981
1.05379
0.866499
0.6944
0.53311
0.37873
0.228088
0.0778641
4.83871
4.48974
4.12285
3.74845
3.37639
3.01505
2.67088
2.3482
2.04986
1.77639
1.52766
1.30211
1.09657
0.907519
0.731521
0.56439
0.402532
0.243165
0.0832565
4.83561
4.48262
4.11459
3.74202
3.37447
3.0197
2.68333
2.36878
2.07811
1.81114
1.56723
1.34449
1.13954
0.948835
0.769042
0.596167
0.426879
0.258728
0.0889022
4.83142
4.47357
4.10405
3.73339
3.37074
3.0231
2.69513
2.38927
2.10672
1.8466
1.60777
1.38801
1.18378
0.991493
0.807941
0.629291
0.452438
0.275215
0.0949718
4.82715
4.46379
4.09249
3.72398
3.36686
3.02709
2.70824
2.41167
2.1377
1.88474
1.65117
1.43448
1.23098
1.03705
0.849603
0.664935
0.480122
0.293233
0.101704
4.82227
4.45224
4.07919
3.71366
3.36321
3.03252
2.72382
2.43737
2.17256
1.92715
1.69905
1.48551
1.2827
1.087
0.895393
0.70429
0.510895
0.313449
0.109371
4.81484
4.43734
4.06353
3.7027
3.3608
3.04086
2.74367
2.46833
2.21337
1.97591
1.7535
1.54316
1.34094
1.1432
0.947025
0.748861
0.545982
0.33672
0.118337
4.80715
4.42339
4.0508
3.69689
3.36559
3.05806
2.77356
2.51008
2.26536
2.03597
1.81914
1.61173
1.40967
1.2093
1.00774
0.801429
0.587605
0.364569
0.129235
4.80101
4.41318
4.04468
3.70067
3.38246
3.08915
2.81855
2.5676
2.33339
2.11206
1.90057
1.69566
1.49315
1.2893
1.08125
0.86529
0.638502
0.398969
0.142923
4.7936
4.40495
4.04535
3.71557
3.41377
3.13699
2.88176
2.64424
2.42103
2.2079
2.00165
1.79892
1.59541
1.38722
1.17145
0.944082
0.701843
0.442303
0.160521
4.78822
4.40619
4.06206
3.75131
3.46911
3.21086
2.97222
2.74879
2.53686
2.33197
2.13077
1.92981
1.72459
1.51099
1.28588
1.04474
0.783586
0.499022
0.184141
4.79031
4.42604
4.10487
3.81787
3.5582
3.32031
3.0994
2.8908
2.69063
2.49423
2.29813
2.09877
1.89133
1.67129
1.43509
1.1773
0.892721
0.576177
0.217367
4.80239
4.46881
4.17848
3.92012
3.68619
3.47095
3.26956
3.07729
2.89021
2.70352
2.51359
2.31667
2.10746
1.88081
1.63237
1.35519
1.04198
0.684406
0.266262
4.82701
4.53747
4.28567
4.06094
3.85647
3.66696
3.48793
3.31475
3.14356
2.9694
2.78847
2.59674
2.38821
2.15672
1.89662
1.59854
1.2516
0.841829
0.342633
4.86347
4.62978
4.42373
4.23799
4.06758
3.90818
3.75592
3.60646
3.4561
3.29981
3.13358
2.95309
2.75138
2.52086
2.25388
1.93724
1.55409
1.08046
0.471287
4.90725
4.738
4.58427
4.44341
4.3128
4.18938
4.07012
3.9512
3.8293
3.69952
3.55782
3.39964
3.21706
3.00079
2.74044
2.41716
2.00449
1.46105
0.709358
4.95147
4.85094
4.75515
4.66547
4.58134
4.50105
4.42263
4.34312
4.26004
4.16914
4.06689
3.94906
3.80744
3.63163
3.40841
3.11202
2.702
2.10836
1.19852
4.98879
4.95654
4.92324
4.89115
4.86071
4.8314
4.80253
4.77269
4.74085
4.70468
4.66236
4.61147
4.54626
4.4585
4.33515
4.1468
3.83834
3.29952
2.30953
)
;

boundaryField
{
    up
    {
        type            fixedValue;
        value           uniform 0;
    }
    low
    {
        type            fixedValue;
        value           uniform 5;
    }
    left
    {
        type            fixedValue;
        value           uniform 5;
    }
    right
    {
        type            fixedValue;
        value           uniform 5;
    }
    frontAndBackPlanes
    {
        type            empty;
    }
}


// ************************************************************************* //
