/*--------------------------------*- C++ -*----------------------------------*\
  =========                 |
  \\      /  F ield         | OpenFOAM: The Open Source CFD Toolbox
   \\    /   O peration     | Website:  https://openfoam.org
    \\  /    A nd           | Version:  7
     \\/     M anipulation  |
\*---------------------------------------------------------------------------*/
FoamFile
{
    version     2.0;
    format      ascii;
    class       volScalarField;
    location    "0.19";
    object      gradTx;
}
// * * * * * * * * * * * * * * * * * * * * * * * * * * * * * * * * * * * * * //

dimensions      [0 -1 0 1 0 0 0];

internalField   nonuniform List<scalar> 
1596
(
-0.100617
-0.504574
-0.901669
-1.25611
-1.56416
-1.82396
-2.0476
-2.24295
-2.42127
-2.6038
-2.79732
-3.02754
-3.32395
-3.72809
-4.28794
-5.12116
-6.40762
-8.53483
-12.3043
0.0225322
-0.418801
-0.809747
-1.14485
-1.43101
-1.66924
-1.87057
-2.03904
-2.18321
-2.31451
-2.43523
-2.5598
-2.69446
-2.8479
-3.0172
-3.19529
-3.33255
-3.3263
-2.95739
0.123767
-0.339391
-0.716924
-1.0284
-1.28883
-1.50273
-1.67972
-1.82249
-1.93689
-2.02927
-2.09973
-2.15625
-2.19844
-2.22669
-2.23386
-2.20646
-2.10532
-1.8607
-1.33412
0.140877
-0.294734
-0.638192
-0.916701
-1.14665
-1.33409
-1.48655
-1.60619
-1.69672
-1.76151
-1.80013
-1.81667
-1.80921
-1.77601
-1.71128
-1.60427
-1.43034
-1.1484
-0.676709
0.0453624
-0.303501
-0.587457
-0.821428
-1.01556
-1.1744
-1.30255
-1.4015
-1.47331
-1.5193
-1.53921
-1.53461
-1.50363
-1.44418
-1.35253
-1.22122
-1.03617
-0.774532
-0.390007
-0.153828
-0.373028
-0.57563
-0.753837
-0.906598
-1.03426
-1.13772
-1.21736
-1.2737
-1.30651
-1.31578
-1.3013
-1.26151
-1.19433
-1.09754
-0.965852
-0.791674
-0.562572
-0.252901
-0.4182
-0.497654
-0.607631
-0.721949
-0.828429
-0.921958
-0.999491
-1.05979
-1.10186
-1.12421
-1.12681
-1.10821
-1.06698
-1.00103
-0.908941
-0.786669
-0.630203
-0.432749
-0.180233
-0.694365
-0.653563
-0.674186
-0.723127
-0.781325
-0.838927
-0.889482
-0.929884
-0.957743
-0.970499
-0.967829
-0.947405
-0.907788
-0.846769
-0.763229
-0.653767
-0.516196
-0.346655
-0.13741
-0.979706
-0.85477
-0.796609
-0.78011
-0.786361
-0.803355
-0.822557
-0.839201
-0.849684
-0.850543
-0.840894
-0.817784
-0.77952
-0.723674
-0.649044
-0.552457
-0.43244
-0.286479
-0.110066
-1.15101
-0.996066
-0.891846
-0.828701
-0.793919
-0.776804
-0.768729
-0.76413
-0.758741
-0.748593
-0.732283
-0.70657
-0.669531
-0.618631
-0.552519
-0.468198
-0.364451
-0.239435
-0.0903197
-1.29141
-1.12444
-0.992852
-0.895328
-0.825976
-0.777424
-0.742576
-0.716074
-0.693561
-0.670928
-0.646351
-0.616475
-0.579146
-0.531719
-0.472612
-0.398882
-0.30926
-0.202117
-0.0754218
-1.43567
-1.26834
-1.11987
-0.995443
-0.895114
-0.815635
-0.752525
-0.701576
-0.658965
-0.620793
-0.585
-0.548211
-0.508042
-0.461702
-0.407323
-0.341916
-0.263978
-0.171821
-0.0636601
-1.47784
-1.33301
-1.18839
-1.0556
-0.939666
-0.841237
-0.75868
-0.689526
-0.631021
-0.579934
-0.534351
-0.491149
-0.447925
-0.401921
-0.351124
-0.292601
-0.224679
-0.145606
-0.0536696
-1.49181
-1.37126
-1.23842
-1.10603
-0.982198
-0.870885
-0.773184
-0.688632
-0.615853
-0.552562
-0.497256
-0.447208
-0.400119
-0.353321
-0.304717
-0.251433
-0.19164
-0.1235
-0.0452919
-1.49444
-1.39574
-1.2772
-1.15011
-1.02362
-0.90398
-0.794611
-0.697065
-0.611492
-0.536724
-0.471877
-0.414717
-0.363142
-0.314622
-0.267017
-0.217513
-0.164144
-0.104985
-0.038257
-1.46385
-1.38869
-1.28751
-1.17084
-1.04783
-0.925957
-0.810307
-0.704178
-0.609208
-0.525411
-0.452674
-0.389363
-0.333682
-0.283313
-0.236151
-0.189478
-0.141248
-0.0894794
-0.0323438
-1.39791
-1.34537
-1.2634
-1.1611
-1.04695
-0.928761
-0.812579
-0.702992
-0.602915
-0.513484
-0.435415
-0.367737
-0.309056
-0.257339
-0.210596
-0.166248
-0.122237
-0.0765755
-0.0274166
-1.31858
-1.28072
-1.21583
-1.1287
-1.02601
-0.915126
-0.802433
-0.693318
-0.591675
-0.499605
-0.418601
-0.348352
-0.287898
-0.235524
-0.189401
-0.147104
-0.106614
-0.0659755
-0.023368
-1.2522
-1.22605
-1.17413
-1.09915
-1.00613
-0.901754
-0.792486
-0.684255
-0.581726
-0.4878
-0.404626
-0.332464
-0.27072
-0.217943
-0.172421
-0.131836
-0.094179
-0.0575335
-0.0201291
-1.131
-1.1207
-1.08431
-1.02487
-0.946263
-0.854135
-0.754498
-0.653298
-0.555584
-0.464805
-0.383644
-0.312903
-0.252392
-0.200991
-0.157185
-0.118809
-0.0839147
-0.0506753
-0.0174961
-0.994476
-0.996698
-0.974386
-0.929854
-0.86608
-0.787706
-0.700068
-0.608801
-0.519005
-0.434408
-0.358016
-0.291046
-0.233655
-0.185045
-0.143914
-0.108249
-0.0761054
-0.0456633
-0.0155473
-0.850146
-0.860309
-0.849597
-0.818663
-0.769408
-0.70544
-0.631315
-0.552131
-0.472771
-0.396985
-0.327866
-0.26689
-0.21446
-0.170079
-0.132691
-0.100459
-0.0713739
-0.0433317
-0.0147423
-0.688138
-0.70202
-0.700684
-0.682763
-0.648753
-0.600984
-0.543016
-0.479117
-0.413677
-0.350194
-0.291591
-0.239443
-0.194287
-0.155924
-0.123641
-0.0959527
-0.0708897
-0.045833
-0.0175934
-0.503586
-0.496468
-0.478236
-0.44923
-0.411482
-0.367884
-0.321742
-0.276056
-0.233398
-0.195347
-0.162643
-0.135241
-0.112478
-0.093542
-0.0776123
-0.0637136
-0.050519
-0.0358257
-0.0159533
-0.336546
-0.372721
-0.409221
-0.438572
-0.455846
-0.458458
-0.446524
-0.421996
-0.388369
-0.349424
-0.308482
-0.268356
-0.230583
-0.196417
-0.16661
-0.141485
-0.120366
-0.101615
-0.0816156
-0.113326
-0.128967
-0.148747
-0.168571
-0.185373
-0.197041
-0.202867
-0.202962
-0.198483
-0.190826
-0.180921
-0.169806
-0.157467
-0.144236
-0.130603
-0.117777
-0.106443
-0.0973641
-0.0903114
0.110359
0.0913737
0.0636991
0.0310872
-0.00281209
-0.0349314
-0.0632758
-0.0867836
-0.105497
-0.120003
-0.130609
-0.137788
-0.141017
-0.140099
-0.135243
-0.128026
-0.119918
-0.112665
-0.106792
0.332946
0.307012
0.268718
0.222202
0.171574
0.120526
0.0718701
0.0273703
-0.0123248
-0.0473183
-0.077588
-0.103175
-0.123031
-0.13611
-0.141755
-0.141302
-0.136746
-0.130934
-0.125332
0.532986
0.495616
0.444373
0.384037
0.318843
0.252613
0.188324
0.127847
0.0719754
0.0206575
-0.0261079
-0.0682623
-0.104418
-0.132563
-0.150544
-0.158533
-0.158313
-0.153808
-0.147881
0.738597
0.686768
0.620708
0.545365
0.465121
0.383929
0.304816
0.229597
0.159025
0.0928864
0.0309041
-0.0271994
-0.0802124
-0.125547
-0.159301
-0.179464
-0.186156
-0.18373
-0.176969
0.891461
0.823245
0.743012
0.655512
0.564989
0.47496
0.387893
0.305035
0.226714
0.152295
0.0810255
0.0119346
-0.0545689
-0.116213
-0.16786
-0.204702
-0.222957
-0.225035
-0.216833
1.03238
0.950348
0.856406
0.757157
0.657061
0.559201
0.465487
0.376626
0.292574
0.212344
0.134775
0.0580742
-0.0187217
-0.0950026
-0.166204
-0.226007
-0.26529
-0.280396
-0.274711
1.16045
1.0603
0.951761
0.841497
0.733433
0.629836
0.531876
0.439661
0.352825
0.270157
0.190349
0.111131
0.0302474
-0.0541967
-0.14059
-0.225115
-0.295993
-0.341118
-0.34856
1.24
1.11258
0.982205
0.85473
0.733071
0.618534
0.511534
0.411698
0.318407
0.230389
0.146281
0.0637947
-0.0199206
-0.108736
-0.205226
-0.312047
-0.423917
-0.530589
-0.612708
1.28581
1.14748
1.01621
0.895458
0.785474
0.685448
0.594171
0.510332
0.432802
0.360453
0.292452
0.227752
0.165099
0.102531
0.0373809
-0.0358473
-0.12226
-0.227626
-0.353748
1.31715
1.17514
1.04883
0.936631
0.83604
0.744955
0.661524
0.584334
0.512392
0.44486
0.381327
0.321529
0.265192
0.212261
0.162926
0.11681
0.0732735
0.0301644
-0.0166369
1.24023
1.07851
0.940821
0.821764
0.717337
0.624736
0.541696
0.466511
0.397924
0.334811
0.276503
0.22252
0.172392
0.125978
0.0835612
0.0454805
0.0124742
-0.0144872
-0.0349713
1.08371
0.937814
0.815368
0.710754
0.619972
0.540169
0.469115
0.40513
0.347013
0.293739
0.244704
0.199493
0.157686
0.119092
0.0837561
0.05164
0.0228161
-0.00250496
-0.0243977
0.896767
0.775224
0.672775
0.58542
0.509964
0.443964
0.385489
0.333059
0.285625
0.242288
0.202511
0.165905
0.132064
0.10075
0.0719122
0.0454286
0.0212931
-0.00032624
-0.0194702
0.67306
0.57981
0.50192
0.436075
0.379613
0.330507
0.287192
0.248481
0.213544
0.181673
0.152444
0.125545
0.100646
0.0775466
0.0561967
0.0365006
0.0184683
0.00226049
-0.0121235
0.422923
0.360798
0.310542
0.268881
0.233584
0.203112
0.176364
0.152533
0.131069
0.111511
0.0935789
0.0770647
0.0617493
0.0474964
0.0342662
0.0219952
0.0106928
0.00047732
-0.00862794
0.16209
0.136869
0.117219
0.10116
0.0876105
0.0759216
0.0656656
0.0565418
0.048346
0.0409068
0.0341139
0.0278809
0.0221153
0.0167525
0.0117604
0.00709955
0.00275696
-0.00123683
-0.00487684
-0.162012
-0.136694
-0.116978
-0.100874
-0.0872973
-0.0755936
-0.0653334
-0.0562141
-0.0480302
-0.0406092
-0.0338399
-0.027635
-0.0219015
-0.0165742
-0.0116203
-0.00699977
-0.00269884
0.00125316
0.0048521
-0.422849
-0.360643
-0.31033
-0.268631
-0.23331
-0.202827
-0.176077
-0.152253
-0.130803
-0.111264
-0.0933553
-0.0768693
-0.061586
-0.0473682
-0.0341756
-0.0219441
-0.0106823
-0.000507075
0.00855915
-0.672986
-0.579659
-0.501712
-0.435826
-0.379337
-0.330215
-0.286895
-0.248187
-0.213259
-0.181404
-0.152195
-0.125321
-0.100449
-0.0773794
-0.0560603
-0.0363955
-0.0183939
-0.00221513
0.012142
-0.896711
-0.775116
-0.672628
-0.585245
-0.509771
-0.443761
-0.385285
-0.33286
-0.285436
-0.242115
-0.202358
-0.165776
-0.131961
-0.100674
-0.0718642
-0.0454083
-0.0212994
0.000295236
0.0194169
-1.08367
-0.937742
-0.815266
-0.710628
-0.619829
-0.540016
-0.46896
-0.404978
-0.34687
-0.293609
-0.244592
-0.199402
-0.157618
-0.119048
-0.0837371
-0.0516437
-0.0228393
0.00246742
0.0243523
-1.24022
-1.07849
-0.940774
-0.821696
-0.717255
-0.624647
-0.541607
-0.466429
-0.397853
-0.334757
-0.27647
-0.222512
-0.172412
-0.126028
-0.0836423
-0.0455881
-0.0125971
0.0143686
0.0348794
-1.31715
-1.17503
-1.04857
-0.936222
-0.835485
-0.744269
-0.660724
-0.583443
-0.51143
-0.443846
-0.380275
-0.320452
-0.264095
-0.211148
-0.161805
-0.115707
-0.0722502
-0.0293559
0.0170082
-1.28604
-1.14809
-1.0172
-0.896821
-0.78718
-0.68746
-0.596445
-0.512828
-0.43548
-0.363282
-0.295414
-0.230846
-0.168344
-0.10598
-0.0411176
0.0316971
0.117582
0.222386
0.348107
-1.2399
-1.11232
-0.981755
-0.854099
-0.732274
-0.617594
-0.510477
-0.410552
-0.317198
-0.229143
-0.14502
-0.0625393
0.0211512
0.109929
0.206395
0.313255
0.425329
0.532481
0.615446
-1.16052
-1.06048
-0.952036
-0.841845
-0.733836
-0.630281
-0.532349
-0.440151
-0.353325
-0.270661
-0.190857
-0.111642
-0.0307578
0.0537048
0.140163
0.224836
0.29596
0.341391
0.349053
-1.03243
-0.950462
-0.856579
-0.757377
-0.657318
-0.559485
-0.46579
-0.376941
-0.292896
-0.212667
-0.135096
-0.0583855
0.0184352
0.0947719
0.166076
0.226036
0.265501
0.280754
0.275141
-0.89151
-0.823362
-0.743191
-0.655741
-0.565258
-0.475256
-0.388206
-0.305355
-0.227032
-0.152603
-0.0813143
-0.0121929
0.0543603
0.116082
0.167836
0.204803
0.223169
0.225314
0.217129
-0.738645
-0.686886
-0.62089
-0.545603
-0.465402
-0.384238
-0.305139
-0.229921
-0.159337
-0.0931776
-0.0311628
0.0269863
0.0800615
0.125476
0.159323
0.179574
0.186332
0.183941
0.17719
-0.533028
-0.495727
-0.444549
-0.384268
-0.319115
-0.25291
-0.188631
-0.128148
-0.0722577
-0.0209098
0.0258962
0.0681021
0.104321
0.132537
0.150589
0.158639
0.158459
0.153975
0.148056
-0.332993
-0.30713
-0.268904
-0.222445
-0.171857
-0.120832
-0.0721787
-0.0276652
0.0120576
0.0470904
0.077408
0.10305
0.122968
0.136108
0.141809
0.141398
0.13687
0.131073
0.125481
-0.1104
-0.0914867
-0.0638804
-0.0313243
0.00253729
0.0346396
0.0629877
0.0865168
0.105265
0.119816
0.130473
0.137705
0.140988
0.14012
0.135305
0.128119
0.12003
0.112791
0.106929
0.113229
0.128675
0.148257
0.167905
0.184574
0.196165
0.201972
0.202099
0.197694
0.190138
0.180347
0.169351
0.157125
0.143993
0.130441
0.117679
0.106397
0.0973719
0.0903952
0.336611
0.372972
0.409697
0.439277
0.456756
0.459525
0.447688
0.423194
0.389546
0.350535
0.309498
0.269262
0.231376
0.197105
0.167205
0.142006
0.120828
0.102033
0.0819957
0.503512
0.496209
0.477791
0.448625
0.41076
0.367098
0.320942
0.275287
0.232691
0.194724
0.162111
0.134802
0.112125
0.0932655
0.0774012
0.0635573
0.0504086
0.0357556
0.0159248
0.688177
0.7021
0.700804
0.682915
0.648921
0.601155
0.543176
0.479256
0.413791
0.35028
0.291651
0.239481
0.194309
0.155934
0.123644
0.0959513
0.0708861
0.0458295
0.0175923
0.850152
0.860317
0.849607
0.818674
0.769418
0.705449
0.63132
0.552132
0.472768
0.396978
0.327857
0.266879
0.214448
0.170069
0.132682
0.100452
0.0713689
0.043329
0.014742
0.994481
0.996705
0.974394
0.929862
0.866087
0.787711
0.70007
0.6088
0.519
0.434401
0.358007
0.291037
0.233646
0.185037
0.143908
0.108245
0.0761026
0.045662
0.0155471
1.131
1.12071
1.08432
1.02488
0.946267
0.854138
0.754498
0.653295
0.555579
0.464798
0.383636
0.312896
0.252386
0.200986
0.157181
0.118807
0.0839131
0.0506745
0.0174959
1.2522
1.22606
1.17414
1.09916
1.00613
0.901757
0.792486
0.684253
0.581722
0.487794
0.40462
0.332458
0.270716
0.217939
0.172419
0.131834
0.0941779
0.0575328
0.0201289
1.31859
1.28073
1.21583
1.1287
1.02601
0.915128
0.802432
0.693316
0.591671
0.4996
0.418596
0.348347
0.287894
0.235521
0.189399
0.147103
0.106613
0.0659746
0.0233677
1.39791
1.34537
1.2634
1.16111
1.04695
0.928761
0.812578
0.702989
0.602911
0.51348
0.435411
0.367733
0.309053
0.257336
0.210594
0.166246
0.122236
0.0765743
0.0274163
1.46385
1.3887
1.28751
1.17084
1.04783
0.925959
0.810307
0.704176
0.609205
0.525407
0.452671
0.389359
0.333679
0.28331
0.236148
0.189475
0.141245
0.0894778
0.0323434
1.49444
1.39575
1.27721
1.15011
1.02362
0.90398
0.794609
0.697062
0.611489
0.53672
0.471873
0.414713
0.363138
0.314619
0.267013
0.217509
0.164141
0.104983
0.0382566
1.49181
1.37126
1.23843
1.10603
0.982199
0.870885
0.773183
0.68863
0.61585
0.552558
0.497252
0.447204
0.400114
0.353317
0.304712
0.251429
0.191636
0.123498
0.0452916
1.47784
1.33302
1.1884
1.0556
0.939669
0.841237
0.758679
0.689524
0.631019
0.579931
0.534347
0.491144
0.44792
0.401916
0.351119
0.292597
0.224676
0.145605
0.0536697
1.43567
1.26834
1.11987
0.99544
0.89511
0.81563
0.752519
0.701571
0.65896
0.620788
0.584994
0.548205
0.508035
0.461696
0.407317
0.341911
0.263975
0.17182
0.0636605
1.29142
1.12445
0.992856
0.89533
0.825976
0.777423
0.742574
0.716071
0.693558
0.670924
0.646345
0.616469
0.57914
0.531714
0.472608
0.39888
0.309259
0.202117
0.0754227
1.15103
0.996074
0.89185
0.828702
0.793919
0.776803
0.768726
0.764127
0.758738
0.748589
0.732278
0.706565
0.669526
0.618627
0.552517
0.468197
0.364452
0.239437
0.0903208
0.979716
0.854776
0.796611
0.78011
0.78636
0.803353
0.822555
0.839198
0.849681
0.850539
0.84089
0.81778
0.779516
0.723673
0.649044
0.55246
0.432443
0.286482
0.110067
0.694372
0.653566
0.674187
0.723127
0.781325
0.838926
0.88948
0.929882
0.95774
0.970495
0.967826
0.947402
0.907787
0.84677
0.763232
0.653771
0.5162
0.346658
0.13741
0.418207
0.497657
0.607633
0.721951
0.82843
0.921959
0.999491
1.05979
1.10186
1.12421
1.12681
1.10821
1.06698
1.00104
0.908946
0.786675
0.630208
0.432752
0.180233
0.153833
0.373032
0.575633
0.75384
0.9066
1.03426
1.13772
1.21736
1.27369
1.30651
1.31578
1.3013
1.26151
1.19433
1.09754
0.965858
0.791678
0.562573
0.2529
-0.04536
0.303505
0.58746
0.821431
1.01556
1.1744
1.30255
1.4015
1.47331
1.5193
1.53921
1.53461
1.50364
1.44418
1.35254
1.22123
1.03617
0.774532
0.390006
-0.140877
0.294737
0.638194
0.916703
1.14665
1.33409
1.48656
1.60619
1.69672
1.76152
1.80014
1.81667
1.80922
1.77602
1.71128
1.60427
1.43034
1.1484
0.676707
-0.123768
0.339392
0.716924
1.0284
1.28882
1.50273
1.67972
1.82249
1.93689
2.02927
2.09974
2.15626
2.19844
2.2267
2.23386
2.20645
2.10531
1.86069
1.33412
-0.0225322
0.418801
0.809746
1.14485
1.43101
1.66924
1.87057
2.03904
2.18321
2.31452
2.43524
2.5598
2.69446
2.8479
3.0172
3.19528
3.33254
3.32629
2.95739
0.100618
0.504574
0.901669
1.25611
1.56415
1.82396
2.0476
2.24296
2.42127
2.6038
2.79733
3.02754
3.32395
3.72809
4.28793
5.12116
6.40761
8.53483
12.3043
)
;

boundaryField
{
    up
    {
        type            calculated;
        value           nonuniform List<scalar> 
84
(
-12.3043
-2.95739
-1.33412
-0.676709
-0.390007
-0.252901
-0.180233
-0.13741
-0.110066
-0.0903197
-0.0754218
-0.0636601
-0.0536696
-0.0452919
-0.038257
-0.0323438
-0.0274166
-0.023368
-0.0201291
-0.0174961
-0.0155473
-0.0147423
-0.0175934
-0.0159533
-0.0693919
-0.0837869
-0.099948
-0.117505
-0.138539
-0.16541
-0.201523
-0.250814
-0.310871
-0.601721
-0.364245
-0.017249
-0.0348468
-0.0243071
-0.019419
-0.0121045
-0.00862105
-0.00487673
0.004852
0.00855241
0.0121231
0.019366
0.0242622
0.0347553
0.017611
0.358477
0.604943
0.311317
0.251186
0.201793
0.165617
0.138706
0.117648
0.100084
0.0839048
0.0697335
0.0159248
0.0175923
0.014742
0.0155471
0.0174959
0.0201289
0.0233677
0.0274163
0.0323434
0.0382566
0.0452916
0.0536697
0.0636605
0.0754227
0.0903208
0.110067
0.13741
0.180233
0.2529
0.390006
0.676707
1.33412
2.95739
12.3043
)
;
    }
    low
    {
        type            calculated;
        value           nonuniform List<scalar> 
84
(
-0.0906184
0.0377163
0.14824
0.167424
0.0620174
-0.156903
-0.443457
-0.736712
-1.02864
-1.19125
-1.32683
-1.46437
-1.49048
-1.49467
-1.49122
-1.45152
-1.3777
-1.2963
-1.22485
-1.09422
-0.952961
-0.807488
-0.646228
-0.466697
-0.307621
-0.102869
0.0984493
0.303406
0.49526
0.701168
0.861178
1.00814
1.14479
1.23534
1.28982
1.33131
1.26493
1.10994
0.920056
0.691532
0.435129
0.167187
-0.167108
-0.435053
-0.691453
-0.919992
-1.10989
-1.26492
-1.33129
-1.29001
-1.23525
-1.14485
-1.00818
-0.861224
-0.701216
-0.495304
-0.303455
-0.098491
0.102775
0.307685
0.466628
0.646262
0.807494
0.952965
1.09423
1.22486
1.2963
1.3777
1.45152
1.49122
1.49468
1.49049
1.46436
1.32683
1.19126
1.02865
0.736719
0.443464
0.156908
-0.0620151
-0.167424
-0.148242
-0.0377179
0.0906189
)
;
    }
    left
    {
        type            calculated;
        value           nonuniform List<scalar> 
19
(
-0.0894424
-0.48482
-0.89026
-1.25719
-1.57868
-1.8507
-2.08619
-2.29433
-2.48629
-2.68849
-2.90758
-3.17223
-3.52065
-4.00793
-4.69409
-5.74421
-7.40781
-10.2263
-10.6715
)
;
    }
    right
    {
        type            calculated;
        value           nonuniform List<scalar> 
19
(
0.0894433
0.484822
0.890261
1.25719
1.57868
1.8507
2.08619
2.29434
2.48629
2.68849
2.90758
3.17223
3.52064
4.00793
4.69408
5.74421
7.4078
10.2263
10.6715
)
;
    }
    frontAndBackPlanes
    {
        type            empty;
    }
}


// ************************************************************************* //
