/*--------------------------------*- C++ -*----------------------------------*\
  =========                 |
  \\      /  F ield         | OpenFOAM: The Open Source CFD Toolbox
   \\    /   O peration     | Website:  https://openfoam.org
    \\  /    A nd           | Version:  7
     \\/     M anipulation  |
\*---------------------------------------------------------------------------*/
FoamFile
{
    version     2.0;
    format      ascii;
    class       volScalarField;
    location    "0.339";
    object      gradTy;
}
// * * * * * * * * * * * * * * * * * * * * * * * * * * * * * * * * * * * * * //

dimensions      [0 -1 0 1 0 0 0];

internalField   nonuniform List<scalar> 
1596
(
-0.149993
-0.279837
-0.388877
-0.497222
-0.605805
-0.728491
-0.860659
-1.01847
-1.20923
-1.43836
-1.75054
-2.14702
-2.69083
-3.458
-4.6393
-6.47129
-9.73149
-15.7362
-37.1748
-0.457582
-0.567795
-0.648218
-0.728002
-0.810849
-0.911475
-1.02568
-1.16779
-1.34419
-1.55646
-1.84113
-2.19513
-2.66028
-3.27121
-4.12546
-5.27379
-6.97513
-9.47277
-16.5615
-0.820051
-0.861872
-0.894996
-0.93819
-0.990755
-1.06488
-1.15523
-1.27384
-1.42508
-1.60781
-1.85135
-2.14847
-2.52758
-3.00474
-3.63876
-4.4388
-5.5452
-7.06134
-10.3196
-1.20113
-1.14902
-1.12425
-1.12565
-1.14476
-1.18917
-1.25194
-1.34243
-1.46304
-1.61089
-1.80929
-2.04877
-2.3489
-2.71621
-3.1876
-3.75626
-4.50424
-5.47524
-7.14387
-1.55393
-1.41275
-1.33071
-1.28975
-1.27469
-1.28815
-1.32188
-1.38255
-1.471
-1.58343
-1.73823
-1.92544
-2.15877
-2.44004
-2.79333
-3.20674
-3.73126
-4.38376
-5.33891
-1.83557
-1.63705
-1.50962
-1.43102
-1.38396
-1.36741
-1.37269
-1.40403
-1.46126
-1.5403
-1.65551
-1.79754
-1.97612
-2.19087
-2.45792
-2.76481
-3.14459
-3.60183
-4.20381
-2.02216
-1.80932
-1.65643
-1.54979
-1.47587
-1.43233
-1.41135
-1.41535
-1.44368
-1.49244
-1.57269
-1.67633
-1.81028
-1.97319
-2.17609
-2.40759
-2.68967
-3.02135
-3.42965
-2.11258
-1.92172
-1.76572
-1.64409
-1.55106
-1.48552
-1.44188
-1.42159
-1.42408
-1.44598
-1.49579
-1.56686
-1.66412
-1.78593
-1.93986
-2.11614
-2.32953
-2.57677
-2.86872
-2.12391
-1.98229
-1.84279
-1.71933
-1.61558
-1.53371
-1.47136
-1.43004
-1.40971
-1.40787
-1.43109
-1.47422
-1.54078
-1.62915
-1.74453
-1.87871
-2.04158
-2.22904
-2.44501
-2.07091
-1.98283
-1.87307
-1.76071
-1.65629
-1.56578
-1.49044
-1.4327
-1.39355
-1.37155
-1.37207
-1.39137
-1.43212
-1.4929
-1.57739
-1.67878
-1.80378
-1.94814
-2.11259
-2.00256
-1.95329
-1.874
-1.77911
-1.68105
-1.58819
-1.50491
-1.43497
-1.38062
-1.34166
-1.32285
-1.32172
-1.3405
-1.37808
-1.43716
-1.51209
-1.60743
-1.71906
-1.84618
-1.91638
-1.90722
-1.85799
-1.7831
-1.69549
-1.60471
-1.51741
-1.43869
-1.37211
-1.31879
-1.28327
-1.26434
-1.26402
-1.28161
-1.3192
-1.37212
-1.44345
-1.52939
-1.62841
-1.80883
-1.83557
-1.816
-1.76313
-1.68951
-1.60518
-1.51814
-1.43464
-1.35944
-1.29488
-1.24569
-1.21176
-1.19521
-1.19583
-1.21541
-1.25014
-1.30222
-1.36816
-1.4461
-1.71163
-1.75934
-1.76353
-1.73116
-1.67233
-1.59657
-1.51241
-1.42688
-1.34573
-1.27236
-1.2119
-1.16521
-1.13472
-1.12068
-1.12485
-1.14417
-1.18026
-1.23
-1.29141
-1.62053
-1.68474
-1.7075
-1.69281
-1.64806
-1.58163
-1.50185
-1.41619
-1.33109
-1.25084
-1.18104
-1.12343
-1.08083
-1.05402
-1.04484
-1.0509
-1.07353
-1.10995
-1.15819
-1.53084
-1.6104
-1.6489
-1.64947
-1.61768
-1.56064
-1.48615
-1.40176
-1.31433
-1.22888
-1.15143
-1.08455
-1.03146
-0.993486
-0.972699
-0.967305
-0.978531
-1.00392
-1.04161
-1.44899
-1.53881
-1.59006
-1.60364
-1.58339
-1.53526
-1.46635
-1.38408
-1.29552
-1.20619
-1.12253
-1.04776
-0.985562
-0.937779
-0.906784
-0.891375
-0.892821
-0.908998
-0.938124
-1.37676
-1.47328
-1.5345
-1.55893
-1.5487
-1.50863
-1.44509
-1.36524
-1.27622
-1.18389
-1.09503
-1.01343
-0.943157
-0.88656
-0.846352
-0.821924
-0.81473
-0.823002
-0.845071
-1.30507
-1.41328
-1.48459
-1.51887
-1.51763
-1.48481
-1.42622
-1.34869
-1.25939
-1.16447
-1.07094
-0.983093
-0.905342
-0.840455
-0.791496
-0.758452
-0.743129
-0.744231
-0.760268
-1.23236
-1.35355
-1.43581
-1.47985
-1.48716
-1.46125
-1.40748
-1.33244
-1.24328
-1.14636
-1.04888
-0.95553
-0.871006
-0.7984
-0.741062
-0.699531
-0.676168
-0.670419
-0.681221
-1.1703
-1.29964
-1.39181
-1.44514
-1.4605
-1.44101
-1.39174
-1.3191
-1.2302
-1.13157
-1.03058
-0.932244
-0.841461
-0.761515
-0.695877
-0.645433
-0.613198
-0.599802
-0.605369
-1.11591
-1.25265
-1.35372
-1.41579
-1.43878
-1.42537
-1.38035
-1.31002
-1.22147
-1.12137
-1.01723
-0.914335
-0.817753
-0.730844
-0.656966
-0.596882
-0.55391
-0.530159
-0.528696
-1.06671
-1.21196
-1.3218
-1.39222
-1.42248
-1.41486
-1.37393
-1.30591
-1.21788
-1.1166
-1.00969
-0.902646
-0.80075
-0.707425
-0.62574
-0.555672
-0.499591
-0.459624
-0.444054
-1.02394
-1.17802
-1.29607
-1.37356
-1.40951
-1.40585
-1.3673
-1.29999
-1.21107
-1.10755
-0.996667
-0.88467
-0.776944
-0.677211
-0.58817
-0.509124
-0.439449
-0.376467
-0.319088
-0.990284
-1.15267
-1.28011
-1.36743
-1.41371
-1.42036
-1.39206
-1.33421
-1.2535
-1.15673
-1.04994
-0.939833
-0.83149
-0.729574
-0.637003
-0.554194
-0.478703
-0.405379
-0.324496
-0.968055
-1.13533
-1.26744
-1.36018
-1.41278
-1.42649
-1.40575
-1.35548
-1.28174
-1.19084
-1.08759
-0.9785
-0.868432
-0.762699
-0.665244
-0.578894
-0.502803
-0.435103
-0.370759
-0.969763
-1.13851
-1.27259
-1.36841
-1.42528
-1.44472
-1.43089
-1.38856
-1.32318
-1.24024
-1.14368
-1.03877
-0.929732
-0.82193
-0.72039
-0.629566
-0.550507
-0.482719
-0.422415
-0.998255
-1.16477
-1.29707
-1.39219
-1.44979
-1.47187
-1.46251
-1.42646
-1.36875
-1.29412
-1.20556
-1.10681
-1.00079
-0.892163
-0.786524
-0.689975
-0.605759
-0.534936
-0.474498
-1.05135
-1.21374
-1.34095
-1.43197
-1.48716
-1.50911
-1.50202
-1.47069
-1.41988
-1.35379
-1.27449
-1.18417
-1.08387
-0.976529
-0.867317
-0.763735
-0.67172
-0.594785
-0.530971
-1.12833
-1.28214
-1.40075
-1.48465
-1.5348
-1.55437
-1.54778
-1.51993
-1.47541
-1.41813
-1.3495
-1.27046
-1.17986
-1.07791
-0.967609
-0.856666
-0.753821
-0.666739
-0.595867
-1.22889
-1.36937
-1.47688
-1.55143
-1.59455
-1.60998
-1.60244
-1.57689
-1.53787
-1.48924
-1.43218
-1.36709
-1.29103
-1.20099
-1.09555
-0.979812
-0.863337
-0.759685
-0.675398
-1.34077
-1.46987
-1.56529
-1.62888
-1.66342
-1.67337
-1.66373
-1.63944
-1.60497
-1.56436
-1.51898
-1.46975
-1.41332
-1.3444
-1.25598
-1.14656
-1.01978
-0.891801
-0.781274
-1.47096
-1.58597
-1.66671
-1.71713
-1.74136
-1.74439
-1.7314
-1.70707
-1.67568
-1.64144
-1.60604
-1.57189
-1.53713
-1.49743
-1.44268
-1.36464
-1.25217
-1.10844
-0.940952
-1.6252
-1.72146
-1.78464
-1.82023
-1.83341
-1.8295
-1.81344
-1.78953
-1.76161
-1.73375
-1.70812
-1.6884
-1.67569
-1.67031
-1.66662
-1.65917
-1.63067
-1.56993
-1.4649
-1.80009
-1.87318
-1.91337
-1.929
-1.92608
-1.91003
-1.88499
-1.85469
-1.82215
-1.79031
-1.76127
-1.73773
-1.72177
-1.71605
-1.72183
-1.74267
-1.7756
-1.81686
-1.85846
-2.00068
-2.04058
-2.05217
-2.04474
-2.02396
-1.99472
-1.96017
-1.92343
-1.88684
-1.85229
-1.82195
-1.7971
-1.77932
-1.76986
-1.77031
-1.78222
-1.80825
-1.85102
-1.91444
-2.22447
-2.22158
-2.20192
-2.17157
-2.13425
-2.09346
-2.05127
-2.00999
-1.9713
-1.93641
-1.90704
-1.88361
-1.86691
-1.85689
-1.85354
-1.8552
-1.86122
-1.86919
-1.87758
-2.43566
-2.38972
-2.33915
-2.28607
-2.23211
-2.17915
-2.12827
-2.08082
-2.03778
-1.99976
-1.96773
-1.94169
-1.92176
-1.90749
-1.89843
-1.8932
-1.89121
-1.89106
-1.89196
-2.61344
-2.53398
-2.45782
-2.38542
-2.31713
-2.25357
-2.19502
-2.142
-2.0949
-2.05387
-2.01935
-1.99113
-1.96901
-1.95247
-1.94099
-1.93346
-1.92928
-1.92737
-1.92694
-2.75813
-2.65098
-2.55381
-2.46562
-2.38563
-2.31342
-2.24858
-2.19094
-2.14045
-2.09693
-2.06042
-2.03064
-2.00719
-1.98952
-1.97705
-1.96883
-1.96417
-1.96211
-1.96185
-2.86397
-2.73558
-2.62235
-2.52236
-2.43383
-2.3554
-2.28609
-2.2252
-2.17236
-2.12714
-2.08937
-2.05871
-2.03463
-2.01656
-2.00385
-1.9956
-1.99098
-1.98904
-1.98888
-2.93031
-2.78319
-2.6589
-2.55184
-2.45856
-2.37684
-2.30521
-2.24268
-2.18866
-2.14264
-2.10429
-2.07328
-2.04902
-2.03095
-2.01842
-2.01059
-2.00659
-2.0055
-2.00641
-2.93033
-2.78322
-2.65893
-2.55188
-2.4586
-2.37688
-2.30525
-2.24271
-2.1887
-2.14268
-2.10433
-2.07331
-2.04906
-2.03099
-2.01846
-2.01063
-2.00663
-2.00555
-2.00645
-2.864
-2.73564
-2.62243
-2.52245
-2.43392
-2.3555
-2.28619
-2.2253
-2.17246
-2.12725
-2.08948
-2.05881
-2.03474
-2.01667
-2.00396
-1.99573
-1.99112
-1.98919
-1.98905
-2.75817
-2.65108
-2.55394
-2.46576
-2.38578
-2.31358
-2.24874
-2.19111
-2.14062
-2.0971
-2.06059
-2.03081
-2.00737
-1.9897
-1.97724
-1.96903
-1.96438
-1.96234
-1.96208
-2.61349
-2.5341
-2.45798
-2.3856
-2.31733
-2.25378
-2.19523
-2.14221
-2.09512
-2.05409
-2.01957
-1.99135
-1.96923
-1.95269
-1.94121
-1.93368
-1.9295
-1.92759
-1.92716
-2.43572
-2.38985
-2.33933
-2.28628
-2.23234
-2.17939
-2.12852
-2.08108
-2.03804
-2.00003
-1.968
-1.94196
-1.92203
-1.90774
-1.89868
-1.89344
-1.89143
-1.89128
-1.89217
-2.22454
-2.22172
-2.20211
-2.17179
-2.13451
-2.09373
-2.05155
-2.01028
-1.9716
-1.93671
-1.90734
-1.88391
-1.8672
-1.85716
-1.85378
-1.85539
-1.86135
-1.86926
-1.87759
-2.00075
-2.04074
-2.0524
-2.04503
-2.0243
-1.99511
-1.9606
-1.9239
-1.88736
-1.85286
-1.82258
-1.79778
-1.78006
-1.77066
-1.77115
-1.78304
-1.80895
-1.85141
-1.91425
-1.80014
-1.87321
-1.9134
-1.92903
-1.92611
-1.91005
-1.885
-1.85466
-1.82209
-1.79018
-1.76107
-1.73742
-1.72131
-1.7154
-1.72096
-1.74161
-1.77454
-1.8162
-1.85884
-1.62522
-1.72154
-1.78477
-1.82042
-1.83366
-1.82982
-1.81383
-1.78998
-1.76213
-1.73434
-1.70878
-1.68916
-1.67657
-1.67139
-1.66804
-1.66114
-1.63345
-1.57377
-1.46992
-1.47097
-1.58598
-1.66674
-1.71719
-1.74146
-1.74454
-1.73159
-1.7073
-1.67595
-1.64175
-1.6064
-1.57233
-1.53769
-1.49816
-1.44368
-1.36595
-1.25372
-1.11
-0.942109
-1.34078
-1.46987
-1.56531
-1.62893
-1.66351
-1.6735
-1.66391
-1.63967
-1.60525
-1.56471
-1.51939
-1.47026
-1.41396
-1.3452
-1.25694
-1.14764
-1.02086
-0.892735
-0.782016
-1.22889
-1.36936
-1.47688
-1.55146
-1.59462
-1.61009
-1.6026
-1.57711
-1.53814
-1.48958
-1.4326
-1.3676
-1.29165
-1.20171
-1.09635
-0.980629
-0.864087
-0.760325
-0.675937
-1.12834
-1.28212
-1.40075
-1.48467
-1.53485
-1.55446
-1.54792
-1.52012
-1.47567
-1.41845
-1.3499
-1.27094
-1.18042
-1.07854
-0.968258
-0.857289
-0.75438
-0.667226
-0.5963
-1.05135
-1.21372
-1.34093
-1.43197
-1.4872
-1.50918
-1.50214
-1.47087
-1.42013
-1.3541
-1.27486
-1.18461
-1.08436
-0.977054
-0.867841
-0.764227
-0.672163
-0.595183
-0.531345
-0.998254
-1.16475
-1.29704
-1.39218
-1.44981
-1.47193
-1.46262
-1.42662
-1.36897
-1.2944
-1.20589
-1.10719
-1.00121
-0.8926
-0.78695
-0.690373
-0.606125
-0.53528
-0.474841
-0.969761
-1.13849
-1.27257
-1.36839
-1.42529
-1.44477
-1.43099
-1.3887
-1.32337
-1.24049
-1.14398
-1.0391
-0.93009
-0.822293
-0.720741
-0.629897
-0.55082
-0.483032
-0.422757
-0.968051
-1.13531
-1.2674
-1.36015
-1.41277
-1.4265
-1.40579
-1.35555
-1.28185
-1.19099
-1.08777
-0.9787
-0.868641
-0.762903
-0.665433
-0.57907
-0.502979
-0.435318
-0.371086
-0.990313
-1.15269
-1.28013
-1.36746
-1.41376
-1.42043
-1.39216
-1.33434
-1.25366
-1.15693
-1.05017
-0.940091
-0.831766
-0.729861
-0.637293
-0.554484
-0.478984
-0.405643
-0.324723
-1.02397
-1.17805
-1.29609
-1.37358
-1.40951
-1.40583
-1.36727
-1.29994
-1.21101
-1.10747
-0.99658
-0.884574
-0.776841
-0.677102
-0.588053
-0.508999
-0.439311
-0.376312
-0.318908
-1.06673
-1.21198
-1.32182
-1.39224
-1.4225
-1.41487
-1.37393
-1.30591
-1.21788
-1.1166
-1.00968
-0.902642
-0.800746
-0.707422
-0.625737
-0.555671
-0.499594
-0.459635
-0.44407
-1.11593
-1.25267
-1.35373
-1.41579
-1.43878
-1.42537
-1.38035
-1.31001
-1.22146
-1.12136
-1.01722
-0.914325
-0.817743
-0.730836
-0.65696
-0.59688
-0.553912
-0.530165
-0.528705
-1.17032
-1.29966
-1.39182
-1.44515
-1.4605
-1.44101
-1.39174
-1.31909
-1.23019
-1.13156
-1.03057
-0.932236
-0.841455
-0.76151
-0.695874
-0.645433
-0.6132
-0.599807
-0.605374
-1.23237
-1.35356
-1.43582
-1.47985
-1.48716
-1.46125
-1.40747
-1.33244
-1.24328
-1.14635
-1.04887
-0.955524
-0.871002
-0.798397
-0.741061
-0.699531
-0.67617
-0.670422
-0.681224
-1.30508
-1.41329
-1.4846
-1.51887
-1.51763
-1.48481
-1.42621
-1.34869
-1.25939
-1.16446
-1.07094
-0.98309
-0.905339
-0.840453
-0.791495
-0.758453
-0.74313
-0.744232
-0.76027
-1.37677
-1.47329
-1.5345
-1.55893
-1.5487
-1.50863
-1.44509
-1.36524
-1.27621
-1.18388
-1.09502
-1.01342
-0.943155
-0.886559
-0.846352
-0.821924
-0.81473
-0.823003
-0.845071
-1.449
-1.53881
-1.59006
-1.60364
-1.58339
-1.53526
-1.46635
-1.38407
-1.29552
-1.20618
-1.12252
-1.04776
-0.985561
-0.937778
-0.906784
-0.891375
-0.892821
-0.908997
-0.938124
-1.53084
-1.61041
-1.6489
-1.64947
-1.61768
-1.56064
-1.48614
-1.40175
-1.31433
-1.22887
-1.15143
-1.08455
-1.03146
-0.993486
-0.972698
-0.967304
-0.97853
-1.00392
-1.04161
-1.62053
-1.68474
-1.7075
-1.69281
-1.64806
-1.58163
-1.50185
-1.41619
-1.33109
-1.25084
-1.18103
-1.12343
-1.08083
-1.05402
-1.04484
-1.0509
-1.07353
-1.10994
-1.15819
-1.71163
-1.75934
-1.76353
-1.73116
-1.67233
-1.59657
-1.51241
-1.42688
-1.34573
-1.27236
-1.2119
-1.16521
-1.13471
-1.12068
-1.12485
-1.14417
-1.18026
-1.23
-1.29141
-1.80883
-1.83557
-1.816
-1.76313
-1.68951
-1.60518
-1.51814
-1.43464
-1.35944
-1.29488
-1.24569
-1.21176
-1.19521
-1.19583
-1.21541
-1.25014
-1.30222
-1.36815
-1.44609
-1.91638
-1.90722
-1.85799
-1.7831
-1.69549
-1.60471
-1.51741
-1.43869
-1.37211
-1.31878
-1.28327
-1.26434
-1.26401
-1.28161
-1.3192
-1.37212
-1.44345
-1.52939
-1.62841
-2.00255
-1.95329
-1.874
-1.77911
-1.68105
-1.5882
-1.50491
-1.43497
-1.38062
-1.34166
-1.32285
-1.32172
-1.3405
-1.37808
-1.43716
-1.51209
-1.60742
-1.71906
-1.84618
-2.07091
-1.98283
-1.87308
-1.76072
-1.6563
-1.56579
-1.49044
-1.4327
-1.39355
-1.37155
-1.37207
-1.39137
-1.43212
-1.4929
-1.57739
-1.67878
-1.80378
-1.94814
-2.11259
-2.12391
-1.98229
-1.8428
-1.71933
-1.61558
-1.53371
-1.47136
-1.43004
-1.40971
-1.40787
-1.43109
-1.47422
-1.54078
-1.62915
-1.74453
-1.87871
-2.04158
-2.22904
-2.44501
-2.11258
-1.92173
-1.76573
-1.6441
-1.55106
-1.48552
-1.44188
-1.42159
-1.42408
-1.44598
-1.49579
-1.56686
-1.66412
-1.78593
-1.93986
-2.11613
-2.32953
-2.57676
-2.86872
-2.02217
-1.80933
-1.65643
-1.54979
-1.47587
-1.43233
-1.41135
-1.41535
-1.44368
-1.49244
-1.57269
-1.67633
-1.81027
-1.97319
-2.17609
-2.40759
-2.68967
-3.02135
-3.42966
-1.83557
-1.63706
-1.50963
-1.43102
-1.38397
-1.36741
-1.37269
-1.40403
-1.46126
-1.5403
-1.6555
-1.79754
-1.97612
-2.19086
-2.45792
-2.76481
-3.14459
-3.60183
-4.20381
-1.55394
-1.41275
-1.33072
-1.28976
-1.27469
-1.28815
-1.32189
-1.38255
-1.471
-1.58343
-1.73823
-1.92544
-2.15876
-2.44004
-2.79333
-3.20674
-3.73126
-4.38376
-5.33892
-1.20114
-1.14902
-1.12426
-1.12565
-1.14476
-1.18917
-1.25194
-1.34243
-1.46304
-1.61089
-1.80929
-2.04877
-2.3489
-2.71621
-3.1876
-3.75626
-4.50424
-5.47525
-7.14387
-0.820056
-0.861875
-0.894999
-0.938192
-0.990757
-1.06488
-1.15523
-1.27384
-1.42508
-1.60781
-1.85135
-2.14847
-2.52758
-3.00473
-3.63876
-4.4388
-5.5452
-7.06134
-10.3196
-0.457585
-0.567796
-0.648218
-0.728002
-0.81085
-0.911476
-1.02568
-1.16779
-1.34419
-1.55646
-1.84113
-2.19513
-2.66028
-3.27121
-4.12546
-5.27379
-6.97513
-9.47277
-16.5615
-0.149994
-0.279837
-0.388877
-0.497222
-0.605805
-0.728491
-0.860659
-1.01847
-1.20923
-1.43836
-1.75053
-2.14702
-2.69083
-3.45799
-4.6393
-6.47129
-9.73149
-15.7362
-37.1748
)
;

boundaryField
{
    up
    {
        type            calculated;
        value           nonuniform List<scalar> 
84
(
-33.687
-18.2446
-11.2024
-7.6559
-5.66423
-4.42567
-3.58904
-2.98769
-2.53592
-2.18374
-1.90247
-1.67327
-1.4823
-1.32073
-1.18199
-1.06099
-0.953923
-0.857947
-0.770735
-0.689785
-0.612339
-0.533589
-0.441106
-0.287527
-0.279427
-0.351707
-0.404942
-0.456671
-0.511777
-0.574186
-0.648649
-0.740901
-0.878746
-1.46456
-1.92257
-1.95318
-1.87888
-1.8914
-1.92634
-1.9617
-1.98902
-2.00726
-2.0073
-1.98919
-1.96195
-1.92656
-1.8916
-1.87888
-1.95251
-1.92301
-1.47049
-0.879815
-0.741553
-0.649159
-0.574608
-0.512148
-0.457017
-0.405295
-0.35217
-0.279738
-0.287341
-0.441126
-0.533598
-0.612344
-0.689789
-0.770737
-0.857947
-0.953923
-1.06099
-1.18199
-1.32073
-1.48229
-1.67327
-1.90247
-2.18375
-2.53593
-2.98769
-3.58904
-4.42567
-5.66423
-7.6559
-11.2024
-18.2446
-33.687
)
;
    }
    low
    {
        type            calculated;
        value           nonuniform List<scalar> 
84
(
-0.160735
-0.477287
-0.86322
-1.27446
-1.6561
-1.95744
-2.14907
-2.23134
-2.21894
-2.13485
-2.04972
-1.94712
-1.8174
-1.70776
-1.60943
-1.51025
-1.42033
-1.34583
-1.26961
-1.18642
-1.11651
-1.05627
-0.999824
-0.950218
-0.904106
-0.876548
-0.879175
-0.916176
-0.980234
-1.07132
-1.18436
-1.30449
-1.4448
-1.61143
-1.79695
-2.0123
-2.25737
-2.4831
-2.67055
-2.82369
-2.93638
-3.01133
-3.01135
-2.9364
-2.82371
-2.67058
-2.48313
-2.2574
-2.01234
-1.79694
-1.61145
-1.44479
-1.30449
-1.18436
-1.07133
-0.980235
-0.916183
-0.879184
-0.876561
-0.904125
-0.950256
-0.999838
-1.05629
-1.11653
-1.18643
-1.26962
-1.34584
-1.42033
-1.51026
-1.60943
-1.70776
-1.81739
-1.94712
-2.04971
-2.13485
-2.21894
-2.23134
-2.14908
-1.95745
-1.65611
-1.27447
-0.863226
-0.47729
-0.160736
)
;
    }
    left
    {
        type            calculated;
        value           nonuniform List<scalar> 
19
(
-0.147084
-0.274454
-0.385428
-0.497049
-0.609769
-0.737112
-0.874846
-1.04003
-1.24033
-1.48381
-1.8174
-2.24462
-2.83711
-3.68592
-5.00525
-7.08497
-10.8305
-17.8119
-34.9416
)
;
    }
    right
    {
        type            calculated;
        value           nonuniform List<scalar> 
19
(
-0.147084
-0.274455
-0.385428
-0.497049
-0.609769
-0.737112
-0.874846
-1.04003
-1.24033
-1.48381
-1.8174
-2.24462
-2.83711
-3.68592
-5.00525
-7.08497
-10.8305
-17.8119
-34.9416
)
;
    }
    frontAndBackPlanes
    {
        type            empty;
    }
}


// ************************************************************************* //
