/*--------------------------------*- C++ -*----------------------------------*\
  =========                 |
  \\      /  F ield         | OpenFOAM: The Open Source CFD Toolbox
   \\    /   O peration     | Website:  https://openfoam.org
    \\  /    A nd           | Version:  7
     \\/     M anipulation  |
\*---------------------------------------------------------------------------*/
FoamFile
{
    version     2.0;
    format      ascii;
    class       volScalarField;
    location    "0.14";
    object      gradTx;
}
// * * * * * * * * * * * * * * * * * * * * * * * * * * * * * * * * * * * * * //

dimensions      [0 -1 0 1 0 0 0];

internalField   nonuniform List<scalar> 
1596
(
-0.0623287
-0.312384
-0.55633
-0.770369
-0.950884
-1.09595
-1.21263
-1.30568
-1.38213
-1.45472
-1.52794
-1.61707
-1.73908
-1.91688
-2.17618
-2.57727
-3.2104
-4.26884
-6.15197
0.0147369
-0.257134
-0.496765
-0.699403
-0.86823
-1.0033
-1.11113
-1.19433
-1.2584
-1.31052
-1.35272
-1.39393
-1.43859
-1.49264
-1.55609
-1.62695
-1.68145
-1.66886
-1.47944
0.0784791
-0.203782
-0.433375
-0.620981
-0.774885
-0.897416
-0.994294
-1.06736
-1.12048
-1.15784
-1.18013
-1.19247
-1.1954
-1.19014
-1.17419
-1.14211
-1.07553
-0.940765
-0.669224
0.0904248
-0.170477
-0.376346
-0.542321
-0.677531
-0.785284
-0.870049
-0.933296
-0.977575
-1.0052
-1.01639
-1.01384
-0.996906
-0.965218
-0.916516
-0.84635
-0.743454
-0.5886
-0.342015
0.0337359
-0.16953
-0.335725
-0.472401
-0.584905
-0.675653
-0.747323
-0.800939
-0.837952
-0.859367
-0.865313
-0.856844
-0.833031
-0.792914
-0.734857
-0.655578
-0.548782
-0.404196
-0.199876
-0.0849383
-0.20609
-0.319725
-0.420095
-0.505996
-0.577364
-0.63468
-0.678235
-0.708488
-0.725435
-0.729185
-0.719631
-0.695772
-0.656336
-0.600092
-0.524409
-0.425841
-0.29897
-0.132027
-0.241305
-0.276913
-0.332322
-0.391778
-0.447901
-0.497536
-0.538909
-0.571308
-0.59426
-0.606946
-0.609348
-0.600548
-0.579475
-0.544626
-0.494904
-0.427923
-0.341645
-0.233043
-0.095804
-0.403181
-0.367518
-0.368203
-0.386591
-0.411902
-0.438485
-0.462733
-0.482859
-0.497557
-0.505358
-0.505993
-0.498008
-0.480223
-0.450963
-0.409099
-0.352292
-0.279079
-0.187476
-0.0739386
-0.569327
-0.48564
-0.439335
-0.417467
-0.410097
-0.410759
-0.414907
-0.419892
-0.423738
-0.424454
-0.421385
-0.412707
-0.397058
-0.372592
-0.338028
-0.290975
-0.230062
-0.153616
-0.0592911
-0.668452
-0.569232
-0.496402
-0.44648
-0.41368
-0.392737
-0.379351
-0.370579
-0.364136
-0.357781
-0.350536
-0.340424
-0.32595
-0.305216
-0.27683
-0.238431
-0.188619
-0.125799
-0.048135
-0.750179
-0.645892
-0.557971
-0.487805
-0.433878
-0.393232
-0.362757
-0.339838
-0.322246
-0.307713
-0.295011
-0.28211
-0.267395
-0.248936
-0.225232
-0.193965
-0.153637
-0.102609
-0.0392025
-0.83523
-0.732219
-0.635366
-0.549596
-0.476949
-0.417154
-0.368889
-0.330438
-0.300004
-0.275499
-0.255554
-0.238113
-0.221429
-0.203515
-0.182747
-0.15684
-0.124185
-0.08306
-0.0317738
-0.862332
-0.773515
-0.679828
-0.589595
-0.507656
-0.436153
-0.375607
-0.325517
-0.284836
-0.251932
-0.225533
-0.203712
-0.184707
-0.166564
-0.147619
-0.125697
-0.0991577
-0.0662832
-0.025396
-0.874218
-0.800219
-0.714059
-0.624401
-0.53775
-0.458248
-0.388128
-0.328236
-0.27844
-0.237714
-0.20504
-0.178678
-0.156906
-0.137813
-0.119713
-0.100539
-0.0786502
-0.0523668
-0.0200572
-0.880498
-0.8196
-0.742137
-0.655725
-0.567349
-0.482535
-0.404969
-0.33682
-0.278945
-0.23101
-0.192357
-0.161476
-0.136708
-0.116188
-0.0982104
-0.0807908
-0.0623013
-0.0411189
-0.0156809
-0.867998
-0.82119
-0.754127
-0.673875
-0.587323
-0.500768
-0.418951
-0.345195
-0.281319
-0.227713
-0.184167
-0.149447
-0.122012
-0.10006
-0.0818884
-0.0655878
-0.0495586
-0.0322481
-0.0121831
-0.834788
-0.801716
-0.746255
-0.674542
-0.593016
-0.508232
-0.425573
-0.349251
-0.281924
-0.224676
-0.177783
-0.140327
-0.110932
-0.0878921
-0.069536
-0.0540301
-0.0398167
-0.0254209
-0.00946727
-0.793256
-0.769322
-0.724317
-0.661716
-0.586853
-0.506054
-0.424987
-0.348459
-0.2798
-0.220701
-0.171899
-0.132798
-0.102207
-0.0785319
-0.0601516
-0.0453043
-0.0324797
-0.0202766
-0.00741403
-0.75886
-0.742167
-0.705025
-0.649606
-0.580247
-0.502919
-0.423431
-0.347016
-0.277534
-0.217173
-0.167044
-0.126815
-0.0954356
-0.0713896
-0.0530827
-0.0387947
-0.0270428
-0.0164796
-0.00589952
-0.690474
-0.683982
-0.656779
-0.611107
-0.550547
-0.480452
-0.406435
-0.333841
-0.266851
-0.208036
-0.158846
-0.119234
-0.0883422
-0.0647957
-0.0470868
-0.0335782
-0.0228461
-0.013615
-0.00477142
-0.611199
-0.61287
-0.594884
-0.558863
-0.507727
-0.446159
-0.379382
-0.312602
-0.250104
-0.194679
-0.148009
-0.110294
-0.0808637
-0.0585074
-0.0418367
-0.0293215
-0.0196087
-0.0114901
-0.00394796
-0.525518
-0.532357
-0.522048
-0.495046
-0.453471
-0.401245
-0.343049
-0.283739
-0.227486
-0.177127
-0.134448
-0.0998351
-0.0727916
-0.0522879
-0.0370924
-0.0258187
-0.0172001
-0.0100671
-0.00343075
-0.427348
-0.436561
-0.432584
-0.414499
-0.383373
-0.342125
-0.29465
-0.245172
-0.197509
-0.15436
-0.117491
-0.087431
-0.0638547
-0.0459584
-0.0327351
-0.0230199
-0.0156895
-0.00960698
-0.00360107
-0.313702
-0.309817
-0.296744
-0.274918
-0.246173
-0.213113
-0.178549
-0.144986
-0.114422
-0.0880281
-0.0663198
-0.0491881
-0.0360845
-0.0263206
-0.0192042
-0.0140474
-0.0101801
-0.00683052
-0.00298272
-0.209719
-0.231317
-0.250046
-0.260795
-0.260842
-0.249727
-0.229084
-0.20177
-0.171263
-0.140676
-0.112358
-0.0877917
-0.0674068
-0.051182
-0.0387569
-0.0296165
-0.0230651
-0.0183231
-0.0142967
-0.0702663
-0.0787565
-0.0888386
-0.0978158
-0.103729
-0.105407
-0.102677
-0.096044
-0.0866995
-0.0759623
-0.0649356
-0.0545868
-0.045229
-0.0370699
-0.0301735
-0.0246822
-0.0205419
-0.01772
-0.0159439
0.069662
0.0600869
0.045091
0.0270619
0.00850904
-0.00836739
-0.0220604
-0.0318147
-0.0377435
-0.0404784
-0.0407605
-0.0394771
-0.0370369
-0.0338113
-0.0300984
-0.0264296
-0.0231766
-0.0207323
-0.0191129
0.208309
0.195359
0.173968
0.146671
0.116357
0.0858812
0.0576316
0.0332164
0.0133173
-0.00214325
-0.0135776
-0.0217151
-0.0269307
-0.0295594
-0.0298901
-0.028647
-0.0265609
-0.0245166
-0.0229081
0.331741
0.312567
0.283576
0.247611
0.207644
0.166709
0.127494
0.0919406
0.061118
0.035263
0.0141932
-0.00266553
-0.015571
-0.0246434
-0.029851
-0.0317677
-0.0312335
-0.0296366
-0.0279041
0.456783
0.429182
0.391202
0.345786
0.296037
0.245131
0.195893
0.150377
0.109816
0.0745716
0.0445524
0.0192066
-0.00171127
-0.018139
-0.0295475
-0.0359764
-0.0378949
-0.0370109
-0.0349814
0.547328
0.510379
0.464312
0.411897
0.356112
0.299813
0.245471
0.194815
0.148923
0.108071
0.0721543
0.0405568
0.0129326
-0.0106298
-0.0291107
-0.0416868
-0.0476502
-0.0482674
-0.0457029
0.628501
0.583779
0.529911
0.470789
0.409517
0.34865
0.290272
0.235749
0.185933
0.140955
0.100634
0.0641893
0.0309646
0.000660221
-0.0257114
-0.0467559
-0.0599863
-0.064849
-0.0628862
0.699795
0.644816
0.582757
0.517563
0.45201
0.388115
0.327435
0.270883
0.21904
0.17187
0.129141
0.0899703
0.0533659
0.0183358
-0.0148604
-0.0454593
-0.0698521
-0.0846883
-0.0867106
0.740392
0.670214
0.596331
0.52228
0.450281
0.381749
0.317707
0.258657
0.204892
0.156207
0.112225
0.0720021
0.034304
-0.00253474
-0.0395845
-0.0780408
-0.116089
-0.15051
-0.175076
0.759863
0.684263
0.610561
0.540874
0.475757
0.415242
0.359245
0.307565
0.260073
0.216537
0.176765
0.140372
0.10677
0.0750603
0.0441432
0.011886
-0.02342
-0.0635878
-0.108844
0.770227
0.693115
0.622487
0.557674
0.497731
0.441982
0.389973
0.341421
0.296238
0.254314
0.21563
0.180151
0.147658
0.117963
0.0909185
0.0661032
0.0430474
0.0208412
-0.00204965
0.718338
0.630733
0.554374
0.486661
0.425891
0.371002
0.321233
0.276021
0.234986
0.197712
0.163904
0.133295
0.105493
0.0802213
0.0573625
0.0368125
0.01865
0.0031388
-0.00965433
0.622436
0.544441
0.477273
0.41835
0.365989
0.319071
0.276783
0.23851
0.203837
0.17235
0.143767
0.117853
0.0942791
0.0728074
0.053309
0.0356243
0.0196759
0.00552112
-0.00690554
0.511361
0.447118
0.391389
0.342545
0.299324
0.260787
0.226212
0.195035
0.166866
0.141322
0.118148
0.0971269
0.077971
0.0604686
0.0444997
0.0299161
0.0166471
0.00474828
-0.00582209
0.381625
0.33271
0.290611
0.254007
0.221837
0.193305
0.167804
0.144866
0.124168
0.105401
0.0883662
0.0728917
0.0587593
0.0458097
0.0339584
0.0231003
0.0131954
0.00430234
-0.00359695
0.238845
0.206298
0.179222
0.156153
0.136124
0.118493
0.102809
0.0887421
0.0760701
0.0645872
0.0541612
0.0446792
0.0360018
0.028027
0.0207023
0.0139626
0.00778703
0.00222091
-0.00273646
0.0912703
0.0779156
0.0672496
0.0583081
0.050593
0.0438225
0.0378185
0.0324565
0.0276525
0.0233279
0.0194283
0.0159049
0.0126984
0.00976229
0.007067
0.00457936
0.00228274
0.000186362
-0.00171266
-0.0912266
-0.0778159
-0.0671106
-0.0581424
-0.0504106
-0.0436315
-0.0376254
-0.0322667
-0.0274705
-0.0231571
-0.0192717
-0.0157646
-0.0125764
-0.00966005
-0.00698564
-0.00451977
-0.00224547
-0.000171365
0.00170583
-0.238804
-0.206209
-0.179098
-0.156006
-0.135963
-0.118325
-0.10264
-0.0885773
-0.0759132
-0.0644414
-0.0540291
-0.0445629
-0.035903
-0.0279472
-0.0206424
-0.0139235
-0.0077693
-0.00222435
0.00271246
-0.381582
-0.332622
-0.290489
-0.25386
-0.221675
-0.193134
-0.167631
-0.144695
-0.124004
-0.105248
-0.0882258
-0.0727657
-0.0586492
-0.0457164
-0.0338823
-0.0230414
-0.0131535
-0.00427672
0.00360745
-0.511327
-0.447053
-0.391299
-0.342438
-0.299206
-0.260664
-0.226088
-0.194915
-0.166753
-0.141218
-0.118055
-0.0970468
-0.0779047
-0.0604167
-0.0444624
-0.0298931
-0.0166382
-0.00475256
0.00580559
-0.622412
-0.544394
-0.477207
-0.418269
-0.365898
-0.318975
-0.276686
-0.238417
-0.20375
-0.17227
-0.143698
-0.117795
-0.0942324
-0.0727728
-0.0532863
-0.0356128
-0.0196745
-0.00552786
0.00689316
-0.718332
-0.630712
-0.554338
-0.486612
-0.425835
-0.370943
-0.321175
-0.275967
-0.234939
-0.197674
-0.163877
-0.133279
-0.105488
-0.0802281
-0.0573808
-0.0368405
-0.0186838
-0.00317225
0.00962815
-0.770219
-0.693039
-0.622328
-0.557433
-0.497414
-0.441603
-0.389547
-0.340965
-0.295766
-0.253839
-0.21516
-0.179692
-0.147214
-0.117532
-0.0905015
-0.0657059
-0.0426873
-0.0205602
0.00218037
-0.759989
-0.684602
-0.611117
-0.541633
-0.476693
-0.416324
-0.360439
-0.308835
-0.261389
-0.217872
-0.178102
-0.141701
-0.108094
-0.0763946
-0.0455152
-0.0133363
0.021857
0.0619074
0.10711
-0.74033
-0.670053
-0.596067
-0.521923
-0.449848
-0.381257
-0.317175
-0.258104
-0.204333
-0.155653
-0.111686
-0.0714842
-0.0338114
0.00300116
0.0400324
0.0784943
0.116605
0.151185
0.176037
-0.699836
-0.644917
-0.582911
-0.51776
-0.45224
-0.388369
-0.327702
-0.271155
-0.21931
-0.172131
-0.12939
-0.0902041
-0.0535827
-0.0185299
0.0147026
0.045363
0.0698462
0.0847892
0.0868913
-0.628526
-0.583841
-0.530009
-0.470917
-0.409669
-0.34882
-0.290453
-0.235934
-0.186116
-0.141129
-0.100796
-0.0643362
-0.0310906
-0.000756724
0.0256578
0.0467607
0.0600558
0.0649691
0.0630279
-0.547355
-0.510445
-0.464415
-0.412032
-0.356273
-0.299992
-0.245657
-0.195002
-0.149102
-0.108236
-0.0723011
-0.0406811
-0.0130296
0.0105666
0.0290883
0.0417096
0.0477132
0.0483545
0.0457927
-0.456809
-0.42925
-0.39131
-0.345929
-0.296207
-0.245317
-0.196085
-0.150564
-0.10999
-0.0747262
-0.0446833
-0.0193108
0.00163674
0.018097
0.0295396
0.0360003
0.0379426
0.037071
0.0350425
-0.331766
-0.312633
-0.283682
-0.247752
-0.20781
-0.166888
-0.127676
-0.092113
-0.0612732
-0.0353953
-0.0142999
0.00258588
0.015519
0.0246191
0.0298524
0.0317903
0.0312703
0.0296802
0.0279485
-0.208337
-0.195431
-0.174082
-0.14682
-0.11653
-0.0860638
-0.0578103
-0.0333802
-0.0134586
0.00202855
0.0134905
0.0216548
0.0268955
0.0295471
0.0298968
0.0286681
0.0265907
0.0245506
0.0229428
-0.0696869
-0.0601574
-0.0452045
-0.027209
-0.00867587
0.00819607
0.0218986
0.0316727
0.0376271
0.0403898
0.0406984
0.039439
0.0370194
0.033811
0.030111
0.0264509
0.023203
0.0207614
0.0191431
0.0702059
0.0785763
0.0885421
0.0974264
0.103283
0.104945
0.102237
0.0956511
0.0863692
0.0756994
0.0647362
0.0544432
0.0451315
0.0370082
0.030138
0.0246649
0.020537
0.0177252
0.0159622
0.209758
0.231466
0.250321
0.261186
0.261322
0.250259
0.229628
0.202289
0.171734
0.141084
0.112697
0.0880662
0.0676244
0.0513529
0.0388913
0.0297242
0.0231541
0.0183994
0.0143632
0.313654
0.309656
0.296474
0.274563
0.245768
0.212693
0.178146
0.144621
0.114109
0.0877701
0.0661152
0.049031
0.0359674
0.0262358
0.0191445
0.0140067
0.0101537
0.00681514
0.00297703
0.427371
0.436608
0.432653
0.414582
0.383461
0.342209
0.294724
0.24523
0.197552
0.154389
0.117508
0.0874394
0.0638578
0.0459586
0.0327342
0.0230187
0.0156885
0.00960651
0.00360123
0.52552
0.53236
0.52205
0.495049
0.453473
0.401244
0.343047
0.283735
0.22748
0.17712
0.134442
0.0998293
0.0727869
0.0522845
0.0370903
0.0258176
0.0171997
0.0100672
0.00343101
0.611201
0.612873
0.594886
0.558864
0.507728
0.446158
0.379379
0.312597
0.250099
0.194674
0.148004
0.11029
0.0808609
0.0585058
0.041836
0.0293215
0.0196091
0.0114905
0.00394815
0.690475
0.683984
0.656781
0.611108
0.550547
0.480451
0.406433
0.333837
0.266847
0.208032
0.158842
0.119232
0.0883408
0.0647952
0.0470871
0.0335789
0.0228469
0.0136156
0.0047716
0.758862
0.742171
0.705028
0.649608
0.580249
0.502919
0.42343
0.347013
0.277531
0.21717
0.167041
0.126814
0.0954352
0.07139
0.0530836
0.0387958
0.0270438
0.0164803
0.00589967
0.793257
0.769325
0.72432
0.661718
0.586854
0.506054
0.424986
0.348457
0.279797
0.220699
0.171897
0.132798
0.102207
0.0785328
0.0601528
0.0453055
0.0324806
0.0202771
0.00741411
0.834789
0.801718
0.746257
0.674543
0.593017
0.508231
0.425572
0.34925
0.281923
0.224675
0.177782
0.140327
0.110933
0.0878931
0.0695372
0.0540311
0.0398173
0.0254211
0.00946722
0.868
0.821193
0.75413
0.673877
0.587325
0.500769
0.418951
0.345194
0.281318
0.227712
0.184167
0.149447
0.122013
0.100061
0.0818892
0.0655882
0.0495584
0.0322478
0.0121829
0.880498
0.819601
0.742138
0.655727
0.56735
0.482536
0.404969
0.336819
0.278944
0.23101
0.192357
0.161476
0.136708
0.116188
0.0982101
0.0807899
0.0623001
0.0411178
0.0156805
0.87422
0.800222
0.714062
0.624403
0.537751
0.458248
0.388128
0.328236
0.27844
0.237714
0.20504
0.178678
0.156905
0.137811
0.119712
0.100537
0.0786477
0.0523651
0.0200568
0.862335
0.773519
0.679832
0.589598
0.507658
0.436154
0.375608
0.325517
0.284837
0.251932
0.225533
0.203711
0.184706
0.166562
0.147616
0.125693
0.0991541
0.066281
0.0253956
0.835229
0.732219
0.635366
0.549595
0.476947
0.417152
0.368888
0.330436
0.300002
0.275498
0.255552
0.23811
0.221426
0.20351
0.182741
0.156835
0.124181
0.0830578
0.0317736
0.750183
0.645896
0.557974
0.487807
0.433878
0.393232
0.362757
0.339837
0.322245
0.307711
0.295008
0.282105
0.26739
0.24893
0.225226
0.193959
0.153633
0.102608
0.0392028
0.668459
0.569237
0.496404
0.446481
0.413681
0.392737
0.37935
0.370578
0.364134
0.357778
0.350531
0.340418
0.325944
0.305209
0.276824
0.238426
0.188616
0.125799
0.0481358
0.569333
0.485644
0.439337
0.417468
0.410097
0.410759
0.414907
0.419891
0.423735
0.42445
0.421379
0.412701
0.397052
0.372586
0.338024
0.290972
0.230062
0.153617
0.0592921
0.403185
0.36752
0.368204
0.386592
0.411903
0.438486
0.462732
0.482857
0.497554
0.505354
0.505988
0.498002
0.480218
0.450959
0.409097
0.352292
0.279081
0.187479
0.0739395
0.241308
0.276915
0.332324
0.39178
0.447902
0.497536
0.538908
0.571306
0.594256
0.606941
0.609343
0.600543
0.579472
0.544625
0.494905
0.427927
0.341649
0.233046
0.0958046
0.0849406
0.206093
0.319728
0.420097
0.505997
0.577365
0.634679
0.678233
0.708484
0.725432
0.729182
0.719629
0.695772
0.656338
0.600097
0.524415
0.425846
0.298973
0.132027
-0.0337346
0.169533
0.335729
0.472404
0.584907
0.675653
0.747322
0.800937
0.837949
0.859365
0.865312
0.856845
0.833034
0.792919
0.734863
0.655584
0.548787
0.404197
0.199875
-0.0904246
0.170479
0.376348
0.542323
0.677532
0.785284
0.870048
0.933294
0.977574
1.0052
1.01639
1.01384
0.996912
0.965225
0.916523
0.846355
0.743455
0.5886
0.342014
-0.0784795
0.203783
0.433375
0.62098
0.774883
0.897415
0.994293
1.06736
1.12048
1.15784
1.18013
1.19247
1.19541
1.19015
1.17419
1.14211
1.07553
0.940762
0.669222
-0.0147368
0.257133
0.496763
0.6994
0.868227
1.00329
1.11113
1.19433
1.25841
1.31052
1.35272
1.39393
1.4386
1.49264
1.55609
1.62694
1.68144
1.66886
1.47944
0.0623294
0.312384
0.556328
0.770367
0.950882
1.09595
1.21263
1.30568
1.38213
1.45472
1.52795
1.61708
1.73908
1.91687
2.17618
2.57726
3.2104
4.26883
6.15197
)
;

boundaryField
{
    up
    {
        type            calculated;
        value           nonuniform List<scalar> 
84
(
-6.15197
-1.47944
-0.669224
-0.342015
-0.199876
-0.132027
-0.095804
-0.0739386
-0.0592911
-0.048135
-0.0392025
-0.0317738
-0.025396
-0.0200572
-0.0156809
-0.0121831
-0.00946727
-0.00741403
-0.00589952
-0.00477142
-0.00394796
-0.00343075
-0.00360107
-0.00298272
-0.012007
-0.0145668
-0.0175752
-0.0210356
-0.0255005
-0.0317556
-0.0410674
-0.0551382
-0.0738618
-0.169008
-0.110997
-0.00217805
-0.00956305
-0.00684606
-0.00578786
-0.00358277
-0.0027304
-0.00171122
0.0017044
0.00270649
0.00359335
0.0057716
0.006834
0.0095372
0.00230599
0.109245
0.17013
0.074028
0.0552565
0.0411445
0.031809
0.0255399
0.0210671
0.0176035
0.0145905
0.0120651
0.00297703
0.00360123
0.00343101
0.00394815
0.0047716
0.00589967
0.00741411
0.00946722
0.0121829
0.0156805
0.0200568
0.0253956
0.0317736
0.0392028
0.0481358
0.0592921
0.0739395
0.0958046
0.132027
0.199875
0.342014
0.669222
1.47944
6.15197
)
;
    }
    low
    {
        type            calculated;
        value           nonuniform List<scalar> 
84
(
-0.0560585
0.0243309
0.0937945
0.10686
0.0439309
-0.0867978
-0.256395
-0.428204
-0.598031
-0.692049
-0.771232
-0.852888
-0.871262
-0.878085
-0.881397
-0.86399
-0.826358
-0.783667
-0.7462
-0.671762
-0.589066
-0.502046
-0.403632
-0.292395
-0.192674
-0.0640401
0.0625603
0.190833
0.309783
0.43562
0.530995
0.616144
0.692757
0.739835
0.764219
0.780237
0.734017
0.638487
0.525309
0.392515
0.245965
0.0942222
-0.0941783
-0.245923
-0.39247
-0.525272
-0.638458
-0.734004
-0.780221
-0.764325
-0.739774
-0.692789
-0.616165
-0.53102
-0.435647
-0.309809
-0.190863
-0.0625857
0.0639811
0.192712
0.292351
0.403652
0.502048
0.589067
0.671762
0.746202
0.783668
0.826359
0.863992
0.881397
0.878087
0.871264
0.852885
0.771235
0.692055
0.598035
0.428207
0.256399
0.0868004
-0.0439295
-0.10686
-0.0937962
-0.0243321
0.0560588
)
;
    }
    left
    {
        type            calculated;
        value           nonuniform List<scalar> 
19
(
-0.055647
-0.300885
-0.55043
-0.772434
-0.961147
-1.11323
-1.23615
-1.33541
-1.41796
-1.49938
-1.58418
-1.68915
-1.83596
-2.05451
-2.3766
-2.88625
-3.70853
-5.11336
-5.33516
)
;
    }
    right
    {
        type            calculated;
        value           nonuniform List<scalar> 
19
(
0.0556478
0.300886
0.550429
0.772433
0.961145
1.11323
1.23615
1.33542
1.41796
1.49938
1.58418
1.68915
1.83596
2.0545
2.37659
2.88624
3.70852
5.11336
5.33517
)
;
    }
    frontAndBackPlanes
    {
        type            empty;
    }
}


// ************************************************************************* //
