/*--------------------------------*- C++ -*----------------------------------*\
  =========                 |
  \\      /  F ield         | OpenFOAM: The Open Source CFD Toolbox
   \\    /   O peration     | Website:  https://openfoam.org
    \\  /    A nd           | Version:  7
     \\/     M anipulation  |
\*---------------------------------------------------------------------------*/
FoamFile
{
    version     2.0;
    format      ascii;
    class       volScalarField;
    location    "0.27";
    object      gradTy;
}
// * * * * * * * * * * * * * * * * * * * * * * * * * * * * * * * * * * * * * //

dimensions      [0 -1 0 1 0 0 0];

internalField   nonuniform List<scalar> 
1596
(
-0.602351
-1.12024
-1.5477
-1.96259
-2.36621
-2.81091
-3.2761
-3.82198
-4.47351
-5.24899
-6.31141
-7.66244
-9.52818
-12.1775
-16.2823
-22.6712
-34.0678
-55.0776
-130.112
-1.83536
-2.26706
-2.56681
-2.85017
-3.13129
-3.46767
-3.84209
-4.30933
-4.89257
-5.59686
-6.55734
-7.76053
-9.35724
-11.4696
-14.4419
-18.4496
-24.401
-33.1448
-57.961
-3.28518
-3.43507
-3.53334
-3.65555
-3.79982
-4.01504
-4.28082
-4.64445
-5.12264
-5.71126
-6.52043
-7.52198
-8.81946
-10.469
-12.679
-15.4774
-19.3573
-24.6764
-36.0953
-4.80524
-4.57292
-4.4298
-4.37337
-4.37211
-4.45775
-4.60456
-4.85043
-5.20551
-5.65973
-6.30215
-7.09682
-8.11615
-9.38263
-11.0277
-13.0227
-15.6567
-19.0774
-24.9428
-6.20773
-5.61592
-5.23734
-5.00371
-4.8579
-4.8128
-4.83829
-4.96234
-5.18994
-5.50789
-5.98781
-6.59229
-7.37307
-8.33612
-9.5681
-11.0222
-12.8792
-15.1923
-18.5696
-7.32267
-6.50144
-5.93842
-5.55008
-5.27191
-5.10288
-5.01182
-5.01772
-5.12218
-5.31114
-5.64179
-6.0793
-6.66127
-7.38608
-8.31293
-9.39291
-10.7444
-12.3777
-14.5248
-8.05746
-7.18031
-6.51536
-6.01379
-5.62657
-5.34815
-5.15116
-5.04791
-5.03856
-5.10989
-5.30723
-5.6005
-6.01735
-6.553
-7.24896
-8.06041
-9.06732
-10.2609
-11.7324
-8.41063
-7.62234
-6.94636
-6.38585
-5.92268
-5.55669
-5.26955
-5.07023
-4.95943
-4.92621
-5.00636
-5.17553
-5.4542
-5.83679
-6.35285
-6.96371
-7.72436
-8.61852
-9.68141
-8.4528
-7.86057
-7.25197
-6.68588
-6.18139
-5.75146
-5.39076
-5.10876
-4.90857
-4.7827
-4.75978
-4.82127
-4.98256
-5.23833
-5.60986
-6.06456
-6.64043
-7.31894
-8.11146
-8.24401
-7.86332
-7.37419
-6.85438
-6.34942
-5.88724
-5.47684
-5.13158
-4.85868
-4.65495
-4.5444
-4.514
-4.57589
-4.72572
-4.97926
-5.30959
-5.74338
-6.26249
-6.86761
-7.97903
-7.74958
-7.38115
-6.93192
-6.45399
-5.98454
-5.54477
-5.15335
-4.82257
-4.55416
-4.36957
-4.2609
-4.23837
-4.29889
-4.45449
-4.68309
-5.00349
-5.39886
-5.86502
-7.64779
-7.57391
-7.32313
-6.95316
-6.51746
-6.05763
-5.6037
-5.17962
-4.80293
-4.48046
-4.23276
-4.05663
-3.96141
-3.94543
-4.01826
-4.16188
-4.38953
-4.68612
-5.04535
-7.23521
-7.30035
-7.16493
-6.88123
-6.50095
-6.06749
-5.61613
-5.1754
-4.76749
-4.40406
-4.10607
-3.87453
-3.71882
-3.6389
-3.64292
-3.71641
-3.86896
-4.08729
-4.36429
-6.86629
-7.01132
-6.96705
-6.76226
-6.4391
-6.03922
-5.59989
-5.15294
-4.72431
-4.32989
-3.99181
-3.71474
-3.50871
-3.37524
-3.32185
-3.33693
-3.42773
-3.58262
-3.79439
-6.523
-6.73111
-6.75708
-6.61896
-6.3488
-5.98402
-5.56152
-5.11501
-4.67322
-4.25551
-3.88555
-3.57115
-3.3233
-3.1451
-3.04379
-3.01028
-3.0502
-3.15348
-3.31321
-6.18555
-6.45358
-6.5389
-6.45737
-6.2346
-5.90388
-5.5005
-5.05895
-4.60984
-4.17533
-3.7806
-3.43615
-3.15408
-2.93893
-2.79807
-2.72446
-2.72278
-2.78434
-2.90267
-5.87871
-6.18764
-6.32107
-6.28693
-6.10509
-5.80532
-5.42094
-4.98658
-4.53408
-4.08767
-3.67396
-3.30565
-2.99591
-2.75061
-2.57736
-2.4709
-2.4354
-2.46338
-2.54881
-5.60886
-5.9458
-6.11697
-6.12165
-5.9741
-5.70075
-5.33322
-4.90597
-4.45171
-3.99634
-3.56757
-3.17999
-2.84767
-2.57756
-2.37757
-2.24398
-2.18077
-2.18156
-2.24076
-5.3386
-5.72542
-5.93605
-5.97592
-5.85807
-5.60689
-5.25309
-4.83112
-4.37454
-3.91082
-3.46865
-3.06424
-2.71237
-2.42081
-2.19771
-2.04066
-1.95376
-1.9318
-1.96971
-5.06096
-5.50451
-5.75951
-5.83507
-5.74535
-5.51441
-5.17288
-4.7556
-4.29711
-3.82636
-3.37296
-2.95448
-2.58623
-2.27652
-2.03348
-1.85574
-1.74786
-1.70627
-1.72687
-4.8231
-5.30458
-5.60059
-5.71061
-5.64712
-5.4341
-5.10266
-4.6885
-4.22738
-3.74975
-3.2861
-2.85521
-2.47276
-2.14719
-1.88622
-1.68882
-1.5602
-1.49916
-1.5042
-4.61263
-5.12942
-5.46309
-5.60587
-5.5672
-5.37045
-5.04748
-4.63515
-4.17064
-3.686
-3.21261
-2.77039
-2.3753
-2.03565
-1.75817
-1.54105
-1.38914
-1.30406
-1.29078
-4.41931
-4.97601
-5.34712
-5.5216
-5.50663
-5.32502
-5.00948
-4.59826
-4.1301
-3.63858
-3.15599
-2.70334
-2.2969
-1.9449
-1.65275
-1.41624
-1.23697
-1.11569
-1.06877
-4.24824
-4.84532
-5.25138
-5.45268
-5.45565
-5.28272
-4.96883
-4.55346
-4.07739
-3.57625
-3.08176
-2.61746
-2.19961
-1.83681
-1.53284
-1.28142
-1.0759
-0.904689
-0.760221
-4.11078
-4.74544
-5.19244
-5.4342
-5.47671
-5.33988
-5.05864
-4.6704
-4.21518
-3.72912
-3.24083
-2.7764
-2.35155
-1.97802
-1.6605
-1.39606
-1.17362
-0.975688
-0.772457
-4.01671
-4.67373
-5.14345
-5.41149
-5.48334
-5.377
-5.12574
-4.76463
-4.33167
-3.86193
-3.38091
-2.9152
-2.48063
-2.09132
-1.75507
-1.4755
-1.24541
-1.05527
-0.886668
-4.01677
-4.67819
-5.15648
-5.43911
-5.531
-5.44981
-5.22643
-4.89428
-4.48872
-4.04221
-3.57783
-3.11934
-2.68154
-2.27954
-1.92468
-1.62558
-1.38008
-1.18242
-1.01843
-4.1219
-4.76865
-5.23694
-5.51678
-5.61363
-5.54561
-5.34188
-5.0343
-4.65559
-4.23529
-3.79329
-3.3493
-2.91494
-2.50412
-2.1305
-1.80803
-1.54083
-1.3278
-1.15699
-4.3217
-4.94318
-5.38577
-5.64753
-5.73615
-5.67069
-5.47914
-5.19182
-4.83897
-4.44729
-4.03322
-3.61188
-3.18971
-2.7765
-2.38542
-2.03538
-1.7385
-1.50106
-1.31381
-4.61133
-5.18768
-5.58933
-5.82044
-5.89054
-5.81953
-5.63457
-5.36437
-5.03689
-4.6765
-4.29645
-3.90782
-3.51069
-3.10753
-2.70601
-2.32684
-1.99075
-1.71652
-1.5016
-4.98719
-5.49897
-5.84972
-6.04173
-6.08604
-6.0034
-5.82045
-5.56422
-5.26061
-4.93235
-4.59055
-4.2441
-3.88746
-3.51392
-3.1191
-2.71742
-2.33289
-2.00213
-1.74008
-5.39753
-5.85384
-6.15138
-6.29944
-6.31332
-6.21514
-6.03111
-5.78637
-5.50485
-5.20826
-4.90683
-4.61023
-4.31094
-3.99548
-3.64324
-3.2507
-2.82584
-2.41435
-2.06642
-5.86867
-6.26076
-6.49697
-6.59443
-6.57275
-6.455
-6.2665
-6.02997
-5.76708
-5.49855
-5.23432
-4.98765
-4.75468
-4.52404
-4.26544
-3.95592
-3.56101
-3.09095
-2.56545
-6.42146
-6.73387
-6.90019
-6.94276
-6.88427
-6.74787
-6.55679
-6.33093
-6.08906
-5.85013
-5.62439
-5.42824
-5.26602
-5.13965
-5.0308
-4.92366
-4.76427
-4.52137
-4.15928
-7.03986
-7.25836
-7.33607
-7.30546
-7.19181
-7.0179
-6.80329
-6.56492
-6.31788
-6.07646
-5.85031
-5.6521
-5.48939
-5.37134
-5.30045
-5.28713
-5.31835
-5.38165
-5.4502
-7.74206
-7.83099
-7.79986
-7.68409
-7.50714
-7.28941
-7.04617
-6.79181
-6.53835
-6.29592
-6.07422
-5.88072
-5.72161
-5.60189
-5.526
-5.49896
-5.52628
-5.61471
-5.77316
-8.51978
-8.44732
-8.2999
-8.10034
-7.86453
-7.60753
-7.3404
-7.07442
-6.81894
-6.58145
-6.37008
-6.1892
-6.04242
-5.93065
-5.8537
-5.80642
-5.78473
-5.77993
-5.78462
-9.24088
-9.0124
-8.75396
-8.47408
-8.18097
-7.88395
-7.59041
-7.30813
-7.04386
-6.8028
-6.59052
-6.40967
-6.26162
-6.14568
-6.06021
-6.0004
-5.96235
-5.94011
-5.92856
-9.83538
-9.49084
-9.14396
-8.79809
-8.45722
-8.12652
-7.81043
-7.51386
-7.24141
-6.99646
-6.78273
-6.60184
-6.45401
-6.33796
-6.25168
-6.19088
-6.15164
-6.12881
-6.11745
-10.3138
-9.87601
-9.45827
-9.05966
-8.68065
-8.32303
-7.9888
-7.68056
-7.40124
-7.15287
-6.93789
-6.75727
-6.61048
-6.49594
-6.41138
-6.35273
-6.31586
-6.29594
-6.28806
-10.6624
-10.1539
-9.68247
-9.24481
-8.8382
-8.46143
-8.11445
-7.79808
-7.51406
-7.26348
-7.04793
-6.86802
-6.72273
-6.61026
-6.52806
-6.47208
-6.43783
-6.42043
-6.41475
-10.8847
-10.3113
-9.8021
-9.34078
-8.9188
-8.53189
-8.17839
-7.85801
-7.57176
-7.32028
-7.10473
-6.92553
-6.78146
-6.67069
-6.59063
-6.53735
-6.50633
-6.49275
-6.49141
-10.8848
-10.3114
-9.80222
-9.34091
-8.91894
-8.53204
-8.17854
-7.85816
-7.57192
-7.32044
-7.10488
-6.92569
-6.78163
-6.67087
-6.59081
-6.53754
-6.50652
-6.49295
-6.49162
-10.6625
-10.1541
-9.68276
-9.24514
-8.83856
-8.46181
-8.11485
-7.79849
-7.51448
-7.2639
-7.04837
-6.86847
-6.7232
-6.61075
-6.52858
-6.47264
-6.43844
-6.4211
-6.41548
-10.3139
-9.87633
-9.45872
-9.06019
-8.68123
-8.32364
-7.98944
-7.68122
-7.40192
-7.15356
-6.93859
-6.75799
-6.61124
-6.49674
-6.41222
-6.35363
-6.31682
-6.29697
-6.28916
-9.83556
-9.49125
-9.14452
-8.79876
-8.45796
-8.1273
-7.81125
-7.5147
-7.24228
-6.99734
-6.78363
-6.60277
-6.45496
-6.33895
-6.25271
-6.19195
-6.15274
-6.12994
-6.11863
-9.24108
-9.01287
-8.75461
-8.47485
-8.18183
-7.88487
-7.59137
-7.30912
-7.04489
-6.80385
-6.5916
-6.41077
-6.26276
-6.14685
-6.0614
-6.0016
-5.96354
-5.9413
-5.92978
-8.52001
-8.44783
-8.3006
-8.10118
-7.86547
-7.60854
-7.34146
-7.07553
-6.82009
-6.58265
-6.37132
-6.19048
-6.04372
-5.93194
-5.85491
-5.80751
-5.78566
-5.78072
-5.78533
-7.74231
-7.83156
-7.8007
-7.68517
-7.50841
-7.29086
-7.04778
-6.79359
-6.54031
-6.29809
-6.07661
-5.88333
-5.72443
-5.60488
-5.52908
-5.50194
-5.52891
-5.61653
-5.77347
-7.04003
-7.25847
-7.3362
-7.30563
-7.19201
-7.01812
-6.8035
-6.5651
-6.31801
-6.07648
-5.85016
-5.65166
-5.48851
-5.36986
-5.29835
-5.28456
-5.31599
-5.38069
-5.45245
-6.42155
-6.73418
-6.90072
-6.94356
-6.88537
-6.74929
-6.55851
-6.33295
-6.09137
-5.85271
-5.62724
-5.43133
-5.26943
-5.14358
-5.03571
-4.93026
-4.77339
-4.53352
-4.17451
-5.86873
-6.26083
-6.49713
-6.59474
-6.57327
-6.45573
-6.26744
-6.03113
-5.76842
-5.50008
-5.23603
-4.98959
-4.75694
-4.5268
-4.2689
-3.96021
-3.56593
-3.09582
-2.56898
-5.39756
-5.85388
-6.15149
-6.2997
-6.31379
-6.21583
-6.03204
-5.78753
-5.50622
-5.20985
-4.90865
-4.61233
-4.3134
-3.99837
-3.64654
-3.2542
-2.82916
-2.41719
-2.06886
-4.9872
-5.49896
-5.84976
-6.04191
-6.08642
-6.004
-5.82129
-5.5653
-5.26191
-4.93388
-4.59231
-4.24611
-3.88974
-3.51647
-3.12178
-2.72003
-2.33522
-2.00414
-1.7419
-4.61133
-5.18763
-5.58934
-5.82057
-5.89085
-5.82005
-5.63533
-5.36537
-5.03811
-4.67793
-4.29808
-3.90965
-3.5127
-3.10966
-2.70813
-2.32883
-1.99253
-1.71809
-1.50299
-4.32167
-4.94309
-5.38574
-5.6476
-5.73639
-5.67113
-5.47982
-5.19272
-4.84008
-4.4486
-4.0347
-3.6135
-3.19143
-2.77825
-2.38712
-2.03695
-1.73993
-1.50236
-1.31494
-4.12186
-4.76856
-5.23689
-5.51682
-5.61382
-5.54599
-5.34248
-5.03511
-4.6566
-4.23646
-3.7946
-3.35071
-2.9164
-2.50556
-2.13187
-1.8093
-1.54201
-1.32892
-1.15798
-4.01673
-4.6781
-5.15641
-5.43912
-5.53114
-5.45012
-5.22695
-4.89499
-4.4896
-4.04324
-3.57897
-3.12054
-2.68276
-2.28073
-1.92582
-1.62665
-1.38107
-1.18337
-1.01939
-4.01669
-4.67363
-5.14333
-5.41141
-5.48335
-5.37715
-5.12603
-4.76508
-4.33224
-3.86261
-3.38166
-2.91597
-2.48139
-2.09207
-1.75578
-1.47617
-1.246
-1.05583
-0.887543
-4.11089
-4.74551
-5.1925
-5.4343
-5.47689
-5.34014
-5.05902
-4.67087
-4.21576
-3.72978
-3.24155
-2.77717
-2.35236
-1.97886
-1.66136
-1.39694
-1.17443
-0.976315
-0.773018
-4.24836
-4.84542
-5.25143
-5.45269
-5.45561
-5.28262
-4.96867
-4.55323
-4.07711
-3.57593
-3.0814
-2.61709
-2.19925
-1.83647
-1.53253
-1.28114
-1.07563
-0.904339
-0.759773
-4.41939
-4.97607
-5.34716
-5.52165
-5.50667
-5.32505
-5.0095
-4.59827
-4.13009
-3.63856
-3.15597
-2.70331
-2.29687
-1.94489
-1.65276
-1.41626
-1.23702
-1.11577
-1.06883
-4.61269
-5.12946
-5.4631
-5.60589
-5.56721
-5.37045
-5.04746
-4.63512
-4.1706
-3.68595
-3.21257
-2.77036
-2.37527
-2.03563
-1.75817
-1.54105
-1.38915
-1.3041
-1.29082
-4.82314
-5.3046
-5.6006
-5.71061
-5.64712
-5.43409
-5.10264
-4.68847
-4.22735
-3.74972
-3.28607
-2.8552
-2.47276
-2.14719
-1.88622
-1.68883
-1.56021
-1.49918
-1.50421
-5.06099
-5.50452
-5.75951
-5.83507
-5.74534
-5.5144
-5.17287
-4.75558
-4.29709
-3.82635
-3.37295
-2.95448
-2.58624
-2.27653
-2.03349
-1.85574
-1.74787
-1.70628
-1.72687
-5.33861
-5.72542
-5.93605
-5.97591
-5.85805
-5.60687
-5.25308
-4.83111
-4.37453
-3.91082
-3.46866
-3.06425
-2.71238
-2.42083
-2.19772
-2.04067
-1.95376
-1.93179
-1.9697
-5.60887
-5.94579
-6.11696
-6.12163
-5.97408
-5.70073
-5.3332
-4.90597
-4.45171
-3.99635
-3.56758
-3.18001
-2.84769
-2.57758
-2.37757
-2.24398
-2.18076
-2.18155
-2.24074
-5.87871
-6.18763
-6.32105
-6.28691
-6.10506
-5.8053
-5.42093
-4.98658
-4.53409
-4.08769
-3.67398
-3.30568
-2.99594
-2.75063
-2.57736
-2.47089
-2.43539
-2.46337
-2.54879
-6.18555
-6.45356
-6.53887
-6.45734
-6.23457
-5.90386
-5.50049
-5.05895
-4.60986
-4.17535
-3.78062
-3.43618
-3.1541
-2.93895
-2.79807
-2.72444
-2.72275
-2.78432
-2.90265
-6.52298
-6.73109
-6.75706
-6.61892
-6.34877
-5.984
-5.56152
-5.11501
-4.67323
-4.25553
-3.88558
-3.57118
-3.32333
-3.14512
-3.04379
-3.01026
-3.05017
-3.15346
-3.31318
-6.86626
-7.0113
-6.96702
-6.76223
-6.43908
-6.03921
-5.59989
-5.15294
-4.72433
-4.32991
-3.99184
-3.71477
-3.50873
-3.37526
-3.32184
-3.33691
-3.4277
-3.5826
-3.79437
-7.23518
-7.30033
-7.1649
-6.88121
-6.50094
-6.06748
-5.61613
-5.1754
-4.7675
-4.40408
-4.10609
-3.87455
-3.71885
-3.63892
-3.64292
-3.71638
-3.86893
-4.08728
-4.36428
-7.64775
-7.57388
-7.32312
-6.95314
-6.51745
-6.05762
-5.60369
-5.17962
-4.80293
-4.48047
-4.23278
-4.05665
-3.96143
-3.94544
-4.01825
-4.16185
-4.38951
-4.68611
-5.04535
-7.97899
-7.74957
-7.38115
-6.93192
-6.45399
-5.98453
-5.54476
-5.15335
-4.82257
-4.55417
-4.36958
-4.26092
-4.23838
-4.29889
-4.45449
-4.68308
-5.00348
-5.39887
-5.86504
-8.24399
-7.86332
-7.3742
-6.8544
-6.34944
-5.88724
-5.47684
-5.13157
-4.85867
-4.65494
-4.5444
-4.514
-4.57589
-4.72572
-4.97926
-5.30959
-5.74339
-6.26251
-6.86765
-8.45279
-7.86057
-7.252
-6.68592
-6.18141
-5.75146
-5.39075
-5.10874
-4.90856
-4.78268
-4.75977
-4.82126
-4.98255
-5.23832
-5.60987
-6.06458
-6.64046
-7.31898
-8.11152
-8.41063
-7.62234
-6.94641
-6.38589
-5.9227
-5.5567
-5.26953
-5.07022
-4.95941
-4.92619
-5.00633
-5.1755
-5.45417
-5.83677
-6.35286
-6.96375
-7.72441
-8.61856
-9.68147
-8.05748
-7.18032
-6.5154
-6.01384
-5.6266
-5.34816
-5.15115
-5.0479
-5.03854
-5.10987
-5.3072
-5.60046
-6.01731
-6.55298
-7.24896
-8.06046
-9.06739
-10.2609
-11.7325
-7.3227
-6.50146
-5.93846
-5.55012
-5.27193
-5.10289
-5.01182
-5.01771
-5.12217
-5.31111
-5.64175
-6.07925
-6.66122
-7.38604
-8.31293
-9.39296
-10.7445
-12.3777
-14.5249
-6.20778
-5.61595
-5.23736
-5.00373
-4.85791
-4.81281
-4.8383
-4.96234
-5.18993
-5.50787
-5.98778
-6.59225
-7.37302
-8.33608
-9.5681
-11.0223
-12.8793
-15.1924
-18.5696
-4.80529
-4.57295
-4.42981
-4.37337
-4.37211
-4.45776
-4.60457
-4.85043
-5.20551
-5.65971
-6.30212
-7.09678
-8.11611
-9.3826
-11.0276
-13.0227
-15.6567
-19.0774
-24.9429
-3.28521
-3.4351
-3.53335
-3.65555
-3.79982
-4.01504
-4.28082
-4.64445
-5.12264
-5.71124
-6.52041
-7.52195
-8.81943
-10.469
-12.679
-15.4774
-19.3573
-24.6763
-36.0953
-1.83537
-2.26708
-2.56682
-2.85017
-3.13128
-3.46767
-3.84209
-4.30932
-4.89256
-5.59685
-6.55733
-7.76051
-9.35722
-11.4696
-14.4419
-18.4496
-24.401
-33.1448
-57.961
-0.602351
-1.12024
-1.54771
-1.96259
-2.36621
-2.81091
-3.2761
-3.82198
-4.4735
-5.24898
-6.31139
-7.66243
-9.52816
-12.1775
-16.2823
-22.6711
-34.0678
-55.0776
-130.112
)
;

boundaryField
{
    up
    {
        type            calculated;
        value           nonuniform List<scalar> 
84
(
-117.908
-63.8576
-39.1956
-26.7507
-19.7278
-15.3234
-12.3129
-10.1193
-8.44873
-7.1322
-6.07357
-5.2098
-4.49456
-3.89719
-3.39398
-2.96589
-2.59803
-2.2788
-1.99882
-1.74908
-1.52089
-1.30138
-1.06012
-0.683525
-0.66182
-0.836982
-0.97171
-1.10734
-1.25819
-1.43653
-1.65771
-1.94135
-2.37341
-4.13993
-5.62092
-5.87735
-5.78134
-5.92202
-6.11244
-6.28562
-6.41392
-6.49325
-6.49345
-6.41469
-6.28675
-6.11365
-5.92327
-5.78207
-5.87639
-5.62336
-4.15755
-2.37656
-1.94363
-1.65955
-1.43792
-1.25926
-1.10822
-0.972594
-0.838244
-0.662706
-0.683087
-1.06017
-1.3014
-1.52088
-1.74906
-1.9988
-2.27878
-2.598
-2.96586
-3.39395
-3.89716
-4.49454
-5.2098
-6.07359
-7.13224
-8.44879
-10.1194
-12.313
-15.3235
-19.7279
-26.7507
-39.1957
-63.8576
-117.908
)
;
    }
    low
    {
        type            calculated;
        value           nonuniform List<scalar> 
84
(
-0.646054
-1.91658
-3.46224
-5.10459
-6.62325
-7.81673
-8.57086
-8.89072
-8.83809
-8.50608
-8.17552
-7.78038
-7.28082
-6.86357
-6.49222
-6.11696
-5.77738
-5.49788
-5.20813
-4.88619
-4.6145
-4.37815
-4.15319
-3.95242
-3.76227
-3.64548
-3.64987
-3.79189
-4.03937
-4.38952
-4.81904
-5.26506
-5.77847
-6.38149
-7.0421
-7.80143
-8.65971
-9.43377
-10.0616
-10.5685
-10.9402
-11.1932
-11.1932
-10.9402
-10.5686
-10.0616
-9.43386
-8.65982
-7.80157
-7.04207
-6.38159
-5.77844
-5.26505
-4.81903
-4.38953
-4.03936
-3.7919
-3.64988
-3.64551
-3.76234
-3.95256
-4.15323
-4.3782
-4.61454
-4.88622
-5.20816
-5.4979
-5.77739
-6.11696
-6.49219
-6.86353
-7.28079
-7.78033
-8.17548
-8.50607
-8.8381
-8.89075
-8.5709
-7.81678
-6.62329
-5.10463
-3.46227
-1.91658
-0.646055
)
;
    }
    left
    {
        type            calculated;
        value           nonuniform List<scalar> 
19
(
-0.590771
-1.099
-1.53446
-1.96253
-2.3823
-2.84451
-3.32977
-3.90146
-4.58558
-5.40997
-6.54554
-8.00178
-10.0356
-12.9689
-17.5559
-24.8121
-37.9086
-62.3391
-122.294
)
;
    }
    right
    {
        type            calculated;
        value           nonuniform List<scalar> 
19
(
-0.590771
-1.099
-1.53446
-1.96253
-2.3823
-2.84451
-3.32977
-3.90145
-4.58558
-5.40996
-6.54552
-8.00177
-10.0356
-12.9689
-17.5558
-24.812
-37.9085
-62.339
-122.294
)
;
    }
    frontAndBackPlanes
    {
        type            empty;
    }
}


// ************************************************************************* //
