/*--------------------------------*- C++ -*----------------------------------*\
  =========                 |
  \\      /  F ield         | OpenFOAM: The Open Source CFD Toolbox
   \\    /   O peration     | Website:  https://openfoam.org
    \\  /    A nd           | Version:  7
     \\/     M anipulation  |
\*---------------------------------------------------------------------------*/
FoamFile
{
    version     2.0;
    format      ascii;
    class       volScalarField;
    location    "0.242";
    object      gradTy;
}
// * * * * * * * * * * * * * * * * * * * * * * * * * * * * * * * * * * * * * //

dimensions      [0 -1 0 1 0 0 0];

internalField   nonuniform List<scalar> 
1596
(
-0.628256
-1.16736
-1.61012
-2.03689
-2.44834
-2.89807
-3.36402
-3.9076
-4.55358
-5.32009
-6.37233
-7.7111
-9.5643
-12.2017
-16.2966
-22.6779
-34.0702
-55.0784
-130.112
-1.91383
-2.36097
-2.66683
-2.95154
-3.22966
-3.56069
-3.92652
-4.38352
-4.95515
-5.64638
-6.59482
-7.78607
-9.37242
-11.4763
-14.4429
-18.447
-24.3973
-33.1417
-57.9594
-3.42523
-3.57641
-3.66873
-3.78123
-3.91216
-4.11251
-4.36124
-4.7074
-5.16822
-5.73956
-6.53415
-7.52286
-8.8106
-10.4535
-12.6605
-15.4585
-19.3407
-24.6636
-36.0878
-5.00983
-4.76062
-4.59838
-4.52129
-4.4971
-4.55922
-4.68134
-4.90309
-5.23528
-5.66788
-6.29261
-7.07258
-8.08152
-9.34174
-10.9853
-12.9819
-15.621
-19.0489
-24.9232
-6.47205
-5.84659
-5.43676
-5.17255
-4.99524
-4.91891
-4.91285
-5.00668
-5.20608
-5.49796
-5.95661
-6.54373
-7.31238
-8.26835
-9.49899
-10.9556
-12.8195
-15.1422
-18.5315
-7.63494
-6.76929
-6.16593
-5.73895
-5.4221
-5.21519
-5.08654
-5.05664
-5.12784
-5.28625
-5.59167
-6.00851
-6.57573
-7.29153
-8.21596
-9.29809
-10.6571
-12.3014
-14.4627
-8.40215
-7.47757
-6.7674
-6.22167
-5.79031
-5.4686
-5.22887
-5.08486
-5.03752
-5.0739
-5.24185
-5.5107
-5.90947
-6.43332
-7.12469
-7.93683
-8.95066
-10.1555
-11.6422
-8.77225
-7.93989
-7.21812
-6.61081
-6.10006
-5.68681
-5.35285
-5.10856
-4.95556
-4.88324
-4.92986
-5.07067
-5.32752
-5.69487
-6.20336
-6.81251
-7.57839
-8.48294
-9.5607
-8.81889
-8.19062
-7.5391
-6.92614
-6.37242
-5.89254
-5.48189
-5.15138
-4.90524
-4.73643
-4.67596
-4.70512
-4.84065
-5.07742
-5.43787
-5.88783
-6.46646
-7.15356
-7.95968
-8.60457
-8.19657
-7.66967
-7.1053
-6.5515
-6.03839
-5.57627
-5.18011
-4.85843
-4.6087
-4.45716
-4.39086
-4.42324
-4.55028
-4.78896
-5.11107
-5.54445
-6.0695
-6.68603
-8.33222
-8.08143
-7.6803
-7.18968
-6.66439
-6.14411
-5.65178
-5.20792
-4.8263
-4.50952
-4.28112
-4.1335
-4.07816
-4.11243
-4.24954
-4.46644
-4.78305
-5.18133
-5.65624
-7.9913
-7.90225
-7.62352
-7.21548
-6.73433
-6.22433
-5.71758
-5.24008
-4.81105
-4.43839
-4.14463
-3.92709
-3.79628
-3.75106
-3.80214
-3.93081
-4.15138
-4.44776
-4.81289
-7.56587
-7.62147
-7.4627
-7.14445
-6.72107
-6.23872
-5.73498
-5.2406
-4.77963
-4.36498
-4.01951
-3.74488
-3.55157
-3.44007
-3.41961
-3.47526
-3.6176
-3.83263
-4.11258
-7.18618
-7.32476
-7.26064
-7.02425
-6.66011
-6.21264
-5.72153
-5.22102
-4.73907
-4.29294
-3.90664
-3.58554
-3.34069
-3.17412
-3.09427
-3.0893
-3.16727
-3.3161
-3.5281
-6.83325
-7.03745
-7.04614
-6.87866
-6.56916
-6.15781
-5.68404
-5.18411
-4.68894
-4.21944
-3.80104
-3.44237
-3.15526
-2.94327
-2.81437
-2.75934
-2.78447
-2.87947
-3.03706
-6.48617
-6.75303
-6.82327
-6.71411
-6.45318
-6.07656
-5.62217
-5.12727
-4.62482
-4.13865
-3.69572
-3.30736
-2.98634
-2.73756
-2.56884
-2.47307
-2.45538
-2.507
-2.62126
-6.17068
-6.48061
-6.60082
-6.54035
-6.32106
-5.97563
-5.54017
-5.0523
-4.54641
-4.04861
-3.58727
-3.17591
-2.82825
-2.55029
-2.34984
-2.22146
-2.16953
-2.18655
-2.26645
-5.89332
-6.2331
-6.39261
-6.37189
-6.18718
-5.86793
-5.44881
-4.96754
-4.45961
-3.95304
-3.47737
-3.04799
-2.67936
-2.37836
-2.15273
-1.99839
-1.91919
-1.90872
-1.96143
-5.61471
-6.00771
-6.20853
-6.22385
-6.06885
-5.7711
-5.3647
-4.88766
-4.37673
-3.86174
-3.3733
-2.9285
-2.54235
-2.22233
-1.97602
-1.80038
-1.69889
-1.66615
-1.69713
-5.32742
-5.78119
-6.02878
-6.08088
-5.95399
-5.67561
-5.28013
-4.80638
-4.2925
-3.77014
-3.271
-2.81362
-2.41344
-2.07826
-1.81529
-1.62212
-1.50213
-1.45114
-1.46485
-5.08089
-5.57583
-5.86686
-5.95457
-5.85381
-5.59226
-5.20519
-4.73277
-4.21481
-3.6849
-3.17583
-2.70751
-2.29565
-1.94806
-1.6712
-1.46269
-1.32582
-1.25806
-1.257
-4.86213
-5.3955
-5.72655
-5.84819
-5.77212
-5.52558
-5.14503
-4.67229
-4.14913
-3.6112
-3.09245
-2.61411
-2.19216
-1.83419
-1.54545
-1.32262
-1.16805
-1.08106
-1.06404
-4.66036
-5.23687
-5.60775
-5.76225
-5.70971
-5.47695
-5.1017
-4.62768
-4.09875
-3.55264
-3.0245
-2.53685
-2.10599
-1.73937
-1.4408
-1.20473
-1.03021
-0.915326
-0.870981
-4.48094
-5.10083
-5.50877
-5.69095
-5.65597
-5.43037
-5.05461
-4.57409
-4.03538
-3.47876
-2.93913
-2.44172
-2.00269
-1.6297
-1.32481
-1.08048
-0.888391
-0.73607
-0.614337
-4.33593
-4.99604
-5.44753
-5.67225
-5.67815
-5.48896
-5.14511
-4.68997
-4.16958
-3.62508
-3.08869
-2.5885
-2.1404
-1.75517
-1.43589
-1.17819
-0.969944
-0.794058
-0.624114
-4.23571
-4.91964
-5.39576
-5.64906
-5.68672
-5.53022
-5.21797
-4.79077
-4.29253
-3.76351
-3.23308
-2.73021
-2.27117
-1.86922
-1.53037
-1.25614
-1.03764
-0.864397
-0.719074
-4.23345
-4.92126
-5.40619
-5.67509
-5.73434
-5.60474
-5.32189
-4.92451
-4.45359
-3.94675
-3.43109
-2.93315
-2.46855
-2.05177
-1.69241
-1.39686
-1.16087
-0.977277
-0.831099
-4.34042
-5.01105
-5.48432
-5.74986
-5.81452
-5.69925
-5.43749
-5.06586
-4.62231
-4.14127
-3.6466
-3.16115
-2.69773
-2.27003
-1.89011
-1.56968
-1.31038
-1.10923
-0.952772
-4.54519
-5.18671
-5.63119
-5.87686
-5.93287
-5.82085
-5.57264
-5.22275
-4.80607
-4.35383
-3.88616
-3.42155
-2.96799
-2.53565
-2.1364
-1.78704
-1.49681
-1.26971
-1.0947
-4.84206
-5.43312
-5.83256
-6.04507
-6.08168
-5.96462
-5.72448
-5.39356
-5.00383
-4.58362
-4.14949
-3.71591
-3.28485
-2.85978
-2.44775
-2.06775
-1.7374
-1.47268
-1.26887
-5.2265
-5.74659
-6.09061
-6.26128
-6.27111
-6.14296
-5.90647
-5.59167
-5.22781
-4.84096
-4.44498
-4.05195
-3.65838
-3.25925
-2.85049
-2.44572
-2.06608
-1.74492
-1.49413
-5.64357
-6.10253
-6.38919
-6.51345
-6.49217
-6.34932
-6.11377
-5.81306
-5.47384
-5.1205
-4.76536
-4.42083
-4.08127
-3.73528
-3.36366
-2.96358
-2.54157
-2.1404
-1.80589
-6.1202
-6.50947
-6.73094
-6.80254
-6.74543
-6.58429
-6.34669
-6.05728
-5.73985
-5.41721
-5.10072
-4.80569
-4.52959
-4.26279
-3.97695
-3.65114
-3.25222
-2.79048
-2.28442
-6.67738
-6.98177
-7.13004
-7.1453
-7.05165
-6.8736
-6.63623
-6.36091
-6.06807
-5.77826
-5.50256
-5.25875
-5.05164
-4.88385
-4.73795
-4.59951
-4.41638
-4.15923
-3.79337
-7.29755
-7.5033
-7.55976
-7.50035
-7.35167
-7.13765
-6.87941
-6.59514
-6.30135
-6.0137
-5.74255
-5.50179
-5.29913
-5.14394
-5.03834
-4.99237
-4.99196
-5.02416
-5.06074
-7.999
-8.07023
-8.01456
-7.86827
-7.65586
-7.39872
-7.11347
-6.81558
-6.51832
-6.23307
-5.97018
-5.73829
-5.54382
-5.39209
-5.28723
-5.23421
-5.23727
-5.30247
-5.43707
-8.77349
-8.67915
-8.50471
-8.27335
-8.00174
-7.70579
-7.39776
-7.08992
-6.79281
-6.51502
-6.26542
-6.04944
-5.87103
-5.73153
-5.63069
-5.56369
-5.52584
-5.50856
-5.50404
-9.48662
-9.23445
-8.94807
-8.63617
-8.30769
-7.97278
-7.63992
-7.31791
-7.0146
-6.73623
-6.48912
-6.27689
-6.10128
-5.96194
-5.85722
-5.78238
-5.73287
-5.70249
-5.68546
-10.0696
-9.70205
-9.32777
-8.95059
-8.57534
-8.20812
-7.85446
-7.52026
-7.2112
-6.93162
-6.68602
-6.47683
-6.3046
-6.16831
-6.06589
-5.99292
-5.94487
-5.91616
-5.90117
-10.5365
-10.0773
-9.6333
-9.20444
-8.79221
-8.39942
-8.02919
-7.68513
-7.37122
-7.09038
-6.84581
-6.63921
-6.47032
-6.33774
-6.2391
-6.17012
-6.12609
-6.10168
-6.09129
-10.8762
-10.3478
-9.85115
-9.38418
-8.9453
-8.53441
-8.1526
-7.80173
-7.48454
-7.20298
-6.95941
-6.75505
-6.58915
-6.46002
-6.36503
-6.29982
-6.2594
-6.23834
-6.23088
-11.0943
-10.5014
-9.96742
-9.47726
-9.02352
-8.60308
-8.21539
-7.8612
-7.54254
-7.26086
-7.01808
-6.8152
-6.65127
-6.52452
-6.43227
-6.37028
-6.33351
-6.31662
-6.31376
-11.0944
-10.5015
-9.96754
-9.4774
-9.02367
-8.60323
-8.21554
-7.86135
-7.5427
-7.26102
-7.01824
-6.81537
-6.65145
-6.52471
-6.43247
-6.37048
-6.33372
-6.31684
-6.31399
-10.8763
-10.348
-9.85143
-9.38451
-8.94566
-8.53479
-8.153
-7.80215
-7.48497
-7.20343
-6.95987
-6.75553
-6.58966
-6.46056
-6.3656
-6.30044
-6.26007
-6.23907
-6.23168
-10.5366
-10.0776
-9.63375
-9.20496
-8.79278
-8.40003
-8.02983
-7.6858
-7.37191
-7.0911
-6.84656
-6.63999
-6.47114
-6.33861
-6.24002
-6.1711
-6.12714
-6.1028
-6.0925
-10.0698
-9.70246
-9.32833
-8.95125
-8.57608
-8.2089
-7.85528
-7.52112
-7.2121
-6.93256
-6.68699
-6.47784
-6.30564
-6.16939
-6.06701
-5.99409
-5.9461
-5.91745
-5.90252
-9.48681
-9.23491
-8.94871
-8.63693
-8.30854
-7.9737
-7.6409
-7.31894
-7.01567
-6.73734
-6.49028
-6.27808
-6.10251
-5.96322
-5.85853
-5.78372
-5.73425
-5.70391
-5.68692
-8.77371
-8.67965
-8.5054
-8.27418
-8.00267
-7.70681
-7.39884
-7.09107
-6.79401
-6.51627
-6.26671
-6.05078
-5.8724
-5.73291
-5.63206
-5.56502
-5.5271
-5.50973
-5.50512
-7.99924
-8.07079
-8.01541
-7.86935
-7.65714
-7.4002
-7.11512
-6.81739
-6.52031
-6.23523
-5.97254
-5.74086
-5.54661
-5.3951
-5.29042
-5.23744
-5.24026
-5.30472
-5.43786
-7.2977
-7.50341
-7.55988
-7.50052
-7.35189
-7.1379
-6.87967
-6.59539
-6.30155
-6.0138
-5.7425
-5.50149
-5.2985
-5.14284
-5.03676
-4.99039
-4.99018
-5.02372
-5.06346
-6.67745
-6.98208
-7.13059
-7.14614
-7.05281
-6.8751
-6.63804
-6.36304
-6.07051
-5.78096
-5.50555
-5.26202
-5.05527
-4.88802
-4.74305
-4.60607
-4.42513
-4.1708
-3.8081
-6.12022
-6.50951
-6.73111
-6.8029
-6.746
-6.58509
-6.34772
-6.05854
-5.74132
-5.41887
-5.10257
-4.80777
-4.53197
-4.26565
-3.98046
-3.65542
-3.25707
-2.79529
-2.28803
-5.64357
-6.10254
-6.3893
-6.51373
-6.49267
-6.35008
-6.11478
-5.81432
-5.47533
-5.12221
-4.76729
-4.42302
-4.08378
-3.73817
-3.36692
-2.96707
-2.54495
-2.14331
-1.80818
-5.22648
-5.74655
-6.09065
-6.26147
-6.27152
-6.14362
-5.90739
-5.59284
-5.22922
-4.84259
-4.44684
-4.05404
-3.66071
-3.2618
-2.85317
-2.44835
-2.06844
-1.7469
-1.49575
-4.84204
-5.43305
-5.83254
-6.0452
-6.08201
-5.96519
-5.72531
-5.39465
-5.00515
-4.58515
-4.15122
-3.71783
-3.28692
-2.86195
-2.4499
-2.06974
-1.73914
-1.47415
-1.27012
-4.54516
-5.18661
-5.63113
-5.87692
-5.93313
-5.82134
-5.57338
-5.22373
-4.80728
-4.35524
-3.88774
-3.42326
-2.96979
-2.53745
-2.13811
-1.78859
-1.49816
-1.27087
-1.09573
-4.34038
-5.01094
-5.48424
-5.74988
-5.81472
-5.69967
-5.43814
-5.06674
-4.62339
-4.14254
-3.648
-3.16264
-2.69925
-2.27152
-1.89149
-1.57092
-1.31146
-1.11019
-0.953668
-4.23341
-4.92115
-5.40609
-5.67508
-5.73449
-5.60509
-5.32246
-4.92528
-4.45455
-3.94787
-3.43231
-2.93443
-2.46983
-2.053
-1.69354
-1.39787
-1.16177
-0.978109
-0.831937
-4.23566
-4.91951
-5.39562
-5.64898
-5.68675
-5.5304
-5.21831
-4.79127
-4.29317
-3.76427
-3.2339
-2.73106
-2.27202
-1.87001
-1.53107
-1.25676
-1.0382
-0.864981
-0.719834
-4.33602
-4.99609
-5.44759
-5.67236
-5.67833
-5.48923
-5.14548
-4.69044
-4.17015
-3.62574
-3.08942
-2.58927
-2.14119
-1.75595
-1.43665
-1.17892
-0.970624
-0.794671
-0.624607
-4.48104
-5.10092
-5.50883
-5.69096
-5.65591
-5.43024
-5.0544
-4.57383
-4.03507
-3.47842
-2.93878
-2.44138
-2.00237
-1.6294
-1.32452
-1.08021
-0.888117
-0.735776
-0.61398
-4.66043
-5.23693
-5.6078
-5.7623
-5.70974
-5.47697
-5.1017
-4.62767
-4.09873
-3.55262
-3.02449
-2.53685
-2.106
-1.73938
-1.44082
-1.20475
-1.03025
-0.915372
-0.871027
-4.86218
-5.39554
-5.72658
-5.8482
-5.77212
-5.52556
-5.14499
-4.67225
-4.14909
-3.61116
-3.09242
-2.61409
-2.19215
-1.83419
-1.54546
-1.32263
-1.16808
-1.08109
-1.06407
-5.08093
-5.57587
-5.86688
-5.95457
-5.8538
-5.59223
-5.20516
-4.73274
-4.21478
-3.68487
-3.17581
-2.7075
-2.29564
-1.94807
-1.67121
-1.46271
-1.32584
-1.25808
-1.25702
-5.32745
-5.78121
-6.02879
-6.08088
-5.95397
-5.67558
-5.2801
-4.80635
-4.29247
-3.77012
-3.27098
-2.81361
-2.41344
-2.07827
-1.8153
-1.62213
-1.50215
-1.45116
-1.46487
-5.61473
-6.00773
-6.20853
-6.22385
-6.06884
-5.77108
-5.36468
-4.88764
-4.37671
-3.86172
-3.37329
-2.9285
-2.54235
-2.22233
-1.97603
-1.80039
-1.6989
-1.66616
-1.69713
-5.89334
-6.23311
-6.39261
-6.37188
-6.18717
-5.86792
-5.4488
-4.96753
-4.4596
-3.95304
-3.47736
-3.04799
-2.67936
-2.37836
-2.15273
-1.9984
-1.9192
-1.90872
-1.96143
-6.17069
-6.48061
-6.60081
-6.54034
-6.32105
-5.97562
-5.54016
-5.0523
-4.54641
-4.04861
-3.58727
-3.17591
-2.82825
-2.5503
-2.34984
-2.22147
-2.16953
-2.18655
-2.26645
-6.48618
-6.75303
-6.82326
-6.7141
-6.45317
-6.07655
-5.62217
-5.12727
-4.62481
-4.13864
-3.69572
-3.30736
-2.98634
-2.73756
-2.56884
-2.47307
-2.45538
-2.50699
-2.62125
-6.83324
-7.03744
-7.04613
-6.87865
-6.56915
-6.15781
-5.68404
-5.18411
-4.68894
-4.21943
-3.80104
-3.44237
-3.15526
-2.94327
-2.81437
-2.75934
-2.78447
-2.87945
-3.03705
-7.18616
-7.32475
-7.26063
-7.02424
-6.66011
-6.21264
-5.72153
-5.22102
-4.73907
-4.29294
-3.90664
-3.58554
-3.34068
-3.17412
-3.09426
-3.0893
-3.16725
-3.31609
-3.52809
-7.56585
-7.62146
-7.4627
-7.14446
-6.72107
-6.23873
-5.73498
-5.2406
-4.77963
-4.36498
-4.01951
-3.74488
-3.55157
-3.44006
-3.4196
-3.47525
-3.61758
-3.83261
-4.11257
-7.99128
-7.90224
-7.62351
-7.21548
-6.73433
-6.22433
-5.71758
-5.24008
-4.81105
-4.43839
-4.14463
-3.92709
-3.79628
-3.75105
-3.80213
-3.93079
-4.15136
-4.44774
-4.81288
-8.3322
-8.08143
-7.68031
-7.18969
-6.6644
-6.14412
-5.65179
-5.20793
-4.82631
-4.50952
-4.28112
-4.1335
-4.07816
-4.11242
-4.24953
-4.46642
-4.78303
-5.18131
-5.65623
-8.60456
-8.19658
-7.66969
-7.10532
-6.55151
-6.0384
-5.57628
-5.18011
-4.85843
-4.60871
-4.45716
-4.39085
-4.42324
-4.55027
-4.78895
-5.11106
-5.54443
-6.06948
-6.68603
-8.8189
-8.19065
-7.53912
-6.92616
-6.37244
-5.89255
-5.4819
-5.15138
-4.90524
-4.73644
-4.67596
-4.70512
-4.84064
-5.07741
-5.43786
-5.88782
-6.46644
-7.15355
-7.95968
-8.77226
-7.93992
-7.21814
-6.61082
-6.10007
-5.68681
-5.35286
-5.10857
-4.95556
-4.88324
-4.92986
-5.07066
-5.32751
-5.69486
-6.20335
-6.81249
-7.57838
-8.48293
-9.56071
-8.40218
-7.4776
-6.76742
-6.22168
-5.79032
-5.46861
-5.22888
-5.08487
-5.03753
-5.0739
-5.24184
-5.51069
-5.90946
-6.43331
-7.12468
-7.93682
-8.95065
-10.1555
-11.6422
-7.63498
-6.76932
-6.16595
-5.73896
-5.42211
-5.2152
-5.08655
-5.05664
-5.12785
-5.28625
-5.59167
-6.0085
-6.57572
-7.29152
-8.21595
-9.29808
-10.6571
-12.3014
-14.4628
-6.47209
-5.84661
-5.43677
-5.17257
-4.99526
-4.91892
-4.91286
-5.00669
-5.20608
-5.49796
-5.95661
-6.54372
-7.31237
-8.26834
-9.49898
-10.9556
-12.8195
-15.1422
-18.5315
-5.00986
-4.76064
-4.59839
-4.5213
-4.49711
-4.55923
-4.68135
-4.9031
-5.23528
-5.66789
-6.2926
-7.07257
-8.08151
-9.34173
-10.9853
-12.9819
-15.621
-19.0489
-24.9232
-3.42525
-3.57642
-3.66874
-3.78124
-3.91217
-4.11252
-4.36125
-4.70741
-5.16822
-5.73956
-6.53415
-7.52285
-8.81059
-10.4535
-12.6605
-15.4584
-19.3407
-24.6636
-36.0878
-1.91384
-2.36097
-2.66683
-2.95155
-3.22966
-3.56069
-3.92653
-4.38352
-4.95515
-5.64638
-6.59481
-7.78606
-9.37241
-11.4763
-14.4429
-18.447
-24.3973
-33.1417
-57.9594
-0.628259
-1.16736
-1.61012
-2.03689
-2.44834
-2.89807
-3.36402
-3.9076
-4.55358
-5.32009
-6.37233
-7.71109
-9.56429
-12.2017
-16.2966
-22.6779
-34.0702
-55.0784
-130.112
)
;

boundaryField
{
    up
    {
        type            calculated;
        value           nonuniform List<scalar> 
84
(
-117.907
-63.8581
-39.1922
-26.7369
-19.697
-15.2694
-12.231
-10.0066
-8.30407
-6.95662
-5.86949
-4.9807
-4.24487
-3.6317
-3.11758
-2.68334
-2.31384
-1.99713
-1.72351
-1.48406
-1.27055
-1.07184
-0.862865
-0.551658
-0.534186
-0.676785
-0.789231
-0.907211
-1.04286
-1.20758
-1.41612
-1.68721
-2.10064
-3.7637
-5.20973
-5.52976
-5.49799
-5.67725
-5.89507
-6.08814
-6.22959
-6.31521
-6.31543
-6.23043
-6.08938
-5.89645
-5.67874
-5.49906
-5.52931
-5.2127
-3.78091
-2.10401
-1.68923
-1.41765
-1.20879
-1.04387
-0.908098
-0.790078
-0.677804
-0.534829
-0.551273
-0.862907
-1.07187
-1.27057
-1.48407
-1.72352
-1.99713
-2.31384
-2.68334
-3.11757
-3.63169
-4.24486
-4.98069
-5.86949
-6.95663
-8.30409
-10.0066
-12.231
-15.2694
-19.697
-26.7369
-39.1922
-63.8581
-117.907
)
;
    }
    low
    {
        type            calculated;
        value           nonuniform List<scalar> 
84
(
-0.674025
-1.99921
-3.61114
-5.32381
-6.90763
-8.15278
-8.94043
-9.27602
-9.22391
-8.88115
-8.54058
-8.13313
-7.61697
-7.18692
-6.80474
-6.41806
-6.06817
-5.78054
-5.48113
-5.14678
-4.86418
-4.61769
-4.38219
-4.17121
-3.97046
-3.84624
-3.84883
-3.99515
-4.25081
-4.61211
-5.05374
-5.50896
-6.0303
-6.64014
-7.30431
-8.06484
-8.92206
-9.68881
-10.3048
-10.7998
-11.1622
-11.4111
-11.4112
-11.1622
-10.7999
-10.3049
-9.68891
-8.92218
-8.06499
-7.30426
-6.64023
-6.03025
-5.50893
-5.05372
-4.61209
-4.25079
-3.99516
-3.84884
-3.84627
-3.97052
-4.17134
-4.38223
-4.61774
-4.86421
-5.14681
-5.48115
-5.78056
-6.06818
-6.41806
-6.80473
-7.1869
-7.61695
-8.1331
-8.54054
-8.88112
-9.2239
-9.27604
-8.94047
-8.15283
-6.90768
-5.32385
-3.61117
-1.99922
-0.674031
)
;
    }
    left
    {
        type            calculated;
        value           nonuniform List<scalar> 
19
(
-0.616195
-1.14527
-1.5964
-2.0369
-2.46503
-2.93267
-3.41888
-3.98826
-4.66659
-5.48158
-6.60639
-8.04961
-10.0702
-12.991
-17.5676
-24.8161
-37.9085
-62.3382
-122.294
)
;
    }
    right
    {
        type            calculated;
        value           nonuniform List<scalar> 
19
(
-0.616199
-1.14527
-1.5964
-2.0369
-2.46503
-2.93267
-3.41888
-3.98826
-4.66659
-5.48158
-6.60638
-8.0496
-10.0701
-12.991
-17.5676
-24.8161
-37.9085
-62.3382
-122.294
)
;
    }
    frontAndBackPlanes
    {
        type            empty;
    }
}


// ************************************************************************* //
