/*--------------------------------*- C++ -*----------------------------------*\
  =========                 |
  \\      /  F ield         | OpenFOAM: The Open Source CFD Toolbox
   \\    /   O peration     | Website:  https://openfoam.org
    \\  /    A nd           | Version:  7
     \\/     M anipulation  |
\*---------------------------------------------------------------------------*/
FoamFile
{
    version     2.0;
    format      ascii;
    class       volScalarField;
    location    "0.15";
    object      gradTz;
}
// * * * * * * * * * * * * * * * * * * * * * * * * * * * * * * * * * * * * * //

dimensions      [0 -1 0 1 0 0 0];

internalField   nonuniform List<scalar> 
1596
(
-1.61348e-16
-7.7807e-17
7.97683e-17
2.37432e-18
-1.5011e-16
0
-6.89668e-17
-6.8019e-17
-5.47994e-18
-3.63541e-17
-2.65968e-19
-3.6351e-17
1.61318e-16
-3.61568e-17
1.68542e-16
1.45763e-16
8.67912e-17
1.09847e-16
0
1.6047e-16
0
2.21623e-16
-2.04072e-18
-6.61141e-17
6.53676e-17
1.37311e-16
5.28753e-18
6.45444e-17
-3.13267e-17
6.26771e-17
-7.68799e-19
-8.72286e-17
-5.47719e-17
-1.36172e-16
-1.33199e-16
-1.21403e-16
6.92732e-17
0
-7.76535e-17
0
-1.42364e-16
3.22585e-18
1.26542e-16
-3.74421e-17
3.81981e-18
-8.60211e-19
-7.86573e-19
-7.75652e-19
2.20829e-17
0
4.52212e-17
1.27533e-16
-1.26331e-17
1.03505e-17
2.42473e-17
3.84828e-17
0
1.23326e-16
-3.55955e-17
3.54655e-17
0
-3.36127e-17
-3.53311e-17
5.70624e-17
-4.75414e-17
0
0
-1.9968e-17
1.15604e-17
0
-3.71341e-17
-4.64376e-17
3.26203e-17
-3.47434e-17
-1.7802e-18
0
2.16999e-17
5.51921e-17
-4.76871e-17
0
-1.3406e-17
-4.12344e-17
0
6.01093e-17
-5.85866e-18
-5.3116e-18
-7.32912e-18
3.04514e-17
3.84052e-17
4.18763e-18
2.92855e-18
-3.52571e-17
1.76249e-18
1.64291e-17
-7.21709e-18
-5.63511e-18
-7.54727e-17
6.94859e-17
-5.80682e-17
-1.67542e-19
-4.80511e-17
1.33129e-18
-1.3357e-18
-3.58399e-17
0
-6.10204e-18
-3.62004e-17
-3.4622e-17
2.7151e-17
3.0535e-17
-4.10773e-19
-1.8349e-17
-1.66638e-17
1.28595e-17
4.70936e-17
-7.64799e-17
8.21637e-17
4.44162e-17
0
3.71659e-17
2.08053e-17
-9.87834e-18
4.52124e-17
-8.29182e-18
-3.61141e-17
2.70074e-19
-2.06376e-17
-2.72624e-17
-2.05225e-17
1.80451e-17
1.85105e-17
-2.50832e-19
-5.29685e-18
6.14228e-18
1.22314e-16
-1.37394e-16
0
0
-4.39641e-17
0
0
0
2.65938e-17
0
0
1.91439e-17
5.64731e-19
6.53992e-18
-1.58987e-17
0
8.45759e-18
3.46369e-18
0
-7.74412e-17
1.47401e-16
0
0
4.52769e-17
0
-1.54649e-17
1.54493e-17
-2.70687e-17
1.08219e-17
-1.0901e-17
0
1.56017e-17
1.69371e-17
0
-9.73035e-18
-8.63493e-18
-3.04985e-18
1.97417e-16
-9.0903e-17
0
-5.67093e-17
5.60746e-17
0
3.62927e-17
0
0
0
9.42946e-18
-9.47466e-18
0
-1.21527e-17
-3.34517e-18
0
1.76087e-18
5.3314e-18
0
-5.01406e-17
0
0
5.69765e-17
-1.03727e-16
7.47938e-18
2.91205e-18
-1.3711e-17
2.14238e-18
8.6074e-19
-9.71143e-18
-1.45625e-17
0
1.08018e-17
-2.31368e-18
2.34841e-18
6.85359e-18
-4.24926e-18
-1.86954e-18
3.8687e-17
-5.89127e-18
3.7294e-17
1.20356e-16
-9.04602e-18
-4.7147e-17
0
0
0
2.01237e-17
7.43613e-18
2.61471e-17
-6.26941e-18
-1.06086e-17
-5.79674e-18
-3.41708e-18
1.54743e-18
-3.44692e-18
1.76219e-18
-4.47037e-17
4.39242e-17
-7.94829e-17
-1.19028e-16
1.07503e-16
3.84539e-17
-6.90354e-17
5.59151e-17
-4.51747e-17
1.19003e-17
8.15582e-18
-7.15696e-18
3.9127e-18
-3.73269e-18
1.1231e-17
0
-8.74716e-19
6.64255e-18
-9.99422e-19
-2.99036e-16
1.34511e-16
1.00505e-19
-2.55722e-17
4.80556e-18
3.73497e-17
-6.97439e-17
-2.62893e-17
2.08306e-17
-1.63959e-17
-1.2979e-17
0
-1.3416e-17
-3.8888e-18
-6.5214e-18
-3.83268e-18
2.98867e-19
-3.79321e-18
1.85628e-19
4.88667e-17
-4.21246e-17
4.36134e-20
-2.98008e-17
-6.92584e-17
6.40127e-17
3.55176e-19
2.56189e-17
-2.02813e-17
3.1251e-17
7.15068e-18
5.43765e-18
1.51474e-17
0
1.15807e-17
5.27515e-18
0
1.94449e-18
1.4166e-19
0
4.08657e-17
2.94548e-17
-6.28556e-17
6.69734e-17
-9.66532e-17
6.5042e-17
2.15713e-17
-4.57701e-18
-3.13592e-17
4.96117e-18
-4.93669e-18
-1.33189e-17
4.85283e-18
-2.52409e-18
-5.00285e-18
2.00916e-18
-1.26502e-18
5.76709e-19
-4.54731e-17
1.46392e-16
-1.09847e-16
5.52412e-17
0
0
-1.16347e-17
2.56716e-17
-1.55491e-17
2.84619e-17
0
0
8.68109e-18
-7.23631e-18
-4.5866e-18
1.4556e-18
-1.57955e-18
8.56192e-19
0
5.11894e-18
4.2549e-17
-3.17761e-17
-2.66475e-17
-3.91777e-17
-9.83784e-18
1.69573e-17
0
-1.43761e-17
-1.04225e-17
8.98753e-18
-6.65882e-18
4.91245e-18
0
1.81033e-18
3.13348e-18
0
0
0
-4.9588e-18
6.259e-17
2.09429e-17
-8.09293e-17
2.05582e-17
1.66515e-17
0
0
1.33063e-17
-7.05075e-18
-8.69289e-18
6.4403e-18
-4.75071e-18
0
-1.02243e-18
7.68973e-19
0
-6.50524e-19
-2.31282e-19
-3.50784e-17
1.02989e-16
-1.20779e-16
-4.38948e-17
2.36e-17
-1.54027e-17
1.19474e-17
0
-6.81177e-18
5.29901e-18
0
0
1.69166e-18
-1.69361e-18
4.27718e-19
-6.51228e-19
8.79969e-19
1.54209e-19
1.74949e-19
1.87481e-17
-1.62324e-17
7.78827e-17
-4.97728e-17
-1.82557e-17
3.16736e-18
2.5315e-17
8.38486e-18
6.51784e-18
0
2.89364e-18
-2.63984e-18
1.89257e-18
-1.45842e-18
1.57504e-18
-2.58053e-18
-6.82472e-19
5.81685e-19
1.44713e-19
4.88583e-17
-5.02124e-17
0
3.89342e-17
-2.11133e-17
-1.37355e-17
7.78243e-18
-2.62656e-17
0
-4.73468e-19
-3.59442e-18
-2.22071e-18
2.80829e-18
-2.9425e-19
-1.52225e-18
1.0391e-18
0
3.21571e-19
-1.40516e-19
8.6897e-17
-1.45251e-17
5.73097e-17
-4.46227e-17
2.10118e-17
-2.36668e-20
-2.23962e-17
-6.28886e-18
1.08086e-17
-6.16432e-19
-4.81766e-18
3.80699e-18
-1.55711e-18
-1.72092e-18
0
0
0
-3.24179e-19
1.16193e-20
-7.50573e-17
7.24783e-17
5.0071e-20
9.6687e-18
7.73035e-18
-1.66315e-17
1.8449e-17
-1.3692e-17
1.06718e-17
-2.89096e-18
5.37039e-18
1.61648e-18
-6.31707e-19
3.04985e-20
-1.60809e-19
-2.85592e-19
0
0
0
0
0
3.18195e-17
-1.79309e-17
-4.52566e-17
0
0
-3.96849e-18
-5.67516e-18
4.27263e-18
0
-2.03868e-18
1.4043e-18
-4.07312e-18
4.54674e-18
-1.27808e-18
1.35148e-18
1.37383e-19
0
-1.45168e-17
1.46955e-17
0
-1.03728e-17
1.0382e-17
1.55188e-17
0
4.00639e-18
4.16415e-18
-1.97753e-17
0
-2.38554e-18
1.65983e-18
1.02319e-18
-6.87041e-19
9.40366e-19
0
-3.06574e-19
0
-7.47424e-18
-7.13921e-18
4.21776e-19
1.06578e-17
-2.6729e-17
0
-5.86891e-18
0
1.34769e-17
4.79669e-18
0
9.44906e-18
-9.141e-18
1.09691e-18
-1.42828e-18
6.29642e-19
1.82534e-18
6.16571e-19
-4.89176e-19
0
1.51501e-17
-1.23443e-17
1.515e-17
1.66067e-17
0
1.17588e-17
-1.07339e-17
-7.32257e-18
9.62958e-18
-1.43055e-17
-6.00654e-18
0
0
9.33925e-19
0
0
2.2538e-19
0
-6.86131e-17
5.29848e-17
0
1.09834e-18
-9.46227e-18
-4.86663e-19
7.63171e-18
4.59816e-18
-6.38855e-18
-1.32387e-17
1.86984e-17
-5.18983e-18
0
-1.90292e-18
0
0
0
-8.80067e-19
7.05947e-19
-1.97507e-17
1.78595e-17
4.50821e-17
-4.32768e-17
1.26592e-17
9.39287e-19
-7.73749e-18
6.15225e-18
9.60021e-18
6.59963e-18
-1.29267e-17
0
5.1949e-18
2.00051e-19
-2.17851e-18
-4.1128e-18
3.31471e-18
-4.4112e-19
8.79743e-19
-6.80931e-17
9.16794e-17
-9.01442e-17
1.49398e-17
1.17987e-17
-1.08976e-17
8.83364e-18
-6.34399e-18
0
-4.69582e-18
6.60727e-18
2.8257e-18
4.24226e-18
4.60225e-18
-6.71865e-18
-2.48636e-19
0
-3.83552e-19
1.3118e-19
-7.36106e-17
-2.08367e-17
-3.45307e-17
1.88032e-17
-2.7941e-17
2.28286e-17
-1.32115e-17
1.02391e-17
-9.96304e-19
-9.65461e-19
-7.3494e-18
4.56335e-18
-1.90111e-18
6.07182e-18
-6.51816e-18
5.77182e-19
6.18076e-19
0
-2.37076e-19
7.95892e-17
-2.25747e-17
0
0
-2.86898e-17
5.48171e-17
-1.23249e-17
-2.1212e-18
1.66658e-17
-4.75537e-19
0
0
-2.99362e-18
0
-5.92593e-18
1.37882e-17
-9.36372e-18
0
1.01808e-19
2.67714e-17
4.86177e-17
0
-1.94346e-17
-1.46409e-17
-1.19968e-17
-1.29174e-17
4.92805e-18
-1.33469e-17
-6.73821e-18
0
0
4.60038e-18
0
0
-8.46793e-18
1.4088e-17
0
0
1.83832e-16
-2.39393e-17
-1.06727e-16
-5.43034e-17
7.39961e-17
2.21887e-17
1.25251e-17
0
-4.18987e-18
3.77741e-18
9.48428e-18
-2.97958e-18
-4.03687e-18
6.14955e-18
-6.54124e-18
-1.83387e-18
0
0
0
1.47209e-17
-1.12074e-16
1.09529e-16
-1.00823e-17
-7.42508e-17
1.1412e-16
-5.62057e-17
0
0
2.59448e-17
-2.09573e-17
0
-5.72763e-18
1.01215e-17
-1.02716e-18
2.84174e-18
8.40476e-19
1.14356e-20
1.766e-19
0
0
0
8.75529e-17
-5.89305e-17
5.78342e-17
-8.9249e-17
2.48374e-17
0
-8.21165e-18
1.25672e-17
-1.28445e-17
-2.36889e-18
4.14366e-20
-1.54769e-18
-2.00938e-19
-1.23603e-18
-3.53797e-19
-1.89472e-19
1.22156e-16
-2.15301e-16
1.00802e-16
0
2.49097e-17
-3.40741e-17
3.22062e-17
-2.5501e-17
0
-1.13533e-17
1.59306e-17
0
0
4.02326e-20
0
-1.69902e-18
1.15244e-18
1.87891e-19
3.05667e-19
1.21133e-16
0
-4.51026e-17
5.03156e-17
-2.99284e-17
6.4704e-17
-3.01364e-17
-2.2292e-17
2.25248e-17
-2.21324e-18
0
0
1.33267e-18
-2.15919e-18
-1.50999e-18
2.84208e-18
-6.14343e-19
3.05105e-19
0
6.86918e-17
5.15943e-17
-2.85809e-18
-4.81281e-17
-4.67345e-18
-3.25283e-17
4.22917e-18
2.65975e-17
-1.32629e-18
2.2548e-18
0
0
-1.36523e-18
0
1.57625e-18
-1.68621e-18
0
2.14446e-19
-5.89899e-20
-3.64426e-17
-2.59159e-17
2.42881e-17
-2.68267e-18
-1.17649e-18
3.09394e-18
0
-7.78676e-19
1.12525e-17
-9.47445e-18
0
3.02325e-18
-6.30131e-19
-2.63069e-18
-2.37538e-19
-1.83955e-19
0
-1.68045e-19
0
1.46302e-17
-2.7559e-17
-8.84455e-20
1.14671e-17
1.00223e-17
-9.92914e-18
-6.709e-18
7.58233e-18
-2.48664e-18
1.95375e-18
-1.81582e-18
1.87183e-18
0
4.61089e-21
-1.75455e-19
6.28376e-19
-2.13856e-21
0
0
1.46308e-17
-1.45759e-17
-1.14065e-17
1.01222e-17
1.76821e-17
-1.77864e-17
-3.35464e-18
3.36293e-18
-2.50792e-18
2.53413e-18
-1.81591e-18
3.40124e-18
-9.54098e-19
-6.71385e-19
-2.02213e-19
6.78986e-20
1.59111e-19
4.18791e-20
-3.13889e-20
0
-3.43342e-18
1.982e-17
-2.1533e-17
1.76188e-17
-1.56504e-17
0
1.15294e-17
-1.03362e-17
0
3.59483e-18
-4.53812e-18
-2.51048e-18
2.63115e-18
4.72218e-19
0
0
-1.68092e-19
6.09622e-20
5.81758e-17
-1.0608e-16
1.05889e-16
-9.08097e-17
3.53275e-17
-2.84473e-17
2.70676e-17
3.06858e-18
-1.10838e-17
9.88526e-18
0
-6.72103e-18
6.13261e-18
-1.12612e-18
-4.62537e-19
7.06904e-19
5.16334e-19
1.63185e-19
-5.89034e-20
1.36418e-16
0
-5.11008e-17
3.97564e-17
4.61983e-18
-3.4093e-17
5.95826e-17
-5.14378e-17
1.99498e-17
-8.0739e-18
8.26435e-18
1.5946e-18
2.62887e-18
1.09685e-18
-8.74179e-19
-1.26037e-19
-1.11264e-18
0
1.09455e-19
1.07075e-16
-1.20535e-16
0
1.04236e-17
4.31562e-17
-4.20126e-17
6.83772e-18
5.87046e-18
2.52461e-18
4.24555e-18
0
0
-4.54821e-18
8.31741e-18
-3.00375e-18
-1.05316e-18
1.15303e-18
9.10376e-20
-2.06457e-19
1.24973e-17
1.0595e-16
-1.17693e-17
-7.72538e-17
6.79382e-17
7.77438e-18
-6.69195e-18
-5.7337e-18
1.78762e-17
-2.21459e-17
1.25733e-17
-1.28504e-17
1.84373e-18
-2.49317e-18
4.22805e-18
-2.83711e-18
0
0
1.88521e-19
0
2.61775e-17
-7.53576e-17
8.63154e-17
-6.55295e-17
6.53735e-17
0
2.03671e-17
-2.04605e-17
-1.43154e-17
2.09771e-17
0
8.00668e-18
-1.01317e-17
-1.47504e-18
0
-1.54538e-19
-2.82181e-19
-1.99385e-20
-2.54675e-16
1.19808e-16
0
-7.39883e-17
7.39809e-17
4.22995e-17
-2.77047e-17
1.05816e-17
0
-4.35679e-19
2.85982e-18
-2.97643e-18
-4.03304e-18
6.14323e-18
-6.53229e-18
0
1.25513e-18
-2.20133e-19
-1.76082e-19
1.55292e-16
-1.51417e-16
0
1.92471e-17
1.68129e-17
-1.49515e-17
0
-1.10896e-17
-8.82298e-18
0
-6.71809e-19
0
4.6041e-18
0
0
1.7019e-18
6.25139e-18
-8.18524e-18
0
7.66198e-21
2.25861e-17
-2.00905e-17
1.50966e-17
-7.73584e-17
2.8892e-17
0
2.12319e-18
5.93206e-18
0
-5.51271e-18
1.44112e-17
-1.51398e-17
2.259e-18
0
-3.87048e-19
0
0
0
1.13498e-20
0
1.85686e-17
0
-2.56373e-17
2.60448e-17
0
7.9635e-18
-5.91403e-18
2.054e-17
-9.71166e-18
3.07849e-18
-4.63391e-18
4.03469e-18
-6.52991e-18
-1.00162e-18
0
-5.09332e-19
0
5.95767e-17
-1.00961e-16
0
-1.48319e-17
1.26245e-17
0
0
-1.43396e-17
0
-4.70068e-18
-6.61477e-18
-2.82942e-18
4.24855e-18
0
1.80402e-18
0
0
1.07261e-18
-1.13635e-18
0
8.48355e-17
-6.7637e-17
1.37309e-17
-1.16903e-17
-4.34964e-18
1.21623e-17
1.26235e-17
-1.39421e-17
4.43723e-18
5.85557e-19
-3.20132e-18
1.27916e-17
-3.92221e-18
-7.90659e-18
2.58011e-18
-5.66612e-19
3.45832e-19
-9.06056e-20
-1.444e-16
5.30011e-17
0
0
4.76858e-18
-4.84911e-18
2.86551e-18
1.42852e-18
1.22426e-17
5.60027e-18
-5.32562e-18
-3.93827e-19
-2.40072e-18
1.90568e-18
0
7.37912e-19
5.19341e-19
2.44378e-19
8.18947e-20
0
4.45175e-17
-4.00383e-17
1.25309e-17
1.17321e-17
-2.2137e-18
-6.42723e-18
-5.05556e-18
-1.51178e-17
5.44488e-18
-2.66613e-18
4.11681e-18
2.24497e-18
-2.37553e-18
2.52148e-18
1.3152e-18
-1.79095e-18
-2.25719e-19
0
-8.32213e-18
-3.56926e-17
1.21606e-17
1.06611e-17
-3.39736e-17
2.35576e-17
1.01105e-17
-1.03345e-17
6.95093e-18
-5.16746e-18
0
0
-2.96697e-18
5.11984e-18
-2.13153e-18
1.69327e-18
-1.8646e-18
2.76678e-19
-4.89869e-19
1.53875e-17
1.38691e-17
-1.20106e-17
8.28878e-18
-1.03466e-17
-1.37128e-17
0
0
0
0
0
0
1.5057e-18
-3.4983e-18
3.69984e-18
-1.01734e-18
1.26674e-18
5.43191e-19
-4.56021e-19
3.23062e-17
-5.11065e-17
6.36423e-17
-2.63683e-17
3.68855e-17
-2.30186e-17
4.13316e-17
-2.19472e-17
-9.71609e-18
9.93912e-18
0
2.03759e-18
-1.47099e-18
3.07553e-18
-1.2157e-18
-1.29477e-18
-2.33329e-18
1.88537e-19
3.81374e-19
5.05129e-17
1.37401e-17
0
-1.92829e-17
-1.3719e-17
3.02603e-17
2.00665e-18
-1.02848e-17
5.77038e-18
-3.5263e-18
0
-1.61298e-18
0
-1.06362e-18
8.08375e-19
-6.63677e-19
-2.11675e-19
1.36371e-19
0
7.02257e-17
-1.45248e-17
5.73095e-17
-4.46548e-17
-8.17994e-18
2.90019e-17
-1.73457e-17
1.10935e-18
8.26141e-19
-3.45855e-18
3.22229e-18
0
0
1.36485e-18
-4.06725e-19
2.36911e-19
7.65425e-19
-2.65024e-19
0
1.34381e-20
0
-1.29733e-17
7.11518e-17
-4.72554e-17
-4.4656e-17
2.42077e-17
-2.14409e-17
1.92915e-17
8.40762e-18
-5.68074e-18
2.12531e-18
-1.79457e-18
3.75155e-19
2.38731e-18
2.23166e-20
-7.57269e-19
7.3822e-19
-1.5578e-19
1.68284e-16
-5.3079e-17
2.29813e-17
-7.24241e-17
1.82556e-17
-2.61608e-17
1.45072e-17
0
0
-5.02202e-19
-7.55471e-19
-2.19362e-19
0
-2.26474e-18
-1.57509e-18
1.07373e-18
-7.60516e-20
1.67566e-19
3.22385e-19
0
-5.1546e-17
8.24625e-17
1.53696e-17
-6.28266e-17
1.54027e-17
-2.14532e-17
4.93172e-18
1.6131e-17
0
0
2.71538e-19
2.35467e-18
0
-1.74037e-18
-7.23821e-19
1.09492e-19
-3.29362e-19
-4.06883e-19
0
-3.12437e-17
9.6016e-18
5.55921e-17
3.72008e-17
-6.65594e-17
2.92277e-17
-1.76404e-17
9.71754e-18
-1.16273e-17
0
0
0
-3.49227e-18
7.05204e-19
-1.02746e-18
0
-5.93207e-20
2.91646e-19
-1.25401e-16
1.17619e-16
1.1726e-16
-1.4164e-16
6.06624e-17
-5.6119e-17
0
1.88713e-17
-2.50455e-17
1.36186e-17
-9.55286e-18
7.18222e-18
5.38779e-18
3.61178e-18
2.6553e-18
0
0
0
0
1.41494e-16
-7.84163e-17
0
0
-2.27392e-17
5.1227e-17
-3.25272e-17
-2.02237e-17
1.99958e-17
1.30964e-17
2.04178e-17
-7.45225e-18
3.09179e-18
2.11507e-18
1.44813e-18
1.22839e-18
1.93367e-18
-9.26824e-20
9.44053e-20
-1.42134e-16
1.28064e-16
6.40347e-17
-3.39399e-17
6.68677e-17
-4.25821e-17
-3.08196e-17
-2.43676e-17
0
-2.76909e-17
1.91028e-18
8.94832e-18
-6.35303e-18
-4.85289e-18
-1.73248e-18
-1.68633e-18
-1.35768e-18
0
0
-4.88967e-17
0
3.55983e-17
-7.91547e-21
0
0
3.17914e-17
2.5144e-17
0
1.5301e-17
0
-1.35302e-17
-3.66795e-18
6.34447e-18
0
3.98689e-18
-5.50043e-19
5.61118e-19
0
1.05441e-16
0
6.72519e-17
-1.22297e-16
1.05268e-16
7.84948e-17
-3.49544e-18
0
2.44791e-18
1.88088e-17
0
-1.59877e-17
1.68845e-17
-1.47683e-17
-3.1632e-18
-3.15828e-18
-9.90511e-19
-1.88991e-19
-7.65699e-19
-9.55071e-17
1.36879e-16
-3.70383e-17
-9.29633e-17
-5.13586e-17
-4.21065e-17
-6.85453e-17
-2.51347e-17
2.87186e-18
8.17118e-18
-8.15583e-18
2.41251e-17
-1.05477e-17
2.02869e-17
-3.77904e-18
0
4.73359e-18
-2.92742e-18
7.51391e-19
2.16845e-16
-5.90209e-18
-1.5433e-16
1.20357e-16
-1.04421e-16
8.64696e-17
-3.76862e-18
-2.93178e-17
2.42542e-17
8.90156e-18
-1.46312e-18
-2.03706e-17
5.53386e-18
6.8239e-18
-1.88524e-18
1.90674e-18
-4.90285e-18
-9.18089e-19
-1.44355e-18
1.06452e-16
4.31597e-17
7.32616e-17
-6.16457e-17
-4.75122e-17
3.69348e-18
-3.2897e-17
7.87669e-17
3.53744e-18
3.32924e-17
1.88935e-17
-1.64629e-17
0
-1.08018e-17
0
0
8.25393e-18
3.47088e-18
1.6653e-18
9.84876e-17
0
7.20295e-17
6.12478e-17
-5.19569e-17
4.33081e-17
0
-3.05359e-17
-4.12067e-17
-3.43833e-17
-1.90607e-17
1.66491e-17
0
0
0
0
-7.75814e-18
-6.56969e-18
0
-1.92887e-16
0
-4.96286e-18
-4.43503e-18
7.97568e-17
-4.19837e-17
-1.86911e-17
-1.88676e-17
4.2644e-17
0
1.08218e-17
-1.11223e-18
1.06385e-17
0
0
1.46718e-17
-1.11028e-18
7.90133e-18
-3.38183e-18
1.3482e-16
3.7179e-17
-3.67953e-17
-3.11811e-17
-1.02421e-16
6.80019e-17
7.919e-17
-3.17263e-18
-2.97329e-17
3.0347e-17
6.20034e-18
-3.24561e-17
-2.56487e-17
-1.7236e-17
-1.85332e-17
-1.69526e-17
1.55838e-17
-7.23492e-19
3.4637e-18
-4.09133e-17
1.80136e-17
-8.57201e-17
1.38587e-17
-1.38083e-17
0
-3.97875e-17
-4.2078e-18
-3.69544e-17
4.7804e-18
3.61138e-17
2.54598e-17
-6.56777e-18
1.20287e-18
1.75282e-17
0
-3.34292e-17
-1.29289e-17
-2.65231e-19
8.48238e-17
-2.20449e-18
1.34946e-16
-6.27277e-17
1.67542e-19
1.5884e-18
4.70589e-17
-5.33415e-18
3.58397e-17
-3.34704e-17
-3.16518e-17
0
3.46218e-17
2.6715e-17
3.96696e-19
-5.80838e-19
1.85279e-17
1.31383e-17
0
-5.99608e-17
0
-1.27422e-17
6.02063e-17
1.12859e-18
1.34239e-17
-4.55052e-17
4.2559e-17
4.70238e-17
4.52658e-17
4.39219e-17
0
-3.36344e-17
0
1.92397e-18
-1.99821e-18
0
-2.00985e-19
1.00626e-17
4.2468e-17
2.95365e-18
-3.09622e-17
9.678e-17
-3.06652e-17
0
0
-5.51043e-17
-4.55612e-17
-4.38524e-17
-8.22693e-17
-1.15603e-17
0
0
0
-4.12495e-18
4.36523e-18
2.85821e-17
-1.02191e-17
3.10142e-18
0
-6.9187e-17
-6.13758e-17
6.55442e-17
-6.52736e-17
-9.26876e-17
1.11244e-16
3.24554e-17
0
4.95266e-17
5.86766e-17
-1.26639e-17
6.97318e-17
-1.14906e-17
1.19589e-17
4.72476e-17
-2.71619e-17
0
-8.07812e-17
0
-7.64507e-17
7.45575e-17
0
1.30827e-16
6.07503e-17
-1.29919e-16
1.06046e-16
-5.47461e-19
-3.16474e-17
-5.6811e-17
0
8.1863e-17
-1.36171e-16
1.46496e-16
-1.86781e-16
0
0
8.06402e-17
-7.26087e-19
-1.7778e-18
-1.51621e-16
1.53862e-16
-7.38179e-17
7.35169e-17
7.24837e-17
-6.22356e-17
0
0
1.22591e-16
-1.24702e-16
-1.31829e-16
1.3113e-16
-1.28085e-16
1.38812e-16
-2.17716e-16
0
)
;

boundaryField
{
    up
    {
        type            calculated;
        value           nonuniform List<scalar> 
84
(
0
0
0
0
-7.21709e-18
1.28595e-17
-5.29685e-18
3.46369e-18
-3.04985e-18
0
-1.86954e-18
1.76219e-18
-9.99422e-19
1.85628e-19
1.4166e-19
5.76709e-19
0
0
-2.31282e-19
1.74949e-19
1.44713e-19
-1.40516e-19
1.16193e-20
0
5.39584e-20
3.09096e-20
-4.55084e-19
0
7.05947e-19
9.47585e-19
1.3118e-19
-2.37076e-19
1.01808e-19
0
-4.50776e-20
1.80021e-19
-1.87519e-19
3.03985e-19
0
-5.85985e-20
0
0
-3.13642e-20
6.09622e-20
-5.89034e-20
1.09455e-19
-2.06457e-19
1.88521e-19
-1.99385e-20
-1.76082e-19
0
0
0
-1.13635e-18
-1.58586e-19
8.18947e-20
0
-4.89869e-19
-4.56021e-19
3.27562e-19
0
0
-1.5578e-19
3.22385e-19
-4.06883e-19
2.91646e-19
0
9.44053e-20
0
0
-7.65699e-19
7.51391e-19
-1.44355e-18
1.6653e-18
0
-3.38183e-18
3.4637e-18
-2.65231e-19
0
1.00626e-17
-1.02191e-17
0
0
0
)
;
    }
    low
    {
        type            calculated;
        value           nonuniform List<scalar> 
84
(
-1.61508e-16
1.6047e-16
-7.73593e-17
1.23562e-16
2.18568e-17
-5.68077e-18
4.74713e-17
6.49873e-18
0
1.9783e-16
-5.01406e-17
3.84447e-17
-4.47037e-17
-2.99079e-16
4.88667e-17
0
-4.54731e-17
5.11894e-18
-4.9588e-18
-3.50784e-17
1.87481e-17
4.88583e-17
8.64969e-17
-7.50573e-17
0
-1.45168e-17
-7.47424e-18
0
-6.86131e-17
-1.97507e-17
-6.78535e-17
-7.34352e-17
7.94886e-17
2.67714e-17
1.83886e-16
1.47209e-17
0
1.22156e-16
1.21473e-16
6.88729e-17
-3.65377e-17
1.46302e-17
1.46308e-17
0
5.81758e-17
1.36758e-16
1.07075e-16
1.27496e-17
0
-2.54729e-16
1.55292e-16
7.66198e-21
1.13498e-20
5.95767e-17
0
-1.43975e-16
0
-8.32213e-18
1.53875e-17
3.20481e-17
5.00717e-17
6.98256e-17
1.34381e-20
1.67978e-16
0
0
-1.25401e-16
1.41382e-16
-1.42076e-16
-4.88967e-17
1.05484e-16
-9.55071e-17
2.1733e-16
1.06778e-16
9.84876e-17
-1.92887e-16
1.34464e-16
-4.05357e-17
8.48238e-17
-5.98038e-17
4.2468e-17
3.39568e-18
-8.07812e-17
8.07206e-17
)
;
    }
    left
    {
        type            calculated;
        value           nonuniform List<scalar> 
19
(
-1.61348e-16
-7.78853e-17
7.97683e-17
2.38574e-18
-1.50178e-16
0
-6.89668e-17
-6.8019e-17
-5.74047e-18
-3.63541e-17
-2.65968e-19
-3.6351e-17
1.62909e-16
-3.61568e-17
1.68542e-16
1.45763e-16
8.67912e-17
1.27538e-16
0
)
;
    }
    right
    {
        type            calculated;
        value           nonuniform List<scalar> 
19
(
8.06402e-17
-6.47796e-19
-1.7778e-18
-1.51632e-16
1.53929e-16
-7.38179e-17
7.35169e-17
7.24837e-17
-6.19751e-17
0
0
1.23736e-16
-1.26293e-16
-1.31829e-16
1.3113e-16
-1.28085e-16
1.38812e-16
-2.35407e-16
0
)
;
    }
    frontAndBackPlanes
    {
        type            empty;
    }
}


// ************************************************************************* //
