/*--------------------------------*- C++ -*----------------------------------*\
  =========                 |
  \\      /  F ield         | OpenFOAM: The Open Source CFD Toolbox
   \\    /   O peration     | Website:  https://openfoam.org
    \\  /    A nd           | Version:  7
     \\/     M anipulation  |
\*---------------------------------------------------------------------------*/
FoamFile
{
    version     2.0;
    format      ascii;
    class       volScalarField;
    location    "0.15";
    object      T;
}
// * * * * * * * * * * * * * * * * * * * * * * * * * * * * * * * * * * * * * //

dimensions      [0 0 0 1 0 0 0];

internalField   nonuniform List<scalar> 
1596
(
0.996262
0.985595
0.974852
0.965004
0.956387
0.948993
0.942698
0.937137
0.932028
0.926706
0.920655
0.913152
0.902752
0.887559
0.86478
0.82841
0.767439
0.659944
0.461944
0.983905
0.950846
0.920194
0.89294
0.869349
0.849204
0.832083
0.817188
0.803776
0.790565
0.776437
0.760006
0.738973
0.710654
0.671896
0.617154
0.538192
0.421117
0.23973
0.969481
0.914223
0.865377
0.82286
0.786409
0.755468
0.729317
0.706876
0.687106
0.668435
0.649467
0.628553
0.603241
0.570835
0.528498
0.471828
0.395166
0.290184
0.141654
0.955553
0.879919
0.814924
0.759143
0.711658
0.671558
0.637861
0.609305
0.584674
0.562277
0.540615
0.517966
0.491957
0.460093
0.419912
0.367943
0.300236
0.211726
0.0935077
0.944394
0.851623
0.77278
0.705541
0.648497
0.600464
0.560272
0.526554
0.497995
0.472877
0.449675
0.426676
0.401647
0.372303
0.336476
0.291322
0.233901
0.160921
0.0669536
0.937332
0.83161
0.741387
0.664323
0.598874
0.543758
0.497715
0.459345
0.42729
0.399851
0.375517
0.352607
0.329029
0.302681
0.271596
0.233335
0.185528
0.125808
0.0506051
0.934352
0.820179
0.721158
0.635824
0.562941
0.501352
0.449836
0.407026
0.371578
0.341833
0.316314
0.293383
0.271073
0.247426
0.220624
0.188488
0.148981
0.100202
0.0395641
0.934415
0.815919
0.71068
0.618643
0.539267
0.471749
0.415044
0.367897
0.329023
0.296829
0.269879
0.246581
0.225076
0.203528
0.180225
0.153181
0.120559
0.080702
0.0315456
0.936573
0.817101
0.707986
0.610762
0.525828
0.452923
0.391308
0.339916
0.29757
0.262759
0.2341
0.210046
0.188828
0.16871
0.148072
0.125073
0.098019
0.0653909
0.0254152
0.939084
0.820654
0.709622
0.608731
0.519316
0.441745
0.375682
0.320312
0.274607
0.237163
0.206655
0.181582
0.160252
0.141013
0.122322
0.10246
0.0798538
0.0530773
0.0205458
0.940958
0.824229
0.712609
0.609399
0.516636
0.435281
0.365424
0.306541
0.257786
0.217878
0.185557
0.15937
0.13769
0.118937
0.101636
0.0841802
0.0650984
0.0430505
0.0165931
0.943079
0.828334
0.716762
0.612046
0.516735
0.432284
0.359192
0.297226
0.245738
0.203572
0.169537
0.142225
0.120058
0.101514
0.0851758
0.0695291
0.0531986
0.0349242
0.0133825
0.944931
0.832144
0.720913
0.615204
0.517952
0.431011
0.355236
0.290664
0.236836
0.192717
0.157184
0.12886
0.106207
0.0877417
0.0720926
0.0578235
0.0436423
0.0283661
0.0107818
0.945859
0.834431
0.723548
0.617188
0.518515
0.429679
0.35182
0.285205
0.229541
0.183897
0.147202
0.118107
0.0950958
0.076715
0.0616243
0.0484519
0.0359786
0.0230939
0.0086857
0.946491
0.835758
0.724918
0.617927
0.518079
0.427735
0.34825
0.280072
0.223033
0.176281
0.13878
0.109189
0.0860028
0.0677808
0.0532033
0.0409488
0.0298587
0.0188876
0.00701373
0.947024
0.836519
0.725327
0.617517
0.516523
0.424869
0.344072
0.27471
0.216697
0.169226
0.131267
0.101471
0.0783215
0.0603787
0.0463316
0.0348957
0.0249618
0.015541
0.00568969
0.947182
0.836427
0.724504
0.615648
0.513456
0.420612
0.338755
0.26855
0.209948
0.162149
0.124095
0.0944022
0.0715311
0.0540257
0.0405751
0.029922
0.0209978
0.0128626
0.00464084
0.947107
0.835675
0.72266
0.612491
0.508973
0.41496
0.332202
0.261416
0.202549
0.154765
0.116948
0.0876511
0.0652916
0.0483868
0.0356167
0.0257446
0.0177357
0.0106944
0.00380464
0.94754
0.835451
0.721068
0.609249
0.504121
0.408763
0.325053
0.25375
0.194769
0.147202
0.109839
0.081143
0.0594667
0.0432853
0.0312612
0.0221705
0.0150075
0.00891554
0.00313112
0.948259
0.835746
0.719894
0.606174
0.499164
0.402252
0.317484
0.245663
0.186654
0.139446
0.102704
0.0747731
0.0539197
0.0385638
0.0273415
0.0190376
0.0126719
0.00742411
0.00257823
0.948746
0.835872
0.718575
0.602871
0.493852
0.395281
0.309412
0.237107
0.178166
0.131457
0.0954887
0.068468
0.0485582
0.0341133
0.0237384
0.0162254
0.0106204
0.00614032
0.00211292
0.949336
0.8362
0.717519
0.599809
0.488696
0.388367
0.301323
0.228505
0.169652
0.123494
0.0883703
0.0623297
0.0434204
0.0299215
0.0204026
0.0136616
0.00877413
0.00499956
0.00170825
0.950195
0.837065
0.717142
0.597472
0.484232
0.382065
0.293755
0.220346
0.161522
0.11588
0.0815779
0.0565015
0.0385763
0.0259998
0.0173009
0.011281
0.00704829
0.0039185
0.00132367
0.951245
0.838425
0.717482
0.595999
0.480706
0.376708
0.287089
0.213014
0.154129
0.108902
0.0753226
0.0511151
0.0340857
0.0223494
0.0143892
0.0090019
0.0053259
0.00274648
0.000820936
0.953165
0.842829
0.723263
0.602195
0.486583
0.381787
0.29114
0.216001
0.156145
0.110106
0.0758957
0.0512317
0.0338982
0.0219799
0.0139286
0.00851047
0.00485033
0.00234618
0.000609156
0.9554
0.849097
0.732934
0.614346
0.500125
0.39563
0.304349
0.227887
0.166294
0.118366
0.0823126
0.0559983
0.0372869
0.0242905
0.0154449
0.00947011
0.00542908
0.00265984
0.000716626
0.956616
0.853256
0.740113
0.624166
0.511853
0.40834
0.317107
0.239891
0.176958
0.127352
0.0895059
0.0614695
0.0412368
0.0269954
0.0172037
0.010554
0.00605328
0.00297479
0.000812364
0.956826
0.855181
0.744531
0.631278
0.521337
0.4195
0.329067
0.251774
0.188021
0.137063
0.0975623
0.0677842
0.0458997
0.0302265
0.0192995
0.0118195
0.00675278
0.00330494
0.000901338
0.956434
0.85563
0.747086
0.636572
0.529374
0.429779
0.340778
0.263997
0.199894
0.147889
0.106864
0.075314
0.0516177
0.0342715
0.0219467
0.013407
0.0076089
0.00369214
0.000997666
0.955536
0.855088
0.748512
0.640858
0.53672
0.439815
0.35275
0.276968
0.212923
0.160158
0.117751
0.0844189
0.0587567
0.039468
0.0254155
0.0154969
0.00872067
0.00418119
0.00111447
0.954442
0.854359
0.749846
0.645216
0.544374
0.450462
0.365677
0.291243
0.227571
0.17429
0.130643
0.0955471
0.0677946
0.0462917
0.030121
0.0183861
0.0102485
0.00483283
0.00126566
0.953866
0.854576
0.752334
0.650856
0.553425
0.462643
0.380311
0.307429
0.244345
0.190746
0.146011
0.109226
0.0793399
0.055418
0.0367363
0.0226318
0.012533
0.00576599
0.00145916
0.953495
0.855315
0.75558
0.657438
0.563587
0.476122
0.396468
0.325403
0.263203
0.20959
0.164059
0.125838
0.0939946
0.0676907
0.0463075
0.0293359
0.0164816
0.00745388
0.00170822
0.953271
0.856522
0.759561
0.664969
0.574888
0.49094
0.414202
0.345243
0.284264
0.231012
0.185084
0.145845
0.112469
0.0841802
0.0603725
0.0405245
0.0243985
0.0119683
0.00308242
0.952927
0.857292
0.762663
0.671151
0.584416
0.50367
0.429687
0.362846
0.303265
0.250693
0.2048
0.165058
0.130748
0.101166
0.0757068
0.0537447
0.0348491
0.0188497
0.00562518
0.951697
0.855453
0.761499
0.671499
0.586706
0.508008
0.43593
0.37068
0.312281
0.260439
0.214834
0.17498
0.140219
0.109914
0.0835296
0.0604641
0.0402586
0.0226166
0.00718679
0.94984
0.851918
0.75763
0.668157
0.584391
0.506942
0.43613
0.37201
0.314511
0.263275
0.217968
0.178118
0.14309
0.112302
0.0852993
0.0615658
0.040756
0.0226989
0.0071295
0.948442
0.849317
0.754868
0.665895
0.583006
0.506593
0.436812
0.373602
0.316815
0.26605
0.220966
0.181103
0.145858
0.114692
0.0872109
0.062956
0.0416403
0.0231533
0.00726452
0.947632
0.847784
0.753286
0.664717
0.582494
0.506855
0.437836
0.375287
0.319008
0.268565
0.22361
0.183702
0.148254
0.116764
0.0888828
0.0641918
0.042447
0.0235848
0.00740256
0.947069
0.846729
0.752217
0.663958
0.582231
0.507162
0.438698
0.376628
0.320712
0.270493
0.225622
0.185666
0.150057
0.118317
0.0901302
0.0651084
0.0430399
0.0238988
0.00750356
0.946649
0.845921
0.75138
0.663328
0.58194
0.507261
0.439178
0.377436
0.321769
0.271704
0.226893
0.186909
0.151196
0.11929
0.0909029
0.0656645
0.0433877
0.0240736
0.00755745
0.946169
0.845102
0.750538
0.662628
0.58146
0.507029
0.439185
0.37765
0.322145
0.272191
0.227437
0.187463
0.151717
0.119746
0.0912712
0.0659348
0.0435605
0.0241634
0.00758699
0.946171
0.845107
0.750544
0.662635
0.581468
0.507038
0.439194
0.377659
0.322154
0.272199
0.227445
0.18747
0.151723
0.119751
0.0912759
0.0659385
0.0435631
0.0241649
0.00758754
0.946654
0.845934
0.751399
0.663351
0.581965
0.507288
0.439205
0.377463
0.321795
0.27173
0.226917
0.186931
0.151215
0.119308
0.0909174
0.065676
0.043396
0.0240787
0.00755921
0.947077
0.846749
0.752247
0.663994
0.582271
0.507204
0.438742
0.376672
0.320755
0.270534
0.22566
0.185701
0.150089
0.118344
0.0901531
0.0651264
0.0430529
0.0239066
0.00750626
0.947642
0.847811
0.753325
0.664765
0.582547
0.506912
0.437895
0.375346
0.319065
0.268619
0.223662
0.183748
0.148296
0.1168
0.088913
0.0642156
0.0424641
0.0235951
0.00740612
0.948455
0.84935
0.754916
0.665954
0.583072
0.506664
0.436885
0.373675
0.316886
0.266118
0.221029
0.181161
0.145909
0.114736
0.0872477
0.0629849
0.0416611
0.0231658
0.00726878
0.949855
0.851956
0.757686
0.668225
0.584468
0.507025
0.436215
0.372096
0.314593
0.263354
0.218042
0.178184
0.143149
0.112352
0.0853406
0.0615978
0.0407785
0.0227122
0.00713388
0.951714
0.855495
0.761562
0.671577
0.586795
0.508102
0.436027
0.370777
0.312375
0.260527
0.214915
0.175054
0.140283
0.109967
0.0835721
0.0604953
0.040279
0.0226276
0.00719016
0.952948
0.857354
0.762761
0.67128
0.584568
0.503839
0.429866
0.36303
0.303448
0.250871
0.20497
0.165218
0.130896
0.101302
0.0758297
0.0538531
0.0349391
0.0189139
0.00565161
0.953296
0.856596
0.759678
0.665122
0.57507
0.491143
0.414417
0.345463
0.284482
0.231223
0.185285
0.146032
0.11264
0.0843342
0.0605076
0.0406375
0.0244847
0.0120227
0.00310155
0.953517
0.855379
0.755683
0.657574
0.563748
0.4763
0.396656
0.325593
0.263388
0.209766
0.164222
0.125985
0.0941241
0.0678015
0.0463977
0.0294036
0.0165255
0.00747546
0.00171259
0.953886
0.854636
0.752431
0.650985
0.553579
0.462813
0.380488
0.307606
0.244515
0.190904
0.146154
0.109351
0.0794464
0.0555049
0.0368029
0.0226782
0.0125609
0.00577898
0.00146225
0.95446
0.854415
0.749937
0.645338
0.54452
0.450622
0.365842
0.291406
0.227725
0.17443
0.130767
0.0956533
0.067882
0.0463603
0.0301714
0.0184198
0.0102682
0.00484219
0.00126802
0.955551
0.855138
0.748596
0.640972
0.536855
0.439964
0.352903
0.277117
0.213062
0.160283
0.117859
0.0845086
0.0588284
0.0395225
0.0254544
0.0155225
0.0087356
0.0041884
0.00111635
0.956447
0.855675
0.747163
0.636676
0.529498
0.429915
0.340917
0.264131
0.200017
0.147998
0.106956
0.0753892
0.0516765
0.0343153
0.0219773
0.0134269
0.00762062
0.0036979
0.000999221
0.956838
0.85522
0.7446
0.631371
0.521449
0.419622
0.329191
0.251892
0.188129
0.137157
0.0976405
0.0678469
0.0459479
0.0302619
0.019324
0.0118355
0.0067623
0.00330975
0.000902695
0.956625
0.85329
0.740173
0.624249
0.511952
0.408447
0.317215
0.239994
0.177051
0.127432
0.0895717
0.0615217
0.0412766
0.0270244
0.0172238
0.0105673
0.00606135
0.00297903
0.000813644
0.955408
0.849126
0.732985
0.614417
0.50021
0.395722
0.304442
0.227974
0.166373
0.118433
0.0823679
0.0560419
0.03732
0.0243147
0.0154619
0.0094815
0.00543623
0.00266378
0.000717939
0.953165
0.842836
0.723276
0.602215
0.486606
0.381814
0.291168
0.216028
0.15617
0.110128
0.075914
0.0512464
0.0339094
0.0219881
0.013934
0.00851374
0.00485191
0.00234656
0.000608979
0.951241
0.838417
0.71747
0.595983
0.480688
0.376689
0.287072
0.212999
0.154115
0.108891
0.0753142
0.0511086
0.0340808
0.0223457
0.0143863
0.00899953
0.00532398
0.00274501
0.00082015
0.950195
0.837063
0.71714
0.59747
0.484231
0.382064
0.293755
0.220347
0.161524
0.115882
0.0815802
0.0565038
0.0385783
0.0260014
0.0173022
0.0112818
0.00704884
0.00391876
0.00132369
0.949335
0.836198
0.717517
0.599808
0.488696
0.388366
0.301323
0.228506
0.169653
0.123496
0.088372
0.0623312
0.0434218
0.0299226
0.0204035
0.0136622
0.00877453
0.00499976
0.00170829
0.948745
0.835871
0.718574
0.60287
0.493852
0.395281
0.309412
0.237108
0.178167
0.131458
0.0954899
0.0684691
0.0485591
0.0341141
0.0237391
0.0162259
0.0106207
0.00614053
0.00211297
0.948259
0.835745
0.719893
0.606173
0.499164
0.402252
0.317484
0.245664
0.186655
0.139447
0.102705
0.0747739
0.0539204
0.0385644
0.0273421
0.0190382
0.0126723
0.00742435
0.0025783
0.94754
0.835451
0.721067
0.609249
0.504121
0.408763
0.325053
0.253751
0.19477
0.147203
0.109839
0.0811437
0.0594673
0.043286
0.0312618
0.0221711
0.015008
0.00891582
0.00313119
0.947107
0.835675
0.722659
0.612491
0.508973
0.414961
0.332202
0.261416
0.20255
0.154766
0.116948
0.0876516
0.0652922
0.0483874
0.0356174
0.0257452
0.0177362
0.0106947
0.00380472
0.947181
0.836427
0.724504
0.615648
0.513456
0.420612
0.338755
0.26855
0.209949
0.162149
0.124095
0.0944028
0.0715317
0.0540264
0.0405758
0.0299227
0.0209983
0.0128629
0.00464091
0.947024
0.83652
0.725327
0.617518
0.516523
0.42487
0.344072
0.27471
0.216697
0.169226
0.131268
0.101471
0.0783222
0.0603794
0.0463324
0.0348964
0.0249624
0.0155413
0.00568974
0.946491
0.835758
0.724919
0.617927
0.518079
0.427736
0.34825
0.280073
0.223033
0.176282
0.13878
0.109189
0.0860036
0.0677816
0.053204
0.0409494
0.0298591
0.0188878
0.00701375
0.945859
0.834431
0.723549
0.617189
0.518515
0.42968
0.35182
0.285206
0.229541
0.183897
0.147202
0.118107
0.0950965
0.0767157
0.0616249
0.0484523
0.0359788
0.0230939
0.00868568
0.944932
0.832144
0.720914
0.615205
0.517952
0.431012
0.355236
0.290664
0.236836
0.192718
0.157184
0.12886
0.106207
0.0877422
0.0720929
0.0578235
0.0436422
0.028366
0.0107817
0.94308
0.828335
0.716763
0.612046
0.516735
0.432284
0.359192
0.297226
0.245738
0.203572
0.169538
0.142225
0.120059
0.101514
0.0851757
0.0695288
0.0531981
0.0349238
0.0133824
0.940959
0.82423
0.71261
0.609399
0.516636
0.435281
0.365424
0.30654
0.257786
0.217878
0.185557
0.15937
0.13769
0.118936
0.101636
0.0841795
0.0650977
0.04305
0.0165931
0.939085
0.820654
0.709623
0.608731
0.519315
0.441744
0.375682
0.320311
0.274606
0.237163
0.206655
0.181582
0.160251
0.141012
0.12232
0.102459
0.0798528
0.0530768
0.0205458
0.936574
0.817101
0.707986
0.610761
0.525827
0.452922
0.391307
0.339916
0.297569
0.262758
0.234099
0.210045
0.188827
0.168709
0.148071
0.125071
0.0980179
0.0653905
0.0254153
0.934415
0.815919
0.71068
0.618642
0.539266
0.471748
0.415043
0.367896
0.329022
0.296828
0.269877
0.246579
0.225074
0.203526
0.180224
0.15318
0.120558
0.0807018
0.0315458
0.934352
0.820178
0.721157
0.635823
0.56294
0.501351
0.449835
0.407025
0.371576
0.341831
0.316312
0.293381
0.271071
0.247424
0.220622
0.188487
0.14898
0.100202
0.0395644
0.937332
0.831609
0.741386
0.664322
0.598873
0.543757
0.497714
0.459343
0.427289
0.399849
0.375515
0.352604
0.329027
0.302679
0.271595
0.233334
0.185528
0.125809
0.0506053
0.944393
0.851623
0.772779
0.705541
0.648496
0.600463
0.560271
0.526553
0.497994
0.472875
0.449673
0.426674
0.401645
0.372301
0.336475
0.291322
0.233901
0.160922
0.0669538
0.955552
0.879919
0.814924
0.759143
0.711658
0.671557
0.63786
0.609304
0.584672
0.562275
0.540613
0.517964
0.491956
0.460092
0.419912
0.367944
0.300237
0.211727
0.0935077
0.969481
0.914223
0.865377
0.82286
0.786408
0.755467
0.729316
0.706875
0.687105
0.668434
0.649466
0.628552
0.60324
0.570835
0.528498
0.471829
0.395166
0.290184
0.141654
0.983905
0.950845
0.920194
0.89294
0.869349
0.849203
0.832082
0.817187
0.803776
0.790565
0.776437
0.760006
0.738973
0.710654
0.671897
0.617155
0.538192
0.421117
0.23973
0.996262
0.985594
0.974852
0.965004
0.956387
0.948993
0.942698
0.937137
0.932027
0.926706
0.920655
0.913152
0.902752
0.887559
0.86478
0.82841
0.76744
0.659943
0.461944
)
;

boundaryField
{
    up
    {
        type            fixedValue;
        value           uniform 0;
    }
    low
    {
        type            fixedValue;
        value           uniform 1;
    }
    left
    {
        type            fixedValue;
        value           uniform 1;
    }
    right
    {
        type            fixedValue;
        value           uniform 1;
    }
    frontAndBackPlanes
    {
        type            empty;
    }
}


// ************************************************************************* //
