/*--------------------------------*- C++ -*----------------------------------*\
  =========                 |
  \\      /  F ield         | OpenFOAM: The Open Source CFD Toolbox
   \\    /   O peration     | Website:  https://openfoam.org
    \\  /    A nd           | Version:  7
     \\/     M anipulation  |
\*---------------------------------------------------------------------------*/
FoamFile
{
    version     2.0;
    format      ascii;
    class       volScalarField;
    location    "0.324";
    object      T;
}
// * * * * * * * * * * * * * * * * * * * * * * * * * * * * * * * * * * * * * //

dimensions      [0 0 0 1 0 0 0];

internalField   nonuniform List<scalar> 
1596
(
6.98383
6.93734
6.88944
6.84345
6.80005
6.75856
6.71801
6.67638
6.63223
6.58222
6.52375
6.45335
6.36287
6.24071
6.06858
5.80526
5.37361
4.61934
3.23335
6.93002
6.78514
6.64741
6.51893
6.39906
6.28542
6.17525
6.06435
5.94914
5.82353
5.68244
5.51975
5.32376
5.07972
4.76897
4.35535
3.78219
2.95156
1.67794
6.86625
6.62239
6.40135
6.1996
6.01351
5.83882
5.67125
5.50532
5.33629
5.15707
4.96181
4.74385
4.49181
4.19243
3.8309
3.3807
2.80467
2.0449
0.993044
6.80313
6.46639
6.17014
5.90408
5.66123
5.43553
5.22148
5.01286
4.80435
4.58864
4.35989
4.11171
3.83401
3.51586
3.14624
2.70643
2.17268
1.5114
0.659596
6.75054
6.33329
5.9712
5.64919
5.35765
5.08912
4.83723
4.59533
4.35784
4.11755
3.86885
3.60577
3.3195
3.00105
2.64217
2.22942
1.74739
1.17641
0.479243
6.71498
6.2342
5.81659
5.4462
5.11243
4.80713
4.52344
4.25458
3.99486
3.73725
3.4764
3.20669
2.92027
2.60954
2.268
1.88559
1.45183
0.954874
0.372
6.69748
6.17236
5.71022
5.29854
4.92769
4.58987
4.27824
3.98613
3.70789
3.43674
3.16751
2.89483
2.61152
2.31085
1.9874
1.63315
1.24052
0.802029
0.303147
6.69436
6.14347
5.64811
5.20207
4.79866
4.43146
4.09429
3.78088
3.48585
3.20269
2.92639
2.65176
2.37206
2.08108
1.77398
1.44401
1.08521
0.69254
0.256163
6.702
6.14136
5.6235
5.14985
4.71803
4.32396
3.96278
3.62901
3.31771
3.02274
2.73932
2.46236
2.1854
1.90255
1.60925
1.29944
0.968127
0.61155
0.222577
6.71254
6.15284
5.62194
5.12755
4.67186
4.25377
3.87025
3.51699
3.18978
2.88297
2.59203
2.31205
2.03674
1.7604
1.47854
1.18551
0.876767
0.54924
0.197385
6.72124
6.16715
5.63009
5.12121
4.64643
4.20763
3.80392
3.43245
3.08996
2.77147
2.47283
2.1893
1.91477
1.64363
1.3714
1.09259
0.802867
0.499432
0.177652
6.73217
6.18682
5.64774
5.12863
4.63833
4.18146
3.75927
3.37056
3.01321
2.68302
2.3763
2.08856
1.81387
1.54668
1.28243
1.01564
0.742042
0.458826
0.161825
6.74272
6.20782
5.66953
5.14339
4.64055
4.16799
3.72906
3.32422
2.95259
2.61087
2.29594
2.00361
1.72813
1.46398
1.20649
0.950137
0.69052
0.424707
0.14872
6.74958
6.22394
5.68788
5.15718
4.6445
4.1587
3.70503
3.28555
2.90068
2.54809
2.22529
1.92844
1.65201
1.39051
1.13914
0.892243
0.645256
0.394986
0.137469
6.75556
6.2375
5.70366
5.16958
4.64874
4.15146
3.68458
3.25171
2.85453
2.49168
2.16137
1.86016
1.58274
1.32367
1.078
0.839902
0.604572
0.368494
0.127577
6.76142
6.25
5.71795
5.18081
4.6527
4.14503
3.66604
3.22071
2.81194
2.43937
2.10189
1.79651
1.51814
1.26141
1.0212
0.791486
0.567161
0.344326
0.118672
6.76573
6.25971
5.72893
5.18884
4.654
4.13677
3.64659
3.18968
2.77007
2.38838
2.0442
1.73496
1.45587
1.20159
0.966861
0.745409
0.53179
0.321664
0.110432
6.76901
6.26711
5.73698
5.19378
4.65246
4.12617
3.62541
3.15755
2.72769
2.33737
1.98687
1.67408
1.39449
1.14282
0.913683
0.700547
0.497576
0.299928
0.10263
6.77438
6.27711
5.74732
5.20063
4.65254
4.11702
3.60559
3.12674
2.68657
2.28755
1.93061
1.61413
1.33389
1.08472
0.86111
0.656286
0.46398
0.278753
0.0951305
6.7807
6.28919
5.75997
5.20964
4.65451
4.1095
3.58717
3.09709
2.64638
2.23838
1.87471
1.55423
1.27304
1.0261
0.807883
0.611403
0.429978
0.257477
0.0877169
6.78555
6.29974
5.77139
5.21758
4.6555
4.10103
3.56781
3.06648
2.60515
2.18802
1.81741
1.49265
1.21018
0.965178
0.752144
0.564065
0.393969
0.235024
0.0800461
6.79029
6.30992
5.78246
5.22527
4.65624
4.09226
3.54803
3.03527
2.56303
2.1364
1.75836
1.42874
1.14437
0.900633
0.692204
0.51223
0.353797
0.209686
0.071523
6.79557
6.32071
5.79409
5.23341
4.65731
4.08365
3.52818
3.00363
2.52
2.08323
1.69698
1.36161
1.07434
0.830806
0.625881
0.453052
0.30596
0.177955
0.060463
6.80101
6.33154
5.80541
5.24091
4.65749
4.07394
3.50698
2.97031
2.47477
2.02711
1.63169
1.28944
0.998027
0.753328
0.550339
0.382839
0.245292
0.132799
0.0401653
6.80936
6.35269
5.83618
5.27804
4.69769
4.114
3.54393
3.00152
2.49814
2.04119
1.63591
1.28421
0.984592
0.73359
0.52658
0.357437
0.220868
0.112808
0.0301522
6.81844
6.37923
5.87958
5.33688
4.76966
4.19592
3.632
3.09159
2.58604
2.12316
1.70891
1.34641
1.03548
0.773841
0.557651
0.380984
0.238124
0.124216
0.0349452
6.82279
6.39425
5.90668
5.37659
4.82144
4.2582
3.70224
3.16649
2.66183
2.19599
1.77529
1.40375
1.08245
0.8105
0.58515
0.400952
0.252023
0.132913
0.0383952
6.82243
6.3973
5.91659
5.39586
4.85142
4.29894
3.75253
3.224
2.72331
2.25771
1.83342
1.45499
1.12461
0.842862
0.608471
0.416861
0.262283
0.138848
0.0405849
6.81891
6.39158
5.91368
5.39988
4.8652
4.32382
3.78836
3.26923
2.77521
2.31268
1.8874
1.50404
1.16559
0.874094
0.630127
0.430545
0.270196
0.142909
0.0419378
6.81247
6.37914
5.90169
5.39361
4.86846
4.33882
3.81566
3.30787
2.82288
2.36596
1.94213
1.55573
1.21009
0.908503
0.653591
0.444377
0.27713
0.145801
0.0427249
6.80427
6.3635
5.88577
5.38323
4.86796
4.35088
3.84128
3.34647
2.87252
2.4235
2.00348
1.61609
1.26442
0.952362
0.684426
0.462398
0.285293
0.148375
0.0431675
6.7974
6.3499
5.87225
5.37569
4.87089
4.36714
3.8721
3.39158
2.93035
2.49135
2.07763
1.69188
1.33629
1.01441
0.731644
0.49234
0.299529
0.152301
0.0433297
6.79059
6.33688
5.86016
5.37061
4.87741
4.38824
3.90917
3.44461
2.9982
2.57191
2.16788
1.78786
1.4328
1.1049
0.808725
0.549295
0.332942
0.164712
0.0434085
6.78368
6.32471
5.85029
5.3693
4.88928
4.41626
3.95481
3.50811
3.07886
2.66825
2.27786
1.90882
1.56109
1.23527
0.933775
0.659436
0.417711
0.216401
0.060216
6.77558
6.30925
5.83476
5.35969
4.89
4.43019
3.98353
3.55217
3.13806
2.74187
2.36487
2.00799
1.67088
1.35344
1.05643
0.779696
0.524317
0.293939
0.0917104
6.76258
6.27979
5.79627
5.31796
4.84922
4.39321
3.95209
3.52717
3.11973
2.73
2.35901
2.00755
1.67531
1.36232
1.0695
0.796517
0.543638
0.312229
0.10162
6.74593
6.24113
5.74361
5.25705
4.78413
4.32675
3.88608
3.46264
3.05721
2.6696
2.30066
1.95117
1.62089
1.31014
1.02043
0.752153
0.506601
0.286257
0.0912331
6.73146
6.20778
5.69835
5.20483
4.72847
4.27005
3.82993
3.40802
3.00469
2.61947
2.25311
1.90642
1.57923
1.27208
0.98673
0.723785
0.484737
0.27217
0.0861721
6.72059
6.18202
5.66293
5.16367
4.68437
4.225
3.78526
3.3646
2.96308
2.58001
2.21608
1.87207
1.54787
1.24407
0.962536
0.703943
0.469823
0.262802
0.082943
6.71213
6.16201
5.63548
5.13179
4.65026
4.1902
3.75083
3.33122
2.93122
2.54997
2.18809
1.84635
1.52462
1.22353
0.944992
0.689692
0.459197
0.256176
0.0806926
6.70596
6.14749
5.61569
5.10897
4.62599
4.16555
3.72654
3.30777
2.90893
2.52905
2.16869
1.82862
1.50868
1.2095
0.933027
0.679972
0.451928
0.251622
0.0791379
6.70128
6.13769
5.60312
5.09503
4.61155
4.15119
3.71263
3.29454
2.89653
2.51756
2.15819
1.81916
1.5003
1.20224
0.926951
0.675122
0.448364
0.249427
0.07841
6.70129
6.13771
5.60315
5.09507
4.61159
4.15123
3.71267
3.29458
2.89656
2.5176
2.15822
1.81919
1.50033
1.20227
0.92697
0.675137
0.448374
0.249434
0.0784121
6.70599
6.14755
5.61578
5.10908
4.6261
4.16567
3.72666
3.30789
2.90905
2.52916
2.16879
1.82871
1.50876
1.20957
0.93309
0.680022
0.451964
0.251644
0.0791456
6.71218
6.16211
5.63562
5.13196
4.65044
4.19039
3.75102
3.33141
2.9314
2.55014
2.18825
1.8465
1.52475
1.22364
0.945085
0.689765
0.459248
0.256207
0.0807031
6.72065
6.18215
5.66312
5.16389
4.68461
4.22525
3.78551
3.36485
2.96332
2.58023
2.21628
1.87226
1.54803
1.24421
0.96265
0.704031
0.469885
0.262839
0.0829552
6.73153
6.20794
5.69857
5.2051
4.72876
4.27035
3.83024
3.40832
3.00498
2.61974
2.25336
1.90664
1.57942
1.27224
0.986858
0.723882
0.484804
0.272208
0.086184
6.746
6.24132
5.74387
5.25735
4.78447
4.3271
3.88643
3.46298
3.05754
2.6699
2.30094
1.95141
1.62109
1.3103
1.02055
0.752235
0.506649
0.286279
0.0912369
6.76266
6.27999
5.79656
5.3183
4.84959
4.3936
3.95249
3.52755
3.12009
2.73032
2.35929
2.00779
1.67549
1.36243
1.06955
0.796511
0.543594
0.312173
0.10159
6.77567
6.30954
5.83522
5.36029
4.89072
4.43101
3.98443
3.55314
3.13908
2.74292
2.36595
2.00909
1.67198
1.35454
1.05751
0.780747
0.52527
0.294674
0.0920346
6.7838
6.32504
5.85084
5.37003
4.89019
4.41731
3.95599
3.5094
3.08023
2.66969
2.27936
1.91035
1.56262
1.23679
0.935221
0.660739
0.418768
0.217101
0.0604723
6.79068
6.33717
5.86062
5.37124
4.8782
4.38916
3.91019
3.44572
2.99938
2.57313
2.16912
1.7891
1.43401
1.10603
0.809715
0.550082
0.333473
0.164976
0.043459
6.79748
6.35016
5.87268
5.37628
4.87163
4.36801
3.87307
3.39262
2.93145
2.49248
2.07875
1.69297
1.33731
1.01532
0.732387
0.492884
0.299868
0.152465
0.0433723
6.80435
6.36374
5.88616
5.38378
4.86865
4.35169
3.84219
3.34744
2.87353
2.42453
2.00449
1.61705
1.26529
0.953103
0.685009
0.462812
0.28555
0.148507
0.0432056
6.81254
6.37935
5.90205
5.39411
4.86909
4.33957
3.8165
3.30877
2.82382
2.3669
1.94304
1.55658
1.21084
0.909126
0.654073
0.444717
0.277347
0.145918
0.0427603
6.81897
6.39176
5.914
5.40034
4.86578
4.32451
3.78913
3.27005
2.77607
2.31353
1.88822
1.50479
1.16624
0.87463
0.63054
0.430841
0.270389
0.143016
0.041972
6.82248
6.39746
5.91687
5.39626
4.85195
4.29957
3.75323
3.22475
2.72409
2.25848
1.83415
1.45565
1.12518
0.843332
0.608836
0.417127
0.262461
0.138952
0.0406197
6.82282
6.39439
5.90693
5.37695
4.82191
4.25876
3.70287
3.16718
2.66253
2.19668
1.77594
1.40434
1.08296
0.81092
0.585481
0.401199
0.252195
0.133018
0.0384333
6.81847
6.37935
5.87979
5.3372
4.77008
4.19642
3.63256
3.0922
2.58666
2.12377
1.70949
1.34693
1.03593
0.774222
0.557958
0.381222
0.238298
0.124328
0.0349903
6.80936
6.35271
5.83623
5.27811
4.69779
4.11413
3.54407
3.00167
2.49829
2.04133
1.63604
1.28431
0.984664
0.733632
0.526596
0.357432
0.220849
0.112786
0.03014
6.80099
6.3315
5.80535
5.24083
4.65739
4.07382
3.50684
2.97016
2.47462
2.02696
1.63154
1.2893
0.997892
0.753201
0.550222
0.382735
0.245207
0.132738
0.0401384
6.79557
6.3207
5.79407
5.23338
4.65728
4.08362
3.52815
3.0036
2.51998
2.08322
1.69697
1.36161
1.07434
0.830813
0.62589
0.453064
0.305971
0.177963
0.0604657
6.79029
6.30991
5.78245
5.22525
4.65622
4.09224
3.54801
3.03525
2.56302
2.13639
1.75835
1.42874
1.14437
0.900639
0.692212
0.512239
0.353804
0.209691
0.0715244
6.78554
6.29973
5.77137
5.21757
4.65549
4.10102
3.5678
3.06647
2.60514
2.18802
1.81741
1.49265
1.21018
0.965184
0.75215
0.564071
0.393974
0.235027
0.080047
6.7807
6.28918
5.75996
5.20963
4.6545
4.10949
3.58716
3.09708
2.64638
2.23837
1.87471
1.55423
1.27304
1.02611
0.807888
0.611408
0.429982
0.257478
0.0877175
6.77438
6.27711
5.74731
5.20062
4.65253
4.11701
3.60559
3.12673
2.68657
2.28755
1.93061
1.61413
1.33389
1.08472
0.861114
0.656289
0.463982
0.278754
0.0951309
6.76901
6.26711
5.73697
5.19378
4.65246
4.12617
3.62541
3.15755
2.72769
2.33738
1.98687
1.67409
1.39449
1.14282
0.913686
0.700549
0.497578
0.299929
0.102631
6.76573
6.25971
5.72893
5.18883
4.654
4.13677
3.64659
3.18968
2.77007
2.38839
2.0442
1.73497
1.45588
1.20159
0.966863
0.745411
0.531791
0.321664
0.110433
6.76142
6.25
5.71795
5.18081
4.6527
4.14503
3.66604
3.22071
2.81194
2.43937
2.10189
1.79651
1.51814
1.26141
1.0212
0.791486
0.567161
0.344326
0.118672
6.75556
6.2375
5.70366
5.16958
4.64874
4.15146
3.68459
3.25171
2.85453
2.49169
2.16137
1.86017
1.58274
1.32367
1.078
0.839902
0.604572
0.368494
0.127577
6.74958
6.22394
5.68788
5.15718
4.6445
4.1587
3.70503
3.28555
2.90068
2.54809
2.22529
1.92844
1.65201
1.39051
1.13914
0.892243
0.645255
0.394986
0.13747
6.74272
6.20782
5.66953
5.14339
4.64056
4.16799
3.72906
3.32422
2.95259
2.61087
2.29594
2.00361
1.72813
1.46398
1.20649
0.950136
0.69052
0.424706
0.14872
6.73217
6.18682
5.64774
5.12863
4.63834
4.18146
3.75927
3.37056
3.01321
2.68301
2.3763
2.08856
1.81387
1.54668
1.28243
1.01564
0.742042
0.458826
0.161825
6.72125
6.16716
5.63009
5.12122
4.64643
4.20763
3.80392
3.43245
3.08996
2.77147
2.47283
2.1893
1.91476
1.64363
1.3714
1.09258
0.802866
0.499432
0.177652
6.71254
6.15284
5.62194
5.12755
4.67186
4.25377
3.87025
3.51699
3.18978
2.88296
2.59203
2.31205
2.03674
1.76039
1.47854
1.18551
0.876767
0.549241
0.197386
6.702
6.14136
5.62349
5.14985
4.71802
4.32396
3.96278
3.629
3.31771
3.02274
2.73931
2.46236
2.1854
1.90255
1.60925
1.29944
0.968128
0.611551
0.222577
6.69436
6.14347
5.6481
5.20207
4.79866
4.43146
4.09428
3.78088
3.48585
3.20268
2.92638
2.65176
2.37206
2.08108
1.77398
1.44401
1.08521
0.692541
0.256164
6.69748
6.17236
5.71022
5.29853
4.92768
4.58986
4.27823
3.98612
3.70788
3.43673
3.1675
2.89483
2.61152
2.31085
1.9874
1.63315
1.24052
0.802029
0.303147
6.71498
6.2342
5.81658
5.4462
5.11242
4.80712
4.52344
4.25458
3.99485
3.73725
3.4764
3.20668
2.92027
2.60953
2.268
1.88559
1.45183
0.954875
0.372
6.75053
6.33329
5.9712
5.64919
5.35765
5.08912
4.83722
4.59533
4.35784
4.11755
3.86884
3.60577
3.3195
3.00105
2.64217
2.22942
1.74739
1.17641
0.479243
6.80313
6.46639
6.17013
5.90407
5.66123
5.43553
5.22147
5.01286
4.80434
4.58864
4.35989
4.11171
3.83401
3.51586
3.14624
2.70643
2.17268
1.5114
0.659596
6.86625
6.62238
6.40134
6.1996
6.01351
5.83881
5.67124
5.50532
5.33629
5.15707
4.9618
4.74385
4.49181
4.19242
3.8309
3.3807
2.80467
2.0449
0.993043
6.93001
6.78514
6.64741
6.51893
6.39906
6.28541
6.17525
6.06434
5.94914
5.82353
5.68243
5.51975
5.32376
5.07972
4.76897
4.35534
3.78219
2.95156
1.67794
6.98383
6.93734
6.88944
6.84345
6.80005
6.75856
6.71801
6.67638
6.63223
6.58222
6.52375
6.45335
6.36287
6.24071
6.06858
5.80526
5.37361
4.61933
3.23335
)
;

boundaryField
{
    up
    {
        type            fixedValue;
        value           uniform 0;
    }
    low
    {
        type            fixedValue;
        value           uniform 7;
    }
    left
    {
        type            fixedValue;
        value           uniform 7;
    }
    right
    {
        type            fixedValue;
        value           uniform 7;
    }
    frontAndBackPlanes
    {
        type            empty;
    }
}


// ************************************************************************* //
