/*--------------------------------*- C++ -*----------------------------------*\
  =========                 |
  \\      /  F ield         | OpenFOAM: The Open Source CFD Toolbox
   \\    /   O peration     | Website:  https://openfoam.org
    \\  /    A nd           | Version:  7
     \\/     M anipulation  |
\*---------------------------------------------------------------------------*/
FoamFile
{
    version     2.0;
    format      ascii;
    class       volScalarField;
    location    "0.26";
    object      gradTx;
}
// * * * * * * * * * * * * * * * * * * * * * * * * * * * * * * * * * * * * * //

dimensions      [0 -1 0 1 0 0 0];

internalField   nonuniform List<scalar> 
1596
(
-0.041364
-0.207712
-0.372573
-0.522334
-0.656405
-0.774694
-0.882644
-0.98374
-1.08265
-1.18839
-1.30337
-1.43842
-1.60646
-1.82656
-2.12148
-2.54914
-3.19938
-4.2665
-6.15224
0.00905404
-0.173024
-0.335228
-0.476242
-0.599669
-0.706413
-0.801368
-0.886261
-0.964569
-1.04093
-1.11572
-1.19471
-1.2798
-1.37398
-1.47461
-1.57703
-1.65579
-1.65928
-1.47822
0.0503598
-0.14172
-0.29875
-0.429654
-0.541256
-0.635791
-0.717471
-0.787419
-0.847942
-0.901507
-0.947631
-0.989288
-1.0255
-1.05544
-1.07456
-1.07502
-1.0364
-0.923105
-0.665599
0.0568927
-0.125395
-0.26919
-0.386585
-0.484898
-0.566926
-0.635964
-0.692904
-0.739201
-0.776096
-0.803039
-0.82143
-0.829843
-0.826722
-0.808423
-0.76868
-0.694304
-0.56385
-0.335803
0.016611
-0.131527
-0.251881
-0.351397
-0.434728
-0.504002
-0.561252
-0.607122
-0.642409
-0.667569
-0.68229
-0.687023
-0.680616
-0.661645
-0.627749
-0.574547
-0.494252
-0.374544
-0.19148
-0.0671962
-0.162888
-0.250758
-0.328027
-0.394538
-0.450599
-0.496655
-0.532903
-0.55953
-0.576413
-0.583472
-0.580539
-0.566814
-0.541142
-0.502155
-0.446847
-0.370848
-0.267174
-0.122213
-0.178829
-0.216936
-0.267337
-0.319062
-0.367042
-0.409178
-0.444195
-0.471589
-0.490939
-0.501626
-0.503666
-0.49646
-0.479449
-0.451686
-0.412425
-0.359549
-0.290702
-0.201924
-0.0854957
-0.295952
-0.28363
-0.297404
-0.322817
-0.351565
-0.379374
-0.403418
-0.422367
-0.435188
-0.440833
-0.439249
-0.429541
-0.411256
-0.383572
-0.346082
-0.297228
-0.235791
-0.159516
-0.064038
-0.417295
-0.368992
-0.350049
-0.34891
-0.356959
-0.368767
-0.380459
-0.389906
-0.39551
-0.395821
-0.390569
-0.378633
-0.359531
-0.332465
-0.29715
-0.25235
-0.197423
-0.131041
-0.050677
-0.490183
-0.428425
-0.390018
-0.369757
-0.361389
-0.359811
-0.360929
-0.362155
-0.361533
-0.357346
-0.349098
-0.335548
-0.316156
-0.290145
-0.257274
-0.216538
-0.167608
-0.109708
-0.0413654
-0.549468
-0.481863
-0.43167
-0.39722
-0.375006
-0.361135
-0.351988
-0.34492
-0.337833
-0.328881
-0.317353
-0.301941
-0.282016
-0.256788
-0.225983
-0.188724
-0.14481
-0.0937605
-0.0347102
-0.609678
-0.541358
-0.483781
-0.438175
-0.403527
-0.377537
-0.357539
-0.34122
-0.326593
-0.311813
-0.29602
-0.277862
-0.256608
-0.231415
-0.201923
-0.167299
-0.127346
-0.0817051
-0.0298129
-0.625613
-0.566374
-0.510082
-0.460909
-0.420022
-0.386705
-0.359392
-0.336373
-0.316001
-0.296617
-0.277358
-0.256937
-0.234587
-0.209468
-0.181174
-0.148918
-0.112491
-0.0715971
-0.0258331
-0.628909
-0.57965
-0.528066
-0.478992
-0.435018
-0.396807
-0.363888
-0.335283
-0.309825
-0.286163
-0.263538
-0.240784
-0.217145
-0.191803
-0.164309
-0.133913
-0.100364
-0.063386
-0.0226523
-0.626867
-0.586685
-0.54096
-0.494079
-0.449182
-0.407915
-0.370756
-0.337488
-0.307501
-0.27983
-0.253912
-0.228743
-0.203621
-0.177764
-0.150698
-0.121692
-0.0904503
-0.0566792
-0.0200745
-0.610508
-0.580073
-0.541482
-0.498915
-0.455602
-0.41374
-0.374495
-0.338318
-0.30515
-0.274451
-0.245916
-0.218757
-0.192363
-0.166026
-0.139275
-0.11141
-0.0821029
-0.0510448
-0.0179248
-0.579386
-0.558186
-0.527411
-0.490713
-0.451122
-0.411021
-0.371977
-0.334932
-0.300299
-0.267944
-0.237845
-0.209454
-0.182296
-0.155757
-0.129402
-0.102582
-0.0749644
-0.0462435
-0.0161077
-0.543057
-0.527736
-0.503813
-0.473228
-0.438341
-0.401393
-0.364102
-0.327714
-0.292997
-0.260167
-0.229465
-0.200581
-0.173185
-0.14677
-0.120943
-0.0951093
-0.0689546
-0.0422055
-0.0145815
-0.512563
-0.502001
-0.483353
-0.457737
-0.426872
-0.392749
-0.357133
-0.32148
-0.286846
-0.25374
-0.222639
-0.193441
-0.16594
-0.139711
-0.114375
-0.0893515
-0.0643237
-0.0390635
-0.0133684
-0.46019
-0.455853
-0.443268
-0.423751
-0.398614
-0.369474
-0.337936
-0.305459
-0.273227
-0.241941
-0.212246
-0.184231
-0.157818
-0.132677
-0.108454
-0.0845692
-0.0606825
-0.0366267
-0.0123931
-0.402516
-0.403097
-0.395976
-0.382232
-0.362874
-0.339183
-0.31253
-0.284271
-0.255605
-0.227319
-0.200152
-0.174323
-0.149857
-0.126513
-0.103949
-0.0815387
-0.0588055
-0.0355063
-0.0118634
-0.342602
-0.346381
-0.343807
-0.335327
-0.321574
-0.303493
-0.282202
-0.258896
-0.234706
-0.210424
-0.186793
-0.164099
-0.142427
-0.12162
-0.101371
-0.080997
-0.0597425
-0.0368994
-0.0124033
-0.276407
-0.281801
-0.282932
-0.27946
-0.271512
-0.259622
-0.244604
-0.227409
-0.209025
-0.190159
-0.171447
-0.153172
-0.135413
-0.118104
-0.10105
-0.0836433
-0.0648965
-0.0432806
-0.0168231
-0.201908
-0.199068
-0.192953
-0.183675
-0.171932
-0.158668
-0.144968
-0.131753
-0.11975
-0.109269
-0.100234
-0.0922731
-0.0848361
-0.0774105
-0.0695726
-0.0608314
-0.0503893
-0.0366018
-0.0164039
-0.135019
-0.150442
-0.167743
-0.18434
-0.198394
-0.208641
-0.214604
-0.216288
-0.214195
-0.208956
-0.201061
-0.191034
-0.17916
-0.165983
-0.15209
-0.138012
-0.12363
-0.107936
-0.088069
-0.045792
-0.0532974
-0.0632495
-0.0741425
-0.0848675
-0.0946302
-0.103138
-0.110299
-0.116313
-0.121345
-0.125146
-0.127499
-0.127735
-0.125595
-0.1212
-0.115425
-0.10898
-0.10272
-0.0968002
0.0436131
0.0341018
0.0206911
0.00482319
-0.0121716
-0.0292311
-0.0457343
-0.0613646
-0.0761234
-0.0900592
-0.102804
-0.113867
-0.122188
-0.126974
-0.127919
-0.125883
-0.121924
-0.117408
-0.112916
0.132986
0.120024
0.101943
0.0804095
0.0569499
0.0328234
0.00886213
-0.0145078
-0.0372178
-0.0593321
-0.0805422
-0.100239
-0.117049
-0.129523
-0.136604
-0.138743
-0.137169
-0.133806
-0.129768
0.214044
0.195811
0.171978
0.144542
0.115121
0.0850331
0.055132
0.0257897
-0.00301894
-0.0315334
-0.059691
-0.0870199
-0.112054
-0.132734
-0.146941
-0.154153
-0.155288
-0.15282
-0.148703
0.298513
0.273918
0.243694
0.209955
0.174395
0.138392
0.102791
0.0678926
0.0335515
-0.000693268
-0.0351256
-0.0696761
-0.10316
-0.133247
-0.156684
-0.171348
-0.176876
-0.175812
-0.171288
0.362908
0.330952
0.294297
0.255048
0.214894
0.175083
0.136258
0.0984888
0.0614177
0.0243061
-0.0135328
-0.0526448
-0.092584
-0.131454
-0.165373
-0.190363
-0.203363
-0.205365
-0.200077
0.423898
0.385571
0.342665
0.2981
0.253679
0.210498
0.168992
0.129034
0.0901217
0.0513417
0.0117196
-0.0299106
-0.0741596
-0.120458
-0.16561
-0.204812
-0.231521
-0.242438
-0.239303
0.481201
0.434608
0.384997
0.33536
0.287285
0.241549
0.198307
0.157228
0.117732
0.0788589
0.0395781
-0.00159214
-0.0461667
-0.0953776
-0.148307
-0.20217
-0.249069
-0.280133
-0.286438
0.5197
0.460571
0.400746
0.342851
0.288
0.236538
0.188299
0.14279
0.0993849
0.0571911
0.0152698
-0.0277857
-0.0737729
-0.125157
-0.183846
-0.251676
-0.325688
-0.39912
-0.458983
0.545124
0.480236
0.419297
0.363949
0.314202
0.269572
0.229292
0.192582
0.158719
0.12701
0.0969391
0.067879
0.0391187
0.00949793
-0.0227326
-0.0611353
-0.109467
-0.172119
-0.25122
0.565238
0.49788
0.438755
0.387193
0.341924
0.301834
0.265833
0.233078
0.202902
0.174744
0.148315
0.123408
0.0999233
0.0779052
0.0575649
0.0388208
0.02137
0.00382572
-0.0165288
0.538366
0.461349
0.396502
0.341245
0.293519
0.251827
0.214895
0.181774
0.151739
0.124176
0.0987642
0.0752691
0.0535565
0.0336647
0.0158694
0.00047396
-0.0119974
-0.0209844
-0.0262176
0.47536
0.404616
0.346126
0.297021
0.255165
0.219009
0.187303
0.159123
0.133796
0.110769
0.0897504
0.0705301
0.0529577
0.0369856
0.0226725
0.0100132
-0.00096492
-0.0102352
-0.0178907
0.397018
0.337141
0.28766
0.246323
0.211326
0.181296
0.15514
0.13204
0.111407
0.0927615
0.0758294
0.0604079
0.0463188
0.0334577
0.0217965
0.0112618
0.00182306
-0.00650071
-0.0137681
0.300209
0.253775
0.215842
0.184481
0.158168
0.135752
0.116348
0.0992966
0.0841315
0.070474
0.0580976
0.0468334
0.0365235
0.0270677
0.0184288
0.0105465
0.00340445
-0.00295912
-0.00856555
0.189645
0.158643
0.134082
0.114166
0.0976611
0.0837123
0.071705
0.0611937
0.0518709
0.0434891
0.0358964
0.0289794
0.022629
0.016774
0.0113845
0.00642082
0.00187445
-0.0022185
-0.00585624
0.0729774
0.0605509
0.0510448
0.0434372
0.0371513
0.031832
0.0272421
0.0232149
0.0196367
0.0164163
0.0134952
0.0108284
0.00837193
0.00609443
0.00397853
0.00200375
0.000160659
-0.00154177
-0.00310313
-0.0729423
-0.0604741
-0.0509408
-0.043316
-0.0370202
-0.0316965
-0.0271064
-0.0230825
-0.0195104
-0.0162985
-0.013388
-0.0107334
-0.00829068
-0.00602818
-0.00392826
-0.00197024
-0.000144407
0.00154073
0.00308508
-0.189613
-0.158576
-0.133992
-0.114062
-0.0975488
-0.0835973
-0.0715913
-0.0610845
-0.0517688
-0.0433965
-0.0358152
-0.028911
-0.0225748
-0.0167352
-0.0113619
-0.00641497
-0.00188564
0.00219051
0.0058121
-0.300177
-0.253711
-0.215755
-0.184378
-0.158055
-0.135633
-0.116229
-0.0991793
-0.0840189
-0.0703686
-0.0580012
-0.0467474
-0.0364489
-0.0270053
-0.0183787
-0.0105086
-0.00337809
0.00297492
0.00857197
-0.396995
-0.337099
-0.287603
-0.246255
-0.211252
-0.181219
-0.155065
-0.131968
-0.111341
-0.092704
-0.0757819
-0.0603715
-0.0462944
-0.0334456
-0.0217964
-0.0112731
-0.00184451
0.0064704
0.0137304
-0.475347
-0.40459
-0.34609
-0.296976
-0.255114
-0.218955
-0.187249
-0.159073
-0.13375
-0.110731
-0.0897213
-0.0705117
-0.052951
-0.0369908
-0.0226889
-0.0100391
0.000932079
0.010199
0.0178554
-0.538368
-0.461346
-0.396491
-0.341227
-0.293495
-0.251802
-0.214871
-0.181753
-0.151726
-0.124173
-0.0987728
-0.0752926
-0.0535972
-0.033724
-0.0159472
-0.000567231
0.0118971
0.0208911
0.0261478
-0.56524
-0.497838
-0.438653
-0.387024
-0.341685
-0.301529
-0.265467
-0.232657
-0.202432
-0.17423
-0.147763
-0.122822
-0.0993045
-0.0772562
-0.056891
-0.0381398
-0.0207253
-0.00330959
0.0167641
-0.545226
-0.480506
-0.419741
-0.364566
-0.314985
-0.270512
-0.230378
-0.193806
-0.160072
-0.128488
-0.098542
-0.0696155
-0.0410096
-0.0115838
0.0203886
0.0584416
0.106334
0.168506
0.24721
-0.519662
-0.460464
-0.400557
-0.342578
-0.287644
-0.236103
-0.187794
-0.142223
-0.0987666
-0.0565319
-0.0145811
0.0284914
0.0744816
0.125857
0.18454
0.252403
0.326553
0.400304
0.46073
-0.481237
-0.434692
-0.385122
-0.335517
-0.287468
-0.241752
-0.198524
-0.157457
-0.117972
-0.0791095
-0.0398419
0.00131202
0.0458701
0.095075
0.148028
0.201974
0.249026
0.280285
0.286728
-0.42392
-0.385624
-0.342743
-0.298199
-0.253793
-0.210623
-0.169126
-0.129175
-0.0902702
-0.0514975
-0.0118831
0.0297416
0.0739939
0.120316
0.165525
0.204824
0.231647
0.242662
0.239576
-0.36293
-0.331005
-0.294376
-0.255148
-0.215011
-0.175212
-0.136395
-0.0986307
-0.061563
-0.024453
0.0133874
0.0525077
0.0924683
0.13138
0.165364
0.190432
0.203502
0.205549
0.200274
-0.298535
-0.27397
-0.243773
-0.210057
-0.174514
-0.138523
-0.102931
-0.0680354
-0.033694
0.000555018
0.0349971
0.0695661
0.103081
0.133215
0.156708
0.171428
0.176999
0.175958
0.171443
-0.214062
-0.195859
-0.172051
-0.144638
-0.115234
-0.0851578
-0.0552628
-0.0259213
0.00289111
0.0314146
0.0595876
0.0869404
0.112008
0.13273
0.146982
0.154234
0.155396
0.152942
0.148834
-0.133006
-0.120073
-0.102019
-0.0805089
-0.0570667
-0.0329511
-0.00899425
0.0143775
0.0370952
0.0592231
0.0804534
0.100178
0.117022
0.129533
0.13665
0.138818
0.137264
0.133914
0.129887
-0.0436299
-0.0341475
-0.0207642
-0.00491931
0.0120588
0.0291086
0.0456095
0.0612444
0.0760141
0.089967
0.102734
0.113825
0.122178
0.126996
0.12797
0.125956
0.122015
0.117512
0.113033
0.0457531
0.0531797
0.0630483
0.0738617
0.0845187
0.0942304
0.102707
0.109858
0.115882
0.12094
0.124782
0.127185
0.127476
0.125392
0.121047
0.115318
0.108917
0.10271
0.0968711
0.135047
0.150547
0.167946
0.184649
0.198809
0.209151
0.21519
0.216928
0.214864
0.209634
0.201729
0.191677
0.179768
0.166552
0.15262
0.138507
0.124094
0.108372
0.0884755
0.20188
0.198965
0.192771
0.183422
0.17162
0.158315
0.144594
0.131375
0.119383
0.108927
0.0999252
0.0920019
0.0846044
0.0772175
0.0694156
0.0607074
0.0502958
0.0365386
0.0163762
0.276424
0.281836
0.282984
0.279527
0.27159
0.259705
0.244687
0.227486
0.209094
0.190217
0.171493
0.153206
0.135437
0.11812
0.101059
0.0836466
0.0648957
0.0432776
0.0168212
0.342606
0.346386
0.343814
0.335335
0.321583
0.303501
0.28221
0.258903
0.234711
0.210427
0.186793
0.164097
0.142424
0.121617
0.101367
0.0809926
0.0597384
0.0368964
0.0124025
0.402519
0.403101
0.395982
0.382238
0.362881
0.339189
0.312536
0.284276
0.255607
0.22732
0.200151
0.174321
0.149855
0.12651
0.103945
0.0815353
0.0588029
0.0355047
0.011863
0.460192
0.455857
0.443273
0.423756
0.398619
0.369479
0.33794
0.305461
0.273228
0.24194
0.212244
0.184229
0.157815
0.132674
0.108451
0.0845667
0.0606806
0.0366256
0.0123928
0.512566
0.502005
0.483358
0.457741
0.426877
0.392753
0.357136
0.321482
0.286846
0.25374
0.222637
0.193438
0.165937
0.139708
0.114373
0.0893495
0.0643222
0.0390626
0.0133681
0.54306
0.527739
0.503817
0.473231
0.438345
0.401395
0.364103
0.327714
0.292996
0.260165
0.229463
0.200579
0.173182
0.146767
0.120941
0.0951075
0.0689533
0.0422048
0.0145813
0.579387
0.558188
0.527413
0.490716
0.451124
0.411022
0.371977
0.334932
0.300297
0.267942
0.237843
0.209452
0.182293
0.155755
0.1294
0.10258
0.0749632
0.0462429
0.0161076
0.61051
0.580076
0.541485
0.498918
0.455604
0.413741
0.374495
0.338318
0.305148
0.274449
0.245914
0.218754
0.192361
0.166024
0.139273
0.111408
0.0821019
0.0510443
0.0179247
0.626867
0.586686
0.540962
0.494081
0.449183
0.407915
0.370755
0.337487
0.307499
0.279828
0.253909
0.228741
0.203619
0.177762
0.150697
0.121691
0.0904493
0.0566788
0.0200744
0.62891
0.579652
0.528068
0.478994
0.435018
0.396807
0.363887
0.335282
0.309823
0.286161
0.263536
0.240782
0.217143
0.191801
0.164308
0.133912
0.100364
0.0633857
0.0226523
0.625615
0.566377
0.510084
0.460911
0.420023
0.386705
0.359392
0.336372
0.316
0.296616
0.277356
0.256935
0.234585
0.209467
0.181173
0.148917
0.11249
0.0715971
0.0258333
0.609677
0.541358
0.48378
0.438174
0.403525
0.377535
0.357536
0.341217
0.326591
0.311811
0.296017
0.27786
0.256606
0.231413
0.201922
0.167298
0.127346
0.0817052
0.029813
0.549471
0.481866
0.431672
0.397221
0.375006
0.361135
0.351987
0.344919
0.337832
0.32888
0.317352
0.30194
0.282015
0.256788
0.225982
0.188724
0.14481
0.0937611
0.0347105
0.490189
0.428429
0.39002
0.369758
0.36139
0.359811
0.360928
0.362154
0.361532
0.357345
0.349097
0.335547
0.316156
0.290145
0.257275
0.216539
0.167609
0.109709
0.0413657
0.417299
0.368995
0.350051
0.34891
0.356959
0.368767
0.380459
0.389905
0.39551
0.395821
0.390569
0.378633
0.359532
0.332466
0.297151
0.252351
0.197424
0.131042
0.0506772
0.295956
0.283632
0.297405
0.322818
0.351565
0.379373
0.403418
0.422366
0.435188
0.440833
0.439249
0.429541
0.411257
0.383573
0.346083
0.297229
0.235792
0.159517
0.0640381
0.178831
0.216938
0.267338
0.319063
0.367042
0.409179
0.444195
0.471589
0.490938
0.501626
0.503666
0.496461
0.47945
0.451687
0.412426
0.35955
0.290703
0.201924
0.0854956
0.0671982
0.162889
0.250759
0.328028
0.394538
0.450599
0.496655
0.532903
0.55953
0.576413
0.583472
0.58054
0.566815
0.541143
0.502157
0.446848
0.370848
0.267175
0.122213
-0.0166099
0.131528
0.251882
0.351398
0.434729
0.504002
0.561252
0.607123
0.64241
0.667569
0.68229
0.687024
0.680617
0.661645
0.62775
0.574547
0.494252
0.374544
0.191479
-0.0568925
0.125395
0.269191
0.386586
0.484898
0.566926
0.635965
0.692904
0.739201
0.776096
0.803039
0.82143
0.829844
0.826723
0.808423
0.768679
0.694304
0.563849
0.335803
-0.0503601
0.141721
0.29875
0.429654
0.541256
0.635791
0.717471
0.787419
0.847942
0.901508
0.947631
0.989288
1.0255
1.05544
1.07455
1.07502
1.0364
0.923103
0.665598
-0.00905412
0.173024
0.335228
0.476242
0.599669
0.706413
0.801368
0.886262
0.964569
1.04093
1.11573
1.19471
1.2798
1.37398
1.47461
1.57703
1.65579
1.65928
1.47821
0.0413643
0.207712
0.372573
0.522334
0.656405
0.774694
0.882644
0.98374
1.08265
1.18839
1.30337
1.43842
1.60646
1.82656
2.12148
2.54913
3.19938
4.2665
6.15225
)
;

boundaryField
{
    up
    {
        type            calculated;
        value           nonuniform List<scalar> 
84
(
-6.15224
-1.47822
-0.665599
-0.335803
-0.19148
-0.122213
-0.0854957
-0.064038
-0.050677
-0.0413654
-0.0347102
-0.0298129
-0.0258331
-0.0226523
-0.0200745
-0.0179248
-0.0161077
-0.0145815
-0.0133684
-0.0123931
-0.0118634
-0.0124033
-0.0168231
-0.0164039
-0.0755153
-0.0908501
-0.107126
-0.123557
-0.141726
-0.163131
-0.189783
-0.223702
-0.262345
-0.455959
-0.260404
-0.0170472
-0.0262
-0.0178661
-0.0137535
-0.00856102
-0.00585522
-0.00310422
0.00308616
0.00581112
0.0085675
0.0137159
0.017831
0.0261301
0.0172758
0.256273
0.458036
0.262602
0.223941
0.189968
0.16328
0.141854
0.123675
0.107245
0.0909589
0.0758861
0.0163762
0.0168212
0.0124025
0.011863
0.0123928
0.0133681
0.0145813
0.0161076
0.0179247
0.0200744
0.0226523
0.0258333
0.029813
0.0347105
0.0413657
0.0506772
0.0640381
0.0854956
0.122213
0.191479
0.335803
0.665598
1.47821
6.15225
)
;
    }
    low
    {
        type            calculated;
        value           nonuniform List<scalar> 
84
(
-0.0373084
0.0151418
0.0602455
0.0677012
0.023444
-0.0684671
-0.189344
-0.313687
-0.437837
-0.506995
-0.564055
-0.621091
-0.629854
-0.628645
-0.623706
-0.603302
-0.568808
-0.531634
-0.499144
-0.443166
-0.383907
-0.323909
-0.258406
-0.186293
-0.122942
-0.0414547
0.0386718
0.120633
0.198031
0.282218
0.349189
0.412386
0.473074
0.516158
0.545331
0.569966
0.548007
0.486083
0.40681
0.308141
0.194962
0.0752175
-0.0751822
-0.194929
-0.308107
-0.406783
-0.486064
-0.548002
-0.569961
-0.545417
-0.516121
-0.473102
-0.412406
-0.34921
-0.282239
-0.19805
-0.120654
-0.038689
0.0414169
0.122969
0.186266
0.258421
0.323913
0.38391
0.443168
0.499147
0.531637
0.568809
0.603304
0.623706
0.628646
0.629855
0.621089
0.564057
0.506999
0.437841
0.313691
0.189347
0.0684693
-0.0234429
-0.0677013
-0.0602463
-0.0151423
0.0373085
)
;
    }
    left
    {
        type            calculated;
        value           nonuniform List<scalar> 
19
(
-0.0366726
-0.199286
-0.367406
-0.522251
-0.662018
-0.785782
-0.899435
-1.00706
-1.11331
-1.2296
-1.3582
-1.5114
-1.70621
-1.96836
-2.32658
-2.86251
-3.70086
-5.11303
-5.33615
)
;
    }
    right
    {
        type            calculated;
        value           nonuniform List<scalar> 
19
(
0.0366728
0.199286
0.367406
0.522252
0.662018
0.785782
0.899436
1.00706
1.11331
1.2296
1.3582
1.5114
1.7062
1.96836
2.32658
2.86251
3.70086
5.11303
5.33615
)
;
    }
    frontAndBackPlanes
    {
        type            empty;
    }
}


// ************************************************************************* //
