/*--------------------------------*- C++ -*----------------------------------*\
  =========                 |
  \\      /  F ield         | OpenFOAM: The Open Source CFD Toolbox
   \\    /   O peration     | Website:  https://openfoam.org
    \\  /    A nd           | Version:  7
     \\/     M anipulation  |
\*---------------------------------------------------------------------------*/
FoamFile
{
    version     2.0;
    format      ascii;
    class       volScalarField;
    location    "0.26";
    object      T;
}
// * * * * * * * * * * * * * * * * * * * * * * * * * * * * * * * * * * * * * //

dimensions      [0 0 0 1 0 0 0];

internalField   nonuniform List<scalar> 
1596
(
0.997402
0.989951
0.982325
0.975098
0.968417
0.9622
0.956314
0.950455
0.9444
0.937634
0.929753
0.920212
0.907789
0.89078
0.866538
0.829156
0.76762
0.659913
0.461914
0.988767
0.965567
0.943676
0.923533
0.905113
0.888103
0.872107
0.856482
0.840673
0.82372
0.804812
0.782964
0.756369
0.722804
0.67951
0.621254
0.539924
0.421555
0.239711
0.978549
0.939529
0.90443
0.872828
0.844248
0.818095
0.793737
0.770334
0.747134
0.723005
0.696986
0.667973
0.634158
0.59348
0.543681
0.480856
0.399642
0.291773
0.141827
0.968453
0.914613
0.867595
0.825924
0.788608
0.754769
0.723587
0.6941
0.665454
0.636467
0.606153
0.573417
0.536608
0.49396
0.443714
0.383044
0.308461
0.215133
0.0940967
0.960062
0.893393
0.835939
0.785477
0.74061
0.700246
0.663423
0.629113
0.596411
0.564138
0.531326
0.496923
0.459442
0.41737
0.369313
0.313167
0.246591
0.166701
0.0681821
0.954408
0.877632
0.811365
0.753264
0.701782
0.655726
0.614062
0.575737
0.539829
0.50518
0.470852
0.435834
0.398768
0.35832
0.313328
0.262138
0.203081
0.13435
0.0526599
0.951638
0.867823
0.794478
0.72982
0.672471
0.621298
0.575279
0.53338
0.49469
0.458087
0.42266
0.387431
0.351131
0.312547
0.27065
0.224058
0.171485
0.111709
0.0425769
0.951154
0.863253
0.784621
0.714483
0.651937
0.59608
0.546001
0.50074
0.459427
0.42099
0.384547
0.349145
0.313579
0.27671
0.237581
0.194973
0.147813
0.0951887
0.0355824
0.952366
0.862918
0.780694
0.706135
0.639026
0.578849
0.524905
0.476367
0.432446
0.392131
0.354579
0.318859
0.283814
0.24835
0.211545
0.172273
0.129574
0.0826967
0.0304757
0.954017
0.864697
0.780377
0.702485
0.631535
0.567482
0.509927
0.458232
0.411728
0.36949
0.330723
0.294524
0.259773
0.225407
0.190517
0.154026
0.115037
0.0728672
0.0265563
0.955354
0.866873
0.78154
0.701314
0.627294
0.559909
0.499099
0.444461
0.39548
0.35134
0.311308
0.274519
0.239886
0.20637
0.173066
0.138925
0.103073
0.0648537
0.0234184
0.957024
0.869845
0.784136
0.702246
0.625732
0.555449
0.491681
0.434278
0.382906
0.336872
0.295522
0.258033
0.223354
0.190462
0.158451
0.126283
0.0930892
0.05821
0.0208507
0.958616
0.872972
0.787302
0.704241
0.625709
0.552928
0.486505
0.42655
0.372917
0.325053
0.282388
0.244151
0.209323
0.176899
0.145965
0.115484
0.0845806
0.0525749
0.0186957
0.959606
0.875269
0.789835
0.705983
0.625865
0.550997
0.482273
0.420048
0.364371
0.314828
0.270942
0.231994
0.197003
0.164977
0.134994
0.106013
0.0771421
0.0476738
0.0168397
0.960446
0.877115
0.791884
0.707403
0.625961
0.549296
0.478548
0.414298
0.356776
0.305707
0.260708
0.221114
0.185976
0.154316
0.125202
0.0975825
0.0705465
0.043351
0.0152177
0.961262
0.87876
0.793627
0.708541
0.625898
0.547615
0.475041
0.408956
0.34976
0.297309
0.251309
0.211146
0.175902
0.144606
0.116315
0.0899623
0.0646124
0.0394841
0.0137804
0.961828
0.879937
0.794791
0.709086
0.625314
0.545546
0.471312
0.403571
0.342875
0.289203
0.242338
0.201713
0.166436
0.135541
0.108068
0.0829333
0.0591725
0.0359633
0.0124848
0.962235
0.880738
0.795455
0.709082
0.624201
0.543023
0.467242
0.397982
0.335931
0.281178
0.233575
0.192596
0.157367
0.126921
0.100282
0.0763427
0.054108
0.0327105
0.0113001
0.962993
0.881975
0.796487
0.709355
0.623291
0.540661
0.463324
0.392562
0.329193
0.273405
0.225115
0.183824
0.148674
0.118692
0.0928813
0.0701111
0.049349
0.0296772
0.0102075
0.963922
0.883576
0.797913
0.709978
0.622668
0.538529
0.459599
0.38732
0.322635
0.265829
0.216873
0.175291
0.140232
0.110715
0.0857228
0.0641011
0.0447814
0.0267888
0.00918116
0.96463
0.884974
0.799194
0.710483
0.621931
0.536288
0.455776
0.382001
0.316031
0.258243
0.208654
0.166807
0.131853
0.102802
0.0786148
0.0581271
0.0402447
0.0239373
0.00818561
0.965345
0.88637
0.800505
0.711044
0.621263
0.534114
0.452016
0.376742
0.309486
0.25071
0.200479
0.158349
0.123471
0.094839
0.0714027
0.051998
0.0355354
0.0209603
0.00716379
0.96617
0.88794
0.802021
0.71183
0.620826
0.532167
0.448471
0.371676
0.303099
0.243291
0.19236
0.149877
0.114992
0.0866824
0.0638826
0.0454418
0.0303182
0.0175224
0.00595439
0.967045
0.889598
0.803634
0.712722
0.620507
0.530354
0.445066
0.366743
0.296814
0.235913
0.184195
0.141252
0.106234
0.0781032
0.0557701
0.0380871
0.0240813
0.0129374
0.00390718
0.968427
0.893052
0.808594
0.718625
0.626817
0.536579
0.450787
0.371623
0.300609
0.23848
0.185504
0.141386
0.105369
0.0764736
0.0536419
0.0357228
0.0217566
0.0110049
0.00292582
0.969947
0.897481
0.815774
0.728242
0.638397
0.54952
0.464419
0.385261
0.313617
0.250328
0.195803
0.149939
0.112166
0.0816681
0.057484
0.0384875
0.0236692
0.0121996
0.0034019
0.970707
0.900116
0.820503
0.735092
0.647194
0.559906
0.475891
0.397227
0.325455
0.261453
0.205727
0.158331
0.118893
0.0867861
0.0611994
0.0410684
0.025366
0.0131924
0.00376572
0.970713
0.900888
0.822633
0.73896
0.65294
0.567426
0.484869
0.407185
0.335809
0.271589
0.215068
0.16642
0.125453
0.0917603
0.064732
0.0434212
0.0268212
0.0139803
0.00402703
0.970228
0.900333
0.822877
0.74066
0.656477
0.572898
0.492109
0.415808
0.345274
0.281266
0.224314
0.174661
0.132266
0.0969494
0.068359
0.0457403
0.028166
0.0146508
0.00422765
0.969302
0.898797
0.821838
0.740957
0.658649
0.57717
0.498413
0.42383
0.35451
0.291088
0.234035
0.18361
0.139872
0.102845
0.0724722
0.0482859
0.0295429
0.0152733
0.00439362
0.968134
0.896862
0.820342
0.740816
0.660472
0.581244
0.504729
0.432119
0.364308
0.301788
0.24494
0.19399
0.149021
0.110193
0.0777274
0.0515276
0.0312002
0.0159362
0.00454594
0.96723
0.895373
0.819389
0.741303
0.663012
0.586145
0.512007
0.441547
0.375468
0.314122
0.257792
0.206626
0.160658
0.12006
0.0852196
0.056397
0.0337135
0.0168308
0.00468776
0.966382
0.894084
0.818795
0.742309
0.666233
0.591893
0.520319
0.452233
0.388167
0.32835
0.272972
0.222102
0.175668
0.133728
0.096626
0.064756
0.0386836
0.018818
0.00483731
0.965564
0.893017
0.818649
0.743989
0.670338
0.598728
0.529933
0.464469
0.402728
0.344838
0.290933
0.241035
0.194982
0.152683
0.114264
0.079902
0.0501096
0.0256816
0.00703939
0.964596
0.891516
0.817718
0.744487
0.67284
0.603547
0.537157
0.474019
0.414405
0.358372
0.306022
0.257367
0.21223
0.170456
0.131998
0.0966951
0.0645587
0.0359323
0.0111097
0.9629
0.887912
0.813331
0.740163
0.669156
0.600858
0.535633
0.473688
0.415196
0.360141
0.308592
0.26055
0.215849
0.174359
0.136066
0.100795
0.0684653
0.0391476
0.0126777
0.960672
0.882942
0.806813
0.732932
0.661785
0.59371
0.528914
0.467481
0.409496
0.35488
0.30367
0.255863
0.211305
0.169911
0.131745
0.0967354
0.0649414
0.0365904
0.0116261
0.9588
0.87879
0.801386
0.726927
0.655673
0.587794
0.523364
0.46237
0.404831
0.350622
0.299765
0.25226
0.207966
0.166829
0.128961
0.0943285
0.0630298
0.0353232
0.0111627
0.957462
0.875722
0.797312
0.722376
0.65101
0.583257
0.519093
0.458429
0.401236
0.347354
0.296794
0.249559
0.205516
0.164626
0.127027
0.0927021
0.0617703
0.034509
0.0108791
0.956441
0.873384
0.794207
0.718905
0.647451
0.57979
0.515825
0.45541
0.398483
0.344857
0.294537
0.247524
0.203687
0.163
0.125615
0.091526
0.0608654
0.0339276
0.0106801
0.955696
0.87168
0.791957
0.716402
0.644893
0.577304
0.513484
0.453249
0.396513
0.343073
0.292927
0.246076
0.202392
0.161852
0.124618
0.0906938
0.0602221
0.0335112
0.0105362
0.955089
0.870458
0.790446
0.714789
0.64329
0.575776
0.512067
0.451959
0.395354
0.342039
0.292009
0.245268
0.201685
0.16124
0.124101
0.0902738
0.0599054
0.0333111
0.0104697
0.955091
0.870462
0.790451
0.714795
0.643296
0.575783
0.512074
0.451966
0.39536
0.342045
0.292015
0.245273
0.201689
0.161244
0.124104
0.0902765
0.0599073
0.0333123
0.0104701
0.9557
0.87169
0.791971
0.716419
0.644912
0.577324
0.513504
0.453269
0.396533
0.343092
0.292944
0.246093
0.202407
0.161864
0.124629
0.0907025
0.0602284
0.0335151
0.0105375
0.956448
0.873399
0.794229
0.718931
0.64748
0.579821
0.515857
0.455442
0.398514
0.344887
0.294565
0.247549
0.20371
0.16302
0.125631
0.0915392
0.0608749
0.0339333
0.010682
0.95747
0.875743
0.797341
0.722411
0.651049
0.583299
0.519136
0.458471
0.401277
0.347393
0.296831
0.249593
0.205545
0.164652
0.127048
0.0927188
0.0617821
0.0345161
0.0108815
0.95881
0.878815
0.801422
0.726971
0.655721
0.587844
0.523416
0.462421
0.404882
0.35067
0.299809
0.2523
0.208002
0.16686
0.128986
0.0943479
0.0630435
0.0353313
0.0111653
0.960684
0.882971
0.806854
0.732982
0.66184
0.593769
0.528975
0.467541
0.409554
0.354934
0.30372
0.255909
0.211345
0.169944
0.131772
0.0967547
0.0649542
0.0365973
0.0116281
0.962913
0.887943
0.813377
0.740218
0.669219
0.600924
0.5357
0.473755
0.415261
0.360201
0.308647
0.260598
0.215888
0.174389
0.136086
0.100806
0.0684686
0.0391463
0.012676
0.964612
0.891562
0.817791
0.744583
0.672956
0.603678
0.5373
0.474171
0.414564
0.358534
0.306185
0.257529
0.21239
0.170614
0.13215
0.0968391
0.0646866
0.036029
0.0111516
0.965582
0.893071
0.818736
0.744106
0.67048
0.598893
0.530115
0.464665
0.402934
0.345051
0.291149
0.241251
0.195195
0.152889
0.114457
0.0800729
0.0502463
0.0257711
0.00707179
0.966397
0.89413
0.81887
0.742411
0.666357
0.592037
0.520478
0.452403
0.388344
0.32853
0.273151
0.222278
0.175834
0.13388
0.0967579
0.0648595
0.0387529
0.0188524
0.00484403
0.967243
0.895415
0.819459
0.741399
0.66313
0.586281
0.512157
0.441706
0.375632
0.314288
0.257954
0.20678
0.1608
0.120183
0.085319
0.056469
0.0337581
0.0168523
0.0046933
0.968147
0.896901
0.820406
0.740905
0.660582
0.581372
0.50487
0.432268
0.36446
0.301939
0.245086
0.194125
0.149141
0.110294
0.0778054
0.0515822
0.0312339
0.0159532
0.00455078
0.969313
0.898832
0.821897
0.741039
0.658752
0.577289
0.498544
0.423968
0.35465
0.291226
0.234165
0.183729
0.139975
0.102929
0.0725361
0.0483304
0.0295708
0.015288
0.004398
0.970237
0.900363
0.82293
0.740735
0.656572
0.573008
0.49223
0.415935
0.345402
0.28139
0.22443
0.174765
0.132355
0.0970211
0.0684132
0.0457783
0.0281903
0.014664
0.00423174
0.970721
0.900914
0.82268
0.739027
0.653025
0.567526
0.484979
0.4073
0.335925
0.2717
0.215171
0.166512
0.125531
0.0918224
0.0647791
0.0434547
0.0268432
0.0139926
0.00403104
0.970713
0.900138
0.820544
0.735151
0.64727
0.559995
0.475989
0.397331
0.325558
0.261553
0.205818
0.158412
0.118961
0.0868407
0.0612413
0.0410988
0.0253866
0.0132045
0.00376992
0.969952
0.8975
0.815809
0.728294
0.638464
0.549599
0.464506
0.385353
0.313708
0.250415
0.195884
0.15001
0.112226
0.0817168
0.057522
0.038516
0.0236893
0.0122121
0.00340667
0.968427
0.893056
0.808602
0.718638
0.626835
0.536601
0.450812
0.371649
0.300635
0.238505
0.185526
0.141404
0.105383
0.0764833
0.0536477
0.0357252
0.0217566
0.0110036
0.00292476
0.967042
0.889592
0.803625
0.712709
0.620492
0.530336
0.445048
0.366724
0.296796
0.235896
0.184179
0.141237
0.106221
0.0780908
0.0557589
0.0380773
0.0240732
0.0129315
0.00390445
0.96617
0.887939
0.802019
0.711827
0.620822
0.532164
0.448468
0.371674
0.303098
0.243291
0.19236
0.149879
0.114994
0.0866844
0.0638847
0.0454438
0.0303198
0.0175235
0.00595468
0.965344
0.886369
0.800503
0.711042
0.621261
0.534112
0.452015
0.376742
0.309486
0.250711
0.20048
0.15835
0.123473
0.0948407
0.0714044
0.0519995
0.0355365
0.0209609
0.00716397
0.96463
0.884973
0.799193
0.710481
0.62193
0.536286
0.455775
0.382
0.316031
0.258244
0.208655
0.166808
0.131855
0.102803
0.0786161
0.0581282
0.0402455
0.0239377
0.00818574
0.963921
0.883576
0.797912
0.709977
0.622667
0.538528
0.459599
0.38732
0.322635
0.26583
0.216874
0.175292
0.140233
0.110717
0.0857238
0.0641019
0.044782
0.0267891
0.00918125
0.962993
0.881974
0.796486
0.709355
0.623291
0.540661
0.463324
0.392563
0.329194
0.273406
0.225116
0.183825
0.148675
0.118693
0.092882
0.0701117
0.0493494
0.0296774
0.0102075
0.962235
0.880738
0.795455
0.709082
0.624201
0.543023
0.467242
0.397982
0.335932
0.281178
0.233576
0.192597
0.157367
0.126921
0.100282
0.0763431
0.0541083
0.0327106
0.0113002
0.961828
0.879937
0.794791
0.709086
0.625314
0.545546
0.471312
0.403571
0.342876
0.289203
0.242338
0.201713
0.166437
0.135541
0.108068
0.0829334
0.0591726
0.0359633
0.0124848
0.961262
0.87876
0.793627
0.708541
0.625898
0.547615
0.475041
0.408956
0.34976
0.29731
0.25131
0.211147
0.175903
0.144607
0.116315
0.0899623
0.0646124
0.0394841
0.0137804
0.960446
0.877115
0.791884
0.707403
0.625961
0.549296
0.478549
0.414299
0.356776
0.305707
0.260708
0.221114
0.185977
0.154316
0.125202
0.0975824
0.0705464
0.0433509
0.0152177
0.959606
0.875269
0.789836
0.705983
0.625866
0.550997
0.482273
0.420049
0.364371
0.314828
0.270942
0.231994
0.197003
0.164976
0.134994
0.106012
0.0771419
0.0476737
0.0168397
0.958616
0.872972
0.787302
0.704241
0.62571
0.552928
0.486505
0.42655
0.372917
0.325053
0.282388
0.24415
0.209323
0.176898
0.145964
0.115484
0.0845803
0.0525748
0.0186957
0.957024
0.869845
0.784136
0.702246
0.625732
0.555449
0.491681
0.434278
0.382906
0.336872
0.295522
0.258033
0.223353
0.190462
0.158451
0.126283
0.093089
0.0582099
0.0208507
0.955354
0.866873
0.781541
0.701315
0.627294
0.559909
0.499099
0.444461
0.39548
0.351339
0.311308
0.274518
0.239886
0.20637
0.173066
0.138925
0.103072
0.0648536
0.0234184
0.954018
0.864698
0.780377
0.702485
0.631534
0.567481
0.509926
0.458231
0.411728
0.36949
0.330723
0.294524
0.259773
0.225406
0.190516
0.154026
0.115037
0.0728672
0.0265564
0.952366
0.862918
0.780694
0.706134
0.639025
0.578848
0.524904
0.476366
0.432445
0.39213
0.354578
0.318858
0.283813
0.248349
0.211545
0.172272
0.129574
0.0826968
0.0304758
0.951154
0.863253
0.78462
0.714482
0.651937
0.59608
0.546
0.500739
0.459426
0.420989
0.384546
0.349144
0.313578
0.276709
0.237581
0.194973
0.147813
0.0951888
0.0355825
0.951638
0.867822
0.794478
0.729819
0.67247
0.621297
0.575278
0.533379
0.494689
0.458086
0.422659
0.38743
0.351131
0.312547
0.270649
0.224058
0.171485
0.111709
0.042577
0.954408
0.877631
0.811364
0.753263
0.701781
0.655725
0.614061
0.575736
0.539827
0.505179
0.470851
0.435834
0.398767
0.35832
0.313328
0.262138
0.203081
0.13435
0.0526599
0.960061
0.893393
0.835938
0.785476
0.740609
0.700245
0.663422
0.629112
0.59641
0.564137
0.531325
0.496922
0.459441
0.417369
0.369313
0.313167
0.246591
0.166701
0.0681822
0.968452
0.914612
0.867595
0.825923
0.788607
0.754768
0.723586
0.694099
0.665453
0.636466
0.606153
0.573417
0.536608
0.493959
0.443714
0.383044
0.308461
0.215133
0.0940967
0.978549
0.939529
0.90443
0.872827
0.844248
0.818094
0.793736
0.770333
0.747133
0.723004
0.696986
0.667973
0.634158
0.59348
0.543681
0.480856
0.399642
0.291773
0.141827
0.988766
0.965567
0.943676
0.923533
0.905113
0.888103
0.872106
0.856481
0.840672
0.82372
0.804812
0.782963
0.756368
0.722804
0.67951
0.621254
0.539924
0.421555
0.239711
0.997402
0.989951
0.982325
0.975098
0.968417
0.9622
0.956314
0.950454
0.9444
0.937634
0.929753
0.920212
0.907789
0.89078
0.866538
0.829156
0.76762
0.659913
0.461914
)
;

boundaryField
{
    up
    {
        type            fixedValue;
        value           uniform 0;
    }
    low
    {
        type            fixedValue;
        value           uniform 1;
    }
    left
    {
        type            fixedValue;
        value           uniform 1;
    }
    right
    {
        type            fixedValue;
        value           uniform 1;
    }
    frontAndBackPlanes
    {
        type            empty;
    }
}


// ************************************************************************* //
