/*--------------------------------*- C++ -*----------------------------------*\
  =========                 |
  \\      /  F ield         | OpenFOAM: The Open Source CFD Toolbox
   \\    /   O peration     | Website:  https://openfoam.org
    \\  /    A nd           | Version:  7
     \\/     M anipulation  |
\*---------------------------------------------------------------------------*/
FoamFile
{
    version     2.0;
    format      ascii;
    class       volScalarField;
    location    "0.1";
    object      gradTy;
}
// * * * * * * * * * * * * * * * * * * * * * * * * * * * * * * * * * * * * * //

dimensions      [0 -1 0 1 0 0 0];

internalField   nonuniform List<scalar> 
1596
(
-0.84001
-1.54266
-2.08505
-2.5615
-2.96474
-3.35579
-3.70097
-4.06437
-4.46055
-4.89603
-5.51679
-6.30412
-7.44444
-9.14331
-11.9054
-16.3307
-24.3842
-39.35
-92.9399
-2.53182
-3.06861
-3.36268
-3.5674
-3.70535
-3.85491
-3.99545
-4.18966
-4.45431
-4.78439
-5.30621
-5.99133
-6.96845
-8.33166
-10.3472
-13.1346
-17.3584
-23.6114
-41.3695
-4.45419
-4.55774
-4.50966
-4.4161
-4.28955
-4.20447
-4.14411
-4.16554
-4.28199
-4.48087
-4.86738
-5.40287
-6.17892
-7.23918
-8.75125
-10.723
-13.5219
-17.3846
-25.629
-6.36726
-5.93159
-5.51116
-5.11969
-4.74222
-4.43667
-4.18661
-4.04001
-4.00568
-4.0662
-4.30633
-4.68252
-5.26004
-6.05665
-7.18453
-8.60941
-10.5547
-13.1062
-17.4365
-8.00812
-7.11101
-6.36034
-5.70236
-5.10175
-4.59781
-4.17538
-3.87224
-3.69388
-3.6206
-3.71824
-3.94325
-4.34141
-4.91724
-5.74998
-6.79365
-8.19649
-9.97947
-12.567
-9.18436
-8.03521
-7.05487
-6.18895
-5.40544
-4.73212
-4.15898
-3.7153
-3.40508
-3.20881
-3.17531
-3.26427
-3.50615
-3.89845
-4.49865
-5.26198
-6.29335
-7.58823
-9.3058
-9.83858
-8.67122
-7.58979
-6.5925
-5.6757
-4.86746
-4.16845
-3.60305
-3.17616
-2.87062
-2.72068
-2.69094
-2.7994
-3.03941
-3.45224
-3.99903
-4.75662
-5.71301
-6.93091
-10.0339
-9.01426
-7.95235
-6.90568
-5.91079
-5.0067
-4.20976
-3.54412
-3.01811
-2.61877
-2.36883
-2.23834
-2.23529
-2.35012
-2.61094
-2.98564
-3.53067
-4.23421
-5.12292
-9.90335
-9.13338
-8.17925
-7.15139
-6.1266
-5.16155
-4.29115
-3.54406
-2.93427
-2.45456
-2.11947
-1.90438
-1.80946
-1.82283
-1.96144
-2.19892
-2.5754
-3.08144
-3.72958
-9.54209
-9.01193
-8.21235
-7.26073
-6.25634
-5.27246
-4.36141
-3.55967
-2.88832
-2.3469
-1.94519
-1.66359
-1.49666
-1.43085
-1.47384
-1.60366
-1.84725
-2.1977
-2.66198
-9.17784
-8.79652
-8.13456
-7.2759
-6.31839
-5.34341
-4.41596
-3.58084
-2.86652
-2.27948
-1.82752
-1.49545
-1.27428
-1.14917
-1.12043
-1.16893
-1.31076
-1.54039
-1.86193
-8.79262
-8.55416
-8.01141
-7.24266
-6.34033
-5.38826
-4.45911
-3.60502
-2.86125
-2.24073
-1.75136
-1.38164
-1.12048
-0.9522
-0.871413
-0.860582
-0.927135
-1.06582
-1.27862
-8.35961
-8.24226
-7.80653
-7.1249
-6.28409
-5.36834
-4.45364
-3.59773
-2.84115
-2.20227
-1.69028
-1.29671
-1.00962
-0.812866
-0.697063
-0.645539
-0.65923
-0.73254
-0.865688
-8.00892
-7.94528
-7.58172
-6.96824
-6.18086
-5.30191
-4.40763
-3.55939
-2.80121
-2.15534
-1.63258
-1.22653
-0.925078
-0.711866
-0.574786
-0.497565
-0.476491
-0.505262
-0.582541
-7.71028
-7.68503
-7.36608
-6.79863
-6.05076
-5.2023
-4.3283
-3.49203
-2.7394
-2.09492
-1.57062
-1.16127
-0.854737
-0.634509
-0.486697
-0.395179
-0.353097
-0.353418
-0.393532
-7.43281
-7.4491
-7.16184
-6.62336
-5.90098
-5.07439
-4.21767
-3.39501
-2.65284
-2.01649
-1.49837
-1.09351
-0.789614
-0.569952
-0.419487
-0.322156
-0.269122
-0.252789
-0.269633
-7.19849
-7.2411
-6.97353
-6.44949
-5.73884
-4.92399
-4.07938
-3.2698
-2.54116
-1.9182
-1.4127
-1.01895
-0.724135
-0.511134
-0.364153
-0.267191
-0.210283
-0.185514
-0.188807
-7.00951
-7.07037
-6.81229
-6.28991
-5.57782
-4.76348
-3.92377
-3.12425
-2.4098
-1.80343
-1.31508
-0.937403
-0.656522
-0.454701
-0.315561
-0.223207
-0.16712
-0.139302
-0.135422
-6.81527
-6.93172
-6.68943
-6.16285
-5.43871
-4.61341
-3.76929
-2.9738
-2.27087
-1.68111
-1.21156
-0.852469
-0.588262
-0.400277
-0.271568
-0.186347
-0.133883
-0.106264
-0.0991145
-6.60187
-6.79474
-6.58129
-6.05244
-5.3115
-4.46807
-3.61305
-2.81736
-2.12432
-1.55166
-1.10266
-0.764442
-0.519201
-0.3471
-0.230625
-0.154152
-0.106992
-0.0814804
-0.0733567
-6.42322
-6.67819
-6.49576
-5.96493
-5.20297
-4.3347
-3.46229
-2.66166
-1.97602
-1.41994
-0.992176
-0.676049
-0.451057
-0.295949
-0.192632
-0.125687
-0.0846402
-0.0621974
-0.0543342
-6.25998
-6.58214
-6.43365
-5.9023
-5.11752
-4.21988
-3.32482
-2.51469
-1.83336
-1.29223
-0.885038
-0.590906
-0.386243
-0.248214
-0.158115
-0.100756
-0.0659647
-0.0468837
-0.0398231
-6.09531
-6.49736
-6.39022
-5.8627
-5.05637
-4.12777
-3.2068
-2.38347
-1.70317
-1.17446
-0.785957
-0.512444
-0.327041
-0.205237
-0.127693
-0.0794355
-0.0505912
-0.0346782
-0.0283931
-5.93269
-6.41753
-6.35522
-5.8338
-5.00713
-4.04692
-3.09876
-2.26032
-1.57924
-1.06165
-0.690628
-0.437011
-0.27034
-0.164392
-0.0991491
-0.0599281
-0.0370518
-0.0242374
-0.0177062
-5.78804
-6.35581
-6.36345
-5.88743
-5.08225
-4.12291
-3.16399
-2.30949
-1.61279
-1.08323
-0.703521
-0.444801
-0.275122
-0.167602
-0.101524
-0.0620288
-0.0389537
-0.0257465
-0.0178759
-5.67488
-6.30343
-6.37497
-5.9579
-5.19677
-4.26018
-3.30375
-2.43608
-1.71755
-1.16413
-0.762188
-0.485485
-0.30226
-0.185156
-0.112581
-0.0690206
-0.0435427
-0.0291869
-0.0212218
-5.6574
-6.30052
-6.40654
-6.03509
-5.31721
-4.41064
-3.46559
-2.59161
-1.85411
-1.27561
-0.847723
-0.547958
-0.345966
-0.214595
-0.131748
-0.0812807
-0.0514671
-0.0346701
-0.0255185
-5.74976
-6.35958
-6.46323
-6.11498
-5.43216
-4.55807
-3.63248
-2.76114
-2.01131
-1.41087
-0.956893
-0.631676
-0.407302
-0.257663
-0.160685
-0.100033
-0.0633674
-0.0424319
-0.0309895
-5.93496
-6.48298
-6.55575
-6.21108
-5.55426
-4.71239
-3.81163
-2.9502
-2.19432
-1.57564
-1.09621
-0.743795
-0.493652
-0.321444
-0.205608
-0.130196
-0.0827124
-0.0547083
-0.0390303
-6.20218
-6.65671
-6.67764
-6.32316
-5.68575
-4.8756
-4.00387
-3.15892
-2.4036
-1.77162
-1.26917
-0.88964
-0.611894
-0.41384
-0.274622
-0.179118
-0.115263
-0.0754836
-0.052213
-6.5422
-6.88149
-6.84164
-6.47014
-5.84675
-5.06569
-4.22359
-3.39816
-2.6475
-2.00595
-1.48284
-1.07699
-0.771041
-0.545349
-0.379429
-0.258692
-0.171397
-0.112402
-0.0755087
-6.8846
-7.13204
-7.03781
-6.64943
-6.03833
-5.2852
-4.47341
-3.67018
-2.92816
-2.28125
-1.7409
-1.31112
-0.978495
-0.726296
-0.533965
-0.386305
-0.269553
-0.180874
-0.119136
-7.26253
-7.4201
-7.27088
-6.86303
-6.26096
-5.53348
-4.75187
-3.97317
-3.24401
-2.59676
-2.04387
-1.59405
-1.23816
-0.963502
-0.750203
-0.582307
-0.439559
-0.3154
-0.204993
-7.70068
-7.76372
-7.55803
-7.12937
-6.5351
-5.83339
-5.08385
-4.33385
-3.62351
-2.98257
-2.42392
-1.95952
-1.58493
-1.29321
-1.06857
-0.898012
-0.757101
-0.632602
-0.509651
-8.17538
-8.13873
-7.86007
-7.39085
-6.78419
-6.09053
-5.35902
-4.62914
-3.9346
-3.30084
-2.74086
-2.26641
-1.87644
-1.56814
-1.33225
-1.16216
-1.0407
-0.955475
-0.888771
-8.70846
-8.53944
-8.16376
-7.63234
-6.99181
-6.28582
-5.55484
-4.8326
-4.14768
-3.52128
-2.96648
-2.49301
-2.1011
-1.78852
-1.54895
-1.37644
-1.2605
-1.19427
-1.16903
-9.30029
-8.97596
-8.4965
-7.89777
-7.2163
-6.4884
-5.74798
-5.02427
-4.34225
-3.72029
-3.17097
-2.70262
-2.31559
-2.00741
-1.77196
-1.6013
-1.48395
-1.40964
-1.36645
-9.8227
-9.36356
-8.79298
-8.13346
-7.41355
-6.66345
-5.91226
-5.18531
-4.50469
-3.88648
-3.34213
-2.87904
-2.49721
-2.19395
-1.96328
-1.79701
-1.68394
-1.61383
-1.57492
-10.2244
-9.67935
-9.04397
-8.33865
-7.58866
-6.82071
-6.0606
-5.33083
-4.65132
-4.03636
-3.49657
-3.03856
-2.66208
-2.36427
-2.13931
-1.9788
-1.87176
-1.80777
-1.77496
-10.5377
-9.92898
-9.24467
-8.50423
-7.73087
-6.94885
-6.18155
-5.44945
-4.7708
-4.15856
-3.62274
-3.16929
-2.79775
-2.50507
-2.28556
-2.13057
-2.0293
-1.97112
-1.94413
-10.7654
-10.109
-9.38756
-8.62095
-7.83051
-7.03839
-6.26603
-5.53239
-4.85456
-4.24453
-3.71189
-3.26211
-2.89457
-2.60608
-2.39099
-2.24039
-2.14359
-2.08973
-2.0668
-10.9233
-10.2142
-9.46349
-8.67981
-7.87944
-7.08193
-6.30718
-5.57313
-4.89618
-4.28777
-3.75726
-3.30986
-2.94485
-2.65898
-2.44665
-2.29889
-2.20509
-2.15434
-2.13462
-10.9233
-10.2143
-9.46361
-8.67995
-7.87959
-7.08209
-6.30735
-5.57331
-4.89636
-4.28795
-3.75744
-3.31003
-2.94502
-2.65915
-2.44683
-2.29907
-2.20528
-2.15454
-2.13483
-10.7655
-10.1092
-9.38783
-8.62129
-7.8309
-7.03883
-6.26651
-5.53289
-4.85508
-4.24505
-3.71241
-3.26263
-2.89509
-2.6066
-2.39152
-2.24094
-2.14416
-2.09034
-2.06747
-10.5378
-9.92926
-9.24509
-8.50477
-7.7315
-6.94956
-6.18232
-5.45026
-4.77163
-4.1594
-3.62358
-3.17012
-2.79857
-2.50589
-2.2864
-2.13142
-2.03019
-1.97207
-1.94515
-10.2245
-9.67971
-9.04452
-8.33935
-7.58949
-6.82165
-6.06161
-5.33189
-4.65241
-4.03746
-3.49767
-3.03964
-2.66315
-2.36532
-2.14036
-1.97987
-1.87287
-1.80893
-1.77619
-9.82285
-9.36397
-8.79361
-8.13428
-7.41454
-6.66457
-5.91348
-5.1866
-4.50602
-3.88781
-3.34345
-2.88033
-2.49848
-2.19519
-1.96451
-1.79825
-1.6852
-1.61514
-1.57631
-9.30047
-8.97642
-8.4972
-7.89869
-7.21741
-6.48967
-5.74937
-5.02574
-4.34377
-3.72181
-3.17246
-2.70407
-2.31699
-2.00876
-1.77328
-1.6026
-1.48525
-1.41096
-1.3678
-8.70867
-8.53998
-8.16464
-7.63354
-6.9933
-6.28756
-5.55677
-4.83465
-4.1498
-3.5234
-2.96857
-2.49504
-2.10305
-1.79041
-1.55078
-1.37822
-1.26222
-1.19588
-1.17045
-8.17551
-8.13885
-7.86036
-7.39141
-6.78505
-6.0917
-5.36045
-4.63077
-3.93634
-3.3026
-2.74255
-2.26797
-1.87781
-1.5693
-1.3332
-1.16296
-1.04151
-0.956631
-0.890731
-7.70075
-7.76417
-7.55896
-7.13084
-6.53713
-5.83596
-5.08684
-4.33712
-3.62692
-2.98597
-2.4272
-1.9626
-1.58777
-1.29582
-1.07104
-0.900461
-0.759721
-0.635597
-0.513176
-7.26253
-7.42024
-7.27137
-6.86398
-6.26238
-5.53535
-4.75408
-3.97558
-3.24648
-2.59917
-2.04611
-1.59607
-1.23994
-0.965078
-0.751641
-0.583687
-0.4409
-0.316628
-0.205914
-6.88457
-7.13212
-7.03822
-6.65031
-6.0397
-5.28701
-4.47554
-3.67247
-2.93047
-2.28343
-1.74287
-1.31284
-0.979968
-0.727559
-0.535073
-0.387302
-0.270433
-0.181576
-0.119598
-6.54214
-6.88151
-6.84196
-6.47092
-5.84801
-5.06738
-4.22557
-3.40026
-2.64957
-2.00786
-1.48451
-1.07841
-0.772208
-0.546311
-0.380231
-0.259365
-0.171944
-0.112807
-0.0757527
-6.20211
-6.65668
-6.6779
-6.32386
-5.68692
-4.87717
-4.00569
-3.16082
-2.40543
-1.77326
-1.27057
-0.89078
-0.612804
-0.414561
-0.275193
-0.179566
-0.115602
-0.0757203
-0.0523483
-5.93486
-6.4829
-6.55594
-6.21169
-5.55532
-4.71381
-3.81327
-2.95189
-2.19591
-1.57703
-1.09736
-0.744702
-0.494351
-0.321977
-0.20601
-0.130494
-0.0829247
-0.0548497
-0.0391097
-5.74967
-6.35949
-6.46338
-6.11551
-5.43311
-4.55934
-3.63393
-2.7626
-2.01264
-1.41202
-0.957813
-0.632386
-0.407834
-0.258055
-0.160969
-0.100233
-0.0635039
-0.0425208
-0.0310417
-5.65731
-6.30043
-6.40666
-6.03557
-5.31805
-4.41174
-3.46682
-2.59284
-1.85521
-1.27653
-0.848451
-0.548509
-0.34637
-0.214885
-0.131952
-0.0814202
-0.0515598
-0.0347316
-0.0255595
-5.67479
-6.30334
-6.37505
-5.95825
-5.1974
-4.26101
-3.30469
-2.43699
-1.71836
-1.16481
-0.762714
-0.485878
-0.302545
-0.185357
-0.112718
-0.0691123
-0.0436027
-0.0292282
-0.021256
-5.78811
-6.35586
-6.36356
-5.88762
-5.08253
-4.12324
-3.16436
-2.30985
-1.61312
-1.08351
-0.703751
-0.444984
-0.275262
-0.167708
-0.101601
-0.0620849
-0.0389945
-0.0257761
-0.0178915
-5.93277
-6.41758
-6.3552
-5.83368
-5.00691
-4.04664
-3.09845
-2.26003
-1.57898
-1.06144
-0.690459
-0.436885
-0.270249
-0.164328
-0.0991042
-0.0598968
-0.0370299
-0.0242207
-0.017686
-6.09536
-6.4974
-6.39023
-5.86269
-5.05636
-4.12775
-3.2068
-2.38348
-1.70319
-1.17448
-0.785978
-0.512462
-0.327055
-0.205246
-0.127698
-0.0794379
-0.0505924
-0.0346787
-0.0283911
-6.26001
-6.58217
-6.43365
-5.90227
-5.11749
-4.21985
-3.3248
-2.51468
-1.83337
-1.29224
-0.885048
-0.590915
-0.386249
-0.248219
-0.158117
-0.100757
-0.0659661
-0.0468851
-0.0398235
-6.42325
-6.67821
-6.49575
-5.96491
-5.20295
-4.33468
-3.46228
-2.66165
-1.97602
-1.41995
-0.992181
-0.676054
-0.45106
-0.295952
-0.192634
-0.125689
-0.0846427
-0.062201
-0.0543373
-6.60189
-6.79476
-6.58128
-6.05243
-5.31148
-4.46805
-3.61305
-2.81736
-2.12432
-1.55166
-1.10266
-0.764442
-0.519202
-0.347101
-0.230627
-0.154155
-0.106997
-0.0814873
-0.0733634
-6.81529
-6.93173
-6.68943
-6.16284
-5.4387
-4.61341
-3.76929
-2.9738
-2.27087
-1.68111
-1.21155
-0.852466
-0.588259
-0.400277
-0.271569
-0.18635
-0.13389
-0.106276
-0.0991261
-7.00952
-7.07037
-6.81229
-6.2899
-5.57782
-4.76348
-3.92377
-3.12425
-2.4098
-1.80343
-1.31507
-0.937397
-0.656517
-0.454698
-0.315561
-0.223212
-0.167132
-0.13932
-0.135439
-7.1985
-7.24109
-6.97353
-6.44949
-5.73885
-4.924
-4.07939
-3.26979
-2.54115
-1.91819
-1.41269
-1.01894
-0.724127
-0.51113
-0.364154
-0.267199
-0.210301
-0.18554
-0.188831
-7.4328
-7.4491
-7.16184
-6.62336
-5.90099
-5.0744
-4.21767
-3.39501
-2.65283
-2.01647
-1.49836
-1.0935
-0.789603
-0.569945
-0.419489
-0.322168
-0.269147
-0.252824
-0.269664
-7.71027
-7.68502
-7.36608
-6.79864
-6.05078
-5.20231
-4.32831
-3.49203
-2.73938
-2.0949
-1.5706
-1.16125
-0.854723
-0.634501
-0.4867
-0.395196
-0.353129
-0.35346
-0.393564
-8.0089
-7.94527
-7.58172
-6.96825
-6.18088
-5.30192
-4.40764
-3.55938
-2.8012
-2.15532
-1.63256
-1.22651
-0.925061
-0.71186
-0.574793
-0.497587
-0.476528
-0.505304
-0.582566
-8.35959
-8.24224
-7.80654
-7.12492
-6.28411
-5.36836
-4.45364
-3.59772
-2.84113
-2.20224
-1.69026
-1.29668
-1.0096
-0.812862
-0.697074
-0.645565
-0.659265
-0.732571
-0.865696
-8.79259
-8.55415
-8.01142
-7.24268
-6.34035
-5.38826
-4.4591
-3.60501
-2.86122
-2.24071
-1.75133
-1.38161
-1.12047
-0.9522
-0.871428
-0.860607
-0.927158
-1.06583
-1.2786
-9.17781
-8.79651
-8.13457
-7.27593
-6.31841
-5.34342
-4.41595
-3.58082
-2.8665
-2.27945
-1.82749
-1.49543
-1.27427
-1.14917
-1.12045
-1.16895
-1.31076
-1.54036
-1.86188
-9.54206
-9.01194
-8.21237
-7.26076
-6.25635
-5.27246
-4.3614
-3.55965
-2.88829
-2.34687
-1.94517
-1.66357
-1.49666
-1.43086
-1.47386
-1.60366
-1.84722
-2.19763
-2.66191
-9.90334
-9.13341
-8.17928
-7.15141
-6.1266
-5.16155
-4.29113
-3.54404
-2.93425
-2.45454
-2.11946
-1.90438
-1.80946
-1.82285
-1.96145
-2.1989
-2.57533
-3.08133
-3.7295
-10.0339
-9.0143
-7.95238
-6.90569
-5.91078
-5.00669
-4.20974
-3.54411
-3.0181
-2.61876
-2.36883
-2.23835
-2.23531
-2.35014
-2.61094
-2.9856
-3.53057
-4.23408
-5.12286
-9.83861
-8.67126
-7.58981
-6.5925
-5.67569
-4.86745
-4.16844
-3.60304
-3.17616
-2.87062
-2.7207
-2.69096
-2.79943
-3.03942
-3.45222
-3.99897
-4.75652
-5.7129
-6.93089
-9.18439
-8.03524
-7.05489
-6.18896
-5.40545
-4.73212
-4.15899
-3.71531
-3.4051
-3.20884
-3.17534
-3.26431
-3.50618
-3.89845
-4.49862
-5.26192
-6.29327
-7.58817
-9.30584
-8.00815
-7.11103
-6.36035
-5.70237
-5.10176
-4.59783
-4.17539
-3.87227
-3.69391
-3.62064
-3.71829
-3.94329
-4.34143
-4.91723
-5.74994
-6.79359
-8.19644
-9.97947
-12.567
-6.36728
-5.93158
-5.51116
-5.1197
-4.74224
-4.43669
-4.18664
-4.04004
-4.00572
-4.06624
-4.30638
-4.68255
-5.26005
-6.05663
-7.18449
-8.60936
-10.5547
-13.1062
-17.4365
-4.4542
-4.55773
-4.50965
-4.41611
-4.28957
-4.2045
-4.14414
-4.16558
-4.28203
-4.48092
-4.86742
-5.4029
-6.17893
-7.23916
-8.75121
-10.723
-13.5219
-17.3846
-25.629
-2.53183
-3.06859
-3.36267
-3.56739
-3.70535
-3.85492
-3.99547
-4.18969
-4.45435
-4.78443
-5.30624
-5.99136
-6.96845
-8.33164
-10.3471
-13.1346
-17.3584
-23.6115
-41.3695
-0.840016
-1.54265
-2.08503
-2.56149
-2.96473
-3.35579
-3.70097
-4.06438
-4.46057
-4.89606
-5.51681
-6.30413
-7.44443
-9.14328
-11.9054
-16.3306
-24.3841
-39.35
-92.9399
)
;

boundaryField
{
    up
    {
        type            calculated;
        value           nonuniform List<scalar> 
84
(
-84.2322
-45.6187
-27.9102
-18.8177
-13.4958
-9.97569
-7.43089
-5.49852
-4.0075
-2.86282
-2.00181
-1.372
-0.925375
-0.618731
-0.414175
-0.280531
-0.193914
-0.137278
-0.0992588
-0.072695
-0.0533652
-0.0387843
-0.0271474
-0.0153605
-0.014727
-0.0191812
-0.0231628
-0.0279579
-0.0347425
-0.0456564
-0.0646045
-0.0981902
-0.16658
-0.483125
-0.89153
-1.16992
-1.3519
-1.56257
-1.76537
-1.93719
-2.06172
-2.13112
-2.13134
-2.06241
-1.93824
-1.76664
-1.564
-1.35328
-1.17116
-0.893628
-0.487159
-0.167462
-0.0985494
-0.0647788
-0.0457476
-0.0347948
-0.0279939
-0.0231945
-0.0192195
-0.0147432
-0.0153361
-0.027143
-0.0387836
-0.0533674
-0.0727006
-0.0992689
-0.137293
-0.193935
-0.280555
-0.414197
-0.618743
-0.925366
-1.37196
-2.00174
-2.86276
-4.00745
-5.49853
-7.43095
-9.9758
-13.496
-18.8178
-27.9102
-45.6187
-84.2322
)
;
    }
    low
    {
        type            calculated;
        value           nonuniform List<scalar> 
84
(
-0.903341
-2.65276
-4.70987
-6.78511
-8.56821
-9.8267
-10.4829
-10.6185
-10.3649
-9.85905
-9.42729
-8.98095
-8.46114
-8.06767
-7.74731
-7.43324
-7.16526
-6.96793
-6.7486
-6.47434
-6.24493
-6.03788
-5.81931
-5.60507
-5.376
-5.22113
-5.20705
-5.35525
-5.61517
-5.9742
-6.39504
-6.78949
-7.22274
-7.72106
-8.2428
-8.83668
-9.51102
-10.081
-10.507
-10.8403
-11.0844
-11.2696
-11.2696
-11.0844
-10.8403
-10.507
-10.0811
-9.51112
-8.83681
-8.24272
-7.72114
-7.22264
-6.78942
-6.39496
-5.97413
-5.6151
-5.3552
-5.20701
-5.22112
-5.37601
-5.6052
-5.81931
-6.03791
-6.24495
-6.47435
-6.74861
-6.96794
-7.16527
-7.43324
-7.7473
-8.06765
-8.46113
-8.98091
-9.42724
-9.85901
-10.3648
-10.6185
-10.4829
-9.82673
-8.56825
-6.78515
-4.70991
-2.65279
-0.903352
)
;
    }
    left
    {
        type            calculated;
        value           nonuniform List<scalar> 
19
(
-0.825689
-1.51869
-2.0756
-2.57257
-2.99766
-3.40889
-3.77237
-4.15506
-4.5711
-5.03497
-5.69851
-6.54735
-7.7931
-9.68169
-12.7783
-17.8197
-27.0916
-44.5121
-87.346
)
;
    }
    right
    {
        type            calculated;
        value           nonuniform List<scalar> 
19
(
-0.825695
-1.51869
-2.07559
-2.57256
-2.99765
-3.40889
-3.77237
-4.15507
-4.57112
-5.035
-5.69852
-6.54735
-7.79308
-9.68164
-12.7782
-17.8196
-27.0916
-44.5121
-87.346
)
;
    }
    frontAndBackPlanes
    {
        type            empty;
    }
}


// ************************************************************************* //
