/*--------------------------------*- C++ -*----------------------------------*\
  =========                 |
  \\      /  F ield         | OpenFOAM: The Open Source CFD Toolbox
   \\    /   O peration     | Website:  https://openfoam.org
    \\  /    A nd           | Version:  7
     \\/     M anipulation  |
\*---------------------------------------------------------------------------*/
FoamFile
{
    version     2.0;
    format      ascii;
    class       volScalarField;
    location    "0.1";
    object      gradTz;
}
// * * * * * * * * * * * * * * * * * * * * * * * * * * * * * * * * * * * * * //

dimensions      [0 -1 0 1 0 0 0];

internalField   nonuniform List<scalar> 
1596
(
-8.06629e-16
-3.84907e-16
3.99154e-16
1.59607e-17
-7.3976e-16
0
-3.33066e-16
-3.28619e-16
-3.25736e-17
-1.78849e-16
-9.33336e-19
-1.79846e-16
8.06589e-16
-1.80107e-16
8.36708e-16
7.25782e-16
4.32756e-16
5.49537e-16
0
7.97592e-16
0
1.07349e-15
-1.29209e-17
-3.09244e-16
3.04976e-16
6.56805e-16
3.1651e-17
3.05713e-16
-1.49605e-16
3.0024e-16
-2.66136e-18
-4.19054e-16
-2.64665e-16
-6.75354e-16
-6.62914e-16
-6.05762e-16
3.46896e-16
0
-3.79776e-16
0
-6.76195e-16
2.02563e-17
5.7759e-16
-1.82174e-16
2.3559e-17
-3.77509e-18
-2.9881e-18
-2.59109e-18
9.64232e-17
0
2.17086e-16
6.07173e-16
-6.0491e-17
5.0693e-17
1.18107e-16
1.9162e-16
0
6.1139e-16
-1.67765e-16
1.67152e-16
0
-1.5509e-16
-1.65601e-16
2.51429e-16
-1.97136e-16
0
0
-9.92866e-17
5.06348e-17
0
-1.74187e-16
-2.12404e-16
1.52017e-16
-1.69567e-16
-8.63787e-18
0
1.08499e-16
2.62144e-16
-2.14504e-16
0
-5.63064e-17
-1.75433e-16
0
2.47722e-16
-2.34593e-17
-2.13166e-17
-4.13892e-17
1.21151e-16
1.57813e-16
1.83734e-17
2.12127e-17
-1.64217e-16
8.12031e-18
7.70658e-17
-3.4771e-17
-2.81755e-17
-3.56734e-16
3.15241e-16
-2.50095e-16
-9.79566e-19
-1.88916e-16
5.08627e-18
-5.10315e-18
-1.29968e-16
0
-3.3384e-17
-1.45027e-16
-1.41885e-16
1.06212e-16
1.32108e-16
-1.74313e-18
-7.95135e-17
-7.81667e-17
6.10477e-17
2.35468e-16
-3.61102e-16
3.68578e-16
1.8949e-16
0
1.47433e-16
7.74482e-17
-3.60109e-17
1.62792e-16
-2.89e-17
-1.30961e-16
7.11366e-19
-7.13649e-17
-1.06558e-16
-7.64186e-17
6.9991e-17
8.02134e-17
-1.10619e-18
-2.47232e-17
3.80945e-17
5.8207e-16
-6.203e-16
0
0
-1.67259e-16
0
0
0
8.35558e-17
0
0
6.71716e-17
1.31811e-18
2.90415e-17
-6.22438e-17
0
3.31062e-17
1.43845e-17
0
-3.59902e-16
6.76196e-16
0
0
1.72253e-16
0
-5.04527e-17
5.04017e-17
-8.50477e-17
3.20963e-17
-3.2331e-17
0
4.58136e-17
5.73654e-17
0
-3.27971e-17
-3.37655e-17
-1.27814e-17
9.73393e-16
-4.41044e-16
0
-2.38903e-16
2.36229e-16
0
1.29187e-16
0
0
0
2.60195e-17
-2.61443e-17
0
-3.60858e-17
-9.41434e-18
0
8.72054e-18
1.71012e-17
0
-2.47415e-16
0
0
2.41782e-16
-4.27946e-16
4.05033e-17
1.6517e-17
-4.36567e-17
9.52521e-18
3.37424e-18
-2.67255e-17
-3.61741e-17
0
2.57879e-17
-6.0243e-18
6.11472e-18
2.07243e-17
-1.38842e-17
-5.78005e-18
1.77061e-16
-3.56087e-17
1.71678e-16
5.21538e-16
-5.06967e-17
-1.89435e-16
0
0
0
5.66158e-17
1.86311e-17
6.26979e-17
-1.48427e-17
-2.53266e-17
-1.23632e-17
-8.0423e-18
3.72188e-18
-8.6092e-18
5.38991e-18
-2.14061e-16
2.11127e-16
-3.73738e-16
-5.16865e-16
4.54846e-16
1.45166e-16
-2.51868e-16
1.88218e-16
-1.39353e-16
3.70044e-17
2.17985e-17
-1.76398e-17
7.70756e-18
-7.73536e-18
2.40539e-17
0
-1.9411e-18
1.54515e-17
-2.36147e-18
-1.47621e-15
6.51196e-16
4.04263e-19
-1.06727e-16
2.72561e-17
1.41598e-16
-2.59502e-16
-8.82558e-17
6.39065e-17
-4.56377e-17
-3.26416e-17
0
-2.85756e-17
-7.91151e-18
-1.19309e-17
-6.81113e-18
5.18649e-19
-7.80246e-18
6.86737e-19
2.41152e-16
-2.01346e-16
-7.94099e-20
-1.31185e-16
-2.83424e-16
2.56627e-16
1.4259e-18
8.60053e-17
-6.22214e-17
8.69113e-17
1.86244e-17
1.30375e-17
3.10218e-17
0
2.03732e-17
9.01071e-18
0
3.66323e-18
4.53971e-19
0
1.95329e-16
1.2902e-16
-2.82774e-16
2.73495e-16
-3.78967e-16
2.41521e-16
6.95002e-17
-1.95583e-17
-8.97131e-17
1.18103e-17
-1.17521e-17
-2.66981e-17
8.64889e-18
-4.46776e-18
-8.12773e-18
2.94202e-18
-1.85899e-18
1.01949e-18
-2.24036e-16
6.84978e-16
-5.17694e-16
2.40264e-16
0
0
-3.89962e-17
8.92922e-17
-4.52405e-17
8.04266e-17
0
0
1.69446e-17
-1.31314e-17
-7.1117e-18
2.23214e-18
-2.33897e-18
1.2866e-18
0
3.17712e-17
2.09797e-16
-1.45122e-16
-1.16769e-16
-1.55682e-16
-2.78921e-17
6.46667e-17
0
-4.11986e-17
-2.58376e-17
2.15755e-17
-1.42468e-17
9.32321e-18
0
2.9318e-18
4.38761e-18
0
0
0
-3.1077e-17
2.82828e-16
8.10764e-17
-3.55355e-16
8.26259e-17
6.33418e-17
0
0
3.73174e-17
-2.01774e-17
-2.08682e-17
1.37793e-17
-9.01625e-18
0
-1.43801e-18
9.89334e-19
0
-7.35616e-19
-2.61712e-19
-1.65847e-16
4.87683e-16
-5.51831e-16
-1.81667e-16
1.00018e-16
-5.66205e-17
4.04144e-17
0
-1.90691e-17
1.38092e-17
0
0
2.89854e-18
-2.90187e-18
5.74591e-19
-9.50979e-19
9.8187e-19
2.1279e-19
2.00238e-19
9.21524e-17
-7.64591e-17
3.43233e-16
-2.17e-16
-7.12472e-17
1.49326e-17
8.78042e-17
2.50684e-17
1.82462e-17
0
6.06343e-18
-5.4826e-18
3.4801e-18
-2.38451e-18
2.04532e-18
-3.06448e-18
-7.50127e-19
6.12464e-19
1.39675e-19
2.33546e-16
-2.43446e-16
0
1.57192e-16
-8.75808e-17
-4.94395e-17
2.22793e-17
-8.07359e-17
0
-1.2761e-18
-8.0642e-18
-4.22316e-18
4.54155e-18
-6.08207e-19
-1.97676e-18
1.19897e-18
0
2.9331e-19
-1.35623e-19
4.33034e-16
-6.81505e-17
2.47734e-16
-1.91675e-16
7.60213e-17
-8.9145e-18
-7.47008e-17
-1.69509e-17
2.77831e-17
-1.87899e-18
-9.10752e-18
6.76476e-18
-2.55686e-18
-2.29656e-18
0
0
0
-2.95206e-19
1.01054e-20
-3.62534e-16
3.46885e-16
1.31751e-19
3.963e-17
2.92688e-17
-5.53067e-17
5.73707e-17
-3.7999e-17
2.66003e-17
-5.77742e-18
1.05103e-17
2.56057e-18
-8.94419e-19
5.0996e-20
-1.41298e-19
-2.71747e-19
0
0
0
0
0
1.34189e-16
-8.68025e-17
-1.76967e-16
0
0
-1.07361e-17
-1.35184e-17
8.88381e-18
0
-3.22935e-18
1.93777e-18
-4.69863e-18
5.077e-18
-1.174e-18
1.24033e-18
1.13455e-19
0
-6.99358e-17
7.07965e-17
0
-4.29259e-17
4.18988e-17
5.62331e-17
0
1.08386e-17
8.45129e-18
-4.32992e-17
0
-3.82677e-18
2.31839e-18
1.22785e-18
-7.28888e-19
9.03481e-19
0
-2.55099e-19
0
-3.60535e-17
-3.28429e-17
1.93738e-18
4.41053e-17
-1.02021e-16
0
-1.85248e-17
0
3.30899e-17
1.01543e-17
0
1.50398e-17
-1.32363e-17
1.80214e-18
-1.2774e-18
8.67794e-19
1.72625e-18
5.15962e-19
-4.09198e-19
0
7.14909e-17
-5.36025e-17
6.49991e-17
6.38405e-17
0
3.64837e-17
-3.19598e-17
-1.82227e-17
2.02967e-17
-2.97273e-17
-1.0313e-17
0
0
1.04462e-18
0
0
1.99289e-19
0
-3.31646e-16
2.57686e-16
0
6.46418e-18
-3.52792e-17
-1.68337e-18
2.54671e-17
1.23052e-17
-1.92839e-17
-3.16058e-17
3.84058e-17
-1.08437e-17
0
-2.82975e-18
0
0
0
-7.81771e-19
6.28203e-19
-9.73009e-17
8.46013e-17
2.00483e-16
-1.88337e-16
5.19009e-17
4.78245e-18
-2.57546e-17
1.85292e-17
2.59597e-17
1.55995e-17
-3.01822e-17
0
8.68044e-18
-7.14502e-19
-3.23342e-18
-4.98126e-18
3.88326e-18
-3.92183e-19
8.45369e-19
-3.42037e-16
4.28764e-16
-4.17512e-16
6.47117e-17
4.71243e-17
-4.2048e-17
3.24408e-17
-2.06087e-17
0
-1.2805e-17
1.52148e-17
6.37607e-18
8.71068e-18
7.70933e-18
-1.09123e-17
-6.35139e-19
0
-4.03789e-19
1.39637e-19
-3.69624e-16
-9.91638e-17
-1.54393e-16
8.63284e-17
-1.15015e-16
8.73799e-17
-4.88128e-17
3.38914e-17
-4.28569e-18
-3.97795e-18
-1.81642e-17
1.19396e-17
-3.31099e-18
1.15354e-17
-1.23834e-17
6.25732e-19
1.01931e-18
0
-2.68234e-19
3.99645e-16
-1.08085e-16
0
0
-1.18018e-16
2.20635e-16
-4.7323e-17
-7.10968e-18
5.26275e-17
-1.73186e-18
0
0
-6.79762e-18
0
-1.18548e-17
2.61593e-17
-1.72844e-17
0
1.2691e-19
1.32229e-16
2.33121e-16
0
-8.68726e-17
-5.96958e-17
-4.4142e-17
-4.99491e-17
1.72149e-17
-4.48091e-17
-2.02721e-17
0
0
1.23859e-17
0
0
-1.80279e-17
3.03925e-17
0
0
9.08626e-16
-1.29133e-16
-5.04873e-16
-2.38035e-16
3.26061e-16
9.09618e-17
4.84319e-17
0
-1.43307e-17
1.19383e-17
2.98338e-17
-9.07753e-18
-1.08687e-17
1.60224e-17
-1.70429e-17
-4.25505e-18
0
0
0
7.27522e-17
-5.33267e-16
5.1939e-16
-4.56455e-17
-3.17571e-16
4.77477e-16
-2.2953e-16
0
0
8.74796e-17
-6.91357e-17
0
-1.63412e-17
2.93421e-17
-2.60028e-18
7.75791e-18
2.20787e-18
3.65825e-20
4.43317e-19
0
0
0
3.912e-16
-2.64405e-16
2.38374e-16
-3.62977e-16
9.79832e-17
0
-2.87591e-17
4.1211e-17
-4.21201e-17
-7.14142e-18
3.62986e-19
-4.33892e-18
-4.91661e-19
-3.43309e-18
-9.97707e-19
-5.23596e-19
5.97822e-16
-1.0403e-15
4.80439e-16
0
1.07013e-16
-1.47196e-16
1.28813e-16
-1.01674e-16
0
-3.96386e-17
5.58238e-17
0
0
3.36609e-19
0
-5.01356e-18
3.36846e-18
4.78236e-19
8.5482e-19
6.06071e-16
0
-2.09246e-16
2.33066e-16
-1.29565e-16
2.76157e-16
-1.26064e-16
-8.61173e-17
8.70167e-17
-8.079e-18
0
0
4.38659e-18
-6.74832e-18
-4.64939e-18
8.67054e-18
-1.86431e-18
8.93983e-19
0
3.43264e-16
2.46536e-16
-1.97824e-17
-2.23464e-16
-2.06673e-17
-1.36932e-16
2.18794e-17
1.07703e-16
-5.07628e-18
8.2307e-18
0
0
-4.49377e-18
0
4.97781e-18
-5.32507e-18
0
6.65901e-19
-1.81658e-19
-1.82018e-16
-1.23924e-16
1.16247e-16
-1.22836e-17
-5.22499e-18
1.32625e-17
0
-3.10796e-18
4.25512e-17
-3.58073e-17
0
1.03325e-17
-2.37139e-18
-8.76254e-18
-7.70236e-19
-5.88852e-19
0
-5.23177e-19
0
7.16619e-17
-1.33494e-16
1.13854e-18
5.33863e-17
4.39174e-17
-4.33464e-17
-2.7345e-17
3.08364e-17
-9.41927e-18
7.44791e-18
-6.42738e-18
6.62562e-18
0
1.52738e-20
-5.66946e-19
2.02765e-18
-6.81987e-21
0
0
7.16644e-17
-7.13959e-17
-5.31015e-17
4.7222e-17
7.73428e-17
-7.77993e-17
-1.36732e-17
1.37089e-17
-9.50135e-18
9.59998e-18
-6.42781e-18
1.18838e-17
-3.33382e-18
-2.2513e-18
-6.54645e-19
2.25013e-19
5.10018e-19
1.33048e-19
-9.96082e-20
0
-1.66126e-17
9.20461e-17
-1.00296e-16
7.69805e-17
-6.8557e-17
0
4.51754e-17
-4.06222e-17
0
1.2661e-17
-1.5917e-17
-8.36265e-18
8.7646e-18
1.51317e-18
0
0
-5.23389e-19
1.89277e-19
2.84838e-16
-5.13506e-16
4.99433e-16
-4.16033e-16
1.59623e-16
-1.19519e-16
1.14151e-16
1.21256e-17
-4.16581e-17
3.70605e-17
0
-2.26765e-17
2.07138e-17
-3.61151e-18
-1.48215e-18
2.18572e-18
1.57922e-18
5.0811e-19
-1.82885e-19
6.81687e-16
0
-2.37493e-16
1.84939e-16
2.04307e-17
-1.42963e-16
2.44826e-16
-2.03149e-16
7.73535e-17
-2.8783e-17
2.9462e-17
5.414e-18
8.46103e-18
3.51765e-18
-2.66849e-18
-4.21391e-19
-3.38871e-18
0
3.1868e-19
5.23221e-16
-5.89034e-16
0
4.75143e-17
1.87032e-16
-1.80692e-16
2.76699e-17
2.27392e-17
9.48081e-18
1.50249e-17
0
0
-1.44823e-17
2.57329e-17
-9.13708e-18
-3.07906e-18
3.37106e-18
2.60593e-19
-5.9604e-19
7.53055e-17
5.18283e-16
-5.50933e-17
-3.44585e-16
3.03708e-16
3.27956e-17
-2.708e-17
-2.22094e-17
6.42893e-17
-7.9408e-17
4.12383e-17
-4.21474e-17
5.33367e-18
-7.78304e-18
1.19693e-17
-8.07528e-18
0
0
4.86035e-19
0
1.26095e-16
-3.45904e-16
3.97243e-16
-2.79549e-16
2.78883e-16
0
7.55552e-17
-7.59014e-17
-4.79275e-17
6.92164e-17
0
2.32176e-17
-2.93801e-17
-4.13651e-18
0
-3.95291e-19
-6.52018e-19
-8.88437e-20
-1.25858e-15
5.83367e-16
0
-3.26053e-16
3.2602e-16
1.71037e-16
-1.11516e-16
3.86601e-17
0
-1.40653e-18
7.79673e-18
-9.07121e-18
-1.08631e-17
1.60135e-17
-1.70277e-17
0
2.79746e-18
-3.40097e-19
-4.11503e-19
7.59884e-16
-7.33758e-16
0
8.52005e-17
7.09214e-17
-6.0969e-17
0
-4.05161e-17
-2.91176e-17
0
-3.08789e-18
0
1.24013e-17
0
0
3.54963e-18
1.25993e-17
-1.67718e-17
0
-5.35094e-20
1.08143e-16
-9.21776e-17
6.26995e-17
-3.25069e-16
1.17784e-16
0
7.11826e-18
1.94629e-17
0
-1.57876e-17
3.56713e-17
-3.74748e-17
4.74952e-18
0
-1.12509e-18
0
0
0
-1.76816e-20
0
8.51951e-17
0
-1.02518e-16
1.04147e-16
0
2.59907e-17
-1.74462e-17
5.71386e-17
-2.62449e-17
6.95013e-18
-9.52089e-18
7.25973e-18
-1.2416e-17
-1.80463e-18
0
-6.24329e-19
0
2.86818e-16
-4.87221e-16
0
-6.35791e-17
5.07047e-17
0
0
-4.58909e-17
0
-1.28231e-17
-1.5239e-17
-6.38781e-18
8.72913e-18
0
2.682e-18
0
0
1.23928e-18
-1.23294e-18
0
3.95398e-16
-3.13684e-16
5.88597e-17
-4.69529e-17
-1.54274e-17
4.14527e-17
3.88107e-17
-3.74382e-17
1.17219e-17
2.23131e-18
-5.93036e-18
2.29623e-17
-6.85032e-18
-1.13482e-17
3.40479e-18
-5.90012e-19
3.64579e-19
-7.8899e-20
-7.10582e-16
2.57918e-16
0
0
1.80264e-17
-1.83309e-17
8.29326e-18
2.37078e-18
3.15687e-17
1.2449e-17
-1.12535e-17
-1.20744e-18
-3.71417e-18
2.8362e-18
0
7.82475e-19
5.40789e-19
2.16203e-19
7.13135e-20
0
2.08633e-16
-1.7931e-16
5.44153e-17
4.48472e-17
-8.23222e-18
-2.07996e-17
-1.46849e-17
-3.83804e-17
1.19004e-17
-4.20433e-18
7.85735e-18
3.47321e-18
-2.93935e-18
3.11994e-18
1.23918e-18
-1.7871e-18
-1.99696e-19
0
-4.16735e-17
-1.69137e-16
5.42469e-17
4.41213e-17
-1.27387e-16
8.48196e-17
3.00325e-17
-3.06979e-17
1.73023e-17
-1.12941e-17
0
0
-3.98343e-18
6.54328e-18
-2.51138e-18
1.60209e-18
-1.77009e-18
2.31267e-19
-4.09833e-19
7.57154e-17
6.53115e-17
-5.31541e-17
3.11474e-17
-4.25096e-17
-4.70412e-17
0
0
0
0
0
0
2.06518e-18
-4.02305e-18
4.25482e-18
-9.34151e-19
1.18889e-18
4.50369e-19
-3.75319e-19
1.61531e-16
-2.33283e-16
2.88835e-16
-1.02403e-16
1.45433e-16
-7.44398e-17
1.27595e-16
-6.26627e-17
-2.17714e-17
2.22712e-17
0
3.22764e-18
-2.01757e-18
3.50208e-18
-1.63824e-18
-1.40654e-18
-2.08175e-18
1.82412e-19
3.09796e-19
2.53934e-16
6.44676e-17
0
-7.92068e-17
-4.94585e-17
1.04178e-16
3.12174e-18
-2.87828e-17
1.49221e-17
-7.66139e-18
0
-2.55505e-18
0
-1.32762e-18
9.21645e-19
-6.64746e-19
-2.00775e-19
1.10364e-19
0
3.51117e-16
-6.81494e-17
2.47981e-16
-1.92181e-16
-3.14271e-17
9.79233e-17
-5.81028e-17
4.37398e-18
2.85065e-18
-7.8342e-18
6.8382e-18
0
0
1.84667e-18
-4.06142e-19
1.9885e-19
7.17954e-19
-2.4161e-19
0
3.67886e-20
0
-5.76388e-17
2.919e-16
-1.9013e-16
-1.55893e-16
8.37667e-17
-6.07836e-17
5.2883e-17
1.9814e-17
-1.17951e-17
3.9998e-18
-3.14854e-18
7.42042e-19
3.14986e-18
-5.52229e-20
-7.57916e-19
7.01112e-19
-1.49917e-19
8.27333e-16
-2.57609e-16
9.65151e-17
-3.12025e-16
7.1247e-17
-9.2878e-17
5.32389e-17
0
0
-1.45016e-18
-2.44855e-18
-6.59684e-19
0
-3.338e-18
-2.04534e-18
1.23891e-18
-8.00749e-20
2.06488e-19
3.25083e-19
0
-2.43866e-16
3.6522e-16
5.35725e-17
-2.57675e-16
5.66205e-17
-7.07396e-17
2.09519e-17
4.85448e-17
0
0
6.79401e-19
4.56714e-18
0
-2.54651e-18
-9.33698e-19
1.49142e-19
-3.33094e-19
-4.44281e-19
0
-1.41839e-16
5.69775e-17
2.46931e-16
1.44957e-16
-2.53151e-16
1.0676e-16
-5.44708e-17
3.10039e-17
-3.11095e-17
0
0
0
-5.87387e-18
8.27429e-19
-1.44512e-18
0
-6.93529e-20
3.32303e-19
-6.1112e-16
5.6668e-16
5.22293e-16
-6.27252e-16
2.43087e-16
-2.20884e-16
0
5.94425e-17
-7.63336e-17
3.84856e-17
-2.34039e-17
1.57067e-17
1.04806e-17
6.07487e-18
3.98177e-18
0
0
0
0
7.04142e-16
-3.73718e-16
0
0
-9.41847e-17
1.94056e-16
-1.22066e-16
-6.46202e-17
6.38918e-17
3.57201e-17
5.0369e-17
-1.62972e-17
6.07226e-18
3.53516e-18
2.22083e-18
1.83773e-18
2.8318e-18
-1.29588e-19
1.31997e-19
-7.01253e-16
6.18685e-16
2.88079e-16
-1.55739e-16
2.7258e-16
-1.72055e-16
-1.12125e-16
-8.1748e-17
0
-7.52961e-17
6.89356e-18
2.01083e-17
-1.2608e-17
-8.64924e-18
-2.79731e-18
-2.40361e-18
-1.93659e-18
0
0
-2.41203e-16
0
1.64023e-16
2.26148e-19
0
0
1.1566e-16
8.43524e-17
0
4.25147e-17
0
-3.0039e-17
-7.20814e-18
1.21615e-17
0
7.10591e-18
-9.40384e-19
9.59318e-19
0
5.27207e-16
0
3.03708e-16
-5.40022e-16
4.45821e-16
3.0239e-16
-1.85508e-17
0
9.77461e-18
5.52888e-17
0
-3.64436e-17
3.54551e-17
-2.95746e-17
-6.08191e-18
-5.53595e-18
-1.86036e-18
-3.86956e-19
-1.87019e-18
-4.64834e-16
6.62636e-16
-1.70718e-16
-4.08507e-16
-2.13979e-16
-1.64549e-16
-2.48189e-16
-8.06665e-17
1.25144e-17
2.18396e-17
-2.17986e-17
5.66294e-17
-2.37368e-17
4.26754e-17
-7.83184e-18
0
1.10493e-17
-7.31343e-18
1.776e-18
1.08423e-15
-3.51581e-17
-7.17013e-16
5.21541e-16
-4.33909e-16
3.36801e-16
-1.8954e-17
-9.69551e-17
7.38859e-17
2.40008e-17
-5.36325e-18
-4.93968e-17
1.22494e-17
1.76329e-17
-4.36009e-18
4.40983e-18
-1.14444e-17
-3.74889e-18
-4.52654e-18
5.32259e-16
2.06253e-16
3.36288e-16
-2.67782e-16
-1.89397e-16
2.16052e-17
-1.13317e-16
2.66502e-16
1.43493e-17
9.65243e-17
5.15451e-17
-4.34714e-17
0
-2.57888e-17
0
0
2.47731e-17
9.82243e-18
5.15128e-18
4.85262e-16
0
3.27558e-16
2.66053e-16
-2.11104e-16
1.65771e-16
0
-1.00822e-16
-1.28934e-16
-1.00432e-16
-5.20013e-17
4.39629e-17
0
0
0
0
-2.33641e-17
-2.34606e-17
0
-9.49761e-16
0
-3.06588e-17
-2.79475e-17
3.26248e-16
-1.54216e-16
-6.48001e-17
-6.59329e-17
1.34796e-16
0
3.20963e-17
-3.20123e-18
3.54414e-17
0
0
5.19904e-17
-4.01321e-18
2.82663e-17
-1.40444e-17
6.58872e-16
1.72016e-16
-1.7024e-16
-1.37101e-16
-4.14948e-16
2.61798e-16
2.86683e-16
-1.51333e-17
-9.63634e-17
1.01859e-16
1.99626e-17
-1.09087e-16
-8.20668e-17
-6.30769e-17
-6.92399e-17
-6.02337e-17
6.299e-17
-2.86e-18
1.43845e-17
-1.96982e-16
8.31433e-17
-3.88441e-16
5.79335e-17
-5.77227e-17
0
-1.45467e-16
-2.17231e-17
-1.3401e-16
2.48669e-17
1.3096e-16
8.66394e-17
-2.3814e-17
-3.53888e-18
6.50284e-17
0
-1.40576e-16
-5.79991e-17
-1.16968e-18
4.16446e-16
-1.01898e-17
6.10841e-16
-2.73281e-16
9.79562e-19
6.45368e-18
1.86533e-16
-2.92706e-17
1.29968e-16
-1.20914e-16
-1.15194e-16
0
1.41883e-16
1.04417e-16
1.68336e-18
-2.48768e-18
8.02959e-17
5.89195e-17
0
-2.92418e-16
0
-5.26965e-17
2.64924e-16
6.63421e-18
5.63816e-17
-1.80374e-16
1.66076e-16
1.94959e-16
1.88847e-16
1.85397e-16
0
-1.37836e-16
0
8.65319e-18
-8.98711e-18
0
-9.65322e-19
4.95008e-17
2.12695e-16
1.94055e-17
-1.38588e-16
4.40224e-16
-1.36917e-16
0
0
-2.42168e-16
-1.88895e-16
-1.82951e-16
-3.58647e-16
-5.06343e-17
0
0
0
-1.97187e-17
2.08674e-17
1.40944e-16
-5.02914e-17
2.06467e-17
0
-3.25127e-16
-2.76114e-16
3.02925e-16
-3.03223e-16
-4.2559e-16
4.95729e-16
1.54155e-16
0
2.21836e-16
2.78065e-16
-5.98748e-17
3.35599e-16
-5.56835e-17
5.7953e-17
2.34068e-16
-1.3395e-16
0
-4.02458e-16
0
-3.74926e-16
3.6329e-16
0
6.13728e-16
2.80738e-16
-6.14935e-16
5.15642e-16
-1.86824e-18
-1.51137e-16
-2.69224e-16
0
4.10121e-16
-6.75353e-16
7.28944e-16
-9.29985e-16
0
0
4.03092e-16
-4.94369e-18
-1.19959e-17
-7.47749e-16
7.64245e-16
-3.63109e-16
3.61629e-16
3.5676e-16
-2.94735e-16
0
0
6.14425e-16
-6.2501e-16
-6.51054e-16
6.5035e-16
-6.37465e-16
6.92756e-16
-1.08856e-15
0
)
;

boundaryField
{
    up
    {
        type            calculated;
        value           nonuniform List<scalar> 
84
(
0
0
0
0
-3.4771e-17
6.10477e-17
-2.47232e-17
1.43845e-17
-1.27814e-17
0
-5.78005e-18
5.38991e-18
-2.36147e-18
6.86737e-19
4.53971e-19
1.01949e-18
0
0
-2.61712e-19
2.00238e-19
1.39675e-19
-1.35623e-19
1.01054e-20
0
4.90843e-20
3.21489e-20
-3.72083e-19
0
6.28203e-19
9.48669e-19
1.39637e-19
-2.68234e-19
1.2691e-19
0
-1.75467e-20
4.43973e-19
-5.12821e-19
8.45672e-19
0
-1.79089e-19
0
0
-9.9285e-20
1.89277e-19
-1.82885e-19
3.1868e-19
-5.9604e-19
4.86035e-19
-8.88437e-20
-4.11503e-19
0
0
0
-1.23294e-18
-1.82894e-19
7.13135e-20
0
-4.09833e-19
-3.75319e-19
2.60803e-19
0
0
-1.49917e-19
3.25083e-19
-4.44281e-19
3.32303e-19
0
1.31997e-19
0
0
-1.87019e-18
1.776e-18
-4.52654e-18
5.15128e-18
0
-1.40444e-17
1.43845e-17
-1.16968e-18
0
4.95008e-17
-5.02914e-17
0
0
0
)
;
    }
    low
    {
        type            calculated;
        value           nonuniform List<scalar> 
84
(
-8.07739e-16
7.97592e-16
-3.77757e-16
6.12975e-16
1.09536e-16
-2.84708e-17
2.37862e-16
4.03137e-17
0
9.75944e-16
-2.47415e-16
1.75449e-16
-2.14061e-16
-1.47673e-15
2.41152e-16
0
-2.24036e-16
3.17712e-17
-3.1077e-17
-1.65847e-16
9.21524e-17
2.33546e-16
4.30791e-16
-3.62534e-16
0
-6.99358e-17
-3.60535e-17
0
-3.31646e-16
-9.73009e-17
-3.40791e-16
-3.68806e-16
3.99299e-16
1.32229e-16
9.09202e-16
7.27522e-17
0
5.97822e-16
6.08242e-16
3.44403e-16
-1.82609e-16
7.16619e-17
7.16644e-17
0
2.84838e-16
6.83857e-16
5.23221e-16
7.70243e-17
0
-1.25916e-15
7.59884e-16
-5.35094e-20
-1.76816e-20
2.86818e-16
0
-7.08053e-16
0
-4.16735e-17
7.57154e-17
1.59972e-16
2.51368e-16
3.48874e-16
3.67886e-20
8.25791e-16
0
0
-6.1112e-16
7.03841e-16
-7.01257e-16
-2.41203e-16
5.27728e-16
-4.64834e-16
1.08745e-15
5.34321e-16
4.85262e-16
-9.49761e-16
6.56653e-16
-1.94589e-16
4.16446e-16
-2.91381e-16
2.12695e-16
2.26654e-17
-4.02458e-16
4.03647e-16
)
;
    }
    left
    {
        type            calculated;
        value           nonuniform List<scalar> 
19
(
-8.06629e-16
-3.85374e-16
3.99154e-16
1.61638e-17
-7.40341e-16
0
-3.33066e-16
-3.28619e-16
-3.41575e-17
-1.78849e-16
-9.33336e-19
-1.79846e-16
8.14442e-16
-1.80107e-16
8.36708e-16
7.25782e-16
4.32756e-16
6.37754e-16
0
)
;
    }
    right
    {
        type            calculated;
        value           nonuniform List<scalar> 
19
(
4.03092e-16
-4.4769e-18
-1.19959e-17
-7.47952e-16
7.64826e-16
-3.63109e-16
3.61629e-16
3.5676e-16
-2.93151e-16
0
0
6.20247e-16
-6.32863e-16
-6.51054e-16
6.5035e-16
-6.37465e-16
6.92756e-16
-1.17678e-15
0
)
;
    }
    frontAndBackPlanes
    {
        type            empty;
    }
}


// ************************************************************************* //
