/*--------------------------------*- C++ -*----------------------------------*\
  =========                 |
  \\      /  F ield         | OpenFOAM: The Open Source CFD Toolbox
   \\    /   O peration     | Website:  https://openfoam.org
    \\  /    A nd           | Version:  7
     \\/     M anipulation  |
\*---------------------------------------------------------------------------*/
FoamFile
{
    version     2.0;
    format      ascii;
    class       volScalarField;
    location    "0.1";
    object      T;
}
// * * * * * * * * * * * * * * * * * * * * * * * * * * * * * * * * * * * * * //

dimensions      [0 0 0 1 0 0 0];

internalField   nonuniform List<scalar> 
1596
(
4.97448
4.90199
4.82996
4.76574
4.7121
4.66917
4.63604
4.61019
4.58972
4.57054
4.5497
4.52298
4.48216
4.4168
4.31194
4.13671
3.83578
3.29987
2.30994
4.89077
4.66744
4.46338
4.2871
4.14146
4.02524
3.93528
3.86586
3.81177
3.76486
3.71846
3.66424
3.58881
3.47664
3.30968
3.0579
2.67867
2.10226
1.19872
4.79504
4.42523
4.103
3.83042
3.60712
3.42956
3.29226
3.18726
3.10698
3.04118
2.98121
2.91701
2.83409
2.71642
2.54686
2.30017
1.94546
1.43966
0.706923
4.70588
4.20597
3.78195
3.42785
3.13921
2.91006
2.73293
2.59826
2.49693
2.4176
2.35069
2.28558
2.20822
2.10359
1.95633
1.74547
1.44789
1.03566
0.46332
4.63847
4.03421
3.52628
3.1039
2.75976
2.48618
2.27423
2.1134
1.99352
1.90274
1.83107
1.76782
1.69987
1.61359
1.49535
1.32746
1.09152
0.767616
0.326468
4.60002
3.92217
3.3487
2.86984
2.47794
2.16488
1.92109
1.73562
1.59771
1.4953
1.41818
1.35578
1.29594
1.22642
1.1351
1.00681
0.826189
0.577521
0.239934
4.58818
3.8675
3.24666
2.72227
2.28921
1.94045
1.66673
1.4572
1.30089
1.18568
1.10124
1.0371
0.981978
0.924779
0.854758
0.758781
0.623665
0.436144
0.179832
4.59444
3.85713
3.20595
2.64661
2.17878
1.79797
1.49619
1.26322
1.08821
0.95915
0.865584
0.797123
0.743111
0.693423
0.638451
0.566819
0.467142
0.327871
0.135325
4.61189
3.8774
3.21024
2.6256
2.12916
1.72003
1.39228
1.13683
0.943296
0.799862
0.696003
0.621315
0.565558
0.519317
0.473909
0.419463
0.346181
0.243998
0.101206
4.62963
3.90815
3.23611
2.63534
2.11712
1.6845
1.33413
1.05844
0.847774
0.690653
0.576523
0.494923
0.435844
0.390354
0.350478
0.307602
0.253335
0.179014
0.0746731
4.64196
3.93519
3.26502
2.65584
2.12277
1.67236
1.30383
1.01129
0.78602
0.616976
0.493647
0.405513
0.34267
0.296489
0.259507
0.224119
0.183153
0.129268
0.0541261
4.65461
3.962
3.29591
2.68227
2.13881
1.67479
1.29172
0.985337
0.747886
0.568791
0.437618
0.343775
0.277356
0.229876
0.1942
0.163477
0.131522
0.0921694
0.0385675
4.66471
3.98409
3.3222
2.70612
2.15539
1.68129
1.28717
0.970121
0.723251
0.536406
0.399221
0.301013
0.231809
0.183161
0.148117
0.120357
0.0944541
0.06522
0.0270979
4.66853
3.9947
3.33565
2.71824
2.16291
1.68223
1.28081
0.956724
0.703707
0.511911
0.371001
0.270198
0.199438
0.150259
0.115809
0.0901392
0.0683837
0.0461281
0.0188788
4.67003
3.99762
3.33833
2.71881
2.1599
1.67487
1.26903
0.94097
0.684755
0.49064
0.348226
0.246597
0.175584
0.126686
0.0931048
0.0691518
0.0503695
0.0329298
0.013164
4.6705
3.99549
3.33242
2.70885
2.14613
1.65791
1.2497
0.920198
0.663384
0.469367
0.327535
0.226774
0.156789
0.109035
0.0767523
0.0544496
0.037974
0.0239355
0.00928248
4.6683
3.98675
3.31662
2.68695
2.11989
1.62931
1.22059
0.892048
0.637185
0.445668
0.306493
0.208274
0.140582
0.0948426
0.0643568
0.0438119
0.0293062
0.0177901
0.00667189
4.66441
3.97278
3.29249
2.65451
2.08216
1.58959
1.18175
0.856192
0.605525
0.418661
0.284011
0.18983
0.125551
0.0825984
0.0543659
0.0357341
0.023035
0.0135037
0.00490309
4.66358
3.96118
3.26801
2.61889
2.03919
1.5437
1.13687
0.815187
0.570025
0.389219
0.260378
0.171286
0.111206
0.0715753
0.0459078
0.0292944
0.018298
0.0104077
0.00367444
4.6646
3.95219
3.24455
2.58188
1.99279
1.49321
1.08719
0.769957
0.531296
0.357674
0.235676
0.15251
0.0972386
0.0613253
0.0384399
0.0239103
0.0145409
0.00806506
0.00278453
4.66437
3.94205
3.21936
2.54197
1.94235
1.43809
1.03303
0.720934
0.48977
0.324374
0.210127
0.133579
0.0835851
0.0516671
0.0316926
0.0192624
0.011443
0.00621404
0.00210969
4.66521
3.93369
3.19588
2.50297
1.8918
1.38209
0.977635
0.670788
0.447499
0.290796
0.184718
0.11509
0.0705474
0.0426907
0.025614
0.0152148
0.00883568
0.00470518
0.0015777
4.66837
3.92992
3.17782
2.46919
1.84565
1.32951
0.924826
0.622637
0.406861
0.258634
0.16057
0.0977217
0.0584855
0.0345396
0.02021
0.0116928
0.00660587
0.00342746
0.00113245
4.67349
3.93124
3.16683
2.44334
1.80737
1.28408
0.878125
0.579487
0.370192
0.229551
0.138769
0.0821111
0.0477204
0.0273302
0.0154741
0.00861875
0.00463548
0.00223983
0.000654306
4.68521
3.95508
3.19409
2.46783
1.82577
1.29563
0.88379
0.581
0.369304
0.227622
0.136656
0.080244
0.0462468
0.0262428
0.0146984
0.00806119
0.00421638
0.00192246
0.000483589
4.69981
3.99401
3.25042
2.53299
1.89145
1.35534
0.933721
0.619898
0.397809
0.247432
0.149787
0.0885939
0.0513637
0.029282
0.0164636
0.00907148
0.00478126
0.00221131
0.000576388
4.70835
4.02244
3.29707
2.59233
1.9561
1.41815
0.989394
0.665562
0.432822
0.272724
0.167088
0.0998372
0.0583129
0.0333689
0.0187592
0.0103086
0.00541919
0.00250841
0.000661164
4.71087
4.03928
3.33184
2.64308
2.01707
1.48214
1.04992
0.718138
0.475285
0.304889
0.190061
0.115343
0.0681873
0.0392741
0.0220618
0.0120263
0.00624222
0.00285081
0.00074307
4.71008
4.04906
3.35928
2.68893
2.077
1.54918
1.11686
0.779213
0.526975
0.345865
0.220664
0.136924
0.0825144
0.0481586
0.0271555
0.0146869
0.0074836
0.00333434
0.000843369
4.70668
4.05446
3.38277
2.73276
2.13784
1.62038
1.19085
0.849417
0.588794
0.396918
0.260461
0.166272
0.10292
0.0614082
0.0350727
0.0189451
0.00948693
0.0041021
0.000994792
4.70269
4.06013
3.40756
2.77925
2.20312
1.69812
1.27351
0.929989
0.661985
0.459513
0.311191
0.205333
0.131401
0.0808733
0.0473211
0.0258348
0.0128129
0.00537693
0.00124562
4.70259
4.07266
3.44029
2.83416
2.2774
1.78578
1.36724
1.02277
0.748208
0.535412
0.374872
0.25641
0.170467
0.109096
0.0662184
0.0371548
0.0185411
0.00757113
0.00165041
4.70411
4.08869
3.47752
2.89429
2.35782
1.88091
1.47014
1.12654
0.846996
0.62498
0.452708
0.321495
0.222809
0.149314
0.0952754
0.0562365
0.0292227
0.0119754
0.00228936
4.70665
4.10727
3.51828
2.95875
2.44359
1.98288
1.58177
1.24112
0.95864
0.729106
0.546295
0.402985
0.291698
0.205757
0.139725
0.0891462
0.0511032
0.0237952
0.00567603
4.70838
4.1226
3.55273
3.01421
2.51864
2.07367
1.68309
1.34738
1.06464
0.83055
0.640085
0.487229
0.365488
0.268882
0.192292
0.131132
0.0820587
0.0429473
0.0123229
4.70449
4.12135
3.56053
3.03434
2.5517
2.11833
1.73676
1.40689
1.12675
0.892311
0.699097
0.54171
0.41424
0.31121
0.227902
0.159882
0.103756
0.0570774
0.0177713
4.69655
4.10888
3.55052
3.03071
2.55613
2.1309
1.75646
1.43205
1.15546
0.922596
0.729188
0.570116
0.439753
0.332941
0.245319
0.172752
0.112198
0.0615908
0.0191017
4.69102
4.10078
3.54505
3.03077
2.56293
2.1444
1.77579
1.45581
1.18206
0.950409
0.756719
0.596109
0.463191
0.353075
0.261697
0.185163
0.12067
0.0663976
0.0206635
4.68851
4.09762
3.54438
3.03446
2.57173
2.15821
1.79393
1.4772
1.20545
0.974531
0.780408
0.618374
0.483222
0.37027
0.275692
0.195781
0.127928
0.0705262
0.0220188
4.68691
4.09582
3.54457
3.03793
2.57902
2.16924
1.80817
1.49385
1.22358
0.993183
0.798702
0.635556
0.49867
0.383518
0.286456
0.203924
0.13347
0.0736635
0.0230486
4.68559
4.09403
3.54398
3.03956
2.58327
2.17609
1.81726
1.50465
1.23546
1.00548
0.810818
0.646965
0.508936
0.392313
0.293579
0.209282
0.137084
0.0756825
0.023704
4.68336
4.09072
3.54126
3.0382
2.58356
2.17802
1.82064
1.50916
1.24075
1.01117
0.816562
0.652472
0.513958
0.396659
0.29713
0.211974
0.138912
0.0767132
0.0240443
4.68337
4.09074
3.54129
3.03824
2.58361
2.17807
1.82069
1.50921
1.24079
1.01121
0.816603
0.652508
0.513989
0.396686
0.297152
0.211991
0.138925
0.0767206
0.0240468
4.68562
4.0941
3.54409
3.03969
2.58342
2.17624
1.81742
1.5048
1.23561
1.00562
0.81094
0.647074
0.509032
0.392395
0.293647
0.209335
0.137122
0.0757056
0.0237121
4.68696
4.09594
3.54474
3.03815
2.57926
2.16949
1.80842
1.49409
1.22382
0.993399
0.798898
0.635731
0.498823
0.383648
0.286562
0.204007
0.13353
0.0736994
0.023061
4.68858
4.09778
3.54462
3.03474
2.57205
2.15855
1.79426
1.47753
1.20577
0.97482
0.78067
0.618607
0.483425
0.370442
0.275833
0.19589
0.128006
0.0705731
0.0220349
4.6911
4.10098
3.54534
3.03113
2.56333
2.14481
1.77621
1.45622
1.18245
0.950765
0.757041
0.596393
0.463437
0.353282
0.261866
0.185294
0.120763
0.0664533
0.0206826
4.69664
4.10912
3.55086
3.03113
2.5566
2.13139
1.75696
1.43253
1.15591
0.923008
0.729558
0.57044
0.440031
0.333173
0.245506
0.172895
0.112299
0.06165
0.0191216
4.70459
4.12162
3.56092
3.03482
2.55224
2.11889
1.73733
1.40743
1.12726
0.892777
0.69951
0.542068
0.414543
0.311458
0.228098
0.160028
0.103856
0.0571344
0.0177903
4.70851
4.12299
3.55334
3.01499
2.51954
2.07464
1.68408
1.34834
1.06555
0.831388
0.640835
0.487887
0.366057
0.269367
0.192699
0.131469
0.082323
0.0431275
0.0123946
4.70681
4.10773
3.51899
2.95967
2.44465
1.98401
1.58291
1.24222
0.959669
0.730035
0.547111
0.403688
0.292293
0.206254
0.140132
0.0894676
0.0513384
0.0239398
0.00572584
4.70425
4.0891
3.47816
2.89511
2.35875
1.88191
1.47113
1.12747
0.847844
0.625723
0.45334
0.32202
0.223236
0.149653
0.0955363
0.0564241
0.0293412
0.0120327
0.00230083
4.70272
4.07305
3.44091
2.83495
2.27829
1.78671
1.36815
1.02362
0.748961
0.536054
0.375402
0.256835
0.1708
0.10935
0.0664027
0.0372784
0.0186126
0.00760216
0.00165634
4.70281
4.06049
3.40814
2.77999
2.20397
1.699
1.27435
0.930753
0.662646
0.460061
0.311629
0.205674
0.131658
0.0810606
0.0474509
0.0259173
0.0128582
0.0053957
0.00124891
4.70678
4.0548
3.38331
2.73346
2.13863
1.62118
1.19162
0.850095
0.589366
0.397379
0.260819
0.166541
0.103116
0.0615453
0.0351636
0.0190003
0.00951595
0.00411379
0.000996739
4.71017
4.04936
3.35978
2.68957
2.07772
1.54991
1.11754
0.779802
0.527461
0.346246
0.220952
0.137134
0.0826618
0.0482581
0.0272189
0.0147239
0.00750245
0.00334183
0.000844633
4.71094
4.03955
3.33228
2.64366
2.01771
1.48278
1.05051
0.718639
0.475689
0.305199
0.190288
0.115504
0.0682973
0.039346
0.0221062
0.0120515
0.00625493
0.00285598
0.000744056
4.70842
4.02267
3.29746
2.59283
1.95665
1.41869
0.989887
0.665977
0.433151
0.272972
0.167266
0.099961
0.0583956
0.0334217
0.0187912
0.0103266
0.00542851
0.00251249
0.000662136
4.69987
3.9942
3.25075
2.53341
1.89191
1.35579
0.934126
0.620236
0.398074
0.247629
0.149928
0.0886904
0.0514275
0.0293224
0.016488
0.00908556
0.0047889
0.00221502
0.000577485
4.68522
3.95512
3.19417
2.46794
1.82589
1.29576
0.883908
0.581101
0.369386
0.227684
0.136702
0.0802764
0.0462685
0.0262565
0.0147064
0.00806547
0.00421824
0.00192284
0.000483292
4.67346
3.93119
3.16675
2.44324
1.80727
1.28398
0.878044
0.57942
0.370141
0.229513
0.138742
0.0820925
0.0477076
0.0273212
0.0154678
0.00861437
0.00463244
0.00223778
0.000653252
4.66837
3.92992
3.17781
2.46918
1.84565
1.32951
0.924833
0.622646
0.406869
0.258641
0.160576
0.0977253
0.0584875
0.0345406
0.0202103
0.0116927
0.00660572
0.00342726
0.00113226
4.66521
3.93368
3.19588
2.50297
1.8918
1.38209
0.97764
0.670794
0.447504
0.2908
0.184721
0.115092
0.0705485
0.0426912
0.0256142
0.015215
0.00883575
0.00470521
0.00157767
4.66437
3.94204
3.21936
2.54196
1.94235
1.4381
1.03303
0.720937
0.489774
0.324377
0.210129
0.133581
0.083586
0.0516678
0.0316931
0.0192629
0.0114435
0.00621438
0.00210978
4.6646
3.95219
3.24454
2.58188
1.99279
1.49321
1.0872
0.76996
0.531298
0.357676
0.235677
0.152511
0.0972396
0.0613263
0.038441
0.0239114
0.014542
0.0080658
0.00278475
4.66358
3.96118
3.26801
2.61889
2.03919
1.5437
1.13687
0.815187
0.570026
0.38922
0.260379
0.171287
0.111208
0.0715769
0.0459096
0.0292963
0.0182998
0.010409
0.00367481
4.66441
3.97278
3.29249
2.65451
2.08216
1.58959
1.18175
0.856191
0.605525
0.418661
0.284012
0.189832
0.125553
0.0826007
0.0543687
0.0357371
0.0230378
0.0135056
0.00490365
4.6683
3.98675
3.31663
2.68695
2.11989
1.62931
1.22059
0.892047
0.637184
0.445667
0.306494
0.208275
0.140584
0.094846
0.0643609
0.0438163
0.0293102
0.0177928
0.00667261
4.6705
3.99549
3.33242
2.70885
2.14614
1.65791
1.2497
0.920196
0.663382
0.469367
0.327536
0.226776
0.156793
0.10904
0.0767581
0.0544556
0.0379792
0.0239388
0.00928329
4.67003
3.99762
3.33833
2.71881
2.1599
1.67487
1.26902
0.940968
0.684754
0.49064
0.348228
0.2466
0.175589
0.126693
0.0931125
0.0691594
0.0503758
0.0329335
0.0131647
4.66853
3.9947
3.33566
2.71824
2.16291
1.68223
1.28081
0.956722
0.703706
0.511911
0.371004
0.270203
0.199445
0.150268
0.115819
0.0901479
0.0683903
0.0461315
0.0188792
4.66471
3.98409
3.32221
2.70612
2.15539
1.68128
1.28717
0.970119
0.723251
0.536408
0.399225
0.301019
0.231818
0.183171
0.148127
0.120365
0.0944596
0.065222
0.0270977
4.65461
3.962
3.29592
2.68227
2.13881
1.67478
1.29172
0.985336
0.747886
0.568794
0.437623
0.343783
0.277365
0.229886
0.194209
0.163483
0.131525
0.092169
0.0385666
4.64197
3.93519
3.26503
2.65584
2.12277
1.67236
1.30383
1.01129
0.786021
0.61698
0.493653
0.405521
0.342679
0.296497
0.259513
0.224121
0.183152
0.129265
0.0541245
4.62963
3.90815
3.23611
2.63534
2.11712
1.6845
1.33413
1.05844
0.847776
0.690657
0.576529
0.49493
0.43585
0.390357
0.350478
0.307597
0.253327
0.179007
0.0746714
4.61189
3.8774
3.21024
2.6256
2.12916
1.72002
1.39228
1.13683
0.943298
0.799865
0.696006
0.621317
0.565558
0.519313
0.473901
0.419452
0.346169
0.24399
0.101205
4.59444
3.85713
3.20594
2.6466
2.17877
1.79797
1.49619
1.26322
1.08821
0.959151
0.865584
0.79712
0.743104
0.693412
0.638435
0.566802
0.467127
0.327863
0.135325
4.58818
3.8675
3.24666
2.72226
2.2892
1.94044
1.66673
1.4572
1.30089
1.18568
1.10123
1.03709
0.981963
0.924761
0.854737
0.758761
0.623652
0.436139
0.179834
4.60002
3.92216
3.34869
2.86984
2.47794
2.16488
1.92109
1.73562
1.59771
1.4953
1.41817
1.35576
1.29592
1.22639
1.13508
1.0068
0.82618
0.57752
0.239937
4.63846
4.0342
3.52627
3.1039
2.75976
2.48618
2.27423
2.11339
1.99351
1.90273
1.83105
1.7678
1.69984
1.61357
1.49533
1.32745
1.09152
0.76762
0.326471
4.70588
4.20597
3.78195
3.42785
3.13921
2.91006
2.73292
2.59826
2.49692
2.41759
2.35067
2.28556
2.2082
2.10358
1.95632
1.74547
1.44789
1.03566
0.463322
4.79504
4.42524
4.103
3.83043
3.60713
3.42956
3.29226
3.18725
3.10697
3.04117
2.98119
2.917
2.83408
2.71641
2.54686
2.30017
1.94546
1.43967
0.706923
4.89077
4.66744
4.46338
4.28711
4.14146
4.02524
3.93527
3.86585
3.81176
3.76486
3.71845
3.66423
3.58881
3.47664
3.30968
3.05791
2.67868
2.10226
1.19872
4.97448
4.90199
4.82996
4.76574
4.7121
4.66917
4.63604
4.61019
4.58972
4.57054
4.5497
4.52298
4.48216
4.4168
4.31195
4.13671
3.83578
3.29987
2.30993
)
;

boundaryField
{
    up
    {
        type            fixedValue;
        value           uniform 0;
    }
    low
    {
        type            fixedValue;
        value           uniform 5;
    }
    left
    {
        type            fixedValue;
        value           uniform 5;
    }
    right
    {
        type            fixedValue;
        value           uniform 5;
    }
    frontAndBackPlanes
    {
        type            empty;
    }
}


// ************************************************************************* //
