/*--------------------------------*- C++ -*----------------------------------*\
  =========                 |
  \\      /  F ield         | OpenFOAM: The Open Source CFD Toolbox
   \\    /   O peration     | Website:  https://openfoam.org
    \\  /    A nd           | Version:  7
     \\/     M anipulation  |
\*---------------------------------------------------------------------------*/
FoamFile
{
    version     2.0;
    format      ascii;
    class       volScalarField;
    location    "0.165";
    object      gradTz;
}
// * * * * * * * * * * * * * * * * * * * * * * * * * * * * * * * * * * * * * //

dimensions      [0 -1 0 1 0 0 0];

internalField   nonuniform List<scalar> 
1596
(
-3.22704e-16
-1.55916e-16
1.59512e-16
4.44737e-18
-3.01031e-16
0
-1.38832e-16
-1.36918e-16
-1.05682e-17
-7.29313e-17
-5.64056e-19
-7.28423e-17
3.22636e-16
-7.23598e-17
3.37494e-16
2.91729e-16
1.7366e-16
2.19674e-16
0
3.2129e-16
0
4.45816e-16
-3.87e-18
-1.33834e-16
1.32398e-16
2.7689e-16
1.01736e-17
1.30394e-16
-6.31858e-17
1.26343e-16
-1.63292e-18
-1.75711e-16
-1.10203e-16
-2.7272e-16
-2.66602e-16
-2.42887e-16
1.38511e-16
0
-1.55942e-16
0
-2.87396e-16
6.12528e-18
2.57302e-16
-7.52391e-17
7.26208e-18
-1.75844e-18
-1.64902e-18
-1.65834e-18
4.5266e-17
0
9.11052e-17
2.57288e-16
-2.54578e-17
2.07732e-17
4.87091e-17
7.70166e-17
0
2.47048e-16
-7.19692e-17
7.17064e-17
0
-6.82059e-17
-7.14591e-17
1.16784e-16
-9.83626e-17
0
0
-3.99039e-17
2.36824e-17
0
-7.51144e-17
-9.43465e-17
6.60456e-17
-6.97709e-17
-3.57847e-18
0
4.33998e-17
1.1148e-16
-9.72755e-17
0
-2.76694e-17
-8.49075e-17
0
1.24502e-16
-1.2195e-17
-1.10536e-17
-1.4165e-17
6.34728e-17
7.95779e-17
8.57201e-18
5.30062e-18
-7.1391e-17
3.5755e-18
3.32216e-17
-1.45249e-17
-1.12702e-17
-1.52573e-16
1.41521e-16
-1.19426e-16
-3.22226e-19
-1.00397e-16
2.79435e-18
-2.80362e-18
-7.59349e-17
0
-1.1822e-17
-7.53625e-17
-7.17736e-17
5.67536e-17
6.26635e-17
-8.45834e-19
-3.76383e-17
-3.36962e-17
2.5949e-17
9.41873e-17
-1.54723e-16
1.67829e-16
9.14899e-17
0
7.7523e-17
4.38949e-17
-2.09142e-17
9.59139e-17
-1.76899e-17
-7.65289e-17
6.00454e-19
-4.41068e-17
-5.69952e-17
-4.32793e-17
3.7772e-17
3.79696e-17
-5.12837e-19
-1.07198e-17
1.16659e-17
2.47077e-16
-2.80377e-16
0
0
-9.25513e-17
0
0
0
5.78063e-17
0
0
4.08082e-17
1.27742e-18
1.32834e-17
-3.3221e-17
0
1.76738e-17
7.16008e-18
0
-1.57211e-16
2.99968e-16
0
0
9.53149e-17
0
-3.34316e-17
3.33978e-17
-5.88384e-17
2.37576e-17
-2.39314e-17
0
3.43249e-17
3.63337e-17
0
-2.08948e-17
-1.80478e-17
-6.29358e-18
3.96012e-16
-1.82964e-16
0
-1.17356e-16
1.16043e-16
0
7.74604e-17
0
0
0
2.09749e-17
-2.10755e-17
0
-2.6684e-17
-7.41347e-18
0
3.43978e-18
1.15535e-17
0
-1.00564e-16
0
0
1.17794e-16
-2.15619e-16
1.4571e-17
5.62486e-18
-2.9856e-17
4.3429e-18
1.75246e-18
-2.16589e-17
-3.30402e-17
0
2.46493e-17
-5.19903e-18
5.27706e-18
1.5008e-17
-9.17644e-18
-4.07911e-18
7.8788e-17
-1.12496e-17
7.58812e-17
2.47873e-16
-1.75121e-17
-9.85339e-17
0
0
0
4.47665e-17
1.6872e-17
5.97243e-17
-1.43482e-17
-2.42084e-17
-1.34944e-17
-7.81682e-18
3.52676e-18
-7.81116e-18
3.85288e-18
-9.02253e-17
8.85952e-17
-1.61028e-16
-2.45049e-16
2.22476e-16
8.13588e-17
-1.47026e-16
1.20881e-16
-9.92123e-17
2.60787e-17
1.83571e-17
-1.62782e-17
9.26105e-18
-8.73776e-18
2.61324e-17
0
-2.02245e-18
1.5247e-17
-2.28782e-18
-5.99699e-16
2.7086e-16
2.06706e-19
-5.30655e-17
9.28401e-18
7.89819e-17
-1.48022e-16
-5.68995e-17
4.58488e-17
-3.67309e-17
-2.95981e-17
0
-3.13938e-17
-9.16489e-18
-1.5627e-17
-9.21998e-18
7.20799e-19
-8.8981e-18
3.79209e-19
9.8004e-17
-8.50431e-17
1.09268e-19
-6.11832e-17
-1.44284e-16
1.33902e-16
7.32259e-19
5.54485e-17
-4.46398e-17
7.0059e-17
1.6189e-17
1.25177e-17
3.57779e-17
0
2.79795e-17
1.27901e-17
0
4.62885e-18
2.96751e-19
0
8.25016e-17
6.05229e-17
-1.28475e-16
1.39578e-16
-2.03078e-16
1.38117e-16
4.70895e-17
-9.33567e-18
-7.00001e-17
1.14556e-17
-1.1399e-17
-3.16608e-17
1.17754e-17
-6.09599e-18
-1.2259e-17
5.01098e-18
-3.14878e-18
1.38874e-18
-9.12236e-17
2.96815e-16
-2.22395e-16
1.13652e-16
0
0
-2.52077e-17
5.5217e-17
-3.4622e-17
6.3732e-17
0
0
2.07681e-17
-1.75197e-17
-1.14066e-17
3.62068e-18
-3.93118e-18
2.12091e-18
0
9.71264e-18
8.53456e-17
-6.47375e-17
-5.47523e-17
-8.20667e-17
-2.18117e-17
3.58073e-17
0
-3.21086e-17
-2.38882e-17
2.07622e-17
-1.57187e-17
1.18525e-17
0
4.46733e-18
7.94663e-18
0
0
0
-9.38732e-18
1.27729e-16
4.3959e-17
-1.66154e-16
4.29423e-17
3.51739e-17
0
0
2.98423e-17
-1.57539e-17
-2.00816e-17
1.52029e-17
-1.14622e-17
0
-2.5987e-18
2.00083e-18
0
-1.70838e-18
-6.05951e-19
-7.09459e-17
2.08256e-16
-2.45953e-16
-9.11541e-17
4.87702e-17
-3.27276e-17
2.58037e-17
0
-1.52689e-17
1.20504e-17
0
0
4.167e-18
-4.1718e-18
1.09883e-18
-1.63459e-18
2.32981e-18
3.84462e-19
4.56999e-19
3.76233e-17
-3.28482e-17
1.59702e-16
-1.02273e-16
-3.83153e-17
6.32945e-18
5.43864e-17
1.8538e-17
1.46101e-17
0
6.86356e-18
-6.27761e-18
4.60573e-18
-3.6262e-18
4.08212e-18
-6.78085e-18
-1.8099e-18
1.55231e-18
3.92182e-19
9.85853e-17
-1.01036e-16
0
8.1172e-17
-4.37754e-17
-2.92854e-17
1.73205e-17
-5.7748e-17
0
-1.05324e-18
-8.40524e-18
-5.36348e-18
6.99679e-18
-6.91288e-19
-3.9453e-18
2.7471e-18
0
8.83639e-19
-3.80805e-19
1.73908e-16
-2.94079e-17
1.17874e-16
-9.1893e-17
4.47171e-17
9.73624e-19
-4.84063e-17
-1.41647e-17
2.45804e-17
-1.33831e-18
-1.16187e-17
9.3045e-18
-3.86248e-18
-4.43812e-18
0
0
0
-8.91074e-19
3.2202e-20
-1.51125e-16
1.46189e-16
1.05431e-19
2.00747e-17
1.62982e-17
-3.59361e-17
4.03819e-17
-3.06278e-17
2.43476e-17
-6.88527e-18
1.28489e-17
4.0177e-18
-1.60118e-18
7.62039e-20
-4.4202e-19
-7.80101e-19
0
0
0
0
0
6.57154e-17
-3.59788e-17
-9.47924e-17
0
0
-8.8978e-18
-1.30489e-17
1.00635e-17
0
-5.06705e-18
3.58298e-18
-1.07309e-17
1.20553e-17
-3.50761e-18
3.71276e-18
3.841e-19
0
-2.92416e-17
2.96015e-17
0
-2.14919e-17
2.15879e-17
3.29596e-17
0
8.98277e-18
9.84074e-18
-4.61156e-17
0
-5.88543e-18
4.20051e-18
2.67142e-18
-1.83503e-18
2.55279e-18
0
-8.54921e-19
0
-1.50519e-17
-1.45041e-17
8.57255e-19
2.20824e-17
-5.62137e-17
0
-1.27817e-17
0
3.07367e-17
1.12447e-17
0
2.33311e-17
-2.29755e-17
2.67141e-18
-3.89314e-18
1.57224e-18
4.95371e-18
1.71459e-18
-1.36007e-18
0
3.06361e-17
-2.53565e-17
3.11917e-17
3.48839e-17
0
2.56954e-17
-2.36375e-17
-1.66562e-17
2.25789e-17
-3.36261e-17
-1.46101e-17
0
0
2.4537e-18
0
0
6.16063e-19
0
-1.38132e-16
1.06541e-16
0
2.09976e-18
-1.99846e-17
-1.043e-18
1.64654e-17
1.03149e-17
-1.40126e-17
-3.03655e-17
4.40523e-17
-1.21733e-17
0
-4.74264e-18
0
0
0
-2.40108e-18
1.92464e-18
-3.96172e-17
3.60944e-17
9.2229e-17
-8.88922e-17
2.62868e-17
1.85191e-18
-1.67013e-17
1.35251e-17
2.15223e-17
1.51629e-17
-2.97634e-17
0
1.26859e-17
7.73651e-19
-5.43035e-18
-1.06124e-17
8.59864e-18
-1.19762e-18
2.35884e-18
-1.36061e-16
1.85786e-16
-1.83012e-16
3.07256e-17
2.46511e-17
-2.29189e-17
1.87386e-17
-1.37671e-17
0
-1.05179e-17
1.52495e-17
6.54466e-18
9.98966e-18
1.12308e-17
-1.64889e-17
-5.39759e-19
0
-1.01191e-18
3.44648e-19
-1.47093e-16
-4.20823e-17
-7.05977e-17
3.82473e-17
-5.80308e-17
4.80749e-17
-2.80071e-17
2.21468e-17
-2.02387e-18
-1.97536e-18
-1.67506e-17
1.02871e-17
-4.59184e-18
1.44909e-17
-1.55561e-17
1.49664e-18
1.51243e-18
0
-6.16737e-19
1.5904e-16
-4.55459e-17
0
0
-5.96185e-17
1.14377e-16
-2.59432e-17
-4.57825e-18
3.63609e-17
-1.01212e-18
0
0
-6.92294e-18
0
-1.40086e-17
3.2907e-17
-2.24572e-17
0
2.60316e-19
5.36775e-17
9.80629e-17
0
-3.97456e-17
-3.04754e-17
-2.54231e-17
-2.71516e-17
1.05547e-17
-2.87934e-17
-1.48148e-17
0
0
1.03092e-17
0
0
-1.97842e-17
3.28426e-17
0
0
3.68542e-16
-4.70793e-17
-2.15865e-16
-1.1148e-16
1.51754e-16
4.61315e-17
2.63268e-17
0
-9.0032e-18
8.24372e-18
2.06724e-17
-6.53272e-18
-9.0464e-18
1.38467e-17
-1.47286e-17
-4.21791e-18
0
0
0
2.95125e-17
-2.26414e-16
2.21422e-16
-2.05662e-17
-1.53122e-16
2.36324e-16
-1.16914e-16
0
0
5.58409e-17
-4.52822e-17
0
-1.26794e-17
2.23369e-17
-2.32088e-18
6.33208e-18
1.88584e-18
2.45617e-20
3.99521e-19
0
0
0
1.79034e-16
-1.20409e-16
1.20049e-16
-1.85708e-16
5.19646e-17
0
-1.75385e-17
2.71361e-17
-2.77347e-17
-5.19032e-18
5.36347e-20
-3.4315e-18
-4.57725e-19
-2.74152e-18
-7.81716e-19
-4.20363e-19
2.45378e-16
-4.33586e-16
2.03547e-16
0
5.12936e-17
-7.00975e-17
6.71808e-17
-5.32206e-17
0
-2.42275e-17
3.39818e-17
0
0
5.59421e-20
0
-3.7228e-18
2.52975e-18
4.23352e-19
6.76534e-19
2.42233e-16
0
-9.15376e-17
1.02147e-16
-6.15251e-17
1.33356e-16
-6.23331e-17
-4.67465e-17
4.72347e-17
-4.68309e-18
0
0
2.8658e-18
-4.68665e-18
-3.28206e-18
6.1876e-18
-1.33827e-18
6.68964e-19
0
1.37399e-16
1.04112e-16
-5.26822e-18
-9.76499e-17
-9.56876e-18
-6.718e-17
8.38045e-18
5.53017e-17
-2.78313e-18
4.77103e-18
0
0
-2.93582e-18
0
3.40834e-18
-3.64612e-18
0
4.64689e-19
-1.28036e-19
-7.2901e-17
-5.22847e-17
4.89916e-17
-5.45671e-18
-2.40611e-18
6.36826e-18
0
-1.62221e-18
2.36542e-17
-1.99179e-17
0
6.4557e-18
-1.32505e-18
-5.63892e-18
-5.11043e-19
-3.96493e-19
0
-3.63954e-19
0
2.9379e-17
-5.54608e-17
-3.04177e-19
2.32502e-17
2.05456e-17
-2.03682e-17
-1.39267e-17
1.57456e-17
-5.22429e-18
4.10036e-18
-3.85552e-18
3.97444e-18
0
9.88709e-21
-3.77442e-19
1.35261e-18
-4.61066e-21
0
0
2.938e-17
-2.92699e-17
-2.31276e-17
2.05155e-17
3.62594e-17
-3.64734e-17
-6.96361e-18
6.98066e-18
-5.26887e-18
5.324e-18
-3.85571e-18
7.2361e-18
-2.02976e-18
-1.43709e-18
-4.35035e-19
1.45582e-19
3.42789e-19
9.0338e-20
-6.77201e-20
0
-6.91137e-18
4.02067e-17
-4.36583e-17
3.61408e-17
-3.20879e-17
0
2.40955e-17
-2.15905e-17
0
7.64132e-18
-9.65322e-18
-5.38119e-18
5.63983e-18
1.01841e-18
0
0
-3.64047e-19
1.32091e-19
1.16839e-16
-2.13524e-16
2.14207e-16
-1.8471e-16
7.20391e-17
-5.877e-17
5.58829e-17
6.40835e-18
-2.33328e-17
2.08188e-17
0
-1.43931e-17
1.31286e-17
-2.43112e-18
-9.97532e-19
1.53445e-18
1.12264e-18
3.53419e-19
-1.2763e-19
2.7287e-16
0
-1.03676e-16
8.0643e-17
9.45891e-18
-7.04851e-17
1.23628e-16
-1.07462e-16
4.18063e-17
-1.71563e-17
1.75609e-17
3.41284e-18
5.68032e-18
2.36794e-18
-1.90431e-18
-2.69325e-19
-2.42163e-18
0
2.40267e-19
2.15151e-16
-2.42192e-16
0
2.12275e-17
8.8731e-17
-8.65016e-17
1.42366e-17
1.23175e-17
5.32135e-18
9.04659e-18
0
0
-9.8423e-18
1.80966e-17
-6.55405e-18
-2.31169e-18
2.53091e-18
2.00535e-19
-4.53989e-19
2.39311e-17
2.12851e-16
-2.38524e-17
-1.58024e-16
1.38913e-16
1.60658e-17
-1.39331e-17
-1.20306e-17
3.80084e-17
-4.7106e-17
2.71481e-17
-2.77466e-17
4.06564e-18
-5.42073e-18
9.35235e-18
-6.26733e-18
0
0
4.24223e-19
0
5.27541e-17
-1.53321e-16
1.75525e-16
-1.35204e-16
1.34882e-16
0
4.31089e-17
-4.33064e-17
-3.08458e-17
4.53231e-17
0
1.76719e-17
-2.23581e-17
-3.27021e-18
0
-3.48383e-19
-6.48921e-19
-3.78612e-20
-5.10581e-16
2.4092e-16
0
-1.51735e-16
1.5172e-16
8.81734e-17
-5.77991e-17
2.24746e-17
0
-9.45711e-19
6.3966e-18
-6.52539e-18
-9.03708e-18
1.38312e-17
-1.47071e-17
0
2.90825e-18
-5.40041e-19
-4.04175e-19
3.11957e-16
-3.04768e-16
0
3.94336e-17
3.47666e-17
-3.11172e-17
0
-2.35536e-17
-1.90929e-17
0
-1.32755e-18
0
1.03167e-17
0
0
3.99365e-18
1.47545e-17
-1.92633e-17
0
2.15517e-20
4.55688e-17
-4.08711e-17
3.1304e-17
-1.60092e-16
6.01341e-17
0
4.58233e-18
1.28496e-17
0
-1.22336e-17
3.2817e-17
-3.44762e-17
5.29533e-18
0
-8.37938e-19
0
0
0
2.73465e-20
0
3.77751e-17
0
-5.35443e-17
5.43956e-17
0
1.7267e-17
-1.3063e-17
4.58528e-17
-2.1789e-17
7.12949e-18
-1.09107e-17
9.71417e-18
-1.5582e-17
-2.41332e-18
0
-1.30932e-18
0
1.20048e-16
-2.03342e-16
0
-3.05555e-17
2.63288e-17
0
0
-3.11993e-17
0
-1.05281e-17
-1.52656e-17
-6.55266e-18
1.00034e-17
0
4.4952e-18
0
0
2.78339e-18
-2.97981e-18
0
1.72007e-16
-1.37265e-16
2.82874e-17
-2.43806e-17
-9.2833e-18
2.61445e-17
2.76553e-17
-3.13001e-17
9.99384e-18
1.18986e-18
-7.67896e-18
3.0859e-17
-9.49887e-18
-1.98267e-17
6.56143e-18
-1.50043e-18
9.1221e-19
-2.47734e-19
-2.89706e-16
1.06564e-16
0
0
1.00534e-17
-1.02232e-17
6.32962e-18
3.39752e-18
2.7671e-17
1.30061e-17
-1.2486e-17
-8.32279e-19
-5.94529e-18
4.74892e-18
0
1.95202e-18
1.37526e-18
6.67901e-19
2.23917e-19
0
9.01443e-17
-8.1771e-17
2.57394e-17
2.46699e-17
-4.67962e-18
-1.39382e-17
-1.11823e-17
-3.42666e-17
1.26811e-17
-6.56527e-18
9.82802e-18
5.55958e-18
-6.12434e-18
6.50061e-18
3.55867e-18
-4.79302e-18
-6.16906e-19
0
-1.66384e-17
-7.21196e-17
2.48504e-17
2.2089e-17
-7.1694e-17
5.00887e-17
2.22716e-17
-2.2765e-17
1.58101e-17
-1.2035e-17
0
0
-7.55589e-18
1.31609e-17
-5.55799e-18
4.59479e-18
-5.05281e-18
7.68859e-19
-1.36187e-18
3.08701e-17
2.80559e-17
-2.458e-17
1.748e-17
-2.14681e-17
-2.94141e-17
0
0
0
0
0
0
3.83449e-18
-9.19394e-18
9.72359e-18
-2.78483e-18
3.4571e-18
1.51605e-18
-1.27528e-18
6.46124e-17
-1.04002e-16
1.29651e-16
-5.52984e-17
7.71425e-17
-4.99614e-17
9.05141e-17
-4.87597e-17
-2.2594e-17
2.31127e-17
0
5.06428e-18
-3.74609e-18
8.12583e-18
-3.09691e-18
-3.44443e-18
-6.44252e-18
5.12194e-19
1.07009e-18
1.00918e-16
2.78188e-17
0
-4.00274e-17
-2.919e-17
6.49546e-17
4.81286e-18
-2.29803e-17
1.30781e-17
-8.27094e-18
0
-4.00895e-18
0
-2.77399e-18
2.14288e-18
-1.80021e-18
-5.79398e-19
3.82793e-19
0
1.40451e-16
-2.94075e-17
1.17858e-16
-9.19331e-17
-1.72094e-17
6.2543e-17
-3.7445e-17
2.28914e-18
1.75071e-18
-8.07901e-18
7.60442e-18
0
0
3.51026e-18
-1.10114e-18
6.60388e-19
2.09727e-18
-7.28064e-19
0
2.81313e-20
0
-2.65457e-17
1.47883e-16
-9.85997e-17
-9.57637e-17
5.20163e-17
-4.78718e-17
4.33656e-17
1.94648e-17
-1.34902e-17
5.14674e-18
-4.40178e-18
8.87902e-19
6.17171e-18
9.56207e-20
-2.05237e-18
2.01241e-18
-4.22507e-19
3.37716e-16
-1.0679e-16
4.75532e-17
-1.49153e-16
3.83151e-17
-5.59868e-17
3.08289e-17
0
0
-1.10542e-18
-1.62168e-18
-4.7447e-19
0
-5.73863e-18
-4.08225e-18
2.83866e-18
-2.03519e-19
4.30739e-19
8.65781e-19
0
-1.04242e-16
1.68958e-16
3.28742e-17
-1.30707e-16
3.27275e-17
-4.65921e-17
1.0069e-17
3.56691e-17
0
0
6.16754e-19
5.66851e-18
0
-4.39912e-18
-1.87172e-18
2.80675e-19
-8.84266e-19
-1.07439e-18
0
-6.37201e-17
1.83782e-17
1.13881e-16
7.81893e-17
-1.40621e-16
6.22362e-17
-3.88253e-17
2.12477e-17
-2.6309e-17
0
0
0
-8.60553e-18
1.85771e-18
-2.61147e-18
0
-1.54539e-19
7.63205e-19
-2.52133e-16
2.37042e-16
2.40098e-16
-2.90348e-16
1.26851e-16
-1.17779e-16
0
4.1381e-17
-5.52947e-17
3.05093e-17
-2.19724e-17
1.68688e-17
1.29202e-17
8.90002e-18
6.6678e-18
0
0
0
0
2.83266e-16
-1.58391e-16
0
0
-4.72491e-17
1.08343e-16
-6.89253e-17
-4.42247e-17
4.37262e-17
2.95187e-17
4.68822e-17
-1.75031e-17
7.36464e-18
5.17136e-18
3.60209e-18
3.04726e-18
4.82266e-18
-2.32788e-19
2.37116e-19
-2.8507e-16
2.57969e-16
1.30885e-16
-6.90894e-17
1.394e-16
-8.89315e-17
-6.56998e-17
-5.27655e-17
0
-6.23957e-17
4.02308e-18
2.0845e-17
-1.51485e-17
-1.17755e-17
-4.25692e-18
-4.22808e-18
-3.40126e-18
0
0
-9.80709e-17
0
7.2414e-17
-3.66019e-20
0
0
6.77715e-17
5.44466e-17
0
3.4327e-17
0
-3.1573e-17
-8.68684e-18
1.51117e-17
0
9.58771e-18
-1.33147e-18
1.35828e-18
0
2.10883e-16
0
1.37376e-16
-2.50961e-16
2.17813e-16
1.6546e-16
-6.83261e-18
0
5.04953e-18
4.17107e-17
0
-3.69854e-17
3.96364e-17
-3.48837e-17
-7.51508e-18
-7.61862e-18
-2.35796e-18
-4.43304e-19
-1.74188e-18
-1.92109e-16
2.75636e-16
-7.53409e-17
-1.90927e-16
-1.06604e-16
-8.84988e-17
-1.46146e-16
-5.48034e-17
5.83054e-18
1.83917e-17
-1.83571e-17
5.54435e-17
-2.43607e-17
4.73962e-17
-8.84621e-18
0
1.08508e-17
-6.63347e-18
1.72028e-18
4.33691e-16
-1.13008e-17
-3.13424e-16
2.47875e-16
-2.16839e-16
1.81803e-16
-7.44881e-18
-6.34618e-17
5.32471e-17
1.99631e-17
-3.08596e-18
-4.64956e-17
1.28326e-17
1.53232e-17
-4.32525e-18
4.37458e-18
-1.12388e-17
-1.86291e-18
-3.14125e-18
2.12904e-16
8.71451e-17
1.49144e-16
-1.26845e-16
-9.93999e-17
7.08671e-18
-7.06687e-17
1.69714e-16
7.23963e-18
7.35797e-17
4.21479e-17
-3.69131e-17
0
-2.46493e-17
0
0
1.80986e-17
7.69368e-18
3.63327e-18
1.9759e-16
0
1.46861e-16
1.26027e-16
-1.08204e-16
9.12434e-17
0
-6.6026e-17
-8.98297e-17
-7.58503e-17
-4.25209e-17
3.73305e-17
0
0
0
0
-1.70012e-17
-1.39615e-17
0
-3.87025e-16
0
-9.42602e-18
-8.39379e-18
1.65825e-16
-8.89096e-17
-3.99392e-17
-4.0266e-17
9.26651e-17
0
2.37574e-17
-2.45475e-18
2.28793e-17
0
0
3.12196e-17
-2.35375e-18
1.67854e-17
-6.99085e-18
2.70918e-16
7.55217e-17
-7.47422e-17
-6.39746e-17
-2.13216e-16
1.42842e-16
1.68032e-16
-6.26826e-18
-6.42997e-17
6.51856e-17
1.34153e-17
-6.97099e-17
-5.55755e-17
-3.64607e-17
-3.90612e-17
-3.60546e-17
3.23743e-17
-1.50895e-18
7.16011e-18
-8.24579e-17
3.65953e-17
-1.74704e-16
2.86629e-17
-2.85587e-17
0
-8.42373e-17
-8.21398e-18
-7.82963e-17
9.31486e-18
7.65285e-17
5.45655e-17
-1.3916e-17
3.3462e-18
3.69897e-17
0
-6.89566e-17
-2.63538e-17
-5.42276e-19
1.70255e-16
-4.47561e-18
2.75014e-16
-1.28676e-16
3.22226e-19
3.29894e-18
9.81364e-17
-1.03207e-17
7.59345e-17
-7.09685e-17
-6.70306e-17
0
7.17733e-17
5.58509e-17
8.16847e-19
-1.19402e-18
3.80047e-17
2.67822e-17
0
-1.20506e-16
0
-2.64009e-17
1.23288e-16
2.16995e-18
2.77063e-17
-9.48963e-17
8.90031e-17
9.73043e-17
9.35654e-17
9.05925e-17
0
-6.97264e-17
0
3.92031e-18
-4.07159e-18
0
-4.04717e-19
2.01792e-17
8.49055e-17
5.55277e-18
-6.31896e-17
1.96909e-16
-6.25991e-17
0
0
-1.12841e-16
-9.42779e-17
-9.0644e-17
-1.68724e-16
-2.36823e-17
0
0
0
-8.31366e-18
8.79793e-18
5.72952e-17
-2.04917e-17
5.81581e-18
0
-1.39939e-16
-1.2511e-16
1.3297e-16
-1.32319e-16
-1.88304e-16
2.27232e-16
6.55336e-17
0
1.01065e-16
1.18501e-16
-2.55805e-17
1.40406e-16
-2.31048e-17
2.40465e-17
9.46393e-17
-5.44476e-17
0
-1.61668e-16
0
-1.53442e-16
1.49821e-16
0
2.64741e-16
1.23284e-16
-2.62495e-16
2.13191e-16
-1.16641e-18
-6.38328e-17
-1.14734e-16
0
1.63656e-16
-2.7272e-16
2.93228e-16
-3.73819e-16
0
0
1.61289e-16
-1.35645e-18
-3.32612e-18
-3.04014e-16
3.08101e-16
-1.48088e-16
1.47484e-16
1.45398e-16
-1.25727e-16
0
0
2.45075e-16
-2.49297e-16
-2.64227e-16
2.62623e-16
-2.56368e-16
2.77709e-16
-4.35432e-16
0
)
;

boundaryField
{
    up
    {
        type            calculated;
        value           nonuniform List<scalar> 
84
(
0
0
0
0
-1.45249e-17
2.5949e-17
-1.07198e-17
7.16008e-18
-6.29358e-18
0
-4.07911e-18
3.85288e-18
-2.28782e-18
3.79209e-19
2.96751e-19
1.38874e-18
0
0
-6.05951e-19
4.56999e-19
3.92182e-19
-3.80805e-19
3.2202e-20
0
1.48186e-19
8.17928e-20
-1.27156e-18
0
1.92464e-18
2.52321e-18
3.44648e-19
-6.16737e-19
2.60316e-19
0
-1.20642e-19
4.08614e-19
-4.16836e-19
6.73416e-19
0
-1.27338e-19
0
0
-6.76905e-20
1.32091e-19
-1.2763e-19
2.40267e-19
-4.53989e-19
4.24223e-19
-3.78612e-20
-4.04175e-19
0
0
0
-2.97981e-18
-4.12366e-19
2.23917e-19
0
-1.36187e-18
-1.27528e-18
9.22329e-19
0
0
-4.22507e-19
8.65781e-19
-1.07439e-18
7.63205e-19
0
2.37116e-19
0
0
-1.74188e-18
1.72028e-18
-3.14125e-18
3.63327e-18
0
-6.99085e-18
7.16011e-18
-5.42276e-19
0
2.01792e-17
-2.04917e-17
0
0
0
)
;
    }
    low
    {
        type            calculated;
        value           nonuniform List<scalar> 
84
(
-3.23003e-16
3.2129e-16
-1.55394e-16
2.47488e-16
4.36944e-17
-1.13563e-17
9.49019e-17
1.23427e-17
0
3.96798e-16
-1.00564e-16
7.83336e-17
-9.02253e-17
-5.99763e-16
9.8004e-17
0
-9.12236e-17
9.71264e-18
-9.38732e-18
-7.09459e-17
3.76233e-17
9.85853e-17
1.73137e-16
-1.51125e-16
0
-2.92416e-17
-1.50519e-17
0
-1.38132e-16
-3.96172e-17
-1.35593e-16
-1.46744e-16
1.58832e-16
5.36775e-17
3.68628e-16
2.95125e-17
0
2.45378e-16
2.42875e-16
1.37743e-16
-7.30821e-17
2.9379e-17
2.938e-17
0
1.16839e-16
2.73512e-16
2.15151e-16
2.43997e-17
0
-5.10667e-16
3.11957e-16
2.15517e-20
2.73465e-20
1.20048e-16
0
-2.88895e-16
0
-1.66384e-17
3.08701e-17
6.41217e-17
1.00074e-16
1.39681e-16
2.81313e-20
3.37114e-16
0
0
-2.52133e-16
2.83027e-16
-2.84937e-16
-9.80709e-17
2.10947e-16
-1.92109e-16
4.34599e-16
2.13522e-16
1.9759e-16
-3.87025e-16
2.70241e-16
-8.17433e-17
1.70255e-16
-1.20212e-16
8.49055e-17
6.36422e-18
-1.61668e-16
1.61438e-16
)
;
    }
    left
    {
        type            calculated;
        value           nonuniform List<scalar> 
19
(
-3.22704e-16
-1.56065e-16
1.59512e-16
4.46294e-18
-3.01151e-16
0
-1.38832e-16
-1.36918e-16
-1.10729e-17
-7.29313e-17
-5.64056e-19
-7.28423e-17
3.25832e-16
-7.23598e-17
3.37494e-16
2.91729e-16
1.7366e-16
2.55074e-16
0
)
;
    }
    right
    {
        type            calculated;
        value           nonuniform List<scalar> 
19
(
1.61289e-16
-1.20709e-18
-3.32612e-18
-3.0403e-16
3.08221e-16
-1.48088e-16
1.47484e-16
1.45398e-16
-1.25223e-16
0
0
2.47368e-16
-2.52494e-16
-2.64227e-16
2.62623e-16
-2.56368e-16
2.77709e-16
-4.70832e-16
0
)
;
    }
    frontAndBackPlanes
    {
        type            empty;
    }
}


// ************************************************************************* //
