/*--------------------------------*- C++ -*----------------------------------*\
  =========                 |
  \\      /  F ield         | OpenFOAM: The Open Source CFD Toolbox
   \\    /   O peration     | Website:  https://openfoam.org
    \\  /    A nd           | Version:  7
     \\/     M anipulation  |
\*---------------------------------------------------------------------------*/
FoamFile
{
    version     2.0;
    format      ascii;
    class       volScalarField;
    location    "0.16";
    object      gradTy;
}
// * * * * * * * * * * * * * * * * * * * * * * * * * * * * * * * * * * * * * //

dimensions      [0 -1 0 1 0 0 0];

internalField   nonuniform List<scalar> 
1596
(
-0.353599
-0.653775
-0.893739
-1.11593
-1.31845
-1.52851
-1.73193
-1.95901
-2.21964
-2.52058
-2.93962
-3.4737
-4.22639
-5.31637
-7.03704
-9.74482
-14.6107
-23.6065
-55.7629
-1.07334
-1.31443
-1.46543
-1.59202
-1.70179
-1.82693
-1.95711
-2.12151
-2.33084
-2.5864
-2.95471
-3.42633
-4.07138
-4.94351
-6.19416
-7.89641
-10.4422
-14.1918
-24.8343
-1.91078
-1.97867
-1.99903
-2.01565
-2.02871
-2.067
-2.1201
-2.2144
-2.35859
-2.5503
-2.84529
-3.22787
-3.74728
-4.42786
-5.36218
-6.55809
-8.22936
-10.5243
-15.4379
-2.77513
-2.61573
-2.4862
-2.38711
-2.30349
-2.2555
-2.2311
-2.25242
-2.32571
-2.44623
-2.66023
-2.9489
-3.34763
-3.86589
-4.56324
-5.42223
-6.5695
-8.06254
-10.6092
-3.55536
-3.18896
-2.91863
-2.70998
-2.53538
-2.40533
-2.30652
-2.25621
-2.25868
-2.30797
-2.44212
-2.64206
-2.93381
-3.31966
-3.8401
-4.46966
-5.28904
-6.31513
-7.80565
-4.15681
-3.66468
-3.28873
-2.98876
-2.73492
-2.53089
-2.36381
-2.24649
-2.18197
-2.16412
-2.22387
-2.34375
-2.54319
-2.82123
-3.20668
-3.67347
-4.2761
-5.01345
-5.98232
-4.53444
-4.01836
-3.58826
-3.2251
-2.9093
-2.64296
-2.41627
-2.23887
-2.11348
-2.03467
-2.02723
-2.07639
-2.19663
-2.38574
-2.66483
-3.01026
-3.46033
-4.00666
-4.68609
-4.69694
-4.23731
-3.80635
-3.41367
-3.0576
-2.74392
-2.46863
-2.24002
-2.06149
-1.92909
-1.86253
-1.85011
-1.90257
-2.01737
-2.2102
-2.46087
-2.79697
-3.20799
-3.70727
-4.6919
-4.34457
-3.95597
-3.56468
-3.18919
-2.8429
-2.52951
-2.25804
-2.03363
-1.85439
-1.7361
-1.6702
-1.66453
-1.71661
-1.83809
-2.0122
-2.2589
-2.56781
-2.94255
-4.55767
-4.3263
-4.00662
-3.64512
-3.27358
-2.91348
-2.57653
-2.27427
-2.01432
-1.79736
-1.6365
-1.52608
-1.47187
-1.47168
-1.53408
-1.6455
-1.82043
-2.04968
-2.3329
-4.4032
-4.25027
-3.9967
-3.67623
-3.32275
-2.96238
-2.61328
-2.29012
-2.00343
-1.75667
-1.56145
-1.41466
-1.32067
-1.27762
-1.29166
-1.35186
-1.46852
-1.63383
-1.84582
-4.22262
-4.14813
-3.95595
-3.67865
-3.34968
-2.99715
-2.64363
-2.30683
-2.00013
-1.72982
-1.50688
-1.33045
-1.20401
-1.12603
-1.10074
-1.11928
-1.18868
-1.30241
-1.45788
-4.00626
-4.00041
-3.86636
-3.63385
-3.33474
-2.99794
-2.64847
-2.30658
-1.98814
-1.70196
-1.45908
-1.26054
-1.1094
-1.00443
-0.948423
-0.934166
-0.966221
-1.03914
-1.15023
-3.8206
-3.85092
-3.7602
-3.56613
-3.2955
-2.97644
-2.6348
-2.29275
-1.96803
-1.67159
-1.41491
-1.20049
-1.03125
-0.906224
-0.827105
-0.787827
-0.791082
-0.832235
-0.908663
-3.65368
-3.71201
-3.65251
-3.48846
-3.2419
-2.93932
-2.60648
-2.26675
-1.93929
-1.63668
-1.37098
-1.14579
-0.963995
-0.824811
-0.729058
-0.671444
-0.653227
-0.670346
-0.720297
-3.49264
-3.57915
-3.54516
-3.40459
-3.17731
-2.88872
-2.56419
-2.22793
-1.9001
-1.5945
-1.32374
-1.09214
-0.902604
-0.754376
-0.647568
-0.577357
-0.5439
-0.543521
-0.573835
-3.34955
-3.45567
-3.44175
-3.31911
-3.10625
-2.82821
-2.51025
-2.17732
-1.85034
-1.54397
-1.27122
-1.03684
-0.843612
-0.690693
-0.57755
-0.499572
-0.456054
-0.443548
-0.459764
-3.22664
-3.34718
-3.34859
-3.23907
-3.036
-2.76451
-2.45035
-2.11929
-1.79302
-1.48688
-1.21406
-0.979473
-0.785645
-0.631449
-0.515701
-0.433802
-0.38432
-0.363912
-0.370344
-3.10143
-3.25143
-3.2707
-3.17263
-2.97611
-2.70742
-2.39365
-2.06183
-1.73466
-1.4282
-1.15573
-0.922121
-0.729473
-0.576206
-0.460419
-0.377336
-0.324866
-0.299661
-0.299498
-2.96877
-3.15484
-3.19681
-3.11152
-2.92069
-2.65289
-2.33743
-2.00313
-1.67404
-1.36703
-1.0954
-0.863892
-0.673998
-0.523531
-0.409792
-0.327676
-0.274481
-0.246803
-0.242422
-2.85491
-3.06798
-3.13238
-3.06017
-2.87418
-2.60543
-2.28606
-1.94724
-1.61471
-1.30633
-1.03542
-0.806464
-0.620227
-0.473764
-0.363474
-0.283764
-0.231316
-0.202652
-0.195628
-2.75221
-2.99205
-3.07845
-3.01952
-2.83807
-2.5673
-2.24243
-1.89738
-1.55994
-1.24916
-0.978429
-0.751951
-0.569676
-0.427807
-0.321751
-0.245259
-0.194285
-0.165222
-0.156271
-2.65428
-2.92431
-3.03383
-2.98881
-2.81218
-2.53906
-2.2079
-1.85555
-1.51213
-1.19804
-0.926801
-0.702399
-0.523939
-0.386767
-0.285277
-0.212404
-0.16309
-0.133147
-0.121446
-2.56385
-2.86407
-2.99594
-2.96329
-2.7898
-2.51239
-2.17329
-1.81214
-1.46165
-1.14383
-0.871776
-0.649692
-0.475587
-0.343953
-0.248071
-0.180151
-0.133567
-0.102367
-0.0821473
-2.48806
-2.81673
-2.97683
-2.96835
-2.81402
-2.54942
-2.21775
-1.85902
-1.50732
-1.18634
-0.909273
-0.681945
-0.502398
-0.365875
-0.265722
-0.194625
-0.145074
-0.110305
-0.0832248
-2.433
-2.78003
-2.96004
-2.97306
-2.83969
-2.5929
-2.27438
-1.92317
-1.57357
-1.25045
-0.967574
-0.732502
-0.54421
-0.398968
-0.29082
-0.213432
-0.159459
-0.122784
-0.0972344
-2.42813
-2.77821
-2.96655
-2.9929
-2.87562
-2.64524
-2.34071
-1.99945
-1.65487
-1.332
-1.04523
-0.803068
-0.605486
-0.449904
-0.33154
-0.245231
-0.184305
-0.142958
-0.114968
-2.4796
-2.81682
-2.99914
-3.02713
-2.91766
-2.699
-2.40701
-2.07667
-1.7396
-1.4201
-1.13246
-0.885607
-0.680079
-0.514187
-0.384377
-0.28712
-0.216943
-0.168757
-0.136204
-2.58019
-2.89504
-3.0598
-3.07942
-2.97044
-2.75901
-2.47782
-2.15883
-1.83123
-1.51795
-1.2325
-0.98382
-0.772396
-0.596899
-0.454629
-0.343977
-0.261381
-0.203361
-0.16372
-2.72549
-3.00467
-3.14219
-3.14609
-3.03233
-2.82492
-2.55339
-2.24638
-1.93024
-1.62615
-1.34637
-1.0996
-0.885784
-0.703143
-0.548816
-0.42274
-0.323778
-0.251625
-0.20133
-2.91164
-3.14392
-3.24888
-3.23279
-3.11082
-2.90493
-2.64177
-2.34657
-2.04281
-1.74976
-1.47836
-1.23713
-1.02528
-0.839985
-0.676586
-0.534879
-0.415242
-0.322347
-0.255308
-3.10694
-3.29948
-3.37242
-3.33516
-3.20361
-2.99818
-2.74287
-2.45965
-2.16911
-1.8887
-1.62808
-1.39604
-1.19163
-1.01116
-0.846891
-0.695623
-0.55481
-0.432661
-0.337325
-3.32551
-3.47581
-3.51442
-3.45405
-3.31135
-3.10524
-2.85711
-2.58567
-2.30868
-2.04177
-1.79335
-1.57295
-1.38055
-1.21344
-1.06182
-0.918668
-0.771634
-0.622034
-0.472204
-3.57787
-3.68049
-3.68256
-3.59841
-3.44482
-3.23895
-2.99927
-2.74135
-2.48005
-2.22896
-1.99554
-1.7897
-1.61349
-1.46777
-1.34567
-1.24204
-1.13892
-1.02747
-0.896231
-3.85314
-3.90333
-3.86062
-3.74386
-3.57017
-3.35535
-3.11482
-2.86159
-2.60783
-2.36442
-2.13814
-1.93728
-1.76497
-1.62432
-1.51431
-1.43657
-1.38294
-1.34738
-1.31801
-4.16054
-4.14166
-4.04404
-3.88732
-3.6869
-3.4567
-3.20919
-2.95548
-2.70562
-2.46818
-2.24973
-2.05637
-1.89101
-1.75576
-1.6509
-1.57714
-1.53271
-1.51751
-1.53044
-4.49745
-4.3969
-4.24214
-4.0459
-3.81933
-3.57338
-3.31803
-3.06258
-2.81553
-2.58395
-2.37383
-2.18988
-2.03429
-1.90798
-1.81021
-1.7387
-1.6895
-1.65822
-1.63968
-4.7988
-4.62469
-4.41865
-4.18657
-3.93586
-3.67473
-3.41119
-3.15281
-2.90674
-2.67882
-2.47406
-2.29628
-2.14689
-2.02617
-1.9329
-1.86455
-1.81724
-1.78699
-1.76914
-5.03597
-4.81204
-4.56806
-4.30838
-4.03874
-3.76565
-3.49567
-3.23506
-2.9899
-2.76504
-2.56477
-2.39223
-2.24835
-2.13301
-2.04483
-1.98113
-1.93808
-1.91172
-1.89749
-5.22215
-4.96045
-4.68752
-4.40669
-4.12252
-3.84027
-3.56536
-3.30305
-3.0586
-2.83612
-2.63938
-2.47103
-2.33165
-2.22084
-2.13711
-2.07763
-2.0386
-2.01604
-2.00544
-5.35688
-5.06711
-4.77253
-4.47625
-4.18172
-3.89306
-3.61478
-3.35138
-3.10751
-2.88679
-2.69263
-2.52734
-2.39128
-2.28385
-2.20349
-2.1472
-2.11115
-2.09129
-2.08306
-5.44674
-5.12854
-4.81788
-4.51195
-4.21156
-3.91953
-3.63961
-3.37579
-3.13239
-2.91274
-2.72006
-2.55652
-2.42235
-2.3169
-2.23857
-2.18434
-2.15043
-2.13277
-2.12679
-5.44676
-5.12859
-4.81794
-4.51201
-4.21163
-3.9196
-3.63969
-3.37587
-3.13247
-2.91282
-2.72015
-2.55661
-2.42245
-2.317
-2.23868
-2.18446
-2.15055
-2.13289
-2.12692
-5.35692
-5.06721
-4.77266
-4.47641
-4.1819
-3.89325
-3.61499
-3.3516
-3.10775
-2.88704
-2.69288
-2.5276
-2.39155
-2.28415
-2.2038
-2.14753
-2.11151
-2.09168
-2.08349
-5.22221
-4.96059
-4.68773
-4.40694
-4.12281
-3.84058
-3.5657
-3.30341
-3.05898
-2.83652
-2.6398
-2.47146
-2.3321
-2.22131
-2.13761
-2.07816
-2.03917
-2.01666
-2.0061
-5.03605
-4.81222
-4.56833
-4.3087
-4.0391
-3.76605
-3.49611
-3.23553
-2.99039
-2.76555
-2.5653
-2.39279
-2.24893
-2.13361
-2.04546
-1.98179
-1.93878
-1.91247
-1.89828
-4.79888
-4.6249
-4.41896
-4.18694
-3.93629
-3.67521
-3.41171
-3.15336
-2.90732
-2.67943
-2.4747
-2.29694
-2.14758
-2.02688
-1.93364
-1.86533
-1.81805
-1.78784
-1.77004
-4.49755
-4.39713
-4.24247
-4.04632
-3.81981
-3.57392
-3.31861
-3.0632
-2.81619
-2.58464
-2.37455
-2.19062
-2.03505
-1.90876
-1.81101
-1.73951
-1.69033
-1.65906
-1.64054
-4.16065
-4.14193
-4.04445
-3.88786
-3.68756
-3.45746
-3.21005
-2.95641
-2.70663
-2.46924
-2.25086
-2.05756
-1.89227
-1.75708
-1.65228
-1.57854
-1.53408
-1.51872
-1.53131
-3.85321
-3.90337
-3.8607
-3.74401
-3.57039
-3.35565
-3.11518
-2.86202
-2.60829
-2.36489
-2.1386
-1.93769
-1.76529
-1.62452
-1.5144
-1.43658
-1.38306
-1.34793
-1.31953
-3.5779
-3.68067
-3.68291
-3.59895
-3.44557
-3.23991
-3.00043
-2.74269
-2.48154
-2.23056
-1.99721
-1.79143
-1.61527
-1.46963
-1.34771
-1.24439
-1.14178
-1.031
-0.900561
-3.32551
-3.47585
-3.51456
-3.45433
-3.3118
-3.10586
-2.85788
-2.58658
-2.3097
-2.04286
-1.79448
-1.5741
-1.38173
-1.21467
-1.06314
-0.920124
-0.773175
-0.623509
-0.473323
-3.10693
-3.29949
-3.37252
-3.3354
-3.20402
-2.99877
-2.74363
-2.46054
-2.1701
-1.88975
-1.62917
-1.39714
-1.19274
-1.01229
-0.848039
-0.696763
-0.555869
-0.433544
-0.337995
-2.91162
-3.1439
-3.24894
-3.23299
-3.11118
-2.90547
-2.64247
-2.3474
-2.04373
-1.75074
-1.47935
-1.23811
-1.02625
-0.840932
-0.677491
-0.535709
-0.415957
-0.322922
-0.255748
-2.72547
-3.00463
-3.14222
-3.14624
-3.03265
-2.82541
-2.55404
-2.24715
-1.93109
-1.62703
-1.34726
-1.10047
-0.886608
-0.703914
-0.549515
-0.423348
-0.32428
-0.252023
-0.201641
-2.58016
-2.89498
-3.0598
-3.07954
-2.97071
-2.75944
-2.4784
-2.15952
-1.83199
-1.51874
-1.23328
-0.98456
-0.773082
-0.597518
-0.455168
-0.344429
-0.261746
-0.203651
-0.163953
-2.47958
-2.81676
-2.99913
-3.02722
-2.91789
-2.69938
-2.40753
-2.07729
-1.74027
-1.42079
-1.13312
-0.886229
-0.680642
-0.51468
-0.384794
-0.287462
-0.217218
-0.16898
-0.13639
-2.4281
-2.77814
-2.96652
-2.99297
-2.87582
-2.64558
-2.34116
-1.99999
-1.65545
-1.33258
-1.0458
-0.803584
-0.605945
-0.450298
-0.331867
-0.245498
-0.18452
-0.143137
-0.115128
-2.43296
-2.77996
-2.96
-2.97309
-2.83982
-2.59314
-2.27471
-1.92356
-1.57399
-1.25087
-0.967978
-0.73287
-0.544532
-0.39924
-0.291042
-0.213611
-0.159604
-0.122911
-0.0973695
-2.4881
-2.81676
-2.97687
-2.96842
-2.81413
-2.54957
-2.21794
-1.85923
-1.50755
-1.18658
-0.909513
-0.682175
-0.502611
-0.366068
-0.265893
-0.194776
-0.145205
-0.110415
-0.0833031
-2.5639
-2.86411
-2.99595
-2.96327
-2.78974
-2.51229
-2.17315
-1.81198
-1.46149
-1.14367
-0.871631
-0.649567
-0.475483
-0.343869
-0.248004
-0.180098
-0.133522
-0.102324
-0.0820919
-2.65431
-2.92433
-3.03385
-2.98882
-2.81218
-2.53906
-2.20789
-1.85554
-1.51212
-1.19804
-0.926805
-0.702406
-0.523949
-0.386778
-0.285289
-0.212415
-0.163101
-0.133157
-0.121452
-2.75223
-2.99206
-3.07846
-3.01951
-2.83806
-2.56728
-2.24242
-1.89736
-1.55993
-1.24916
-0.978425
-0.751952
-0.56968
-0.427812
-0.321757
-0.245266
-0.194293
-0.165229
-0.156277
-2.85493
-3.06799
-3.13238
-3.06017
-2.87416
-2.60542
-2.28604
-1.94722
-1.6147
-1.30632
-1.03542
-0.806464
-0.62023
-0.473767
-0.363478
-0.28377
-0.231322
-0.202658
-0.195634
-2.96878
-3.15485
-3.19681
-3.11151
-2.92068
-2.65288
-2.33742
-2.00312
-1.67403
-1.36702
-1.0954
-0.863892
-0.673999
-0.523533
-0.409795
-0.32768
-0.274486
-0.246809
-0.242427
-3.10143
-3.25143
-3.2707
-3.17262
-2.9761
-2.70741
-2.39364
-2.06182
-1.73466
-1.4282
-1.15573
-0.92212
-0.729472
-0.576206
-0.460421
-0.377339
-0.324872
-0.299667
-0.299505
-3.22664
-3.34718
-3.34859
-3.23907
-3.03599
-2.76451
-2.45035
-2.11929
-1.79302
-1.48687
-1.21406
-0.97947
-0.785644
-0.631448
-0.515702
-0.433805
-0.384326
-0.363919
-0.37035
-3.34955
-3.45567
-3.44174
-3.31911
-3.10625
-2.82821
-2.51025
-2.17732
-1.85033
-1.54397
-1.27122
-1.03683
-0.843609
-0.690692
-0.577551
-0.499576
-0.45606
-0.443555
-0.45977
-3.49264
-3.57915
-3.54516
-3.40459
-3.17731
-2.88872
-2.56419
-2.22793
-1.9001
-1.5945
-1.32374
-1.09214
-0.902601
-0.754374
-0.64757
-0.577361
-0.543905
-0.543527
-0.573839
-3.65367
-3.71201
-3.65251
-3.48846
-3.2419
-2.93933
-2.60649
-2.26675
-1.93929
-1.63668
-1.37098
-1.14578
-0.963992
-0.82481
-0.729059
-0.671448
-0.653231
-0.670349
-0.720298
-3.82059
-3.85091
-3.76019
-3.56613
-3.2955
-2.97644
-2.6348
-2.29275
-1.96803
-1.67159
-1.41491
-1.20049
-1.03125
-0.906223
-0.827106
-0.787829
-0.791083
-0.832233
-0.908659
-4.00625
-4.0004
-3.86636
-3.63385
-3.33475
-2.99795
-2.64847
-2.30658
-1.98813
-1.70195
-1.45908
-1.26054
-1.10939
-1.00443
-0.948424
-0.934166
-0.966217
-1.03913
-1.15022
-4.22261
-4.14812
-3.95595
-3.67866
-3.34969
-2.99715
-2.64363
-2.30682
-2.00012
-1.72982
-1.50687
-1.33044
-1.20401
-1.12603
-1.10073
-1.11928
-1.18867
-1.30239
-1.45787
-4.40318
-4.25027
-3.9967
-3.67624
-3.32276
-2.96238
-2.61328
-2.29012
-2.00343
-1.75667
-1.56145
-1.41465
-1.32067
-1.27762
-1.29166
-1.35185
-1.4685
-1.63381
-1.84581
-4.55765
-4.32631
-4.00663
-3.64513
-3.27358
-2.91348
-2.57654
-2.27427
-2.01432
-1.79735
-1.6365
-1.52608
-1.47187
-1.47168
-1.53408
-1.64549
-1.82041
-2.04966
-2.33289
-4.69189
-4.34458
-3.95598
-3.56469
-3.1892
-2.8429
-2.52951
-2.25804
-2.03363
-1.85439
-1.73611
-1.6702
-1.66453
-1.71661
-1.83808
-2.01218
-2.25888
-2.56779
-2.94255
-4.69695
-4.23732
-3.80636
-3.41368
-3.0576
-2.74392
-2.46863
-2.24002
-2.0615
-1.9291
-1.86253
-1.85011
-1.90257
-2.01736
-2.21019
-2.46085
-2.79695
-3.20797
-3.70727
-4.53445
-4.01838
-3.58827
-3.2251
-2.9093
-2.64296
-2.41627
-2.23888
-2.11349
-2.03467
-2.02724
-2.07639
-2.19663
-2.38573
-2.66482
-3.01024
-3.46032
-4.00665
-4.6861
-4.15682
-3.66469
-3.28874
-2.98876
-2.73493
-2.5309
-2.36381
-2.2465
-2.18198
-2.16413
-2.22387
-2.34376
-2.54319
-2.82123
-3.20667
-3.67346
-4.27609
-5.01345
-5.98234
-3.55538
-3.18897
-2.91863
-2.70999
-2.53539
-2.40534
-2.30653
-2.25622
-2.25869
-2.30798
-2.44213
-2.64206
-2.93381
-3.31966
-3.84009
-4.46965
-5.28904
-6.31514
-7.80567
-2.77514
-2.61573
-2.4862
-2.38711
-2.30349
-2.25551
-2.23111
-2.25243
-2.32572
-2.44623
-2.66023
-2.9489
-3.34762
-3.86588
-4.56323
-5.42223
-6.56951
-8.06256
-10.6092
-1.91079
-1.97867
-1.99903
-2.01565
-2.02871
-2.06701
-2.12011
-2.21441
-2.3586
-2.5503
-2.84529
-3.22787
-3.74727
-4.42785
-5.36217
-6.55809
-8.22936
-10.5243
-15.4379
-1.07335
-1.31443
-1.46543
-1.59202
-1.70179
-1.82693
-1.95712
-2.12152
-2.33084
-2.5864
-2.95471
-3.42633
-4.07137
-4.9435
-6.19415
-7.89641
-10.4422
-14.1918
-24.8343
-0.353601
-0.653775
-0.893738
-1.11592
-1.31845
-1.52851
-1.73193
-1.95901
-2.21964
-2.52059
-2.93963
-3.4737
-4.22638
-5.31636
-7.03702
-9.74481
-14.6107
-23.6065
-55.7629
)
;

boundaryField
{
    up
    {
        type            calculated;
        value           nonuniform List<scalar> 
84
(
-50.5341
-27.3694
-16.7814
-11.4049
-8.32726
-6.3514
-4.96069
-3.91741
-3.10467
-2.45813
-1.9413
-1.52934
-1.20281
-0.946406
-0.74669
-0.591785
-0.471584
-0.377807
-0.303914
-0.244782
-0.196616
-0.156209
-0.119264
-0.0730808
-0.0703106
-0.090096
-0.107194
-0.126989
-0.152284
-0.186574
-0.234949
-0.304489
-0.419162
-0.875481
-1.34405
-1.54734
-1.63227
-1.76265
-1.89278
-2.0025
-2.08128
-2.12621
-2.12634
-2.08172
-2.00318
-1.89359
-1.76358
-1.63314
-1.54791
-1.34567
-0.880476
-0.420217
-0.305071
-0.235345
-0.18686
-0.152502
-0.127165
-0.107348
-0.0902633
-0.0704038
-0.0730162
-0.119266
-0.156213
-0.19662
-0.244787
-0.303919
-0.377812
-0.471588
-0.591787
-0.746689
-0.946401
-1.2028
-1.52933
-1.94129
-2.45813
-3.10468
-3.91743
-4.96071
-6.35143
-8.32728
-11.4049
-16.7814
-27.3693
-50.5341
)
;
    }
    low
    {
        type            calculated;
        value           nonuniform List<scalar> 
84
(
-0.379787
-1.12284
-2.01736
-2.95298
-3.7991
-4.44296
-4.82823
-4.96889
-4.90915
-4.70644
-4.51731
-4.30393
-4.04226
-3.83253
-3.65222
-3.47148
-3.31072
-3.18252
-3.04534
-2.88543
-2.7498
-2.62946
-2.51023
-2.39981
-2.29028
-2.21994
-2.2176
-2.29256
-2.42392
-2.60766
-2.82794
-3.04593
-3.28989
-3.57098
-3.86955
-4.20734
-4.58573
-4.91235
-5.16365
-5.36151
-5.50567
-5.60973
-5.60975
-5.50569
-5.36154
-5.16369
-4.91239
-4.58578
-4.20741
-3.86953
-3.57102
-3.28985
-3.04591
-2.82792
-2.60764
-2.42389
-2.29255
-2.21759
-2.21995
-2.29029
-2.39987
-2.51023
-2.62948
-2.74982
-2.88544
-3.04535
-3.18253
-3.31072
-3.47148
-3.65222
-3.83253
-4.04225
-4.30391
-4.51728
-4.70642
-4.90914
-4.96889
-4.82824
-4.44298
-3.79912
-2.953
-2.01738
-1.12285
-0.379791
)
;
    }
    left
    {
        type            calculated;
        value           nonuniform List<scalar> 
19
(
-0.34705
-0.642092
-0.887221
-1.11738
-1.32904
-1.54827
-1.76111
-1.99935
-2.273
-2.59324
-3.04131
-3.61736
-4.43894
-5.64806
-7.57366
-10.6529
-16.2486
-26.7132
-52.4105
)
;
    }
    right
    {
        type            calculated;
        value           nonuniform List<scalar> 
19
(
-0.347053
-0.642093
-0.88722
-1.11738
-1.32904
-1.54827
-1.76112
-1.99935
-2.273
-2.59324
-3.04131
-3.61735
-4.43893
-5.64805
-7.57364
-10.6529
-16.2486
-26.7132
-52.4105
)
;
    }
    frontAndBackPlanes
    {
        type            empty;
    }
}


// ************************************************************************* //
