/*--------------------------------*- C++ -*----------------------------------*\
  =========                 |
  \\      /  F ield         | OpenFOAM: The Open Source CFD Toolbox
   \\    /   O peration     | Website:  https://openfoam.org
    \\  /    A nd           | Version:  7
     \\/     M anipulation  |
\*---------------------------------------------------------------------------*/
FoamFile
{
    version     2.0;
    format      ascii;
    class       volScalarField;
    location    "0.29";
    object      gradTy;
}
// * * * * * * * * * * * * * * * * * * * * * * * * * * * * * * * * * * * * * //

dimensions      [0 -1 0 1 0 0 0];

internalField   nonuniform List<scalar> 
1596
(
-0.0810429
-0.150915
-0.208994
-0.26592
-0.322013
-0.384506
-0.450747
-0.529105
-0.623189
-0.735665
-0.889389
-1.08479
-1.35379
-1.73463
-2.32301
-3.23725
-4.86631
-7.8682
-18.5874
-0.247105
-0.305802
-0.347409
-0.38758
-0.428268
-0.477304
-0.532391
-0.601057
-0.686568
-0.789678
-0.929223
-1.10346
-1.33363
-1.63713
-2.06293
-2.63624
-3.48668
-4.73565
-8.28041
-0.442699
-0.463877
-0.479006
-0.498283
-0.521408
-0.554969
-0.596157
-0.651402
-0.723
-0.810375
-0.928782
-1.07438
-1.26168
-1.49872
-1.81506
-2.21497
-2.76875
-3.52777
-5.15806
-0.648274
-0.618228
-0.601323
-0.597134
-0.601278
-0.617957
-0.643573
-0.683219
-0.738233
-0.807179
-0.902313
-1.01867
-1.16635
-1.34857
-1.58393
-1.86865
-2.24389
-2.73109
-3.56737
-0.838586
-0.760083
-0.711695
-0.683991
-0.669036
-0.668434
-0.67794
-0.701258
-0.738975
-0.7892
-0.861723
-0.951352
-1.06524
-1.20426
-1.38061
-1.58792
-1.85185
-2.18038
-2.66063
-0.990583
-0.880901
-0.807661
-0.75923
-0.726593
-0.709426
-0.703297
-0.710661
-0.731609
-0.764116
-0.815947
-0.882248
-0.968175
-1.0735
-1.20649
-1.36047
-1.55216
-1.78337
-2.08754
-1.09147
-0.973919
-0.886773
-0.823011
-0.775652
-0.74372
-0.72326
-0.7158
-0.721207
-0.737562
-0.770975
-0.817237
-0.880102
-0.958884
-1.05931
-1.17526
-1.31794
-1.48642
-1.69399
-1.14069
-1.0349
-0.946048
-0.874153
-0.816407
-0.772534
-0.739776
-0.719189
-0.710693
-0.712673
-0.729922
-0.759011
-0.802694
-0.860155
-0.935425
-1.02321
-1.13115
-1.25718
-1.40653
-1.14749
-1.06817
-0.988237
-0.915387
-0.851873
-0.799186
-0.75632
-0.724374
-0.70359
-0.692808
-0.695845
-0.710062
-0.737512
-0.777411
-0.832619
-0.898664
-0.980765
-1.07648
-1.18757
-1.11979
-1.06927
-1.00542
-0.93865
-0.874871
-0.817609
-0.767803
-0.727068
-0.696194
-0.674608
-0.665501
-0.666987
-0.680684
-0.705942
-0.744859
-0.793726
-0.856163
-0.929716
-1.01456
-1.084
-1.05427
-1.00683
-0.949543
-0.88928
-0.830846
-0.77685
-0.729622
-0.690642
-0.660003
-0.64056
-0.631132
-0.633094
-0.645975
-0.671373
-0.706227
-0.753064
-0.809562
-0.875153
-1.03874
-1.0305
-0.999206
-0.952706
-0.898113
-0.840859
-0.784769
-0.732889
-0.687416
-0.649141
-0.620807
-0.60189
-0.593663
-0.59587
-0.60979
-0.632912
-0.66701
-0.709959
-0.760865
-0.982024
-0.993052
-0.977687
-0.943034
-0.895996
-0.842259
-0.786383
-0.732034
-0.682049
-0.637883
-0.60235
-0.575521
-0.558701
-0.551878
-0.556172
-0.569556
-0.593325
-0.625582
-0.665288
-0.93094
-0.953193
-0.950542
-0.926848
-0.887712
-0.838574
-0.78427
-0.728913
-0.675859
-0.627142
-0.58576
-0.552304
-0.528199
-0.513681
-0.509816
-0.514984
-0.530179
-0.553725
-0.584558
-0.883139
-0.914266
-0.921515
-0.907201
-0.875515
-0.831289
-0.779303
-0.723908
-0.668843
-0.616632
-0.570492
-0.531478
-0.501179
-0.480082
-0.469263
-0.467461
-0.475483
-0.491868
-0.515587
-0.836025
-0.875494
-0.891139
-0.884882
-0.85997
-0.820617
-0.771352
-0.71661
-0.660382
-0.605575
-0.555635
-0.51202
-0.476504
-0.449819
-0.4331
-0.425402
-0.427435
-0.437936
-0.45594
-0.793042
-0.838166
-0.860634
-0.8612
-0.842247
-0.807433
-0.760966
-0.707262
-0.650461
-0.593761
-0.540813
-0.493415
-0.453532
-0.422119
-0.400402
-0.387717
-0.384742
-0.390397
-0.403786
-0.755121
-0.804049
-0.83187
-0.838089
-0.824235
-0.793421
-0.749551
-0.696959
-0.639874
-0.581722
-0.526318
-0.475755
-0.432163
-0.396699
-0.370683
-0.353716
-0.346491
-0.348106
-0.357734
-0.71727
-0.77283
-0.806144
-0.817492
-0.808142
-0.78082
-0.739213
-0.687576
-0.630216
-0.570759
-0.513161
-0.459774
-0.412868
-0.37377
-0.343888
-0.323061
-0.312055
-0.310168
-0.31666
-0.678606
-0.741593
-0.780953
-0.797436
-0.792363
-0.768306
-0.728827
-0.678148
-0.620648
-0.560131
-0.500682
-0.444873
-0.395091
-0.352783
-0.319418
-0.295034
-0.280537
-0.275506
-0.279369
-0.64551
-0.713317
-0.758193
-0.779585
-0.778513
-0.757426
-0.719831
-0.669966
-0.612298
-0.550802
-0.489688
-0.431717
-0.379368
-0.334154
-0.297536
-0.269655
-0.251577
-0.243309
-0.244716
-0.616336
-0.688559
-0.738433
-0.76445
-0.767154
-0.748817
-0.712918
-0.663744
-0.605871
-0.543444
-0.480789
-0.420848
-0.366177
-0.318314
-0.278619
-0.247145
-0.224972
-0.212615
-0.211031
-0.589723
-0.666953
-0.721751
-0.752195
-0.758481
-0.742721
-0.708387
-0.659843
-0.601781
-0.538501
-0.474439
-0.412703
-0.355938
-0.305708
-0.263213
-0.228158
-0.201148
-0.182613
-0.175438
-0.566357
-0.648689
-0.708062
-0.742227
-0.75125
-0.737114
-0.703485
-0.654777
-0.595875
-0.5313
-0.465383
-0.401619
-0.342695
-0.290284
-0.245382
-0.207391
-0.175623
-0.148528
-0.125157
-0.547738
-0.634821
-0.699481
-0.739028
-0.753519
-0.744608
-0.715934
-0.671573
-0.616216
-0.554374
-0.489849
-0.426444
-0.366742
-0.312884
-0.266005
-0.226032
-0.191557
-0.16008
-0.12723
-0.535159
-0.625017
-0.692434
-0.735212
-0.75342
-0.748541
-0.724028
-0.683653
-0.631784
-0.572714
-0.5097
-0.446525
-0.385725
-0.329769
-0.280262
-0.238179
-0.202757
-0.172825
-0.145868
-0.535441
-0.625898
-0.694348
-0.738885
-0.759579
-0.757969
-0.737265
-0.701063
-0.653373
-0.598074
-0.538009
-0.476438
-0.415655
-0.358216
-0.306248
-0.261494
-0.224018
-0.193252
-0.16718
-0.550072
-0.638809
-0.705977
-0.75004
-0.771207
-0.771183
-0.753043
-0.720261
-0.676531
-0.625311
-0.568952
-0.510029
-0.450274
-0.391978
-0.337577
-0.289614
-0.249141
-0.216295
-0.189382
-0.577726
-0.663487
-0.727395
-0.769003
-0.788877
-0.788955
-0.772267
-0.742189
-0.70215
-0.655244
-0.60332
-0.548215
-0.490807
-0.43267
-0.376093
-0.324332
-0.279675
-0.243393
-0.214242
-0.61784
-0.698053
-0.756712
-0.794191
-0.811362
-0.810387
-0.794301
-0.766387
-0.729854
-0.687529
-0.64084
-0.590997
-0.537863
-0.481807
-0.424189
-0.368459
-0.31822
-0.276668
-0.243633
-0.670041
-0.742102
-0.79416
-0.826347
-0.8398
-0.836901
-0.820732
-0.794468
-0.761139
-0.723426
-0.682507
-0.639275
-0.592727
-0.541766
-0.485807
-0.427222
-0.370065
-0.320286
-0.280472
-0.727473
-0.792526
-0.837584
-0.86374
-0.872774
-0.867353
-0.850609
-0.825572
-0.795102
-0.761827
-0.726872
-0.69129
-0.6538
-0.61225
-0.56351
-0.50706
-0.444374
-0.38273
-0.330256
-0.79376
-0.850507
-0.887345
-0.906466
-0.910304
-0.901742
-0.883887
-0.859539
-0.831332
-0.801842
-0.772232
-0.744136
-0.716881
-0.688666
-0.654906
-0.612023
-0.554847
-0.484979
-0.40572
-0.871815
-0.917999
-0.945308
-0.956704
-0.955104
-0.943487
-0.924752
-0.901396
-0.875735
-0.850165
-0.825965
-0.805279
-0.788714
-0.776536
-0.766075
-0.754923
-0.734964
-0.701264
-0.648283
-0.959593
-0.993105
-1.00821
-1.0093
-0.999708
-0.982391
-0.9598
-0.934073
-0.907065
-0.880548
-0.855746
-0.83428
-0.817217
-0.805901
-0.800823
-0.803635
-0.81262
-0.825923
-0.839526
-1.05963
-1.07544
-1.07551
-1.06469
-1.04608
-1.02236
-0.995392
-0.967006
-0.938656
-0.911561
-0.886964
-0.865754
-0.848782
-0.836738
-0.830333
-0.830337
-0.837778
-0.853787
-0.879934
-1.17072
-1.16419
-1.14808
-1.12553
-1.09859
-1.0692
-1.03868
-1.00842
-0.979519
-0.952838
-0.929398
-0.909651
-0.894059
-0.882703
-0.875571
-0.871902
-0.871236
-0.872371
-0.874399
-1.27443
-1.24598
-1.21422
-1.18027
-1.14512
-1.10989
-1.0754
-1.04254
-1.01206
-0.984502
-0.960514
-0.940314
-0.924044
-0.911555
-0.902628
-0.896582
-0.892981
-0.891057
-0.890232
-1.36065
-1.3156
-1.27118
-1.22775
-1.18567
-1.14546
-1.10754
-1.07238
-1.04042
-1.01197
-0.987409
-0.966822
-0.950186
-0.937286
-0.927854
-0.921312
-0.917214
-0.914921
-0.91387
-1.43033
-1.37181
-1.31716
-1.26608
-1.21842
-1.17421
-1.1335
-1.09645
-1.06326
-1.03405
-1.00902
-0.988174
-0.971396
-0.958433
-0.94898
-0.942512
-0.938546
-0.936494
-0.935789
-1.48119
-1.4124
-1.34997
-1.29321
-1.24151
-1.19443
-1.15175
-1.11338
-1.07933
-1.04962
-1.02431
-1.00337
-0.986619
-0.973772
-0.964491
-0.95826
-0.95454
-0.952738
-0.952251
-1.51339
-1.43533
-1.36747
-1.30729
-1.25333
-1.20475
-1.16106
-1.12202
-1.08756
-1.05762
-1.0322
-1.01127
-0.994591
-0.981899
-0.972844
-0.966935
-0.963622
-0.962325
-0.962428
-1.5134
-1.43534
-1.36749
-1.30731
-1.25335
-1.20477
-1.16108
-1.12204
-1.08758
-1.05764
-1.03222
-1.01129
-0.994613
-0.981922
-0.972868
-0.96696
-0.963647
-0.962351
-0.962454
-1.4812
-1.41243
-1.35001
-1.29326
-1.24155
-1.19448
-1.15181
-1.11343
-1.07939
-1.04968
-1.02437
-1.00343
-0.986682
-0.973838
-0.964561
-0.958335
-0.954621
-0.952826
-0.952348
-1.43035
-1.37185
-1.31722
-1.26615
-1.2185
-1.17429
-1.13359
-1.09654
-1.06335
-1.03414
-1.00911
-0.988272
-0.971498
-0.958539
-0.949092
-0.94263
-0.938672
-0.936628
-0.935932
-1.36067
-1.31566
-1.27126
-1.22784
-1.18577
-1.14557
-1.10765
-1.07249
-1.04054
-1.01209
-0.987531
-0.966947
-0.950313
-0.937416
-0.927987
-0.921448
-0.917355
-0.915066
-0.91402
-1.27446
-1.24605
-1.21431
-1.18038
-1.14524
-1.11002
-1.07553
-1.04268
-1.0122
-0.984646
-0.960661
-0.940463
-0.924195
-0.911707
-0.90278
-0.896735
-0.893133
-0.891209
-0.890384
-1.17076
-1.16426
-1.14818
-1.12564
-1.09872
-1.06933
-1.03882
-1.00857
-0.979676
-0.953
-0.929564
-0.909819
-0.894227
-0.882867
-0.875725
-0.872043
-0.871357
-0.87247
-0.874474
-1.05967
-1.07552
-1.07563
-1.06484
-1.04626
-1.02256
-0.995616
-0.967252
-0.938927
-0.911856
-0.887287
-0.866107
-0.849166
-0.837152
-0.830772
-0.830774
-0.838167
-0.854043
-0.879935
-0.959616
-0.993121
-1.00823
-1.00932
-0.999729
-0.982411
-0.959815
-0.934079
-0.907056
-0.880517
-0.855684
-0.834173
-0.817046
-0.805647
-0.80048
-0.803216
-0.812216
-0.825718
-0.839814
-0.871826
-0.91804
-0.945378
-0.956808
-0.955246
-0.943667
-0.924972
-0.901654
-0.876032
-0.850499
-0.826338
-0.805696
-0.78919
-0.777104
-0.766797
-0.755893
-0.736303
-0.703074
-0.650625
-0.793765
-0.850514
-0.887364
-0.906506
-0.910367
-0.90183
-0.884002
-0.859679
-0.831498
-0.802032
-0.77245
-0.74439
-0.717189
-0.689056
-0.65541
-0.612661
-0.55559
-0.485725
-0.406275
-0.727475
-0.792527
-0.837596
-0.863771
-0.87283
-0.867436
-0.850722
-0.825714
-0.795273
-0.762029
-0.72711
-0.691571
-0.654138
-0.612659
-0.56399
-0.507587
-0.444893
-0.383178
-0.330612
-0.670041
-0.742097
-0.794162
-0.826366
-0.839843
-0.836972
-0.820833
-0.7946
-0.761302
-0.723623
-0.68274
-0.63955
-0.59305
-0.542134
-0.486205
-0.42762
-0.370427
-0.320593
-0.280729
-0.617839
-0.698045
-0.756708
-0.794201
-0.811395
-0.810447
-0.794392
-0.766509
-0.730008
-0.687716
-0.641061
-0.591254
-0.538154
-0.482122
-0.424509
-0.368762
-0.318489
-0.2769
-0.243836
-0.577723
-0.663475
-0.727385
-0.769005
-0.7889
-0.789005
-0.772346
-0.7423
-0.702292
-0.655418
-0.603524
-0.548447
-0.491061
-0.432933
-0.376351
-0.32457
-0.279886
-0.24358
-0.214413
-0.55007
-0.638796
-0.705965
-0.750038
-0.771224
-0.771225
-0.753113
-0.720361
-0.67666
-0.625468
-0.569135
-0.510232
-0.450491
-0.392197
-0.337786
-0.289806
-0.249314
-0.216454
-0.189536
-0.535437
-0.625885
-0.694334
-0.738879
-0.75959
-0.758003
-0.737325
-0.701151
-0.653488
-0.598214
-0.53817
-0.476614
-0.415839
-0.358398
-0.30642
-0.261652
-0.224164
-0.193393
-0.167329
-0.535155
-0.625002
-0.692415
-0.735197
-0.753416
-0.748553
-0.72406
-0.683705
-0.631855
-0.572804
-0.509804
-0.446638
-0.385839
-0.329879
-0.280363
-0.23827
-0.202844
-0.172923
-0.146006
-0.547752
-0.63483
-0.699491
-0.739043
-0.753543
-0.744644
-0.715985
-0.671639
-0.616299
-0.554472
-0.48996
-0.426565
-0.36687
-0.313015
-0.266134
-0.22616
-0.191678
-0.160192
-0.127324
-0.566372
-0.648703
-0.708073
-0.742231
-0.751247
-0.737102
-0.703463
-0.654747
-0.595837
-0.531257
-0.465336
-0.40157
-0.342646
-0.290235
-0.245332
-0.20734
-0.175569
-0.148468
-0.125086
-0.589733
-0.666962
-0.72176
-0.752202
-0.758487
-0.742725
-0.708389
-0.659843
-0.60178
-0.538499
-0.474438
-0.412702
-0.355937
-0.305708
-0.263214
-0.22816
-0.201152
-0.182619
-0.175446
-0.616344
-0.688565
-0.738439
-0.764453
-0.767155
-0.748816
-0.712915
-0.663739
-0.605865
-0.543438
-0.480784
-0.420844
-0.366174
-0.318312
-0.278618
-0.247146
-0.224974
-0.212619
-0.211035
-0.645516
-0.713323
-0.758197
-0.779587
-0.778513
-0.757425
-0.719828
-0.669961
-0.612293
-0.550798
-0.489684
-0.431714
-0.379366
-0.334153
-0.297536
-0.269656
-0.251579
-0.243312
-0.244719
-0.678611
-0.741597
-0.780956
-0.797437
-0.792363
-0.768304
-0.728824
-0.678145
-0.620644
-0.560127
-0.500679
-0.444871
-0.39509
-0.352783
-0.319419
-0.295036
-0.280539
-0.275508
-0.279371
-0.717274
-0.772833
-0.806146
-0.817492
-0.808141
-0.780818
-0.73921
-0.687574
-0.630214
-0.570757
-0.51316
-0.459773
-0.412868
-0.37377
-0.343889
-0.323062
-0.312056
-0.310169
-0.316661
-0.755124
-0.804051
-0.831871
-0.838088
-0.824234
-0.79342
-0.749549
-0.696957
-0.639872
-0.58172
-0.526317
-0.475755
-0.432163
-0.396699
-0.370684
-0.353716
-0.346491
-0.348106
-0.357735
-0.793044
-0.838167
-0.860634
-0.8612
-0.842246
-0.807432
-0.760965
-0.707261
-0.650459
-0.59376
-0.540812
-0.493415
-0.453532
-0.422119
-0.400402
-0.387717
-0.384742
-0.390397
-0.403786
-0.836026
-0.875495
-0.891138
-0.884881
-0.859969
-0.820616
-0.771351
-0.716609
-0.660381
-0.605575
-0.555635
-0.512019
-0.476504
-0.449819
-0.4331
-0.425402
-0.427434
-0.437935
-0.455939
-0.883138
-0.914266
-0.921514
-0.9072
-0.875514
-0.831289
-0.779302
-0.723907
-0.668843
-0.616632
-0.570491
-0.531478
-0.501179
-0.480082
-0.469263
-0.46746
-0.475481
-0.491866
-0.515586
-0.930939
-0.953192
-0.950542
-0.926847
-0.887712
-0.838574
-0.78427
-0.728913
-0.675859
-0.627142
-0.58576
-0.552304
-0.528199
-0.513681
-0.509815
-0.514983
-0.530177
-0.553723
-0.584556
-0.982022
-0.993052
-0.977687
-0.943035
-0.895997
-0.84226
-0.786384
-0.732034
-0.682049
-0.637883
-0.60235
-0.57552
-0.558701
-0.551878
-0.556171
-0.569555
-0.593323
-0.625579
-0.665286
-1.03874
-1.0305
-0.999206
-0.952706
-0.898114
-0.84086
-0.784769
-0.732889
-0.687416
-0.64914
-0.620806
-0.60189
-0.593662
-0.595869
-0.609789
-0.63291
-0.667007
-0.709957
-0.760863
-1.084
-1.05427
-1.00683
-0.949544
-0.889281
-0.830847
-0.776851
-0.729622
-0.690642
-0.660003
-0.64056
-0.631132
-0.633093
-0.645974
-0.671372
-0.706225
-0.753062
-0.80956
-0.875152
-1.11979
-1.06927
-1.00542
-0.938652
-0.874873
-0.81761
-0.767804
-0.727068
-0.696195
-0.674608
-0.665501
-0.666986
-0.680683
-0.705941
-0.744858
-0.793724
-0.856161
-0.929714
-1.01456
-1.14749
-1.06818
-0.98824
-0.915389
-0.851875
-0.799187
-0.756321
-0.724375
-0.70359
-0.692808
-0.695845
-0.710062
-0.737511
-0.77741
-0.832617
-0.898662
-0.980764
-1.07648
-1.18757
-1.14069
-1.03491
-0.946051
-0.874155
-0.816408
-0.772535
-0.739777
-0.719189
-0.710693
-0.712673
-0.729922
-0.75901
-0.802692
-0.860154
-0.935424
-1.02321
-1.13115
-1.25718
-1.40653
-1.09148
-0.973922
-0.886775
-0.823012
-0.775653
-0.743721
-0.723261
-0.715801
-0.721207
-0.737562
-0.770974
-0.817237
-0.880101
-0.958882
-1.05931
-1.17526
-1.31794
-1.48643
-1.69399
-0.990588
-0.880904
-0.807664
-0.759231
-0.726594
-0.709427
-0.703298
-0.710661
-0.731609
-0.764116
-0.815946
-0.882247
-0.968174
-1.0735
-1.20649
-1.36047
-1.55216
-1.78337
-2.08754
-0.83859
-0.760086
-0.711697
-0.683993
-0.669037
-0.668435
-0.677941
-0.701259
-0.738975
-0.7892
-0.861723
-0.951351
-1.06524
-1.20426
-1.38061
-1.58792
-1.85185
-2.18038
-2.66063
-0.648279
-0.61823
-0.601325
-0.597136
-0.601279
-0.617958
-0.643574
-0.683219
-0.738233
-0.807179
-0.902313
-1.01867
-1.16635
-1.34856
-1.58393
-1.86865
-2.24389
-2.73109
-3.56737
-0.442702
-0.463879
-0.479008
-0.498285
-0.521409
-0.55497
-0.596158
-0.651402
-0.723
-0.810375
-0.928782
-1.07438
-1.26168
-1.49871
-1.81505
-2.21497
-2.76875
-3.52777
-5.15806
-0.247107
-0.305802
-0.347409
-0.387581
-0.428269
-0.477305
-0.532392
-0.601057
-0.686568
-0.789678
-0.929223
-1.10346
-1.33363
-1.63713
-2.06293
-2.63624
-3.48668
-4.73565
-8.28041
-0.0810433
-0.150915
-0.208994
-0.26592
-0.322013
-0.384506
-0.450747
-0.529105
-0.623189
-0.735664
-0.889389
-1.08479
-1.35379
-1.73463
-2.32301
-3.23725
-4.86631
-7.8682
-18.5874
)
;

boundaryField
{
    up
    {
        type            calculated;
        value           nonuniform List<scalar> 
84
(
-16.8437
-9.12241
-5.60028
-3.82462
-2.82484
-2.20023
-1.77552
-1.4678
-1.23465
-1.05153
-0.904405
-0.784099
-0.683894
-0.599448
-0.52748
-0.465421
-0.411315
-0.363677
-0.321305
-0.282992
-0.247502
-0.212853
-0.174106
-0.112631
-0.109299
-0.137939
-0.159658
-0.181484
-0.205531
-0.233605
-0.267954
-0.311348
-0.376583
-0.64614
-0.86675
-0.896587
-0.874365
-0.88955
-0.913318
-0.935554
-0.952213
-0.962764
-0.96279
-0.952315
-0.935702
-0.91347
-0.889704
-0.874434
-0.896379
-0.867071
-0.648891
-0.377098
-0.311661
-0.268196
-0.233802
-0.2057
-0.181638
-0.15981
-0.138131
-0.109424
-0.112556
-0.174115
-0.212857
-0.247505
-0.282994
-0.321306
-0.363678
-0.411315
-0.46542
-0.527479
-0.599447
-0.683893
-0.784099
-0.904405
-1.05153
-1.23465
-1.4678
-1.77552
-2.20024
-2.82485
-3.82462
-5.60028
-9.12241
-16.8437
)
;
    }
    low
    {
        type            calculated;
        value           nonuniform List<scalar> 
84
(
-0.0868952
-0.257931
-0.466357
-0.688371
-0.894377
-1.05708
-1.16073
-1.20558
-1.19959
-1.15516
-1.11038
-1.05631
-0.987638
-0.929864
-0.878159
-0.825868
-0.778439
-0.739227
-0.698803
-0.654265
-0.616728
-0.584205
-0.553484
-0.526261
-0.500705
-0.485164
-0.486022
-0.505497
-0.539393
-0.587474
-0.646734
-0.708854
-0.780767
-0.865584
-0.959086
-1.06696
-1.18917
-1.3003
-1.39129
-1.46509
-1.51928
-1.55582
-1.55583
-1.51929
-1.4651
-1.3913
-1.30032
-1.18919
-1.06698
-0.959082
-0.865597
-0.780762
-0.708853
-0.646732
-0.587473
-0.539392
-0.505499
-0.486025
-0.48517
-0.500714
-0.52628
-0.55349
-0.584213
-0.616735
-0.654269
-0.698807
-0.73923
-0.778441
-0.825868
-0.878158
-0.929862
-0.987637
-1.05631
-1.11037
-1.15516
-1.19959
-1.20558
-1.16074
-1.05709
-0.894383
-0.688376
-0.466361
-0.257933
-0.0868958
)
;
    }
    left
    {
        type            calculated;
        value           nonuniform List<scalar> 
19
(
-0.0794757
-0.148026
-0.207161
-0.265854
-0.324141
-0.389053
-0.458121
-0.540163
-0.638956
-0.758508
-0.922804
-1.13339
-1.42657
-1.8481
-2.50542
-3.54354
-5.41533
-8.90576
-17.4707
)
;
    }
    right
    {
        type            calculated;
        value           nonuniform List<scalar> 
19
(
-0.0794762
-0.148026
-0.207162
-0.265855
-0.324142
-0.389053
-0.458121
-0.540163
-0.638956
-0.758507
-0.922803
-1.13339
-1.42657
-1.8481
-2.50542
-3.54354
-5.41533
-8.90576
-17.4707
)
;
    }
    frontAndBackPlanes
    {
        type            empty;
    }
}


// ************************************************************************* //
