/*--------------------------------*- C++ -*----------------------------------*\
  =========                 |
  \\      /  F ield         | OpenFOAM: The Open Source CFD Toolbox
   \\    /   O peration     | Website:  https://openfoam.org
    \\  /    A nd           | Version:  7
     \\/     M anipulation  |
\*---------------------------------------------------------------------------*/
FoamFile
{
    version     2.0;
    format      ascii;
    class       volScalarField;
    location    "0.11";
    object      gradTz;
}
// * * * * * * * * * * * * * * * * * * * * * * * * * * * * * * * * * * * * * //

dimensions      [0 -1 0 1 0 0 0];

internalField   nonuniform List<scalar> 
1596
(
-1.12932e-15
-5.40439e-16
5.58703e-16
2.08005e-17
-1.03969e-15
0
-4.70621e-16
-4.64275e-16
-4.36895e-17
-2.51462e-16
-1.4457e-18
-2.52506e-16
1.12922e-15
-2.52419e-16
1.17377e-15
1.01732e-15
6.0635e-16
7.69223e-16
0
1.11843e-15
0
1.51591e-15
-1.71054e-17
-4.40871e-16
4.35043e-16
9.3048e-16
4.24056e-17
4.34229e-16
-2.12047e-16
4.25223e-16
-4.14284e-18
-5.93145e-16
-3.74066e-16
-9.47676e-16
-9.2932e-16
-8.48581e-16
4.85441e-16
0
-5.34872e-16
0
-9.59992e-16
2.68811e-17
8.28931e-16
-2.56983e-16
3.14538e-17
-5.48695e-18
-4.51836e-18
-4.07087e-18
1.40043e-16
0
3.07332e-16
8.61643e-16
-8.57165e-17
7.13909e-17
1.66589e-16
2.68595e-16
0
8.57904e-16
-2.38653e-16
2.37782e-16
0
-2.21944e-16
-2.36051e-16
3.64245e-16
-2.90359e-16
0
0
-1.39435e-16
7.34823e-17
0
-2.482e-16
-3.04798e-16
2.17055e-16
-2.39038e-16
-1.21971e-17
0
1.51899e-16
3.72005e-16
-3.08945e-16
0
-8.26675e-17
-2.56651e-16
0
3.65481e-16
-3.48917e-17
-3.16789e-17
-5.65887e-17
1.80472e-16
2.3307e-16
2.66664e-17
2.74494e-17
-2.3451e-16
1.16317e-17
1.0985e-16
-4.91974e-17
-3.94458e-17
-5.06918e-16
4.52981e-16
-3.64395e-16
-1.32572e-18
-2.82331e-16
7.6637e-18
-7.68914e-18
-1.98616e-16
0
-4.61422e-17
-2.1563e-16
-2.097e-16
1.58997e-16
1.92472e-16
-2.55334e-18
-1.15817e-16
-1.11419e-16
8.67281e-17
3.29655e-16
-5.13063e-16
5.30883e-16
2.76848e-16
0
2.19814e-16
1.17488e-16
-5.49522e-17
2.49263e-16
-4.46531e-17
-2.00086e-16
1.19744e-18
-1.10462e-16
-1.59552e-16
-1.15949e-16
1.05043e-16
1.16837e-16
-1.60373e-18
-3.52905e-17
5.07415e-17
8.25298e-16
-8.9176e-16
0
0
-2.51891e-16
0
0
0
1.32804e-16
0
0
1.03557e-16
2.30527e-18
4.22074e-17
-9.31858e-17
0
4.9565e-17
2.1195e-17
0
-5.13343e-16
9.6782e-16
0
0
2.59413e-16
0
-7.92986e-17
7.92184e-17
-1.35176e-16
5.18366e-17
-5.22157e-17
0
7.41595e-17
8.93032e-17
0
-5.11215e-17
-5.05662e-17
-1.87883e-17
1.3675e-15
-6.22134e-16
0
-3.49605e-16
3.45693e-16
0
1.97842e-16
0
0
0
4.28524e-17
-4.30579e-17
0
-5.82348e-17
-1.54211e-17
0
1.24664e-17
2.70112e-17
0
-3.47525e-16
0
0
3.53053e-16
-6.29508e-16
5.5977e-17
2.25787e-17
-6.89144e-17
1.38648e-17
5.12665e-18
-4.39736e-17
-6.1262e-17
0
4.41884e-17
-1.00796e-17
1.02309e-17
3.32658e-17
-2.18238e-17
-9.21904e-18
2.53571e-16
-4.77193e-17
2.4544e-16
7.57327e-16
-6.9389e-17
-2.80571e-16
0
0
0
9.24965e-17
3.14383e-17
1.07174e-16
-2.54659e-17
-4.33979e-17
-2.18498e-17
-1.38336e-17
6.36308e-18
-1.45536e-17
8.62064e-18
-3.02968e-16
2.98493e-16
-5.31405e-16
-7.50126e-16
6.64585e-16
2.18533e-16
-3.82559e-16
2.92086e-16
-2.2142e-16
5.87144e-17
3.6042e-17
-2.99137e-17
1.38985e-17
-1.37749e-17
4.2453e-17
0
-3.3919e-18
2.66272e-17
-4.05161e-18
-2.07331e-15
9.1911e-16
6.08288e-19
-1.56501e-16
3.71792e-17
2.12901e-16
-3.92106e-16
-1.37035e-16
1.01636e-16
-7.45089e-17
-5.47908e-17
0
-5.03293e-17
-1.41199e-17
-2.19599e-17
-1.26483e-17
9.71268e-19
-1.3906e-17
1.06715e-18
3.38728e-16
-2.85122e-16
-1.01042e-21
-1.89735e-16
-4.17749e-16
3.80276e-16
2.11423e-18
1.3354e-16
-9.89563e-17
1.41885e-16
3.09902e-17
2.21549e-17
5.51243e-17
0
3.78633e-17
1.69042e-17
0
6.69348e-18
7.33623e-19
0
2.76601e-16
1.86866e-16
-4.06705e-16
4.03351e-16
-5.64816e-16
3.65142e-16
1.09054e-16
-2.8766e-17
-1.45278e-16
2.00873e-17
-1.99882e-17
-4.76315e-17
1.59353e-17
-8.28514e-18
-1.54371e-17
5.75253e-18
-3.63506e-18
1.895e-18
-3.14827e-16
9.75313e-16
-7.35761e-16
3.48652e-16
0
0
-6.05604e-17
1.37333e-16
-7.29166e-17
1.30629e-16
0
0
3.04148e-17
-2.40582e-17
-1.36111e-17
4.29044e-18
-4.55991e-18
2.50214e-18
0
4.23222e-17
2.94755e-16
-2.07942e-16
-1.69102e-16
-2.3128e-16
-4.56962e-17
9.71149e-17
0
-6.66682e-17
-4.35135e-17
3.65878e-17
-2.49071e-17
1.68301e-17
0
5.54584e-18
8.62485e-18
0
0
0
-4.13063e-17
4.06496e-16
1.21588e-16
-5.14432e-16
1.22426e-16
9.51951e-17
0
0
6.07351e-17
-3.26614e-17
-3.53883e-17
2.40897e-17
-1.6276e-17
0
-2.81735e-18
1.9744e-18
0
-1.53685e-18
-5.47665e-19
-2.35569e-16
6.92352e-16
-7.90777e-16
-2.67122e-16
1.46176e-16
-8.58985e-17
6.26608e-17
0
-3.10657e-17
2.29181e-17
0
0
5.37122e-18
-5.37741e-18
1.138e-18
-1.85164e-18
2.04972e-18
4.25752e-19
4.18023e-19
1.29587e-16
-1.08721e-16
4.96564e-16
-3.14834e-16
-1.06447e-16
2.14065e-17
1.35265e-16
4.01618e-17
2.97252e-17
0
1.06537e-17
-9.64996e-18
6.32486e-18
-4.47246e-18
4.08143e-18
-6.27376e-18
-1.57361e-18
1.30141e-18
3.03983e-19
3.3082e-16
-3.43568e-16
0
2.32778e-16
-1.288e-16
-7.54514e-17
3.61508e-17
-1.28416e-16
0
-2.11823e-18
-1.39247e-17
-7.61428e-18
8.54259e-18
-1.08257e-18
-3.94463e-18
2.47224e-18
0
6.46276e-19
-2.95164e-19
6.06777e-16
-9.70259e-17
3.60416e-16
-2.79319e-16
1.15924e-16
-1.01028e-17
-1.16395e-16
-2.79301e-17
4.6334e-17
-3.02143e-18
-1.64689e-17
1.24195e-17
-4.79366e-18
-4.54838e-18
0
0
0
-6.50739e-19
2.25557e-20
-5.12178e-16
4.91257e-16
2.37676e-19
5.85093e-17
4.41232e-17
-8.63014e-17
9.11115e-17
-6.21864e-17
4.48099e-17
-1.03089e-17
1.88503e-17
4.8623e-18
-1.75127e-18
9.5184e-20
-3.1646e-19
-5.9089e-19
0
0
0
0
0
1.96604e-16
-1.2286e-16
-2.64592e-16
0
0
-1.7725e-17
-2.3063e-17
1.57303e-17
0
-6.13225e-18
3.81534e-18
-9.70943e-18
1.05793e-17
-2.58016e-18
2.72483e-18
2.56778e-19
0
-9.88768e-17
1.00094e-16
0
-6.32269e-17
6.21915e-17
8.58332e-17
0
1.78942e-17
1.50768e-17
-7.56366e-17
0
-7.27103e-18
4.5712e-18
2.5143e-18
-1.5423e-18
1.96625e-18
0
-5.76716e-19
0
-5.09559e-17
-4.70164e-17
2.77421e-18
6.4964e-17
-1.53586e-16
0
-2.93544e-17
0
5.61035e-17
1.79132e-17
0
2.86492e-17
-2.58505e-17
3.42505e-18
-2.85906e-18
1.73726e-18
3.78294e-18
1.16626e-18
-9.25219e-19
0
1.01637e-16
-7.79172e-17
9.47829e-17
9.59101e-17
0
5.80685e-17
-5.14264e-17
-3.07884e-17
3.58576e-17
-5.27232e-17
-1.92663e-17
0
0
2.1921e-18
0
0
4.46872e-19
0
-4.68447e-16
3.63393e-16
0
8.75387e-18
-5.34525e-17
-2.60051e-18
3.97219e-17
2.03989e-17
-3.09507e-17
-5.39512e-17
6.83105e-17
-1.92192e-17
0
-5.50333e-18
0
0
0
-1.75265e-18
1.40826e-18
-1.36747e-16
1.20137e-16
2.89465e-16
-2.73515e-16
7.66068e-17
6.71675e-18
-4.0198e-17
2.97104e-17
4.2855e-17
2.67007e-17
-5.1835e-17
0
1.63459e-17
-8.20389e-19
-6.29244e-18
-1.02649e-17
8.08053e-18
-8.83427e-19
1.8617e-18
-4.78283e-16
6.10804e-16
-5.96308e-16
9.40674e-17
6.99665e-17
-6.30013e-17
4.92795e-17
-3.23493e-17
0
-2.10759e-17
2.62303e-17
1.10539e-17
1.54992e-17
1.45104e-17
-2.07096e-17
-1.09505e-18
0
-8.67293e-19
2.99829e-19
-5.16912e-16
-1.4062e-16
-2.22527e-16
1.23563e-16
-1.69443e-16
1.31223e-16
-7.39975e-17
5.29247e-17
-6.30431e-18
-5.92311e-18
-3.07125e-17
1.98907e-17
-6.1885e-18
2.09749e-17
-2.25168e-17
1.3536e-18
1.92699e-18
0
-5.65868e-19
5.58896e-16
-1.53011e-16
0
0
-1.73834e-16
3.26881e-16
-7.09996e-17
-1.1063e-17
8.3223e-17
-2.63429e-18
0
0
-1.17689e-17
0
-2.12614e-17
4.75972e-17
-3.16862e-17
0
2.60723e-19
1.85696e-16
3.29885e-16
0
-1.25194e-16
-8.81337e-17
-6.7063e-17
-7.48037e-17
2.64929e-17
-6.97008e-17
-3.25106e-17
0
0
2.04877e-17
0
0
-3.18075e-17
5.34206e-17
0
0
1.27578e-15
-1.77504e-16
-7.16903e-16
-3.44786e-16
4.71642e-16
1.34119e-16
7.25315e-17
0
-2.21894e-17
1.88673e-17
4.72891e-17
-1.45132e-17
-1.79781e-17
2.67682e-17
-2.84732e-17
-7.33491e-18
0
0
0
1.02154e-16
-7.56081e-16
7.37051e-16
-6.55646e-17
-4.63032e-16
7.00243e-16
-3.3882e-16
0
0
1.36079e-16
-1.08189e-16
0
-2.66472e-17
4.7648e-17
-4.38539e-18
1.282e-17
3.68713e-18
5.8256e-20
7.49589e-19
0
0
0
5.63881e-16
-3.80702e-16
3.51095e-16
-5.36551e-16
1.46045e-16
0
-4.43045e-17
6.46833e-17
-6.61102e-17
-1.14749e-17
4.89937e-19
-7.11927e-18
-8.35293e-19
-5.65387e-18
-1.63785e-18
-8.63998e-19
8.41536e-16
-1.46922e-15
6.80937e-16
0
1.55911e-16
-2.14128e-16
1.91347e-16
-1.51169e-16
0
-6.11821e-17
8.606e-17
0
0
4.53883e-19
0
-8.12939e-18
5.47578e-18
8.06708e-19
1.40624e-18
8.48355e-16
0
-2.98697e-16
3.32841e-16
-1.88409e-16
4.03129e-16
-1.85042e-16
-1.29227e-16
1.30576e-16
-1.23233e-17
0
0
6.89681e-18
-1.07623e-17
-7.45358e-18
1.39357e-17
-3.00177e-18
1.45318e-18
0
4.8064e-16
3.49228e-16
-2.5755e-17
-3.18951e-16
-2.98847e-17
-2.00696e-16
3.04368e-17
1.59561e-16
-7.64218e-18
1.25547e-17
0
0
-7.06532e-18
0
7.92881e-18
-8.48193e-18
0
1.06643e-18
-2.91558e-19
-2.54895e-16
-1.75518e-16
1.64605e-16
-1.75987e-17
-7.54828e-18
1.93446e-17
0
-4.62464e-18
6.42902e-17
-5.41104e-17
0
1.60814e-17
-3.58984e-18
-1.37438e-17
-1.21824e-18
-9.35045e-19
0
-8.37291e-19
0
1.00862e-16
-1.88434e-16
1.03177e-18
7.61527e-17
6.36786e-17
-6.2915e-17
-4.0452e-17
4.56449e-17
-1.42274e-17
1.12296e-17
-9.90252e-18
1.02079e-17
0
2.40055e-20
-8.98105e-19
3.21228e-18
-1.08444e-20
0
0
1.00865e-16
-1.00487e-16
-7.57474e-17
6.7323e-17
1.122e-16
-1.12862e-16
-2.0227e-17
2.02791e-17
-1.43508e-17
1.45e-17
-9.90314e-18
1.83797e-17
-5.15623e-18
-3.52521e-18
-1.03614e-18
3.53612e-19
8.09705e-19
2.1181e-19
-1.5863e-19
0
-2.3456e-17
1.31381e-16
-1.43044e-16
1.117e-16
-9.94086e-17
0
6.75672e-17
-6.07068e-17
0
1.95303e-17
-2.45816e-17
-1.31164e-17
1.37468e-17
2.40054e-18
0
0
-8.37603e-19
3.0316e-19
4.00931e-16
-7.24936e-16
7.09887e-16
-5.95924e-16
2.29498e-16
-1.75272e-16
1.67227e-16
1.80844e-17
-6.30309e-17
5.61137e-17
0
-3.54032e-17
3.23328e-17
-5.72259e-18
-2.35133e-18
3.5017e-18
2.5383e-18
8.13152e-19
-2.92922e-19
9.54505e-16
0
-3.38863e-16
2.63819e-16
2.95424e-17
-2.09709e-16
3.6113e-16
-3.02962e-16
1.15961e-16
-4.41904e-17
4.52327e-17
8.43435e-18
1.33771e-17
5.57386e-18
-4.28575e-18
-6.6159e-19
-5.45183e-18
0
5.18918e-19
7.36809e-16
-8.29473e-16
0
6.81408e-17
2.71837e-16
-2.6316e-16
4.09659e-17
3.40723e-17
1.43369e-17
2.30884e-17
0
0
-2.29722e-17
4.11343e-17
-1.46764e-17
-5.005e-18
5.47964e-18
4.26169e-19
-9.72637e-19
1.00909e-16
7.29641e-16
-7.84465e-17
-4.9692e-16
4.37709e-16
4.801e-17
-4.00926e-17
-3.32785e-17
9.83059e-17
-1.21535e-16
6.4723e-17
-6.61499e-17
8.67522e-18
-1.24015e-17
1.95969e-17
-1.32056e-17
0
0
8.16236e-19
0
1.78219e-16
-4.95032e-16
5.68116e-16
-4.0787e-16
4.06898e-16
0
1.14473e-16
-1.14998e-16
-7.47053e-17
1.08309e-16
0
3.7694e-17
-4.77063e-17
-6.78664e-18
0
-6.65025e-19
-1.12622e-18
-1.3385e-19
-1.76722e-15
8.22232e-16
0
-4.7162e-16
4.71573e-16
2.53103e-16
-1.65223e-16
5.87879e-17
0
-2.21281e-18
1.28509e-17
-1.45017e-17
-1.79667e-17
2.67501e-17
-2.84442e-17
0
4.87476e-18
-6.61224e-19
-7.0848e-19
1.06969e-15
-1.03549e-15
0
1.23105e-16
1.03783e-16
-9.00208e-17
0
-6.16102e-17
-4.55053e-17
0
-4.50313e-18
0
2.05108e-17
0
0
6.29381e-18
2.25574e-17
-2.98904e-17
0
-3.88071e-20
1.53091e-16
-1.31956e-16
9.21463e-17
-4.7615e-16
1.73922e-16
0
1.10756e-17
3.0467e-17
0
-2.56498e-17
6.03215e-17
-6.33713e-17
8.39939e-18
0
-1.85025e-18
0
0
0
5.64483e-21
0
1.21961e-16
0
-1.52183e-16
1.54603e-16
0
4.07459e-17
-2.81028e-17
9.35144e-17
-4.32995e-17
1.20473e-17
-1.69378e-17
1.34099e-17
-2.25707e-17
-3.3292e-18
0
-1.28476e-18
0
4.05511e-16
-6.88416e-16
0
-9.2698e-17
7.52214e-17
0
0
-7.23352e-17
0
-2.11036e-17
-2.62687e-17
-1.10726e-17
1.55293e-17
0
5.21733e-18
0
0
2.59485e-18
-2.62852e-18
0
5.63844e-16
-4.47907e-16
8.58172e-17
-6.96554e-17
-2.36622e-17
6.42738e-17
6.18671e-17
-6.19121e-17
1.94652e-17
3.43571e-18
-1.08514e-17
4.23772e-17
-1.27499e-17
-2.22875e-17
6.84846e-18
-1.26857e-18
7.82752e-19
-1.78133e-19
-9.98957e-16
3.63656e-16
0
0
2.7191e-17
-2.76502e-17
1.34768e-17
4.63936e-18
5.28138e-17
2.16745e-17
-1.98599e-17
-1.97209e-18
-7.14206e-18
5.51453e-18
0
1.6703e-18
1.16274e-18
4.84765e-19
1.61007e-19
0
2.97139e-16
-2.58493e-16
7.90976e-17
6.7479e-17
-1.24763e-17
-3.2727e-17
-2.37895e-17
-6.44863e-17
2.08237e-17
-8.06409e-18
1.42599e-17
6.67871e-18
-6.00544e-18
6.37441e-18
2.72751e-18
-3.87534e-18
-4.47753e-19
0
-5.83229e-17
-2.4019e-16
7.82956e-17
6.49868e-17
-1.92671e-16
1.29695e-16
4.83652e-17
-4.94367e-17
2.92313e-17
-1.97627e-17
0
0
-7.94383e-18
1.32182e-17
-5.18787e-18
3.51056e-18
-3.87777e-18
5.23305e-19
-9.26711e-19
1.0645e-16
9.29058e-17
-7.68833e-17
4.70949e-17
-6.2732e-17
-7.28834e-17
0
0
0
0
0
0
4.08199e-18
-8.34008e-18
8.82054e-18
-2.05752e-18
2.60119e-18
1.01898e-18
-8.50435e-19
2.26143e-16
-3.34593e-16
4.14915e-16
-1.53395e-16
2.16954e-16
-1.17092e-16
2.03165e-16
-1.01899e-16
-3.77537e-17
3.86204e-17
0
6.12906e-18
-3.98789e-18
7.2591e-18
-3.26067e-18
-2.95658e-18
-4.60865e-18
3.9551e-19
7.04081e-19
3.55008e-16
9.17826e-17
0
-1.16856e-16
-7.5544e-17
1.61071e-16
6.26256e-18
-4.69828e-17
2.48877e-17
-1.3368e-17
0
-4.85185e-18
0
-2.67818e-18
1.90524e-18
-1.42346e-18
-4.3669e-19
2.51153e-19
0
4.91571e-16
-9.70243e-17
3.60663e-16
-2.79897e-16
-4.71698e-17
1.52077e-16
-9.04535e-17
6.58842e-18
4.4387e-18
-1.34851e-17
1.19918e-17
0
0
3.64454e-18
-8.72681e-19
4.48378e-19
1.56716e-18
-5.32594e-19
0
6.5598e-20
0
-8.32449e-17
4.30445e-16
-2.81786e-16
-2.3985e-16
1.29159e-16
-9.87732e-17
8.66761e-17
3.37871e-17
-2.07797e-17
7.22459e-18
-5.79709e-18
1.33728e-18
6.257e-18
-7.12297e-20
-1.62474e-18
1.52886e-18
-3.26466e-19
1.1633e-15
-3.63441e-16
1.41444e-16
-4.54134e-16
1.06447e-16
-1.42152e-16
8.08186e-17
0
0
-2.36023e-18
-3.87935e-18
-1.07152e-18
0
-6.43722e-18
-4.08151e-18
2.55462e-18
-1.69783e-19
4.23147e-19
6.99788e-19
0
-3.46318e-16
5.27631e-16
8.27192e-17
-3.79774e-16
8.58985e-17
-1.10376e-16
3.08432e-17
7.7576e-17
0
0
1.14768e-18
8.18915e-18
0
-4.93178e-18
-1.87045e-18
2.94389e-19
-7.16377e-19
-9.37773e-19
0
-2.03567e-16
7.67967e-17
3.5639e-16
2.16511e-16
-3.80409e-16
1.62149e-16
-8.64467e-17
4.87904e-17
-5.1271e-17
0
0
0
-1.09578e-17
1.70049e-18
-2.83126e-18
0
-1.43813e-19
6.94033e-19
-8.61161e-16
8.00875e-16
7.53234e-16
-9.05965e-16
3.60355e-16
-3.2896e-16
0
9.38365e-17
-1.21506e-16
6.24966e-17
-3.94817e-17
2.73115e-17
1.88107e-17
1.13328e-17
7.67053e-18
0
0
0
0
9.86976e-16
-5.29635e-16
0
0
-1.38409e-16
2.91889e-16
-1.84049e-16
-1.0162e-16
1.00475e-16
5.85731e-17
8.48302e-17
-2.83383e-17
1.09009e-17
6.64918e-18
4.26862e-18
3.57709e-18
5.53679e-18
-2.56838e-19
2.61612e-19
-9.85044e-16
8.73727e-16
4.14334e-16
-2.22867e-16
4.022e-16
-2.54449e-16
-1.7044e-16
-1.2694e-16
0
-1.23595e-16
1.05989e-17
3.47745e-17
-2.25351e-17
-1.59358e-17
-5.31464e-18
-4.73388e-18
-3.81467e-18
0
0
-3.38836e-16
0
2.34455e-16
2.19223e-19
0
0
1.75814e-16
1.30985e-16
0
6.94027e-17
0
-5.21321e-17
-1.30036e-17
2.20611e-17
0
1.31835e-17
-1.76561e-18
1.80116e-18
0
7.3809e-16
0
4.36334e-16
-7.80336e-16
6.51243e-16
4.52778e-16
-2.57916e-17
0
1.46447e-17
8.89527e-17
0
-6.29756e-17
6.26498e-17
-5.30369e-17
-1.10411e-17
-1.03169e-17
-3.40451e-18
-6.91083e-19
-3.1809e-18
-6.55185e-16
9.35248e-16
-2.43994e-16
-5.91071e-16
-3.13921e-16
-2.45482e-16
-3.77839e-16
-1.2682e-16
1.8309e-17
3.611e-17
-3.60421e-17
9.71856e-17
-4.12907e-17
7.56419e-17
-1.39464e-17
0
1.90368e-17
-1.23626e-17
3.04622e-18
1.51792e-15
-4.7307e-17
-1.02263e-15
7.57332e-16
-6.36963e-16
5.02904e-16
-2.66838e-17
-1.5139e-16
1.1803e-16
3.96511e-17
-8.20223e-18
-8.40915e-17
2.13858e-17
2.96175e-17
-7.53724e-18
7.62321e-18
-1.97175e-17
-5.63602e-18
-7.19297e-18
7.45163e-16
2.92061e-16
4.81126e-16
-3.88682e-16
-2.81176e-16
2.92881e-17
-1.75016e-16
4.13703e-16
2.14798e-17
1.56548e-16
8.51013e-17
-7.24523e-17
0
-4.41893e-17
0
0
3.98453e-17
1.60477e-17
8.2147e-18
6.81863e-16
0
4.69845e-16
3.86174e-16
-3.12026e-16
2.48882e-16
0
-1.57658e-16
-2.04833e-16
-1.62623e-16
-8.58545e-17
7.32715e-17
0
0
0
0
-3.75445e-17
-3.60013e-17
0
-1.33478e-15
0
-4.09272e-17
-3.71134e-17
4.81494e-16
-2.34559e-16
-1.00245e-16
-1.01755e-16
2.13782e-16
0
5.18364e-17
-5.21603e-18
5.54381e-17
0
0
7.99536e-17
-6.13963e-18
4.33562e-17
-2.0694e-17
9.27766e-16
2.45684e-16
-2.43148e-16
-1.98442e-16
-6.14206e-16
3.93004e-16
4.3798e-16
-2.17657e-17
-1.51827e-16
1.58995e-16
3.15202e-17
-1.70176e-16
-1.29758e-16
-9.61565e-17
-1.04962e-16
-9.25648e-17
9.34945e-17
-4.27109e-18
2.1195e-17
-2.78449e-16
1.18856e-16
-5.58126e-16
8.5083e-17
-8.47735e-17
0
-2.21719e-16
-3.05417e-17
-2.04793e-16
3.49124e-17
2.00084e-16
1.34695e-16
-3.63928e-17
-2.04642e-18
9.87648e-17
0
-2.06407e-16
-8.36911e-17
-1.69578e-18
5.85808e-16
-1.45653e-17
8.78128e-16
-3.971e-16
1.32572e-18
9.55932e-18
2.78222e-16
-4.04275e-17
1.98615e-16
-1.84946e-16
-1.75821e-16
0
2.09697e-16
1.56346e-16
2.46581e-18
-3.63486e-18
1.16955e-16
8.50268e-17
0
-4.12063e-16
0
-7.76327e-17
3.83896e-16
8.96193e-18
8.27779e-17
-2.69036e-16
2.48748e-16
2.87129e-16
2.77644e-16
2.71725e-16
0
-2.03717e-16
0
1.24761e-17
-1.29575e-17
0
-1.36702e-18
6.96283e-17
2.97653e-16
2.54552e-17
-1.99945e-16
6.32394e-16
-1.97691e-16
0
0
-3.51035e-16
-2.78198e-16
-2.68975e-16
-5.21001e-16
-7.34818e-17
0
0
0
-2.79591e-17
2.95877e-17
1.98114e-16
-7.07324e-17
2.69855e-17
0
-4.62936e-16
-3.97878e-16
4.3328e-16
-4.3302e-16
-6.09625e-16
7.15873e-16
2.18794e-16
0
3.19933e-16
3.95005e-16
-8.51298e-17
4.7484e-16
-7.86486e-17
8.1854e-17
3.28571e-16
-1.88279e-16
0
-5.63992e-16
0
-5.27663e-16
5.12171e-16
0
8.74088e-16
4.01412e-16
-8.73614e-16
7.27308e-16
-2.91675e-18
-2.14218e-16
-3.82446e-16
0
5.73905e-16
-9.47676e-16
1.02195e-15
-1.30357e-15
0
0
5.64369e-16
-6.42106e-18
-1.5621e-17
-1.05073e-15
1.07184e-15
-5.10566e-16
5.08485e-16
5.01549e-16
-4.18672e-16
0
0
8.59631e-16
-8.7444e-16
-9.14629e-16
9.1259e-16
-8.93645e-16
9.70394e-16
-1.524e-15
0
)
;

boundaryField
{
    up
    {
        type            calculated;
        value           nonuniform List<scalar> 
84
(
0
0
0
0
-4.91974e-17
8.67281e-17
-3.52905e-17
2.1195e-17
-1.87883e-17
0
-9.21904e-18
8.62064e-18
-4.05161e-18
1.06715e-18
7.33623e-19
1.895e-18
0
0
-5.47665e-19
4.18023e-19
3.03983e-19
-2.95164e-19
2.25557e-20
0
1.08251e-19
6.9012e-20
-8.45846e-19
0
1.40826e-18
2.065e-18
2.99829e-19
-5.65868e-19
2.60723e-19
0
-6.88745e-20
7.54261e-19
-8.4861e-19
1.39327e-18
0
-2.88081e-19
0
0
-1.58236e-19
3.0316e-19
-2.92922e-19
5.18918e-19
-9.72637e-19
8.16236e-19
-1.3385e-19
-7.0848e-19
0
0
0
-2.62852e-18
-3.82438e-19
1.61007e-19
0
-9.26711e-19
-8.50435e-19
5.96054e-19
0
0
-3.26466e-19
6.99788e-19
-9.37773e-19
6.94033e-19
0
2.61612e-19
0
0
-3.1809e-18
3.04622e-18
-7.19297e-18
8.2147e-18
0
-2.0694e-17
2.1195e-17
-1.69578e-18
0
6.96283e-17
-7.07324e-17
0
0
0
)
;
    }
    low
    {
        type            calculated;
        value           nonuniform List<scalar> 
84
(
-1.13076e-15
1.11843e-15
-5.32255e-16
8.59969e-16
1.53257e-16
-3.98346e-17
3.32824e-16
5.36918e-17
0
1.37089e-15
-3.47525e-16
2.51467e-16
-3.02968e-16
-2.07392e-15
3.38728e-16
0
-3.14827e-16
4.23222e-17
-4.13063e-17
-2.35569e-16
1.29587e-16
3.3082e-16
6.03695e-16
-5.12178e-16
0
-9.88768e-17
-5.09559e-17
0
-4.68447e-16
-1.36747e-16
-4.76536e-16
-5.15728e-16
5.5834e-16
1.85696e-16
1.27647e-15
1.02154e-16
0
8.41536e-16
8.51223e-16
4.82148e-16
-2.5568e-16
1.00862e-16
1.00865e-16
0
4.00931e-16
9.57372e-16
7.36809e-16
1.03148e-16
0
-1.76791e-15
1.06969e-15
-3.88071e-20
5.64483e-21
4.05511e-16
0
-9.95542e-16
0
-5.83229e-17
1.0645e-16
2.24045e-16
3.51517e-16
4.88489e-16
6.5598e-20
1.16112e-15
0
0
-8.61161e-16
9.86445e-16
-9.8493e-16
-3.38836e-16
7.38697e-16
-6.55185e-16
1.52212e-15
7.47888e-16
6.81863e-16
-1.33478e-15
9.24816e-16
-2.75281e-16
5.85808e-16
-4.10706e-16
2.97653e-16
2.96025e-17
-5.63992e-16
5.65088e-16
)
;
    }
    left
    {
        type            calculated;
        value           nonuniform List<scalar> 
19
(
-1.12932e-15
-5.41069e-16
5.58703e-16
2.10188e-17
-1.0404e-15
0
-4.70621e-16
-4.64275e-16
-4.57873e-17
-2.51462e-16
-1.4457e-18
-2.52506e-16
1.14023e-15
-2.52419e-16
1.17377e-15
1.01732e-15
6.0635e-16
8.92824e-16
0
)
;
    }
    right
    {
        type            calculated;
        value           nonuniform List<scalar> 
19
(
5.64369e-16
-5.79073e-18
-1.5621e-17
-1.05094e-15
1.07255e-15
-5.10566e-16
5.08485e-16
5.01549e-16
-4.16574e-16
0
0
8.67714e-16
-8.85445e-16
-9.14629e-16
9.1259e-16
-8.93645e-16
9.70394e-16
-1.6476e-15
0
)
;
    }
    frontAndBackPlanes
    {
        type            empty;
    }
}


// ************************************************************************* //
