/*--------------------------------*- C++ -*----------------------------------*\
  =========                 |
  \\      /  F ield         | OpenFOAM: The Open Source CFD Toolbox
   \\    /   O peration     | Website:  https://openfoam.org
    \\  /    A nd           | Version:  7
     \\/     M anipulation  |
\*---------------------------------------------------------------------------*/
FoamFile
{
    version     2.0;
    format      ascii;
    class       volScalarField;
    location    "0.036";
    object      gradTy;
}
// * * * * * * * * * * * * * * * * * * * * * * * * * * * * * * * * * * * * * //

dimensions      [0 -1 0 1 0 0 0];

internalField   nonuniform List<scalar> 
1596
(
-1.62876
-2.87584
-3.66267
-4.19422
-4.52894
-4.83118
-5.07983
-5.36928
-5.69296
-6.0181
-6.47465
-6.96839
-7.64593
-8.6641
-10.4782
-13.6087
-19.7366
-31.5274
-74.3593
-4.72699
-5.39864
-5.40627
-5.17169
-4.88553
-4.74225
-4.70409
-4.80552
-5.00224
-5.2251
-5.57351
-5.9625
-6.49927
-7.26599
-8.54405
-10.4647
-13.6605
-18.621
-32.9203
-7.83672
-7.48458
-6.62013
-5.65757
-4.81899
-4.27775
-3.97597
-3.89534
-3.96002
-4.08031
-4.31821
-4.59503
-4.98382
-5.53095
-6.43888
-7.75725
-9.88221
-13.0265
-19.8386
-10.4153
-9.05461
-7.42425
-5.85658
-4.56725
-3.6933
-3.16529
-2.92274
-2.86704
-2.89716
-3.03712
-3.2162
-3.47677
-3.84253
-4.45721
-5.34419
-6.77907
-8.87887
-12.5948
-12.1545
-10.14
-7.98092
-5.97629
-4.34737
-3.2082
-2.4921
-2.11091
-1.95138
-1.90635
-1.96601
-2.06729
-2.22749
-2.45491
-2.8456
-3.41464
-4.36016
-5.77003
-8.02198
-13.0464
-10.8208
-8.40416
-6.1355
-4.27086
-2.92692
-2.05501
-1.55518
-1.30684
-1.19942
-1.19593
-1.23855
-1.32569
-1.45507
-1.68472
-2.02508
-2.61398
-3.52712
-4.94793
-13.2792
-11.1756
-8.73253
-6.35221
-4.34277
-2.84668
-1.84595
-1.24359
-0.918383
-0.758159
-0.705865
-0.70584
-0.743136
-0.808331
-0.931507
-1.11844
-1.45823
-2.01323
-2.89378
-13.0843
-11.2643
-8.95164
-6.58022
-4.50495
-2.90552
-1.80211
-1.1124
-0.720661
-0.515115
-0.425083
-0.394655
-0.399653
-0.425922
-0.484958
-0.578168
-0.757743
-1.06948
-1.58676
-12.6625
-11.1963
-9.09529
-6.80663
-4.71902
-3.05171
-1.86505
-1.09894
-0.647657
-0.401467
-0.280936
-0.22824
-0.212604
-0.216517
-0.240162
-0.28159
-0.367913
-0.528554
-0.81136
-12.101
-10.9366
-9.0732
-6.92235
-4.87886
-3.19144
-1.95499
-1.13442
-0.637345
-0.358663
-0.214858
-0.146258
-0.117693
-0.109295
-0.114878
-0.130332
-0.167581
-0.243066
-0.385816
-11.6291
-10.6321
-8.95607
-6.9438
-4.96919
-3.29341
-2.03499
-1.18087
-0.652148
-0.349654
-0.189001
-0.109322
-0.0726932
-0.0576236
-0.05455
-0.0581609
-0.0721862
-0.104412
-0.170674
-11.1872
-10.3465
-8.81735
-6.92207
-5.01581
-3.36352
-2.09831
-1.22431
-0.674262
-0.354765
-0.18213
-0.0947722
-0.0530557
-0.0343255
-0.0272375
-0.0258357
-0.0298643
-0.0421633
-0.0703624
-10.7194
-10.0096
-8.60366
-6.81283
-4.979
-3.36685
-2.11576
-1.24121
-0.684683
-0.358149
-0.179963
-0.0888417
-0.0446427
-0.0242188
-0.0154529
-0.012126
-0.012257
-0.0162247
-0.0271668
-10.3696
-9.70052
-8.36324
-6.64524
-4.87336
-3.30723
-2.08479
-1.22595
-0.676723
-0.353026
-0.175714
-0.0846741
-0.0402894
-0.0196029
-0.0104074
-0.00650889
-0.00531202
-0.00613967
-0.0099508
-10.0943
-9.44018
-8.12661
-6.44683
-4.72004
-3.19853
-2.01308
-1.18165
-0.650645
-0.338051
-0.167109
-0.0794643
-0.036799
-0.0169279
-0.00803323
-0.00416961
-0.00264673
-0.00242975
-0.00355459
-9.85546
-9.21241
-7.89502
-6.22538
-4.5277
-3.048
-1.90573
-1.11138
-0.607886
-0.313535
-0.153698
-0.0722792
-0.0329103
-0.0146942
-0.00657622
-0.00305084
-0.00158294
-0.00109817
-0.00130976
-9.6827
-9.01848
-7.66713
-5.98186
-4.29929
-2.85952
-1.76658
-1.0183
-0.550664
-0.28079
-0.136057
-0.0631804
-0.0283426
-0.0124022
-0.00537269
-0.00234852
-0.00108137
-0.00059645
-0.000541461
-9.5813
-8.87044
-7.45404
-5.72777
-4.04699
-2.64476
-1.60561
-0.909955
-0.484079
-0.242929
-0.115891
-0.0529773
-0.0233798
-0.010045
-0.00425181
-0.00179514
-0.000775555
-0.000372594
-0.000266108
-9.4887
-8.77146
-7.27904
-5.49093
-3.79728
-2.42621
-1.44003
-0.798323
-0.415746
-0.204385
-0.0955808
-0.0428457
-0.0185432
-0.00780874
-0.00323395
-0.00132976
-0.000552646
-0.000246158
-0.000150909
-9.39004
-8.6897
-7.11887
-5.25653
-3.5422
-2.20127
-1.27045
-0.685317
-0.347625
-0.166635
-0.0760639
-0.0333078
-0.01409
-0.00580081
-0.00234791
-0.000941999
-0.000380093
-0.00016167
-9.10167e-05
-9.35254
-8.64553
-6.97795
-5.02533
-3.28318
-1.97282
-1.10046
-0.574241
-0.282188
-0.13126
-0.058234
-0.024818
-0.0102294
-0.00410685
-0.00162178
-0.00063469
-0.000249352
-0.000102487
-5.48224e-05
-9.34169
-8.64175
-6.86612
-4.80891
-3.03164
-1.75072
-0.93757
-0.470131
-0.222442
-0.0998609
-0.0428607
-0.0177089
-0.00708958
-0.00276872
-0.00106477
-0.000406086
-0.00015543
-6.20045e-05
-3.19607e-05
-9.32078
-8.66518
-6.78835
-4.62011
-2.80111
-1.54562
-0.788743
-0.376918
-0.170316
-0.0732499
-0.0302245
-0.012046
-0.00466592
-0.00176758
-0.000660807
-0.000245399
-9.15531e-05
-3.55313e-05
-1.77193e-05
-9.27323
-8.69504
-6.7384
-4.46456
-2.60093
-1.36482
-0.657936
-0.295997
-0.125899
-0.0510934
-0.0199634
-0.00756934
-0.00280166
-0.00101827
-0.000366366
-0.000131376
-4.74743e-05
-1.7902e-05
-8.33061e-06
-9.2085
-8.76742
-6.82843
-4.50835
-2.59863
-1.34011
-0.631641
-0.276862
-0.114665
-0.0454471
-0.017438
-0.00655352
-0.00242926
-0.00089443
-0.000329503
-0.000122473
-4.64504e-05
-1.86965e-05
-8.74091e-06
-9.13031
-8.8451
-6.99876
-4.68905
-2.73718
-1.42436
-0.674205
-0.295028
-0.121254
-0.047469
-0.017943
-0.00665414
-0.00244911
-0.000905067
-0.000339288
-0.00013038
-5.2071e-05
-2.25853e-05
-1.16247e-05
-9.09772
-8.8939
-7.1547
-4.89799
-2.92932
-1.56216
-0.756156
-0.336763
-0.139827
-0.0547776
-0.0204862
-0.00743765
-0.0026598
-0.000954416
-0.000350417
-0.000134408
-5.53578e-05
-2.59844e-05
-1.505e-05
-9.13191
-8.92286
-7.28727
-5.12053
-3.1671
-1.75469
-0.884095
-0.409488
-0.176125
-0.0709549
-0.0269626
-0.00978216
-0.00342
-0.00117018
-0.000399934
-0.00014093
-5.44255e-05
-2.64017e-05
-1.78077e-05
-9.22245
-8.96307
-7.42302
-5.36714
-3.45273
-2.0047
-1.06381
-0.520393
-0.236556
-0.10058
-0.0401501
-0.0151686
-0.00543538
-0.00185531
-0.000603327
-0.000186324
-5.53229e-05
-2.11085e-05
-1.7154e-05
-9.37257
-9.02757
-7.57212
-5.63544
-3.77651
-2.30424
-1.29331
-0.6724
-0.326047
-0.148313
-0.0634638
-0.025726
-0.00988058
-0.00359703
-0.00122782
-0.000378342
-8.95936e-05
-9.96968e-06
-5.69398e-06
-9.59202
-9.14859
-7.76808
-5.94496
-4.14497
-2.6548
-1.57513
-0.870694
-0.451215
-0.220463
-0.101851
-0.0448309
-0.0188242
-0.00756085
-0.00288613
-0.00101819
-0.000281684
-2.06138e-05
3.03753e-05
-9.79637
-9.31173
-8.0149
-6.30151
-4.56149
-3.05901
-1.91372
-1.12239
-0.620733
-0.325577
-0.162479
-0.0778043
-0.0358533
-0.0159965
-0.00691847
-0.00288447
-0.00105241
-0.000224909
7.97479e-05
-10.0471
-9.53496
-8.31167
-6.69587
-5.01457
-3.5078
-2.30552
-1.42998
-0.8416
-0.472709
-0.254282
-0.132182
-0.066669
-0.0328987
-0.0159875
-0.00774841
-0.00359075
-0.00137175
-3.15227e-05
-10.388
-9.84361
-8.67613
-7.14238
-5.51661
-4.01337
-2.76434
-1.81
-1.13264
-0.681335
-0.395708
-0.224003
-0.12432
-0.0683675
-0.0377052
-0.021365
-0.0124995
-0.00752263
-0.00425751
-10.7839
-10.192
-9.04023
-7.55433
-5.9698
-4.47659
-3.1991
-2.18666
-1.43641
-0.911461
-0.561225
-0.33813
-0.200504
-0.118141
-0.0700077
-0.0427174
-0.0274587
-0.019193
-0.0145359
-11.2659
-10.5661
-9.36707
-7.87398
-6.29461
-4.7996
-3.50311
-2.45574
-1.6607
-1.08831
-0.694522
-0.434841
-0.268719
-0.165386
-0.102641
-0.0656286
-0.0444315
-0.0331969
-0.028078
-11.8485
-10.9967
-9.71186
-8.17269
-6.56612
-5.04903
-3.72759
-2.65081
-1.82353
-1.21879
-0.795583
-0.510947
-0.324934
-0.206566
-0.133084
-0.0887652
-0.0629274
-0.0489902
-0.0424377
-12.3735
-11.3892
-10.0238
-8.43723
-6.80162
-5.26279
-3.92001
-2.81957
-1.96665
-1.33587
-0.888386
-0.582674
-0.379436
-0.247753
-0.164579
-0.113618
-0.0836079
-0.0674286
-0.060029
-12.7765
-11.7134
-10.292
-8.6689
-7.0089
-5.45104
-4.08966
-2.96898
-2.09431
-1.44144
-0.973245
-0.649382
-0.431156
-0.287771
-0.19603
-0.139192
-0.105553
-0.0875247
-0.0795736
-13.0956
-11.9725
-10.507
-8.85398
-7.17372
-5.60029
-4.22424
-3.08801
-2.19678
-1.52706
-1.04295
-0.705017
-0.475063
-0.322447
-0.223927
-0.162449
-0.126006
-0.106643
-0.0984401
-13.3314
-12.1608
-10.6591
-8.98201
-7.2861
-5.70147
-4.31555
-3.1692
-2.26726
-1.58655
-1.09198
-0.744684
-0.506853
-0.34799
-0.244876
-0.180267
-0.141973
-0.121789
-0.113517
-13.5022
-12.2708
-10.737
-9.04267
-7.3376
-5.7477
-4.35784
-3.20757
-2.30128
-1.61587
-1.11661
-0.764983
-0.523413
-0.361531
-0.256179
-0.190048
-0.150883
-0.130364
-0.122158
-13.5023
-12.271
-10.7371
-9.0429
-7.33785
-5.74795
-4.35809
-3.20779
-2.30147
-1.61602
-1.11673
-0.765077
-0.523485
-0.361586
-0.256223
-0.190083
-0.150914
-0.130393
-0.122187
-13.3315
-12.161
-10.6596
-8.98261
-7.2868
-5.70219
-4.31625
-3.16984
-2.2678
-1.587
-1.09233
-0.744957
-0.507063
-0.348151
-0.245002
-0.180369
-0.142061
-0.121871
-0.113601
-13.0957
-11.9729
-10.5077
-8.85495
-7.17484
-5.60146
-4.22536
-3.08902
-2.19764
-1.52776
-1.0435
-0.705442
-0.475386
-0.322692
-0.224116
-0.1626
-0.126135
-0.106762
-0.0985599
-12.7767
-11.7139
-10.293
-8.67018
-7.01039
-5.45259
-4.09114
-2.97031
-2.09543
-1.44235
-0.973951
-0.649919
-0.431557
-0.288071
-0.196257
-0.139369
-0.105701
-0.0876583
-0.0797059
-12.3737
-11.3899
-10.0249
-8.43879
-6.80343
-5.26468
-3.92181
-2.82118
-1.96799
-1.33694
-0.889208
-0.583288
-0.379886
-0.248082
-0.164822
-0.113802
-0.0837572
-0.0675605
-0.0601571
-11.8487
-10.9975
-9.71318
-8.17449
-6.56822
-5.05122
-3.72966
-2.65263
-1.82503
-1.21997
-0.796469
-0.511595
-0.325398
-0.206895
-0.133319
-0.0889384
-0.0630628
-0.0491064
-0.0425486
-11.2661
-10.567
-9.36871
-7.87625
-6.29726
-4.80234
-3.50568
-2.45796
-1.6625
-1.0897
-0.695539
-0.435564
-0.269222
-0.165732
-0.102881
-0.0657995
-0.0445602
-0.0333028
-0.0281769
-10.7841
-10.1925
-9.04146
-7.55643
-5.97256
-4.47966
-3.20211
-2.18933
-1.43859
-0.913129
-0.56243
-0.338961
-0.201056
-0.118499
-0.0702359
-0.0428632
-0.0275577
-0.0192738
-0.0146259
-10.3882
-9.84474
-8.67844
-7.14577
-5.52067
-4.01758
-2.76822
-1.81326
-1.13518
-0.683192
-0.396994
-0.22486
-0.124874
-0.0687206
-0.0379303
-0.0215133
-0.0126067
-0.00761101
-0.0043318
-10.0472
-9.5357
-8.31344
-6.69859
-5.01783
-3.5111
-2.30845
-1.43231
-0.843301
-0.473862
-0.255017
-0.132629
-0.0669302
-0.0330475
-0.0160714
-0.00779761
-0.00362224
-0.00139223
-3.17588e-05
-9.79642
-9.31242
-8.01663
-6.30415
-4.56458
-3.06201
-1.91625
-1.1243
-0.622041
-0.326406
-0.16297
-0.0780801
-0.0360018
-0.0160741
-0.0069589
-0.00290611
-0.00106314
-0.000227309
8.38329e-05
-9.59203
-9.14922
-7.76974
-5.94747
-4.14782
-2.65746
-1.57725
-0.872203
-0.452184
-0.221034
-0.102164
-0.0449933
-0.0189042
-0.00759888
-0.00290408
-0.00102676
-0.000284556
-1.86674e-05
3.34002e-05
-9.37255
-9.02815
-7.5737
-5.63781
-3.7791
-2.30654
-1.29505
-0.673562
-0.326744
-0.148696
-0.0636578
-0.0258182
-0.00992194
-0.0036147
-0.00123515
-0.000381232
-8.99722e-05
-8.41089e-06
-4.46878e-06
-9.22238
-8.96356
-7.42449
-5.36932
-3.45503
-2.00664
-1.0652
-0.521258
-0.23704
-0.100827
-0.0402657
-0.015219
-0.00545585
-0.00186307
-0.000606043
-0.000187088
-5.51562e-05
-2.03893e-05
-1.68857e-05
-9.13184
-8.92331
-7.28863
-5.12248
-3.16907
-1.75626
-0.885152
-0.410107
-0.176448
-0.0711079
-0.027029
-0.00980878
-0.00342981
-0.00117347
-0.000400891
-0.000141093
-5.43018e-05
-2.61872e-05
-1.78616e-05
-9.09765
-8.89431
-7.15591
-4.89966
-2.93094
-1.56338
-0.75693
-0.337189
-0.140036
-0.0548706
-0.020524
-0.00745181
-0.00266468
-0.00095596
-0.000350855
-0.000134503
-5.53592e-05
-2.59827e-05
-1.51565e-05
-9.13025
-8.84544
-6.99974
-4.69037
-2.7384
-1.42525
-0.67474
-0.295309
-0.121386
-0.0475248
-0.0179647
-0.00666205
-0.00245183
-0.000905985
-0.000339606
-0.000130502
-5.21326e-05
-2.26361e-05
-1.16946e-05
-9.20856
-8.76753
-6.82873
-4.50873
-2.59896
-1.34033
-0.63177
-0.276924
-0.114692
-0.0454577
-0.017442
-0.00655503
-0.00242989
-0.000894727
-0.000329661
-0.000122565
-4.65092e-05
-1.87389e-05
-8.76919e-06
-9.27323
-8.69494
-6.73816
-4.46424
-2.60059
-1.36454
-0.65774
-0.295877
-0.125834
-0.0510602
-0.0199479
-0.00756246
-0.00279876
-0.00101709
-0.000365898
-0.000131195
-4.7406e-05
-1.7876e-05
-8.31747e-06
-9.32078
-8.66519
-6.78837
-4.62014
-2.80113
-1.54563
-0.788748
-0.376921
-0.170317
-0.0732512
-0.0302252
-0.0120464
-0.00466611
-0.00176766
-0.000660838
-0.000245411
-9.15572e-05
-3.55324e-05
-1.77191e-05
-9.34168
-8.64175
-6.86612
-4.80892
-3.03164
-1.75072
-0.937568
-0.47013
-0.222442
-0.0998611
-0.042861
-0.0177092
-0.00708973
-0.00276879
-0.00106481
-0.000406102
-0.000155435
-6.20063e-05
-3.19606e-05
-9.35253
-8.64552
-6.97795
-5.02534
-3.28318
-1.97282
-1.10046
-0.574239
-0.282188
-0.13126
-0.0582341
-0.0248182
-0.0102295
-0.00410696
-0.00162184
-0.000634723
-0.000249366
-0.000102493
-5.48251e-05
-9.39004
-8.68969
-7.11887
-5.25654
-3.5422
-2.20128
-1.27045
-0.685316
-0.347624
-0.166635
-0.0760639
-0.033308
-0.0140902
-0.00580098
-0.00234802
-0.00094206
-0.000380119
-0.000161681
-9.10255e-05
-9.48869
-8.77145
-7.27904
-5.49094
-3.79728
-2.42622
-1.44003
-0.798322
-0.415745
-0.204384
-0.0955807
-0.0428459
-0.0185435
-0.00780898
-0.00323413
-0.00132985
-0.000552672
-0.000246168
-0.00015093
-9.5813
-8.87044
-7.45403
-5.72777
-4.047
-2.64477
-1.60561
-0.909955
-0.484078
-0.242928
-0.115891
-0.0529775
-0.0233802
-0.0100453
-0.00425206
-0.00179525
-0.00077553
-0.000372579
-0.000266171
-9.68269
-9.01847
-7.66712
-5.98186
-4.2993
-2.85952
-1.76659
-1.0183
-0.550662
-0.280789
-0.136057
-0.0631808
-0.0283431
-0.0124027
-0.00537301
-0.00234856
-0.00108113
-0.000596364
-0.000541684
-9.85545
-9.2124
-7.89502
-6.22539
-4.52771
-3.04801
-1.90573
-1.11138
-0.607886
-0.313535
-0.153698
-0.0722798
-0.032911
-0.0146948
-0.00657654
-0.00305055
-0.00158211
-0.001098
-0.00131056
-10.0943
-9.44017
-8.12661
-6.44684
-4.72005
-3.19854
-2.01309
-1.18165
-0.650645
-0.338052
-0.16711
-0.0794653
-0.0368
-0.0169288
-0.00803333
-0.0041684
-0.00264463
-0.00242972
-0.00355714
-10.3696
-9.70051
-8.36324
-6.64524
-4.87336
-3.30723
-2.08479
-1.22595
-0.676725
-0.353028
-0.175716
-0.0846758
-0.040291
-0.0196039
-0.0104068
-0.00650572
-0.00530779
-0.00614082
-0.00995759
-10.7194
-10.0096
-8.60366
-6.81284
-4.979
-3.36686
-2.11576
-1.24122
-0.684687
-0.358153
-0.179966
-0.0888441
-0.0446448
-0.0242196
-0.0154505
-0.0121195
-0.0122503
-0.0162296
-0.0271816
-11.1872
-10.3465
-8.81735
-6.92207
-5.01581
-3.36352
-2.09832
-1.22432
-0.674268
-0.354769
-0.182134
-0.0947755
-0.0530581
-0.0343251
-0.0272319
-0.0258249
-0.029857
-0.042176
-0.0703881
-11.6291
-10.6321
-8.95607
-6.94381
-4.9692
-3.29341
-2.035
-1.18088
-0.652156
-0.349661
-0.189006
-0.109326
-0.072695
-0.0576202
-0.0545394
-0.0581476
-0.0721842
-0.104435
-0.170707
-12.101
-10.9366
-9.07321
-6.92236
-4.87887
-3.19145
-1.955
-1.13443
-0.637354
-0.358669
-0.214863
-0.146261
-0.117692
-0.109285
-0.114863
-0.130322
-0.167593
-0.243098
-0.385837
-12.6625
-11.1963
-9.0953
-6.80664
-4.71903
-3.05172
-1.86506
-1.09894
-0.647663
-0.401472
-0.280939
-0.228238
-0.212595
-0.216499
-0.240145
-0.281594
-0.367948
-0.528577
-0.811341
-13.0843
-11.2643
-8.95164
-6.58022
-4.50496
-2.90552
-1.80212
-1.11241
-0.720665
-0.515116
-0.42508
-0.394645
-0.399632
-0.425896
-0.484947
-0.578195
-0.757796
-1.06947
-1.58667
-13.2792
-11.1756
-8.73254
-6.35221
-4.34278
-2.84668
-1.84595
-1.24359
-0.918382
-0.758154
-0.705854
-0.705819
-0.743107
-0.808308
-0.931514
-1.11849
-1.45828
-2.01317
-2.89364
-13.0464
-10.8208
-8.40416
-6.13551
-4.27086
-2.92692
-2.055
-1.55517
-1.30683
-1.19941
-1.19591
-1.23852
-1.32566
-1.45506
-1.68475
-2.02513
-2.614
-3.52703
-4.94781
-12.1545
-10.14
-7.98093
-5.97629
-4.34737
-3.2082
-2.4921
-2.1109
-1.95137
-1.90633
-1.96598
-2.06727
-2.22748
-2.45493
-2.84565
-3.41468
-4.36012
-5.76995
-8.02195
-10.4153
-9.05462
-7.42426
-5.85658
-4.56724
-3.69329
-3.16528
-2.92273
-2.86702
-2.89714
-3.0371
-3.21618
-3.47678
-3.84257
-4.45726
-5.34419
-6.779
-8.87885
-12.5949
-7.83675
-7.4846
-6.62014
-5.65757
-4.81899
-4.27774
-3.97596
-3.89533
-3.96
-4.0803
-4.3182
-4.59504
-4.98385
-5.531
-6.43891
-7.75722
-9.88214
-13.0265
-19.8387
-4.727
-5.39865
-5.40627
-5.17169
-4.88553
-4.74225
-4.70409
-4.80551
-5.00223
-5.22509
-5.57352
-5.96251
-6.49931
-7.26602
-8.54405
-10.4646
-13.6604
-18.621
-32.9203
-1.62876
-2.87585
-3.66267
-4.19422
-4.52894
-4.83118
-5.07983
-5.36928
-5.69296
-6.0181
-6.47466
-6.96841
-7.64596
-8.66412
-10.4781
-13.6087
-19.7366
-31.5274
-74.3593
)
;

boundaryField
{
    up
    {
        type            calculated;
        value           nonuniform List<scalar> 
84
(
-67.444
-36.4526
-21.841
-13.86
-8.85743
-5.48987
-3.22627
-1.77608
-0.910442
-0.433501
-0.191655
-0.0788129
-0.0302915
-0.010997
-0.00385991
-0.00137473
-0.000537646
-0.000247764
-0.000133453
-7.78838e-05
-4.59367e-05
-2.63668e-05
-1.43445e-05
-6.17134e-06
-6.23724e-06
-9.37292e-06
-1.29709e-05
-1.68801e-05
-1.93269e-05
-1.26132e-05
3.04452e-05
0.000188737
0.000456101
-0.00336936
-0.0136129
-0.0268594
-0.0406796
-0.0581288
-0.0776442
-0.0965734
-0.111742
-0.120482
-0.120512
-0.111828
-0.0966952
-0.0777779
-0.0582575
-0.0407905
-0.0269573
-0.0137091
-0.00344419
0.000467795
0.000197605
3.31717e-05
-1.24875e-05
-1.98156e-05
-1.73094e-05
-1.3233e-05
-9.49405e-06
-6.2712e-06
-6.15997e-06
-1.4344e-05
-2.6366e-05
-4.5938e-05
-7.78913e-05
-0.000133477
-0.000247844
-0.00053794
-0.00137576
-0.00386307
-0.0110051
-0.0303084
-0.0788405
-0.191685
-0.433511
-0.910396
-1.77596
-3.22612
-5.48977
-8.85748
-13.8602
-21.8412
-36.4526
-67.4439
)
;
    }
    low
    {
        type            calculated;
        value           nonuniform List<scalar> 
84
(
-1.76653
-5.00792
-8.38246
-11.2294
-13.1547
-14.1076
-14.2832
-13.9683
-13.3716
-12.627
-12.0805
-11.5715
-11.0018
-10.6067
-10.3135
-10.0382
-9.83606
-9.74366
-9.63765
-9.47623
-9.39065
-9.33724
-9.25069
-9.13174
-8.92464
-8.75105
-8.69881
-8.80579
-9.00283
-9.28097
-9.60698
-9.86522
-10.1693
-10.5687
-11.0078
-11.5545
-12.2323
-12.8082
-13.2339
-13.5726
-13.8257
-14.0293
-14.0294
-13.8257
-13.5726
-13.234
-12.8083
-12.2323
-11.5546
-11.0077
-10.5688
-10.1692
-9.86508
-9.60681
-9.2808
-9.00263
-8.80563
-8.69867
-8.75097
-8.9246
-9.13186
-9.25061
-9.33723
-9.39064
-9.47622
-9.63764
-9.74365
-9.83605
-10.0382
-10.3135
-10.6067
-11.0018
-11.5715
-12.0804
-12.6269
-13.3716
-13.9683
-14.2832
-14.1076
-13.1547
-11.2295
-8.38249
-5.00794
-1.76653
)
;
    }
    left
    {
        type            calculated;
        value           nonuniform List<scalar> 
19
(
-1.61358
-2.86776
-3.70303
-4.28557
-4.66224
-4.99653
-5.26842
-5.58046
-5.92436
-6.27406
-6.76258
-7.28906
-8.01996
-9.14416
-11.1693
-14.7396
-21.8121
-35.5722
-69.8392
)
;
    }
    right
    {
        type            calculated;
        value           nonuniform List<scalar> 
19
(
-1.61358
-2.86776
-3.70303
-4.28557
-4.66224
-4.99653
-5.26842
-5.58046
-5.92436
-6.27406
-6.76259
-7.28908
-8.01999
-9.14417
-11.1693
-14.7395
-21.8121
-35.5722
-69.8392
)
;
    }
    frontAndBackPlanes
    {
        type            empty;
    }
}


// ************************************************************************* //
