/*--------------------------------*- C++ -*----------------------------------*\
  =========                 |
  \\      /  F ield         | OpenFOAM: The Open Source CFD Toolbox
   \\    /   O peration     | Website:  https://openfoam.org
    \\  /    A nd           | Version:  7
     \\/     M anipulation  |
\*---------------------------------------------------------------------------*/
FoamFile
{
    version     2.0;
    format      ascii;
    class       volScalarField;
    location    "0.24";
    object      gradTx;
}
// * * * * * * * * * * * * * * * * * * * * * * * * * * * * * * * * * * * * * //

dimensions      [0 -1 0 1 0 0 0];

internalField   nonuniform List<scalar> 
1596
(
-0.216788
-1.08815
-1.94988
-2.72913
-3.42158
-4.02583
-4.56976
-5.07129
-5.55482
-6.06727
-6.62176
-7.27479
-8.09299
-9.17362
-10.6318
-12.758
-16.0016
-21.3335
-30.7611
0.0475721
-0.906013
-1.75421
-2.48888
-3.12789
-3.67533
-4.15637
-4.57995
-4.96435
-5.33399
-5.69162
-6.0677
-6.47327
-6.9247
-7.41014
-7.90754
-8.29029
-8.30057
-7.39158
0.264269
-0.740903
-1.56193
-2.24446
-2.8234
-3.30998
-3.72594
-4.07712
-4.37574
-4.63495
-4.85296
-5.04583
-5.2096
-5.34138
-5.41948
-5.40602
-5.19972
-4.62336
-3.32956
0.298939
-0.653582
-1.40473
-2.01677
-2.52738
-2.9508
-3.30407
-3.59182
-3.8218
-4.00072
-4.12623
-4.20612
-4.23388
-4.20257
-4.09487
-3.8805
-3.49449
-2.83056
-1.68178
0.088782
-0.683394
-1.31081
-1.82897
-2.26171
-2.61986
-2.91391
-3.14719
-3.32393
-3.44667
-3.51408
-3.52886
-3.4856
-3.37768
-3.19399
-2.91341
-2.49789
-1.8868
-0.961254
-0.348645
-0.845108
-1.30133
-1.70232
-2.04694
-2.33662
-2.57359
-2.75882
-2.89334
-2.97654
-3.00815
-2.98745
-2.91057
-2.77198
-2.56525
-2.27587
-1.88272
-1.35176
-0.615768
-0.931008
-1.12569
-1.38482
-1.65117
-1.89823
-2.115
-2.29481
-2.43502
-2.53341
-2.58676
-2.59513
-2.55544
-2.46482
-2.31854
-2.11303
-1.83797
-1.48209
-1.02627
-0.432706
-1.54168
-1.47284
-1.53971
-1.66743
-1.81298
-1.95424
-2.07656
-2.17303
-2.23829
-2.26681
-2.25824
-2.20783
-2.11309
-1.96971
-1.77562
-1.52301
-1.20607
-0.814009
-0.325608
-2.17422
-1.91795
-1.81339
-1.8013
-1.83747
-1.894
-1.95096
-1.9974
-2.02507
-2.02637
-1.99979
-1.93932
-1.8422
-1.70407
-1.52328
-1.29337
-1.01121
-0.670377
-0.258626
-2.55445
-2.22861
-2.02234
-1.90974
-1.85917
-1.84468
-1.84542
-1.84819
-1.84295
-1.82079
-1.77901
-1.71096
-1.61351
-1.4823
-1.31572
-1.10833
-0.858323
-0.561813
-0.211627
-2.86439
-2.50866
-2.24094
-2.05377
-1.92995
-1.85009
-1.79601
-1.75437
-1.71455
-1.66702
-1.60803
-1.53058
-1.43107
-1.30497
-1.1504
-0.962421
-0.739671
-0.47953
-0.177645
-3.18005
-2.82098
-2.51479
-2.26895
-2.0793
-1.93493
-1.82281
-1.73153
-1.65118
-1.57237
-1.49062
-1.39879
-1.29269
-1.1675
-1.02084
-0.847843
-0.647017
-0.416153
-0.152211
-3.26587
-2.95455
-2.6553
-2.39072
-2.16795
-1.98438
-1.83288
-1.70532
-1.59372
-1.4898
-1.38917
-1.28505
-1.17313
-1.04861
-0.908791
-0.749003
-0.567571
-0.362466
-0.131284
-3.28648
-3.02747
-2.753
-2.48887
-2.24954
-2.03963
-1.85775
-1.69976
-1.56033
-1.4329
-1.31373
-1.19675
-1.07777
-0.952107
-0.816842
-0.667429
-0.501916
-0.318252
-0.114299
-3.27978
-3.06827
-2.82451
-2.57177
-2.32726
-2.10068
-1.89566
-1.71215
-1.54781
-1.39826
-1.26086
-1.1305
-1.0033
-0.87481
-0.741979
-0.600343
-0.447647
-0.281689
-0.100337
-3.19854
-3.03812
-2.83179
-2.60161
-2.36514
-2.13491
-1.91817
-1.71841
-1.53629
-1.36975
-1.21763
-1.07601
-0.941575
-0.810282
-0.679115
-0.543766
-0.401776
-0.250796
-0.0885992
-3.03989
-2.92805
-2.76285
-2.56353
-2.34645
-2.12509
-1.90875
-1.70356
-1.51274
-1.33644
-1.17509
-1.02612
-0.886988
-0.754217
-0.624996
-0.495281
-0.362558
-0.224443
-0.0786456
-2.85343
-2.77264
-2.64362
-2.47653
-2.28414
-2.0791
-1.87146
-1.669
-1.47683
-1.29703
-1.13151
-0.979027
-0.837892
-0.705254
-0.578578
-0.454121
-0.329425
-0.202209
-0.0702615
-2.69695
-2.64119
-2.53992
-2.39892
-2.22756
-2.03709
-1.83782
-1.63858
-1.44607
-1.26395
-1.09544
-0.940471
-0.798078
-0.665917
-0.541602
-0.421527
-0.303208
-0.184513
-0.0634931
-2.42463
-2.40188
-2.33281
-2.22417
-2.0831
-1.91881
-1.74072
-1.55767
-1.37706
-1.2036
-1.04148
-0.891713
-0.754087
-0.626867
-0.507915
-0.393752
-0.28184
-0.170296
-0.0579389
-2.12321
-2.12652
-2.08647
-2.00852
-1.89812
-1.76263
-1.61014
-1.44893
-1.28646
-1.12795
-0.978117
-0.838752
-0.710271
-0.591499
-0.480519
-0.373809
-0.268348
-0.161964
-0.0544103
-1.80886
-1.82897
-1.81299
-1.76298
-1.68234
-1.57655
-1.45231
-1.31693
-1.17751
-1.03929
-0.90706
-0.783025
-0.667997
-0.561322
-0.461392
-0.364628
-0.26698
-0.164411
-0.0554676
-1.46034
-1.48875
-1.49229
-1.46885
-1.41909
-1.3462
-1.25513
-1.15183
-1.04254
-0.932033
-0.824606
-0.722488
-0.626561
-0.536691
-0.451916
-0.369186
-0.283666
-0.188041
-0.0729198
-1.06706
-1.05164
-1.01731
-0.96468
-0.897533
-0.821068
-0.741286
-0.663397
-0.591686
-0.528313
-0.473509
-0.42597
-0.383336
-0.343297
-0.303855
-0.262642
-0.215905
-0.156207
-0.0699503
-0.713349
-0.793268
-0.88076
-0.961586
-1.02574
-1.06668
-1.08238
-1.07379
-1.04474
-0.999876
-0.943174
-0.878565
-0.808352
-0.735653
-0.663407
-0.594011
-0.526723
-0.456866
-0.371634
-0.241408
-0.279023
-0.328346
-0.381216
-0.431592
-0.47517
-0.510377
-0.536876
-0.55608
-0.569441
-0.576596
-0.577438
-0.569531
-0.552223
-0.526378
-0.496123
-0.46458
-0.435439
-0.409108
0.231409
0.184081
0.116972
0.0378062
-0.0462151
-0.129271
-0.20786
-0.280174
-0.346254
-0.406645
-0.460129
-0.505171
-0.537477
-0.553989
-0.553754
-0.541051
-0.520786
-0.499188
-0.478753
0.703468
0.638809
0.547669
0.438861
0.320587
0.199741
0.0810555
-0.0328901
-0.14151
-0.245139
-0.342585
-0.431563
-0.506224
-0.560463
-0.589917
-0.597153
-0.588038
-0.571602
-0.552929
1.13059
1.03905
0.918357
0.778994
0.629565
0.477243
0.326907
0.180951
0.0396551
-0.0979777
-0.23171
-0.359698
-0.475499
-0.570075
-0.634085
-0.665705
-0.669479
-0.657177
-0.637922
1.57414
1.44981
1.29608
1.12393
0.942342
0.758768
0.578071
0.40231
0.231266
0.0629903
-0.103769
-0.268883
-0.427054
-0.567829
-0.676471
-0.743748
-0.768351
-0.762588
-0.741203
1.91012
1.74807
1.56148
1.36118
1.15604
0.952755
0.75508
0.56386
0.377803
0.193638
0.00828621
-0.180876
-0.371826
-0.55591
-0.715228
-0.831794
-0.891704
-0.900242
-0.875013
2.22617
2.0317
1.81322
1.58574
1.35867
1.13787
0.925984
0.722785
0.526215
0.332122
0.136081
-0.0673857
-0.28109
-0.502392
-0.716287
-0.900713
-1.02531
-1.07544
-1.05979
2.52061
2.28398
2.03135
1.77802
1.53226
1.29823
1.07709
0.86749
0.666894
0.470842
0.274601
0.0711894
-0.146427
-0.383956
-0.636778
-0.891933
-1.11225
-1.25684
-1.28477
2.71467
2.41417
2.10969
1.81462
1.53484
1.2723
1.02651
0.795249
0.575673
0.363564
0.154506
-0.0582116
-0.283078
-0.531689
-0.812684
-1.13447
-1.48244
-1.82463
-2.10005
2.83884
2.51003
2.2008
1.91942
1.66594
1.43796
1.23173
1.0434
0.869456
0.706522
0.55208
0.403095
0.25611
0.105558
-0.0567511
-0.247576
-0.484103
-0.786275
-1.163
2.9341
2.59381
2.2945
2.03261
1.8017
1.59621
1.41079
1.2413
1.08454
0.93782
0.799754
0.669377
0.546148
0.430222
0.322548
0.222624
0.128956
0.0350396
-0.0718628
2.78605
2.39739
2.06955
1.78943
1.54673
1.33401
1.145
0.97501
0.820494
0.678404
0.547097
0.425399
0.312529
0.208574
0.114792
0.0325832
-0.0355728
-0.0869123
-0.120118
2.4531
2.09779
1.80318
1.55496
1.34256
1.15833
0.996135
0.851423
0.720871
0.601753
0.492578
0.392312
0.300147
0.215815
0.139607
0.0715214
0.0117512
-0.0394296
-0.0823872
2.04371
1.74423
1.49571
1.28718
1.10982
0.956929
0.823159
0.704481
0.598012
0.50138
0.413216
0.332527
0.25841
0.190352
0.128249
0.0717846
0.0208715
-0.0242817
-0.0639005
1.54226
1.31066
1.12056
0.962606
0.829406
0.715351
0.616125
0.528488
0.45016
0.379274
0.314716
0.255665
0.201339
0.151258
0.105274
0.0631257
0.0247799
-0.0094983
-0.0397763
0.972858
0.818322
0.695338
0.595118
0.51163
0.440697
0.379314
0.325296
0.277139
0.233625
0.194009
0.157744
0.124293
0.0933161
0.0646911
0.0382428
0.0139587
-0.00793984
-0.0274241
0.373957
0.311813
0.264086
0.225709
0.193842
0.166744
0.143254
0.122555
0.104093
0.0874163
0.0722386
0.0583397
0.0455001
0.0335667
0.0224593
0.0120814
0.00239389
-0.00654633
-0.0147321
-0.373777
-0.311417
-0.263546
-0.225077
-0.193156
-0.166031
-0.142537
-0.121853
-0.10342
-0.0867863
-0.0716625
-0.0578268
-0.0450588
-0.033204
-0.0221808
-0.0118915
-0.00229538
0.00655318
0.0146488
-0.972691
-0.817974
-0.694867
-0.59457
-0.511038
-0.440088
-0.378708
-0.324711
-0.276588
-0.23312
-0.193562
-0.157362
-0.123985
-0.0930878
-0.0645474
-0.0381872
-0.0139931
0.00781645
0.027215
-1.54209
-1.31033
-1.1201
-0.962064
-0.828809
-0.714726
-0.615491
-0.527862
-0.449557
-0.378708
-0.314195
-0.255199
-0.200933
-0.150916
-0.104998
-0.0629151
-0.0246324
0.00958716
0.0398124
-2.04359
-1.744
-1.49541
-1.28682
-1.10942
-0.956515
-0.822746
-0.704085
-0.597645
-0.501054
-0.412939
-0.332306
-0.25825
-0.190255
-0.128216
-0.0718113
-0.020954
0.0241496
0.0637256
-2.45303
-2.09765
-1.80298
-1.55471
-1.34228
-1.15803
-0.995836
-0.851134
-0.720606
-0.601524
-0.492395
-0.392182
-0.300074
-0.215802
-0.139652
-0.0716172
-0.011886
0.0392721
0.0822272
-2.78605
-2.39737
-2.06949
-1.78932
-1.54659
-1.33386
-1.14485
-0.974878
-0.820395
-0.678352
-0.547104
-0.425477
-0.312688
-0.208823
-0.115129
-0.0329955
0.0351237
0.0864909
0.119799
-2.9341
-2.59358
-2.29396
-2.03171
-1.80046
-1.59464
-1.40891
-1.23916
-1.08217
-0.935251
-0.797015
-0.666489
-0.543125
-0.427075
-0.319303
-0.219364
-0.125886
-0.0325896
0.0729814
-2.83937
-2.51141
-2.20308
-1.92257
-1.66994
-1.44274
-1.23722
-1.04955
-0.876206
-0.713838
-0.559952
-0.411555
-0.265247
-0.115556
0.0456041
0.23486
0.469411
0.769438
1.14445
-2.71446
-2.41361
-2.1087
-1.8132
-1.533
-1.27008
-1.02395
-0.792397
-0.572587
-0.3603
-0.151121
0.061658
0.28652
0.535076
0.816035
1.13797
1.48658
1.83027
2.10834
-2.52079
-2.28441
-2.03199
-1.77882
-1.53319
-1.29927
-1.07819
-0.868651
-0.6681
-0.472093
-0.275904
-0.0725567
0.144998
0.382516
0.635471
0.89103
1.11208
1.25759
1.28618
-2.22628
-2.03197
-1.81363
-1.58625
-1.35925
-1.13852
-0.926672
-0.723507
-0.526968
-0.332904
-0.136891
0.0665606
0.280293
0.501721
0.715898
0.900782
1.02592
1.07652
1.06109
-1.91024
-1.74834
-1.56189
-1.3617
-1.15664
-0.953417
-0.755782
-0.564587
-0.378542
-0.194377
-0.00900868
0.180204
0.371265
0.555556
0.715183
0.832122
0.892369
0.901115
0.875945
-1.57425
-1.45008
-1.29649
-1.12446
-0.942961
-0.759451
-0.578791
-0.403044
-0.231993
-0.063688
0.103128
0.268339
0.426668
0.567668
0.676581
0.744125
0.768928
0.763273
0.741929
-1.13069
-1.03929
-0.918742
-0.779496
-0.630157
-0.477893
-0.327585
-0.18163
-0.0403088
0.0973761
0.231191
0.359301
0.47527
0.570049
0.634274
0.666078
0.669977
0.657743
0.638526
-0.703571
-0.639065
-0.548069
-0.439383
-0.321198
-0.200408
-0.0817414
0.0322185
0.140884
0.244588
0.342139
0.431255
0.506082
0.560502
0.590126
0.597498
0.588475
0.572096
0.553467
-0.231497
-0.184322
-0.117358
-0.0383121
0.0456229
0.128631
0.207213
0.279556
0.345698
0.406181
0.459781
0.504963
0.537421
0.554086
0.553984
0.541385
0.521196
0.499655
0.479276
0.241202
0.278402
0.327288
0.379749
0.429785
0.47312
0.508195
0.534674
0.553958
0.567484
0.574864
0.575975
0.568351
0.551317
0.525714
0.495673
0.464327
0.435415
0.409426
0.713493
0.793818
0.881817
0.963189
1.02788
1.06926
1.08532
1.07695
1.048
1.00313
0.94632
0.881543
0.81112
0.7382
0.66574
0.596158
0.528712
0.458721
0.373354
1.06691
1.05109
1.01635
0.963355
0.895914
0.819249
0.739373
0.661487
0.589858
0.52663
0.472009
0.424672
0.382243
0.3424
0.303135
0.262082
0.215488
0.15593
0.069831
1.46042
1.48893
1.49256
1.4692
1.41949
1.34662
1.25555
1.15221
1.04287
0.932304
0.824814
0.722639
0.626663
0.536753
0.451948
0.369196
0.28366
0.188027
0.0729121
1.80888
1.829
1.81302
1.76302
1.68238
1.57659
1.45234
1.31696
1.17752
1.03929
0.907055
0.783012
0.667978
0.5613
0.46137
0.364606
0.266961
0.164398
0.0554646
2.12323
2.12654
2.0865
2.00855
1.89815
1.76266
1.61016
1.44895
1.28646
1.12794
0.978107
0.838737
0.710253
0.59148
0.480501
0.373793
0.268336
0.161957
0.0544085
2.42464
2.4019
2.33282
2.22419
2.08312
1.91883
1.74073
1.55768
1.37706
1.20359
1.04147
0.891698
0.75407
0.626851
0.5079
0.39374
0.281831
0.170291
0.0579375
2.69697
2.64121
2.53994
2.39894
2.22758
2.03711
1.83783
1.63858
1.44606
1.26395
1.09543
0.940457
0.798063
0.665903
0.54159
0.421517
0.303202
0.184509
0.0634919
2.85344
2.77265
2.64363
2.47654
2.28415
2.0791
1.87147
1.669
1.47682
1.29702
1.1315
0.979013
0.837879
0.705242
0.578567
0.454112
0.329419
0.202206
0.0702605
3.0399
2.92806
2.76286
2.56354
2.34646
2.12509
1.90875
1.70356
1.51273
1.33643
1.17508
1.02611
0.886976
0.754206
0.624986
0.495273
0.362552
0.22444
0.0786447
3.19855
3.03814
2.8318
2.60162
2.36515
2.13491
1.91817
1.7184
1.53628
1.36974
1.21762
1.076
0.941564
0.810272
0.679106
0.543758
0.40177
0.250793
0.0885985
3.27978
3.06828
2.82451
2.57178
2.32726
2.10068
1.89566
1.71214
1.5478
1.39824
1.26084
1.13049
1.00329
0.8748
0.74197
0.600335
0.447642
0.281686
0.100337
3.28648
3.02748
2.75301
2.48888
2.24954
2.03962
1.85774
1.69976
1.56032
1.43289
1.31371
1.19674
1.07776
0.952097
0.816833
0.667422
0.501911
0.31825
0.114299
3.26588
2.95456
2.65532
2.39073
2.16795
1.98438
1.83287
1.70531
1.59372
1.4898
1.38916
1.28504
1.17312
1.0486
0.908784
0.748999
0.567568
0.362465
0.131284
3.18004
2.82098
2.51479
2.26894
2.07929
1.93492
1.8228
1.73152
1.65117
1.57235
1.49061
1.39877
1.29268
1.16749
1.02084
0.847839
0.647015
0.416154
0.152212
2.86441
2.50867
2.24095
2.05377
1.92995
1.85009
1.796
1.75437
1.71454
1.66701
1.60802
1.53058
1.43106
1.30496
1.1504
0.962421
0.739673
0.479532
0.177647
2.55448
2.22863
2.02235
1.90975
1.85917
1.84467
1.84541
1.84818
1.84294
1.82078
1.779
1.71095
1.61351
1.4823
1.31573
1.10833
0.858328
0.561817
0.211629
2.17424
1.91796
1.81339
1.80131
1.83747
1.894
1.95096
1.9974
2.02507
2.02637
1.99979
1.93931
1.8422
1.70408
1.52328
1.29338
1.01122
0.670382
0.258628
1.5417
1.47285
1.53971
1.66743
1.81298
1.95424
2.07656
2.17303
2.23828
2.26681
2.25824
2.20783
2.1131
1.96972
1.77563
1.52302
1.20608
0.814013
0.325609
0.931023
1.1257
1.38483
1.65117
1.89823
2.115
2.29481
2.43501
2.53341
2.58676
2.59513
2.55545
2.46483
2.31855
2.11304
1.83798
1.48209
1.02628
0.432705
0.348655
0.845115
1.30134
1.70233
2.04695
2.33662
2.57359
2.75882
2.89334
2.97654
3.00815
2.98746
2.91057
2.77198
2.56526
2.27588
1.88273
1.35176
0.615767
-0.0887764
0.6834
1.31082
1.82898
2.26171
2.61987
2.91391
3.14719
3.32393
3.44667
3.51408
3.52887
3.4856
3.37769
3.194
2.91342
2.49789
1.8868
0.961252
-0.298938
0.653587
1.40473
2.01678
2.52738
2.9508
3.30407
3.59182
3.8218
4.00072
4.12623
4.20613
4.23389
4.20257
4.09487
3.8805
3.49449
2.83056
1.68178
-0.264271
0.740904
1.56193
2.24446
2.8234
3.30998
3.72594
4.07712
4.37574
4.63496
4.85297
5.04584
5.2096
5.34138
5.41947
5.40601
5.19971
4.62336
3.32956
-0.0475725
0.906013
1.75421
2.48888
3.12789
3.67533
4.15637
4.57995
4.96435
5.33399
5.69162
6.0677
6.47327
6.9247
7.41013
7.90753
8.29028
8.30056
7.39158
0.21679
1.08816
1.94988
2.72913
3.42158
4.02583
4.56976
5.07129
5.55482
6.06727
6.62176
7.27478
8.09298
9.17361
10.6318
12.758
16.0016
21.3335
30.7611
)
;

boundaryField
{
    up
    {
        type            calculated;
        value           nonuniform List<scalar> 
84
(
-30.7611
-7.39158
-3.32956
-1.68178
-0.961254
-0.615768
-0.432706
-0.325608
-0.258626
-0.211627
-0.177645
-0.152211
-0.131284
-0.114299
-0.100337
-0.0885992
-0.0786456
-0.0702615
-0.0634931
-0.0579389
-0.0544103
-0.0554676
-0.0729198
-0.0699503
-0.318084
-0.382992
-0.452845
-0.524689
-0.605741
-0.703107
-0.826472
-0.985893
-1.1703
-2.08109
-1.20378
-0.0741827
-0.11997
-0.0822367
-0.0638131
-0.0397474
-0.0274161
-0.0147363
0.014653
0.0272073
0.0397839
0.0636389
0.0820775
0.119651
0.0752702
1.1847
2.09092
1.17156
0.98703
0.82734
0.703802
0.606329
0.525221
0.453373
0.383469
0.319648
0.069831
0.0729121
0.0554646
0.0544085
0.0579375
0.0634919
0.0702605
0.0786447
0.0885985
0.100337
0.114299
0.131284
0.152212
0.177647
0.211629
0.258628
0.325609
0.432705
0.615767
0.961252
1.68178
3.32956
7.39158
30.7611
)
;
    }
    low
    {
        type            calculated;
        value           nonuniform List<scalar> 
84
(
-0.195457
0.079703
0.316357
0.355792
0.124669
-0.35531
-0.986089
-1.6345
-2.28175
-2.64263
-2.94122
-3.24072
-3.28954
-3.28704
-3.26555
-3.16338
-2.98713
-2.79617
-2.62906
-2.33743
-2.02723
-1.71197
-1.36663
-0.985521
-0.650099
-0.218662
0.205503
0.638841
1.04713
1.48974
1.83975
2.16778
2.48022
2.69829
2.84192
2.96044
2.83738
2.50946
2.09478
1.58339
1.00032
0.3855
-0.385319
-1.00015
-1.58321
-2.09464
-2.50936
-2.83735
-2.96041
-2.84236
-2.6981
-2.48037
-2.16788
-1.83986
-1.48985
-1.04723
-0.63895
-0.205593
0.218462
0.65024
0.985379
1.36671
1.71199
2.02725
2.33744
2.62908
2.79618
2.98713
3.16339
3.26555
3.28704
3.28955
3.24071
2.94123
2.64266
2.28177
1.63452
0.986105
0.355321
-0.124663
-0.355793
-0.316361
-0.0797058
0.195458
)
;
    }
    left
    {
        type            calculated;
        value           nonuniform List<scalar> 
19
(
-0.1923
-1.04431
-1.92329
-2.72922
-3.45124
-4.08356
-4.65624
-5.19026
-5.70995
-6.27434
-6.89605
-7.63883
-8.59008
-9.88049
-11.655
-14.3229
-18.5076
-25.5652
-26.6803
)
;
    }
    right
    {
        type            calculated;
        value           nonuniform List<scalar> 
19
(
0.192302
1.04431
1.92329
2.72922
3.45124
4.08356
4.65624
5.19026
5.70995
6.27434
6.89604
7.63882
8.59007
9.88047
11.655
14.3229
18.5076
25.5652
26.6803
)
;
    }
    frontAndBackPlanes
    {
        type            empty;
    }
}


// ************************************************************************* //
