/*--------------------------------*- C++ -*----------------------------------*\
  =========                 |
  \\      /  F ield         | OpenFOAM: The Open Source CFD Toolbox
   \\    /   O peration     | Website:  https://openfoam.org
    \\  /    A nd           | Version:  7
     \\/     M anipulation  |
\*---------------------------------------------------------------------------*/
FoamFile
{
    version     2.0;
    format      ascii;
    class       volScalarField;
    location    "0.272";
    object      T;
}
// * * * * * * * * * * * * * * * * * * * * * * * * * * * * * * * * * * * * * //

dimensions      [0 0 0 1 0 0 0];

internalField   nonuniform List<scalar> 
1596
(
4.98734
4.95101
4.91378
4.8784
4.84555
4.8148
4.78548
4.75609
4.72553
4.69127
4.65133
4.60303
4.54033
4.45478
4.33316
4.14598
3.83815
3.29956
2.30956
4.94524
4.83211
4.72519
4.62652
4.53592
4.45177
4.3721
4.29374
4.21397
4.12808
4.03211
3.92127
3.78668
3.61736
3.39962
3.10737
2.70007
2.10789
1.19855
4.89541
4.70508
4.5336
4.37878
4.23818
4.1088
3.98752
3.87018
3.75313
3.63082
3.49859
3.3511
3.17951
2.97371
2.72258
2.40673
1.99941
1.45928
0.709176
4.84614
4.58344
4.3537
4.14953
3.96596
3.79862
3.64343
3.49567
3.35118
3.20419
3.04994
2.88318
2.69586
2.47941
2.22524
1.91939
1.54455
1.07658
0.470638
4.80514
4.47977
4.19899
3.95175
3.7311
3.53159
3.34847
3.17669
3.01184
2.84818
2.68107
2.50547
2.31419
2.09993
1.85597
1.572
1.23648
0.835085
0.341239
4.77748
4.40268
4.07878
3.79415
3.54106
3.31358
3.10661
2.91495
2.73411
2.5585
2.38359
2.20456
2.01489
1.80819
1.57891
1.31903
1.02041
0.674139
0.263862
4.76388
4.3546
3.99607
3.67935
3.39755
3.14501
2.91666
2.70742
2.51286
2.32751
2.14703
1.96675
1.78059
1.58277
1.36841
1.1309
0.864023
0.561854
0.213731
4.76146
4.33212
3.9477
3.60417
3.29696
3.02152
2.77332
2.54763
2.34022
2.14586
1.96034
1.77912
1.59643
1.40685
1.2059
0.987761
0.747322
0.480244
0.17908
4.76734
4.33036
3.92833
3.56317
3.23365
2.93712
2.67006
2.42839
2.20826
2.00475
1.81382
1.63103
1.45085
1.26808
1.07841
0.876481
0.657788
0.418808
0.153893
4.77541
4.339
3.92667
3.5452
3.1969
2.88143
2.59675
2.33969
2.10698
1.89413
1.6973
1.51221
1.33349
1.15608
0.975725
0.787337
0.586696
0.370671
0.134651
4.78197
4.34966
3.93235
3.53942
3.17609
2.84431
2.54372
2.2723
2.02752
1.80541
1.60246
1.41454
1.23645
1.06323
0.890637
0.713706
0.528345
0.331557
0.119306
4.79019
4.36428
3.94513
3.54404
3.16848
2.8225
2.50741
2.22245
1.96598
1.73464
1.52528
1.334
1.15574
0.985632
0.819402
0.652127
0.479733
0.299206
0.10679
4.79806
4.37975
3.96082
3.554
3.16853
2.81028
2.48215
2.18464
1.91707
1.67675
1.46097
1.26606
1.08713
0.919369
0.758467
0.599484
0.438297
0.271782
0.0963025
4.803
4.39123
3.97354
3.56287
3.1696
2.80106
2.46157
2.15285
1.87517
1.62655
1.40476
1.20637
1.02667
0.860924
0.704752
0.553178
0.401984
0.247889
0.0872638
4.80722
4.40058
3.98401
3.5703
3.17053
2.79311
2.44358
2.12479
1.83792
1.5817
1.35435
1.15274
0.972332
0.808425
0.65659
0.511779
0.369655
0.226741
0.0793433
4.81134
4.40898
3.99307
3.5765
3.17086
2.78543
2.4268
2.09883
1.80354
1.54034
1.30793
1.10342
0.922454
0.760359
0.612636
0.474146
0.340406
0.207724
0.0722923
4.81425
4.41514
3.99938
3.57992
3.16878
2.776
2.40907
2.07275
1.76984
1.50039
1.2635
1.05656
0.875345
0.715213
0.571579
0.439192
0.313404
0.190289
0.0658957
4.81637
4.41948
4.00331
3.58074
3.16423
2.76449
2.38981
2.04577
1.7359
1.46081
1.22001
1.0111
0.829973
0.672013
0.532534
0.406163
0.288062
0.174051
0.060001
4.82019
4.42594
4.00904
3.58298
3.16078
2.75389
2.37141
2.01972
1.70303
1.42248
1.17794
0.967202
0.786265
0.630506
0.495144
0.374669
0.264036
0.158771
0.0545161
4.82483
4.43415
4.01669
3.58695
3.15878
2.74449
2.35404
1.99462
1.67108
1.3851
1.13685
0.924325
0.743578
0.589983
0.458666
0.344003
0.240737
0.144066
0.049311
4.82837
4.44132
4.02359
3.5903
3.15621
2.73455
2.3362
1.96913
1.63887
1.34758
1.09573
0.881471
0.700922
0.549438
0.422083
0.313172
0.217305
0.129357
0.0441975
4.83192
4.44842
4.03055
3.59385
3.15389
2.72487
2.31858
1.94385
1.60681
1.31014
1.0546
0.838456
0.657892
0.508245
0.384544
0.28113
0.192629
0.113761
0.0388655
4.83598
4.4563
4.0384
3.59834
3.15253
2.71611
2.30183
1.91929
1.5753
1.27299
1.01341
0.794984
0.61394
0.465587
0.344923
0.246388
0.164873
0.0954387
0.032432
4.84026
4.46452
4.04656
3.60313
3.15149
2.70772
2.28543
1.89504
1.54389
1.23561
0.971523
0.750223
0.568025
0.420202
0.301672
0.206929
0.131253
0.0706457
0.0213435
4.84697
4.48135
4.07082
3.63212
3.1826
2.73853
2.31383
1.91927
1.56268
1.24814
0.977594
0.750206
0.562796
0.410976
0.289844
0.193893
0.118494
0.0600747
0.0159919
4.85433
4.50281
4.1057
3.67898
3.23925
2.80212
2.38113
1.98697
1.62759
1.3076
1.02957
0.793618
0.597518
0.437703
0.309787
0.208397
0.128648
0.0664945
0.0185802
4.85797
4.51546
4.12844
3.71202
3.28183
2.85261
2.43718
2.04573
1.68604
1.36281
1.07907
0.835695
0.631412
0.463638
0.328743
0.221683
0.137482
0.0717341
0.0205325
4.85795
4.51896
4.13832
3.73018
3.30905
2.8885
2.48032
2.09389
1.73643
1.41242
1.12502
0.875659
0.663948
0.488391
0.346388
0.233495
0.144849
0.0757721
0.0218997
4.8555
4.5159
4.13883
3.73748
3.32508
2.91387
2.51438
2.13489
1.78181
1.45916
1.16994
0.915881
0.697303
0.513835
0.364175
0.244864
0.151448
0.0790815
0.0229083
4.85088
4.50796
4.1329
3.73767
3.33411
2.93299
2.54342
2.17247
1.82561
1.50617
1.21682
0.959274
0.734311
0.542546
0.384159
0.25716
0.158039
0.0820359
0.0236999
4.84504
4.49796
4.12457
3.73551
3.34119
2.95087
2.57222
2.21107
1.87189
1.55725
1.26933
1.00959
0.778867
0.5784
0.409757
0.272835
0.165925
0.085106
0.0243883
4.84043
4.49001
4.11873
3.73625
3.3516
2.97262
2.60558
2.25511
1.92474
1.61631
1.33142
1.07111
0.835862
0.626919
0.446643
0.296725
0.178103
0.0892938
0.0249935
4.83605
4.48294
4.11452
3.73939
3.36523
2.99843
2.64394
2.30529
1.98515
1.68471
1.40509
1.14685
0.909855
0.694707
0.503467
0.338454
0.202864
0.0990703
0.0256153
4.83178
4.47687
4.11242
3.74576
3.38315
3.02956
2.68872
2.36314
2.0548
1.76438
1.49268
1.23996
1.00561
0.789363
0.592112
0.414992
0.260856
0.134022
0.0368632
4.82674
4.4686
4.10636
3.74622
3.39307
3.05061
2.72151
2.40745
2.10981
1.82894
1.56543
1.31948
1.09037
0.877487
0.68076
0.499552
0.334077
0.186249
0.0577048
4.81809
4.44993
4.08324
3.72284
3.37236
3.03439
2.71072
2.40235
2.11017
1.83414
1.57472
1.33203
1.10539
0.894306
0.698871
0.518353
0.352482
0.201749
0.0654095
4.80679
4.4245
4.04958
3.68513
3.33345
2.99616
2.67424
2.36812
2.07824
1.80427
1.5465
1.30504
1.07927
0.8689
0.674438
0.495658
0.333002
0.187749
0.0596964
4.79722
4.40309
4.02134
3.65356
3.30093
2.96425
2.64386
2.3397
2.0519
1.77989
1.52391
1.28407
1.05981
0.851
0.658371
0.481884
0.322164
0.180626
0.0571049
4.79031
4.3871
3.99992
3.62938
3.27587
2.93954
2.62026
2.31758
2.03142
1.76103
1.50659
1.26822
1.0454
0.838073
0.647081
0.472468
0.314941
0.175998
0.0554983
4.785
4.37486
3.98353
3.61088
3.25667
2.9206
2.60216
2.30062
2.01573
1.74663
1.49344
1.25629
1.03466
0.82855
0.638854
0.46567
0.309761
0.172701
0.0543723
4.78114
4.36595
3.97167
3.59756
3.24292
2.90707
2.58924
2.28855
2.00459
1.73642
1.48415
1.24789
1.02713
0.821889
0.633105
0.460912
0.306121
0.170367
0.0535688
4.77803
4.35965
3.96381
3.58909
3.23441
2.89887
2.58155
2.28145
1.99813
1.7306
1.47894
1.24327
1.02307
0.818376
0.630144
0.458519
0.30433
0.169245
0.0531962
4.77804
4.35967
3.96384
3.58912
3.23444
2.8989
2.58158
2.28149
1.99816
1.73063
1.47897
1.2433
1.0231
0.818395
0.63016
0.458532
0.304339
0.16925
0.053198
4.78116
4.366
3.97174
3.59764
3.24301
2.90717
2.58934
2.28864
2.00468
1.73652
1.48424
1.24797
1.0272
0.821951
0.633158
0.460954
0.306151
0.170386
0.0535753
4.78504
4.37494
3.98364
3.61101
3.25682
2.92076
2.60231
2.30078
2.01588
1.74678
1.49358
1.25642
1.03477
0.828646
0.638934
0.465733
0.309807
0.172728
0.0543816
4.79035
4.3872
4.00007
3.62955
3.27606
2.93974
2.62046
2.31779
2.03162
1.76122
1.50676
1.26838
1.04554
0.838196
0.647182
0.472547
0.314997
0.176032
0.0555096
4.79727
4.40321
4.02152
3.65377
3.30116
2.9645
2.64411
2.33995
2.05214
1.78012
1.52412
1.28426
1.05998
0.851146
0.65849
0.481975
0.322228
0.180664
0.0571172
4.80684
4.42464
4.04978
3.68537
3.33372
2.99644
2.67453
2.36841
2.07852
1.80453
1.54674
1.30526
1.07945
0.869055
0.67456
0.495746
0.33306
0.18778
0.0597047
4.81815
4.45008
4.08346
3.72311
3.37266
3.03471
2.71105
2.40267
2.11047
1.83443
1.57498
1.33225
1.10557
0.894442
0.698959
0.518396
0.352488
0.201736
0.0653983
4.82681
4.46882
4.10672
3.74669
3.39364
3.05126
2.72221
2.4082
2.11059
1.82974
1.56623
1.32029
1.09117
0.878274
0.681526
0.50028
0.334727
0.186742
0.0579193
4.83187
4.47713
4.11284
3.74633
3.38385
3.03037
2.68961
2.36411
2.05582
1.76544
1.49375
1.24104
1.00668
0.790405
0.593093
0.415864
0.261556
0.134481
0.0370299
4.83613
4.48316
4.11489
3.73989
3.36584
2.99913
2.64472
2.30613
1.98602
1.6856
1.40599
1.14773
0.910696
0.695481
0.504138
0.338982
0.203218
0.0992465
0.0256495
4.8405
4.49022
4.11908
3.73671
3.35218
2.97328
2.60632
2.2559
1.92555
1.61713
1.33223
1.07188
0.836575
0.627542
0.447148
0.297092
0.17833
0.0894039
0.0250219
4.8451
4.49814
4.12488
3.73595
3.34173
2.95149
2.57291
2.21181
1.87264
1.55801
1.27006
1.01027
0.779473
0.578909
0.410154
0.273114
0.166097
0.0851936
0.0244133
4.85093
4.50813
4.13319
3.73807
3.33461
2.93357
2.54406
2.17315
1.82631
1.50686
1.21747
0.959871
0.734831
0.542973
0.384485
0.257388
0.158183
0.0821118
0.0237226
4.85555
4.51605
4.13909
3.73784
3.32554
2.91441
2.51497
2.13551
1.78245
1.45978
1.17053
0.916407
0.697754
0.5142
0.364452
0.24506
0.151574
0.0791501
0.0229297
4.85798
4.51909
4.13855
3.73051
3.30946
2.88898
2.48086
2.09446
1.737
1.41298
1.12554
0.876122
0.664341
0.488708
0.34663
0.233669
0.144963
0.0758365
0.0219208
4.858
4.51557
4.12864
3.7123
3.2822
2.85304
2.43767
2.04624
1.68656
1.36331
1.07953
0.836104
0.631759
0.463918
0.328959
0.221841
0.13759
0.0717976
0.0205549
4.85435
4.5029
4.10587
3.67924
3.23958
2.8025
2.38156
1.98742
1.62805
1.30804
1.02997
0.793979
0.597825
0.437954
0.309984
0.208545
0.128754
0.0665606
0.0186058
4.84697
4.48136
4.07086
3.63218
3.18269
2.73863
2.31395
1.9194
1.56281
1.24826
0.9777
0.750294
0.562863
0.411022
0.28987
0.193903
0.118492
0.0600666
0.0159859
4.84024
4.46449
4.04651
3.60307
3.15142
2.70763
2.28534
1.89494
1.5438
1.23552
0.971438
0.750143
0.567952
0.420134
0.301611
0.206875
0.131208
0.0706134
0.0213287
4.83598
4.45629
4.03838
3.59832
3.15251
2.7161
2.30181
1.91928
1.57529
1.27299
1.01341
0.794989
0.613948
0.465596
0.344933
0.246397
0.164881
0.0954441
0.0324336
4.83192
4.44842
4.03054
3.59383
3.15387
2.72486
2.31857
1.94384
1.60681
1.31014
1.0546
0.838462
0.6579
0.508253
0.384552
0.281137
0.192635
0.113764
0.0388664
4.82837
4.44132
4.02359
3.59029
3.1562
2.73455
2.33619
1.96913
1.63887
1.34758
1.09574
0.881477
0.700928
0.549445
0.42209
0.313177
0.217309
0.12936
0.0441981
4.82482
4.43414
4.01669
3.58694
3.15877
2.74448
2.35404
1.99462
1.67108
1.38511
1.13686
0.92433
0.743583
0.589988
0.458671
0.344007
0.24074
0.144067
0.0493114
4.82019
4.42593
4.00904
3.58298
3.16077
2.75388
2.37141
2.01973
1.70303
1.42249
1.17794
0.967206
0.786269
0.630511
0.495147
0.374672
0.264038
0.158772
0.0545164
4.81637
4.41948
4.0033
3.58074
3.16423
2.76449
2.38981
2.04577
1.7359
1.46082
1.22001
1.0111
0.829977
0.672016
0.532536
0.406164
0.288063
0.174051
0.0600012
4.81425
4.41514
3.99938
3.57991
3.16878
2.776
2.40908
2.07275
1.76984
1.50039
1.2635
1.05657
0.875348
0.715215
0.57158
0.439193
0.313405
0.19029
0.0658958
4.81134
4.40898
3.99307
3.5765
3.17086
2.78543
2.4268
2.09883
1.80354
1.54035
1.30793
1.10343
0.922455
0.76036
0.612637
0.474146
0.340406
0.207724
0.0722923
4.80722
4.40058
3.98401
3.5703
3.17054
2.79311
2.44359
2.1248
1.83792
1.5817
1.35435
1.15274
0.972332
0.808426
0.65659
0.511779
0.369654
0.226741
0.0793432
4.803
4.39123
3.97355
3.56287
3.16961
2.80106
2.46157
2.15285
1.87517
1.62655
1.40476
1.20637
1.02667
0.860923
0.704751
0.553177
0.401983
0.247889
0.0872637
4.79806
4.37975
3.96083
3.554
3.16853
2.81028
2.48215
2.18464
1.91707
1.67675
1.46097
1.26606
1.08713
0.919367
0.758465
0.599483
0.438296
0.271782
0.0963025
4.79019
4.36428
3.94513
3.54404
3.16848
2.8225
2.50741
2.22245
1.96598
1.73463
1.52528
1.334
1.15574
0.985629
0.8194
0.652125
0.479732
0.299205
0.10679
4.78197
4.34966
3.93235
3.53942
3.17609
2.84431
2.54372
2.2723
2.02751
1.8054
1.60246
1.41454
1.23644
1.06322
0.890635
0.713705
0.528344
0.331556
0.119306
4.77541
4.33901
3.92668
3.5452
3.1969
2.88143
2.59674
2.33969
2.10698
1.89412
1.6973
1.51221
1.33349
1.15607
0.975723
0.787336
0.586696
0.370671
0.134651
4.76734
4.33036
3.92833
3.56317
3.23365
2.93711
2.67005
2.42839
2.20825
2.00474
1.81381
1.63103
1.45085
1.26808
1.0784
0.87648
0.657788
0.418808
0.153894
4.76146
4.33212
3.94769
3.60417
3.29695
3.02151
2.77331
2.54763
2.34021
2.14586
1.96034
1.77911
1.59642
1.40685
1.2059
0.987761
0.747322
0.480245
0.179081
4.76388
4.3546
3.99607
3.67935
3.39755
3.145
2.91665
2.70742
2.51285
2.32751
2.14703
1.96675
1.78059
1.58276
1.36841
1.1309
0.864023
0.561855
0.213731
4.77748
4.40267
4.07878
3.79414
3.54105
3.31358
3.1066
2.91494
2.73411
2.55849
2.38358
2.20456
2.01489
1.80819
1.57891
1.31903
1.02041
0.67414
0.263862
4.80514
4.47977
4.19899
3.95175
3.73109
3.53158
3.34847
3.17669
3.01184
2.84818
2.68107
2.50546
2.31419
2.09993
1.85597
1.572
1.23648
0.835085
0.34124
4.84614
4.58344
4.3537
4.14952
3.96596
3.79861
3.64342
3.49567
3.35117
3.20418
3.04994
2.88317
2.69586
2.47941
2.22524
1.91939
1.54455
1.07658
0.470637
4.89541
4.70507
4.5336
4.37877
4.23817
4.1088
3.98751
3.87018
3.75312
3.63081
3.49859
3.3511
3.17951
2.97371
2.72258
2.40673
1.99941
1.45928
0.709176
4.94524
4.83211
4.72518
4.62652
4.53592
4.45177
4.3721
4.29374
4.21396
4.12808
4.03211
3.92127
3.78668
3.61736
3.39962
3.10737
2.70007
2.10789
1.19855
4.98734
4.95101
4.91378
4.8784
4.84555
4.8148
4.78548
4.75609
4.72553
4.69127
4.65133
4.60303
4.54033
4.45478
4.33316
4.14598
3.83815
3.29955
2.30956
)
;

boundaryField
{
    up
    {
        type            fixedValue;
        value           uniform 0;
    }
    low
    {
        type            fixedValue;
        value           uniform 5;
    }
    left
    {
        type            fixedValue;
        value           uniform 5;
    }
    right
    {
        type            fixedValue;
        value           uniform 5;
    }
    frontAndBackPlanes
    {
        type            empty;
    }
}


// ************************************************************************* //
