/*--------------------------------*- C++ -*----------------------------------*\
  =========                 |
  \\      /  F ield         | OpenFOAM: The Open Source CFD Toolbox
   \\    /   O peration     | Website:  https://openfoam.org
    \\  /    A nd           | Version:  7
     \\/     M anipulation  |
\*---------------------------------------------------------------------------*/
FoamFile
{
    version     2.0;
    format      ascii;
    class       volScalarField;
    location    "0.28";
    object      gradTz;
}
// * * * * * * * * * * * * * * * * * * * * * * * * * * * * * * * * * * * * * //

dimensions      [0 -1 0 1 0 0 0];

internalField   nonuniform List<scalar> 
1596
(
-1.6137e-16
-7.85651e-17
7.97013e-17
1.61638e-18
-1.5216e-16
0
-7.12471e-17
-7.02514e-17
-4.49342e-18
-3.69184e-17
-3.49034e-19
-3.66999e-17
1.61318e-16
-3.6268e-17
1.69531e-16
1.46244e-16
8.69734e-17
1.09804e-16
0
1.61358e-16
0
2.28131e-16
-1.50185e-18
-7.01865e-17
6.96078e-17
1.4307e-16
4.267e-18
6.78595e-17
-3.26691e-17
6.51634e-17
-1.0151e-18
-9.03482e-17
-5.63975e-17
-1.3708e-16
-1.33687e-16
-1.21593e-16
6.91895e-17
0
-7.92798e-17
0
-1.49161e-16
2.38619e-18
1.37367e-16
-3.82868e-17
2.79741e-18
-9.59003e-19
-9.86658e-19
-1.05892e-18
2.49181e-17
0
4.68714e-17
1.33053e-16
-1.31051e-17
1.05244e-17
2.47648e-17
3.86024e-17
0
1.24342e-16
-3.76074e-17
3.74701e-17
0
-3.61144e-17
-3.72784e-17
6.39365e-17
-5.61612e-17
0
0
-1.97708e-17
1.30049e-17
0
-3.92472e-17
-5.01324e-17
3.4619e-17
-3.54283e-17
-1.82381e-18
0
2.16999e-17
5.81269e-17
-5.27586e-17
0
-1.56689e-17
-4.76115e-17
0
7.13847e-17
-7.12553e-18
-6.45041e-18
-5.85985e-18
3.72705e-17
4.56644e-17
4.68954e-18
1.43806e-18
-3.74343e-17
1.88824e-18
1.73245e-17
-7.43648e-18
-5.63511e-18
-7.98104e-17
7.62707e-17
-6.70071e-17
-1.32357e-19
-5.97644e-17
1.68774e-18
-1.69334e-18
-4.75144e-17
0
-4.83365e-18
-4.40431e-17
-4.12637e-17
3.36845e-17
3.46252e-17
-4.73408e-19
-2.0755e-17
-1.7572e-17
1.34226e-17
4.70936e-17
-8.13952e-17
9.18683e-17
5.16152e-17
0
4.58355e-17
2.71228e-17
-1.30836e-17
6.03075e-17
-1.13618e-17
-4.78766e-17
4.44211e-19
-2.85042e-17
-3.38473e-17
-2.65777e-17
2.25373e-17
2.09377e-17
-2.79136e-19
-5.60755e-18
4.39382e-18
1.29166e-16
-1.5309e-16
0
0
-5.71666e-17
0
0
0
3.99699e-17
0
0
2.61123e-17
9.99716e-19
6.90427e-18
-1.9685e-17
0
1.04781e-17
4.06909e-18
0
-8.41292e-17
1.62142e-16
0
0
5.88736e-17
0
-2.27791e-17
2.2756e-17
-4.06835e-17
1.70224e-17
-1.71469e-17
0
2.47727e-17
2.38238e-17
0
-1.37599e-17
-1.07076e-17
-3.55143e-18
2.00869e-16
-9.42985e-17
0
-6.82448e-17
6.74811e-17
0
5.09338e-17
0
0
0
1.5844e-17
-1.59199e-17
0
-1.91149e-17
-5.49677e-18
0
1.36387e-18
7.88134e-18
0
-5.09836e-17
0
0
6.84238e-17
-1.28144e-16
6.20308e-18
2.4066e-18
-2.12032e-17
2.26116e-18
7.4519e-19
-1.6696e-17
-2.70662e-17
0
2.04773e-17
-4.06274e-18
4.12372e-18
1.06496e-17
-6.17456e-18
-2.85658e-18
4.2905e-17
-4.2934e-18
4.1176e-17
1.41992e-16
-7.18352e-18
-6.00656e-17
0
0
0
3.4404e-17
1.39174e-17
5.03079e-17
-1.21532e-17
-2.0111e-17
-1.20962e-17
-6.53835e-18
2.90785e-18
-6.31316e-18
2.72063e-18
-4.7154e-17
4.61865e-17
-8.56624e-17
-1.40267e-16
1.30389e-16
5.23621e-17
-9.72254e-17
8.4823e-17
-7.39065e-17
1.92495e-17
1.49283e-17
-1.35384e-17
8.9811e-18
-8.02367e-18
2.34063e-17
0
-1.76102e-18
1.29462e-17
-1.92179e-18
-3.03877e-16
1.40001e-16
1.17318e-19
-3.15012e-17
3.77639e-18
5.08897e-17
-9.69093e-17
-4.04124e-17
3.48071e-17
-2.98187e-17
-2.56245e-17
0
-2.94044e-17
-8.76979e-18
-1.57801e-17
-9.38959e-18
7.39766e-19
-8.20987e-18
1.64185e-19
4.96659e-17
-4.44782e-17
9.74771e-20
-3.46238e-17
-8.72517e-17
8.24684e-17
3.09752e-19
3.93819e-17
-3.38893e-17
5.72623e-17
1.35778e-17
1.1273e-17
3.50926e-17
0
2.93161e-17
1.34749e-17
0
4.50906e-18
1.39371e-19
0
4.31491e-17
3.43569e-17
-7.12114e-17
8.4569e-17
-1.27633e-16
9.08978e-17
3.48754e-17
-4.84818e-18
-5.66263e-17
1.05541e-17
-1.0502e-17
-3.2233e-17
1.29224e-17
-6.40152e-18
-1.35532e-17
5.90927e-18
-3.66193e-18
1.41433e-18
-4.62682e-17
1.58306e-16
-1.17824e-16
6.48116e-17
0
0
-1.81294e-17
3.84736e-17
-2.7923e-17
5.26434e-17
0
0
2.18354e-17
-1.91525e-17
-1.37251e-17
4.32292e-18
-4.5963e-18
2.41146e-18
0
3.58452e-18
4.32666e-17
-3.52855e-17
-3.10842e-17
-5.07805e-17
-1.69288e-17
2.29588e-17
0
-2.63005e-17
-2.16438e-17
1.95362e-17
-1.60953e-17
1.31632e-17
0
5.22403e-18
1.03617e-17
0
0
0
-3.42708e-18
6.99695e-17
2.71189e-17
-9.36869e-17
2.61292e-17
2.2566e-17
0
0
2.48884e-17
-1.29505e-17
-1.88958e-17
1.55671e-17
-1.27298e-17
0
-3.46611e-18
3.00045e-18
0
-2.51634e-18
-8.76977e-19
-3.7308e-17
1.09481e-16
-1.33421e-16
-5.39898e-17
2.82232e-17
-2.14173e-17
1.81491e-17
0
-1.26365e-17
1.06428e-17
0
0
5.06805e-18
-5.07389e-18
1.54535e-18
-2.01806e-18
3.62174e-18
4.21267e-19
6.51282e-19
1.90965e-17
-1.73001e-17
8.92471e-17
-5.76663e-17
-2.36663e-17
2.91536e-18
3.72415e-17
1.4364e-17
1.20912e-17
0
7.20952e-18
-6.68905e-18
5.37611e-18
-4.59059e-18
6.01777e-18
-1.04034e-17
-2.81948e-18
2.46391e-18
6.60195e-19
5.12573e-17
-5.18903e-17
0
4.86591e-17
-2.55773e-17
-1.93737e-17
1.36937e-17
-4.36188e-17
0
-7.59098e-19
-8.2644e-18
-6.0454e-18
8.92468e-18
-6.67703e-19
-5.81607e-18
4.32956e-18
0
1.58762e-18
-6.41043e-19
8.72048e-17
-1.55029e-17
6.65077e-17
-5.21311e-17
2.92001e-17
3.54165e-18
-3.37411e-17
-1.17657e-17
2.12983e-17
-8.6651e-19
-1.28109e-17
1.08951e-17
-4.79674e-18
-6.412e-18
0
0
0
-1.60281e-18
5.97349e-20
-7.77979e-17
7.583e-17
5.2659e-20
1.17557e-17
1.01977e-17
-2.49137e-17
2.95611e-17
-2.4549e-17
2.11074e-17
-7.14471e-18
1.36232e-17
4.91651e-18
-2.10225e-18
1.09662e-19
-7.81608e-19
-1.37392e-18
0
0
0
0
0
3.76303e-17
-1.8033e-17
-5.75505e-17
0
0
-7.12253e-18
-1.16417e-17
9.82556e-18
0
-6.20061e-18
4.86518e-18
-1.64031e-17
1.89092e-17
-6.24766e-18
6.6579e-18
7.32557e-19
0
-1.50762e-17
1.52617e-17
0
-1.24576e-17
1.26503e-17
2.11596e-17
0
7.19055e-18
9.70061e-18
-4.31664e-17
0
-6.84643e-18
5.3956e-18
3.91955e-18
-2.93883e-18
4.32377e-18
0
-1.60801e-18
0
-7.75226e-18
-7.74829e-18
4.58997e-19
1.27999e-17
-3.46313e-17
0
-9.06101e-18
0
2.61972e-17
1.07022e-17
0
2.71409e-17
-2.86848e-17
2.85029e-18
-6.54425e-18
1.77622e-18
8.29261e-18
3.17145e-18
-2.51171e-18
0
1.60553e-17
-1.41892e-17
1.76261e-17
2.1384e-17
0
1.84678e-17
-1.75145e-17
-1.40246e-17
2.13868e-17
-3.21383e-17
-1.5934e-17
0
0
3.6041e-18
0
0
1.04613e-18
0
-7.10595e-17
5.45244e-17
0
8.00214e-19
-1.25114e-17
-6.93978e-19
1.12479e-17
8.20342e-18
-1.01466e-17
-2.63906e-17
4.24207e-17
-1.14652e-17
0
-5.63761e-18
0
0
0
-4.03651e-18
3.22299e-18
-2.00639e-17
1.88777e-17
5.08023e-17
-4.97816e-17
1.53807e-17
8.31012e-19
-1.14295e-17
9.94972e-18
1.70889e-17
1.3233e-17
-2.61761e-17
0
1.39466e-17
2.09663e-18
-6.45309e-18
-1.43408e-17
1.1845e-17
-1.95348e-18
3.6777e-18
-6.77545e-17
9.83541e-17
-9.76438e-17
1.73117e-17
1.48362e-17
-1.41732e-17
1.1978e-17
-9.62904e-18
0
-8.31314e-18
1.35258e-17
5.87393e-18
9.54647e-18
1.22909e-17
-1.84558e-17
-2.7078e-19
0
-1.48185e-18
4.94739e-19
-7.32605e-17
-2.19578e-17
-3.88208e-17
2.05821e-17
-3.40589e-17
2.98636e-17
-1.78697e-17
1.52963e-17
-1.01104e-18
-1.01138e-18
-1.41358e-17
8.29948e-18
-4.79861e-18
1.45575e-17
-1.56277e-17
2.00845e-18
1.67204e-18
0
-8.53941e-19
7.92107e-17
-2.36706e-17
0
0
-3.5092e-17
6.84379e-17
-1.60848e-17
-3.13306e-18
2.59506e-17
-6.6519e-19
0
0
-6.16498e-18
0
-1.35528e-17
3.30389e-17
-2.29772e-17
0
3.37032e-19
2.7143e-17
5.09057e-17
0
-2.18863e-17
-1.80515e-17
-1.61364e-17
-1.67138e-17
6.99901e-18
-1.96377e-17
-1.08465e-17
0
0
8.09864e-18
0
0
-1.82615e-17
3.00736e-17
0
0
1.86261e-16
-2.17148e-17
-1.1341e-16
-6.23609e-17
8.4538e-17
2.71719e-17
1.62061e-17
0
-6.02983e-18
5.89521e-18
1.45841e-17
-4.7181e-18
-7.10662e-18
1.10421e-17
-1.17454e-17
-3.66043e-18
0
0
0
1.4916e-17
-1.18328e-16
1.16058e-16
-1.11901e-17
-8.71596e-17
1.36798e-16
-6.88834e-17
0
0
3.74762e-17
-3.08491e-17
0
-9.43658e-18
1.6409e-17
-1.86683e-18
4.81464e-18
1.47408e-18
1.55613e-20
3.22709e-19
0
0
0
9.83524e-17
-6.59296e-17
6.99864e-17
-1.09279e-16
3.1227e-17
0
-1.13798e-17
1.83112e-17
-1.87151e-17
-3.70371e-18
-8.12918e-20
-2.55638e-18
-3.81988e-19
-2.03687e-18
-5.69933e-19
-3.12061e-19
1.25038e-16
-2.23366e-16
1.06055e-16
0
2.89094e-17
-3.93722e-17
3.98014e-17
-3.15794e-17
0
-1.5568e-17
2.1828e-17
0
0
-6.0627e-20
0
-2.6225e-18
1.79577e-18
3.3496e-19
4.97033e-19
1.21044e-16
0
-4.86555e-17
5.43542e-17
-3.43967e-17
7.5281e-17
-3.56634e-17
-2.81307e-17
2.84245e-17
-2.90379e-18
0
0
1.8771e-18
-3.18772e-18
-2.23456e-18
4.24077e-18
-9.18106e-19
4.71532e-19
0
6.87327e-17
5.40223e-17
-1.67997e-18
-5.17987e-17
-5.26219e-18
-3.8137e-17
4.01035e-18
3.21774e-17
-1.6713e-18
2.95831e-18
0
0
-1.92296e-18
0
2.26683e-18
-2.42496e-18
0
3.10783e-19
-8.62486e-20
-3.64837e-17
-2.7094e-17
2.53675e-17
-2.92179e-18
-1.31455e-18
3.5661e-18
0
-9.48092e-19
1.42751e-17
-1.2022e-17
0
4.10512e-18
-7.99953e-19
-3.63042e-18
-3.32561e-19
-2.59533e-19
0
-2.42858e-19
0
1.49365e-17
-2.84449e-17
-4.18317e-19
1.22846e-17
1.13216e-17
-1.12518e-17
-8.03226e-18
9.09421e-18
-3.14205e-18
2.45658e-18
-2.40237e-18
2.47646e-18
0
6.35958e-21
-2.44887e-19
8.80978e-19
-3.0169e-21
0
0
1.4937e-17
-1.4881e-17
-1.22203e-17
1.08229e-17
2.00033e-17
-2.01214e-17
-4.01626e-18
4.02575e-18
-3.16858e-18
3.20186e-18
-2.40245e-18
4.53802e-18
-1.27275e-18
-9.19161e-19
-2.82755e-19
9.3613e-20
2.23788e-19
5.92105e-20
-4.44083e-20
0
-3.54985e-18
2.1294e-17
-2.30745e-17
1.99746e-17
-1.77012e-17
0
1.42489e-17
-1.27418e-17
0
4.78683e-18
-6.06331e-18
-3.4643e-18
3.63081e-18
6.70123e-19
0
0
-2.42892e-19
8.8285e-20
5.94566e-17
-1.09667e-16
1.12278e-16
-9.89468e-17
3.89673e-17
-3.33967e-17
3.16795e-17
3.7937e-18
-1.41836e-17
1.26762e-17
0
-9.28061e-18
8.4488e-18
-1.6132e-18
-6.56385e-19
1.03695e-18
7.62966e-19
2.35801e-19
-8.53034e-20
1.36508e-16
0
-5.50288e-17
4.27586e-17
5.20165e-18
-4.02543e-17
7.15662e-17
-6.37929e-17
2.50886e-17
-1.08164e-17
1.10715e-17
2.20014e-18
3.80415e-18
1.57128e-18
-1.31133e-18
-1.69666e-19
-1.65422e-18
0
1.70173e-19
1.0978e-16
-1.23572e-16
0
1.14453e-17
4.97372e-17
-4.87575e-17
8.38548e-18
7.46941e-18
3.26821e-18
5.80468e-18
0
0
-6.62045e-18
1.24526e-17
-4.5588e-18
-1.64059e-18
1.79617e-18
1.44241e-19
-3.2405e-19
9.58934e-18
1.08546e-16
-1.26321e-17
-8.69183e-17
7.62899e-17
9.19346e-18
-8.20672e-18
-7.29539e-18
2.42563e-17
-3.00926e-17
1.83163e-17
-1.87201e-17
2.96585e-18
-3.73224e-18
6.88905e-18
-4.58696e-18
0
0
3.35014e-19
0
2.72763e-17
-8.25739e-17
9.43242e-17
-7.71203e-17
7.69366e-17
0
2.71658e-17
-2.72903e-17
-2.07799e-17
3.08712e-17
0
1.29961e-17
-1.64203e-17
-2.43553e-18
0
-2.77387e-19
-5.61488e-19
-4.98807e-21
-2.58077e-16
1.23416e-16
0
-8.45221e-17
8.45137e-17
5.24884e-17
-3.45174e-17
1.44118e-17
0
-6.57981e-19
5.00094e-18
-4.7115e-18
-7.09698e-18
1.10254e-17
-1.17236e-17
0
2.59941e-18
-5.91564e-19
-3.47434e-19
1.59085e-16
-1.56767e-16
0
2.18825e-17
2.00479e-17
-1.84118e-17
0
-1.51037e-17
-1.31857e-17
0
-5.18885e-19
0
8.10189e-18
0
0
3.75641e-18
1.41786e-17
-1.83106e-17
0
2.30155e-20
2.3682e-17
-2.20069e-17
1.82538e-17
-9.26459e-17
3.56206e-17
0
3.13523e-18
8.9041e-18
0
-9.29759e-18
2.75306e-17
-2.89225e-17
4.96533e-18
0
-5.14027e-19
0
0
0
2.19965e-20
0
2.03398e-17
0
-3.21616e-17
3.26729e-17
0
1.20382e-17
-9.78551e-18
3.5785e-17
-1.73242e-17
6.39656e-18
-1.04224e-17
1.00728e-17
-1.56459e-17
-2.5153e-18
0
-1.73732e-18
0
6.202e-17
-1.04837e-16
0
-1.73268e-17
1.57025e-17
0
0
-2.2049e-17
0
-8.31899e-18
-1.35359e-17
-5.87903e-18
9.55567e-18
0
5.32763e-18
0
0
3.82056e-18
-4.25435e-18
0
9.12287e-17
-7.30899e-17
1.60407e-17
-1.45406e-17
-6.07873e-18
1.76116e-17
2.0075e-17
-2.49917e-17
8.08157e-18
4.76849e-19
-7.88355e-18
3.24327e-17
-1.01089e-17
-2.40942e-17
8.39761e-18
-2.23822e-18
1.33493e-18
-4.18839e-19
-1.46847e-16
5.45198e-17
0
0
6.26122e-18
-6.36696e-18
4.72893e-18
3.25627e-18
2.26712e-17
1.18448e-17
-1.18298e-17
-3.87682e-19
-6.92431e-18
5.64241e-18
0
2.91823e-18
2.05149e-18
1.13355e-18
3.78572e-19
0
4.75195e-17
-4.46813e-17
1.44029e-17
1.51887e-17
-2.94492e-18
-9.7132e-18
-8.42619e-18
-2.84389e-17
1.17109e-17
-7.4676e-18
9.99305e-18
6.47508e-18
-8.33827e-18
8.85056e-18
5.82725e-18
-7.50825e-18
-1.047e-18
0
-8.30486e-18
-3.767e-17
1.36061e-17
1.28032e-17
-4.48002e-17
3.22778e-17
1.65461e-17
-1.69126e-17
1.33096e-17
-1.11143e-17
0
0
-9.90364e-18
1.79028e-17
-7.9767e-18
7.6883e-18
-8.39019e-18
1.41421e-18
-2.5139e-18
1.56415e-17
1.47248e-17
-1.3544e-17
1.08926e-17
-1.25242e-17
-1.96509e-17
0
0
0
0
0
0
5.10538e-18
-1.37652e-17
1.45582e-17
-4.86664e-18
5.9925e-18
2.86222e-18
-2.43113e-18
3.23062e-17
-5.5999e-17
7.01184e-17
-3.37413e-17
4.65518e-17
-3.51588e-17
6.61092e-17
-3.77514e-17
-2.10614e-17
2.15448e-17
0
6.19673e-18
-4.9877e-18
1.25778e-17
-4.08122e-18
-5.43862e-18
-1.17772e-17
8.74384e-19
2.07477e-18
5.02223e-17
1.46651e-17
0
-2.3437e-17
-1.89628e-17
4.3789e-17
4.82026e-18
-1.83687e-17
1.10546e-17
-8.09502e-18
0
-4.90542e-18
0
-4.15778e-18
3.41157e-18
-3.1186e-18
-1.03778e-18
7.42927e-19
0
7.02234e-17
-1.55027e-17
6.64792e-17
-5.2114e-17
-1.07048e-17
4.32016e-17
-2.59054e-17
1.22035e-18
1.02203e-18
-7.93163e-18
7.69193e-18
0
0
5.01596e-18
-1.88513e-18
1.24939e-18
3.75277e-18
-1.30536e-18
0
1.40286e-20
0
-1.46564e-17
8.74778e-17
-5.93618e-17
-6.48799e-17
3.56194e-17
-3.85514e-17
3.59744e-17
1.83163e-17
-1.41772e-17
5.8556e-18
-5.27291e-18
8.80108e-19
9.02542e-18
3.82468e-19
-3.53575e-18
3.49973e-18
-7.14075e-19
1.71476e-16
-5.48296e-17
2.76131e-17
-8.49069e-17
2.36662e-17
-3.7865e-17
2.01785e-17
0
0
-7.76294e-19
-1.03643e-18
-3.05188e-19
0
-7.79893e-18
-6.01786e-18
4.47378e-18
-3.29911e-19
5.6636e-19
1.40112e-18
0
-5.48074e-17
9.41926e-17
2.19353e-17
-7.80797e-17
2.14172e-17
-3.36896e-17
5.1389e-18
2.79129e-17
0
0
5.25418e-19
6.32002e-18
0
-5.80178e-18
-2.68622e-18
3.93868e-19
-1.4313e-18
-1.61226e-18
0
-3.48544e-17
7.04797e-18
6.36025e-17
4.89437e-17
-9.02787e-17
4.1363e-17
-2.98611e-17
1.58723e-17
-2.27473e-17
0
0
0
-1.02884e-17
2.89577e-18
-3.48311e-18
0
-2.18822e-19
1.09963e-18
-1.29236e-16
1.22843e-16
1.33896e-16
-1.62742e-16
7.78413e-17
-7.35213e-17
0
3.13509e-17
-4.31769e-17
2.53894e-17
-2.0211e-17
1.67991e-17
1.3865e-17
1.06404e-17
8.47599e-18
0
0
0
0
1.4229e-16
-8.2975e-17
0
0
-2.82254e-17
7.00678e-17
-4.49714e-17
-3.30825e-17
3.27096e-17
2.505e-17
4.267e-17
-1.74307e-17
7.45162e-18
5.74887e-18
4.30068e-18
3.49757e-18
5.68711e-18
-2.80624e-19
2.8584e-19
-1.44502e-16
1.33482e-16
7.25471e-17
-3.75587e-17
8.45653e-17
-5.43974e-17
-4.39406e-17
-3.77013e-17
0
-5.23509e-17
2.35327e-18
1.96796e-17
-1.57087e-17
-1.29224e-17
-4.78759e-18
-5.10904e-18
-4.07822e-18
0
0
-4.97091e-17
0
3.92658e-17
-6.82449e-20
0
0
4.53261e-17
3.89024e-17
0
2.82546e-17
0
-2.99166e-17
-8.44017e-18
1.50636e-17
0
9.76137e-18
-1.38382e-18
1.41168e-18
0
1.05441e-16
0
7.59673e-17
-1.41754e-16
1.27628e-16
1.05093e-16
-2.9742e-18
0
2.68598e-18
3.24777e-17
0
-3.32356e-17
3.76523e-17
-3.36016e-17
-7.35152e-18
-7.85652e-18
-2.29878e-18
-4.07744e-19
-1.42703e-18
-9.87816e-17
1.42495e-16
-4.08475e-17
-1.08105e-16
-6.33152e-17
-5.54702e-17
-9.70066e-17
-3.97251e-17
2.89888e-18
1.49564e-17
-1.49283e-17
4.83057e-17
-2.13765e-17
4.33357e-17
-8.12324e-18
0
9.15385e-18
-5.35975e-18
1.44646e-18
2.16845e-16
-4.38248e-18
-1.68544e-16
1.41993e-16
-1.28692e-16
1.13622e-16
-3.30222e-18
-4.42703e-17
3.90904e-17
1.58535e-17
-1.93193e-18
-3.92649e-17
1.14943e-17
1.18717e-17
-3.65847e-18
3.7002e-18
-9.48117e-18
-8.74812e-19
-2.17671e-18
1.06452e-16
4.56151e-17
8.10659e-17
-7.21213e-17
-6.0635e-17
2.88091e-18
-4.77666e-17
1.15974e-16
3.60333e-18
5.48483e-17
3.23353e-17
-2.87598e-17
0
-2.04772e-17
0
0
1.29074e-17
5.72119e-18
2.54405e-18
1.00285e-16
0
8.01375e-17
7.16558e-17
-6.44197e-17
5.70983e-17
0
-4.55371e-17
-6.35168e-17
-5.60076e-17
-3.26215e-17
2.9085e-17
0
0
0
0
-1.20973e-17
-8.83487e-18
0
-1.96511e-16
0
-3.6009e-18
-3.17904e-18
9.7885e-17
-5.61348e-17
-2.59612e-17
-2.60539e-17
6.42839e-17
0
1.70223e-17
-1.81295e-18
1.51189e-17
0
0
1.98464e-17
-1.47465e-18
1.06065e-17
-3.97291e-18
1.38454e-16
4.04522e-17
-4.00346e-17
-3.58125e-17
-1.26118e-16
8.7447e-17
1.06552e-16
-2.60213e-18
-4.37086e-17
4.29915e-17
9.08391e-18
-4.59138e-17
-3.78507e-17
-2.26496e-17
-2.39336e-17
-2.28744e-17
1.87574e-17
-8.87521e-19
4.0691e-18
-4.26891e-17
1.95758e-17
-9.46095e-17
1.64575e-17
-1.63977e-17
0
-5.28444e-17
-3.33603e-18
-4.89921e-17
3.78083e-18
4.78765e-17
3.5644e-17
-8.69751e-18
3.95117e-18
2.27756e-17
0
-3.88787e-17
-1.41781e-17
-2.95158e-19
8.64512e-17
-2.38362e-18
1.48721e-16
-7.13012e-17
1.32357e-19
1.9174e-18
5.78153e-17
-4.13615e-18
4.75143e-17
-4.45099e-17
-4.1834e-17
0
4.12636e-17
3.31679e-17
4.57185e-19
-6.63959e-19
2.09555e-17
1.44118e-17
0
-6.15276e-17
0
-1.52675e-17
6.7859e-17
8.94732e-19
1.56898e-17
-5.59065e-17
5.29723e-17
5.55782e-17
5.32155e-17
5.10922e-17
0
-4.00868e-17
0
2.10639e-18
-2.18768e-18
0
-2.07647e-19
1.0191e-17
4.23838e-17
2.03794e-18
-3.42842e-17
1.05417e-16
-3.39506e-17
0
0
-6.1913e-17
-5.38496e-17
-5.1554e-17
-9.31141e-17
-1.30049e-17
0
0
0
-4.28077e-18
4.53012e-18
2.88938e-17
-1.0346e-17
2.10517e-18
0
-7.31803e-17
-6.74435e-17
7.03502e-17
-6.97954e-17
-1.00183e-16
1.23468e-16
3.40334e-17
0
5.46845e-17
6.15612e-17
-1.32927e-17
7.20612e-17
-1.17919e-17
1.22725e-17
4.75904e-17
-2.74565e-17
0
-8.10483e-17
0
-7.78142e-17
7.63411e-17
0
1.38688e-16
6.53102e-17
-1.36671e-16
1.08806e-16
-7.34677e-19
-3.30036e-17
-5.96039e-17
0
8.16746e-17
-1.3708e-16
1.47057e-16
-1.87391e-16
0
0
8.06622e-17
-4.8565e-19
-1.19671e-18
-1.53573e-16
1.54811e-16
-7.49615e-17
7.46559e-17
7.35717e-17
-6.54152e-17
0
0
1.2233e-16
-1.24437e-16
-1.33216e-16
1.32004e-16
-1.28555e-16
1.3901e-16
-2.17718e-16
0
)
;

boundaryField
{
    up
    {
        type            calculated;
        value           nonuniform List<scalar> 
84
(
0
0
0
0
-7.43648e-18
1.34226e-17
-5.60755e-18
4.06909e-18
-3.55143e-18
0
-2.85658e-18
2.72063e-18
-1.92179e-18
1.64185e-19
1.39371e-19
1.41433e-18
0
0
-8.76977e-19
6.51282e-19
6.60195e-19
-6.41043e-19
5.97349e-20
0
2.63592e-19
1.19128e-19
-2.39778e-18
0
3.22299e-18
3.83225e-18
4.94739e-19
-8.53941e-19
3.37032e-19
0
-1.65923e-19
3.34562e-19
-3.11916e-19
4.96458e-19
0
-8.61469e-20
0
0
-4.44374e-20
8.8285e-20
-8.53034e-20
1.70173e-19
-3.2405e-19
3.35014e-19
-4.98807e-21
-3.47434e-19
0
0
0
-4.25435e-18
-5.73485e-19
3.78572e-19
0
-2.5139e-18
-2.43113e-18
1.81209e-18
0
0
-7.14075e-19
1.40112e-18
-1.61226e-18
1.09963e-18
0
2.8584e-19
0
0
-1.42703e-18
1.44646e-18
-2.17671e-18
2.54405e-18
0
-3.97291e-18
4.0691e-18
-2.95158e-19
0
1.0191e-17
-1.0346e-17
0
0
0
)
;
    }
    low
    {
        type            calculated;
        value           nonuniform List<scalar> 
84
(
-1.61474e-16
1.61358e-16
-7.90889e-17
1.24498e-16
2.18053e-17
-5.66631e-18
4.73561e-17
4.64518e-18
0
2.0116e-16
-5.09836e-17
4.27503e-17
-4.7154e-17
-3.03869e-16
4.96659e-17
0
-4.62682e-17
3.58452e-18
-3.42708e-18
-3.7308e-17
1.90965e-17
5.12573e-17
8.6905e-17
-7.77979e-17
0
-1.50762e-17
-7.75226e-18
0
-7.10595e-17
-2.00639e-17
-6.75552e-17
-7.30994e-17
7.9098e-17
2.7143e-17
1.86259e-16
1.4916e-17
0
1.25038e-16
1.21283e-16
6.88654e-17
-3.65553e-17
1.49365e-17
1.4937e-17
0
5.94566e-17
1.36747e-16
1.0978e-16
9.74381e-18
0
-2.58075e-16
1.59085e-16
2.30155e-20
2.19965e-20
6.202e-17
0
-1.46538e-16
0
-8.30486e-18
1.56415e-17
3.21246e-17
4.99022e-17
6.99236e-17
1.40286e-20
1.71224e-16
0
0
-1.29236e-16
1.42157e-16
-1.4441e-16
-4.97091e-17
1.05434e-16
-9.87816e-17
2.17155e-16
1.06675e-16
1.00285e-16
-1.96511e-16
1.38203e-16
-4.24266e-17
8.64512e-17
-6.14221e-17
4.23838e-17
2.29604e-18
-8.10483e-17
8.07146e-17
)
;
    }
    left
    {
        type            calculated;
        value           nonuniform List<scalar> 
19
(
-1.6137e-16
-7.86223e-17
7.97013e-17
1.61534e-18
-1.52198e-16
0
-7.12471e-17
-7.02514e-17
-4.7202e-18
-3.69184e-17
-3.49034e-19
-3.66999e-17
1.62955e-16
-3.6268e-17
1.69531e-16
1.46244e-16
8.69734e-17
1.27534e-16
0
)
;
    }
    right
    {
        type            calculated;
        value           nonuniform List<scalar> 
19
(
8.06622e-17
-4.28436e-19
-1.19671e-18
-1.53572e-16
1.54849e-16
-7.49615e-17
7.46559e-17
7.35717e-17
-6.51884e-17
0
0
1.23492e-16
-1.26074e-16
-1.33216e-16
1.32004e-16
-1.28555e-16
1.3901e-16
-2.35448e-16
0
)
;
    }
    frontAndBackPlanes
    {
        type            empty;
    }
}


// ************************************************************************* //
