/*--------------------------------*- C++ -*----------------------------------*\
  =========                 |
  \\      /  F ield         | OpenFOAM: The Open Source CFD Toolbox
   \\    /   O peration     | Website:  https://openfoam.org
    \\  /    A nd           | Version:  7
     \\/     M anipulation  |
\*---------------------------------------------------------------------------*/
FoamFile
{
    version     2.0;
    format      ascii;
    class       volScalarField;
    location    "0.359";
    object      gradTy;
}
// * * * * * * * * * * * * * * * * * * * * * * * * * * * * * * * * * * * * * //

dimensions      [0 -1 0 1 0 0 0];

internalField   nonuniform List<scalar> 
1596
(
-0.0730855
-0.136446
-0.18985
-0.243165
-0.296904
-0.357901
-0.423953
-0.503048
-0.598847
-0.714072
-0.870905
-1.07004
-1.34284
-1.72727
-2.31862
-3.23515
-4.86558
-7.86808
-18.5874
-0.222993
-0.276969
-0.316754
-0.356577
-0.398253
-0.448987
-0.50674
-0.578555
-0.667612
-0.774697
-0.9179
-1.09576
-1.32907
-1.63514
-2.06267
-2.6371
-3.48784
-4.73661
-8.28083
-0.399642
-0.420477
-0.437516
-0.459872
-0.487178
-0.525367
-0.571814
-0.632411
-0.709301
-0.801915
-0.924736
-1.07421
-1.26446
-1.50351
-1.82072
-2.22076
-2.77378
-3.53156
-5.16034
-0.585316
-0.560554
-0.549642
-0.551926
-0.563227
-0.587205
-0.62043
-0.667455
-0.729434
-0.804924
-0.905395
-1.02618
-1.17698
-1.36107
-1.59685
-1.88105
-2.25465
-2.73962
-3.57333
-0.757119
-0.689111
-0.6505
-0.632365
-0.627234
-0.63632
-0.655549
-0.688118
-0.734411
-0.792519
-0.871448
-0.966291
-1.08381
-1.22493
-1.40165
-1.60815
-1.86988
-2.19542
-2.67216
-0.894129
-0.79832
-0.737738
-0.701415
-0.680851
-0.675444
-0.680911
-0.699243
-0.730311
-0.772061
-0.831482
-0.903978
-0.994308
-1.1023
-1.23597
-1.38922
-1.57853
-1.80633
-2.10632
-0.984713
-0.882033
-0.809141
-0.759256
-0.725701
-0.707234
-0.69998
-0.705033
-0.722016
-0.74896
-0.791219
-0.844798
-0.913051
-0.995326
-1.09706
-1.21272
-1.35321
-1.5182
-1.72127
-1.02834
-0.936458
-0.862107
-0.804969
-0.762152
-0.733019
-0.714768
-0.708022
-0.712422
-0.726271
-0.753628
-0.791221
-0.841407
-0.903376
-0.980839
-1.06905
-1.17531
-1.29813
-1.44302
-1.03339
-0.965541
-0.899255
-0.841244
-0.793233
-0.756176
-0.728849
-0.711886
-0.705195
-0.707488
-0.721874
-0.745805
-0.78094
-0.826467
-0.884907
-0.952276
-1.03345
-1.12649
-1.23345
-1.00708
-0.96533
-0.913531
-0.860921
-0.81258
-0.771315
-0.737666
-0.712719
-0.696868
-0.68935
-0.692677
-0.704984
-0.727506
-0.759527
-0.802799
-0.854028
-0.916482
-0.988158
-1.06948
-0.973281
-0.950462
-0.9135
-0.869389
-0.824136
-0.781724
-0.744209
-0.713322
-0.690074
-0.674303
-0.668213
-0.670571
-0.682382
-0.703079
-0.73392
-0.772174
-0.820035
-0.875555
-0.938386
-0.930821
-0.927538
-0.90521
-0.870835
-0.830668
-0.789267
-0.749798
-0.714636
-0.685438
-0.662673
-0.648453
-0.642139
-0.644647
-0.655603
-0.675956
-0.703452
-0.739555
-0.782442
-0.831409
-0.877994
-0.892164
-0.884265
-0.860605
-0.827246
-0.788978
-0.749627
-0.71213
-0.678722
-0.650472
-0.62958
-0.615948
-0.610548
-0.61323
-0.624811
-0.643448
-0.670156
-0.703267
-0.741894
-0.830233
-0.854586
-0.858251
-0.844573
-0.818419
-0.784334
-0.746385
-0.707897
-0.671575
-0.63901
-0.612596
-0.592718
-0.580493
-0.576016
-0.580085
-0.591207
-0.610134
-0.635351
-0.665908
-0.785478
-0.817829
-0.830527
-0.825467
-0.806196
-0.776673
-0.740878
-0.702331
-0.66407
-0.628122
-0.597111
-0.571859
-0.553677
-0.542924
-0.540458
-0.545102
-0.55747
-0.576203
-0.600352
-0.74147
-0.781229
-0.80157
-0.803964
-0.791034
-0.766127
-0.732939
-0.695026
-0.655627
-0.617104
-0.582311
-0.552456
-0.529074
-0.512795
-0.504602
-0.503618
-0.510413
-0.523784
-0.54281
-0.701327
-0.746002
-0.772531
-0.781278
-0.774015
-0.753509
-0.723094
-0.686247
-0.646299
-0.605846
-0.567952
-0.534147
-0.506199
-0.485008
-0.471727
-0.465774
-0.467757
-0.476628
-0.491505
-0.665914
-0.713773
-0.745127
-0.759179
-0.75686
-0.740358
-0.712638
-0.677024
-0.636865
-0.594922
-0.554411
-0.517144
-0.4851
-0.459432
-0.441489
-0.430995
-0.428674
-0.433656
-0.445107
-0.630841
-0.684278
-0.720505
-0.739374
-0.741501
-0.728634
-0.703424
-0.669029
-0.628779
-0.585557
-0.542694
-0.50224
-0.466353
-0.436411
-0.413964
-0.399051
-0.392609
-0.39401
-0.402514
-0.595359
-0.65497
-0.696468
-0.720103
-0.726469
-0.717076
-0.694341
-0.661269
-0.621155
-0.576959
-0.5321
-0.488815
-0.449405
-0.41542
-0.38858
-0.369223
-0.358612
-0.356523
-0.36244
-0.565114
-0.628566
-0.674818
-0.70299
-0.713353
-0.707221
-0.686822
-0.655051
-0.615155
-0.570151
-0.523527
-0.47766
-0.434959
-0.397072
-0.365804
-0.341684
-0.326366
-0.320273
-0.323541
-0.538661
-0.605591
-0.656119
-0.688556
-0.702722
-0.699689
-0.68153
-0.651044
-0.61144
-0.565768
-0.517567
-0.469333
-0.423557
-0.381928
-0.346199
-0.316848
-0.295728
-0.284087
-0.283673
-0.514798
-0.585764
-0.640506
-0.677031
-0.694828
-0.694765
-0.678781
-0.649603
-0.610395
-0.564217
-0.514638
-0.464254
-0.415647
-0.370536
-0.330533
-0.295703
-0.267423
-0.246988
-0.239003
-0.494131
-0.569309
-0.628014
-0.668019
-0.688685
-0.6907
-0.676052
-0.647374
-0.607844
-0.560593
-0.508992
-0.455981
-0.404206
-0.355541
-0.311419
-0.271547
-0.235734
-0.202719
-0.172114
-0.477944
-0.557105
-0.620337
-0.665111
-0.690843
-0.697976
-0.688473
-0.664624
-0.629345
-0.585661
-0.536303
-0.48443
-0.432514
-0.3829
-0.337114
-0.295427
-0.256666
-0.218218
-0.17505
-0.467352
-0.548882
-0.614333
-0.661668
-0.690389
-0.700879
-0.695011
-0.674848
-0.643005
-0.602255
-0.554704
-0.503387
-0.45066
-0.399192
-0.351036
-0.307722
-0.268926
-0.233789
-0.199794
-0.468427
-0.550757
-0.61721
-0.66603
-0.696782
-0.710013
-0.707477
-0.691186
-0.663481
-0.626731
-0.582607
-0.533498
-0.481422
-0.429059
-0.37901
-0.333632
-0.293587
-0.258729
-0.227207
-0.482574
-0.564002
-0.629708
-0.678249
-0.709355
-0.723825
-0.723412
-0.710155
-0.68621
-0.653596
-0.613517
-0.567585
-0.517146
-0.464495
-0.41252
-0.364409
-0.321959
-0.285817
-0.254545
-0.508787
-0.588462
-0.651878
-0.698523
-0.728471
-0.742836
-0.743454
-0.732437
-0.711841
-0.683441
-0.648012
-0.606382
-0.558922
-0.507047
-0.453401
-0.401869
-0.355633
-0.316596
-0.283866
-0.546773
-0.622574
-0.68202
-0.725307
-0.752816
-0.765963
-0.766725
-0.7573
-0.73971
-0.715623
-0.685519
-0.649603
-0.60714
-0.55813
-0.50408
-0.448956
-0.397368
-0.353344
-0.317238
-0.596451
-0.666088
-0.720334
-0.759166
-0.783245
-0.794292
-0.794461
-0.786021
-0.771007
-0.751122
-0.726763
-0.697893
-0.662882
-0.620064
-0.568673
-0.511291
-0.45292
-0.400604
-0.357836
-0.651943
-0.71632
-0.764851
-0.798394
-0.818245
-0.826491
-0.825462
-0.81745
-0.804503
-0.78846
-0.769855
-0.748966
-0.723964
-0.692044
-0.649554
-0.595649
-0.532246
-0.467668
-0.411641
-0.716691
-0.774443
-0.815927
-0.843049
-0.857766
-0.862468
-0.859578
-0.851312
-0.839655
-0.826563
-0.812796
-0.799412
-0.7854
-0.768454
-0.743377
-0.705833
-0.650113
-0.577775
-0.492715
-0.793556
-0.842333
-0.875287
-0.895106
-0.904278
-0.905377
-0.900742
-0.892418
-0.882219
-0.872057
-0.862962
-0.856683
-0.853745
-0.854275
-0.855405
-0.854291
-0.842111
-0.813039
-0.760872
-0.880966
-0.918504
-0.9402
-0.950145
-0.95126
-0.946169
-0.936844
-0.925051
-0.912217
-0.899701
-0.888513
-0.879915
-0.874933
-0.874898
-0.880479
-0.893493
-0.912535
-0.935716
-0.959051
-0.981425
-1.00273
-1.01036
-1.0089
-1.00111
-0.989366
-0.97515
-0.959951
-0.944855
-0.930714
-0.918578
-0.908993
-0.902741
-0.900422
-0.90285
-0.910796
-0.925699
-0.948906
-0.982514
-1.09368
-1.09389
-1.08607
-1.07323
-1.05718
-1.03961
-1.02148
-1.00388
-0.987551
-0.973032
-0.961137
-0.951997
-0.945975
-0.943023
-0.943136
-0.945446
-0.94968
-0.954625
-0.95956
-1.19999
-1.17879
-1.15556
-1.13136
-1.10694
-1.0832
-1.06059
-1.03973
-1.02102
-1.0047
-0.991202
-0.980455
-0.972497
-0.967069
-0.963957
-0.96245
-0.962305
-0.962846
-0.963724
-1.28986
-1.25182
-1.21574
-1.1818
-1.15013
-1.12097
-1.09439
-1.07057
-1.04964
-1.0316
-1.01662
-1.00454
-0.995235
-0.988422
-0.98385
-0.980969
-0.979522
-0.978999
-0.979061
-1.36315
-1.31114
-1.26444
-1.22252
-1.1849
-1.1513
-1.12145
-1.09518
-1.07239
-1.05293
-1.03678
-1.02373
-1.01358
-1.00603
-1.0008
-0.997431
-0.995615
-0.994911
-0.994963
-1.41681
-1.35404
-1.29922
-1.25132
-1.20935
-1.17256
-1.14037
-1.11237
-1.08829
-1.06787
-1.05097
-1.03736
-1.02678
-1.01891
-1.01346
-1.00999
-1.00812
-1.00741
-1.00746
-1.45033
-1.37816
-1.31777
-1.26629
-1.2219
-1.18341
-1.15002
-1.12114
-1.09641
-1.07553
-1.05827
-1.04443
-1.0337
-1.02579
-1.02038
-1.01707
-1.01548
-1.01517
-1.01573
-1.45033
-1.37817
-1.31779
-1.26631
-1.22192
-1.18343
-1.15004
-1.12115
-1.09643
-1.07555
-1.05829
-1.04445
-1.03372
-1.02581
-1.0204
-1.01709
-1.0155
-1.01519
-1.01575
-1.41682
-1.35407
-1.29926
-1.25137
-1.2094
-1.17261
-1.14042
-1.11242
-1.08834
-1.06792
-1.05102
-1.03741
-1.02683
-1.01897
-1.01352
-1.01005
-1.00818
-1.00748
-1.00754
-1.36317
-1.31118
-1.26451
-1.22259
-1.18498
-1.15139
-1.12153
-1.09526
-1.07247
-1.05301
-1.03686
-1.02382
-1.01367
-1.00612
-1.00089
-0.997524
-0.995712
-0.995014
-0.995072
-1.28988
-1.25188
-1.21582
-1.1819
-1.15023
-1.12108
-1.0945
-1.07068
-1.04975
-1.03171
-1.01673
-1.00464
-0.99534
-0.988526
-0.983952
-0.98107
-0.979622
-0.979099
-0.97916
-1.20003
-1.17886
-1.15565
-1.13146
-1.10706
-1.08332
-1.06072
-1.03986
-1.02115
-1.00483
-0.99133
-0.980582
-0.97262
-0.967188
-0.964071
-0.962557
-0.962404
-0.962938
-0.963809
-1.09372
-1.09396
-1.08616
-1.07334
-1.05731
-1.03975
-1.02162
-1.00402
-0.987696
-0.973179
-0.961284
-0.952141
-0.946112
-0.943149
-0.943244
-0.945529
-0.949731
-0.954642
-0.959541
-0.981461
-1.00281
-1.01048
-1.00904
-1.00128
-0.989559
-0.975365
-0.960187
-0.945114
-0.930996
-0.918888
-0.909331
-0.903108
-0.900816
-0.903263
-0.911196
-0.926033
-0.949078
-0.982383
-0.88099
-0.918521
-0.940217
-0.950163
-0.951274
-0.946177
-0.93684
-0.925031
-0.912176
-0.899627
-0.888399
-0.879742
-0.874682
-0.874544
-0.880011
-0.892923
-0.911961
-0.935341
-0.959207
-0.793568
-0.842371
-0.875349
-0.895197
-0.904399
-0.90553
-0.900926
-0.892635
-0.882468
-0.87234
-0.863282
-0.857048
-0.854172
-0.854804
-0.856108
-0.855279
-0.84352
-0.814991
-0.763438
-0.716698
-0.774449
-0.815943
-0.84308
-0.857814
-0.862535
-0.859664
-0.851416
-0.839779
-0.826708
-0.812967
-0.79962
-0.785667
-0.768816
-0.743872
-0.706487
-0.650894
-0.578568
-0.493299
-0.651948
-0.716322
-0.76486
-0.798418
-0.818287
-0.826554
-0.825547
-0.817558
-0.804636
-0.788622
-0.770052
-0.749212
-0.724276
-0.692441
-0.650037
-0.596193
-0.532789
-0.46814
-0.412016
-0.596454
-0.666085
-0.720335
-0.75918
-0.783275
-0.794344
-0.794537
-0.786122
-0.771136
-0.751283
-0.726962
-0.698141
-0.663187
-0.620426
-0.569076
-0.511701
-0.453298
-0.400927
-0.358109
-0.546775
-0.622569
-0.682016
-0.725313
-0.752838
-0.766006
-0.766791
-0.757393
-0.739832
-0.715778
-0.685711
-0.649837
-0.607417
-0.558441
-0.504404
-0.449269
-0.39765
-0.353591
-0.317458
-0.508786
-0.588453
-0.651869
-0.698522
-0.728485
-0.74287
-0.743512
-0.732522
-0.711955
-0.683586
-0.648191
-0.606595
-0.559165
-0.507308
-0.453663
-0.402116
-0.355857
-0.316798
-0.284057
-0.482574
-0.563993
-0.629697
-0.678245
-0.709363
-0.723853
-0.723462
-0.710231
-0.686313
-0.653729
-0.613679
-0.567774
-0.517354
-0.464712
-0.412733
-0.364609
-0.322144
-0.285992
-0.254722
-0.468426
-0.550747
-0.617197
-0.666023
-0.696787
-0.710035
-0.70752
-0.691252
-0.663573
-0.62685
-0.58275
-0.533662
-0.481599
-0.429239
-0.379185
-0.333798
-0.293747
-0.25889
-0.227385
-0.467351
-0.54887
-0.614317
-0.661653
-0.69038
-0.700881
-0.695028
-0.674882
-0.643057
-0.602325
-0.554789
-0.503482
-0.45076
-0.39929
-0.351127
-0.307808
-0.269014
-0.233899
-0.199966
-0.477959
-0.557115
-0.620349
-0.665128
-0.690868
-0.698012
-0.688523
-0.66469
-0.629429
-0.585762
-0.536421
-0.484561
-0.432655
-0.383047
-0.337264
-0.295578
-0.256813
-0.218357
-0.175171
-0.494146
-0.569324
-0.628027
-0.668028
-0.688688
-0.690695
-0.676039
-0.647353
-0.607815
-0.560557
-0.508949
-0.455933
-0.404154
-0.355485
-0.311357
-0.27148
-0.23566
-0.202635
-0.172017
-0.51481
-0.585774
-0.640517
-0.677041
-0.694837
-0.694772
-0.678785
-0.649605
-0.610396
-0.564217
-0.514636
-0.464252
-0.415645
-0.370533
-0.330531
-0.295701
-0.267424
-0.246993
-0.239012
-0.53867
-0.6056
-0.656126
-0.688562
-0.702725
-0.69969
-0.681529
-0.651042
-0.611435
-0.565763
-0.517561
-0.469327
-0.423552
-0.381923
-0.346196
-0.316846
-0.295728
-0.28409
-0.283678
-0.565122
-0.628573
-0.674824
-0.702994
-0.713356
-0.707221
-0.686821
-0.655048
-0.615152
-0.570147
-0.523522
-0.477656
-0.434955
-0.397069
-0.365802
-0.341684
-0.326366
-0.320275
-0.323543
-0.595365
-0.654975
-0.696472
-0.720106
-0.72647
-0.717076
-0.694339
-0.661267
-0.621152
-0.576955
-0.532097
-0.488812
-0.449403
-0.415418
-0.388579
-0.369223
-0.358613
-0.356524
-0.362442
-0.630847
-0.684282
-0.720508
-0.739376
-0.741502
-0.728633
-0.703423
-0.669027
-0.628777
-0.585554
-0.542692
-0.502238
-0.466351
-0.43641
-0.413964
-0.399051
-0.392609
-0.394011
-0.402515
-0.665918
-0.713777
-0.74513
-0.75918
-0.75686
-0.740358
-0.712636
-0.677023
-0.636863
-0.59492
-0.55441
-0.517143
-0.485099
-0.459431
-0.441489
-0.430995
-0.428675
-0.433656
-0.445107
-0.70133
-0.746004
-0.772533
-0.781279
-0.774015
-0.753509
-0.723093
-0.686246
-0.646297
-0.605845
-0.567951
-0.534146
-0.506198
-0.485008
-0.471727
-0.465774
-0.467757
-0.476628
-0.491505
-0.741472
-0.78123
-0.801571
-0.803964
-0.791034
-0.766126
-0.732938
-0.695026
-0.655627
-0.617103
-0.582311
-0.552455
-0.529073
-0.512795
-0.504602
-0.503618
-0.510413
-0.523783
-0.542809
-0.785479
-0.81783
-0.830528
-0.825467
-0.806196
-0.776673
-0.740877
-0.702331
-0.66407
-0.628121
-0.597111
-0.571859
-0.553677
-0.542924
-0.540457
-0.545102
-0.557469
-0.576202
-0.600352
-0.830233
-0.854586
-0.858251
-0.844573
-0.818419
-0.784334
-0.746384
-0.707897
-0.671575
-0.639009
-0.612596
-0.592718
-0.580492
-0.576015
-0.580084
-0.591206
-0.610133
-0.63535
-0.665907
-0.877994
-0.892165
-0.884266
-0.860606
-0.827247
-0.788978
-0.749628
-0.71213
-0.678722
-0.650472
-0.62958
-0.615947
-0.610547
-0.613229
-0.62481
-0.643447
-0.670155
-0.703265
-0.741893
-0.93082
-0.927537
-0.90521
-0.870835
-0.830668
-0.789267
-0.749798
-0.714636
-0.685437
-0.662672
-0.648452
-0.642138
-0.644646
-0.655602
-0.675955
-0.703451
-0.739553
-0.782441
-0.831409
-0.973279
-0.950462
-0.913501
-0.86939
-0.824137
-0.781725
-0.744209
-0.713322
-0.690074
-0.674303
-0.668212
-0.670571
-0.682381
-0.703079
-0.733919
-0.772172
-0.820034
-0.875554
-0.938386
-1.00708
-0.965331
-0.913532
-0.860922
-0.812581
-0.771316
-0.737667
-0.71272
-0.696868
-0.689349
-0.692677
-0.704984
-0.727505
-0.759526
-0.802798
-0.854026
-0.916481
-0.988157
-1.06948
-1.03339
-0.965544
-0.899257
-0.841245
-0.793235
-0.756177
-0.72885
-0.711887
-0.705195
-0.707488
-0.721874
-0.745804
-0.780939
-0.826466
-0.884906
-0.952275
-1.03345
-1.12649
-1.23346
-1.02835
-0.93646
-0.862109
-0.80497
-0.762153
-0.73302
-0.714768
-0.708022
-0.712422
-0.726271
-0.753627
-0.79122
-0.841406
-0.903375
-0.980838
-1.06905
-1.17531
-1.29813
-1.44302
-0.984717
-0.882036
-0.809143
-0.759258
-0.725702
-0.707235
-0.69998
-0.705033
-0.722016
-0.74896
-0.791219
-0.844797
-0.91305
-0.995325
-1.09706
-1.21272
-1.35321
-1.5182
-1.72127
-0.894133
-0.798322
-0.73774
-0.701416
-0.680852
-0.675445
-0.680912
-0.699243
-0.730312
-0.772061
-0.831482
-0.903977
-0.994307
-1.1023
-1.23597
-1.38922
-1.57853
-1.80633
-2.10632
-0.757123
-0.689114
-0.650501
-0.632367
-0.627235
-0.636321
-0.65555
-0.688119
-0.734411
-0.792518
-0.871448
-0.96629
-1.08381
-1.22493
-1.40165
-1.60815
-1.86988
-2.19542
-2.67216
-0.58532
-0.560556
-0.549644
-0.551927
-0.563228
-0.587206
-0.62043
-0.667455
-0.729435
-0.804924
-0.905395
-1.02618
-1.17698
-1.36107
-1.59685
-1.88105
-2.25465
-2.73962
-3.57333
-0.399644
-0.420478
-0.437517
-0.459873
-0.487179
-0.525368
-0.571815
-0.632411
-0.709301
-0.801915
-0.924736
-1.07421
-1.26446
-1.50351
-1.82072
-2.22076
-2.77378
-3.53156
-5.16034
-0.222994
-0.27697
-0.316755
-0.356578
-0.398254
-0.448987
-0.506741
-0.578555
-0.667612
-0.774696
-0.9179
-1.09576
-1.32907
-1.63514
-2.06267
-2.6371
-3.48784
-4.73661
-8.28083
-0.0730858
-0.136446
-0.18985
-0.243165
-0.296904
-0.357901
-0.423953
-0.503048
-0.598847
-0.714072
-0.870904
-1.07004
-1.34284
-1.72727
-2.31862
-3.23515
-4.86558
-7.86808
-18.5874
)
;

boundaryField
{
    up
    {
        type            calculated;
        value           nonuniform List<scalar> 
84
(
-16.8435
-9.12225
-5.60145
-3.82896
-2.83433
-2.2167
-1.80038
-1.50192
-1.27837
-1.10458
-0.966134
-0.853526
-0.759773
-0.680433
-0.612199
-0.552516
-0.499483
-0.451675
-0.407922
-0.366935
-0.327265
-0.286343
-0.237479
-0.155148
-0.150846
-0.189708
-0.218062
-0.245306
-0.274
-0.306163
-0.344219
-0.391075
-0.461007
-0.761426
-0.992761
-1.0028
-0.960451
-0.963579
-0.978845
-0.994944
-1.00756
-1.01618
-1.0162
-1.00764
-0.995057
-0.978946
-0.963663
-0.960422
-1.00242
-0.992946
-0.764459
-0.461547
-0.391404
-0.344477
-0.306378
-0.27419
-0.245486
-0.218247
-0.189954
-0.151012
-0.155049
-0.237489
-0.286347
-0.327267
-0.366937
-0.407923
-0.451676
-0.499483
-0.552516
-0.612198
-0.680432
-0.759773
-0.853526
-0.966134
-1.10459
-1.27837
-1.50193
-1.80038
-2.2167
-2.83433
-3.82896
-5.60145
-9.12225
-16.8435
)
;
    }
    low
    {
        type            calculated;
        value           nonuniform List<scalar> 
84
(
-0.0783034
-0.232534
-0.420558
-0.620866
-0.806668
-0.953227
-1.04623
-1.08586
-1.07932
-1.03786
-0.995879
-0.945422
-0.881815
-0.828016
-0.77976
-0.731166
-0.687129
-0.650644
-0.613412
-0.572897
-0.538894
-0.509645
-0.482315
-0.458362
-0.43617
-0.423002
-0.42449
-0.442695
-0.474137
-0.518879
-0.574528
-0.633959
-0.703581
-0.786461
-0.879048
-0.986747
-1.10949
-1.22303
-1.31776
-1.39531
-1.45243
-1.49025
-1.49025
-1.45243
-1.39532
-1.31777
-1.22305
-1.10951
-0.986769
-0.879045
-0.786474
-0.703578
-0.63396
-0.574529
-0.51888
-0.474138
-0.442699
-0.424495
-0.423009
-0.43618
-0.458381
-0.482322
-0.509654
-0.538902
-0.572903
-0.613417
-0.650648
-0.687132
-0.731168
-0.77976
-0.828016
-0.881814
-0.94542
-0.995876
-1.03786
-1.07932
-1.08586
-1.04623
-0.953232
-0.806673
-0.620871
-0.420561
-0.232535
-0.0783038
)
;
    }
    left
    {
        type            calculated;
        value           nonuniform List<scalar> 
19
(
-0.0716674
-0.133819
-0.188163
-0.243077
-0.298846
-0.362144
-0.430965
-0.513746
-0.614335
-0.736769
-0.90435
-1.1189
-1.4161
-1.84139
-2.50177
-3.54216
-5.4152
-8.90603
-17.4708
)
;
    }
    right
    {
        type            calculated;
        value           nonuniform List<scalar> 
19
(
-0.0716677
-0.13382
-0.188163
-0.243077
-0.298846
-0.362144
-0.430965
-0.513746
-0.614335
-0.736769
-0.90435
-1.1189
-1.4161
-1.84139
-2.50177
-3.54216
-5.4152
-8.90603
-17.4708
)
;
    }
    frontAndBackPlanes
    {
        type            empty;
    }
}


// ************************************************************************* //
