/*--------------------------------*- C++ -*----------------------------------*\
  =========                 |
  \\      /  F ield         | OpenFOAM: The Open Source CFD Toolbox
   \\    /   O peration     | Website:  https://openfoam.org
    \\  /    A nd           | Version:  7
     \\/     M anipulation  |
\*---------------------------------------------------------------------------*/
FoamFile
{
    version     2.0;
    format      ascii;
    class       volScalarField;
    location    "0.233";
    object      gradTz;
}
// * * * * * * * * * * * * * * * * * * * * * * * * * * * * * * * * * * * * * //

dimensions      [0 -1 0 1 0 0 0];

internalField   nonuniform List<scalar> 
1596
(
-8.06822e-16
-3.91969e-16
3.98588e-16
8.93772e-18
-7.58478e-16
0
-3.53653e-16
-3.48732e-16
-2.35731e-17
-1.83957e-16
-1.64983e-18
-1.83113e-16
8.06589e-16
-1.8122e-16
8.46592e-16
7.30708e-16
4.34676e-16
5.49063e-16
0
8.05778e-16
0
1.13326e-15
-8.1204e-18
-3.4631e-16
3.432e-16
7.08823e-16
2.24891e-17
3.35548e-16
-1.61839e-16
3.23035e-16
-4.79318e-18
-4.48284e-16
-2.80202e-16
-6.84421e-16
-6.67915e-16
-6.07764e-16
3.46036e-16
0
-3.94524e-16
0
-7.38033e-16
1.28913e-17
6.74391e-16
-1.90544e-16
1.5218e-17
-4.67664e-18
-4.69618e-18
-4.96065e-18
1.21345e-16
0
2.32527e-16
6.59158e-16
-6.50073e-17
5.24352e-17
1.23267e-16
1.92887e-16
0
6.20535e-16
-1.85699e-16
1.85021e-16
0
-1.7771e-16
-1.84269e-16
3.11755e-16
-2.70722e-16
0
0
-9.9203e-17
6.33737e-17
0
-1.93886e-16
-2.46532e-16
1.70884e-16
-1.76404e-16
-9.07205e-18
0
1.08499e-16
2.87094e-16
-2.57714e-16
0
-7.56735e-17
-2.30609e-16
0
3.43713e-16
-3.41321e-17
-3.0914e-17
-3.12e-17
1.78334e-16
2.19877e-16
2.28785e-17
8.95356e-18
-1.84762e-16
9.30177e-18
8.5639e-17
-3.69455e-17
-2.81755e-17
-3.93849e-16
3.73238e-16
-3.24137e-16
-7.04018e-19
-2.84558e-16
8.00964e-18
-8.03622e-18
-2.23371e-16
0
-2.59422e-17
-2.11011e-16
-1.98585e-16
1.60714e-16
1.68461e-16
-2.2953e-18
-1.01039e-16
-8.68624e-17
6.64981e-17
2.35468e-16
-4.00808e-16
4.47255e-16
2.49329e-16
0
2.18656e-16
1.27838e-16
-6.14729e-17
2.8314e-16
-5.30388e-17
-2.25157e-16
1.99944e-18
-1.32889e-16
-1.61466e-16
-1.25639e-16
1.07378e-16
1.01928e-16
-1.36379e-18
-2.76966e-17
2.41939e-17
6.372e-16
-7.45634e-16
0
0
-2.69022e-16
0
0
0
1.8279e-16
0
0
1.22064e-16
4.43952e-18
3.42859e-17
-9.39672e-17
0
5.0009e-17
1.96468e-17
0
-4.12008e-16
7.91798e-16
0
0
2.77055e-16
0
-1.0445e-16
1.04344e-16
-1.86054e-16
7.71387e-17
-7.77029e-17
0
1.1209e-16
1.10637e-16
0
-6.3824e-17
-5.10942e-17
-1.71813e-17
9.99785e-16
-4.67008e-16
0
-3.26093e-16
3.22444e-16
0
2.35169e-16
0
0
0
7.07342e-17
-7.10733e-17
0
-8.66637e-17
-2.46938e-17
0
7.48865e-18
3.62085e-17
0
-2.53784e-16
0
0
3.26842e-16
-6.08087e-16
3.27927e-17
1.25495e-17
-9.58715e-17
1.11781e-17
4.13943e-18
-7.39727e-17
-1.18069e-16
0
8.91434e-17
-1.7995e-17
1.82651e-17
4.84096e-17
-2.84746e-17
-1.30308e-17
2.08844e-16
-2.36301e-17
2.00631e-16
6.80641e-16
-3.85169e-17
-2.82765e-16
0
0
0
1.52347e-16
6.05151e-17
2.17705e-16
-5.25337e-17
-8.75487e-17
-5.15808e-17
-2.84296e-17
1.26947e-17
-2.77062e-17
1.23821e-17
-2.32455e-16
2.27846e-16
-4.19964e-16
-6.72393e-16
6.2053e-16
2.42513e-16
-4.46847e-16
3.83501e-16
-3.28841e-16
8.5862e-17
6.49485e-17
-5.87447e-17
3.73656e-17
-3.39687e-17
9.98106e-17
0
-7.57555e-18
5.60539e-17
-8.34636e-18
-1.51287e-15
6.92594e-16
5.60055e-19
-1.49314e-16
2.02985e-17
2.35436e-16
-4.46204e-16
-1.81775e-16
1.53708e-16
-1.29342e-16
-1.09324e-16
0
-1.23297e-16
-3.66032e-17
-6.50291e-17
-3.86549e-17
3.03937e-18
-3.47492e-17
9.01337e-19
2.47261e-16
-2.19234e-16
4.27963e-19
-1.66503e-16
-4.11149e-16
3.86465e-16
1.77769e-18
1.7714e-16
-1.49655e-16
2.47698e-16
5.84715e-17
4.75545e-17
1.45024e-16
0
1.19476e-16
5.49203e-17
0
1.88088e-17
7.52115e-19
0
2.12683e-16
1.65077e-16
-3.44668e-16
3.98245e-16
-5.94397e-16
4.17579e-16
1.54782e-16
-2.41589e-17
-2.45293e-16
4.41449e-17
-4.39271e-17
-1.31536e-16
5.17111e-17
-2.60535e-17
-5.44369e-17
2.3334e-17
-1.45325e-17
5.82798e-18
-2.30308e-16
7.75608e-16
-5.78464e-16
3.11043e-16
0
0
-8.10987e-17
1.73724e-16
-1.20862e-16
2.26286e-16
0
0
8.81988e-17
-7.66526e-17
-5.35904e-17
1.6942e-17
-1.81936e-17
9.63696e-18
0
1.99504e-17
2.1539e-16
-1.71733e-16
-1.49339e-16
-2.37686e-16
-7.4288e-17
1.06314e-16
0
-1.13261e-16
-9.06624e-17
8.08941e-17
-6.51336e-17
5.21503e-17
0
2.05504e-17
3.95465e-17
0
0
0
-1.9137e-17
3.40185e-16
1.27309e-16
-4.51353e-16
1.23026e-16
1.04498e-16
0
0
1.06605e-16
-5.56848e-17
-7.82422e-17
6.29961e-17
-5.04332e-17
0
-1.31138e-17
1.09483e-17
0
-9.3104e-18
-3.26516e-18
-1.83687e-16
5.39036e-16
-6.50666e-16
-2.56341e-16
1.34989e-16
-9.87088e-17
8.18545e-17
0
-5.43032e-17
4.48492e-17
0
0
1.95502e-17
-1.95727e-17
5.75108e-18
-7.84003e-18
1.31546e-17
1.72352e-18
2.4368e-18
9.50496e-17
-8.51542e-17
4.31429e-16
-2.78027e-16
-1.11061e-16
1.51873e-17
1.69441e-16
6.30126e-17
5.196e-17
0
2.89305e-17
-2.67169e-17
2.09455e-17
-1.75045e-17
2.20595e-17
-3.7817e-17
-1.02423e-17
8.91326e-18
2.35066e-18
2.53286e-16
-2.57366e-16
0
2.30439e-16
-1.22097e-16
-8.90743e-17
5.98077e-17
-1.92851e-16
0
-3.47253e-18
-3.38366e-17
-2.37993e-17
3.3964e-17
-2.76268e-18
-2.13201e-17
1.56152e-17
0
5.54397e-18
-2.28247e-18
4.35647e-16
-7.63045e-17
3.2081e-16
-2.51053e-16
1.34908e-16
1.2383e-17
-1.5295e-16
-5.06743e-17
9.05933e-17
-4.09484e-18
-5.08999e-17
4.25229e-17
-1.84208e-17
-2.36372e-17
0
0
0
-5.59532e-18
2.06841e-19
-3.85622e-16
3.75022e-16
2.75577e-19
5.61197e-17
4.77338e-17
-1.13205e-16
1.32222e-16
-1.0697e-16
8.99858e-17
-2.89274e-17
5.4794e-17
1.90355e-17
-7.99378e-18
3.95308e-19
-2.74812e-18
-4.82172e-18
0
0
0
0
0
1.80826e-16
-9.02773e-17
-2.71909e-16
0
0
-3.11115e-17
-4.92565e-17
4.0589e-17
0
-2.40072e-17
1.83048e-17
-5.98302e-17
6.84794e-17
-2.18842e-17
2.32681e-17
2.52042e-18
0
-7.46999e-17
7.56193e-17
0
-5.96684e-17
6.04397e-17
9.84124e-17
0
3.14086e-17
3.99897e-17
-1.80522e-16
0
-2.69871e-17
2.06986e-17
1.44707e-17
-1.05963e-17
1.53725e-17
0
-5.55659e-18
0
-3.84234e-17
-3.79989e-17
2.24933e-18
6.13077e-17
-1.63014e-16
0
-4.10004e-17
0
1.12578e-16
4.45864e-17
0
1.07053e-16
-1.10945e-16
1.15806e-17
-2.33974e-17
7.16259e-18
2.96276e-17
1.10191e-17
-8.73175e-18
0
7.91742e-17
-6.86529e-17
8.50396e-17
1.00812e-16
0
8.32442e-17
-7.82893e-17
-6.04959e-17
8.9337e-17
-1.33938e-16
-6.40513e-17
0
0
1.33553e-17
0
0
3.7309e-18
0
-3.52316e-16
2.70749e-16
0
4.4044e-18
-5.86457e-17
-3.19675e-18
5.14382e-17
3.59673e-17
-4.5715e-17
-1.12912e-16
1.76501e-16
-4.8042e-17
0
-2.21711e-17
0
0
0
-1.44414e-17
1.15451e-17
-9.99376e-17
9.31437e-17
2.46901e-16
-2.40793e-16
7.34814e-17
4.32293e-18
-5.22432e-17
4.45777e-17
7.49746e-17
5.65874e-17
-1.11716e-16
0
5.60336e-17
7.02819e-18
-2.5385e-17
-5.45044e-17
4.479e-17
-7.05863e-18
1.34488e-17
-3.39186e-16
4.83529e-16
-4.7895e-16
8.35861e-17
7.02927e-17
-6.6633e-17
5.58028e-17
-4.37584e-17
0
-3.65392e-17
5.76031e-17
2.49466e-17
3.98622e-17
4.94661e-17
-7.38128e-17
-1.4689e-18
0
-5.51329e-18
1.85181e-18
-3.66733e-16
-1.08409e-16
-1.88748e-16
1.00702e-16
-1.6254e-16
1.40251e-16
-8.32935e-17
6.97506e-17
-5.12247e-18
-5.09364e-18
-6.10533e-17
3.63064e-17
-1.95748e-17
5.99816e-17
-6.43908e-17
7.67528e-18
6.7119e-18
0
-3.22719e-18
3.96519e-16
-1.16998e-16
0
0
-1.67336e-16
3.24843e-16
-7.55878e-17
-1.43277e-17
1.17314e-16
-3.06494e-18
0
0
-2.62502e-17
0
-5.64324e-17
1.36174e-16
-9.42137e-17
0
1.29758e-18
1.35257e-16
2.51701e-16
0
-1.06379e-16
-8.59404e-17
-7.53792e-17
-7.87305e-17
3.22957e-17
-8.99218e-17
-4.87335e-17
0
0
3.57147e-17
0
0
-7.70475e-17
1.27153e-16
0
0
9.28308e-16
-1.11327e-16
-5.58794e-16
-3.01768e-16
4.0956e-16
1.29586e-16
7.6339e-17
0
-2.77645e-17
2.66339e-17
6.62433e-17
-2.12903e-17
-3.13399e-17
4.85237e-17
-5.16143e-17
-1.57099e-17
0
0
0
7.43398e-17
-5.8396e-16
5.72266e-16
-5.45934e-17
-4.1981e-16
6.55809e-16
-3.28618e-16
0
0
1.72602e-16
-1.415e-16
0
-4.22866e-17
7.38076e-17
-8.19084e-18
2.14621e-17
6.52037e-18
7.34986e-20
1.41438e-18
0
0
0
4.78589e-16
-3.21118e-16
3.35016e-16
-5.21785e-16
1.48257e-16
0
-5.29378e-17
8.43179e-17
-8.61779e-17
-1.67962e-17
-2.06595e-19
-1.1462e-17
-1.6578e-18
-9.14573e-18
-2.5741e-18
-1.40192e-18
6.2173e-16
-1.10715e-15
5.23971e-16
0
1.39745e-16
-1.90486e-16
1.89801e-16
-1.50541e-16
0
-7.26995e-17
1.01921e-16
0
0
-1.40916e-19
0
-1.19617e-17
8.17266e-18
1.4777e-18
2.23975e-18
6.05325e-16
0
-2.39081e-16
2.67005e-16
-1.66691e-16
3.63879e-16
-1.71766e-16
-1.33702e-16
1.35098e-16
-1.37009e-17
0
0
8.73596e-18
-1.46777e-17
-1.02938e-17
1.9499e-17
-4.22115e-18
2.15107e-18
0
3.43616e-16
2.67286e-16
-9.76855e-18
-2.54717e-16
-2.56201e-17
-1.84147e-16
2.03166e-17
1.54371e-16
-7.95519e-18
1.39582e-17
0
0
-8.94941e-18
0
1.05163e-17
-1.12499e-17
0
1.44022e-18
-3.98835e-19
-1.82371e-16
-1.34116e-16
1.25599e-16
-1.43324e-17
-6.4145e-18
1.72854e-17
0
-4.5457e-18
6.78793e-17
-5.71647e-17
0
1.92702e-17
-3.80392e-18
-1.69908e-17
-1.55276e-18
-1.21008e-18
0
-1.12621e-18
0
7.4333e-17
-1.41214e-16
-1.71458e-18
6.04899e-17
5.51228e-17
-5.47468e-17
-3.86464e-17
4.37394e-17
-1.49582e-17
1.17068e-17
-1.13374e-17
1.16871e-17
0
2.97832e-20
-1.14487e-18
4.11319e-18
-1.40712e-20
0
0
7.43355e-17
-7.4057e-17
-6.01726e-17
5.33153e-17
9.73641e-17
-9.79389e-17
-1.93239e-17
1.93699e-17
-1.50849e-17
1.52432e-17
-1.13379e-17
2.13825e-17
-5.99724e-18
-4.31044e-18
-1.32091e-18
4.38442e-19
1.04434e-18
2.76055e-19
-2.07019e-19
0
-1.76146e-17
1.04777e-16
-1.13601e-16
9.7163e-17
-8.61493e-17
0
6.81052e-17
-6.09354e-17
0
2.25527e-17
-2.8546e-17
-1.62136e-17
1.69928e-17
3.11836e-18
0
0
-1.1264e-18
4.09225e-19
2.95792e-16
-5.4416e-16
5.53955e-16
-4.85262e-16
1.90606e-16
-1.6122e-16
1.53027e-16
1.81135e-17
-6.72883e-17
6.01103e-17
0
-4.33766e-17
3.95144e-17
-7.48369e-18
-3.05443e-18
4.78857e-18
3.51823e-18
1.09352e-18
-3.95404e-19
6.82432e-16
0
-2.70508e-16
2.10262e-16
2.53256e-17
-1.93976e-16
3.4362e-16
-3.0428e-16
1.19336e-16
-5.07992e-17
5.19975e-17
1.028e-17
1.7585e-17
7.2892e-18
-6.01905e-18
-8.00222e-19
-7.61578e-18
0
7.75238e-19
5.45652e-16
-6.14209e-16
0
5.60099e-17
2.40757e-16
-2.35654e-16
4.00402e-17
3.53894e-17
1.54452e-17
2.70965e-17
0
0
-3.05743e-17
5.71307e-17
-2.0854e-17
-7.46694e-18
8.17505e-18
6.54093e-19
-1.47282e-18
5.14837e-17
5.39578e-16
-6.21057e-17
-4.22809e-16
3.71258e-16
4.42431e-17
-3.91866e-17
-3.45649e-17
1.13334e-16
-1.40579e-16
8.43455e-17
-8.6205e-17
1.33749e-17
-1.71107e-17
3.0996e-17
-2.06794e-17
0
0
1.47791e-18
0
1.35034e-16
-4.03984e-16
4.61767e-16
-3.71233e-16
3.70349e-16
0
1.27247e-16
-1.2783e-16
-9.56167e-17
1.41609e-16
0
5.84331e-17
-7.38641e-17
-1.09211e-17
0
-1.22072e-18
-2.41269e-18
-5.4872e-20
-1.28619e-15
6.12625e-16
0
-4.09491e-16
4.0945e-16
2.49581e-16
-1.6399e-16
6.71286e-17
0
-2.99889e-18
2.20714e-17
-2.12622e-17
-3.13003e-17
4.84558e-17
-5.15246e-17
0
1.10647e-17
-2.38731e-18
-1.49542e-18
7.90739e-16
-7.77222e-16
0
1.06118e-16
9.61615e-17
-8.76885e-17
0
-7.03514e-17
-6.01632e-17
0
-2.91419e-18
0
3.57323e-17
0
0
1.57619e-17
5.9154e-17
-7.66191e-17
0
9.73642e-20
1.17055e-16
-1.07654e-16
8.7276e-17
-4.43901e-16
1.6955e-16
0
1.43384e-17
4.05933e-17
0
-4.13396e-17
1.19162e-16
-1.25187e-16
2.0848e-17
0
-2.48543e-18
0
0
0
9.85411e-20
0
9.94991e-17
0
-1.52476e-16
1.549e-16
0
5.47536e-17
-4.36465e-17
1.57836e-16
-7.60359e-17
2.71689e-17
-4.35247e-17
4.11585e-17
-6.44747e-17
-1.02601e-17
0
-6.64026e-18
0
3.071e-16
-5.19427e-16
0
-8.35093e-17
7.45998e-17
0
0
-9.99028e-17
0
-3.65676e-17
-5.76509e-17
-2.49707e-17
3.99052e-17
0
2.09799e-17
0
0
1.44724e-17
-1.59441e-17
0
4.48273e-16
-3.58733e-16
7.73106e-17
-6.90799e-17
-2.81277e-17
8.08511e-17
9.02781e-17
-1.09481e-16
3.52819e-17
2.73244e-18
-3.22742e-17
1.31879e-16
-4.09781e-17
-9.42187e-17
3.23869e-17
-8.2799e-18
4.96756e-18
-1.49671e-18
-7.31251e-16
2.70749e-16
0
0
2.93833e-17
-2.98795e-17
2.10975e-17
1.36328e-17
9.86073e-17
5.00447e-17
-4.94094e-17
-2.13299e-18
-2.73593e-17
2.21928e-17
0
1.07779e-17
7.58913e-18
4.04326e-18
1.35282e-18
0
2.3393e-16
-2.17674e-16
6.96877e-17
7.15129e-17
-1.37793e-17
-4.41706e-17
-3.74951e-17
-1.23191e-16
4.92465e-17
-2.96943e-17
4.09278e-17
2.55843e-17
-3.15622e-17
3.35013e-17
2.09797e-17
-2.73697e-17
-3.73455e-18
0
-4.15467e-17
-1.85943e-16
6.62498e-17
6.13243e-17
-2.10023e-16
1.49993e-16
7.38718e-17
-7.55083e-17
5.7415e-17
-4.67373e-17
0
0
-3.78138e-17
6.7657e-17
-2.97154e-17
2.7472e-17
-3.0054e-17
4.92325e-18
-8.74047e-18
7.79001e-17
7.25815e-17
-6.58195e-17
5.10991e-17
-5.98666e-17
-9.03722e-17
0
0
0
0
0
0
1.93544e-17
-5.05891e-17
5.35035e-17
-1.71596e-17
2.11642e-17
9.88001e-18
-8.36741e-18
1.61531e-16
-2.73947e-16
3.42581e-16
-1.59191e-16
2.20321e-16
-1.59191e-16
2.96151e-16
-1.66341e-16
-8.80566e-17
9.00779e-17
0
2.39929e-17
-1.89082e-17
4.5711e-17
-1.55445e-17
-1.96805e-17
-4.09485e-17
3.09979e-18
7.10376e-18
2.51467e-16
7.21812e-17
0
-1.1187e-16
-8.78146e-17
2.00612e-16
1.98743e-17
-8.00751e-17
4.74503e-17
-3.32936e-17
0
-1.89931e-17
0
-1.51948e-17
1.22722e-17
-1.09743e-17
-3.62004e-18
2.54319e-18
0
3.51123e-16
-7.63034e-17
3.20684e-16
-2.51005e-16
-5.01629e-17
1.96337e-16
-1.17746e-16
6.06352e-18
4.98025e-18
-3.24731e-17
3.1298e-17
0
0
1.85469e-17
-6.65859e-18
4.30496e-18
1.31051e-17
-4.56166e-18
0
7.29243e-20
0
-7.11453e-17
4.15912e-16
-2.80717e-16
-2.96275e-16
1.62075e-16
-1.67339e-16
1.5479e-16
7.59672e-17
-5.69304e-17
2.30027e-17
-2.04175e-17
3.61821e-18
3.31462e-17
1.14968e-18
-1.2465e-17
1.23324e-17
-2.53938e-18
8.53358e-16
-2.7195e-16
1.3199e-16
-4.08216e-16
1.1106e-16
-1.72763e-16
9.29974e-17
0
0
-3.5638e-18
-4.86838e-18
-1.43678e-18
0
-2.91884e-17
-2.206e-17
1.61355e-17
-1.18463e-18
2.17421e-18
5.04605e-18
0
-2.69848e-16
4.55566e-16
1.00644e-16
-3.69733e-16
9.87085e-17
-1.50602e-16
2.59048e-17
1.21874e-16
0
0
2.24685e-18
2.4947e-17
0
-2.19755e-17
-9.95118e-18
1.46475e-18
-5.15329e-18
-5.93744e-18
0
-1.69494e-16
3.87754e-17
3.0728e-16
2.28447e-16
-4.17994e-16
1.89529e-16
-1.30974e-16
7.02263e-17
-9.64524e-17
0
0
0
-4.00189e-17
1.04681e-17
-1.31782e-17
0
-8.1962e-19
4.09915e-18
-6.41177e-16
6.07365e-16
6.47099e-16
-7.85301e-16
3.65309e-16
-3.43196e-16
0
1.38099e-16
-1.88496e-16
1.08766e-16
-8.43163e-17
6.86186e-17
5.5566e-17
4.13884e-17
3.24973e-17
0
0
0
0
7.10415e-16
-4.08838e-16
0
0
-1.33506e-16
3.23529e-16
-2.07086e-16
-1.46307e-16
1.44658e-16
1.06851e-16
1.78679e-16
-7.11984e-17
3.0554e-17
2.29941e-17
1.68548e-17
1.39303e-17
2.24568e-17
-1.10249e-18
1.12298e-18
-7.19347e-16
6.60195e-16
3.51133e-16
-1.82903e-16
3.98088e-16
-2.55422e-16
-2.00931e-16
-1.69133e-16
0
-2.24539e-16
1.13799e-17
8.19298e-17
-6.37017e-17
-5.17112e-17
-1.91165e-17
-2.00232e-17
-1.60319e-17
0
0
-2.47468e-16
0
1.91343e-16
-2.58371e-19
0
0
2.07267e-16
1.74521e-16
0
1.21874e-16
0
-1.24504e-16
-3.51022e-17
6.21727e-17
0
4.01799e-17
-5.66942e-18
5.78357e-18
0
5.27207e-16
0
3.67934e-16
-6.82046e-16
6.07347e-16
4.88317e-16
-1.5575e-17
0
1.33735e-17
1.42565e-16
0
-1.40876e-16
1.57227e-16
-1.40046e-16
-3.05516e-17
-3.22199e-17
-9.58387e-18
-1.72813e-18
-6.24129e-18
-4.89485e-16
7.04891e-16
-1.99063e-16
-5.19928e-16
-3.00111e-16
-2.58789e-16
-4.45416e-16
-1.78042e-16
1.47294e-17
6.50706e-17
-6.49484e-17
2.06706e-16
-9.15106e-17
1.83565e-16
-3.43902e-17
0
3.97105e-17
-2.3524e-17
6.27996e-18
1.08423e-15
-2.39702e-17
-8.23625e-16
6.80645e-16
-6.1053e-16
5.3109e-16
-1.73653e-17
-2.00934e-16
1.75093e-16
6.9557e-17
-9.02396e-18
-1.69621e-16
4.88819e-17
5.27533e-17
-1.58583e-17
1.60392e-17
-4.11304e-17
-4.56364e-18
-9.9585e-18
5.32259e-16
2.24782e-16
3.94869e-16
-3.46754e-16
-2.85616e-16
1.53443e-17
-2.18781e-16
5.29661e-16
1.84304e-17
2.45174e-16
1.43616e-16
-1.2731e-16
0
-8.91431e-17
0
0
5.85939e-17
2.56784e-17
1.16054e-17
4.99055e-16
0
3.90138e-16
3.44516e-16
-3.05908e-16
2.67187e-16
0
-2.07635e-16
-2.88033e-16
-2.51123e-16
-1.44887e-16
1.2875e-16
0
0
0
0
-5.49495e-17
-4.14243e-17
0
-9.77818e-16
0
-1.96493e-17
-1.73606e-17
4.6612e-16
-2.62637e-16
-1.20631e-16
-1.21211e-16
2.93436e-16
0
7.71382e-17
-8.12534e-18
7.0084e-17
0
0
9.2942e-17
-6.93364e-18
4.97509e-17
-1.91824e-17
6.87613e-16
1.9812e-16
-1.96075e-16
-1.73087e-16
-6.00596e-16
4.12567e-16
4.98267e-16
-1.41448e-17
-2.00703e-16
1.99238e-16
4.18126e-17
-2.12935e-16
-1.73967e-16
-1.06741e-16
-1.13208e-16
-1.07181e-16
9.00879e-17
-4.24533e-18
1.96468e-17
-2.11194e-16
9.59469e-17
-4.62165e-16
7.90881e-17
-7.88003e-17
0
-2.47954e-16
-1.81164e-17
-2.30318e-16
2.04859e-17
2.25157e-16
1.65681e-16
-4.09206e-17
1.6254e-17
1.07587e-16
0
-1.88111e-16
-6.94904e-17
-1.44207e-18
4.30291e-16
-1.17015e-17
7.26951e-16
-3.46267e-16
7.04018e-19
9.19082e-18
2.76245e-16
-2.2417e-17
2.2337e-16
-2.09155e-16
-1.96867e-16
0
1.98585e-16
1.58225e-16
2.21665e-18
-3.22488e-18
1.02017e-16
7.06315e-17
0
-3.05746e-16
0
-7.32172e-17
3.30152e-16
4.74904e-18
7.57746e-17
-2.67125e-16
2.52447e-16
2.67903e-16
2.56826e-16
2.47157e-16
0
-1.92922e-16
0
1.03273e-17
-1.07259e-17
0
-1.03102e-18
5.08187e-17
2.12022e-16
1.12517e-17
-1.67502e-16
5.17098e-16
-1.6594e-16
0
0
-3.01721e-16
-2.5957e-16
-2.48807e-16
-4.53087e-16
-6.33736e-17
0
0
0
-2.12339e-17
2.24708e-17
1.44138e-16
-5.15955e-17
1.16803e-17
0
-3.61329e-16
-3.30225e-16
3.46249e-16
-3.43818e-16
-4.92359e-16
6.03309e-16
1.68389e-16
0
2.67545e-16
3.04581e-16
-6.57666e-17
3.57741e-16
-5.8632e-17
6.10216e-17
2.37588e-16
-1.36969e-16
0
-4.04938e-16
0
-3.87526e-16
3.79685e-16
0
6.84495e-16
3.21355e-16
-6.75709e-16
5.40943e-16
-3.45518e-18
-1.63496e-16
-2.94897e-16
0
4.08595e-16
-6.8442e-16
7.34687e-16
-9.36309e-16
0
0
4.03285e-16
-2.69983e-18
-6.64513e-18
-7.65654e-16
7.72982e-16
-3.73517e-16
3.71994e-16
3.66634e-16
-3.23492e-16
0
0
6.11935e-16
-6.22477e-16
-6.64571e-16
6.59081e-16
-6.42273e-16
6.94841e-16
-1.08859e-15
0
)
;

boundaryField
{
    up
    {
        type            calculated;
        value           nonuniform List<scalar> 
84
(
0
0
0
0
-3.69455e-17
6.64981e-17
-2.76966e-17
1.96468e-17
-1.71813e-17
0
-1.30308e-17
1.23821e-17
-8.34636e-18
9.01337e-19
7.52115e-19
5.82798e-18
0
0
-3.26516e-18
2.4368e-18
2.35066e-18
-2.28247e-18
2.06841e-19
0
9.2422e-19
4.45469e-19
-8.28667e-18
0
1.15451e-17
1.41141e-17
1.85181e-18
-3.22719e-18
1.29758e-18
0
-6.37001e-19
1.46069e-18
-1.39808e-18
2.23502e-18
0
-3.97913e-19
0
0
-2.071e-19
4.09225e-19
-3.95404e-19
7.75238e-19
-1.47282e-18
1.47791e-18
-5.4872e-20
-1.49542e-18
0
0
0
-1.59441e-17
-2.16259e-18
1.35282e-18
0
-8.74047e-18
-8.36741e-18
6.1826e-18
0
0
-2.53938e-18
5.04605e-18
-5.93744e-18
4.09915e-18
0
1.12298e-18
0
0
-6.24129e-18
6.27996e-18
-9.9585e-18
1.16054e-17
0
-1.91824e-17
1.96468e-17
-1.44207e-18
0
5.08187e-17
-5.15955e-17
0
0
0
)
;
    }
    low
    {
        type            calculated;
        value           nonuniform List<scalar> 
84
(
-8.07409e-16
8.05778e-16
-3.93449e-16
6.21406e-16
1.09089e-16
-2.83495e-17
2.36928e-16
2.55899e-17
0
1.00141e-15
-2.53784e-16
2.07952e-16
-2.32455e-16
-1.51288e-15
2.47261e-16
0
-2.30308e-16
1.99504e-17
-1.9137e-17
-1.83687e-16
9.50496e-17
2.53286e-16
4.34002e-16
-3.85622e-16
0
-7.46999e-17
-3.84234e-17
0
-3.52316e-16
-9.99376e-17
-3.38129e-16
-3.659e-16
3.95963e-16
1.35257e-16
9.28364e-16
7.43398e-17
0
6.2173e-16
6.06643e-16
3.44337e-16
-1.82756e-16
7.4333e-17
7.43355e-17
0
2.95792e-16
6.83749e-16
5.45652e-16
5.23753e-17
0
-1.28624e-15
7.90739e-16
9.73642e-20
9.85411e-20
3.071e-16
0
-7.29555e-16
0
-4.15467e-17
7.79001e-17
1.60521e-16
2.49698e-16
3.49477e-16
7.29243e-20
8.52001e-16
0
0
-6.41177e-16
7.09753e-16
-7.18912e-16
-2.47468e-16
5.27224e-16
-4.89485e-16
1.08601e-15
5.33519e-16
4.99055e-16
-9.77818e-16
6.86218e-16
-2.09734e-16
4.30291e-16
-3.05157e-16
2.12022e-16
1.27554e-17
-4.04938e-16
4.03579e-16
)
;
    }
    left
    {
        type            calculated;
        value           nonuniform List<scalar> 
19
(
-8.06822e-16
-3.92283e-16
3.98588e-16
8.93993e-18
-7.58694e-16
0
-3.53653e-16
-3.48732e-16
-2.47367e-17
-1.83957e-16
-1.64983e-18
-1.83113e-16
8.14714e-16
-1.8122e-16
8.46592e-16
7.30708e-16
4.34676e-16
6.37673e-16
0
)
;
    }
    right
    {
        type            calculated;
        value           nonuniform List<scalar> 
19
(
4.03285e-16
-2.38658e-18
-6.64513e-18
-7.65656e-16
7.73199e-16
-3.73517e-16
3.71994e-16
3.66634e-16
-3.22329e-16
0
0
6.17716e-16
-6.30602e-16
-6.64571e-16
6.59081e-16
-6.42273e-16
6.94841e-16
-1.1772e-15
0
)
;
    }
    frontAndBackPlanes
    {
        type            empty;
    }
}


// ************************************************************************* //
