/*--------------------------------*- C++ -*----------------------------------*\
  =========                 |
  \\      /  F ield         | OpenFOAM: The Open Source CFD Toolbox
   \\    /   O peration     | Website:  https://openfoam.org
    \\  /    A nd           | Version:  7
     \\/     M anipulation  |
\*---------------------------------------------------------------------------*/
FoamFile
{
    version     2.0;
    format      ascii;
    class       volScalarField;
    location    "0.03";
    object      gradTy;
}
// * * * * * * * * * * * * * * * * * * * * * * * * * * * * * * * * * * * * * //

dimensions      [0 -1 0 1 0 0 0];

internalField   nonuniform List<scalar> 
1596
(
-0.969758
-1.68657
-2.10372
-2.35977
-2.50832
-2.65101
-2.77482
-2.92719
-3.10025
-3.27289
-3.51217
-3.76056
-4.08722
-4.5634
-5.4186
-6.91682
-9.92027
-15.7757
-37.1806
-2.77805
-3.10282
-3.01106
-2.79424
-2.587
-2.49346
-2.47596
-2.53837
-2.64946
-2.76939
-2.94945
-3.14053
-3.39232
-3.74061
-4.3307
-5.23395
-6.78872
-9.25185
-16.4153
-4.52025
-4.20832
-3.57789
-2.93035
-2.41705
-2.11701
-1.97103
-1.94644
-1.99316
-2.06187
-2.18395
-2.31784
-2.49621
-2.73784
-3.14654
-3.75382
-4.77797
-6.34126
-9.7751
-5.88595
-4.98894
-3.91444
-2.92718
-2.17407
-1.70643
-1.45286
-1.35301
-1.34309
-1.3689
-1.44171
-1.52761
-1.64462
-1.80108
-2.0677
-2.46179
-3.13574
-4.16721
-6.04431
-6.7473
-5.50103
-4.14175
-2.9223
-1.99461
-1.39626
-1.05489
-0.892555
-0.836072
-0.828143
-0.862606
-0.91158
-0.981909
-1.07554
-1.23655
-1.4759
-1.89948
-2.5693
-3.68992
-7.15088
-5.8121
-4.32897
-2.97672
-1.92969
-1.23042
-0.816091
-0.601112
-0.50646
-0.472207
-0.478515
-0.500975
-0.538644
-0.589687
-0.678495
-0.811591
-1.05801
-1.46845
-2.14912
-7.22493
-5.9706
-4.48956
-3.08556
-1.96422
-1.18782
-0.711489
-0.450593
-0.323626
-0.268204
-0.254455
-0.258989
-0.275652
-0.300441
-0.3448
-0.411765
-0.542191
-0.773778
-1.17161
-7.09535
-6.00513
-4.6065
-3.21208
-2.05461
-1.22277
-0.694694
-0.393478
-0.238408
-0.165255
-0.137116
-0.129946
-0.134028
-0.144044
-0.163865
-0.194143
-0.256449
-0.375369
-0.592263
-6.86162
-5.9684
-4.69116
-3.34223
-2.17385
-1.30198
-0.729443
-0.391423
-0.21051
-0.121355
-0.0821005
-0.0670468
-0.0638037
-0.0660435
-0.0735911
-0.0857454
-0.112503
-0.167834
-0.276559
-6.56189
-5.83554
-4.691
-3.41569
-2.26574
-1.3777
-0.776301
-0.410744
-0.209252
-0.107001
-0.0593303
-0.0389208
-0.0314563
-0.0297844
-0.0316875
-0.0358097
-0.0460396
-0.0692796
-0.119121
-6.31324
-5.67964
-4.63904
-3.43758
-2.32009
-1.43312
-0.817028
-0.433637
-0.217482
-0.105419
-0.0516021
-0.0275351
-0.0175918
-0.0139664
-0.0134254
-0.0143303
-0.0177287
-0.0265326
-0.0473953
-6.0814
-5.53411
-4.57448
-3.43503
-2.3504
-1.47149
-0.848772
-0.454133
-0.22777
-0.108529
-0.0502555
-0.0236407
-0.0121746
-0.00753822
-0.00596234
-0.00567087
-0.00652568
-0.00949556
-0.0174611
-5.83598
-5.36056
-4.46841
-3.38476
-2.33681
-1.47634
-0.85873
-0.462659
-0.232891
-0.110587
-0.0502138
-0.0223413
-0.010139
-0.00504985
-0.00307036
-0.00237148
-0.00237476
-0.0032211
-0.00598709
-5.65361
-5.19954
-4.34416
-3.29986
-2.28514
-1.44868
-0.845427
-0.456815
-0.23033
-0.109237
-0.0492358
-0.0214223
-0.00918475
-0.00403628
-0.00196423
-0.00116029
-0.000916814
-0.00107059
-0.00193416
-5.51103
-5.06271
-4.2185
-3.19528
-2.20665
-1.3957
-0.812773
-0.438275
-0.220455
-0.104187
-0.0466906
-0.0200816
-0.00839409
-0.00348148
-0.00149288
-0.000708135
-0.000418356
-0.0003742
-0.000604645
-5.38813
-4.94186
-4.09258
-3.0756
-2.10626
-1.32146
-0.763559
-0.408705
-0.2041
-0.0957344
-0.0425539
-0.0181141
-0.00745539
-0.00300593
-0.0012141
-0.000509195
-0.0002395
-0.000153897
-0.00019425
-5.30137
-4.83734
-3.96509
-2.94099
-1.98553
-1.22811
-0.699895
-0.369749
-0.182349
-0.0844924
-0.0371075
-0.0155971
-0.00632802
-0.00250343
-0.000980207
-0.000387258
-0.000160722
-7.96873e-05
-7.11372e-05
-5.25387
-4.75554
-3.84182
-2.79767
-1.85115
-1.12192
-0.626813
-0.32493
-0.157391
-0.0716843
-0.0309674
-0.012806
-0.00511043
-0.00198574
-0.000760464
-0.000290631
-0.000113396
-4.87351e-05
-3.22748e-05
-5.21249
-4.69929
-3.73624
-2.66118
-1.71743
-1.01446
-0.552586
-0.279549
-0.132295
-0.0589307
-0.0249232
-0.0100965
-0.00394845
-0.00150323
-0.000563339
-0.000209847
-7.89337e-05
-3.15556e-05
-1.75139e-05
-5.17061
-4.65219
-3.63588
-2.52366
-1.58052
-0.904773
-0.477757
-0.234556
-0.107877
-0.0467676
-0.0192758
-0.00761803
-0.00290893
-0.00108188
-0.00039607
-0.000143964
-5.26318e-05
-2.01549e-05
-1.02185e-05
-5.16489
-4.62471
-3.54197
-2.38454
-1.4407
-0.794157
-0.403932
-0.191304
-0.0850397
-0.0357043
-0.0142791
-0.00548455
-0.00203816
-0.0007385
-0.000263586
-9.34189e-05
-3.32626e-05
-1.23297e-05
-5.93747e-06
-5.17645
-4.61941
-3.46078
-2.2505
-1.30401
-0.687367
-0.334366
-0.151729
-0.0647942
-0.0262076
-0.0101242
-0.00376514
-0.00135749
-0.000477998
-0.000166015
-5.73051e-05
-1.98748e-05
-7.15604e-06
-3.32131e-06
-5.18467
-4.63057
-3.39695
-2.12944
-1.17747
-0.589167
-0.271726
-0.117094
-0.0476408
-0.0184314
-0.00683763
-0.00245083
-0.000854347
-0.000291639
-9.84107e-05
-3.30605e-05
-1.11729e-05
-3.9153e-06
-1.75921e-06
-5.17822
-4.6478
-3.35024
-2.02689
-1.06677
-0.502944
-0.217354
-0.0876197
-0.0334074
-0.0121621
-0.00426622
-0.0014538
-0.000484153
-0.000158535
-5.14682e-05
-1.66831e-05
-5.45272e-06
-1.85413e-06
-7.81081e-07
-5.16064
-4.69672
-3.39139
-2.03539
-1.0541
-0.485419
-0.203856
-0.0796399
-0.0294598
-0.010461
-0.00360861
-0.00122357
-0.000410431
-0.000137068
-4.58719e-05
-1.54984e-05
-5.33181e-06
-1.9369e-06
-8.2168e-07
-5.13081
-4.75473
-3.48927
-2.12453
-1.11294
-0.515889
-0.216711
-0.0840674
-0.0306658
-0.0106889
-0.00361565
-0.00120799
-0.000403523
-0.000136296
-4.69556e-05
-1.66247e-05
-6.10229e-06
-2.41287e-06
-1.12936e-06
-5.11407
-4.79203
-3.58602
-2.23808
-1.20446
-0.573121
-0.246206
-0.0969802
-0.0355486
-0.0122907
-0.00406397
-0.00131102
-0.000420366
-0.000137096
-4.65161e-05
-1.67313e-05
-6.50275e-06
-2.85929e-06
-1.53337e-06
-5.12173
-4.81136
-3.67523
-2.36963
-1.32765
-0.660425
-0.296875
-0.122059
-0.0464004
-0.0164543
-0.0054822
-0.00173877
-0.000530998
-0.000159542
-4.87501e-05
-1.59142e-05
-5.98756e-06
-2.92372e-06
-1.94058e-06
-5.15167
-4.83186
-3.76903
-2.52189
-1.48283
-0.779838
-0.372288
-0.162884
-0.0658693
-0.024776
-0.0086924
-0.00286358
-0.000885216
-0.000257035
-6.99042e-05
-1.7736e-05
-4.42339e-06
-1.90108e-06
-2.0251e-06
-5.21006
-4.86337
-3.87084
-2.68996
-1.66319
-0.927743
-0.472614
-0.221631
-0.0963896
-0.0391016
-0.0148243
-0.00528154
-0.00176175
-0.000546631
-0.000153743
-3.58645e-05
-3.94397e-06
1.61521e-06
-4.17381e-07
-5.30665
-4.92593
-3.99699
-2.88047
-1.86939
-1.10417
-0.599601
-0.301405
-0.141236
-0.0620623
-0.025639
-0.0100249
-0.00370386
-0.00128973
-0.00041599
-0.000116934
-1.87807e-05
7.82282e-06
7.24206e-06
-5.39678
-5.01304
-4.15018
-3.09632
-2.10318
-1.31119
-0.756704
-0.406738
-0.205019
-0.0975225
-0.0439248
-0.0188876
-0.00776226
-0.00305735
-0.00114869
-0.000404503
-0.000112555
-5.4983e-07
2.8291e-05
-5.51483
-5.13339
-4.32825
-3.3311
-2.35787
-1.54474
-0.943629
-0.540485
-0.292205
-0.150094
-0.0735427
-0.0346935
-0.0158066
-0.0069989
-0.00302062
-0.00128211
-0.000503772
-0.000136846
6.24406e-05
-5.68498
-5.30027
-4.54012
-3.59143
-2.63887
-1.81047
-1.16743
-0.71128
-0.412172
-0.228727
-0.122187
-0.0634881
-0.0322771
-0.0162201
-0.00814642
-0.00419061
-0.00222338
-0.00121544
-0.000607061
-5.88651
-5.48696
-4.74757
-3.83026
-2.89526
-2.05978
-1.38688
-0.888029
-0.543972
-0.320749
-0.183061
-0.102076
-0.055961
-0.0304551
-0.0166439
-0.0093482
-0.00553087
-0.00359018
-0.00256931
-6.13554
-5.68457
-4.92759
-4.01095
-3.07746
-2.23454
-1.54275
-1.01731
-0.644282
-0.394088
-0.234178
-0.136344
-0.078286
-0.0447368
-0.0257509
-0.0152473
-0.00955968
-0.00667796
-0.00540958
-6.44174
-5.91216
-5.11214
-4.17213
-3.22269
-2.36424
-1.65439
-1.10903
-0.716105
-0.447807
-0.272881
-0.163407
-0.096819
-0.0573045
-0.034337
-0.0212798
-0.0140443
-0.0103031
-0.00861587
-6.71917
-6.12028
-5.2788
-4.31421
-3.34836
-2.47574
-1.75101
-1.18962
-0.780532
-0.497207
-0.30943
-0.18971
-0.115392
-0.070322
-0.0435541
-0.02802
-0.0192781
-0.0147337
-0.0127267
-6.93233
-6.29257
-5.42231
-4.43862
-3.45897
-2.57411
-1.83657
-1.2615
-0.838606
-0.542343
-0.343382
-0.214619
-0.133374
-0.0832507
-0.0529822
-0.0351461
-0.0250094
-0.0197426
-0.0174831
-7.10143
-6.43032
-5.53713
-4.53775
-3.54671
-2.65205
-1.90457
-1.31901
-0.885544
-0.579286
-0.37159
-0.235672
-0.148871
-0.0946404
-0.0615005
-0.0417656
-0.0304879
-0.024652
-0.0222289
-7.22655
-6.53032
-5.6181
-4.606
-3.60631
-2.70478
-1.95071
-1.35833
-0.917955
-0.605102
-0.391571
-0.250808
-0.160198
-0.10312
-0.0679751
-0.0469104
-0.0348414
-0.028625
-0.0261133
-7.31745
-6.58847
-5.65901
-4.63784
-3.63327
-2.72867
-1.97199
-1.37687
-0.933609
-0.61785
-0.401644
-0.258587
-0.166128
-0.107642
-0.0714921
-0.049758
-0.0372956
-0.0309014
-0.0283683
-7.31749
-6.58854
-5.65912
-4.63798
-3.63342
-2.72881
-1.97211
-1.37698
-0.933696
-0.617917
-0.401693
-0.258623
-0.166154
-0.10766
-0.0715058
-0.0497684
-0.0373042
-0.0309091
-0.0283759
-7.2266
-6.53047
-5.61836
-4.60636
-3.60671
-2.70518
-1.95108
-1.35864
-0.918208
-0.605297
-0.391717
-0.250914
-0.160274
-0.103175
-0.0680147
-0.0469404
-0.0348659
-0.0286469
-0.0261351
-7.1015
-6.43057
-5.53756
-4.53831
-3.54735
-2.65269
-1.90516
-1.31951
-0.885945
-0.579592
-0.371817
-0.235835
-0.148986
-0.0947223
-0.0615594
-0.0418096
-0.0305232
-0.0246831
-0.0222595
-6.93242
-6.29289
-5.42287
-4.43937
-3.45982
-2.57495
-1.83734
-1.26215
-0.839126
-0.542737
-0.343669
-0.214823
-0.133516
-0.0833494
-0.0530517
-0.0351966
-0.0250489
-0.0197766
-0.0175159
-6.71927
-6.12066
-5.27948
-4.31513
-3.3494
-2.47678
-1.75194
-1.1904
-0.781147
-0.497666
-0.309759
-0.189939
-0.115548
-0.070428
-0.0436267
-0.0280713
-0.0193168
-0.0147661
-0.0127573
-6.44185
-5.9126
-5.11293
-4.17319
-3.22389
-2.36543
-1.65546
-1.10991
-0.716784
-0.448304
-0.273229
-0.163643
-0.0969762
-0.057408
-0.0344056
-0.0213266
-0.0140784
-0.0103307
-0.00864138
-6.13567
-5.6851
-4.92857
-4.01228
-3.07895
-2.23601
-1.54404
-1.01836
-0.645076
-0.394654
-0.234564
-0.136598
-0.0784494
-0.0448409
-0.0258177
-0.0152914
-0.00959055
-0.00670206
-0.00543175
-5.88659
-5.48728
-4.74838
-3.83157
-2.8969
-2.06149
-1.38845
-0.889327
-0.544955
-0.321442
-0.183522
-0.102369
-0.0561407
-0.0305628
-0.0167079
-0.0093863
-0.00555494
-0.0036084
-0.00258848
-5.68511
-5.30097
-4.54153
-3.59342
-2.64114
-1.81268
-1.16934
-0.712763
-0.413236
-0.229441
-0.12264
-0.0637652
-0.0324419
-0.0163168
-0.00820331
-0.00422513
-0.00224629
-0.00123282
-0.000620012
-5.51489
-5.13388
-4.32937
-3.33272
-2.3597
-1.54645
-0.945028
-0.541508
-0.292887
-0.150515
-0.0737865
-0.0348283
-0.0158783
-0.00703596
-0.00303948
-0.00129192
-0.000509233
-0.000139716
6.42807e-05
-5.39682
-5.01351
-4.15127
-3.09789
-2.10487
-1.3127
-0.757873
-0.407538
-0.205516
-0.0978069
-0.0440768
-0.0189646
-0.00779952
-0.00307477
-0.00115668
-0.000408163
-0.000113889
-1.93608e-07
2.97143e-05
-5.30667
-4.92637
-3.99805
-2.88195
-1.87093
-1.10547
-0.600546
-0.30201
-0.141584
-0.0622465
-0.0257294
-0.0100667
-0.00372207
-0.00129729
-0.000419022
-0.000118107
-1.89159e-05
8.55667e-06
7.87862e-06
-5.21006
-4.86379
-3.87186
-2.69135
-1.66456
-0.928839
-0.473358
-0.222075
-0.0966264
-0.039217
-0.0148762
-0.00530328
-0.00177022
-0.000549688
-0.000154754
-3.61416e-05
-3.85185e-06
1.99772e-06
-2.56541e-07
-5.15165
-4.83224
-3.76999
-2.52315
-1.48401
-0.78073
-0.372853
-0.163197
-0.0660241
-0.0248455
-0.00872098
-0.00287439
-0.000888939
-0.000258165
-7.01815e-05
-1.77586e-05
-4.34884e-06
-1.76992e-06
-2.03154e-06
-5.1217
-4.81171
-3.67611
-2.37074
-1.32864
-0.661121
-0.297287
-0.122271
-0.0464975
-0.0164945
-0.00549733
-0.00174395
-0.000532564
-0.000159935
-4.88144e-05
-1.59033e-05
-5.96261e-06
-2.89971e-06
-1.97573e-06
-5.11404
-4.79235
-3.58679
-2.23901
-1.20524
-0.573641
-0.246495
-0.0971189
-0.035608
-0.0123136
-0.00407196
-0.00131355
-0.000421072
-0.000137266
-4.6551e-05
-1.67393e-05
-6.50821e-06
-2.86762e-06
-1.55961e-06
-5.13079
-4.75499
-3.48989
-2.12525
-1.11352
-0.516255
-0.216904
-0.0841555
-0.0307016
-0.010702
-0.00362001
-0.00120933
-0.000403912
-0.000136411
-4.69957e-05
-1.66443e-05
-6.11544e-06
-2.42375e-06
-1.14172e-06
-5.16067
-4.6968
-3.39157
-2.03558
-1.05425
-0.485506
-0.203898
-0.079657
-0.0294659
-0.010463
-0.00360917
-0.00122375
-0.000410499
-0.000137104
-4.58943e-05
-1.55127e-05
-5.34098e-06
-1.94298e-06
-8.25179e-07
-5.17821
-4.64773
-3.3501
-2.0267
-1.0666
-0.502816
-0.217275
-0.087577
-0.0333867
-0.0121528
-0.00426234
-0.00145227
-0.000483574
-0.000158323
-5.13926e-05
-1.66567e-05
-5.4437e-06
-1.85101e-06
-7.79581e-07
-5.18467
-4.63058
-3.39696
-2.12945
-1.17748
-0.58917
-0.271728
-0.117095
-0.0476416
-0.0184319
-0.00683787
-0.00245093
-0.000854385
-0.000291651
-9.84134e-05
-3.30606e-05
-1.11725e-05
-3.91497e-06
-1.75885e-06
-5.17644
-4.61941
-3.46078
-2.25051
-1.30401
-0.687366
-0.334365
-0.151728
-0.0647943
-0.0262079
-0.0101244
-0.00376522
-0.00135753
-0.000478014
-0.00016602
-5.73065e-05
-1.9875e-05
-7.15584e-06
-3.32092e-06
-5.16489
-4.62471
-3.54197
-2.38455
-1.4407
-0.794156
-0.403931
-0.191303
-0.0850395
-0.0357044
-0.0142792
-0.00548466
-0.00203823
-0.000738532
-0.000263601
-9.34255e-05
-3.3265e-05
-1.23304e-05
-5.93756e-06
-5.17061
-4.65219
-3.63588
-2.52367
-1.58052
-0.904774
-0.477757
-0.234556
-0.107877
-0.0467675
-0.0192759
-0.00761815
-0.00290902
-0.00108194
-0.000396103
-0.00014398
-5.26381e-05
-2.01572e-05
-1.02197e-05
-5.21249
-4.69929
-3.73624
-2.66119
-1.71744
-1.01446
-0.552586
-0.279548
-0.132294
-0.0589305
-0.0249232
-0.0100966
-0.00394859
-0.00150332
-0.000563397
-0.000209877
-7.89426e-05
-3.1558e-05
-1.75173e-05
-5.25387
-4.75554
-3.84182
-2.79767
-1.85115
-1.12193
-0.626813
-0.324929
-0.15739
-0.0716839
-0.0309674
-0.0128062
-0.00511062
-0.00198589
-0.000760554
-0.000290672
-0.000113395
-4.87302e-05
-3.2285e-05
-5.30137
-4.83734
-3.96509
-2.941
-1.98554
-1.22811
-0.699895
-0.369748
-0.182348
-0.084492
-0.0371076
-0.0155974
-0.00632829
-0.00250363
-0.000980331
-0.000387289
-0.000160663
-7.9654e-05
-7.11806e-05
-5.38813
-4.94185
-4.09258
-3.0756
-2.10626
-1.32146
-0.76356
-0.408705
-0.204099
-0.0957342
-0.0425541
-0.0181144
-0.00745571
-0.00300618
-0.00121424
-0.00050914
-0.000239242
-0.000153801
-0.000194443
-5.51102
-5.06271
-4.2185
-3.19528
-2.20665
-1.3957
-0.812774
-0.438275
-0.220455
-0.104188
-0.046691
-0.020082
-0.00839448
-0.0034818
-0.001493
-0.000707786
-0.00041757
-0.00037404
-0.000605389
-5.65361
-5.19953
-4.34416
-3.29986
-2.28514
-1.44868
-0.845429
-0.456816
-0.230331
-0.109238
-0.0492365
-0.0214228
-0.00918529
-0.00403671
-0.00196419
-0.00115917
-0.000914892
-0.0010706
-0.00193652
-5.83597
-5.36056
-4.46842
-3.38476
-2.33681
-1.47634
-0.858733
-0.462661
-0.232893
-0.110588
-0.0502148
-0.022342
-0.0101398
-0.00505042
-0.0030698
-0.00236873
-0.00237093
-0.00322218
-0.00599321
-6.08139
-5.5341
-4.57447
-3.43503
-2.35041
-1.47149
-0.848775
-0.454137
-0.227772
-0.108531
-0.0502568
-0.0236419
-0.0121758
-0.00753883
-0.00596056
-0.00566536
-0.00651972
-0.0094998
-0.0174739
-6.31322
-5.67964
-4.63905
-3.43758
-2.32009
-1.43313
-0.817034
-0.433642
-0.217486
-0.105421
-0.051604
-0.0275369
-0.0175936
-0.0139665
-0.0134212
-0.0143216
-0.0177224
-0.0265429
-0.0474156
-6.56188
-5.83554
-4.691
-3.4157
-2.26574
-1.3777
-0.776307
-0.410749
-0.209256
-0.107004
-0.0593325
-0.0389231
-0.0314578
-0.0297823
-0.0316797
-0.0357994
-0.0460382
-0.0692971
-0.119142
-6.86161
-5.9684
-4.69117
-3.34223
-2.17385
-1.30198
-0.729449
-0.391428
-0.210513
-0.121358
-0.0821026
-0.0670485
-0.0638028
-0.0660366
-0.0735795
-0.0857391
-0.112514
-0.167854
-0.276563
-7.09535
-6.00513
-4.6065
-3.21208
-2.05461
-1.22277
-0.694697
-0.393481
-0.238409
-0.165257
-0.137117
-0.129945
-0.134021
-0.14403
-0.163853
-0.194149
-0.256479
-0.375375
-0.592227
-7.22493
-5.9706
-4.48957
-3.08556
-1.96422
-1.18782
-0.71149
-0.450594
-0.323626
-0.268204
-0.254453
-0.258983
-0.275638
-0.300423
-0.344794
-0.411789
-0.542232
-0.773756
-1.17153
-7.15088
-5.8121
-4.32897
-2.97672
-1.92969
-1.23042
-0.81609
-0.60111
-0.506457
-0.472203
-0.478508
-0.500961
-0.538625
-0.589672
-0.678504
-0.81163
-1.05805
-1.4684
-2.14903
-6.74731
-5.50103
-4.14175
-2.9223
-1.99461
-1.39626
-1.05489
-0.892552
-0.836067
-0.828136
-0.862593
-0.911562
-0.981892
-1.07554
-1.23658
-1.47593
-1.89949
-2.56924
-3.68987
-5.88596
-4.98895
-3.91444
-2.92718
-2.17407
-1.70643
-1.45286
-1.353
-1.34309
-1.36889
-1.4417
-1.5276
-1.64461
-1.8011
-2.06773
-2.46181
-3.13571
-4.16719
-6.04434
-4.52026
-4.20833
-3.57789
-2.93035
-2.41705
-2.11701
-1.97102
-1.94643
-1.99316
-2.06186
-2.18394
-2.31784
-2.49622
-2.73787
-3.14657
-3.75381
-4.77793
-6.34128
-9.77519
-2.77805
-3.10283
-3.01107
-2.79424
-2.587
-2.49346
-2.47596
-2.53837
-2.64945
-2.76938
-2.94945
-3.14054
-3.39234
-3.74063
-4.3307
-5.23391
-6.78867
-9.25187
-16.4153
-0.96976
-1.68657
-2.10372
-2.35977
-2.50832
-2.65101
-2.77482
-2.92719
-3.10025
-3.27289
-3.51217
-3.76057
-4.08724
-4.56341
-5.4186
-6.91679
-9.92023
-15.7757
-37.1806
)
;

boundaryField
{
    up
    {
        type            calculated;
        value           nonuniform List<scalar> 
84
(
-33.7343
-18.2058
-10.8004
-6.68763
-4.10085
-2.40068
-1.31444
-0.666397
-0.311504
-0.134123
-0.0532334
-0.0195282
-0.00665666
-0.00213003
-0.000654263
-0.000202847
-6.97108e-05
-2.92564e-05
-1.49326e-05
-8.39688e-06
-4.77031e-06
-2.62485e-06
-1.36429e-06
-5.55352e-07
-5.60749e-07
-8.7139e-07
-1.2778e-06
-1.83917e-06
-2.52174e-06
-2.4048e-06
3.99514e-06
3.92316e-05
0.000137875
-0.000438766
-0.00235917
-0.00510768
-0.00817864
-0.0122269
-0.0169483
-0.0216867
-0.025579
-0.0278507
-0.0278585
-0.0256012
-0.0217177
-0.0169813
-0.0122574
-0.00820396
-0.00512977
-0.00237971
-0.000451019
0.000142802
4.16163e-05
4.34535e-06
-2.60859e-06
-2.73248e-06
-1.96049e-06
-1.33436e-06
-8.92128e-07
-5.64951e-07
-5.54016e-07
-1.36389e-06
-2.62434e-06
-4.77011e-06
-8.39766e-06
-1.49359e-05
-2.92695e-05
-6.97703e-05
-0.000203104
-0.000655213
-0.00213295
-0.00666396
-0.0195427
-0.0532547
-0.13414
-0.311495
-0.666336
-1.31433
-2.40058
-4.10084
-6.68774
-10.8005
-18.2058
-33.7342
)
;
    }
    low
    {
        type            calculated;
        value           nonuniform List<scalar> 
84
(
-1.05583
-2.95753
-4.85979
-6.37904
-7.33946
-7.76886
-7.80471
-7.60576
-7.27501
-6.87491
-6.58532
-6.31652
-6.01524
-5.80854
-5.65687
-5.51522
-5.4144
-5.37482
-5.32971
-5.25804
-5.23209
-5.22741
-5.20691
-5.16791
-5.07412
-4.98862
-4.95552
-4.99711
-5.07955
-5.20236
-5.35215
-5.46628
-5.6087
-5.80692
-6.02917
-6.31179
-6.66883
-6.97334
-7.19836
-7.37783
-7.51215
-7.62091
-7.62093
-7.51216
-7.37785
-7.19839
-6.97337
-6.66886
-6.31183
-6.02906
-5.80697
-5.6086
-5.46619
-5.35204
-5.20226
-5.07942
-4.997
-4.95541
-4.98856
-5.07408
-5.16797
-5.20686
-5.22741
-5.23208
-5.25803
-5.32971
-5.37482
-5.4144
-5.51522
-5.65686
-5.80853
-6.01523
-6.31651
-6.5853
-6.87489
-7.275
-7.60575
-7.80471
-7.76886
-7.33947
-6.37906
-4.85981
-2.95754
-1.05583
)
;
    }
    left
    {
        type            calculated;
        value           nonuniform List<scalar> 
19
(
-0.963304
-1.68935
-2.13851
-2.42582
-2.59845
-2.75905
-2.89573
-3.061
-3.24587
-3.43247
-3.6894
-3.95407
-4.30493
-4.828
-5.77826
-7.48295
-10.9474
-17.7831
-34.9108
)
;
    }
    right
    {
        type            calculated;
        value           nonuniform List<scalar> 
19
(
-0.963306
-1.68935
-2.13851
-2.42582
-2.59845
-2.75905
-2.89573
-3.061
-3.24587
-3.43247
-3.68941
-3.95408
-4.30495
-4.82802
-5.77825
-7.48289
-10.9474
-17.7831
-34.9108
)
;
    }
    frontAndBackPlanes
    {
        type            empty;
    }
}


// ************************************************************************* //
