/*--------------------------------*- C++ -*----------------------------------*\
  =========                 |
  \\      /  F ield         | OpenFOAM: The Open Source CFD Toolbox
   \\    /   O peration     | Website:  https://openfoam.org
    \\  /    A nd           | Version:  7
     \\/     M anipulation  |
\*---------------------------------------------------------------------------*/
FoamFile
{
    version     2.0;
    format      ascii;
    class       volScalarField;
    location    "0.15";
    object      gradTx;
}
// * * * * * * * * * * * * * * * * * * * * * * * * * * * * * * * * * * * * * //

dimensions      [0 -1 0 1 0 0 0];

internalField   nonuniform List<scalar> 
1596
(
-0.296439
-1.48585
-2.64822
-3.67215
-4.54175
-5.24854
-5.82627
-6.29759
-6.6957
-7.08168
-7.47677
-7.95448
-8.59705
-9.5165
-10.8392
-12.8645
-16.0433
-21.3423
-30.76
0.0690607
-1.22587
-2.36856
-3.33789
-4.15012
-4.806
-5.33673
-5.75437
-6.0848
-6.36201
-6.59514
-6.82681
-7.07784
-7.37602
-7.7197
-8.09692
-8.38748
-8.3368
-7.39619
0.370897
-0.977483
-2.07479
-2.97345
-3.71396
-4.30785
-4.78241
-5.14607
-5.41685
-5.61436
-5.74122
-5.82178
-5.85802
-5.85493
-5.79886
-5.66111
-5.34827
-4.69031
-3.34327
0.426061
-0.82614
-1.814
-2.61153
-3.26332
-3.78552
-4.19951
-4.51201
-4.73477
-4.87852
-4.94372
-4.94315
-4.8734
-4.7322
-4.5077
-4.17669
-3.68161
-2.92462
-1.70533
0.153463
-0.829369
-1.63202
-2.29242
-2.83708
-3.27793
-3.62782
-3.89142
-4.07534
-4.18408
-4.21792
-4.18182
-4.07127
-3.88159
-3.60458
-3.22351
-2.70618
-1.99983
-0.993179
-0.416653
-1.01091
-1.56608
-2.0559
-2.47527
-2.8242
-3.10501
-3.31898
-3.46803
-3.55193
-3.571
-3.52471
-3.40842
-3.21622
-2.94237
-2.57398
-2.09363
-1.47342
-0.65321
-1.16929
-1.3551
-1.63408
-1.93071
-2.20966
-2.4559
-2.66085
-2.82101
-2.93393
-2.99551
-3.0056
-2.95978
-2.85319
-2.67899
-2.43237
-2.10214
-1.67842
-1.14588
-0.472193
-1.95029
-1.79288
-1.81046
-1.91211
-2.04532
-2.18266
-2.30654
-2.40831
-2.4815
-2.51896
-2.5194
-2.47582
-2.3829
-2.23299
-2.0213
-1.73712
-1.3739
-0.922062
-0.363718
-2.75329
-2.3623
-2.15385
-2.06329
-2.04124
-2.05584
-2.08461
-2.11465
-2.13627
-2.1398
-2.12219
-2.07466
-1.991
-1.8627
-1.68429
-1.44492
-1.13875
-0.75822
-0.291984
-3.23317
-2.76452
-2.42725
-2.2019
-2.05851
-1.97049
-1.91623
-1.88122
-1.85422
-1.82434
-1.78703
-1.73276
-1.65465
-1.54391
-1.39445
-1.19556
-0.941388
-0.62501
-0.238041
-3.62829
-3.13271
-2.72128
-2.39808
-2.15347
-1.97155
-1.83613
-1.73405
-1.65427
-1.58574
-1.52276
-1.45555
-1.37665
-1.27705
-1.15004
-0.985034
-0.775663
-0.514894
-0.195371
-4.03829
-3.54705
-3.09126
-2.69237
-2.35782
-2.08436
-1.86414
-1.6881
-1.54718
-1.43119
-1.3338
-1.24518
-1.15725
-1.0607
-0.948137
-0.808999
-0.636257
-0.422427
-0.160172
-4.16649
-3.74258
-3.30096
-2.87993
-2.50053
-2.17101
-1.89221
-1.66073
-1.47101
-1.31505
-1.18701
-1.07777
-0.979214
-0.882195
-0.779081
-0.659703
-0.516739
-0.342584
-0.129898
-4.21978
-3.86675
-3.46078
-3.04211
-2.63999
-2.27222
-1.94774
-1.66947
-1.43619
-1.2428
-1.08473
-0.953874
-0.842374
-0.741341
-0.643017
-0.53765
-0.417769
-0.275781
-0.104417
-4.24483
-3.95475
-3.59049
-3.18743
-2.7772
-2.38421
-2.02429
-1.70659
-1.43458
-1.2065
-1.01957
-0.866927
-0.741132
-0.633589
-0.536463
-0.440356
-0.337727
-0.221085
-0.0833091
-4.1784
-3.95607
-3.64189
-3.26867
-2.86762
-2.46675
-2.08688
-1.74255
-1.4418
-1.18636
-0.975693
-0.804393
-0.665711
-0.551473
-0.453903
-0.363961
-0.274149
-0.177174
-0.0661672
-4.01192
-3.8554
-3.59699
-3.26508
-2.88869
-2.49695
-2.11363
-1.7574
-1.44026
-1.16728
-0.940322
-0.755636
-0.607401
-0.488025
-0.389957
-0.304547
-0.224451
-0.142645
-0.052588
-3.80572
-3.69273
-3.48443
-3.19647
-2.85256
-2.48061
-2.1056
-1.7489
-1.42563
-1.14379
-0.907496
-0.714684
-0.560544
-0.438152
-0.34027
-0.258645
-0.186136
-0.116013
-0.0420848
-3.63439
-3.55592
-3.38538
-3.13224
-2.81535
-2.46079
-2.09404
-1.73837
-1.41137
-1.12343
-0.880522
-0.681981
-0.523799
-0.399549
-0.302199
-0.223737
-0.157146
-0.0959166
-0.0341565
-3.30105
-3.27072
-3.14723
-2.94056
-2.66599
-2.34653
-2.0066
-1.66982
-1.35522
-1.07496
-0.836668
-0.641121
-0.485328
-0.363631
-0.269476
-0.195291
-0.134334
-0.080426
-0.0281062
-2.91733
-2.92534
-2.8452
-2.68412
-2.45435
-2.17572
-1.87069
-1.56212
-1.26941
-1.00575
-0.779818
-0.593621
-0.445119
-0.329492
-0.240797
-0.171991
-0.116643
-0.0688526
-0.0236337
-2.50482
-2.53706
-2.49284
-2.37403
-2.18922
-1.95474
-1.69049
-1.41764
-1.155
-0.915918
-0.709525
-0.538684
-0.402169
-0.296043
-0.215124
-0.153053
-0.103747
-0.0613596
-0.0209283
-2.03455
-2.0779
-2.0631
-1.98564
-1.84938
-1.66611
-1.45218
-1.22585
-1.00426
-0.800043
-0.622125
-0.473948
-0.355002
-0.262377
-0.191953
-0.138443
-0.0963921
-0.0599013
-0.0226026
-1.49232
-1.47324
-1.41327
-1.31413
-1.18366
-1.03308
-0.874736
-0.719746
-0.577248
-0.452778
-0.348992
-0.265736
-0.200774
-0.151186
-0.113964
-0.0859637
-0.0638831
-0.0435595
-0.019136
-0.997529
-1.1013
-1.19506
-1.25489
-1.2671
-1.22785
-1.14286
-1.02378
-0.885895
-0.743566
-0.608171
-0.487545
-0.384665
-0.300467
-0.23414
-0.18391
-0.146677
-0.118499
-0.0932121
-0.334578
-0.376231
-0.426542
-0.472812
-0.505697
-0.519339
-0.51247
-0.48689
-0.447727
-0.400847
-0.351141
-0.303146
-0.258292
-0.217779
-0.182279
-0.153082
-0.13035
-0.114327
-0.10376
0.330379
0.282512
0.209078
0.121379
0.0310619
-0.05174
-0.120118
-0.170512
-0.203294
-0.221159
-0.227114
-0.224922
-0.215975
-0.201747
-0.183639
-0.164672
-0.147126
-0.133474
-0.124025
0.989903
0.924989
0.821119
0.690382
0.546056
0.400994
0.265781
0.147521
0.0492226
-0.0293843
-0.0897726
-0.134732
-0.165119
-0.181708
-0.185341
-0.179659
-0.168641
-0.157313
-0.148002
1.57837
1.48295
1.34261
1.17102
0.981779
0.788434
0.602722
0.432968
0.283686
0.155815
0.0487832
-0.0394724
-0.109073
-0.159339
-0.188978
-0.200393
-0.19787
-0.189015
-0.179014
2.17658
2.04057
1.85742
1.64122
1.40616
1.16634
0.934001
0.717819
0.522863
0.350429
0.200141
0.0698774
-0.0404688
-0.129115
-0.191806
-0.227636
-0.238531
-0.233601
-0.221949
2.61248
2.43121
2.20895
1.959
1.69499
1.42955
1.17322
0.933095
0.713353
0.514685
0.33636
0.175617
0.0315421
-0.0940975
-0.194383
-0.263467
-0.296527
-0.299909
-0.285329
3.00583
2.78685
2.52684
2.24444
1.95388
1.66641
1.39078
1.13238
0.894294
0.676421
0.47748
0.293584
0.121854
-0.0383378
-0.180349
-0.295214
-0.368197
-0.395234
-0.384274
3.35407
3.08538
2.78557
2.4735
2.16183
1.8593
1.57227
1.30406
1.05653
0.828777
0.619213
0.423245
0.235946
0.0526074
-0.124642
-0.290592
-0.424575
-0.506947
-0.518588
3.55658
3.21388
2.85604
2.49986
2.15532
1.82833
1.52283
1.24032
0.981457
0.744657
0.527713
0.325764
0.132558
-0.0603651
-0.258376
-0.467409
-0.677245
-0.869584
-1.00947
3.65846
3.28875
2.9311
2.5955
2.28401
1.99607
1.73045
1.48542
1.25972
1.0517
0.860109
0.682885
0.517107
0.35827
0.200741
0.0333025
-0.153328
-0.369177
-0.615861
3.71684
3.33936
2.99645
2.68447
2.39815
2.13349
1.8875
1.6581
1.44428
1.24505
1.06007
0.88906
0.73108
0.58542
0.451709
0.32817
0.2127
0.100647
-0.0161672
3.47347
3.04447
2.67297
2.34571
2.05369
1.79106
1.55346
1.33763
1.14131
0.962213
0.798798
0.649785
0.513431
0.388642
0.275194
0.172946
0.0826854
0.00605395
-0.0563993
3.01497
2.63209
2.30461
2.01926
1.76715
1.54222
1.33996
1.15696
0.990878
0.839501
0.701392
0.575425
0.460127
0.354524
0.258207
0.170604
0.0915199
0.0213631
-0.0401175
2.48057
2.16455
1.89241
1.6555
1.44705
1.26197
1.09631
0.946982
0.811848
0.688902
0.576851
0.474658
0.381013
0.295008
0.216204
0.14401
0.0782015
0.0191392
-0.0333297
1.85332
1.61238
1.40654
1.22878
1.07344
0.936246
0.813914
0.703927
0.604545
0.514165
0.431776
0.356555
0.287497
0.223908
0.16547
0.111761
0.0626689
0.0185449
-0.0206598
1.16083
1.00048
0.868007
0.755877
0.659071
0.574202
0.498883
0.431363
0.370459
0.315109
0.264647
0.218529
0.17611
0.136937
0.100808
0.0674591
0.0368354
0.00919923
-0.0154265
0.443843
0.378188
0.326072
0.282647
0.245368
0.21277
0.183913
0.158142
0.135011
0.114118
0.0951936
0.078003
0.0622714
0.047789
0.0344317
0.0220564
0.0105985
0.000117695
-0.00939031
-0.443631
-0.377704
-0.325398
-0.281845
-0.244485
-0.211844
-0.182976
-0.157218
-0.134123
-0.113284
-0.0944266
-0.0773151
-0.0616723
-0.0472869
-0.0340328
-0.0217654
-0.0104186
-4.8895e-05
0.00935018
-1.16063
-1.00005
-0.867408
-0.755168
-0.658292
-0.573389
-0.498065
-0.430563
-0.369696
-0.314399
-0.264003
-0.217963
-0.175629
-0.13655
-0.10052
-0.0672753
-0.0367582
-0.00922809
0.0152947
-1.85312
-1.61195
-1.40595
-1.22807
-1.07266
-0.935418
-0.813073
-0.703097
-0.603746
-0.513414
-0.431085
-0.355933
-0.286953
-0.223446
-0.165093
-0.11147
-0.0624614
-0.0184179
0.0207117
-2.48041
-2.16424
-1.89198
-1.65498
-1.44648
-1.26138
-1.09571
-0.946399
-0.811296
-0.688394
-0.576399
-0.474268
-0.380691
-0.294758
-0.216026
-0.143905
-0.0781669
-0.019171
0.0332365
-3.01486
-2.63187
-2.3043
-2.01888
-1.76672
-1.54176
-1.33949
-1.15651
-0.990452
-0.839114
-0.701053
-0.57514
-0.4599
-0.354358
-0.258102
-0.170556
-0.0915232
-0.0214075
0.0400454
-3.47344
-3.04437
-2.6728
-2.34548
-2.05343
-1.79078
-1.55318
-1.33737
-1.14108
-0.962029
-0.798665
-0.649709
-0.513415
-0.388689
-0.275303
-0.173108
-0.0828798
-0.00624596
0.0562486
-3.7168
-3.339
-2.9957
-2.68331
-2.39661
-2.13164
-1.88539
-1.65583
-1.4419
-1.24262
-1.05764
-0.886663
-0.728725
-0.583112
-0.449453
-0.326003
-0.210725
-0.0991024
0.0168833
-3.65908
-3.2904
-2.93381
-2.5992
-2.28859
-2.00139
-1.73635
-1.49175
-1.26633
-1.05847
-0.866965
-0.689789
-0.524074
-0.365388
-0.20816
-0.041246
0.144668
0.359769
0.606048
-3.55629
-3.21311
-2.85477
-2.49813
-2.15319
-1.82589
-1.52016
-1.23752
-0.978593
-0.741795
-0.5249
-0.323038
-0.129946
0.0628531
0.260778
0.469854
0.680046
0.873272
1.01473
-3.35427
-3.08588
-2.78632
-2.47445
-2.16294
-1.86053
-1.57357
-1.30539
-1.05785
-0.83007
-0.620461
-0.424438
-0.237073
-0.0536346
0.123793
0.290066
0.42454
0.507497
0.519572
-3.00595
-2.78716
-2.52731
-2.24506
-1.95461
-1.66722
-1.39164
-1.13327
-0.895179
-0.677279
-0.47829
-0.294328
-0.122503
0.037836
0.180073
0.295253
0.368587
0.395903
0.385067
-2.61261
-2.43153
-2.20945
-1.95965
-1.69576
-1.4304
-1.17411
-0.933995
-0.714224
-0.515498
-0.337092
-0.176244
-0.0320353
0.0937795
0.194284
0.263612
0.29689
0.300404
0.285844
-2.17671
-2.04089
-1.85794
-1.64191
-1.40697
-1.16723
-0.934924
-0.718726
-0.523714
-0.351193
-0.200796
-0.0704026
0.0400939
0.128912
0.191787
0.227789
0.238813
0.233951
0.222308
-1.57849
-1.48326
-1.34312
-1.17169
-0.982572
-0.789294
-0.603595
-0.433805
-0.284448
-0.156473
-0.0493186
0.0390712
0.108815
0.159228
0.189007
0.200538
0.198092
0.189275
0.17928
-0.990038
-0.925334
-0.821665
-0.691095
-0.546883
-0.401871
-0.266647
-0.148324
-0.0499239
0.0288076
0.08933
0.134425
0.164945
0.181658
0.185395
0.179792
0.168822
0.157519
0.148215
-0.330498
-0.282847
-0.209617
-0.12208
-0.0318611
0.0509118
0.119327
0.169807
0.202708
0.220706
0.226793
0.224725
0.21589
0.201756
0.18372
0.164804
0.147287
0.133652
0.124213
0.33429
0.375372
0.425121
0.470929
0.503516
0.517048
0.510245
0.484867
0.445991
0.399433
0.350043
0.302337
0.257729
0.217414
0.182061
0.152969
0.130313
0.114355
0.103874
0.997717
1.10202
1.19639
1.2568
1.26949
1.23053
1.14563
1.02648
0.888396
0.745777
0.610055
0.489108
0.385934
0.301488
0.234963
0.184584
0.147244
0.118992
0.0936465
1.49209
1.47247
1.41198
1.31242
1.18168
1.031
0.87271
0.717886
0.575622
0.451417
0.347893
0.264877
0.200121
0.150704
0.113618
0.0857229
0.0637233
0.0434644
0.0191001
2.03466
2.07813
2.06343
1.98605
1.84982
1.66654
1.45256
1.22616
1.00449
0.800201
0.622222
0.474
0.355024
0.262382
0.191949
0.138436
0.0963859
0.0598976
0.022603
2.50483
2.53707
2.49286
2.37405
2.18923
1.95474
1.69048
1.41762
1.15498
0.915887
0.709492
0.538653
0.402143
0.296023
0.21511
0.153045
0.103743
0.0613587
0.0209294
2.91734
2.92535
2.84521
2.68413
2.45435
2.17572
1.87068
1.5621
1.26939
1.00572
0.779793
0.5936
0.445102
0.329481
0.240791
0.171989
0.116643
0.0688538
0.0236343
3.30106
3.27072
3.14724
2.94057
2.66599
2.34653
2.00659
1.6698
1.3552
1.07494
0.83665
0.641107
0.485319
0.363626
0.269475
0.195292
0.134337
0.080428
0.0281068
3.6344
3.55594
3.3854
3.13225
2.81536
2.46079
2.09404
1.73836
1.41136
1.12342
0.88051
0.681972
0.523795
0.399549
0.302201
0.22374
0.157149
0.0959186
0.034157
3.80573
3.69274
3.48444
3.19648
2.85257
2.48062
2.1056
1.74889
1.42562
1.14378
0.907488
0.714679
0.560543
0.438154
0.340274
0.258649
0.186139
0.116014
0.0420848
4.01192
3.85541
3.597
3.26508
2.88869
2.49695
2.11362
1.7574
1.44025
1.16728
0.940317
0.755634
0.607402
0.488028
0.38996
0.30455
0.224452
0.142645
0.0525876
4.17841
3.95608
3.64191
3.26868
2.86763
2.46676
2.08688
1.74255
1.44179
1.18636
0.975691
0.804392
0.665712
0.551474
0.453903
0.36396
0.274147
0.177171
0.0661661
4.24483
3.95476
3.5905
3.18744
2.77721
2.38421
2.02429
1.70659
1.43458
1.20649
1.01957
0.866926
0.74113
0.633586
0.536458
0.44035
0.33772
0.221079
0.0833073
4.21979
3.86676
3.46079
3.04213
2.64
2.27222
1.94774
1.66947
1.43619
1.2428
1.08473
0.95387
0.842368
0.741333
0.643006
0.537638
0.417757
0.275773
0.104416
4.1665
3.7426
3.30098
2.87994
2.50054
2.17102
1.89222
1.66073
1.47101
1.31504
1.187
1.07776
0.979203
0.88218
0.779064
0.659684
0.516723
0.342575
0.129897
4.03828
3.54705
3.09125
2.69236
2.35781
2.08435
1.86413
1.68809
1.54717
1.43118
1.33378
1.24517
1.15723
1.06067
0.948113
0.808976
0.63624
0.422418
0.160172
3.62831
3.13273
2.72129
2.39809
2.15347
1.97155
1.83613
1.73405
1.65426
1.58573
1.52274
1.45553
1.37663
1.27702
1.15002
0.985012
0.775649
0.51489
0.195373
3.2332
2.76455
2.42726
2.2019
2.05851
1.97049
1.91623
1.88121
1.85421
1.82433
1.78701
1.73273
1.65462
1.54388
1.39443
1.19555
0.941382
0.625012
0.238044
2.75332
2.36231
2.15385
2.06329
2.04124
2.05583
2.08461
2.11464
2.13626
2.13978
2.12217
2.07464
1.99097
1.86268
1.68428
1.44491
1.13876
0.758227
0.291988
1.95031
1.79288
1.81047
1.91212
2.04532
2.18266
2.30654
2.4083
2.48149
2.51894
2.51937
2.4758
2.38288
2.23298
2.02129
1.73713
1.37391
0.922074
0.363722
1.16931
1.35511
1.63409
1.93072
2.20967
2.4559
2.66084
2.821
2.93392
2.9955
3.00558
2.95976
2.85318
2.67899
2.43238
2.10216
1.67844
1.14589
0.472195
0.416664
1.01092
1.5661
2.05591
2.47528
2.8242
3.10501
3.31897
3.46802
3.55192
3.57099
3.52471
3.40842
3.21624
2.94239
2.57401
2.09366
1.47343
0.653209
-0.153456
0.829382
1.63204
2.29243
2.83709
3.27793
3.62781
3.89141
4.07533
4.18408
4.21791
4.18182
4.07129
3.88161
3.6046
3.22354
2.7062
1.99983
0.993174
-0.42606
0.82615
1.81401
2.61154
3.26332
3.78551
4.1995
4.512
4.73477
4.87852
4.94372
4.94317
4.87342
4.73222
4.50773
4.17671
3.68161
2.92462
1.70532
-0.3709
0.977486
2.07479
2.97344
3.71396
4.30784
4.7824
5.14607
5.41686
5.61437
5.74124
5.8218
5.85804
5.85495
5.79887
5.66111
5.34826
4.6903
3.34327
-0.0690604
1.22587
2.36855
3.33788
4.15011
4.806
5.33673
5.75437
6.08481
6.36203
6.59516
6.82683
7.07785
7.37602
7.71969
8.09691
8.38746
8.33678
7.39618
0.296442
1.48585
2.64822
3.67214
4.54174
5.24854
5.82627
6.29759
6.69572
7.08169
7.47678
7.95448
8.59705
9.51648
10.8392
12.8645
16.0433
21.3423
30.7601
)
;

boundaryField
{
    up
    {
        type            calculated;
        value           nonuniform List<scalar> 
84
(
-30.76
-7.39619
-3.34327
-1.70533
-0.993179
-0.65321
-0.472193
-0.363718
-0.291984
-0.238041
-0.195371
-0.160172
-0.129898
-0.104417
-0.0833091
-0.0661672
-0.052588
-0.0420848
-0.0341565
-0.0281062
-0.0236337
-0.0209283
-0.0226026
-0.019136
-0.0785325
-0.0951576
-0.114537
-0.136606
-0.164645
-0.203068
-0.25879
-0.340776
-0.44749
-0.978897
-0.629618
-0.0169866
-0.0559663
-0.039832
-0.0331666
-0.0205936
-0.0153991
-0.00938475
0.00934467
0.0152678
0.020646
0.0330745
0.0397614
0.0558171
0.0176868
0.619671
0.985049
0.448391
0.341447
0.25924
0.203389
0.164888
0.136804
0.114716
0.0953082
0.0789152
0.0191001
0.022603
0.0209294
0.0236343
0.0281068
0.034157
0.0420848
0.0525876
0.0661661
0.0833073
0.104416
0.129897
0.160172
0.195373
0.238044
0.291988
0.363722
0.472195
0.653209
0.993174
1.70532
3.34327
7.39618
30.7601
)
;
    }
    low
    {
        type            calculated;
        value           nonuniform List<scalar> 
84
(
-0.266702
0.114494
0.443598
0.504288
0.202128
-0.425556
-1.24177
-2.07081
-2.8918
-3.34704
-3.72956
-4.12254
-4.20784
-4.23594
-4.24597
-4.15534
-3.96727
-3.75536
-3.56927
-3.20728
-2.80775
-2.38954
-1.91891
-1.38897
-0.915277
-0.304614
0.296219
0.905683
1.47213
2.07345
2.53194
2.94402
3.31766
3.55145
3.67726
3.76326
3.5478
3.09165
2.54749
1.90574
1.19517
0.458102
-0.457888
-1.19497
-1.90552
-2.54731
-3.09151
-3.54774
-3.76318
-3.67777
-3.55116
-3.31781
-2.94413
-2.53206
-2.07358
-1.47225
-0.905824
-0.29634
0.304334
0.915461
1.38876
1.91901
2.38955
2.80776
3.20728
3.56928
3.75537
3.96727
4.15535
4.24597
4.23594
4.20785
4.12253
3.72957
3.34707
2.89183
2.07083
1.24179
0.425569
-0.202122
-0.50429
-0.443606
-0.114499
0.266703
)
;
    }
    left
    {
        type            calculated;
        value           nonuniform List<scalar> 
19
(
-0.264359
-1.43023
-2.61869
-3.6802
-4.58887
-5.32957
-5.93812
-6.44073
-6.87021
-7.30163
-7.75615
-8.31484
-9.08304
-10.2074
-11.8446
-14.4127
-18.5365
-25.5664
-26.6766
)
;
    }
    right
    {
        type            calculated;
        value           nonuniform List<scalar> 
19
(
0.264362
1.43023
2.61869
3.68019
4.58886
5.32957
5.93812
6.44073
6.87022
7.30164
7.75615
8.31484
9.08302
10.2073
11.8445
14.4126
18.5365
25.5664
26.6766
)
;
    }
    frontAndBackPlanes
    {
        type            empty;
    }
}


// ************************************************************************* //
