/*--------------------------------*- C++ -*----------------------------------*\
  =========                 |
  \\      /  F ield         | OpenFOAM: The Open Source CFD Toolbox
   \\    /   O peration     | Website:  https://openfoam.org
    \\  /    A nd           | Version:  7
     \\/     M anipulation  |
\*---------------------------------------------------------------------------*/
FoamFile
{
    version     2.0;
    format      ascii;
    class       volScalarField;
    location    "0.03";
    object      gradTz;
}
// * * * * * * * * * * * * * * * * * * * * * * * * * * * * * * * * * * * * * //

dimensions      [0 -1 0 1 0 0 0];

internalField   nonuniform List<scalar> 
1596
(
-9.67169e-16
-4.27739e-16
4.80157e-16
4.99786e-17
-8.19114e-16
0
-3.33934e-16
-3.31291e-16
-7.04976e-17
-1.98016e-16
6.8124e-20
-2.01844e-16
9.67907e-16
-2.0842e-16
9.37431e-16
8.31152e-16
5.0083e-16
6.65622e-16
0
9.18768e-16
0
1.03788e-15
-2.5759e-17
-2.38137e-16
2.3971e-16
6.20732e-16
6.60428e-17
2.73986e-16
-1.37164e-16
2.77518e-16
6.29054e-19
-3.78566e-16
-2.41669e-16
-7.49527e-16
-7.55407e-16
-7.07409e-16
4.22901e-16
0
-3.92668e-16
0
-5.69753e-16
3.76382e-17
3.80873e-16
-1.78472e-16
3.80212e-17
-1.30054e-18
-4.66741e-19
6.84836e-20
4.98038e-17
0
1.95458e-16
5.00406e-16
-5.0481e-17
4.9105e-17
1.08592e-16
2.17585e-16
0
6.96315e-16
-1.36688e-16
1.36189e-16
0
-1.07308e-16
-1.21819e-16
1.43944e-16
-7.86326e-17
0
0
-8.98324e-17
2.64244e-17
0
-1.28948e-16
-1.265e-16
1.00106e-16
-1.58939e-16
-7.62233e-18
0
1.30199e-16
2.38011e-16
-1.34901e-16
0
-2.12712e-17
-7.52022e-17
0
9.5152e-17
-7.24783e-18
-6.92131e-18
-3.93124e-17
3.58434e-17
5.30689e-17
8.30418e-18
3.73028e-17
-1.07637e-16
4.81663e-18
5.20222e-17
-2.88952e-17
-3.38107e-17
-3.13114e-16
2.10676e-16
-1.24415e-16
-1.13113e-18
-4.86932e-17
1.09806e-18
-1.10171e-18
-2.21577e-17
0
-2.20134e-17
-4.45404e-17
-4.6878e-17
2.51629e-17
5.42613e-17
-6.09086e-19
-3.12262e-17
-5.27654e-17
4.57658e-17
2.82562e-16
-3.29941e-16
2.52459e-16
8.57743e-17
0
3.95721e-17
1.45248e-17
-5.7886e-18
2.65931e-17
-3.7617e-18
-2.33779e-17
-3.63397e-20
-9.00042e-18
-2.51269e-17
-1.29082e-17
1.42798e-17
3.1501e-17
-4.8147e-19
-1.60611e-17
8.11879e-17
5.55655e-16
-4.4651e-16
0
0
-4.22473e-17
0
0
0
5.83135e-18
0
0
9.25601e-18
-1.10349e-19
8.15731e-18
-1.32447e-17
0
7.04032e-18
4.43015e-18
0
-3.08691e-16
5.40688e-16
0
0
4.35089e-17
0
-4.66358e-18
4.65886e-18
-5.93546e-18
1.6113e-18
-1.62309e-18
0
2.23159e-18
5.75047e-18
0
-3.01068e-18
-7.14023e-18
-4.09883e-18
1.10179e-15
-4.64042e-16
0
-1.22901e-16
1.21526e-16
0
2.48962e-17
0
0
0
8.53639e-19
-8.57731e-19
0
-1.87463e-18
-3.39205e-19
0
1.76381e-18
1.23555e-18
0
-2.79925e-16
0
0
1.29606e-16
-2.00513e-16
3.36822e-17
1.30266e-17
-4.53253e-18
2.38419e-18
4.35014e-19
-1.02383e-18
-7.09791e-19
0
3.89874e-19
-1.3742e-19
1.39483e-19
1.06979e-18
-1.07953e-18
-3.68541e-19
1.29797e-16
-7.31562e-17
1.37697e-16
3.08125e-16
-5.69053e-17
-7.57088e-17
0
0
0
2.68036e-18
4.4581e-19
1.03063e-18
-2.30016e-19
-3.82899e-19
-9.8944e-20
-1.06e-19
5.4781e-20
-1.7346e-19
3.32679e-19
-2.09318e-16
2.14928e-16
-3.35744e-16
-3.07084e-16
2.34796e-16
4.13512e-17
-6.13572e-17
3.00725e-17
-1.39773e-17
3.37575e-18
9.39829e-19
-3.52215e-19
3.15221e-20
-5.35714e-20
2.00603e-19
0
-1.92287e-20
2.27453e-19
-4.0136e-20
-1.67309e-15
6.72526e-16
-4.70659e-19
-5.05345e-17
3.38036e-17
4.06784e-17
-6.7117e-17
-1.29502e-17
5.86769e-18
-2.52559e-18
-1.05472e-18
0
-3.14392e-19
-6.76133e-20
-4.72436e-20
-2.06905e-20
7.92681e-22
-6.15051e-20
2.58002e-20
2.72547e-16
-1.94369e-16
-1.55827e-18
-8.19668e-17
-1.19997e-16
9.75786e-17
8.75426e-19
1.262e-17
-5.71297e-18
4.78748e-18
6.74675e-19
3.48706e-19
3.22743e-19
0
7.3107e-20
2.36672e-20
0
1.64e-20
8.28899e-21
0
1.88561e-16
7.7606e-17
-1.99361e-16
1.13958e-16
-1.28449e-16
6.0375e-17
8.29258e-18
-4.54171e-18
-5.86745e-18
3.10668e-19
-3.09135e-19
-2.73992e-19
4.87433e-20
-1.71433e-20
-1.94893e-20
3.75719e-21
-2.19008e-21
3.75645e-21
-2.51084e-16
5.94484e-16
-4.65975e-16
1.39244e-16
0
0
-5.61753e-18
1.56229e-17
-3.16538e-18
4.86016e-18
0
0
1.61366e-19
-8.56062e-20
-1.99583e-20
5.62159e-21
-3.11855e-21
1.6e-21
0
6.85169e-17
2.35963e-16
-1.0996e-16
-7.0441e-17
-5.5626e-17
8.35502e-18
1.81952e-17
0
-2.6325e-18
-4.66662e-19
5.52721e-19
-2.10587e-19
7.82696e-20
0
9.74831e-21
7.96955e-21
0
0
0
-6.80716e-17
1.94195e-16
3.49208e-18
-2.1901e-16
3.08563e-17
1.74622e-17
0
0
2.12706e-18
-1.29678e-18
-5.34601e-19
2.03676e-19
-7.56926e-20
0
-2.90389e-21
1.81274e-21
0
-3.54544e-22
-1.06373e-22
-1.49885e-16
4.52044e-16
-4.18837e-16
-8.10197e-17
5.03237e-17
-1.295e-17
5.92845e-18
0
-1.04942e-18
5.26443e-19
0
0
1.57468e-20
-1.57649e-20
9.76021e-22
-1.81648e-21
5.97688e-22
1.50111e-22
8.14389e-23
1.01424e-16
-6.7022e-17
2.13338e-16
-1.27145e-16
-2.21898e-17
6.24958e-18
1.53493e-17
1.93698e-18
1.00414e-18
0
8.47371e-20
-7.69329e-20
2.76015e-20
-1.05358e-20
3.03805e-21
-2.87183e-21
-3.98607e-22
2.43812e-22
3.35871e-23
2.22186e-16
-2.49791e-16
0
5.95847e-17
-3.77818e-17
-9.98978e-18
1.13915e-18
-7.37579e-18
0
-3.91854e-20
-1.58562e-19
-3.6365e-20
1.92652e-20
-3.9746e-21
-2.93622e-21
9.97295e-22
0
6.76663e-23
-3.26128e-23
5.1072e-16
-5.705e-17
1.32283e-16
-9.93003e-17
1.57691e-17
-9.82445e-18
-9.99047e-18
-7.915e-19
1.08055e-18
-1.01154e-19
-7.89984e-20
4.77895e-20
-1.20425e-20
-4.12652e-21
0
0
0
-6.76199e-23
1.83696e-24
-3.6109e-16
3.27961e-16
-9.69815e-19
1.44661e-17
7.14341e-18
-6.87825e-18
5.24355e-18
-1.98492e-18
7.85486e-19
-6.27697e-20
1.04609e-19
9.15321e-21
-1.87385e-21
6.45769e-23
3.72919e-23
-9.71761e-23
0
0
0
0
0
5.8683e-17
-6.22326e-17
-4.99457e-17
0
0
-3.91221e-19
-2.95703e-19
9.26524e-20
0
-1.15439e-20
3.82073e-21
-4.24377e-21
4.05851e-21
-3.58015e-22
3.78246e-22
1.81609e-23
0
-6.80116e-17
6.88487e-17
0
-1.59717e-17
1.16395e-17
9.95091e-18
0
3.94957e-19
7.16232e-20
-5.68968e-19
0
-1.04935e-20
3.48148e-21
1.21309e-21
-4.24617e-22
3.13882e-22
0
-4.37345e-23
0
-3.53249e-17
-2.3028e-17
1.41124e-18
1.64105e-17
-2.34111e-17
0
-1.44639e-18
0
6.78169e-19
1.01099e-19
0
3.70792e-20
-2.29718e-20
3.26471e-21
9.27831e-23
6.21673e-22
5.05943e-22
9.4435e-23
-7.51479e-23
0
6.08548e-17
-2.80419e-17
3.20728e-17
1.55022e-17
0
2.67867e-18
-1.93919e-18
-3.94196e-19
1.91322e-19
-2.58757e-19
-3.12751e-20
0
0
4.35194e-22
0
0
3.22962e-23
0
-3.31779e-16
2.66389e-16
0
7.23743e-18
-6.19471e-18
-2.45752e-19
3.03575e-18
3.04325e-19
-1.09063e-18
-6.43163e-19
3.33846e-19
-8.68498e-20
0
-2.80683e-21
0
0
0
-1.23167e-22
9.78927e-23
-1.08271e-16
7.52534e-17
1.26847e-16
-1.04618e-16
1.93127e-17
3.01814e-18
-3.02029e-18
1.25467e-18
9.75761e-19
2.94175e-19
-5.26377e-19
0
1.91841e-20
-1.23231e-20
-3.27453e-21
-4.82887e-23
-1.07045e-22
-1.00164e-22
6.16921e-24
-4.19624e-16
3.64709e-16
-3.35993e-16
3.58457e-17
1.74655e-17
-1.30832e-17
7.11716e-18
-2.27965e-18
0
-5.3369e-19
2.40638e-19
8.68041e-20
6.51565e-20
1.46334e-20
-1.76227e-20
-1.36659e-21
0
1.05167e-22
-8.87573e-23
-4.52136e-16
-9.24479e-17
-1.04016e-16
6.65371e-17
-4.83821e-17
2.49781e-17
-1.1583e-17
4.27898e-18
-8.63716e-19
-6.04813e-19
-4.2599e-19
3.48259e-19
9.71061e-21
4.70595e-20
-5.05188e-20
-2.89973e-21
1.06432e-21
0
3.43508e-22
4.88858e-16
-1.0522e-16
0
0
-5.13258e-17
8.4377e-17
-1.38412e-17
-9.63422e-19
5.10228e-18
-3.28191e-19
0
0
-8.87105e-20
0
-5.91884e-20
8.95936e-20
-4.7083e-20
0
-2.82735e-22
1.50113e-16
2.28924e-16
0
-5.88589e-17
-2.45352e-17
-6.24902e-18
-1.48778e-17
2.9054e-18
-6.11336e-18
-1.23523e-18
0
0
4.01682e-19
0
0
-1.19649e-19
2.31608e-19
0
0
1.0368e-15
-1.9823e-16
-4.64841e-16
-1.45789e-16
2.05428e-16
3.78342e-17
1.44259e-17
0
-2.06273e-18
1.22564e-18
2.47945e-18
-6.32e-19
-3.52479e-19
3.79665e-19
-4.03848e-19
-4.98007e-20
0
0
0
8.2853e-17
-5.0552e-16
4.8394e-16
-3.29762e-17
-1.67925e-16
2.24566e-16
-9.2845e-17
0
0
1.0873e-17
-7.5767e-18
0
-6.37306e-19
1.24393e-18
-3.91379e-20
1.96226e-19
4.32152e-20
1.29942e-21
6.27878e-21
0
0
0
2.6288e-16
-1.81719e-16
9.98374e-17
-1.41011e-16
3.1402e-17
0
-4.23945e-18
3.8682e-18
-3.95353e-18
-3.78742e-19
5.37034e-20
-1.2846e-19
-9.07544e-21
-8.19475e-20
-2.28827e-20
-1.09552e-20
6.49556e-16
-1.06262e-15
4.56856e-16
0
5.63907e-17
-8.03486e-17
4.38316e-17
-3.38584e-17
0
-5.33069e-18
7.79071e-18
0
0
5.74214e-20
0
-1.58236e-19
1.00326e-19
5.667e-21
1.89282e-20
7.29452e-16
0
-1.712e-16
1.88963e-16
-7.07557e-17
1.39065e-16
-5.56617e-17
-2.26489e-17
2.28855e-17
-1.38742e-18
0
0
3.25157e-19
-3.51659e-19
-1.91067e-19
3.32676e-19
-6.54915e-20
2.46042e-20
0
4.10851e-16
2.36143e-16
-4.85193e-17
-1.82859e-16
-1.26981e-17
-6.19862e-17
2.02461e-17
3.79079e-17
-1.19185e-18
1.41347e-18
0
0
-3.33101e-19
0
2.28699e-19
-2.44653e-19
0
2.39662e-20
-6.24847e-21
-2.1735e-16
-1.18911e-16
1.12073e-16
-9.22445e-18
-3.25444e-18
6.64743e-18
0
-9.65555e-19
9.12743e-18
-7.64464e-18
0
9.71887e-19
-3.94529e-19
-6.44501e-19
-4.14302e-20
-2.72116e-20
0
-1.90889e-20
0
7.7883e-17
-1.37197e-16
8.7498e-18
4.41046e-17
2.52655e-17
-2.43669e-17
-9.83879e-18
1.09367e-17
-2.01721e-18
1.66533e-18
-8.0242e-19
8.27169e-19
0
1.01304e-21
-2.73691e-20
1.01179e-19
-2.9022e-22
0
0
7.78861e-17
-7.75942e-17
-4.38559e-17
3.94626e-17
4.39971e-17
-4.42568e-17
-4.91987e-18
4.93742e-18
-2.03703e-18
2.05711e-18
-8.02541e-19
1.3335e-18
-3.6497e-19
-1.70145e-19
-3.3636e-20
1.46347e-20
2.31879e-20
5.38862e-21
-3.97328e-21
0
-1.69578e-17
7.50944e-17
-8.32315e-17
4.36574e-17
-3.94725e-17
0
1.24989e-17
-1.14541e-17
0
1.55134e-18
-1.89291e-18
-6.15285e-19
6.44858e-19
7.72425e-20
0
0
-1.91085e-20
6.71139e-21
3.09354e-16
-5.27174e-16
4.46726e-16
-3.16278e-16
1.11484e-16
-5.33978e-17
5.22066e-17
3.63478e-18
-8.74584e-18
7.65252e-18
0
-2.04123e-18
1.86021e-18
-2.09102e-19
-7.56589e-20
8.62556e-20
5.52021e-20
1.85507e-20
-6.48473e-21
8.15857e-16
0
-1.96186e-16
1.53358e-16
1.25547e-17
-6.40364e-17
9.71534e-17
-6.23691e-17
2.078e-17
-4.2806e-18
4.38157e-18
5.26187e-19
5.74075e-19
2.03667e-19
-1.10666e-19
-2.39206e-20
-1.18841e-19
0
8.37123e-21
5.64327e-16
-6.35568e-16
0
3.51734e-17
1.04144e-16
-9.62341e-17
1.01545e-17
6.33317e-18
2.07542e-18
2.29975e-18
0
0
-8.92547e-19
1.33365e-18
-4.12333e-19
-9.1819e-20
1.00526e-19
6.38197e-21
-1.51315e-20
1.56576e-16
5.62574e-16
-4.77697e-17
-2.29247e-16
2.04749e-16
1.55305e-17
-9.938e-18
-6.18562e-18
1.14105e-17
-1.37369e-17
3.87417e-18
-3.95958e-18
1.9084e-19
-4.55058e-19
3.5529e-19
-2.39859e-19
0
0
7.65983e-21
0
1.26879e-16
-2.71526e-16
3.16221e-16
-1.45738e-16
1.45391e-16
0
1.71471e-17
-1.72256e-17
-5.6774e-18
7.59343e-18
0
1.00304e-18
-1.24721e-18
-1.22643e-19
0
-6.32515e-21
-6.27104e-21
-3.2526e-21
-1.43438e-15
6.19959e-16
0
-2.05515e-16
2.05494e-16
6.61709e-17
-4.20962e-17
8.27862e-18
0
-1.4167e-19
2.02042e-19
-6.32827e-19
-3.53217e-19
3.8048e-19
-4.04577e-19
0
2.53863e-20
3.47634e-21
-4.38436e-21
8.26148e-16
-7.61052e-16
0
5.45645e-17
3.47424e-17
-2.46488e-17
0
-8.67607e-18
-3.52028e-18
0
-5.36215e-19
0
4.03231e-19
0
0
2.36876e-20
5.8972e-20
-9.14154e-20
0
-7.71962e-19
1.0529e-16
-7.12276e-17
2.74108e-17
-1.58568e-16
4.8167e-17
0
9.66022e-19
2.24501e-18
0
-8.23821e-19
7.76558e-19
-8.15819e-19
3.71197e-20
0
-1.57836e-20
0
0
0
-7.12598e-19
0
6.58321e-17
0
-3.72886e-17
3.78813e-17
0
2.96681e-18
-1.15809e-18
2.7821e-18
-1.04992e-18
9.49149e-20
-7.14833e-20
1.37533e-20
-5.08935e-20
-4.6362e-21
0
4.35534e-22
0
2.8421e-16
-4.88976e-16
0
-3.2411e-17
1.78396e-17
0
0
-4.67826e-18
0
-5.35608e-19
-2.41658e-19
-8.72355e-20
6.55388e-20
0
1.99334e-21
0
0
-6.86621e-22
4.70829e-22
0
3.25961e-16
-2.5121e-16
3.00052e-17
-1.65196e-17
-2.7242e-18
5.79464e-18
3.05206e-18
-1.38061e-18
4.1154e-19
1.01107e-19
-2.66009e-20
8.79373e-20
-1.84931e-20
-7.73999e-21
8.54129e-22
1.99323e-23
-1.04678e-22
-1.73987e-23
-7.86501e-16
2.68195e-16
0
0
4.33551e-18
-4.40872e-18
1.40765e-19
-5.38676e-19
8.39274e-19
1.60954e-19
-1.18516e-19
-1.64475e-20
-5.70954e-21
2.81683e-21
0
1.27806e-22
-1.82694e-23
3.46831e-23
1.57259e-23
0
1.72195e-16
-1.13471e-16
2.84762e-17
1.05943e-17
-1.72445e-18
-1.962e-18
-7.64658e-19
-9.52074e-19
1.30166e-19
1.39937e-21
4.33743e-20
5.33912e-21
-1.60568e-21
1.70433e-21
3.16623e-22
-3.97459e-22
-3.2035e-23
0
-4.98222e-17
-1.47958e-16
3.24507e-17
1.64221e-17
-2.70061e-17
1.44328e-17
1.74429e-18
-1.78293e-18
3.74768e-19
-1.23534e-19
0
0
-4.64403e-21
6.46376e-21
-1.69341e-21
4.70177e-22
-5.09632e-22
4.37575e-23
-7.66623e-23
8.29443e-17
5.46661e-17
-3.02444e-17
6.28026e-18
-1.53074e-17
-5.87168e-18
0
0
0
0
0
0
3.56197e-21
-3.23756e-21
3.42408e-21
-2.7809e-22
3.9653e-22
7.65146e-23
-6.01971e-23
1.93837e-16
-1.65138e-16
1.97083e-16
-2.75877e-17
4.31594e-17
-7.5598e-18
1.04972e-17
-3.32296e-18
-3.61311e-19
3.69605e-19
0
1.15293e-20
-3.47986e-21
3.06166e-21
-2.18217e-21
-8.88276e-22
-5.48475e-22
6.19906e-23
4.29318e-23
3.1314e-16
5.39666e-17
0
-2.98813e-17
-9.31583e-18
1.56954e-17
-1.08579e-18
-1.61588e-18
5.29402e-19
-1.21695e-19
0
-9.12677e-21
0
-1.79645e-21
8.11135e-22
-3.06145e-22
-6.35722e-23
1.45174e-23
0
4.20993e-16
-5.70486e-17
1.34127e-16
-1.01008e-16
-8.72017e-18
1.40195e-17
-7.92558e-18
5.60685e-19
2.69357e-19
-1.66993e-19
1.03715e-19
0
0
3.48212e-21
-4.81289e-23
2.07567e-23
2.16531e-22
-5.41785e-23
0
-4.18476e-19
0
-3.58338e-17
1.2018e-16
-7.08432e-17
-2.72112e-17
1.38558e-17
-3.65945e-18
2.77299e-18
4.77357e-19
-1.59074e-19
3.98276e-20
-1.96404e-20
3.682e-21
5.18449e-21
-2.78343e-22
-3.27101e-22
1.90628e-22
-3.60962e-23
9.17105e-16
-2.66985e-16
4.43204e-17
-1.71039e-16
2.21897e-17
-1.84083e-17
1.17345e-17
0
0
-6.05727e-20
-1.23442e-19
-1.60642e-20
0
-8.91956e-21
-3.03816e-21
1.03053e-21
-3.70551e-23
1.20564e-22
9.16085e-23
0
-2.21574e-16
2.34179e-16
-7.18493e-18
-1.092e-16
1.29499e-17
-9.32319e-18
5.20389e-18
3.9787e-18
0
0
1.19205e-20
4.40574e-20
0
-6.09382e-21
-1.32444e-21
2.25209e-22
-8.80512e-23
-1.62682e-22
0
-1.04346e-16
9.48766e-17
1.61773e-16
4.6168e-17
-7.29289e-17
2.41649e-17
-5.07075e-18
3.3603e-18
-1.35503e-18
0
0
0
-2.76727e-20
1.05899e-22
-2.91851e-21
0
-3.50007e-23
1.42005e-22
-6.51017e-16
5.70417e-16
3.48538e-16
-4.0582e-16
9.05605e-17
-7.47778e-17
0
6.14454e-18
-6.99787e-18
2.33504e-18
-6.70462e-19
2.60151e-19
9.85425e-20
2.86197e-20
1.04836e-20
0
0
0
0
8.27212e-16
-3.55127e-16
0
0
-4.16997e-17
5.32489e-17
-3.20227e-17
-7.2689e-18
7.18697e-18
1.73216e-18
1.50391e-18
-2.69932e-19
5.91505e-20
8.32295e-21
5.59299e-21
1.97778e-21
3.61325e-21
-1.20541e-22
1.22782e-22
-7.93538e-16
6.31634e-16
2.03101e-16
-1.21237e-16
1.1213e-16
-6.77485e-17
-2.47318e-17
-1.17604e-17
0
-3.78724e-18
6.84222e-19
3.72045e-19
-1.27391e-19
-4.87485e-20
-7.57493e-21
-1.98875e-21
-2.01354e-21
0
0
-2.72058e-16
0
1.30908e-16
1.42941e-18
0
0
2.55116e-17
1.21351e-17
0
2.3306e-18
0
-5.25093e-19
-3.08102e-20
7.37452e-20
0
2.23477e-20
-2.25912e-21
2.30461e-21
0
6.32649e-16
0
2.2059e-16
-3.50274e-16
2.3007e-16
9.4189e-17
-1.28346e-17
0
1.66813e-18
4.21788e-18
0
-6.19153e-19
4.01098e-19
-2.15514e-19
-3.2536e-20
-1.61132e-20
-7.17354e-21
-2.75455e-21
-3.57401e-20
-4.9314e-16
6.85281e-16
-1.37061e-16
-2.56283e-16
-1.00335e-16
-5.47608e-17
-5.51689e-17
-9.70713e-18
3.52804e-18
9.4162e-19
-9.39851e-19
1.00776e-18
-2.78904e-19
3.40875e-19
-5.4203e-20
0
1.47025e-19
-1.4633e-19
3.13782e-20
1.30107e-15
-6.44863e-17
-6.08063e-16
3.08127e-16
-2.1006e-16
1.16325e-16
-1.23371e-17
-1.27068e-17
5.87354e-18
9.62373e-19
-5.16315e-19
-9.91071e-19
1.4327e-19
3.4143e-19
-5.19069e-20
5.24989e-20
-1.52282e-19
-2.97587e-19
-3.06637e-19
6.38711e-16
2.006e-16
2.67435e-16
-1.60501e-16
-7.26401e-17
2.27404e-17
-1.9026e-17
3.91681e-17
2.30288e-18
5.01952e-18
1.65798e-18
-1.14259e-18
0
-3.89708e-19
0
0
1.2315e-18
3.77752e-19
3.32198e-19
5.46607e-16
0
2.4988e-16
1.59465e-16
-8.61026e-17
4.91561e-17
0
-1.21188e-17
-9.89381e-18
-5.16533e-18
-1.67266e-18
1.15551e-18
0
0
0
0
-1.18201e-18
-2.99468e-18
0
-1.06706e-15
0
-5.21333e-17
-5.03274e-17
1.3385e-16
-2.87736e-17
-6.5472e-18
-8.29463e-18
9.73483e-18
0
1.6112e-18
-1.0872e-19
3.41699e-18
0
0
6.37627e-18
-5.26546e-19
3.62296e-18
-4.32511e-18
7.15116e-16
1.43094e-16
-1.41617e-16
-8.49431e-17
-1.59043e-16
7.14544e-17
4.79952e-17
-4.01631e-18
-7.93513e-18
1.09688e-17
1.66499e-18
-1.2234e-17
-6.66577e-18
-1.00083e-17
-1.19554e-17
-7.4912e-18
1.60646e-17
-6.25576e-19
4.42983e-18
-1.98529e-16
6.68828e-17
-2.73879e-16
2.4799e-17
-2.47087e-17
0
-2.46362e-17
-9.7985e-18
-2.28465e-17
1.09102e-17
2.33776e-17
1.04024e-17
-3.7818e-18
-9.39592e-18
1.07459e-17
0
-4.69942e-17
-2.85429e-17
-5.09063e-19
4.56125e-16
-7.97579e-18
4.13045e-16
-1.36404e-16
1.13113e-18
2.0318e-18
5.13199e-17
-2.01963e-17
2.21574e-17
-2.10196e-17
-2.10366e-17
0
4.68786e-17
2.46235e-17
5.88227e-19
-9.19136e-19
3.15516e-17
2.89331e-17
0
-3.08917e-16
0
-2.13257e-17
1.42108e-16
7.91256e-18
2.12995e-17
-4.96256e-17
4.39153e-17
7.95115e-17
7.94603e-17
8.10384e-17
0
-4.55417e-17
0
4.43675e-18
-4.60796e-18
0
-7.78412e-19
4.93946e-17
2.54992e-16
5.09443e-17
-7.75119e-17
2.78793e-16
-7.62998e-17
0
0
-1.402e-16
-7.70386e-17
-7.69793e-17
-1.94755e-16
-2.64244e-17
0
0
0
-1.55151e-17
1.64189e-17
1.44404e-16
-5.0335e-17
6.14005e-17
0
-2.53847e-16
-1.60249e-16
2.14751e-16
-2.36756e-16
-3.1766e-16
3.10716e-16
1.39791e-16
0
1.37862e-16
2.35731e-16
-4.70025e-17
2.98565e-16
-4.99337e-17
5.19689e-17
2.52675e-16
-1.37343e-16
0
-4.70696e-16
0
-3.94175e-16
3.69797e-16
0
5.11637e-16
2.20663e-16
-5.4863e-16
5.29241e-16
-9.05224e-21
-1.38569e-16
-2.28236e-16
0
4.88536e-16
-7.49525e-16
8.28546e-16
-1.06139e-15
0
0
4.82925e-16
-1.71853e-17
-3.83063e-17
-8.27854e-16
8.82147e-16
-4.0015e-16
3.98519e-16
3.95263e-16
-2.60393e-16
0
0
7.49606e-16
-7.62519e-16
-7.04522e-16
7.21775e-16
-7.26407e-16
8.10795e-16
-1.30589e-15
0
)
;

boundaryField
{
    up
    {
        type            calculated;
        value           nonuniform List<scalar> 
84
(
0
0
0
0
-2.88952e-17
4.57658e-17
-1.60611e-17
4.43015e-18
-4.09883e-18
0
-3.68541e-19
3.32679e-19
-4.0136e-20
2.58002e-20
8.28899e-21
3.75645e-21
0
0
-1.06373e-22
8.14389e-23
3.35871e-23
-3.26128e-23
1.83696e-24
0
1.22021e-23
1.21932e-23
-6.3068e-23
0
9.78927e-23
-8.7767e-23
-8.87573e-23
3.43508e-22
-2.82735e-22
0
4.00923e-21
5.60821e-21
-9.98359e-21
1.78178e-20
0
-5.64633e-21
0
0
-3.82962e-21
6.71139e-21
-6.48473e-21
8.37123e-21
-1.51315e-20
7.65983e-21
-3.2526e-21
-4.38436e-21
0
0
0
4.70829e-22
9.37724e-23
1.57259e-23
0
-7.66623e-23
-6.01971e-23
3.07832e-23
0
0
-3.60962e-23
9.16085e-23
-1.62682e-22
1.42005e-22
0
1.22782e-22
0
0
-3.57401e-20
3.13782e-20
-3.06637e-19
3.32198e-19
0
-4.32511e-18
4.42983e-18
-5.09063e-19
0
4.93946e-17
-5.0335e-17
0
0
0
)
;
    }
    low
    {
        type            calculated;
        value           nonuniform List<scalar> 
84
(
-9.71697e-16
9.18768e-16
-3.84627e-16
7.01924e-16
1.33487e-16
-3.4663e-17
2.89023e-16
8.70012e-17
0
1.10934e-15
-2.79925e-16
1.23761e-16
-2.09318e-16
-1.67722e-15
2.72547e-16
0
-2.51084e-16
6.85169e-17
-6.80716e-17
-1.49885e-16
1.01424e-16
2.22186e-16
5.11262e-16
-3.6109e-16
0
-6.80116e-17
-3.53249e-17
0
-3.31779e-16
-1.08271e-16
-4.20779e-16
-4.53929e-16
4.91305e-16
1.50113e-16
1.04046e-15
8.2853e-17
0
6.49556e-16
7.35584e-16
4.13972e-16
-2.18939e-16
7.7883e-17
7.78861e-17
0
3.09354e-16
8.21988e-16
5.64327e-16
1.62132e-16
0
-1.43804e-15
8.26148e-16
-7.71962e-19
-7.12598e-19
2.8421e-16
0
-7.84787e-16
0
-4.98222e-17
8.29443e-17
1.92855e-16
3.129e-16
4.21534e-16
-4.18476e-19
9.18848e-16
0
0
-6.51017e-16
8.30286e-16
-7.97001e-16
-2.72058e-16
6.36772e-16
-4.9314e-16
1.31315e-15
6.45459e-16
5.46607e-16
-1.06706e-15
7.09303e-16
-1.92068e-16
4.56125e-16
-3.05629e-16
2.54992e-16
6.94418e-17
-4.70696e-16
4.85189e-16
)
;
    }
    left
    {
        type            calculated;
        value           nonuniform List<scalar> 
19
(
-9.67169e-16
-4.27576e-16
4.80157e-16
5.36124e-17
-8.23888e-16
0
-3.33934e-16
-3.31291e-16
-7.67569e-17
-1.98016e-16
6.8124e-20
-2.01844e-16
9.82618e-16
-2.0842e-16
9.37431e-16
8.31152e-16
5.0083e-16
7.68538e-16
0
)
;
    }
    right
    {
        type            calculated;
        value           nonuniform List<scalar> 
19
(
4.82925e-16
-1.73479e-17
-3.83063e-17
-8.31488e-16
8.86921e-16
-4.0015e-16
3.98519e-16
3.95263e-16
-2.54133e-16
0
0
7.63501e-16
-7.77231e-16
-7.04522e-16
7.21775e-16
-7.26407e-16
8.10795e-16
-1.4088e-15
0
)
;
    }
    frontAndBackPlanes
    {
        type            empty;
    }
}


// ************************************************************************* //
