/*--------------------------------*- C++ -*----------------------------------*\
  =========                 |
  \\      /  F ield         | OpenFOAM: The Open Source CFD Toolbox
   \\    /   O peration     | Website:  https://openfoam.org
    \\  /    A nd           | Version:  7
     \\/     M anipulation  |
\*---------------------------------------------------------------------------*/
FoamFile
{
    version     2.0;
    format      ascii;
    class       volScalarField;
    location    "0.26";
    object      gradTz;
}
// * * * * * * * * * * * * * * * * * * * * * * * * * * * * * * * * * * * * * //

dimensions      [0 -1 0 1 0 0 0];

internalField   nonuniform List<scalar> 
1596
(
-3.22735e-16
-1.57001e-16
1.59415e-16
3.36161e-18
-3.0397e-16
0
-1.42106e-16
-1.40123e-16
-9.15258e-18
-7.37415e-17
-6.83718e-19
-7.3342e-17
3.22636e-16
-7.25182e-17
3.38904e-16
2.92412e-16
1.73918e-16
2.19614e-16
0
3.22563e-16
0
4.55147e-16
-3.09552e-18
-1.39677e-16
1.38486e-16
2.85159e-16
8.70723e-18
1.35156e-16
-6.51124e-17
1.2991e-16
-1.98774e-18
-1.8018e-16
-1.12529e-16
-2.74014e-16
-2.67297e-16
-2.43156e-16
1.38392e-16
0
-1.58276e-16
0
-2.97149e-16
4.91687e-18
2.72855e-16
-7.64419e-17
5.78211e-18
-1.89978e-18
-1.93721e-18
-2.0672e-18
4.93482e-17
0
9.34692e-17
2.65194e-16
-2.61329e-17
2.10211e-17
4.94467e-17
7.71862e-17
0
2.48507e-16
-7.48605e-17
7.45871e-17
0
-7.17969e-17
-7.424e-17
1.26677e-16
-1.10797e-16
0
0
-3.95976e-17
2.57617e-17
0
-7.81429e-17
-9.96466e-17
6.89077e-17
-7.07469e-17
-3.64063e-18
0
4.33998e-17
1.15713e-16
-1.0459e-16
0
-3.09325e-17
-9.40956e-17
0
1.40771e-16
-1.40244e-17
-1.26985e-17
-1.2012e-17
7.33293e-17
9.00556e-17
9.29367e-18
3.14261e-18
-7.45086e-17
3.75564e-18
3.45023e-17
-1.48377e-17
-1.12702e-17
-1.58827e-16
1.51304e-16
-1.32346e-16
-2.71106e-19
-1.1735e-16
3.31019e-18
-3.32118e-18
-9.28654e-17
0
-9.94398e-18
-8.66958e-17
-8.13612e-17
6.6204e-17
6.85497e-17
-9.36033e-19
-4.10993e-17
-3.49952e-17
2.67536e-17
9.41873e-17
-1.61839e-16
1.81877e-16
1.01893e-16
0
9.0065e-17
5.30562e-17
-2.55641e-17
1.17811e-16
-2.21483e-17
-9.35911e-17
8.54337e-19
-5.5542e-17
-6.65202e-17
-5.20569e-17
4.42722e-17
4.1461e-17
-5.53492e-19
-1.11642e-17
9.13192e-18
2.57e-16
-3.03121e-16
0
0
-1.11739e-16
0
0
0
7.73166e-17
0
0
5.09319e-17
1.91347e-18
1.37787e-17
-3.86967e-17
0
2.05964e-17
8.03305e-18
0
-1.66917e-16
3.21353e-16
0
0
1.15076e-16
0
-4.40998e-17
4.40552e-17
-7.86971e-17
3.28179e-17
-3.3058e-17
0
4.77366e-17
4.63555e-17
0
-2.67616e-17
-2.1046e-17
-7.01628e-18
4.01026e-16
-1.87896e-16
0
-1.34135e-16
1.32633e-16
0
9.88292e-17
0
0
0
3.03743e-17
-3.05199e-17
0
-3.68616e-17
-1.05641e-17
0
2.83506e-18
1.5274e-17
0
-1.01789e-16
0
0
1.34459e-16
-2.51187e-16
1.2683e-17
4.88579e-18
-4.08224e-17
4.50163e-18
1.56445e-18
-3.19093e-17
-5.14358e-17
0
3.88928e-17
-7.76712e-18
7.88369e-18
2.05574e-17
-1.19832e-17
-5.52143e-18
8.49177e-17
-8.92708e-18
8.15272e-17
2.7938e-16
-1.4775e-17
-1.17375e-16
0
0
0
6.57294e-17
2.64125e-17
9.5314e-17
-2.30171e-17
-3.8197e-17
-2.2798e-17
-1.2414e-17
5.52939e-18
-1.20282e-17
5.25411e-18
-9.37866e-17
9.18867e-17
-1.70013e-16
-2.75982e-16
2.55829e-16
1.01683e-16
-1.88259e-16
1.6324e-16
-1.41392e-16
3.686e-17
2.83266e-17
-2.56735e-17
1.67659e-17
-1.50806e-17
4.41137e-17
0
-3.33032e-18
2.45416e-17
-3.64728e-18
-6.06729e-16
2.78837e-16
2.30078e-19
-6.171e-17
7.77456e-18
9.87733e-17
-1.8775e-16
-7.76057e-17
6.63841e-17
-5.6495e-17
-4.82559e-17
0
-5.5043e-17
-1.63903e-17
-2.93586e-17
-1.7465e-17
1.37495e-18
-1.54316e-17
3.42568e-19
9.9164e-17
-8.84607e-17
1.8597e-19
-6.82043e-17
-1.70532e-16
1.60841e-16
6.6317e-19
7.56267e-17
-6.46336e-17
1.08367e-16
2.56605e-17
2.11389e-17
6.53222e-17
0
5.43103e-17
2.49682e-17
0
8.42947e-18
2.89204e-19
0
8.58171e-17
6.76563e-17
-1.40629e-16
1.65245e-16
-2.48327e-16
1.75935e-16
6.66234e-17
-9.69062e-18
-1.07202e-16
1.97231e-17
-1.96258e-17
-5.9702e-17
2.37632e-17
-1.18523e-17
-2.49725e-17
1.08198e-17
-6.71834e-18
2.63195e-18
-9.23754e-17
3.14114e-16
-2.33976e-16
1.27575e-16
0
0
-3.4734e-17
7.39746e-17
-5.28364e-17
9.93511e-17
0
0
4.02835e-17
-3.52183e-17
-2.50107e-17
7.88971e-18
-8.42347e-18
4.43609e-18
0
7.48634e-18
8.63858e-17
-6.98345e-17
-6.1209e-17
-9.89951e-17
-3.22056e-17
4.4573e-17
0
-4.96666e-17
-4.04532e-17
3.63531e-17
-2.96965e-17
2.40987e-17
0
9.54572e-18
1.87206e-17
0
0
0
-7.1665e-18
1.38431e-16
5.29382e-17
-1.84695e-16
5.10588e-17
4.38118e-17
0
0
4.69034e-17
-2.44402e-17
-3.51614e-17
2.8722e-17
-2.33052e-17
0
-6.24039e-18
5.32775e-18
0
-4.49498e-18
-1.57043e-18
-7.4173e-17
2.17661e-16
-2.6428e-16
-1.05844e-16
5.54885e-17
-4.15117e-17
3.48863e-17
0
-2.3846e-17
1.99341e-17
0
0
9.18509e-18
-9.19567e-18
2.76469e-18
-3.67128e-18
6.42293e-18
7.82991e-19
1.16849e-18
3.81262e-17
-3.43918e-17
1.76187e-16
-1.13727e-16
-4.61934e-17
5.93527e-18
7.18326e-17
2.7323e-17
2.2817e-17
0
1.3258e-17
-1.22787e-17
9.77806e-18
-8.28352e-18
1.07034e-17
-1.84507e-17
-5.00078e-18
4.36371e-18
1.16237e-18
1.02051e-16
-1.03459e-16
0
9.53107e-17
-5.02544e-17
-3.75193e-17
2.60084e-17
-8.32216e-17
0
-1.47074e-18
-1.53152e-17
-1.10387e-17
1.60926e-17
-1.24279e-18
-1.03447e-17
7.65587e-18
0
2.77475e-18
-1.12866e-18
1.74352e-16
-3.08194e-17
1.31198e-16
-1.02773e-16
5.66611e-17
6.23378e-18
-6.50006e-17
-2.22297e-17
4.00495e-17
-1.7001e-18
-2.34804e-17
1.98343e-17
-8.67993e-18
-1.14286e-17
0
0
0
-2.80099e-18
1.04077e-19
-1.55078e-16
1.51025e-16
1.07822e-19
2.30998e-17
1.9888e-17
-4.8043e-17
5.66652e-17
-4.65939e-17
3.97351e-17
-1.31905e-17
2.50872e-17
8.92738e-18
-3.79216e-18
1.93402e-19
-1.36979e-18
-2.40562e-18
0
0
0
0
0
7.41291e-17
-3.60901e-17
-1.12644e-16
0
0
-1.35341e-17
-2.18545e-17
1.82829e-17
0
-1.12591e-17
8.7404e-18
-2.91346e-17
3.34963e-17
-1.09325e-17
1.16401e-17
1.27346e-18
0
-3.00479e-17
3.04177e-17
0
-2.45112e-17
2.48682e-17
4.11714e-17
0
1.36633e-17
1.80373e-17
-8.06976e-17
0
-1.25203e-17
9.76776e-18
6.99375e-18
-5.19805e-18
7.6087e-18
0
-2.79996e-18
0
-1.54527e-17
-1.53827e-17
9.10984e-19
2.51846e-17
-6.76928e-17
0
-1.74503e-17
0
4.9483e-17
1.99806e-17
0
4.96493e-17
-5.20899e-17
5.27513e-18
-1.15435e-17
3.28104e-18
1.46215e-17
5.5339e-18
-4.38368e-18
0
3.19416e-17
-2.80257e-17
3.47764e-17
4.1824e-17
0
3.55152e-17
-3.35772e-17
-2.65294e-17
3.99749e-17
-6.00202e-17
-2.93594e-17
0
0
6.44216e-18
0
0
1.84365e-18
0
-1.41662e-16
1.08762e-16
0
1.6634e-18
-2.44184e-17
-1.34555e-18
2.17497e-17
1.56138e-17
-1.95134e-17
-4.97742e-17
7.91797e-17
-2.14591e-17
0
-1.03051e-17
0
0
0
-7.12237e-18
5.68962e-18
-4.00694e-17
3.75646e-17
1.00512e-16
-9.83157e-17
3.02347e-17
1.68848e-18
-2.20968e-17
1.90923e-17
3.25358e-17
2.49554e-17
-4.93291e-17
0
2.56979e-17
3.62303e-18
-1.17971e-17
-2.58837e-17
2.13386e-17
-3.46015e-18
6.54319e-18
-1.35572e-16
1.95444e-16
-1.93865e-16
3.41665e-17
2.90729e-17
-2.76925e-17
2.33238e-17
-1.85767e-17
0
-1.58399e-17
2.54698e-17
1.10502e-17
1.78461e-17
2.26631e-17
-3.39502e-17
-5.65417e-19
0
-2.65353e-18
8.87959e-19
-1.46587e-16
-4.37039e-17
-7.68192e-17
4.08255e-17
-6.69241e-17
5.83282e-17
-3.48036e-17
2.95478e-17
-2.03526e-18
-2.03162e-18
-2.67604e-17
1.57875e-17
-8.89334e-18
2.70797e-17
-2.90703e-17
3.63349e-18
3.08016e-18
0
-1.53814e-18
1.58493e-16
-4.71337e-17
0
0
-6.89347e-17
1.34207e-16
-3.1424e-17
-6.05893e-18
4.99696e-17
-1.28939e-18
0
0
-1.16096e-17
0
-2.53108e-17
6.14671e-17
-4.26651e-17
0
6.11317e-19
5.42158e-17
1.01378e-16
0
-4.33049e-17
-3.54399e-17
-3.14561e-17
-3.26836e-17
1.35813e-17
-3.79972e-17
-2.08399e-17
0
0
1.54534e-17
0
0
-3.4274e-17
5.64878e-17
0
0
3.72064e-16
-4.38506e-17
-2.25557e-16
-1.23185e-16
1.67065e-16
5.33814e-17
3.16908e-17
0
-1.16922e-17
1.13491e-17
2.81375e-17
-9.08041e-18
-1.35605e-17
2.10434e-17
-2.23837e-17
-6.91421e-18
0
0
0
2.97953e-17
-2.35484e-16
2.3089e-16
-2.21732e-17
-1.71876e-16
2.69287e-16
-1.3535e-16
0
0
7.26813e-17
-5.97376e-17
0
-1.81166e-17
3.15473e-17
-3.5559e-18
9.22569e-18
2.8164e-18
3.04956e-20
6.14444e-19
0
0
0
1.94699e-16
-1.3056e-16
1.377e-16
-2.14807e-16
6.12527e-17
0
-2.21542e-17
3.55147e-17
-3.62981e-17
-7.14256e-18
-1.30476e-19
-4.90924e-18
-7.24588e-19
-3.91391e-18
-1.09762e-18
-5.9977e-19
2.49551e-16
-4.45263e-16
2.11153e-16
0
5.70907e-17
-7.77771e-17
7.82046e-17
-6.20419e-17
0
-3.03549e-17
4.25581e-17
0
0
-9.52716e-20
0
-5.06945e-18
3.46841e-18
6.39385e-19
9.56393e-19
2.42104e-16
0
-9.6677e-17
1.07988e-16
-6.79935e-17
1.48669e-16
-7.03368e-17
-5.52103e-17
5.57869e-17
-5.68408e-18
0
0
3.65604e-18
-6.18375e-18
-4.33582e-18
8.22272e-18
-1.78017e-18
9.11576e-19
0
1.37458e-16
1.07619e-16
-3.56586e-18
-1.02953e-16
-1.04202e-17
-7.529e-17
8.06067e-18
6.33738e-17
-3.28226e-18
5.79082e-18
0
0
-3.74536e-18
0
4.4103e-18
-4.71797e-18
0
6.04433e-19
-1.67605e-19
-7.29603e-17
-5.39847e-17
5.05491e-17
-5.80202e-18
-2.60537e-18
7.05033e-18
0
-1.86698e-18
2.80253e-17
-2.36019e-17
0
8.02172e-18
-1.57052e-18
-7.08643e-18
-6.48608e-19
-5.05923e-19
0
-4.7245e-19
0
2.98206e-17
-5.67384e-17
-7.80139e-19
2.44294e-17
2.24207e-17
-2.2277e-17
-1.58375e-17
1.79289e-17
-6.17142e-18
4.82686e-18
-4.70367e-18
4.84874e-18
0
1.24172e-20
-4.77866e-19
1.71821e-18
-5.88191e-21
0
0
2.98216e-17
-2.97099e-17
-2.43014e-17
2.15261e-17
3.96093e-17
-3.98431e-17
-7.91904e-18
7.93781e-18
-6.22359e-18
6.28892e-18
-4.70383e-18
8.88009e-18
-2.49057e-18
-1.79555e-18
-5.5159e-19
1.82786e-19
4.36393e-19
1.15423e-19
-8.65646e-20
0
-7.07946e-18
4.23341e-17
-4.58831e-17
3.95426e-17
-3.50489e-17
0
2.80266e-17
-2.50675e-17
0
9.36624e-18
-1.18607e-17
-6.7622e-18
7.08722e-18
1.30529e-18
0
0
-4.72522e-19
1.71719e-19
1.18689e-16
-2.18705e-16
2.23436e-16
-1.96468e-16
7.7298e-17
-6.59262e-17
6.25508e-17
7.4584e-18
-2.78207e-17
2.48599e-17
0
-1.81048e-17
1.64862e-17
-3.13837e-18
-1.27853e-18
2.01396e-18
1.48104e-18
4.58728e-19
-1.6592e-19
2.72999e-16
0
-1.09357e-16
8.49842e-17
1.03003e-17
-7.94065e-17
1.40985e-16
-1.25366e-16
4.92543e-17
-2.11361e-17
2.16347e-17
4.29141e-18
7.39016e-18
3.05681e-18
-2.54088e-18
-3.32198e-19
-3.20912e-18
0
3.28811e-19
2.19067e-16
-2.46589e-16
0
2.27065e-17
9.8271e-17
-9.62804e-17
1.64839e-17
1.46408e-17
6.40061e-18
1.13156e-17
0
0
-1.2857e-17
2.41228e-17
-8.82152e-18
-3.16877e-18
3.46927e-18
2.78218e-19
-6.25582e-19
1.97174e-17
2.16612e-16
-2.51033e-17
-1.72042e-16
1.51028e-16
1.81248e-17
-1.61325e-17
-1.42997e-17
4.72988e-17
-5.86762e-17
3.55253e-17
-3.63085e-17
5.70789e-18
-7.22766e-18
1.32473e-17
-8.8273e-18
0
0
6.39446e-19
0
5.43468e-17
-1.63791e-16
1.87144e-16
-1.52045e-16
1.51683e-16
0
5.30164e-17
-5.32593e-17
-4.02871e-17
5.97815e-17
0
2.49818e-17
-3.15699e-17
-4.67731e-18
0
-5.28963e-19
-1.06111e-18
-1.49525e-20
-5.15512e-16
2.4615e-16
0
-1.67035e-16
1.67019e-16
1.03003e-16
-6.77158e-17
2.80643e-17
0
-1.27103e-18
9.54475e-18
-9.06796e-18
-1.35426e-17
2.10125e-17
-2.23432e-17
0
4.89488e-18
-1.09218e-18
-6.56993e-19
3.17452e-16
-3.12521e-16
0
4.32595e-17
3.94694e-17
-3.61526e-17
0
-2.94116e-17
-2.54788e-17
0
-1.09121e-18
0
1.54601e-17
0
0
7.03552e-18
2.64993e-17
-3.42596e-17
0
4.33014e-20
4.71565e-17
-4.36486e-17
3.58935e-17
-1.8232e-16
6.9925e-17
0
6.06326e-18
1.72003e-17
0
-1.77939e-17
5.21632e-17
-5.48005e-17
9.30174e-18
0
-1.01815e-18
0
0
0
4.2243e-20
0
4.03422e-17
0
-6.30392e-17
6.40414e-17
0
2.32319e-17
-1.87479e-17
6.82743e-17
-3.29928e-17
1.20339e-17
-1.94844e-17
1.86795e-17
-2.91057e-17
-4.66141e-18
0
-3.14249e-18
0
1.2358e-16
-2.08944e-16
0
-3.41731e-17
3.08019e-17
0
0
-4.24896e-17
0
-1.58515e-17
-2.54895e-17
-1.10602e-17
1.78641e-17
0
9.74392e-18
0
0
6.88776e-18
-7.63919e-18
0
1.8125e-16
-1.45149e-16
3.16365e-17
-2.85228e-17
-1.18063e-17
3.41042e-17
3.8576e-17
-4.75555e-17
1.53586e-17
1.01546e-18
-1.46287e-17
6.0027e-17
-1.86885e-17
-4.39506e-17
1.52396e-17
-3.99916e-18
2.39061e-18
-7.38734e-19
-2.93236e-16
1.08756e-16
0
0
1.22251e-17
-1.24315e-17
9.05937e-18
6.09389e-18
4.30235e-17
2.22358e-17
-2.21105e-17
-8.13206e-19
-1.26778e-17
1.03143e-17
0
5.21049e-18
3.66552e-18
1.99782e-18
6.67712e-19
0
9.44766e-17
-8.84818e-17
2.84479e-17
2.96922e-17
-5.74348e-18
-1.8742e-17
-1.61269e-17
-5.38828e-17
2.1943e-17
-1.37044e-17
1.85406e-17
1.18554e-17
-1.50237e-17
1.59468e-17
1.03054e-17
-1.33403e-17
-1.84528e-18
0
-1.66132e-17
-7.49709e-17
2.69387e-17
2.51912e-17
-8.7435e-17
6.27863e-17
3.1704e-17
-3.24064e-17
2.51774e-17
-2.0825e-17
0
0
-1.78988e-17
3.22317e-17
-1.42848e-17
1.35567e-17
-1.48083e-17
2.46956e-18
-4.38771e-18
3.12359e-17
2.92897e-17
-2.67955e-17
2.12635e-17
-2.46228e-17
-3.80738e-17
0
0
0
0
0
0
9.19975e-18
-2.45223e-17
2.5935e-17
-8.53784e-18
1.05189e-17
4.98187e-18
-4.22684e-18
6.46124e-17
-1.11067e-16
1.39004e-16
-6.60068e-17
9.11753e-17
-6.77142e-17
1.26811e-16
-7.19642e-17
-3.93632e-17
4.02668e-17
0
1.12521e-17
-8.98768e-18
2.23096e-17
-7.36827e-18
-9.63219e-18
-2.05513e-17
1.53694e-18
3.60011e-18
1.00499e-16
2.9154e-17
0
-4.60504e-17
-3.68324e-17
8.47067e-17
8.96541e-18
-3.48683e-17
2.0863e-17
-1.50319e-17
0
-8.90734e-18
0
-7.38782e-18
6.02684e-18
-5.46505e-18
-1.81275e-18
1.28903e-18
0
1.40448e-16
-3.0819e-17
1.31143e-16
-1.02744e-16
-2.08842e-17
8.33062e-17
-4.99594e-17
2.43795e-18
2.02902e-18
-1.46977e-17
1.42239e-17
0
0
8.95034e-18
-3.3082e-18
2.17294e-18
6.55836e-18
-2.28208e-18
0
2.86137e-20
0
-2.89818e-17
1.71605e-16
-1.16208e-16
-1.25325e-16
6.87065e-17
-7.30435e-17
6.79337e-17
3.41096e-17
-2.60805e-17
1.06842e-17
-9.56934e-18
1.63436e-18
1.60635e-17
6.34474e-19
-6.20044e-18
6.13733e-18
-1.25665e-18
3.4233e-16
-1.09319e-16
5.42787e-17
-1.6727e-16
4.61931e-17
-7.31065e-17
3.91102e-17
0
0
-1.50533e-18
-2.02587e-18
-5.97274e-19
0
-1.39767e-17
-1.07036e-17
7.91093e-18
-5.8259e-19
1.0263e-18
2.47753e-18
0
-1.08964e-16
1.85982e-16
4.24471e-17
-1.52912e-16
4.15115e-17
-6.45348e-17
1.03274e-17
5.299e-17
0
0
9.89856e-19
1.15514e-17
0
-1.04479e-17
-4.79801e-18
7.04363e-19
-2.53057e-18
-2.87508e-18
0
-6.89612e-17
1.46541e-17
1.25521e-16
9.53187e-17
-1.75267e-16
7.99818e-17
-5.67834e-17
3.02829e-17
-4.2706e-17
0
0
0
-1.87109e-17
5.12447e-18
-6.271e-18
0
-3.9273e-19
1.97004e-18
-2.57692e-16
2.44616e-16
2.64277e-16
-3.21022e-16
1.51905e-16
-1.43177e-16
0
5.9713e-17
-8.19579e-17
4.78474e-17
-3.77192e-17
3.11088e-17
2.54982e-17
1.93512e-17
1.5336e-17
0
0
0
0
2.84418e-16
-1.65005e-16
0
0
-5.52459e-17
1.35879e-16
-8.71192e-17
-6.31086e-17
6.23973e-17
4.71385e-17
7.9753e-17
-3.22784e-17
1.38314e-17
1.05731e-17
7.84912e-18
6.42543e-18
1.0413e-17
-5.12892e-19
5.22427e-19
-2.88507e-16
2.65833e-16
1.43266e-16
-7.43481e-17
1.65215e-16
-1.06172e-16
-8.48999e-17
-7.23187e-17
0
-9.87448e-17
4.65367e-18
3.67205e-17
-2.90235e-17
-2.37632e-17
-8.80088e-18
-9.32751e-18
-7.45473e-18
0
0
-9.92494e-17
0
7.77465e-17
-1.23176e-19
0
0
8.7577e-17
7.46227e-17
0
5.34087e-17
0
-5.58185e-17
-1.57543e-17
2.80357e-17
0
1.81552e-17
-2.56952e-18
2.62125e-18
0
2.10883e-16
0
1.5006e-16
-2.79293e-16
2.504e-16
2.04319e-16
-6.05604e-18
0
5.37194e-18
6.18107e-17
0
-6.24628e-17
7.03715e-17
-6.27691e-17
-1.37201e-17
-1.45919e-17
-4.29639e-18
-7.66831e-19
-2.71547e-18
-1.96868e-16
2.83797e-16
-8.08807e-17
-2.12971e-16
-1.24035e-16
-1.08012e-16
-1.87769e-16
-7.62028e-17
5.84351e-18
2.83799e-17
-2.83266e-17
9.11176e-17
-4.03387e-17
8.14611e-17
-1.52677e-17
0
1.73652e-17
-1.0212e-17
2.74483e-18
4.33691e-16
-9.08805e-18
-3.34093e-16
2.79381e-16
-2.52216e-16
2.21434e-16
-6.7455e-18
-8.53435e-17
7.49935e-17
3.01833e-17
-3.7631e-18
-7.43349e-17
2.16346e-17
2.27253e-17
-6.93804e-18
7.01717e-18
-1.79862e-17
-1.78299e-18
-4.21192e-18
2.12904e-16
9.07136e-17
1.60492e-16
-1.42081e-16
-1.18526e-16
5.90134e-18
-9.24013e-17
2.24106e-16
7.28823e-18
1.0517e-16
6.18637e-17
-5.49604e-17
0
-3.88927e-17
0
0
2.49034e-17
1.09918e-17
4.91737e-18
2.002e-16
0
1.58634e-16
1.41164e-16
-1.26327e-16
1.11343e-16
0
-8.79514e-17
-1.22445e-16
-1.07521e-16
-6.24112e-17
5.55818e-17
0
0
0
0
-2.33455e-17
-1.72521e-17
0
-3.92283e-16
0
-7.45183e-18
-6.57901e-18
1.92161e-16
-1.09487e-16
-5.05119e-17
-5.07153e-17
1.24248e-16
0
3.28177e-17
-3.4795e-18
2.93985e-17
0
0
3.87371e-17
-2.88261e-18
2.07146e-17
-7.84317e-18
2.76186e-16
8.02648e-17
-7.94362e-17
-7.06978e-17
-2.4761e-16
1.71091e-16
2.07799e-16
-5.39279e-18
-8.46711e-17
8.35789e-17
1.7616e-17
-8.92893e-17
-7.33636e-17
-4.43124e-17
-4.68885e-17
-4.46563e-17
3.69572e-17
-1.74603e-18
8.03306e-18
-8.50301e-17
3.88547e-17
-1.87551e-16
3.24246e-17
-3.23067e-17
0
-1.03194e-16
-6.90362e-18
-9.57535e-17
7.81412e-18
9.35908e-17
6.93764e-17
-1.70054e-17
7.3656e-18
4.45977e-17
0
-7.68121e-17
-2.81466e-17
-5.85264e-19
1.72602e-16
-4.73414e-18
2.94897e-16
-1.41043e-16
2.71106e-19
3.77442e-18
1.13681e-16
-8.54584e-18
9.28651e-17
-8.69815e-17
-8.17983e-17
0
8.13611e-17
6.51849e-17
9.03958e-19
-1.31366e-18
4.14967e-17
2.86099e-17
0
-1.22766e-16
0
-3.00561e-17
1.34325e-16
1.83098e-18
3.09738e-17
-1.09928e-16
1.0406e-16
1.09647e-16
1.05035e-16
1.00933e-16
0
-7.90408e-17
0
4.18214e-18
-4.34352e-18
0
-4.1422e-19
2.03618e-17
8.47834e-17
4.23666e-18
-6.79728e-17
2.09324e-16
-6.73243e-17
0
0
-1.22644e-16
-1.06237e-16
-1.01755e-16
-1.84349e-16
-2.57616e-17
0
0
0
-8.53621e-18
9.03345e-18
5.77385e-17
-2.06721e-17
4.38524e-18
0
-1.4567e-16
-1.3383e-16
1.3987e-16
-1.38814e-16
-1.99078e-16
2.44822e-16
6.78002e-17
0
1.08486e-16
1.2264e-16
-2.64813e-17
1.43739e-16
-2.3535e-17
2.44942e-17
9.51268e-17
-5.48666e-17
0
-1.62051e-16
0
-1.55395e-16
1.52378e-16
0
2.76029e-16
1.29839e-16
-2.72193e-16
2.1715e-16
-1.43636e-18
-6.57792e-17
-1.1874e-16
0
1.63383e-16
-2.74014e-16
2.94025e-16
-3.74686e-16
0
0
1.6132e-16
-1.01222e-18
-2.49325e-18
-3.06813e-16
3.0946e-16
-1.49729e-16
1.49119e-16
1.4696e-16
-1.30293e-16
0
0
2.44702e-16
-2.48918e-16
-2.66207e-16
2.63869e-16
-2.57035e-16
2.77989e-16
-4.35435e-16
0
)
;

boundaryField
{
    up
    {
        type            calculated;
        value           nonuniform List<scalar> 
84
(
0
0
0
0
-1.48377e-17
2.67536e-17
-1.11642e-17
8.03305e-18
-7.01628e-18
0
-5.52143e-18
5.25411e-18
-3.64728e-18
3.42568e-19
2.89204e-19
2.63195e-18
0
0
-1.57043e-18
1.16849e-18
1.16237e-18
-1.12866e-18
1.04077e-19
0
4.61442e-19
2.13798e-19
-4.17562e-18
0
5.68962e-18
6.83628e-18
8.87959e-19
-1.53814e-18
6.11317e-19
0
-3.0093e-19
6.36086e-19
-5.98977e-19
9.54945e-19
0
-1.67337e-19
0
0
-8.6613e-20
1.71719e-19
-1.6592e-19
3.28811e-19
-6.25582e-19
6.39446e-19
-1.49525e-20
-6.56993e-19
0
0
0
-7.63919e-18
-1.03205e-18
6.67712e-19
0
-4.38771e-18
-4.22684e-18
3.14024e-18
0
0
-1.25665e-18
2.47753e-18
-2.87508e-18
1.97004e-18
0
5.22427e-19
0
0
-2.71547e-18
2.74483e-18
-4.21192e-18
4.91737e-18
0
-7.84317e-18
8.03306e-18
-5.85264e-19
0
2.03618e-17
-2.06721e-17
0
0
0
)
;
    }
    low
    {
        type            calculated;
        value           nonuniform List<scalar> 
84
(
-3.22954e-16
3.22563e-16
-1.57876e-16
2.48832e-16
4.36202e-17
-1.13354e-17
9.47352e-17
9.65643e-18
0
4.01635e-16
-1.01789e-16
8.45894e-17
-9.37866e-17
-6.06722e-16
9.9164e-17
0
-9.23754e-17
7.48634e-18
-7.1665e-18
-7.4173e-17
3.81262e-17
1.02051e-16
1.73729e-16
-1.55078e-16
0
-3.00479e-17
-1.54527e-17
0
-1.41662e-16
-4.00694e-17
-1.35164e-16
-1.4626e-16
1.58268e-16
5.42158e-17
3.7207e-16
2.97953e-17
0
2.49551e-16
2.42601e-16
1.37732e-16
-7.31075e-17
2.98206e-17
2.98216e-17
0
1.18689e-16
2.73496e-16
2.19067e-16
2.00446e-17
0
-5.15517e-16
3.17452e-16
4.33014e-20
4.2243e-20
1.2358e-16
0
-2.92596e-16
0
-1.66132e-17
3.12359e-17
6.42334e-17
9.98326e-17
1.39825e-16
2.86137e-20
3.41809e-16
0
0
-2.57692e-16
2.84152e-16
-2.88327e-16
-9.92494e-17
2.10876e-16
-1.96868e-16
4.34347e-16
2.13373e-16
2.002e-16
-3.92283e-16
2.75661e-16
-8.44821e-17
1.72602e-16
-1.22546e-16
8.47834e-17
4.78535e-18
-1.62051e-16
1.6143e-16
)
;
    }
    left
    {
        type            calculated;
        value           nonuniform List<scalar> 
19
(
-3.22735e-16
-1.5712e-16
1.59415e-16
3.36044e-18
-3.04051e-16
0
-1.42106e-16
-1.40123e-16
-9.61037e-18
-7.37415e-17
-6.83718e-19
-7.3342e-17
3.25901e-16
-7.25182e-17
3.38904e-16
2.92412e-16
1.73918e-16
2.55068e-16
0
)
;
    }
    right
    {
        type            calculated;
        value           nonuniform List<scalar> 
19
(
1.6132e-16
-8.93591e-19
-2.49325e-18
-3.06812e-16
3.0954e-16
-1.49729e-16
1.49119e-16
1.4696e-16
-1.29835e-16
0
0
2.47022e-16
-2.52183e-16
-2.66207e-16
2.63869e-16
-2.57035e-16
2.77989e-16
-4.70889e-16
0
)
;
    }
    frontAndBackPlanes
    {
        type            empty;
    }
}


// ************************************************************************* //
