/*--------------------------------*- C++ -*----------------------------------*\
  =========                 |
  \\      /  F ield         | OpenFOAM: The Open Source CFD Toolbox
   \\    /   O peration     | Website:  https://openfoam.org
    \\  /    A nd           | Version:  7
     \\/     M anipulation  |
\*---------------------------------------------------------------------------*/
FoamFile
{
    version     2.0;
    format      ascii;
    class       volScalarField;
    location    "0.29";
    object      T;
}
// * * * * * * * * * * * * * * * * * * * * * * * * * * * * * * * * * * * * * //

dimensions      [0 0 0 1 0 0 0];

internalField   nonuniform List<scalar> 
1596
(
4.98778
4.95268
4.91663
4.88225
4.85013
4.81982
4.79065
4.76113
4.73019
4.69536
4.6547
4.60561
4.54215
4.45592
4.33378
4.14623
3.8382
3.29954
2.30955
4.94712
4.83777
4.73421
4.63827
4.54963
4.46667
4.3874
4.30872
4.22796
4.14057
4.04272
3.92976
3.79304
3.62174
3.40232
3.1088
2.70067
2.10804
1.19854
4.89896
4.71496
4.54882
4.39822
4.26065
4.1331
4.01247
3.8947
3.77621
3.65168
3.51661
3.3659
3.19098
2.98201
2.72806
2.40994
2.00098
1.45983
0.709233
4.85131
4.59729
4.37465
4.17604
3.99646
3.83154
3.67729
3.52908
3.38287
3.23312
3.07531
2.90442
2.71277
2.49206
2.234
1.92487
1.54748
1.07778
0.470839
4.81163
4.49692
4.22479
3.98431
3.76854
3.57208
3.39026
3.21813
3.05145
2.88471
2.7135
2.53309
2.33664
2.1172
1.86836
1.58011
1.24111
0.837157
0.341669
4.78481
4.4222
4.10828
3.83148
3.58415
3.36039
3.15516
2.96341
2.7808
2.60196
2.42264
2.23832
2.04284
1.83017
1.59513
1.33004
1.02699
0.677282
0.264599
4.7716
4.37554
4.02804
3.72013
3.44494
3.19681
2.97076
2.76182
2.56569
2.37717
2.19214
2.00627
1.81383
1.60941
1.38854
1.14495
0.872741
0.566219
0.214843
4.76921
4.35366
3.98105
3.64718
3.34738
3.07708
2.8318
2.60689
2.39826
2.20091
2.01088
1.82392
1.63464
1.43799
1.2299
1.00491
0.758276
0.485937
0.180621
4.77489
4.3519
3.96221
3.6074
3.28603
2.99535
2.73185
2.49151
2.2706
2.06439
1.8691
1.68057
1.49363
1.30345
1.10612
0.896693
0.671009
0.425887
0.1559
4.78272
4.36028
3.96062
3.59001
3.25048
2.94151
2.66101
2.40583
2.17281
1.95761
1.75665
1.56591
1.38036
1.19531
1.00692
0.810465
0.602129
0.379136
0.137139
4.78913
4.3707
3.96622
3.58453
3.23045
2.90571
2.60983
2.34078
2.09612
1.87203
1.6652
1.47177
1.28687
1.10588
0.924953
0.739513
0.545852
0.341353
0.122269
4.79719
4.38506
3.97884
3.58925
3.22333
2.88483
2.57491
2.29276
2.03679
1.80379
1.5908
1.39418
1.20916
1.03122
0.856457
0.680323
0.499127
0.310239
0.110207
4.80492
4.40032
3.99441
3.59932
3.22379
2.87337
2.55077
2.25642
1.98966
1.74795
1.52875
1.32864
1.14302
0.967409
0.797837
0.629734
0.45934
0.283918
0.100133
4.80986
4.41181
4.00724
3.60848
3.2254
2.86494
2.53124
2.22591
1.94926
1.69942
1.47434
1.27085
1.08452
0.91091
0.745984
0.585102
0.424398
0.260958
0.0914522
4.81411
4.42129
4.01801
3.61641
3.22704
2.85791
2.51434
2.19907
1.91333
1.65595
1.42536
1.21869
1.03166
0.85988
0.699234
0.544994
0.393143
0.240558
0.0838263
4.81827
4.42992
4.02753
3.6233
3.22827
2.8513
2.49874
2.17435
1.88018
1.6158
1.38009
1.17047
0.982838
0.812835
0.656261
0.508269
0.364671
0.222097
0.0770015
4.82125
4.43642
4.03447
3.62763
3.22734
2.84318
2.48238
2.1496
1.84771
1.57691
1.33657
1.12437
0.936388
0.768279
0.615757
0.47384
0.33814
0.20502
0.0707595
4.82348
4.44116
4.03915
3.62955
3.22415
2.83317
2.46464
2.12405
1.815
1.53832
1.29379
1.07937
0.891293
0.725245
0.57684
0.440949
0.312959
0.188936
0.0649465
4.82732
4.44793
4.04559
3.63289
3.22211
2.82417
2.44787
2.0995
1.78336
1.50088
1.25223
1.03565
0.847499
0.683492
0.539154
0.409203
0.288781
0.173609
0.0594716
4.83193
4.45636
4.05386
3.63791
3.22152
2.8164
2.43217
2.07591
1.75261
1.46427
1.21147
0.992654
0.804338
0.642274
0.501913
0.377848
0.264978
0.158629
0.054199
4.83546
4.46373
4.06134
3.64227
3.22034
2.80808
2.41596
2.05187
1.72148
1.42733
1.17037
0.94929
0.760732
0.600493
0.463998
0.345788
0.240596
0.143358
0.0489225
4.83896
4.47095
4.06876
3.64669
3.21926
2.79986
2.39982
2.02785
1.69027
1.39016
1.12886
0.905278
0.71618
0.557419
0.424437
0.311837
0.214376
0.126795
0.0432931
4.84292
4.47881
4.07687
3.65182
3.21887
2.79228
2.38423
2.0042
1.65919
1.35282
1.08677
0.860192
0.670003
0.512097
0.38195
0.274311
0.184249
0.106865
0.036314
4.84706
4.48688
4.08508
3.65695
3.21844
2.78462
2.36851
1.98032
1.62764
1.31459
1.04325
0.813022
0.620995
0.463105
0.334811
0.230967
0.1471
0.0793642
0.0239886
4.85349
4.50308
4.10853
3.68511
3.24879
2.81479
2.39637
2.00408
1.6459
1.32645
1.04841
0.811824
0.614315
0.452211
0.321185
0.216122
0.132667
0.0674606
0.0179874
4.86051
4.5236
4.14197
3.73021
3.30358
2.87665
2.46226
2.07079
1.71032
1.38588
1.10075
0.855876
0.649852
0.479844
0.342062
0.231535
0.143642
0.0745172
0.0208781
4.86395
4.53553
4.16345
3.76152
3.34413
2.92501
2.51628
2.12782
1.76743
1.4402
1.14977
0.897816
0.683861
0.506063
0.361411
0.24527
0.152926
0.0801323
0.0230199
4.86384
4.53853
4.17228
3.77805
3.36921
2.95843
2.55685
2.17351
1.81563
1.48801
1.19435
0.936807
0.715749
0.530421
0.378854
0.257031
0.160347
0.0842768
0.0244663
4.86137
4.53508
4.17181
3.78368
3.38293
2.981
2.58782
2.21139
1.8581
1.53219
1.23716
0.975362
0.747835
0.55492
0.395958
0.267939
0.16668
0.0874785
0.0254708
4.85676
4.52678
4.16488
3.7821
3.38945
2.99698
2.61334
2.24534
1.8984
1.57606
1.28136
1.01659
0.78314
0.58231
0.414926
0.279475
0.172756
0.0901545
0.0261922
4.85092
4.51633
4.15539
3.77795
3.39372
3.01138
2.63824
2.27988
1.94075
1.62357
1.33083
1.06444
0.825775
0.616687
0.439372
0.294246
0.179973
0.0928209
0.0267592
4.84619
4.50771
4.1481
3.77635
3.40097
3.02932
2.66735
2.31954
1.98937
1.6788
1.38968
1.12339
0.880866
0.66384
0.475254
0.317341
0.191498
0.0965476
0.0271993
4.84163
4.49979
4.14219
3.77692
3.4112
3.05107
2.70126
2.36514
2.04537
1.74325
1.46005
1.19662
0.953162
0.730642
0.531593
0.358821
0.216025
0.106039
0.0276263
4.83711
4.49271
4.1382
3.7805
3.42553
3.078
2.74145
2.41832
2.11056
1.81894
1.54439
1.28739
1.04756
0.824914
0.620674
0.436315
0.275093
0.1418
0.0391814
4.83178
4.48339
4.13023
3.77818
3.43188
3.09485
2.76961
2.45781
2.16083
1.87907
1.61326
1.36378
1.13009
0.91181
0.7091
0.521534
0.349539
0.195296
0.0606743
4.82289
4.46382
4.10545
3.75237
3.40799
3.07478
2.75443
2.44792
2.15614
1.87916
1.61753
1.37155
1.14073
0.924775
0.724001
0.537868
0.366286
0.209933
0.0681656
4.81137
4.43758
4.07031
3.71247
3.36622
3.03307
2.71393
2.40922
2.11943
1.8443
1.58426
1.33958
1.10983
0.894928
0.695595
0.511807
0.344195
0.194229
0.0618137
4.80152
4.41527
4.04053
3.67875
3.33098
2.99792
2.67989
2.37681
2.08888
1.81563
1.55739
1.31448
1.0865
0.873541
0.676522
0.495598
0.331564
0.186003
0.0588383
4.79429
4.39837
4.01766
3.65261
3.30349
2.9704
2.65315
2.35134
2.06492
1.79325
1.53663
1.29536
1.06908
0.857946
0.662977
0.484391
0.323049
0.180598
0.0569683
4.78871
4.38536
4.00005
3.63249
3.28235
2.94923
2.6326
2.33178
2.04656
1.77619
1.5209
1.281
1.05613
0.846481
0.653124
0.476316
0.316959
0.176758
0.0556604
4.78464
4.3759
3.98734
3.61805
3.26724
2.93416
2.61801
2.31794
2.03361
1.76419
1.50988
1.27099
1.04714
0.838547
0.646317
0.470731
0.312731
0.174076
0.0547405
4.78144
4.36934
3.97906
3.60903
3.25805
2.92518
2.60947
2.30996
2.02625
1.75746
1.5038
1.26555
1.04236
0.834402
0.642833
0.467932
0.310654
0.172785
0.054312
4.78145
4.36936
3.97908
3.60905
3.25808
2.92521
2.6095
2.30999
2.02628
1.75749
1.50383
1.26558
1.04238
0.834421
0.642848
0.467944
0.310662
0.17279
0.0543137
4.78466
4.37595
3.98741
3.61813
3.26733
2.93425
2.61811
2.31803
2.0337
1.76427
1.50996
1.27106
1.04721
0.838606
0.646366
0.470771
0.31276
0.174094
0.0547466
4.78874
4.38543
4.00016
3.63262
3.28249
2.94937
2.63275
2.33193
2.04671
1.77632
1.52102
1.28111
1.05624
0.846571
0.653199
0.476375
0.317001
0.176783
0.055669
4.79433
4.39847
4.0178
3.65277
3.30367
2.97059
2.65335
2.35153
2.06511
1.79343
1.53679
1.29551
1.06922
0.85806
0.663071
0.484464
0.323101
0.180629
0.0569786
4.80157
4.41539
4.0407
3.67895
3.3312
2.99816
2.68013
2.37705
2.08911
1.81584
1.55759
1.31466
1.08666
0.873675
0.676631
0.495681
0.331622
0.186037
0.0588493
4.81143
4.43771
4.0705
3.71271
3.36648
3.03334
2.71421
2.40949
2.11969
1.84455
1.58448
1.33978
1.11
0.895068
0.695703
0.511884
0.344245
0.194254
0.06182
4.82295
4.46397
4.10567
3.75263
3.40827
3.07508
2.75474
2.44822
2.15643
1.87943
1.61776
1.37176
1.14089
0.92489
0.72407
0.537893
0.366278
0.20991
0.0681506
4.83185
4.48361
4.13057
3.77863
3.43243
3.09547
2.7703
2.45854
2.16159
1.87985
1.61405
1.36457
1.13089
0.912597
0.709872
0.522271
0.350202
0.195802
0.0608956
4.83719
4.49297
4.13861
3.78106
3.42621
3.07878
2.74233
2.41927
2.11157
1.81999
1.54546
1.28847
1.04864
0.825973
0.621676
0.437211
0.275814
0.142275
0.0393544
4.8417
4.5
4.14255
3.7774
3.41179
3.05176
2.70202
2.36596
2.04624
1.74414
1.46095
1.19751
0.954013
0.731429
0.532279
0.359363
0.216389
0.106221
0.0276613
4.84626
4.50791
4.14842
3.7768
3.40153
3.02996
2.66807
2.32031
1.99017
1.67962
1.39049
1.12417
0.881587
0.664473
0.47577
0.317717
0.191732
0.0966608
0.0272286
4.85097
4.51651
4.15569
3.77837
3.39424
3.01199
2.63891
2.2806
1.94149
1.62432
1.33155
1.06512
0.826388
0.617205
0.439777
0.294532
0.180151
0.0929113
0.0267851
4.85681
4.52694
4.16516
3.78249
3.38993
2.99755
2.61397
2.246
1.89909
1.57674
1.28201
1.01719
0.783667
0.582746
0.415259
0.27971
0.172904
0.0902333
0.026216
4.86142
4.53522
4.17206
3.78403
3.38338
2.98152
2.5884
2.212
1.85872
1.53281
1.23775
0.975893
0.748293
0.555293
0.396243
0.268141
0.166811
0.0875503
0.0254933
4.86388
4.53865
4.1725
3.77836
3.36961
2.9589
2.55738
2.17407
1.8162
1.48857
1.19488
0.937276
0.71615
0.530746
0.379104
0.257211
0.160467
0.0843448
0.0244888
4.86398
4.53564
4.16364
3.7618
3.34449
2.92543
2.51675
2.12832
1.76794
1.4407
1.15024
0.89823
0.684215
0.506351
0.361635
0.245435
0.15304
0.0802001
0.023044
4.86054
4.52369
4.14214
3.73045
3.3039
2.87702
2.46268
2.07124
1.71077
1.38632
1.10116
0.856243
0.650167
0.480103
0.342268
0.231692
0.143755
0.0745887
0.0209061
4.85349
4.5031
4.10857
3.68517
3.24887
2.81489
2.39649
2.0042
1.64602
1.32657
1.04851
0.811907
0.614377
0.452252
0.321207
0.216127
0.132661
0.06745
0.0179805
4.84704
4.48685
4.08503
3.65689
3.21837
2.78454
2.36841
1.98022
1.62754
1.31449
1.04316
0.812935
0.620913
0.463029
0.334742
0.230906
0.14705
0.0793279
0.0239722
4.84292
4.4788
4.07685
3.6518
3.21886
2.79226
2.38421
2.00419
1.65918
1.35281
1.08677
0.860195
0.670009
0.512105
0.381959
0.27432
0.184257
0.106871
0.0363158
4.83896
4.47094
4.06875
3.64668
3.21925
2.79985
2.39981
2.02784
1.69026
1.39016
1.12886
0.905282
0.716186
0.557426
0.424445
0.311844
0.214382
0.126798
0.043294
4.83546
4.46372
4.06133
3.64226
3.22033
2.80807
2.41595
2.05187
1.72148
1.42733
1.17037
0.949294
0.760738
0.6005
0.464004
0.345794
0.240599
0.14336
0.0489232
4.83193
4.45636
4.05386
3.6379
3.22152
2.8164
2.43216
2.07591
1.75261
1.46427
1.21147
0.992658
0.804343
0.642279
0.501917
0.377852
0.264981
0.158631
0.0541994
4.82732
4.44793
4.04559
3.63289
3.22211
2.82417
2.44787
2.0995
1.78336
1.50088
1.25224
1.03566
0.847503
0.683496
0.539157
0.409206
0.288783
0.17361
0.0594719
4.82348
4.44116
4.03915
3.62955
3.22415
2.83317
2.46464
2.12405
1.815
1.53832
1.29379
1.07938
0.891296
0.725248
0.576842
0.44095
0.31296
0.188937
0.0649466
4.82125
4.43642
4.03447
3.62763
3.22734
2.84318
2.48238
2.1496
1.84771
1.57692
1.33657
1.12438
0.93639
0.768281
0.615759
0.473841
0.33814
0.20502
0.0707596
4.81827
4.42992
4.02753
3.6233
3.22827
2.85131
2.49875
2.17435
1.88018
1.6158
1.38009
1.17047
0.98284
0.812836
0.656261
0.508269
0.364671
0.222097
0.0770015
4.81411
4.42129
4.01801
3.61641
3.22704
2.85791
2.51434
2.19908
1.91333
1.65595
1.42536
1.21869
1.03166
0.85988
0.699234
0.544993
0.393143
0.240558
0.0838263
4.80986
4.41181
4.00725
3.60848
3.2254
2.86495
2.53124
2.22591
1.94926
1.69942
1.47434
1.27085
1.08452
0.91091
0.745983
0.585102
0.424397
0.260958
0.0914522
4.80493
4.40032
3.99442
3.59932
3.2238
2.87337
2.55077
2.25642
1.98966
1.74795
1.52875
1.32864
1.14302
0.967407
0.797836
0.629733
0.45934
0.283918
0.100133
4.79719
4.38506
3.97884
3.58925
3.22333
2.88483
2.57491
2.29276
2.03679
1.80379
1.5908
1.39418
1.20916
1.03122
0.856455
0.680322
0.499126
0.310239
0.110207
4.78914
4.3707
3.96622
3.58453
3.23045
2.90571
2.60983
2.34078
2.09612
1.87203
1.66519
1.47177
1.28686
1.10588
0.924952
0.739512
0.545851
0.341353
0.12227
4.78273
4.36029
3.96062
3.59001
3.25048
2.94151
2.661
2.40583
2.1728
1.95761
1.75665
1.56591
1.38036
1.19531
1.00691
0.810464
0.602128
0.379136
0.137139
4.77489
4.3519
3.96221
3.6074
3.28603
2.99535
2.73185
2.4915
2.27059
2.06439
1.86909
1.68057
1.49363
1.30345
1.10612
0.896692
0.671009
0.425887
0.155901
4.76921
4.35366
3.98105
3.64718
3.34738
3.07708
2.83179
2.60688
2.39826
2.20091
2.01087
1.82391
1.63463
1.43799
1.2299
1.00491
0.758277
0.485938
0.180621
4.7716
4.37554
4.02804
3.72013
3.44493
3.19681
2.97076
2.76181
2.56569
2.37717
2.19214
2.00626
1.81382
1.60941
1.38854
1.14495
0.872741
0.566219
0.214844
4.78481
4.4222
4.10827
3.83148
3.58415
3.36039
3.15515
2.9634
2.7808
2.60196
2.42263
2.23832
2.04283
1.83017
1.59513
1.33004
1.02699
0.677282
0.264599
4.81163
4.49692
4.22479
3.98431
3.76854
3.57208
3.39025
3.21813
3.05145
2.8847
2.7135
2.53309
2.33664
2.1172
1.86836
1.58011
1.24111
0.837157
0.341669
4.85131
4.59729
4.37465
4.17603
3.99645
3.83154
3.67729
3.52907
3.38287
3.23312
3.0753
2.90442
2.71277
2.49206
2.234
1.92487
1.54748
1.07778
0.470838
4.89896
4.71496
4.54882
4.39822
4.26065
4.1331
4.01247
3.89469
3.77621
3.65167
3.51661
3.3659
3.19098
2.982
2.72806
2.40994
2.00098
1.45983
0.709233
4.94711
4.83777
4.73421
4.63827
4.54963
4.46667
4.3874
4.30871
4.22796
4.14057
4.04272
3.92976
3.79304
3.62174
3.40232
3.1088
2.70067
2.10804
1.19854
4.98778
4.95268
4.91663
4.88225
4.85013
4.81982
4.79065
4.76113
4.73019
4.69536
4.6547
4.60561
4.54215
4.45592
4.33378
4.14623
3.8382
3.29954
2.30955
)
;

boundaryField
{
    up
    {
        type            fixedValue;
        value           uniform 0;
    }
    low
    {
        type            fixedValue;
        value           uniform 5;
    }
    left
    {
        type            fixedValue;
        value           uniform 5;
    }
    right
    {
        type            fixedValue;
        value           uniform 5;
    }
    frontAndBackPlanes
    {
        type            empty;
    }
}


// ************************************************************************* //
