/*--------------------------------*- C++ -*----------------------------------*\
  =========                 |
  \\      /  F ield         | OpenFOAM: The Open Source CFD Toolbox
   \\    /   O peration     | Website:  https://openfoam.org
    \\  /    A nd           | Version:  7
     \\/     M anipulation  |
\*---------------------------------------------------------------------------*/
FoamFile
{
    version     2.0;
    format      ascii;
    class       volScalarField;
    location    "0.218";
    object      gradTx;
}
// * * * * * * * * * * * * * * * * * * * * * * * * * * * * * * * * * * * * * //

dimensions      [0 -1 0 1 0 0 0];

internalField   nonuniform List<scalar> 
1596
(
-0.138018
-0.69247
-1.23941
-1.73134
-2.16453
-2.5374
-2.86719
-3.16506
-3.44649
-3.74105
-4.05753
-4.43159
-4.90489
-5.53727
-6.39889
-7.66488
-9.60487
-12.8009
-18.4566
0.0304693
-0.576007
-1.11451
-1.57891
-1.9798
-2.31928
-2.61298
-2.86654
-3.09161
-3.30383
-3.50551
-3.71625
-3.94374
-4.19906
-4.47613
-4.76271
-4.9834
-4.98374
-4.43537
0.16871
-0.469663
-0.990605
-1.42228
-1.78625
-2.08929
-2.34494
-2.55692
-2.7331
-2.88199
-3.003
-3.10668
-3.19138
-3.25628
-3.28927
-3.26858
-3.13419
-2.7804
-1.99902
0.191253
-0.412171
-0.887928
-1.27477
-1.59607
-1.86062
-2.07902
-2.25423
-2.39125
-2.49449
-2.56285
-2.60159
-2.60725
-2.57628
-2.499
-2.35804
-2.11519
-1.70749
-1.01132
0.0584255
-0.42875
-0.824783
-1.15148
-1.42354
-1.6476
-1.83018
-1.97338
-2.07992
-2.15151
-2.18753
-2.1899
-2.15558
-2.08099
-1.95991
-1.78029
-1.51997
-1.14338
-0.57987
-0.218232
-0.52904
-0.81516
-1.06662
-1.28245
-1.46336
-1.61071
-1.72508
-1.80713
-1.8565
-1.8731
-1.85657
-1.80462
-1.71407
-1.58132
-1.39804
-1.15206
-0.823665
-0.373228
-0.586193
-0.704963
-0.864983
-1.03002
-1.18325
-1.31768
-1.42907
-1.51573
-1.57626
-1.6086
-1.61277
-1.5868
-1.52887
-1.43606
-1.30631
-1.13355
-0.911351
-0.628781
-0.263759
-0.971579
-0.923481
-0.96094
-1.03713
-1.12512
-1.21104
-1.28573
-1.34485
-1.38502
-1.40271
-1.39763
-1.36666
-1.30811
-1.21915
-1.09844
-0.9412
-0.744099
-0.50098
-0.19958
-1.37049
-1.20435
-1.13291
-1.1197
-1.13735
-1.16861
-1.20114
-1.22815
-1.24449
-1.24534
-1.22964
-1.19346
-1.13484
-1.05079
-0.940079
-0.79855
-0.624274
-0.413499
-0.159157
-1.61029
-1.4009
-1.26518
-1.18785
-1.14978
-1.13515
-1.13123
-1.12991
-1.125
-1.11091
-1.08583
-1.04543
-0.987455
-0.908855
-0.808307
-0.682119
-0.529004
-0.346537
-0.130503
-1.80622
-1.57865
-1.40428
-1.27946
-1.19434
-1.13741
-1.0978
-1.06746
-1.03994
-1.00932
-0.973182
-0.926986
-0.868165
-0.793531
-0.701511
-0.588612
-0.453672
-0.294852
-0.109448
-2.00647
-1.7773
-1.57883
-1.4167
-1.2893
-1.19063
-1.11324
-1.05043
-0.99633
-0.945204
-0.894223
-0.838782
-0.775969
-0.702392
-0.616104
-0.513604
-0.393524
-0.254131
-0.0933403
-2.06262
-1.86402
-1.67024
-1.49627
-1.34756
-1.22342
-1.1202
-1.03345
-0.958612
-0.890745
-0.827146
-0.763503
-0.696844
-0.623792
-0.542198
-0.448642
-0.341568
-0.219259
-0.0798947
-2.07826
-1.91298
-1.73511
-1.56147
-1.40202
-1.26066
-1.13743
-1.03049
-0.937073
-0.853432
-0.777349
-0.705012
-0.633553
-0.559697
-0.481152
-0.394566
-0.298168
-0.190163
-0.0688039
-2.07717
-1.94206
-1.78376
-1.61736
-1.45442
-1.30205
-1.16347
-1.03954
-0.929462
-0.830951
-0.742567
-0.661151
-0.584077
-0.508237
-0.431262
-0.349854
-0.262032
-0.16587
-0.0595704
-2.02925
-1.92661
-1.79216
-1.64011
-1.48214
-1.3271
-1.18052
-1.04557
-0.923422
-0.81334
-0.714884
-0.625699
-0.543563
-0.46565
-0.389625
-0.312295
-0.231541
-0.14533
-0.0517746
-1.93222
-1.86059
-1.75245
-1.6201
-1.47441
-1.32476
-1.17801
-1.03901
-0.910628
-0.793603
-0.68857
-0.594076
-0.508432
-0.429204
-0.354203
-0.28041
-0.205669
-0.127907
-0.045182
-1.81716
-1.76546
-1.68054
-1.56887
-1.43893
-1.29954
-1.158
-1.02025
-0.890404
-0.770481
-0.66212
-0.564762
-0.4773
-0.397732
-0.324077
-0.25352
-0.183935
-0.113287
-0.0396565
-1.72066
-1.68497
-1.61779
-1.52278
-1.40619
-1.27595
-1.13947
-1.00338
-0.872829
-0.750891
-0.640071
-0.540593
-0.451849
-0.372198
-0.299797
-0.23195
-0.166523
-0.10154
-0.0351768
-1.54968
-1.53532
-1.48897
-1.41487
-1.31779
-1.20429
-1.08119
-0.955122
-0.831705
-0.714714
-0.607334
-0.510508
-0.424164
-0.347095
-0.277683
-0.213387
-0.15209
-0.091945
-0.03148
-1.35916
-1.36161
-1.33408
-1.27988
-1.20267
-1.10772
-1.00098
-0.88868
-0.776488
-0.668523
-0.568354
-0.477467
-0.396226
-0.323842
-0.25892
-0.199016
-0.141855
-0.0854935
-0.0288945
-1.15943
-1.17264
-1.16063
-1.12455
-1.06665
-0.990928
-0.902368
-0.806525
-0.708808
-0.613353
-0.523808
-0.441964
-0.368483
-0.302951
-0.244249
-0.190039
-0.137667
-0.0843778
-0.0285799
-0.936936
-0.955328
-0.95589
-0.937045
-0.899255
-0.844933
-0.777857
-0.702593
-0.623959
-0.545766
-0.47138
-0.402659
-0.340369
-0.284459
-0.234254
-0.18783
-0.142307
-0.0935052
-0.0361325
-0.684974
-0.675014
-0.651718
-0.615484
-0.568839
-0.515322
-0.45901
-0.403528
-0.351944
-0.305998
-0.266256
-0.232288
-0.202914
-0.176878
-0.153022
-0.129949
-0.105545
-0.0758677
-0.033919
-0.457815
-0.508129
-0.561507
-0.608369
-0.642121
-0.658743
-0.657441
-0.639595
-0.608598
-0.568384
-0.522439
-0.473993
-0.42494
-0.377298
-0.332688
-0.292248
-0.255351
-0.219383
-0.17766
-0.154582
-0.177403
-0.206904
-0.237701
-0.265781
-0.288314
-0.304284
-0.313603
-0.317447
-0.317167
-0.313202
-0.306185
-0.295286
-0.280536
-0.262594
-0.243711
-0.225426
-0.209516
-0.19597
0.14921
0.120846
0.0802581
0.0324735
-0.0177459
-0.0664901
-0.111325
-0.150973
-0.185475
-0.215378
-0.240422
-0.26036
-0.273356
-0.278232
-0.274808
-0.265603
-0.253271
-0.241098
-0.230281
0.45209
0.413296
0.357734
0.291061
0.21866
0.145179
0.0739489
0.0069132
-0.0553555
-0.113049
-0.165716
-0.212561
-0.250846
-0.277763
-0.291367
-0.293414
-0.287214
-0.277728
-0.267659
0.725377
0.670043
0.59612
0.510246
0.41802
0.324252
0.232411
0.144413
0.0607858
-0.0188813
-0.0945002
-0.165361
-0.228292
-0.278828
-0.312317
-0.328231
-0.329274
-0.322044
-0.311535
1.00798
0.932212
0.837573
0.730986
0.61826
0.504379
0.39282
0.285336
0.18224
0.0826721
-0.013984
-0.10783
-0.196197
-0.273745
-0.332813
-0.368891
-0.381578
-0.377933
-0.366123
1.22042
1.12128
1.00636
0.882385
0.755055
0.628814
0.506407
0.388803
0.275671
0.165414
0.0564663
-0.05268
-0.16101
-0.264005
-0.352102
-0.415953
-0.448283
-0.452467
-0.438376
1.41862
1.29956
1.16498
1.02421
0.883258
0.746019
0.614497
0.488961
0.368579
0.251224
0.134596
0.0156622
-0.107123
-0.232392
-0.351945
-0.454038
-0.52226
-0.549194
-0.540006
1.60139
1.45635
1.30076
1.14409
0.991623
0.846148
0.708699
0.578793
0.455234
0.335653
0.217546
0.0970441
-0.0297
-0.165824
-0.308623
-0.451097
-0.572755
-0.651655
-0.665962
1.71902
1.53469
1.34736
1.16533
0.992407
0.830013
0.678156
0.535757
0.401377
0.272702
0.14731
0.0214179
-0.109714
-0.25254
-0.41164
-0.591562
-0.783778
-0.970594
-1.11843
1.79129
1.59026
1.4007
1.22761
1.07112
0.929824
0.801589
0.6842
0.57567
0.474072
0.377975
0.285647
0.195093
0.103141
0.00527171
-0.107809
-0.245279
-0.417688
-0.62921
1.84443
1.63712
1.45413
1.29318
1.15041
1.02251
0.906403
0.799705
0.700633
0.607684
0.520097
0.437359
0.359111
0.285387
0.216659
0.152539
0.0921254
0.0318114
-0.0354321
1.74512
1.50866
1.30859
1.13693
0.987534
0.856008
0.738703
0.632878
0.536477
0.447712
0.365581
0.289374
0.218534
0.153022
0.0934792
0.0406352
-0.00415249
-0.0392818
-0.0640025
1.53158
1.31662
1.13762
0.98604
0.855646
0.741948
0.641377
0.551262
0.469672
0.394999
0.326339
0.263075
0.204671
0.15093
0.102006
0.0578925
0.0187254
-0.0152486
-0.0441906
1.27229
1.092
0.941533
0.814506
0.705822
0.611578
0.52868
0.454774
0.388182
0.327505
0.271927
0.220862
0.173749
0.130274
0.090386
0.0539132
0.0208375
-0.00864873
-0.0346407
0.957876
0.818927
0.704119
0.608097
0.526589
0.456352
0.394884
0.340298
0.291268
0.246696
0.205926
0.168482
0.133888
0.101864
0.0723368
0.0451674
0.020361
-0.0018796
-0.0215722
0.603222
0.51057
0.436378
0.37552
0.324483
0.280837
0.242834
0.209199
0.179058
0.151695
0.126675
0.103679
0.0823867
0.0626007
0.04426
0.0272703
0.0116395
-0.00247566
-0.0150468
0.231579
0.194173
0.165289
0.141918
0.122388
0.105682
0.0911229
0.078236
0.0666981
0.0562439
0.0467042
0.0379494
0.0298466
0.0223041
0.0152764
0.00870725
0.00257713
-0.00307308
-0.00823653
-0.231468
-0.193926
-0.164951
-0.14152
-0.121953
-0.105228
-0.0906645
-0.0777853
-0.0662648
-0.0558367
-0.0463304
-0.0376151
-0.0295575
-0.0220647
-0.0150905
-0.00857775
-0.00250591
0.00308581
0.00819176
-0.603118
-0.510351
-0.436081
-0.375172
-0.324106
-0.280446
-0.242443
-0.208819
-0.178698
-0.151363
-0.126378
-0.103422
-0.0821757
-0.0624398
-0.0441524
-0.0272184
-0.0116447
0.00241376
0.0149302
-0.957772
-0.818717
-0.70383
-0.607752
-0.526209
-0.455951
-0.394477
-0.339894
-0.290878
-0.246329
-0.205588
-0.168177
-0.133622
-0.101638
-0.0721535
-0.0450269
-0.020262
0.00193955
0.0215966
-1.27221
-1.09186
-0.941334
-0.81427
-0.705562
-0.611307
-0.528408
-0.454511
-0.387935
-0.327282
-0.271733
-0.220702
-0.173627
-0.130191
-0.090343
-0.0539089
-0.0208697
0.00858333
0.034546
-1.53153
-1.31652
-1.13749
-0.985875
-0.855459
-0.741749
-0.641175
-0.551066
-0.469489
-0.394836
-0.326203
-0.26297
-0.204601
-0.150897
-0.102008
-0.057927
-0.018786
0.0151705
0.0441063
-1.74512
-1.50864
-1.30854
-1.13685
-0.987435
-0.855899
-0.738595
-0.63278
-0.536397
-0.447658
-0.365561
-0.289394
-0.2186
-0.153138
-0.093646
-0.0408451
0.00391969
0.0390608
0.0638338
-1.84443
-1.63697
-1.45378
-1.29261
-1.14963
-1.02153
-0.905248
-0.798398
-0.699199
-0.606147
-0.518475
-0.435667
-0.357359
-0.283581
-0.214814
-0.150699
-0.0904031
-0.0304427
0.0360583
-1.79161
-1.59112
-1.40211
-1.22957
-1.07358
-0.932748
-0.804929
-0.68791
-0.579707
-0.478405
-0.382589
-0.290552
-0.200331
-0.108811
-0.0115263
0.100745
0.237192
0.4085
0.619172
-1.71889
-1.53433
-1.34673
-1.16444
-0.991266
-0.828647
-0.676595
-0.534039
-0.399536
-0.270773
-0.145329
-0.0194186
0.111697
0.25448
0.413553
0.593552
0.786123
0.973769
1.12306
-1.6015
-1.45661
-1.30115
-1.14459
-0.9922
-0.846785
-0.709378
-0.579503
-0.455966
-0.336404
-0.218318
-0.0978413
0.0288808
0.165012
0.307899
0.450608
0.572677
0.652094
0.666771
-1.41869
-1.29972
-1.16522
-1.02452
-0.883622
-0.74642
-0.614925
-0.489408
-0.369041
-0.251698
-0.135078
-0.0161445
0.106666
0.232014
0.351731
0.454083
0.522611
0.549798
0.540739
-1.2205
-1.12145
-1.00661
-0.882708
-0.755432
-0.629229
-0.506845
-0.389255
-0.276126
-0.165863
-0.0568984
0.0522843
0.160684
0.263801
0.352074
0.416134
0.448652
0.452951
0.438892
-1.00805
-0.932377
-0.837829
-0.731318
-0.618651
-0.504809
-0.393272
-0.285794
-0.182688
-0.0830972
0.0135986
0.107507
0.195968
0.273646
0.332867
0.369094
0.381893
0.378307
0.366518
-0.725436
-0.670198
-0.596364
-0.510564
-0.418395
-0.324663
-0.232838
-0.144837
-0.0611901
0.0185136
0.0941867
0.165122
0.228152
0.278804
0.312413
0.32843
0.329541
0.322348
0.311857
-0.452156
-0.413459
-0.357989
-0.291393
-0.219049
-0.145601
-0.0743805
-0.00733179
0.0549695
0.112713
0.165448
0.212375
0.250757
0.277776
0.291475
0.293596
0.287445
0.277989
0.267941
-0.149266
-0.121
-0.080505
-0.0327972
0.0173684
0.0660851
0.110919
0.15059
0.185135
0.215097
0.240215
0.260236
0.273319
0.27828
0.274928
0.265779
0.253485
0.24134
0.230549
0.154451
0.177005
0.20623
0.236773
0.26465
0.287047
0.302958
0.312288
0.316205
0.316047
0.312233
0.305387
0.294659
0.280069
0.262264
0.243496
0.225313
0.209515
0.196134
0.457906
0.508477
0.562173
0.609371
0.643437
0.660319
0.659203
0.64146
0.610485
0.570225
0.524182
0.475605
0.426405
0.378615
0.333869
0.293313
0.256322
0.220279
0.178485
0.684875
0.674662
0.651108
0.614643
0.567822
0.514193
0.457837
0.402374
0.350857
0.305014
0.265393
0.231555
0.202308
0.17639
0.152638
0.129656
0.105331
0.0757277
0.0338601
0.936991
0.95544
0.95606
0.937261
0.8995
0.845188
0.778102
0.702814
0.624146
0.545915
0.471491
0.402736
0.340417
0.284486
0.234266
0.187832
0.142302
0.0934981
0.0361293
1.15944
1.17265
1.16065
1.12457
1.06667
0.990947
0.902382
0.806535
0.708812
0.61335
0.5238
0.441952
0.368469
0.302937
0.244235
0.190026
0.137657
0.0843716
0.0285787
1.35917
1.36162
1.33409
1.27989
1.20268
1.10773
1.00099
0.888684
0.776487
0.668517
0.568345
0.477455
0.396214
0.32383
0.258909
0.199007
0.141849
0.0854901
0.0288936
1.54969
1.53533
1.48898
1.41488
1.3178
1.2043
1.0812
0.955122
0.831701
0.714707
0.607324
0.510498
0.424154
0.347086
0.277675
0.213381
0.152086
0.0919427
0.0314793
1.72067
1.68498
1.6178
1.52279
1.4062
1.27595
1.13947
1.00338
0.872825
0.750884
0.640063
0.540584
0.451841
0.372191
0.29979
0.231945
0.16652
0.101538
0.0351762
1.81716
1.76547
1.68055
1.56888
1.43893
1.29954
1.15801
1.02025
0.890399
0.770474
0.662113
0.564754
0.477292
0.397726
0.324071
0.253516
0.183932
0.113286
0.039656
1.93222
1.8606
1.75245
1.62011
1.47441
1.32476
1.17801
1.03901
0.910622
0.793596
0.688563
0.594068
0.508425
0.429198
0.354197
0.280406
0.205666
0.127905
0.0451815
2.02926
1.92662
1.79217
1.64012
1.48214
1.3271
1.18052
1.04557
0.923417
0.813334
0.714878
0.625692
0.543557
0.465644
0.38962
0.31229
0.231538
0.145328
0.0517741
2.07717
1.94206
1.78377
1.61737
1.45442
1.30205
1.16347
1.03954
0.929456
0.830945
0.74256
0.661144
0.58407
0.508231
0.431256
0.349848
0.262028
0.165868
0.0595701
2.07826
1.91298
1.73511
1.56148
1.40203
1.26066
1.13742
1.03049
0.937067
0.853426
0.777342
0.705005
0.633546
0.55969
0.481146
0.39456
0.298165
0.190162
0.0688039
2.06262
1.86403
1.67025
1.49628
1.34756
1.22342
1.1202
1.03345
0.958608
0.89074
0.82714
0.763497
0.696838
0.623786
0.542192
0.448637
0.341566
0.219259
0.079895
2.00647
1.7773
1.57883
1.41669
1.28929
1.19063
1.11323
1.05042
0.996322
0.945196
0.894215
0.838774
0.775961
0.702385
0.616099
0.5136
0.393522
0.25413
0.0933409
1.80623
1.57866
1.40429
1.27947
1.19434
1.13741
1.09779
1.06746
1.03993
1.00932
0.973176
0.92698
0.86816
0.793527
0.701508
0.588611
0.453672
0.294854
0.109449
1.61031
1.40091
1.26518
1.18785
1.14978
1.13515
1.13123
1.12991
1.125
1.1109
1.08582
1.04542
0.987451
0.908853
0.808306
0.68212
0.529006
0.34654
0.130504
1.3705
1.20435
1.13292
1.1197
1.13735
1.1686
1.20114
1.22815
1.24448
1.24533
1.22963
1.19346
1.13484
1.0508
0.940081
0.798555
0.624279
0.413502
0.159159
0.971589
0.923486
0.960942
1.03713
1.12512
1.21104
1.28573
1.34485
1.38501
1.40271
1.39762
1.36666
1.30811
1.21916
1.09845
0.941205
0.744105
0.500984
0.19958
0.586202
0.704968
0.864987
1.03002
1.18325
1.31768
1.42907
1.51573
1.57625
1.6086
1.61277
1.5868
1.52887
1.43607
1.30632
1.13356
0.911357
0.628783
0.263759
0.218238
0.529045
0.815164
1.06663
1.28245
1.46336
1.61071
1.72508
1.80713
1.8565
1.8731
1.85658
1.80463
1.71408
1.58133
1.39804
1.15206
0.823667
0.373228
-0.0584221
0.428754
0.824788
1.15149
1.42354
1.64761
1.83018
1.97338
2.07992
2.15151
2.18753
2.1899
2.15558
2.08099
1.95992
1.7803
1.51997
1.14338
0.579868
-0.191252
0.412174
0.887931
1.27477
1.59608
1.86062
2.07902
2.25423
2.39125
2.49449
2.56286
2.6016
2.60725
2.57628
2.499
2.35804
2.11519
1.70749
1.01131
-0.168711
0.469664
0.990605
1.42228
1.78625
2.08929
2.34494
2.55693
2.7331
2.88199
3.003
3.10668
3.19138
3.25628
3.28927
3.26857
3.13418
2.7804
1.99902
-0.0304695
0.576007
1.11451
1.57891
1.9798
2.31928
2.61298
2.86654
3.09162
3.30383
3.50551
3.71625
3.94374
4.19905
4.47612
4.7627
4.9834
4.98373
4.43537
0.138019
0.692471
1.23941
1.73134
2.16453
2.5374
2.86719
3.16506
3.44649
3.74105
4.05752
4.43159
4.90488
5.53726
6.39888
7.66488
9.60487
12.8009
18.4566
)
;

boundaryField
{
    up
    {
        type            calculated;
        value           nonuniform List<scalar> 
84
(
-18.4566
-4.43537
-1.99902
-1.01132
-0.57987
-0.373228
-0.263759
-0.19958
-0.159157
-0.130503
-0.109448
-0.0933403
-0.0798947
-0.0688039
-0.0595704
-0.0517746
-0.045182
-0.0396565
-0.0351768
-0.03148
-0.0288945
-0.0285799
-0.0361325
-0.033919
-0.151684
-0.182835
-0.216945
-0.252833
-0.294331
-0.345414
-0.411621
-0.498953
-0.602009
-1.10462
-0.65
-0.0366266
-0.0638714
-0.0440809
-0.0345781
-0.0215503
-0.0150399
-0.00823801
0.00819323
0.0149234
0.0215749
0.0344838
0.0439971
0.0637029
0.0372362
0.639699
1.11009
0.602733
0.499588
0.412098
0.345789
0.294643
0.25311
0.217214
0.183074
0.152431
0.0338601
0.0361293
0.0285787
0.0288936
0.0314793
0.0351762
0.039656
0.0451815
0.0517741
0.0595701
0.0688039
0.079895
0.0933409
0.109449
0.130504
0.159159
0.19958
0.263759
0.373228
0.579868
1.01131
1.99902
4.43537
18.4566
)
;
    }
    low
    {
        type            calculated;
        value           nonuniform List<scalar> 
84
(
-0.124381
0.0510867
0.202059
0.227567
0.0812971
-0.222471
-0.62115
-1.03039
-1.43858
-1.66622
-1.85517
-2.04554
-2.07869
-2.08009
-2.06998
-2.00902
-1.90089
-1.78295
-1.67959
-1.49603
-1.29954
-1.09884
-0.877991
-0.633461
-0.417698
-0.140128
0.13275
0.411125
0.672712
0.955132
1.17688
1.383
1.5774
1.71027
1.79473
1.86234
1.77836
1.56754
1.30459
0.98372
0.620401
0.238779
-0.238667
-0.620294
-0.983609
-1.3045
-1.56748
-1.77834
-1.86231
-1.795
-1.71014
-1.57748
-1.38306
-1.17695
-0.955199
-0.672775
-0.411193
-0.132807
0.14
0.417787
0.633369
0.878039
1.09885
1.29955
1.49604
1.6796
1.78295
1.9009
2.00902
2.06998
2.08009
2.07869
2.04553
1.85518
1.66623
1.4386
1.0304
0.62116
0.222477
-0.0812937
-0.227568
-0.202062
-0.0510887
0.124382
)
;
    }
    left
    {
        type            calculated;
        value           nonuniform List<scalar> 
19
(
-0.122522
-0.664851
-1.22294
-1.73189
-2.18373
-2.574
-2.92124
-3.23849
-3.54115
-3.86625
-4.22231
-4.64942
-5.20188
-5.95971
-7.01104
-8.60216
-11.1072
-15.3392
-16.0078
)
;
    }
    right
    {
        type            calculated;
        value           nonuniform List<scalar> 
19
(
0.122523
0.664854
1.22294
1.73189
2.18373
2.574
2.92124
3.23849
3.54115
3.86625
4.22231
4.64941
5.20187
5.9597
7.01103
8.60215
11.1072
15.3392
16.0078
)
;
    }
    frontAndBackPlanes
    {
        type            empty;
    }
}


// ************************************************************************* //
