/*--------------------------------*- C++ -*----------------------------------*\
  =========                 |
  \\      /  F ield         | OpenFOAM: The Open Source CFD Toolbox
   \\    /   O peration     | Website:  https://openfoam.org
    \\  /    A nd           | Version:  7
     \\/     M anipulation  |
\*---------------------------------------------------------------------------*/
FoamFile
{
    version     2.0;
    format      ascii;
    class       volScalarField;
    location    "0.25";
    object      gradTz;
}
// * * * * * * * * * * * * * * * * * * * * * * * * * * * * * * * * * * * * * //

dimensions      [0 -1 0 1 0 0 0];

internalField   nonuniform List<scalar> 
1596
(
-6.45466e-16
-3.13856e-16
3.18844e-16
6.86951e-18
-6.07544e-16
0
-2.8377e-16
-2.79815e-16
-1.84943e-17
-1.47374e-16
-1.35113e-18
-1.46618e-16
6.45271e-16
-1.45016e-16
6.77627e-16
5.84736e-16
3.47804e-16
4.39236e-16
0
6.44954e-16
0
9.09028e-16
-6.29554e-18
-2.78564e-16
2.76145e-16
5.69202e-16
1.76118e-17
2.69671e-16
-1.29967e-16
2.59345e-16
-3.92719e-18
-3.59768e-16
-2.24752e-16
-5.47861e-16
-5.34504e-16
-4.86277e-16
2.76799e-16
0
-3.16231e-16
0
-5.92969e-16
9.99797e-18
5.43583e-16
-1.52732e-16
1.17748e-17
-3.77933e-18
-3.83388e-18
-4.0773e-18
9.81413e-17
0
1.86626e-16
5.29343e-16
-5.21771e-17
4.20102e-17
9.87982e-17
1.54351e-16
0
4.96812e-16
-1.49321e-16
1.48776e-16
0
-1.43104e-16
-1.48117e-16
2.51998e-16
-2.1987e-16
0
0
-7.92551e-17
5.1241e-17
0
-1.55884e-16
-1.98587e-16
1.37437e-16
-1.41368e-16
-7.27323e-18
0
8.67995e-17
2.3082e-16
-2.0814e-16
0
-6.14081e-17
-1.86917e-16
0
2.79283e-16
-2.77931e-17
-2.51681e-17
-2.43494e-17
1.45287e-16
1.78667e-16
1.849e-17
6.58689e-18
-1.48605e-16
7.48744e-18
6.88364e-17
-2.96349e-17
-2.25404e-17
-3.16763e-16
3.0122e-16
-2.62829e-16
-5.49439e-19
-2.32261e-16
6.54699e-18
-6.56872e-18
-1.83301e-16
0
-2.01918e-17
-1.71817e-16
-1.614e-16
1.31089e-16
1.36302e-16
-1.8598e-18
-8.17306e-17
-6.98198e-17
5.3402e-17
1.88375e-16
-3.22623e-16
3.61687e-16
2.02291e-16
0
1.7833e-16
1.04782e-16
-5.04532e-17
2.32475e-16
-4.36516e-17
-1.84748e-16
1.67075e-18
-1.09436e-16
-1.31711e-16
-1.02873e-16
8.7636e-17
8.245e-17
-1.10153e-18
-2.227e-17
1.86444e-17
5.12523e-16
-6.02853e-16
0
0
-2.20602e-16
0
0
0
1.51714e-16
0
0
1.0041e-16
3.73125e-18
2.75173e-17
-7.66307e-17
0
4.07854e-17
1.59466e-17
0
-3.32357e-16
6.39471e-16
0
0
2.2719e-16
0
-8.65832e-17
8.64957e-17
-1.54422e-16
6.42711e-17
-6.47412e-17
0
9.34578e-17
9.12592e-17
0
-5.26717e-17
-4.16739e-17
-1.39341e-17
8.01271e-16
-3.75026e-16
0
-2.65681e-16
2.62708e-16
0
1.94322e-16
0
0
0
5.9296e-17
-5.95802e-17
0
-7.21978e-17
-2.06506e-17
0
5.78489e-18
3.00005e-17
0
-2.03384e-16
0
0
2.66305e-16
-4.96792e-16
2.56705e-17
9.86016e-18
-7.99088e-17
8.98162e-18
3.19971e-18
-6.21912e-17
-9.99161e-17
0
7.55179e-17
-1.51372e-17
1.53644e-17
4.02866e-17
-2.35558e-17
-1.08285e-17
1.68864e-16
-1.82241e-17
1.62157e-16
5.53744e-16
-2.99949e-17
-2.31745e-16
0
0
0
1.28091e-16
5.12717e-17
1.84835e-16
-4.46247e-17
-7.4167e-17
-4.40718e-17
-2.40982e-17
1.07429e-17
-2.33955e-17
1.02992e-17
-1.87006e-16
1.83246e-16
-3.38598e-16
-5.47013e-16
5.06285e-16
2.00065e-16
-3.69797e-16
3.1953e-16
-2.7582e-16
7.19428e-17
5.4994e-17
-4.98152e-17
3.22405e-17
-2.9108e-17
8.52781e-17
0
-6.45006e-18
4.75972e-17
-7.07834e-18
-1.21234e-15
5.56406e-16
4.55651e-19
-1.22019e-16
1.57916e-17
1.94294e-16
-3.6894e-16
-1.5174e-16
1.2929e-16
-1.09609e-16
-9.3294e-17
0
-1.06024e-16
-3.15399e-17
-5.63413e-17
-3.35095e-17
2.63696e-18
-2.97841e-17
6.98938e-19
1.98145e-16
-1.76381e-16
3.61801e-19
-1.35277e-16
-3.36769e-16
3.17255e-16
1.36533e-18
1.47871e-16
-1.2588e-16
2.10126e-16
4.97089e-17
4.07695e-17
1.25432e-16
0
1.03978e-16
4.78032e-17
0
1.62189e-17
5.87891e-19
0
1.7111e-16
1.34165e-16
-2.7931e-16
3.26282e-16
-4.89168e-16
3.45555e-16
1.29894e-16
-1.93677e-17
-2.07929e-16
3.79698e-17
-3.77824e-17
-1.14331e-16
4.53173e-17
-2.26849e-17
-4.76621e-17
2.05755e-17
-1.27897e-17
5.05086e-18
-1.84574e-16
6.25505e-16
-4.66131e-16
2.52923e-16
0
0
-6.78345e-17
1.4476e-16
-1.02464e-16
1.92383e-16
0
0
7.69756e-17
-6.71646e-17
-4.74468e-17
1.49792e-17
-1.60268e-17
8.45758e-18
0
1.53194e-17
1.72611e-16
-1.38866e-16
-1.21378e-16
-1.95217e-16
-6.26397e-17
8.76957e-17
0
-9.62119e-17
-7.7902e-17
6.98335e-17
-5.67671e-17
4.58582e-17
0
1.81377e-17
3.53415e-17
0
0
0
-1.46753e-17
2.75209e-16
1.04459e-16
-3.66468e-16
1.00814e-16
8.61985e-17
0
0
9.07548e-17
-4.7329e-17
-6.75441e-17
5.49041e-17
-4.43483e-17
0
-1.17588e-17
9.96162e-18
0
-8.4298e-18
-2.9491e-18
-1.47858e-16
4.33891e-16
-5.2575e-16
-2.0936e-16
1.09929e-16
-8.15903e-17
6.82515e-17
0
-4.61727e-17
3.84369e-17
0
0
1.73792e-17
-1.73992e-17
5.19117e-18
-6.9572e-18
1.19977e-17
1.50035e-18
2.19661e-18
7.61785e-17
-6.85535e-17
3.49843e-16
-2.25691e-16
-9.11432e-17
1.19751e-17
1.40797e-16
5.3139e-17
4.41803e-17
0
2.52981e-17
-2.3406e-17
1.85404e-17
-1.56345e-17
2.00325e-17
-3.44706e-17
-9.34157e-18
8.14425e-18
2.16206e-18
2.03589e-16
-2.06561e-16
0
1.88423e-16
-9.95186e-17
-7.37053e-17
5.05347e-17
-1.62124e-16
0
-2.88616e-18
-2.93493e-17
-2.09774e-17
3.03608e-17
-2.38704e-18
-1.93611e-17
1.42792e-17
0
5.13971e-18
-2.09934e-18
3.48639e-16
-6.14319e-17
2.6039e-16
-2.03904e-16
1.11425e-16
1.15561e-17
-1.27306e-16
-4.30639e-17
7.73782e-17
-3.35951e-18
-4.47091e-17
3.76228e-17
-1.64077e-17
-2.14155e-17
0
0
0
-5.18798e-18
1.92437e-19
-3.0958e-16
3.01344e-16
2.17741e-19
4.57449e-17
3.92193e-17
-9.41419e-17
1.10664e-16
-9.04881e-17
7.68083e-17
-2.52175e-17
4.78939e-17
1.69051e-17
-7.15332e-18
3.60647e-19
-2.54103e-18
-4.46071e-18
0
0
0
0
0
1.47005e-16
-7.21997e-17
-2.22579e-16
0
0
-2.62978e-17
-4.21766e-17
3.51039e-17
0
-2.13204e-17
1.645e-17
-5.44712e-17
6.25303e-17
-2.02639e-17
2.15649e-17
2.35139e-18
0
-5.99794e-17
6.07176e-17
0
-4.85744e-17
4.92555e-17
8.10793e-17
0
2.65489e-17
3.46171e-17
-1.5535e-16
0
-2.38e-17
1.84603e-17
1.31097e-17
-9.69458e-18
1.41481e-17
0
-5.17484e-18
0
-3.08477e-17
-3.06385e-17
1.81416e-18
4.99089e-17
-1.33651e-16
0
-3.41639e-17
0
9.58148e-17
3.84331e-17
0
9.43923e-17
-9.86181e-17
1.00928e-17
-2.14906e-17
6.26759e-18
2.72167e-17
1.02396e-17
-8.1123e-18
0
6.36947e-17
-5.56591e-17
6.90242e-17
8.26031e-17
0
6.94739e-17
-6.55654e-17
-5.14106e-17
7.69366e-17
-1.15459e-16
-5.6044e-17
0
0
1.20854e-17
0
0
3.4305e-18
0
-2.82814e-16
2.17203e-16
0
3.39583e-18
-4.81675e-17
-2.64436e-18
4.26777e-17
3.03631e-17
-3.81678e-17
-9.62881e-17
1.52262e-16
-4.13282e-17
0
-1.95795e-17
0
0
0
-1.32617e-17
1.05967e-17
-8.00734e-17
7.49163e-17
1.99808e-16
-1.95243e-16
5.98839e-17
3.40575e-18
-4.33543e-17
3.72995e-17
6.3279e-17
4.82707e-17
-9.53764e-17
0
4.90493e-17
6.65427e-18
-2.24157e-17
-4.88214e-17
4.02048e-17
-6.45643e-18
1.22404e-17
-2.71215e-16
3.89478e-16
-3.86145e-16
6.78245e-17
5.74803e-17
-5.46606e-17
4.59482e-17
-3.64024e-17
0
-3.08192e-17
4.92225e-17
2.13429e-17
3.43443e-17
4.32726e-17
-6.47373e-17
-1.1505e-18
0
-4.98234e-18
1.6694e-18
-2.93248e-16
-8.71718e-17
-1.52722e-16
8.12731e-17
-1.32521e-16
1.15105e-16
-6.85708e-17
5.79433e-17
-4.0821e-18
-4.06959e-18
-5.18723e-17
3.06861e-17
-1.70299e-17
5.19658e-17
-5.57858e-17
6.86152e-18
5.87797e-18
0
-2.89772e-18
3.17065e-16
-9.40356e-17
0
0
-1.36479e-16
2.65444e-16
-6.20202e-17
-1.18889e-17
9.78096e-17
-2.53411e-18
0
0
-2.24356e-17
0
-4.86805e-17
1.17963e-16
-8.17891e-17
0
1.15624e-18
1.08353e-16
2.02273e-16
0
-8.60874e-17
-7.0141e-17
-6.20047e-17
-6.45391e-17
2.67004e-17
-7.45792e-17
-4.07383e-17
0
0
3.00884e-17
0
0
-6.61055e-17
1.08999e-16
0
0
7.43614e-16
-8.81724e-17
-4.49701e-16
-2.44653e-16
3.31884e-16
1.05689e-16
6.25787e-17
0
-2.2976e-17
2.22115e-17
5.51319e-17
-1.7767e-17
-2.64028e-17
4.09416e-17
-4.35493e-17
-1.33844e-17
0
0
0
5.95494e-17
-4.69653e-16
4.60408e-16
-4.41142e-17
-3.41016e-16
5.33751e-16
-2.67997e-16
0
0
1.42832e-16
-1.17293e-16
0
-3.53948e-17
6.1684e-17
-6.916e-18
1.80043e-17
5.48724e-18
6.02544e-20
1.19478e-18
0
0
0
3.87143e-16
-2.59661e-16
2.72847e-16
-4.25402e-16
1.21157e-16
0
-4.36303e-17
6.97903e-17
-7.13298e-17
-1.39902e-17
-2.26699e-19
-9.59248e-18
-1.40599e-18
-7.64999e-18
-2.14806e-18
-1.17242e-18
4.9851e-16
-8.88869e-16
4.21228e-16
0
1.1336e-16
-1.54463e-16
1.54834e-16
-1.22825e-16
0
-5.98299e-17
8.38807e-17
0
0
-1.62739e-19
0
-9.9419e-18
6.7988e-18
1.24502e-18
1.87077e-18
4.84225e-16
0
-1.92636e-16
2.15161e-16
-1.35081e-16
2.95195e-16
-1.39553e-16
-1.09231e-16
1.10372e-16
-1.12282e-17
0
0
7.20091e-18
-1.21517e-17
-8.52118e-18
1.61536e-17
-3.49711e-18
1.78779e-18
0
2.74908e-16
2.14755e-16
-7.3659e-18
-2.05175e-16
-2.07222e-17
-1.49461e-16
1.61667e-17
1.25633e-16
-6.49586e-18
1.1439e-17
0
0
-7.37686e-18
0
8.68064e-18
-9.28621e-18
0
1.18941e-18
-3.29665e-19
-1.45912e-16
-1.07738e-16
1.00886e-16
-1.15567e-17
-5.18366e-18
1.40074e-17
0
-3.70064e-18
5.54524e-17
-4.66998e-17
0
1.58286e-17
-3.10753e-18
-1.39741e-17
-1.27839e-18
-9.9686e-19
0
-9.29827e-19
0
5.95814e-17
-1.13304e-16
-1.49578e-18
4.86991e-17
4.45872e-17
-4.42953e-17
-3.14159e-17
3.55616e-17
-1.22142e-17
9.55515e-18
-9.29195e-18
9.57853e-18
0
2.44897e-20
-9.42118e-19
3.38652e-18
-1.15904e-20
0
0
5.95835e-17
-5.93602e-17
-4.84439e-17
4.29154e-17
7.87647e-17
-7.92297e-17
-1.57085e-17
1.57458e-17
-1.23175e-17
1.24468e-17
-9.29228e-18
1.75365e-17
-4.91843e-18
-3.54228e-18
-1.08729e-18
3.60504e-19
8.60022e-19
2.27425e-19
-1.70559e-19
0
-1.41359e-17
8.43785e-17
-9.1463e-17
7.86214e-17
-6.96945e-17
0
5.55161e-17
-4.96604e-17
0
1.84961e-17
-2.34184e-17
-1.33348e-17
1.39758e-17
2.57083e-18
0
0
-9.29975e-19
3.37928e-19
2.37122e-16
-4.36696e-16
4.45601e-16
-3.91315e-16
1.53872e-16
-1.30866e-16
1.24183e-16
1.47705e-17
-5.50203e-17
4.91601e-17
0
-3.56916e-17
3.25054e-17
-6.17709e-18
-2.51813e-18
3.96012e-18
2.91132e-18
9.02828e-19
-3.26515e-19
5.45981e-16
0
-2.17921e-16
1.69364e-16
2.04839e-17
-1.57565e-16
2.79538e-16
-2.48219e-16
9.74634e-17
-4.17104e-17
4.26943e-17
8.45949e-18
1.45346e-17
6.01655e-18
-4.98974e-18
-6.56168e-19
-6.30608e-18
0
6.44676e-19
4.37578e-16
-4.92554e-16
0
4.52047e-17
1.95185e-16
-1.91169e-16
3.26448e-17
2.89466e-17
1.26479e-17
2.23015e-17
0
0
-2.52813e-17
4.7367e-17
-1.73109e-17
-6.21154e-18
6.8006e-18
5.44946e-19
-1.22593e-18
4.004e-17
4.32685e-16
-5.00262e-17
-3.42069e-16
3.00311e-16
3.59544e-17
-3.19488e-17
-2.82722e-17
9.32372e-17
-1.15661e-16
6.98118e-17
-7.13509e-17
1.11668e-17
-1.41899e-17
2.59041e-17
-1.72685e-17
0
0
1.24513e-18
0
1.08463e-16
-3.26061e-16
3.72601e-16
-3.0163e-16
3.00912e-16
0
1.04564e-16
-1.05043e-16
-7.91563e-17
1.17381e-16
0
4.88424e-17
-6.17293e-17
-9.13947e-18
0
-1.02946e-18
-2.05461e-18
-3.50363e-20
-1.03031e-15
4.91538e-16
0
-3.31825e-16
3.31792e-16
2.03805e-16
-1.3396e-16
5.52846e-17
0
-2.49224e-18
1.85872e-17
-1.77429e-17
-2.63685e-17
4.08825e-17
-4.34716e-17
0
9.45878e-18
-2.08663e-18
-1.27258e-18
6.34103e-16
-6.23911e-16
0
8.59552e-17
7.82409e-17
-7.15571e-17
0
-5.79387e-17
-4.99706e-17
0
-2.23724e-18
0
3.01022e-17
0
0
1.35537e-17
5.09878e-17
-6.59611e-17
0
8.35804e-20
9.40812e-17
-8.68898e-17
7.11037e-17
-3.61333e-16
1.38386e-16
0
1.18975e-17
3.37281e-17
0
-3.47063e-17
1.0116e-16
-1.06274e-16
1.7922e-17
0
-2.0218e-18
0
0
0
8.25365e-20
0
8.03079e-17
0
-1.24653e-16
1.26634e-16
0
4.5533e-17
-3.65916e-17
1.32937e-16
-6.41731e-17
2.32433e-17
-3.7498e-17
3.57822e-17
-5.58554e-17
-8.92604e-18
0
-5.93447e-18
0
2.46647e-16
-4.17075e-16
0
-6.78117e-17
6.09343e-17
0
0
-8.32088e-17
0
-3.08422e-17
-4.92616e-17
-2.13627e-17
3.43797e-17
0
1.85186e-17
0
0
1.29824e-17
-1.43659e-17
0
3.61154e-16
-2.8915e-16
6.27781e-17
-5.64255e-17
-2.32247e-17
6.69749e-17
7.54235e-17
-9.24609e-17
2.98396e-17
2.09055e-18
-2.80338e-17
1.14867e-16
-3.57386e-17
-8.34046e-17
2.88347e-17
-7.49974e-18
4.48884e-18
-1.37516e-18
-5.85963e-16
2.17196e-16
0
0
2.41212e-17
-2.45285e-17
1.76828e-17
1.17343e-17
8.3522e-17
4.28998e-17
-4.25532e-17
-1.65968e-18
-2.41119e-17
1.95976e-17
0
9.76795e-18
6.87406e-18
3.71748e-18
1.24295e-18
0
1.88326e-16
-1.75983e-16
5.64978e-17
5.86264e-17
-1.13252e-17
-3.67318e-17
-3.14604e-17
-1.04512e-16
4.22923e-17
-2.60998e-17
3.55337e-17
2.25476e-17
-2.83128e-17
3.00523e-17
1.92143e-17
-2.49388e-17
-3.43365e-18
0
-3.32302e-17
-1.4953e-16
5.35728e-17
4.99221e-17
-1.72478e-16
1.23623e-16
6.18919e-17
-6.3263e-17
4.87913e-17
-4.01375e-17
0
0
-3.37934e-17
6.07206e-17
-2.68284e-17
2.52352e-17
-2.75798e-17
4.57145e-18
-8.11998e-18
6.24192e-17
5.84012e-17
-5.3266e-17
4.19517e-17
-4.87745e-17
-7.4799e-17
0
0
0
0
0
0
1.73427e-17
-4.59221e-17
4.85677e-17
-1.58477e-17
1.95317e-17
9.20529e-18
-7.80529e-18
1.29225e-16
-2.211e-16
2.76638e-16
-1.30386e-16
1.80223e-16
-1.32588e-16
2.47736e-16
-1.40092e-16
-7.57735e-17
7.75128e-17
0
2.13075e-17
-1.69429e-17
4.16786e-17
-1.39041e-17
-1.79783e-17
-3.80324e-17
2.85611e-18
6.64055e-18
2.01059e-16
5.81123e-17
0
-9.11919e-17
-7.24673e-17
1.66277e-16
1.72073e-17
-6.77225e-17
4.03872e-17
-2.88346e-17
0
-1.68673e-17
0
-1.38181e-17
1.12346e-17
-1.01396e-17
-3.357e-18
2.37757e-18
0
2.80897e-16
-6.1431e-17
2.60283e-16
-2.03852e-16
-4.11936e-17
1.63247e-16
-9.79031e-17
4.86949e-18
4.03581e-18
-2.81657e-17
2.72219e-17
0
0
1.67825e-17
-6.1428e-18
4.0135e-18
1.21482e-17
-4.2278e-18
0
5.77036e-20
0
-5.75983e-17
3.39537e-16
-2.29663e-16
-2.45838e-16
1.34672e-16
-1.41738e-16
1.31575e-16
6.55471e-17
-4.97725e-17
2.02945e-17
-1.81208e-17
3.13484e-18
3.00764e-17
1.13847e-18
-1.15085e-17
1.13903e-17
-2.3368e-18
6.83972e-16
-2.18263e-16
1.07518e-16
-3.3175e-16
9.11427e-17
-1.4338e-16
7.687e-17
0
0
-2.95627e-18
-3.99813e-18
-1.17932e-18
0
-2.6275e-17
-2.00329e-17
1.47549e-17
-1.08559e-18
1.93995e-18
4.61957e-18
0
-2.17211e-16
3.69331e-16
8.33492e-17
-3.0229e-16
8.159e-17
-1.26016e-16
2.0691e-17
1.02953e-16
0
0
1.91467e-18
2.19641e-17
0
-1.96917e-17
-9.00029e-18
1.32236e-18
-4.71819e-18
-5.3865e-18
0
-1.37105e-16
2.99129e-17
2.49207e-16
1.87854e-16
-3.44821e-16
1.57007e-16
-1.10431e-16
5.9003e-17
-8.24545e-17
0
0
0
-3.54663e-17
9.56247e-18
-1.18165e-17
0
-7.38452e-19
3.7005e-18
-5.14528e-16
4.88061e-16
5.24727e-16
-6.37185e-16
2.99723e-16
-2.82179e-16
0
1.16234e-16
-1.5923e-16
9.25842e-17
-7.25737e-17
5.95857e-17
4.8641e-17
3.668e-17
2.898e-17
0
0
0
0
5.6866e-16
-3.28977e-16
0
0
-1.09188e-16
2.67172e-16
-1.71199e-16
-1.22949e-16
1.21563e-16
9.11286e-17
1.53572e-16
-6.18259e-17
2.65147e-17
2.01615e-17
1.49022e-17
1.22415e-17
1.9802e-17
-9.74289e-19
9.92401e-19
-5.76474e-16
5.30432e-16
2.84549e-16
-1.4786e-16
3.262e-16
-2.09511e-16
-1.66589e-16
-1.41323e-16
0
-1.9112e-16
9.24132e-18
7.06218e-17
-5.55061e-17
-4.53174e-17
-1.6776e-17
-1.77093e-17
-1.41628e-17
0
0
-1.98315e-16
0
1.5464e-16
-2.32217e-19
0
0
1.71842e-16
1.45825e-16
0
1.03497e-16
0
-1.07343e-16
-3.02929e-17
5.38203e-17
0
3.48327e-17
-4.92497e-18
5.02413e-18
0
4.21766e-16
0
2.98084e-16
-5.54016e-16
4.95534e-16
4.02283e-16
-1.22328e-17
0
1.07344e-17
1.20229e-16
0
-1.20593e-16
1.35429e-16
-1.2075e-16
-2.63773e-17
-2.7974e-17
-8.26563e-18
-1.48046e-18
-5.27787e-18
-3.92979e-16
5.66298e-16
-1.60876e-16
-4.22419e-16
-2.45254e-16
-2.12848e-16
-3.6876e-16
-1.48883e-16
1.17274e-17
5.50974e-17
-5.49939e-17
1.76273e-16
-7.80452e-17
1.57251e-16
-2.94692e-17
0
3.36929e-17
-1.98633e-17
5.32657e-18
8.67382e-16
-1.85281e-17
-6.6492e-16
5.53748e-16
-4.98799e-16
4.36534e-16
-1.36373e-17
-1.67193e-16
1.46502e-16
5.87044e-17
-7.41757e-18
-1.44098e-16
4.17984e-17
4.43197e-17
-1.34592e-17
1.36128e-17
-3.48976e-17
-3.59856e-18
-8.26549e-18
4.25807e-16
1.80864e-16
3.19195e-16
-2.81792e-16
-2.34048e-16
1.19636e-17
-1.81371e-16
4.39621e-16
1.46475e-17
2.05364e-16
1.20636e-16
-1.07098e-16
0
-7.55178e-17
0
0
4.87893e-17
2.14824e-17
9.6439e-18
3.99995e-16
0
3.15464e-16
2.79974e-16
-2.49884e-16
2.19555e-16
0
-1.72472e-16
-2.39833e-16
-2.10093e-16
-1.21703e-16
1.08309e-16
0
0
0
0
-4.57432e-17
-3.40335e-17
0
-7.83757e-16
0
-1.51851e-17
-1.34087e-17
3.80336e-16
-2.15889e-16
-9.9454e-17
-9.98806e-17
2.43707e-16
0
6.42707e-17
-6.79825e-18
5.7854e-17
0
0
7.63977e-17
-5.69e-18
4.08677e-17
-1.55697e-17
5.51576e-16
1.59821e-16
-1.58172e-16
-1.40374e-16
-4.90089e-16
3.37961e-16
4.09697e-16
-1.09799e-17
-1.66289e-16
1.64468e-16
3.46147e-17
-1.75732e-16
-1.44111e-16
-8.75115e-17
-9.26717e-17
-8.80821e-17
7.32815e-17
-3.45915e-18
1.59466e-17
-1.69675e-16
7.7379e-17
-3.73241e-16
6.4302e-17
-6.4068e-17
0
-2.03604e-16
-1.40533e-17
-1.89002e-16
1.58993e-17
1.84748e-16
1.36607e-16
-3.35716e-17
1.41317e-17
8.81192e-17
0
-1.5255e-16
-5.60537e-17
-1.16476e-18
3.44868e-16
-9.43124e-18
5.86946e-16
-2.80335e-16
5.49439e-19
7.48107e-18
2.25167e-16
-1.7389e-17
1.83301e-16
-1.71671e-16
-1.61492e-16
0
1.61399e-16
1.29067e-16
1.79607e-18
-2.61109e-18
8.25213e-17
5.69757e-17
0
-2.45208e-16
0
-5.95785e-17
2.67087e-16
3.70908e-18
6.14901e-17
-2.17733e-16
2.05997e-16
2.17586e-16
2.08487e-16
2.00445e-16
0
-1.56796e-16
0
8.32928e-18
-8.6507e-18
0
-8.27206e-19
4.07003e-17
1.69584e-16
8.6549e-18
-1.35276e-16
4.1694e-16
-1.33997e-16
0
0
-2.43946e-16
-2.10819e-16
-2.01978e-16
-3.66563e-16
-5.12409e-17
0
0
0
-1.70434e-17
1.80362e-17
1.1542e-16
-4.13211e-17
8.96785e-18
0
-2.90559e-16
-2.66465e-16
2.788e-16
-2.76745e-16
-3.96693e-16
4.87245e-16
1.35296e-16
0
2.15966e-16
2.44728e-16
-5.28434e-17
2.8704e-16
-4.70141e-17
4.89302e-17
1.90191e-16
-1.0968e-16
0
-3.2405e-16
0
-3.10527e-16
3.0441e-16
0
5.5053e-16
2.58789e-16
-5.43079e-16
4.33772e-16
-2.8354e-18
-1.31298e-16
-2.36947e-16
0
3.26803e-16
-5.4786e-16
5.87947e-16
-7.49262e-16
0
0
3.22636e-16
-2.07086e-18
-5.0996e-18
-6.13248e-16
6.18737e-16
-2.99237e-16
2.98017e-16
2.9371e-16
-2.59973e-16
0
0
4.89454e-16
-4.97886e-16
-5.32157e-16
5.27577e-16
-5.13985e-16
5.55942e-16
-8.7087e-16
0
)
;

boundaryField
{
    up
    {
        type            calculated;
        value           nonuniform List<scalar> 
84
(
0
0
0
0
-2.96349e-17
5.3402e-17
-2.227e-17
1.59466e-17
-1.39341e-17
0
-1.08285e-17
1.02992e-17
-7.07834e-18
6.98938e-19
5.87891e-19
5.05086e-18
0
0
-2.9491e-18
2.19661e-18
2.16206e-18
-2.09934e-18
1.92437e-19
0
8.55485e-19
4.01873e-19
-7.71752e-18
0
1.05967e-17
1.28082e-17
1.6694e-18
-2.89772e-18
1.15624e-18
0
-5.6886e-19
1.23584e-18
-1.1703e-18
1.86755e-18
0
-3.29057e-19
0
0
-1.70645e-19
3.37928e-19
-3.26515e-19
6.44676e-19
-1.22593e-18
1.24513e-18
-3.50363e-20
-1.27258e-18
0
0
0
-1.43659e-17
-1.94337e-18
1.24295e-18
0
-8.11998e-18
-7.80529e-18
5.78795e-18
0
0
-2.3368e-18
4.61957e-18
-5.3865e-18
3.7005e-18
0
9.92401e-19
0
0
-5.27787e-18
5.32657e-18
-8.26549e-18
9.6439e-18
0
-1.55697e-17
1.59466e-17
-1.16476e-18
0
4.07003e-17
-4.13211e-17
0
0
0
)
;
    }
    low
    {
        type            calculated;
        value           nonuniform List<scalar> 
84
(
-6.45915e-16
6.44954e-16
-3.1541e-16
4.97478e-16
8.7251e-17
-2.26739e-17
1.89496e-16
1.97172e-17
0
8.02519e-16
-2.03384e-16
1.68187e-16
-1.87006e-16
-1.21234e-15
1.98145e-16
0
-1.84574e-16
1.53194e-17
-1.46753e-17
-1.47858e-16
7.61785e-17
2.03589e-16
3.47368e-16
-3.0958e-16
0
-5.99794e-17
-3.08477e-17
0
-2.82814e-16
-8.00734e-17
-2.70389e-16
-2.9259e-16
3.16617e-16
1.08353e-16
7.43638e-16
5.95494e-17
0
4.9851e-16
4.8524e-16
2.75466e-16
-1.46212e-16
5.95814e-17
5.95835e-17
0
2.37122e-16
5.46995e-16
4.37578e-16
4.07148e-17
0
-1.03033e-15
6.34103e-16
8.35804e-20
8.25365e-20
2.46647e-16
0
-5.84655e-16
0
-3.32302e-17
6.24192e-17
1.28449e-16
1.99697e-16
2.79626e-16
5.77036e-20
6.82915e-16
0
0
-5.14528e-16
5.68128e-16
-5.76117e-16
-1.98315e-16
4.21761e-16
-3.92979e-16
8.68735e-16
4.26771e-16
3.99995e-16
-7.83757e-16
5.50503e-16
-1.68554e-16
3.44868e-16
-2.44757e-16
1.69584e-16
9.78873e-18
-3.2405e-16
3.22861e-16
)
;
    }
    left
    {
        type            calculated;
        value           nonuniform List<scalar> 
19
(
-6.45466e-16
-3.14098e-16
3.18844e-16
6.86844e-18
-6.07708e-16
0
-2.8377e-16
-2.79815e-16
-1.94149e-17
-1.47374e-16
-1.35113e-18
-1.46618e-16
6.51791e-16
-1.45016e-16
6.77627e-16
5.84736e-16
3.47804e-16
5.10137e-16
0
)
;
    }
    right
    {
        type            calculated;
        value           nonuniform List<scalar> 
19
(
3.22636e-16
-1.82896e-18
-5.0996e-18
-6.13247e-16
6.18902e-16
-2.99237e-16
2.98017e-16
2.9371e-16
-2.59052e-16
0
0
4.94088e-16
-5.04405e-16
-5.32157e-16
5.27577e-16
-5.13985e-16
5.55942e-16
-9.41771e-16
0
)
;
    }
    frontAndBackPlanes
    {
        type            empty;
    }
}


// ************************************************************************* //
