/*--------------------------------*- C++ -*----------------------------------*\
  =========                 |
  \\      /  F ield         | OpenFOAM: The Open Source CFD Toolbox
   \\    /   O peration     | Website:  https://openfoam.org
    \\  /    A nd           | Version:  7
     \\/     M anipulation  |
\*---------------------------------------------------------------------------*/
FoamFile
{
    version     2.0;
    format      ascii;
    class       volScalarField;
    location    "0.25";
    object      gradTx;
}
// * * * * * * * * * * * * * * * * * * * * * * * * * * * * * * * * * * * * * //

dimensions      [0 -1 0 1 0 0 0];

internalField   nonuniform List<scalar> 
1596
(
-0.169271
-0.84982
-1.52357
-2.13425
-2.67898
-3.15702
-3.5904
-3.99326
-4.38467
-4.80141
-5.25352
-5.78522
-6.44898
-7.3218
-8.4952
-10.2012
-12.7993
-17.0664
-24.6089
0.0370867
-0.707767
-1.37081
-1.94619
-2.44826
-2.88048
-3.26268
-3.6019
-3.91238
-4.21316
-4.50607
-4.81478
-5.14755
-5.51683
-5.91258
-6.31665
-6.62748
-6.63871
-5.91305
0.206187
-0.579312
-1.22119
-1.75554
-2.20996
-2.59342
-2.92302
-3.20334
-3.44389
-3.65483
-3.83447
-3.99517
-4.13337
-4.24628
-4.31604
-4.31188
-4.15236
-3.6954
-2.66299
0.23307
-0.511895
-1.09945
-1.57866
-1.97922
-2.31242
-2.59166
-2.82057
-3.00515
-3.15057
-3.25478
-3.32368
-3.35182
-3.33329
-3.25386
-3.08889
-2.78598
-2.25971
-1.34426
0.0685676
-0.536172
-1.0275
-1.4335
-1.77302
-2.05465
-2.28663
-2.4716
-2.61284
-2.71226
-2.76871
-2.78418
-2.75419
-2.67325
-2.53218
-2.31376
-1.98719
-1.50355
-0.767389
-0.273751
-0.66357
-1.02163
-1.3364
-1.60712
-1.83499
-2.02178
-2.16829
-2.2753
-2.34231
-2.36907
-2.35495
-2.29681
-2.19012
-2.02959
-1.80338
-1.49431
-1.07478
-0.490649
-0.729629
-0.883801
-1.08826
-1.29822
-1.49296
-1.66388
-1.80578
-1.9166
-1.9946
-2.03727
-2.04465
-2.01434
-1.94407
-1.83006
-1.6694
-1.45372
-1.17381
-0.814091
-0.343985
-1.20782
-1.15589
-1.21034
-1.31236
-1.42813
-1.54028
-1.6373
-1.71376
-1.76547
-1.78812
-1.78147
-1.74183
-1.66731
-1.55456
-1.40194
-1.20323
-0.953659
-0.644403
-0.258235
-1.70322
-1.50444
-1.42499
-1.41809
-1.44882
-1.49516
-1.54141
-1.57891
-1.60119
-1.6023
-1.5811
-1.53297
-1.45584
-1.34638
-1.20337
-1.02179
-0.79909
-0.530056
-0.204734
-2.00093
-1.7474
-1.5884
-1.50313
-1.4664
-1.45764
-1.46031
-1.46396
-1.46066
-1.44342
-1.41017
-1.35577
-1.27791
-1.1733
-1.04083
-0.876327
-0.678428
-0.444033
-0.16733
-2.24333
-1.96614
-1.75901
-1.61557
-1.52191
-1.46249
-1.42276
-1.39212
-1.3621
-1.32522
-1.27855
-1.21668
-1.13692
-1.03591
-0.912343
-0.762518
-0.585503
-0.379302
-0.140451
-2.48985
-2.20987
-1.97258
-1.78339
-1.63858
-1.52917
-1.44459
-1.37565
-1.3144
-1.25339
-1.18911
-1.11602
-1.03098
-0.930395
-0.812604
-0.674012
-0.513647
-0.329923
-0.12051
-2.55598
-2.31321
-2.08124
-1.87742
-1.70691
-1.5672
-1.45228
-1.35547
-1.27028
-1.19005
-1.11133
-1.02882
-0.939277
-0.839113
-0.726447
-0.597859
-0.452273
-0.288307
-0.104207
-2.57074
-2.36881
-2.15614
-1.9527
-1.76939
-1.60938
-1.47114
-1.35102
-1.24456
-1.14641
-1.05357
-0.961281
-0.866356
-0.765298
-0.656061
-0.535332
-0.401854
-0.254265
-0.0910755
-2.5639
-2.39909
-2.21039
-2.01587
-1.82865
-1.65588
-1.49992
-1.3603
-1.23485
-1.11987
-1.01318
-0.910729
-0.809571
-0.706369
-0.59897
-0.484134
-0.360388
-0.226277
-0.0803557
-2.49864
-2.37372
-2.21423
-2.03734
-1.8565
-1.68107
-1.51627
-1.36435
-1.22545
-1.09764
-0.979855
-0.86894
-0.762367
-0.6571
-0.551009
-0.440978
-0.325385
-0.202683
-0.0713757
-2.37291
-2.28586
-2.15842
-2.00559
-1.83993
-1.67157
-1.50733
-1.35152
-1.20622
-1.07121
-0.946621
-0.830321
-0.720354
-0.614111
-0.509606
-0.403932
-0.295433
-0.182554
-0.0637684
-2.22568
-2.16277
-2.06348
-1.93573
-1.78933
-1.63379
-1.47654
-1.32313
-1.17713
-1.03978
-0.912326
-0.793648
-0.682417
-0.576489
-0.474074
-0.372493
-0.270146
-0.165581
-0.0573643
-2.1021
-2.05871
-1.98103
-1.87364
-1.74367
-1.5996
-1.44903
-1.29838
-1.1524
-1.01358
-0.884135
-0.76384
-0.651904
-0.54655
-0.446076
-0.347886
-0.250362
-0.152201
-0.0522268
-1.88851
-1.87075
-1.81804
-1.73575
-1.62933
-1.50567
-1.3717
-1.23386
-1.09745
-0.965721
-0.841645
-0.725796
-0.617947
-0.516755
-0.420664
-0.327135
-0.234478
-0.14161
-0.0480457
-1.65274
-1.6552
-1.62501
-1.5665
-1.48386
-1.38258
-1.2686
-1.14791
-1.02586
-0.906103
-0.791988
-0.68467
-0.584375
-0.49016
-0.400588
-0.313007
-0.22526
-0.135996
-0.045562
-1.40735
-1.42291
-1.41141
-1.37457
-1.31501
-1.23679
-1.14479
-1.04431
-0.940407
-0.836752
-0.736734
-0.64181
-0.552481
-0.468183
-0.387671
-0.308156
-0.226514
-0.139716
-0.0470497
-1.13579
-1.15789
-1.16158
-1.14535
-1.10971
-1.05698
-0.990754
-0.915277
-0.835007
-0.753241
-0.672964
-0.595632
-0.521766
-0.451188
-0.383135
-0.315183
-0.243428
-0.161888
-0.0628572
-0.829775
-0.817908
-0.791972
-0.752428
-0.702177
-0.645177
-0.585991
-0.528528
-0.47595
-0.429736
-0.389821
-0.35494
-0.323051
-0.292206
-0.260763
-0.226796
-0.18721
-0.135741
-0.0608137
-0.554793
-0.61754
-0.687104
-0.752646
-0.806499
-0.843505
-0.861888
-0.862012
-0.846384
-0.818107
-0.779732
-0.733876
-0.682037
-0.62656
-0.569816
-0.513838
-0.458103
-0.39873
-0.324873
-0.187952
-0.217983
-0.257588
-0.300503
-0.342101
-0.379076
-0.410215
-0.435197
-0.45498
-0.470465
-0.481
-0.486099
-0.483445
-0.472258
-0.453126
-0.429457
-0.403928
-0.379733
-0.357345
0.179591
0.141654
0.0880271
0.024676
-0.0428675
-0.110161
-0.174573
-0.23475
-0.290716
-0.342781
-0.389713
-0.42991
-0.459522
-0.475729
-0.477537
-0.46838
-0.452344
-0.434655
-0.417482
0.546773
0.495001
0.422433
0.335922
0.24179
0.145299
0.049992
-0.04226
-0.131093
-0.216771
-0.298198
-0.37323
-0.436768
-0.483457
-0.509429
-0.51661
-0.509808
-0.496493
-0.48093
0.879404
0.806343
0.710464
0.599948
0.48146
0.360491
0.240683
0.123724
0.00966143
-0.102387
-0.212203
-0.318096
-0.414543
-0.493793
-0.547857
-0.574953
-0.578733
-0.568861
-0.552903
1.22544
1.12656
1.0047
0.868489
0.724887
0.579617
0.4363
0.296338
0.159342
0.0236011
-0.111957
-0.247137
-0.37744
-0.494004
-0.584406
-0.64069
-0.6616
-0.657155
-0.639526
1.48841
1.35974
1.21189
1.05341
0.891205
0.730447
0.573901
0.422027
0.273582
0.125769
-0.0240247
-0.17794
-0.334268
-0.485738
-0.617404
-0.714091
-0.764092
-0.77151
-0.75081
1.73665
1.58227
1.40918
1.22921
1.04971
0.87521
0.707623
0.546588
0.390267
0.235159
0.0775369
-0.0871252
-0.261172
-0.442399
-0.618392
-0.770695
-0.874038
-0.91596
-0.903401
1.96892
1.78116
1.58101
1.38056
1.18628
1.00138
0.826617
0.660785
0.50169
0.345621
0.188617
0.0249143
-0.151332
-0.34487
-0.552005
-0.761966
-0.944053
-1.06413
-1.08792
2.12351
1.88516
1.64385
1.4102
1.18875
0.980985
0.786352
0.602969
0.428441
0.259286
0.0918553
-0.0793539
-0.261335
-0.463662
-0.693609
-0.958213
-1.24569
-1.52971
-1.75984
2.22406
1.96287
1.71743
1.49432
1.29359
1.1133
0.950402
0.801799
0.664631
0.536155
0.414327
0.296677
0.180399
0.0609422
-0.0684725
-0.221683
-0.413089
-0.659466
-0.96864
2.30246
2.03173
1.79388
1.58613
1.40337
1.24115
1.09513
0.961979
0.839066
0.724185
0.616209
0.51433
0.418134
0.327776
0.244058
0.166621
0.0942627
0.0216049
-0.0618886
2.18968
1.8803
1.61959
1.39715
1.20475
1.03641
0.887064
0.752941
0.631168
0.519292
0.416015
0.320399
0.231866
0.150529
0.0774468
0.0137904
-0.0383955
-0.0768812
-0.100599
1.93075
1.64722
1.41249
1.2151
1.04653
0.900633
0.772447
0.658297
0.555505
0.461878
0.37623
0.297732
0.22576
0.160113
0.101029
0.0484975
0.00265299
-0.0363411
-0.0688165
1.61056
1.37108
1.17279
1.00678
0.865928
0.744793
0.639054
0.545457
0.461669
0.385784
0.316702
0.253624
0.195831
0.142912
0.0947704
0.0511335
0.0119069
-0.0227875
-0.0531566
1.21663
1.03117
0.879313
0.75347
0.647623
0.55723
0.47879
0.409686
0.348072
0.292445
0.241905
0.195786
0.15346
0.114536
0.0788814
0.046272
0.0166619
-0.00976554
-0.0330798
0.768015
0.644223
0.54594
0.466056
0.399687
0.343453
0.29492
0.252322
0.214443
0.180298
0.149288
0.120966
0.0948997
0.0708113
0.0485926
0.0280945
0.00929559
-0.00764325
-0.0227067
0.295381
0.245683
0.207594
0.177042
0.151738
0.130275
0.111712
0.0953899
0.0808591
0.0677568
0.0558509
0.0449638
0.0349197
0.025595
0.0169231
0.00882457
0.00126511
-0.00571449
-0.0121105
-0.295239
-0.245371
-0.20717
-0.176547
-0.151202
-0.129719
-0.111154
-0.0948445
-0.0803377
-0.0672696
-0.0554063
-0.0445689
-0.0345809
-0.0253176
-0.0167113
-0.00868173
-0.00119332
0.00571504
0.012041
-0.767883
-0.64395
-0.545572
-0.465628
-0.399226
-0.342979
-0.29445
-0.25187
-0.214018
-0.179912
-0.148947
-0.120677
-0.0946684
-0.0706426
-0.0484901
-0.0280608
-0.00933191
0.00753775
0.0225346
-1.2165
-1.03091
-0.878956
-0.753047
-0.647159
-0.556743
-0.478298
-0.409201
-0.347607
-0.292008
-0.241504
-0.195427
-0.153148
-0.114275
-0.0786709
-0.046112
-0.0165503
0.00983264
0.0331071
-1.61047
-1.3709
-1.17255
-1.0065
-0.865621
-0.744475
-0.638739
-0.545155
-0.461391
-0.385538
-0.316497
-0.253463
-0.195718
-0.142849
-0.0947568
-0.0511668
-0.0119829
0.0226738
0.053011
-1.93069
-1.64711
-1.41234
-1.21491
-1.04632
-0.900407
-0.77222
-0.65808
-0.555308
-0.46171
-0.376099
-0.297643
-0.225717
-0.160119
-0.10108
-0.0485879
-0.00277273
0.0362056
0.0686819
-2.18969
-1.88028
-1.61954
-1.39707
-1.20465
-1.0363
-0.886956
-0.752848
-0.631101
-0.519264
-0.416035
-0.320477
-0.232011
-0.150747
-0.0777376
-0.0141422
0.0380149
0.0765257
0.100331
-2.30246
-2.03155
-1.79346
-1.58543
-1.4024
-1.23991
-1.09365
-0.960282
-0.837178
-0.72213
-0.614008
-0.512
-0.415686
-0.325217
-0.24141
-0.163953
-0.0917426
-0.0195906
0.0628075
-2.22448
-1.96396
-1.71923
-1.49682
-1.29675
-1.11709
-0.954771
-0.806705
-0.670037
-0.542038
-0.420684
-0.303537
-0.18784
-0.0691188
0.0593183
0.2112
0.400934
0.64549
0.953181
-2.12335
-1.88472
-1.64308
-1.40908
-1.1873
-0.979226
-0.784316
-0.600694
-0.425969
-0.256661
-0.0891221
0.0821456
0.264132
0.466419
0.696341
0.96107
1.24908
1.53434
1.76666
-1.96906
-1.7815
-1.58151
-1.38119
-1.18702
-1.0022
-0.827493
-0.661707
-0.502651
-0.346622
-0.189665
-0.0260216
0.150167
0.343688
0.550924
0.761213
0.943897
1.06473
1.08907
-1.73674
-1.58249
-1.4095
-1.22961
-1.05017
-0.875718
-0.708166
-0.54716
-0.390865
-0.235783
-0.0781878
0.0864572
0.260521
0.441847
0.618068
0.770746
0.874539
0.916837
0.904473
-1.48851
-1.35995
-1.21221
-1.05381
-0.891678
-0.730968
-0.574454
-0.422601
-0.274168
-0.126358
0.0234451
0.177397
0.333812
0.485449
0.617368
0.71436
0.764639
0.772229
0.751578
-1.22553
-1.12677
-1.00502
-0.868903
-0.725373
-0.580153
-0.436866
-0.296916
-0.159918
-0.0241564
0.111443
0.2467
0.377128
0.493875
0.584499
0.641002
0.662078
0.657722
0.640128
-0.87948
-0.806536
-0.710765
-0.600341
-0.481923
-0.361
-0.241216
-0.124258
-0.0101783
0.101909
0.211788
0.317778
0.41436
0.493777
0.548017
0.575264
0.579148
0.569333
0.553408
-0.546854
-0.495201
-0.422745
-0.336329
-0.242268
-0.145821
-0.0505301
0.0417311
0.130597
0.216333
0.297842
0.372984
0.436657
0.483493
0.509605
0.516899
0.510174
0.496908
0.481383
-0.17966
-0.141842
-0.0883272
-0.0250702
0.0424054
0.109661
0.174065
0.234263
0.290275
0.34241
0.389435
0.429744
0.45948
0.475812
0.477731
0.468662
0.452689
0.43505
0.417926
0.187792
0.217499
0.256764
0.299356
0.340682
0.377457
0.408481
0.433434
0.453267
0.468871
0.479577
0.484885
0.482455
0.471488
0.452554
0.429063
0.403701
0.379704
0.357614
0.554906
0.617969
0.687932
0.753906
0.808182
0.84556
0.864236
0.864558
0.84903
0.820765
0.782327
0.736355
0.684362
0.628719
0.571811
0.515688
0.459828
0.400346
0.326375
0.829657
0.817483
0.791228
0.751393
0.700907
0.643745
0.584476
0.527006
0.474485
0.428378
0.388602
0.353878
0.322149
0.29146
0.26016
0.226323
0.186856
0.135503
0.0607106
1.13586
1.15803
1.1618
1.14562
1.11002
1.05731
0.991085
0.915585
0.835276
0.753465
0.673139
0.595761
0.521855
0.451244
0.383165
0.315193
0.243424
0.161877
0.0628502
1.40737
1.42293
1.41144
1.3746
1.31504
1.23682
1.14482
1.04433
0.940423
0.83676
0.736734
0.641802
0.552468
0.468168
0.387654
0.308138
0.226498
0.139705
0.047047
1.65276
1.65522
1.62503
1.56652
1.48389
1.3826
1.26862
1.14792
1.02587
0.906104
0.791982
0.684661
0.584362
0.490146
0.400573
0.312993
0.22525
0.13599
0.0455605
1.88852
1.87076
1.81806
1.73577
1.62935
1.50568
1.37172
1.23387
1.09745
0.965718
0.841637
0.725785
0.617934
0.516742
0.420652
0.327125
0.23447
0.141606
0.0480445
2.10211
2.05872
1.98105
1.87365
1.74369
1.59961
1.44904
1.29838
1.1524
1.01358
0.884127
0.763829
0.651893
0.546539
0.446066
0.347878
0.250356
0.152198
0.0522258
2.22569
2.16279
2.06349
1.93574
1.78935
1.6338
1.47654
1.32313
1.17712
1.03977
0.912317
0.793638
0.682407
0.576479
0.474066
0.372486
0.270141
0.165579
0.0573635
2.37292
2.28587
2.15843
2.0056
1.83994
1.67157
1.50733
1.35151
1.20621
1.0712
0.946611
0.830311
0.720344
0.614101
0.509598
0.403925
0.295428
0.182551
0.0637677
2.49864
2.37373
2.21424
2.03735
1.8565
1.68108
1.51627
1.36435
1.22544
1.09763
0.979846
0.868931
0.762357
0.657092
0.551001
0.440972
0.325381
0.202681
0.0713752
2.5639
2.3991
2.2104
2.01588
1.82865
1.65588
1.49992
1.36029
1.23484
1.11986
1.01317
0.910719
0.809562
0.706361
0.598963
0.484129
0.360383
0.226274
0.0803554
2.57075
2.36882
2.15615
1.9527
1.7694
1.60938
1.47113
1.35102
1.24455
1.1464
1.05356
0.961272
0.866348
0.765291
0.656054
0.535327
0.40185
0.254263
0.0910756
2.55599
2.31322
2.08125
1.87743
1.70691
1.5672
1.45228
1.35547
1.27027
1.19005
1.11132
1.02881
0.939271
0.839107
0.726443
0.597856
0.452272
0.288307
0.104207
2.48985
2.20987
1.97258
1.78338
1.63858
1.52916
1.44458
1.37564
1.31439
1.25338
1.1891
1.11601
1.03097
0.930389
0.812599
0.674009
0.513646
0.329923
0.120511
2.24335
1.96615
1.75901
1.61557
1.52191
1.46248
1.42276
1.39211
1.3621
1.32521
1.27854
1.21667
1.13692
1.0359
0.912342
0.762518
0.585505
0.379304
0.140452
2.00095
1.74742
1.58841
1.50313
1.4664
1.45764
1.46031
1.46396
1.46066
1.44342
1.41016
1.35577
1.27791
1.1733
1.04083
0.87633
0.678432
0.444036
0.167331
1.70324
1.50445
1.425
1.4181
1.44882
1.49516
1.5414
1.57891
1.60118
1.60229
1.5811
1.53296
1.45584
1.34638
1.20338
1.02179
0.799096
0.53006
0.204735
1.20784
1.1559
1.21035
1.31236
1.42813
1.54027
1.63729
1.71376
1.76547
1.78812
1.78147
1.74183
1.66731
1.55457
1.40195
1.20324
0.953665
0.644406
0.258236
0.72964
0.883807
1.08827
1.29822
1.49296
1.66388
1.80578
1.9166
1.9946
2.03727
2.04466
2.01435
1.94407
1.83006
1.6694
1.45373
1.17381
0.814093
0.343985
0.273759
0.663576
1.02163
1.3364
1.60712
1.83499
2.02178
2.16829
2.2753
2.34232
2.36907
2.35496
2.29681
2.19013
2.02959
1.80339
1.49432
1.07478
0.490648
-0.0685631
0.536177
1.0275
1.43351
1.77302
2.05465
2.28663
2.4716
2.61284
2.71226
2.76871
2.78419
2.7542
2.67325
2.53219
2.31377
1.98719
1.50355
0.767387
-0.233069
0.511898
1.09945
1.57867
1.97922
2.31243
2.59166
2.82057
3.00516
3.15057
3.25478
3.32368
3.35182
3.33329
3.25386
3.08889
2.78598
2.25971
1.34426
-0.206189
0.579313
1.22119
1.75554
2.20996
2.59342
2.92302
3.20335
3.44389
3.65483
3.83447
3.99517
4.13337
4.24627
4.31604
4.31187
4.15236
3.6954
2.66299
-0.037087
0.707767
1.37081
1.94619
2.44826
2.88048
3.26268
3.6019
3.91238
4.21316
4.50607
4.81478
5.14755
5.51682
5.91257
6.31664
6.62748
6.63871
5.91305
0.169272
0.849821
1.52357
2.13425
2.67898
3.15702
3.5904
3.99326
4.38467
4.80141
5.25352
5.78521
6.44897
7.32179
8.49519
10.2012
12.7993
17.0664
24.6089
)
;

boundaryField
{
    up
    {
        type            calculated;
        value           nonuniform List<scalar> 
84
(
-24.6089
-5.91305
-2.66299
-1.34426
-0.767389
-0.490649
-0.343985
-0.258235
-0.204734
-0.16733
-0.140451
-0.12051
-0.104207
-0.0910755
-0.0803557
-0.0713757
-0.0637684
-0.0573643
-0.0522268
-0.0480457
-0.045562
-0.0470497
-0.0628572
-0.0608137
-0.278326
-0.334977
-0.395509
-0.457175
-0.526033
-0.607924
-0.710749
-0.842568
-0.993849
-1.7462
-1.00336
-0.0638558
-0.100505
-0.0687074
-0.0530926
-0.0330593
-0.0227015
-0.0121144
0.0120448
0.0225296
0.0330868
0.0529475
0.0685733
0.100237
0.0647488
0.987448
1.7543
0.994866
0.843501
0.711465
0.608501
0.526525
0.457624
0.395959
0.335385
0.279693
0.0607106
0.0628502
0.047047
0.0455605
0.0480445
0.0522258
0.0573635
0.0637677
0.0713752
0.0803554
0.0910756
0.104207
0.120511
0.140452
0.167331
0.204735
0.258236
0.343985
0.490648
0.767387
1.34426
2.66299
5.91305
24.6089
)
;
    }
    low
    {
        type            calculated;
        value           nonuniform List<scalar> 
84
(
-0.152645
0.0620864
0.246751
0.277384
0.0965624
-0.278955
-0.772658
-1.28037
-1.78726
-2.06978
-2.3032
-2.53691
-2.5739
-2.57041
-2.55185
-2.47013
-2.33062
-2.1799
-2.04809
-1.81959
-1.57715
-1.33124
-1.06234
-0.765966
-0.505376
-0.170193
0.159363
0.496257
0.814041
1.15913
1.43285
1.69027
1.9365
2.10985
2.22568
2.32241
2.22945
1.97469
1.65054
1.24892
0.789619
0.304472
-0.304329
-0.789483
-1.24879
-1.65043
-1.97462
-2.22943
-2.32238
-2.22602
-2.1097
-1.93661
-1.69035
-1.43293
-1.15921
-0.814119
-0.496342
-0.159433
0.170038
0.505486
0.765856
1.0624
1.33126
1.57716
1.8196
2.0481
2.17991
2.33063
2.47013
2.55185
2.57041
2.5739
2.5369
2.30321
2.0698
1.78728
1.28039
0.77267
0.278964
-0.0965579
-0.277384
-0.246754
-0.0620886
0.152645
)
;
    }
    left
    {
        type            calculated;
        value           nonuniform List<scalar> 
19
(
-0.150108
-0.815454
-1.50261
-2.1341
-2.70203
-3.20223
-3.65852
-4.08743
-4.50801
-4.96662
-5.47287
-6.0768
-6.84733
-7.88818
-9.31474
-11.454
-14.8047
-20.4521
-21.3444
)
;
    }
    right
    {
        type            calculated;
        value           nonuniform List<scalar> 
19
(
0.15011
0.815456
1.50261
2.1341
2.70203
3.20223
3.65852
4.08743
4.50801
4.96662
5.47287
6.07679
6.84732
7.88816
9.31473
11.454
14.8047
20.4521
21.3444
)
;
    }
    frontAndBackPlanes
    {
        type            empty;
    }
}


// ************************************************************************* //
