/*--------------------------------*- C++ -*----------------------------------*\
  =========                 |
  \\      /  F ield         | OpenFOAM: The Open Source CFD Toolbox
   \\    /   O peration     | Website:  https://openfoam.org
    \\  /    A nd           | Version:  7
     \\/     M anipulation  |
\*---------------------------------------------------------------------------*/
FoamFile
{
    version     2.0;
    format      ascii;
    class       volScalarField;
    location    "0.234";
    object      gradTy;
}
// * * * * * * * * * * * * * * * * * * * * * * * * * * * * * * * * * * * * * //

dimensions      [0 -1 0 1 0 0 0];

internalField   nonuniform List<scalar> 
1596
(
-0.091588
-0.17011
-0.234457
-0.296283
-0.355636
-0.420262
-0.486903
-0.564419
-0.656331
-0.76521
-0.914815
-1.10519
-1.36903
-1.74493
-2.32919
-3.24023
-4.86735
-7.86837
-18.5875
-0.278943
-0.343911
-0.38805
-0.428837
-0.468373
-0.515303
-0.566976
-0.631555
-0.712412
-0.810243
-0.944878
-1.1142
-1.34006
-1.63999
-2.06334
-2.63508
-3.48505
-4.73429
-8.2798
-0.499095
-0.52078
-0.533568
-0.548971
-0.566753
-0.59434
-0.62869
-0.676929
-0.741552
-0.821965
-0.934447
-1.07477
-1.25802
-1.49222
-1.80727
-2.20693
-2.76171
-3.52243
-5.15482
-0.729739
-0.692984
-0.668504
-0.656068
-0.651024
-0.658267
-0.674006
-0.704022
-0.749898
-0.810206
-0.898218
-1.0086
-1.15198
-1.33155
-1.56621
-1.85153
-2.22892
-2.71914
-3.55896
-0.942355
-0.850776
-0.790132
-0.750303
-0.722814
-0.709762
-0.706739
-0.718081
-0.744649
-0.784576
-0.848638
-0.931308
-1.04025
-1.1763
-1.35197
-1.56021
-1.82697
-2.15947
-2.64449
-1.11121
-0.984717
-0.895873
-0.832282
-0.784404
-0.752276
-0.731362
-0.724684
-0.732632
-0.753224
-0.79516
-0.853308
-0.933316
-1.03492
-1.16677
-1.32147
-1.51612
-1.75178
-2.0615
-1.22237
-1.0874
-0.98305
-0.902182
-0.837627
-0.788776
-0.751693
-0.728426
-0.71917
-0.722084
-0.744145
-0.780938
-0.836683
-0.91069
-1.00909
-1.1251
-1.27035
-1.44321
-1.6566
-1.27575
-1.15429
-1.04832
-0.958546
-0.882474
-0.820333
-0.76957
-0.731752
-0.707177
-0.69435
-0.698859
-0.71715
-0.752411
-0.803856
-0.875932
-0.962764
-1.07244
-1.20229
-1.35719
-1.28218
-1.19043
-1.09476
-1.00423
-0.921962
-0.850179
-0.788307
-0.738
-0.699936
-0.673144
-0.662159
-0.664304
-0.682029
-0.71461
-0.76532
-0.829204
-0.911932
-1.01054
-1.1265
-1.25081
-1.19106
-1.11355
-1.03015
-0.947941
-0.871396
-0.802109
-0.742327
-0.693356
-0.654879
-0.630738
-0.619092
-0.62191
-0.638627
-0.671728
-0.717131
-0.778881
-0.854124
-0.942802
-1.21117
-1.17419
-1.11494
-1.0423
-0.964288
-0.886764
-0.813157
-0.746519
-0.68892
-0.640788
-0.60557
-0.582202
-0.572359
-0.575673
-0.594086
-0.624263
-0.669113
-0.726022
-0.794248
-1.16171
-1.14812
-1.10662
-1.04596
-0.97439
-0.898404
-0.822759
-0.751307
-0.686905
-0.630753
-0.586145
-0.552723
-0.532018
-0.523875
-0.529861
-0.547279
-0.578219
-0.620364
-0.672691
-1.10011
-1.10742
-1.08326
-1.03562
-0.972429
-0.900483
-0.825321
-0.751487
-0.682538
-0.620396
-0.568399
-0.526812
-0.497153
-0.479494
-0.475176
-0.482053
-0.501665
-0.532007
-0.571964
-1.04526
-1.06451
-1.05399
-1.01816
-0.963537
-0.896647
-0.823341
-0.748671
-0.676761
-0.610162
-0.552371
-0.504184
-0.467188
-0.441672
-0.428845
-0.427007
-0.437324
-0.458075
-0.48816
-0.994366
-1.02305
-1.023
-0.997075
-0.950302
-0.888611
-0.817813
-0.743261
-0.669505
-0.599624
-0.537317
-0.483839
-0.440881
-0.408935
-0.389135
-0.380147
-0.382874
-0.395849
-0.418041
-0.94436
-0.982083
-0.990867
-0.973294
-0.933464
-0.876733
-0.808709
-0.734892
-0.660136
-0.587941
-0.52222
-0.464608
-0.41692
-0.379827
-0.354424
-0.339669
-0.336289
-0.343032
-0.358958
-0.898954
-0.942904
-0.958855
-0.948228
-0.914314
-0.861999
-0.796647
-0.72383
-0.648612
-0.574822
-0.506574
-0.445811
-0.394465
-0.353353
-0.323547
-0.304237
-0.296022
-0.297835
-0.308816
-0.859079
-0.907368
-0.928955
-0.923976
-0.894935
-0.846283
-0.783197
-0.711286
-0.635785
-0.560802
-0.490614
-0.427424
-0.373256
-0.329036
-0.295804
-0.272933
-0.260924
-0.25886
-0.265957
-0.818976
-0.875054
-0.9026
-0.90274
-0.877855
-0.83216
-0.770783
-0.699402
-0.623448
-0.547299
-0.475387
-0.410144
-0.35366
-0.306932
-0.270954
-0.245223
-0.230174
-0.225019
-0.229041
-0.777547
-0.842556
-0.876893
-0.882281
-0.861325
-0.818266
-0.758315
-0.687298
-0.610871
-0.533687
-0.460331
-0.393439
-0.335148
-0.286481
-0.248355
-0.220342
-0.202833
-0.195193
-0.196803
-0.741983
-0.813094
-0.853765
-0.86425
-0.846942
-0.806142
-0.747233
-0.676271
-0.599184
-0.520914
-0.446211
-0.377896
-0.318133
-0.267929
-0.228075
-0.19813
-0.178439
-0.168574
-0.168156
-0.710385
-0.787215
-0.833744
-0.849103
-0.835242
-0.796438
-0.738284
-0.667119
-0.589184
-0.509739
-0.433704
-0.364086
-0.303069
-0.251617
-0.210337
-0.178635
-0.156707
-0.144344
-0.141785
-0.681175
-0.76442
-0.816796
-0.83689
-0.826324
-0.789341
-0.731763
-0.660241
-0.581358
-0.500694
-0.423348
-0.352509
-0.290395
-0.237932
-0.195511
-0.162224
-0.137798
-0.121835
-0.115673
-0.655134
-0.744818
-0.802641
-0.826732
-0.818614
-0.782516
-0.724695
-0.652088
-0.571698
-0.489503
-0.410571
-0.338471
-0.275387
-0.222254
-0.179202
-0.145042
-0.118489
-0.0977234
-0.0813834
-0.634032
-0.729686
-0.793935
-0.824249
-0.82204
-0.791122
-0.737757
-0.668606
-0.59063
-0.509954
-0.431298
-0.358659
-0.294193
-0.239274
-0.194175
-0.158142
-0.129374
-0.105436
-0.0826662
-0.619389
-0.718596
-0.786542
-0.821129
-0.823632
-0.797504
-0.748703
-0.68351
-0.608592
-0.529973
-0.452001
-0.378831
-0.312697
-0.25533
-0.207414
-0.168995
-0.138699
-0.114969
-0.0953413
-0.618961
-0.718728
-0.788
-0.824932
-0.830656
-0.808491
-0.763959
-0.703016
-0.631909
-0.5563
-0.480232
-0.407561
-0.340455
-0.280845
-0.229921
-0.188408
-0.155564
-0.130275
-0.110385
-0.634382
-0.731555
-0.799103
-0.835577
-0.842157
-0.822147
-0.780717
-0.723492
-0.656255
-0.584215
-0.510967
-0.439872
-0.37274
-0.311421
-0.257462
-0.212345
-0.176134
-0.148291
-0.126855
-0.663963
-0.756743
-0.82002
-0.853602
-0.858984
-0.839532
-0.800144
-0.746097
-0.682707
-0.614705
-0.545158
-0.476833
-0.410894
-0.348728
-0.291887
-0.242578
-0.201923
-0.170349
-0.146222
-0.706839
-0.792077
-0.848694
-0.877441
-0.880065
-0.859985
-0.821874
-0.770645
-0.711153
-0.647691
-0.582806
-0.518707
-0.455734
-0.394375
-0.335541
-0.281774
-0.235369
-0.198423
-0.170165
-0.762309
-0.837011
-0.885462
-0.908117
-0.906921
-0.885348
-0.847894
-0.799097
-0.743381
-0.684684
-0.625143
-0.566629
-0.508726
-0.450766
-0.392144
-0.334699
-0.281233
-0.236271
-0.201338
-0.82233
-0.887957
-0.927988
-0.943916
-0.938295
-0.914731
-0.877565
-0.830937
-0.778855
-0.724983
-0.671208
-0.619431
-0.568933
-0.518166
-0.464447
-0.40737
-0.34775
-0.291453
-0.244713
-0.890793
-0.946141
-0.976656
-0.984985
-0.974284
-0.94823
-0.910945
-0.866114
-0.817298
-0.767901
-0.719639
-0.674804
-0.633087
-0.59319
-0.551153
-0.504087
-0.447327
-0.3823
-0.311512
-0.970724
-1.01364
-1.03353
-1.03376
-1.0179
-0.989574
-0.95251
-0.909892
-0.864767
-0.820181
-0.777789
-0.7402
-0.70812
-0.681936
-0.659193
-0.637881
-0.61068
-0.573531
-0.521581
-1.05952
-1.08807
-1.09467
-1.08417
-1.06049
-1.02715
-0.987289
-0.943609
-0.898577
-0.85453
-0.813003
-0.776049
-0.744779
-0.72052
-0.70354
-0.695221
-0.693497
-0.696515
-0.700243
-1.15982
-1.16885
-1.15924
-1.13624
-1.10344
-1.06399
-1.02038
-0.974887
-0.929519
-0.885981
-0.845804
-0.810288
-0.780365
-0.756802
-0.74016
-0.731136
-0.730246
-0.738298
-0.756224
-1.27045
-1.25556
-1.22882
-1.19358
-1.1523
-1.10733
-1.06051
-1.01368
-0.968436
-0.926076
-0.88792
-0.854811
-0.827331
-0.805692
-0.789848
-0.779122
-0.772797
-0.769643
-0.768499
-1.37205
-1.33448
-1.29167
-1.24489
-1.1955
-1.14501
-1.09472
-1.04597
-0.999965
-0.957662
-0.920023
-0.887622
-0.860732
-0.839319
-0.823142
-0.81152
-0.803761
-0.798951
-0.796213
-1.45484
-1.40079
-1.34543
-1.28936
-1.23332
-1.17828
-1.1251
-1.07471
-1.028
-0.985652
-0.948368
-0.916549
-0.890291
-0.869463
-0.853762
-0.842545
-0.835121
-0.830658
-0.828303
-1.52102
-1.45395
-1.38867
-1.32525
-1.26399
-1.20535
-1.14988
-1.09817
-1.05086
-1.00844
-0.97141
-0.94007
-0.914401
-0.89421
-0.879151
-0.868591
-0.86182
-0.858039
-0.8564
-1.56914
-1.49225
-1.41949
-1.35067
-1.28564
-1.22446
-1.1674
-1.11477
-1.06706
-1.02461
-0.987801
-0.956857
-0.931687
-0.912056
-0.897581
-0.887616
-0.88141
-0.87815
-0.876964
-1.60013
-1.51402
-1.43594
-1.36383
-1.29669
-1.23418
-1.1763
-1.12324
-1.07536
-1.03292
-0.996268
-0.965574
-0.940722
-0.921464
-0.907411
-0.89793
-0.892266
-0.889616
-0.889099
-1.60014
-1.51404
-1.43596
-1.36385
-1.29671
-1.2342
-1.17632
-1.12326
-1.07538
-1.03295
-0.996292
-0.965599
-0.940748
-0.921492
-0.907439
-0.897959
-0.892297
-0.889648
-0.889133
-1.56916
-1.49228
-1.41953
-1.35072
-1.28569
-1.22452
-1.16745
-1.11483
-1.06713
-1.02467
-0.987869
-0.956928
-0.931761
-0.912135
-0.897665
-0.887707
-0.881508
-0.878257
-0.877081
-1.52104
-1.45399
-1.38873
-1.32533
-1.26407
-1.20544
-1.14997
-1.09827
-1.05096
-1.00854
-0.97152
-0.940185
-0.914522
-0.894337
-0.879286
-0.868735
-0.861974
-0.858205
-0.856577
-1.45486
-1.40085
-1.34551
-1.28945
-1.23343
-1.17839
-1.12522
-1.07484
-1.02813
-0.985788
-0.948509
-0.916695
-0.890443
-0.869622
-0.853928
-0.842718
-0.835302
-0.830849
-0.828503
-1.37208
-1.33454
-1.29176
-1.245
-1.19562
-1.14514
-1.09486
-1.04612
-1.00012
-0.957825
-0.920192
-0.887798
-0.860913
-0.839507
-0.823335
-0.811719
-0.803966
-0.799163
-0.796432
-1.27048
-1.25563
-1.22892
-1.1937
-1.15243
-1.10748
-1.06067
-1.01385
-0.96861
-0.926258
-0.88811
-0.855007
-0.827532
-0.805895
-0.790051
-0.77932
-0.772988
-0.769823
-0.768667
-1.15985
-1.16893
-1.15936
-1.13639
-1.10362
-1.06421
-1.02061
-0.97515
-0.929807
-0.886294
-0.846144
-0.810658
-0.780766
-0.757233
-0.74062
-0.731601
-0.73068
-0.738631
-0.756357
-1.05954
-1.08809
-1.09469
-1.0842
-1.06053
-1.02719
-0.987331
-0.943651
-0.898614
-0.854554
-0.813007
-0.776021
-0.744703
-0.720382
-0.703336
-0.694964
-0.693271
-0.696478
-0.700648
-0.970735
-1.01369
-1.03361
-1.03388
-1.01807
-0.989794
-0.952779
-0.910206
-0.865125
-0.820579
-0.778225
-0.740677
-0.708646
-0.682537
-0.65992
-0.638811
-0.611912
-0.57515
-0.523636
-0.890797
-0.946148
-0.976682
-0.985038
-0.974369
-0.94835
-0.9111
-0.866302
-0.817517
-0.768148
-0.719913
-0.675108
-0.633434
-0.593601
-0.551653
-0.50469
-0.448008
-0.382974
-0.312018
-0.82233
-0.887958
-0.928004
-0.943959
-0.938372
-0.914844
-0.877716
-0.831124
-0.779076
-0.725236
-0.671491
-0.619749
-0.569293
-0.518578
-0.464909
-0.407861
-0.348226
-0.29186
-0.245034
-0.762308
-0.837005
-0.885468
-0.908147
-0.906984
-0.885447
-0.848032
-0.799272
-0.74359
-0.684925
-0.625414
-0.566931
-0.509061
-0.451129
-0.392522
-0.335067
-0.281564
-0.236548
-0.201565
-0.706836
-0.792067
-0.848692
-0.877461
-0.880116
-0.860072
-0.821999
-0.770807
-0.711348
-0.647916
-0.583058
-0.518984
-0.45603
-0.394682
-0.335844
-0.282053
-0.235612
-0.198628
-0.17034
-0.663958
-0.756728
-0.820011
-0.853612
-0.859023
-0.839606
-0.800255
-0.746244
-0.682885
-0.614911
-0.545387
-0.477079
-0.41115
-0.348983
-0.292129
-0.242795
-0.202111
-0.17051
-0.146364
-0.634377
-0.731539
-0.799091
-0.835581
-0.842188
-0.82221
-0.780815
-0.723623
-0.656416
-0.584399
-0.511169
-0.440086
-0.372957
-0.311631
-0.257656
-0.212518
-0.176284
-0.148423
-0.126978
-0.618955
-0.718711
-0.787986
-0.824932
-0.83068
-0.808545
-0.764044
-0.703132
-0.632051
-0.556462
-0.480409
-0.407745
-0.340637
-0.281019
-0.230079
-0.188548
-0.155688
-0.13039
-0.110499
-0.619383
-0.718578
-0.786523
-0.821119
-0.823638
-0.797533
-0.748756
-0.683586
-0.608687
-0.530084
-0.452121
-0.378955
-0.312818
-0.255443
-0.207514
-0.169083
-0.138778
-0.11505
-0.0954441
-0.634046
-0.729694
-0.793945
-0.824264
-0.822066
-0.79116
-0.73781
-0.668673
-0.590711
-0.510047
-0.4314
-0.358766
-0.294302
-0.239382
-0.19428
-0.158241
-0.129466
-0.105519
-0.0827325
-0.655149
-0.744831
-0.80265
-0.826732
-0.818605
-0.782496
-0.724664
-0.652049
-0.571653
-0.489455
-0.410521
-0.338423
-0.275342
-0.222212
-0.179163
-0.145005
-0.118453
-0.0976845
-0.0813359
-0.681185
-0.764428
-0.816803
-0.836895
-0.826328
-0.789342
-0.731763
-0.660239
-0.581355
-0.500692
-0.423347
-0.352509
-0.290396
-0.237934
-0.195514
-0.162228
-0.137803
-0.121842
-0.115679
-0.710393
-0.78722
-0.833748
-0.849104
-0.835241
-0.796434
-0.738279
-0.667113
-0.589178
-0.509733
-0.4337
-0.364083
-0.303068
-0.251618
-0.210338
-0.178638
-0.156711
-0.144348
-0.14179
-0.741989
-0.813099
-0.853767
-0.86425
-0.84694
-0.806139
-0.747228
-0.676266
-0.599179
-0.52091
-0.446208
-0.377894
-0.318132
-0.267929
-0.228076
-0.198132
-0.178442
-0.168577
-0.168159
-0.777551
-0.842559
-0.876894
-0.882281
-0.861323
-0.818263
-0.758311
-0.687294
-0.610867
-0.533684
-0.460329
-0.393438
-0.335148
-0.286481
-0.248356
-0.220344
-0.202835
-0.195195
-0.196805
-0.818979
-0.875056
-0.902601
-0.902739
-0.877853
-0.832158
-0.77078
-0.699399
-0.623445
-0.547297
-0.475385
-0.410143
-0.35366
-0.306933
-0.270955
-0.245225
-0.230175
-0.22502
-0.229042
-0.859081
-0.907369
-0.928955
-0.923975
-0.894933
-0.846281
-0.783195
-0.711284
-0.635784
-0.5608
-0.490613
-0.427423
-0.373256
-0.329036
-0.295805
-0.272934
-0.260925
-0.258861
-0.265958
-0.898956
-0.942904
-0.958854
-0.948227
-0.914312
-0.861997
-0.796645
-0.723829
-0.648611
-0.574821
-0.506574
-0.445811
-0.394465
-0.353354
-0.323547
-0.304238
-0.296023
-0.297835
-0.308816
-0.944361
-0.982083
-0.990866
-0.973293
-0.933463
-0.876733
-0.808708
-0.734891
-0.660135
-0.58794
-0.52222
-0.464608
-0.41692
-0.379827
-0.354424
-0.339669
-0.336288
-0.343032
-0.358957
-0.994365
-1.02305
-1.023
-0.997074
-0.950302
-0.888611
-0.817813
-0.74326
-0.669505
-0.599624
-0.537317
-0.483839
-0.44088
-0.408935
-0.389135
-0.380146
-0.382873
-0.395847
-0.41804
-1.04526
-1.06451
-1.05399
-1.01816
-0.963537
-0.896647
-0.823341
-0.748671
-0.676761
-0.610162
-0.552371
-0.504184
-0.467187
-0.441671
-0.428844
-0.427006
-0.437322
-0.458072
-0.488158
-1.10011
-1.10742
-1.08326
-1.03562
-0.97243
-0.900484
-0.825322
-0.751487
-0.682538
-0.620396
-0.568399
-0.526812
-0.497152
-0.479493
-0.475175
-0.482051
-0.501662
-0.532004
-0.571962
-1.16171
-1.14812
-1.10661
-1.04596
-0.974391
-0.898405
-0.822759
-0.751307
-0.686905
-0.630753
-0.586145
-0.552723
-0.532017
-0.523874
-0.529859
-0.547277
-0.578216
-0.620361
-0.672689
-1.21116
-1.17419
-1.11495
-1.0423
-0.96429
-0.886766
-0.813158
-0.74652
-0.688921
-0.640788
-0.60557
-0.582201
-0.572358
-0.575672
-0.594084
-0.624261
-0.669109
-0.726018
-0.794246
-1.25081
-1.19107
-1.11355
-1.03015
-0.947943
-0.871398
-0.80211
-0.742328
-0.693357
-0.65488
-0.630738
-0.619092
-0.621909
-0.638625
-0.671726
-0.717128
-0.778877
-0.854121
-0.942801
-1.28218
-1.19044
-1.09476
-1.00423
-0.921964
-0.850181
-0.788309
-0.738001
-0.699937
-0.673144
-0.662159
-0.664304
-0.682028
-0.714609
-0.765318
-0.829201
-0.911929
-1.01054
-1.1265
-1.27575
-1.15429
-1.04833
-0.958549
-0.882476
-0.820334
-0.769571
-0.731753
-0.707177
-0.69435
-0.698859
-0.71715
-0.75241
-0.803855
-0.87593
-0.962761
-1.07244
-1.20229
-1.35719
-1.22237
-1.0874
-0.983053
-0.902184
-0.837628
-0.788778
-0.751695
-0.728427
-0.719171
-0.722084
-0.744145
-0.780938
-0.836682
-0.910688
-1.00909
-1.1251
-1.27035
-1.44322
-1.6566
-1.11121
-0.984721
-0.895875
-0.832284
-0.784406
-0.752278
-0.731363
-0.724685
-0.732633
-0.753225
-0.79516
-0.853307
-0.933314
-1.03492
-1.16677
-1.32147
-1.51612
-1.75178
-2.06151
-0.94236
-0.850779
-0.790134
-0.750305
-0.722816
-0.709764
-0.706741
-0.718082
-0.74465
-0.784576
-0.848637
-0.931307
-1.04025
-1.17629
-1.35197
-1.56021
-1.82697
-2.15948
-2.64449
-0.729743
-0.692986
-0.668506
-0.65607
-0.651026
-0.658269
-0.674008
-0.704023
-0.749899
-0.810206
-0.898217
-1.0086
-1.15198
-1.33154
-1.56621
-1.85153
-2.22893
-2.71915
-3.55896
-0.499098
-0.520781
-0.533569
-0.548972
-0.566754
-0.594342
-0.628692
-0.676931
-0.741553
-0.821965
-0.934446
-1.07477
-1.25802
-1.49222
-1.80727
-2.20693
-2.76171
-3.52243
-5.15482
-0.278944
-0.343912
-0.38805
-0.428837
-0.468374
-0.515303
-0.566977
-0.631556
-0.712412
-0.810243
-0.944878
-1.11419
-1.34006
-1.63999
-2.06334
-2.63508
-3.48505
-4.73429
-8.2798
-0.0915885
-0.170111
-0.234457
-0.296283
-0.355636
-0.420262
-0.486904
-0.564419
-0.656331
-0.76521
-0.914814
-1.10519
-1.36902
-1.74493
-2.32919
-3.24023
-4.86735
-7.86837
-18.5875
)
;

boundaryField
{
    up
    {
        type            calculated;
        value           nonuniform List<scalar> 
84
(
-16.8439
-9.12262
-5.59858
-3.81846
-2.81148
-2.17727
-1.74124
-1.42137
-1.17611
-0.981767
-0.824914
-0.696763
-0.590867
-0.50289
-0.429418
-0.367665
-0.315405
-0.270871
-0.232629
-0.199375
-0.169936
-0.142778
-0.114546
-0.0730435
-0.0706979
-0.0896431
-0.104697
-0.120624
-0.139088
-0.161684
-0.190495
-0.228176
-0.285863
-0.516997
-0.720416
-0.768817
-0.767482
-0.794948
-0.827371
-0.855907
-0.87675
-0.889279
-0.889312
-0.876872
-0.85609
-0.827576
-0.795171
-0.767649
-0.768779
-0.720858
-0.519396
-0.286335
-0.228459
-0.190706
-0.161851
-0.139226
-0.120745
-0.104812
-0.0897801
-0.0707837
-0.0729919
-0.114552
-0.142781
-0.169939
-0.199377
-0.23263
-0.270872
-0.315405
-0.367664
-0.429417
-0.502889
-0.590866
-0.696762
-0.824914
-0.981769
-1.17611
-1.42138
-1.74125
-2.17728
-2.81148
-3.81846
-5.59858
-9.12262
-16.8439
)
;
    }
    low
    {
        type            calculated;
        value           nonuniform List<scalar> 
84
(
-0.0982705
-0.291424
-0.526254
-0.775573
-1.00589
-1.1867
-1.30079
-1.34911
-1.34115
-1.29111
-1.24157
-1.18249
-1.10774
-1.04561
-0.990498
-0.934751
-0.884346
-0.842972
-0.79982
-0.751497
-0.710632
-0.674945
-0.640767
-0.610077
-0.580796
-0.562623
-0.562905
-0.584105
-0.621164
-0.673495
-0.737363
-0.802985
-0.87799
-0.965596
-1.06079
-1.16965
-1.29225
-1.40156
-1.48905
-1.55923
-1.61058
-1.64599
-1.646
-1.61059
-1.55924
-1.48907
-1.40157
-1.29226
-1.16967
-1.06078
-0.965608
-0.877981
-0.802981
-0.737359
-0.673492
-0.62116
-0.584105
-0.562906
-0.562627
-0.580804
-0.610097
-0.640771
-0.674952
-0.710638
-0.751501
-0.799823
-0.842975
-0.884347
-0.934751
-0.990497
-1.04561
-1.10774
-1.18248
-1.24157
-1.29111
-1.34115
-1.34911
-1.30079
-1.1867
-1.0059
-0.77558
-0.526259
-0.291427
-0.0982713
)
;
    }
    left
    {
        type            calculated;
        value           nonuniform List<scalar> 
19
(
-0.0898331
-0.166901
-0.232475
-0.296305
-0.358081
-0.425296
-0.494846
-0.576049
-0.672562
-0.788336
-0.948263
-1.1535
-1.44119
-1.85754
-2.51058
-3.54551
-5.41554
-8.90539
-17.4706
)
;
    }
    right
    {
        type            calculated;
        value           nonuniform List<scalar> 
19
(
-0.0898337
-0.166901
-0.232475
-0.296305
-0.358081
-0.425296
-0.494846
-0.576049
-0.672562
-0.788335
-0.948262
-1.1535
-1.44118
-1.85753
-2.51058
-3.54551
-5.41554
-8.90539
-17.4706
)
;
    }
    frontAndBackPlanes
    {
        type            empty;
    }
}


// ************************************************************************* //
