/*--------------------------------*- C++ -*----------------------------------*\
  =========                 |
  \\      /  F ield         | OpenFOAM: The Open Source CFD Toolbox
   \\    /   O peration     | Website:  https://openfoam.org
    \\  /    A nd           | Version:  7
     \\/     M anipulation  |
\*---------------------------------------------------------------------------*/
FoamFile
{
    version     2.0;
    format      ascii;
    class       volScalarField;
    location    "0.29";
    object      gradTz;
}
// * * * * * * * * * * * * * * * * * * * * * * * * * * * * * * * * * * * * * //

dimensions      [0 -1 0 1 0 0 0];

internalField   nonuniform List<scalar> 
1596
(
-1.6137e-16
-7.85936e-17
7.96986e-17
1.58794e-18
-1.52237e-16
0
-7.13326e-17
-7.03348e-17
-4.45703e-18
-3.69393e-17
-3.52198e-19
-3.67125e-17
1.61318e-16
-3.62718e-17
1.69566e-16
1.4626e-16
8.69795e-17
1.09803e-16
0
1.61392e-16
0
2.28378e-16
-1.48164e-18
-7.03401e-17
6.97689e-17
1.43287e-16
4.22891e-18
6.79834e-17
-3.27186e-17
6.52548e-17
-1.02446e-18
-9.04613e-17
-5.64558e-17
-1.37111e-16
-1.33704e-16
-1.21599e-16
6.91866e-17
0
-7.93427e-17
0
-1.49421e-16
2.35435e-18
1.37783e-16
-3.83154e-17
2.75571e-18
-9.63126e-19
-9.94719e-19
-1.07017e-18
2.50256e-17
0
4.69313e-17
1.33253e-16
-1.3122e-17
1.05305e-17
2.47829e-17
3.86064e-17
0
1.24382e-16
-3.76861e-17
3.75485e-17
0
-3.62099e-17
-3.73477e-17
6.42008e-17
-5.64989e-17
0
0
-1.97578e-17
1.30596e-17
0
-3.93241e-17
-5.0268e-17
3.46913e-17
-3.54522e-17
-1.82534e-18
0
2.16999e-17
5.8248e-17
-5.29658e-17
0
-1.5759e-17
-4.78614e-17
0
7.18272e-17
-7.17581e-18
-6.4952e-18
-5.7942e-18
3.75384e-17
4.59454e-17
4.7083e-18
1.37915e-18
-3.7513e-17
1.8928e-18
1.73566e-17
-7.44416e-18
-5.63511e-18
-7.99879e-17
7.6547e-17
-6.73807e-17
-1.30943e-19
-6.02515e-17
1.70228e-18
-1.70793e-18
-4.79966e-17
0
-4.77073e-18
-4.43505e-17
-4.1521e-17
3.39421e-17
3.47792e-17
-4.7578e-19
-2.08452e-17
-1.76046e-17
1.34427e-17
4.70936e-17
-8.161e-17
9.22872e-17
5.19146e-17
0
4.61944e-17
2.7389e-17
-1.32186e-17
6.09325e-17
-1.14903e-17
-4.83573e-17
4.51875e-19
-2.88306e-17
-3.4107e-17
-2.68211e-17
2.27148e-17
2.10287e-17
-2.80184e-19
-5.61867e-18
4.31583e-18
1.29467e-16
-1.53782e-16
0
0
-5.77521e-17
0
0
0
4.05594e-17
0
0
2.63999e-17
1.01903e-18
6.90973e-18
-1.98338e-17
0
1.05575e-17
4.09224e-18
0
-8.4434e-17
1.62807e-16
0
0
5.94767e-17
0
-2.31082e-17
2.30849e-17
-4.12836e-17
1.72982e-17
-1.74247e-17
0
2.51786e-17
2.41116e-17
0
-1.39287e-17
-1.07891e-17
-3.57048e-18
2.01032e-16
-9.44587e-17
0
-6.87811e-17
6.80113e-17
0
5.16259e-17
0
0
0
1.6141e-17
-1.62183e-17
0
-1.94217e-17
-5.59328e-18
0
1.33889e-18
7.99044e-18
0
-5.10246e-17
0
0
6.897e-17
-1.2931e-16
6.14022e-18
2.39189e-18
-2.15645e-17
2.26616e-18
7.26246e-19
-1.70336e-17
-2.7681e-17
0
2.09456e-17
-4.14358e-18
4.20577e-18
1.08157e-17
-6.25617e-18
-2.89947e-18
4.31102e-17
-4.21506e-18
4.13657e-17
1.4305e-16
-7.09007e-18
-6.06982e-17
0
0
0
3.51075e-17
1.42429e-17
5.15199e-17
-1.24478e-17
-2.05709e-17
-1.24148e-17
-6.68865e-18
2.97268e-18
-6.44839e-18
2.76252e-18
-4.7274e-17
4.62985e-17
-8.59641e-17
-1.41314e-16
1.31529e-16
5.30626e-17
-9.86519e-17
8.62989e-17
-7.5386e-17
1.96272e-17
1.52806e-17
-1.38596e-17
9.2577e-18
-8.24523e-18
2.40231e-17
0
-1.8046e-18
1.32529e-17
-1.9663e-18
-3.04112e-16
1.4027e-16
1.1847e-19
-3.17994e-17
3.72569e-18
5.15843e-17
-9.8313e-17
-4.11585e-17
3.55564e-17
-3.05481e-17
-2.63194e-17
0
-3.02756e-17
-9.03544e-18
-1.62892e-17
-9.69292e-18
7.63922e-19
-8.43575e-18
1.60612e-19
4.97045e-17
-4.45923e-17
9.94802e-20
-3.48644e-17
-8.81702e-17
8.34163e-17
2.97955e-19
4.01089e-17
-3.46188e-17
5.86947e-17
1.39241e-17
1.16007e-17
3.62246e-17
0
3.03196e-17
1.39339e-17
0
4.64417e-18
1.36599e-19
0
4.32597e-17
3.46008e-17
-7.1625e-17
8.547e-17
-1.29242e-16
9.22579e-17
3.5604e-17
-4.84823e-18
-5.80378e-17
1.08782e-17
-1.08246e-17
-3.33486e-17
1.34113e-17
-6.62258e-18
-1.40505e-17
6.14286e-18
-3.80316e-18
1.45965e-18
-4.63049e-17
1.5888e-16
-1.18208e-16
6.52835e-17
0
0
-1.84849e-17
3.91658e-17
-2.86277e-17
5.40349e-17
0
0
2.26316e-17
-1.98781e-17
-1.43008e-17
4.5009e-18
-4.77607e-18
2.50143e-18
0
3.51182e-18
4.33003e-17
-3.54547e-17
-3.13056e-17
-5.13742e-17
-1.73136e-17
2.32705e-17
0
-2.69891e-17
-2.23109e-17
2.0178e-17
-1.66856e-17
1.36916e-17
0
5.43669e-18
1.08372e-17
0
0
0
-3.35571e-18
7.03143e-17
2.74173e-17
-9.43019e-17
2.64056e-17
2.28718e-17
0
0
2.55636e-17
-1.32938e-17
-1.95165e-17
1.61381e-17
-1.32408e-17
0
-3.63105e-18
3.16269e-18
0
-2.64468e-18
-9.20666e-19
-3.74087e-17
1.09778e-16
-1.34005e-16
-5.44803e-17
2.84425e-17
-2.17227e-17
1.84767e-17
0
-1.29711e-17
1.09612e-17
0
0
5.29515e-18
-5.30125e-18
1.62349e-18
-2.10407e-18
3.819e-18
4.34736e-19
6.83142e-19
1.91116e-17
-1.73473e-17
8.97734e-17
-5.80328e-17
-2.39275e-17
2.88956e-18
3.78538e-17
1.46912e-17
1.24114e-17
0
7.48521e-18
-6.95049e-18
5.60864e-18
-4.80554e-18
6.33861e-18
-1.09709e-17
-2.9728e-18
2.59949e-18
6.98307e-19
5.13622e-17
-5.19631e-17
0
4.91178e-17
-2.57822e-17
-1.96566e-17
1.40143e-17
-4.45518e-17
0
-7.69257e-19
-8.55103e-18
-6.29593e-18
9.34548e-18
-6.89429e-19
-6.12616e-18
4.57166e-18
0
1.68474e-18
-6.7805e-19
8.72178e-17
-1.55449e-17
6.69201e-17
-5.24691e-17
2.95988e-17
3.73935e-18
-3.43124e-17
-1.2069e-17
2.18934e-17
-8.73093e-19
-1.33183e-17
1.13606e-17
-5.01485e-18
-6.74769e-18
0
0
0
-1.70095e-18
6.34743e-20
-7.79146e-17
7.59732e-17
5.19561e-20
1.18489e-17
1.03135e-17
-2.53232e-17
3.0127e-17
-2.51291e-17
2.16842e-17
-7.40348e-18
1.41327e-17
5.13152e-18
-2.20041e-18
1.16033e-19
-8.2838e-19
-1.45684e-18
0
0
0
0
0
3.78861e-17
-1.80263e-17
-5.8108e-17
0
0
-7.28646e-18
-1.19743e-17
1.0145e-17
0
-6.47179e-18
5.10166e-18
-1.72852e-17
1.99493e-17
-6.62622e-18
7.06413e-18
7.79154e-19
0
-1.50997e-17
1.52855e-17
0
-1.25488e-17
1.27477e-17
2.14205e-17
0
7.35604e-18
1.0019e-17
-4.44772e-17
0
-7.12252e-18
5.63808e-18
4.12194e-18
-3.10238e-18
4.57437e-18
0
-1.70903e-18
0
-7.7639e-18
-7.77386e-18
4.60574e-19
1.28936e-17
-3.49867e-17
0
-9.21417e-18
0
2.68689e-17
1.10333e-17
0
2.82306e-17
-2.99327e-17
2.94898e-18
-6.91567e-18
1.8386e-18
8.76525e-18
3.36754e-18
-2.66674e-18
0
1.60932e-17
-1.42686e-17
1.77333e-17
2.15974e-17
0
1.87918e-17
-1.7846e-17
-1.43746e-17
2.20354e-17
-3.31249e-17
-1.65204e-17
0
0
3.78676e-18
0
0
1.10592e-18
0
-7.11621e-17
5.45888e-17
0
7.85847e-19
-1.26479e-17
-7.03597e-19
1.14173e-17
8.38519e-18
-1.03236e-17
-2.7083e-17
4.37324e-17
-1.1805e-17
0
-5.86512e-18
0
0
0
-4.26487e-18
3.4046e-18
-2.00771e-17
1.89205e-17
5.10478e-17
-5.00623e-17
1.54993e-17
8.24964e-19
-1.16025e-17
1.01336e-17
1.74646e-17
1.35803e-17
-2.68712e-17
0
1.44585e-17
2.2331e-18
-6.71308e-18
-1.50021e-17
1.24014e-17
-2.06044e-18
3.87156e-18
-6.77403e-17
9.86378e-17
-9.79631e-17
1.74144e-17
1.49712e-17
-1.43208e-17
1.21208e-17
-9.78356e-18
0
-8.49258e-18
1.38896e-17
6.03428e-18
9.83416e-18
1.27378e-17
-1.91467e-17
-2.64044e-19
0
-1.55553e-18
5.18809e-19
-7.32458e-17
-2.20052e-17
-3.90055e-17
2.0658e-17
-3.43275e-17
3.01791e-17
-1.80811e-17
1.55332e-17
-1.00749e-18
-1.00872e-18
-1.44816e-17
8.48447e-18
-4.96187e-18
1.50285e-17
-1.61333e-17
2.09871e-18
1.73352e-18
0
-8.94089e-19
7.91947e-17
-2.37171e-17
0
0
-3.53728e-17
6.90381e-17
-1.62527e-17
-3.17991e-18
2.63883e-17
-6.74597e-19
0
0
-6.3303e-18
0
-1.39668e-17
3.41054e-17
-2.3739e-17
0
3.51797e-19
2.71587e-17
5.10027e-17
0
-2.19911e-17
-1.82003e-17
-1.63201e-17
-1.68808e-17
7.09297e-18
-1.99262e-17
-1.10396e-17
0
0
8.26754e-18
0
0
-1.87781e-17
3.0914e-17
0
0
1.86364e-16
-2.16207e-17
-1.13692e-16
-6.27048e-17
8.4988e-17
2.73876e-17
1.63681e-17
0
-6.11253e-18
5.99522e-18
1.48163e-17
-4.79842e-18
-7.25483e-18
1.12783e-17
-1.19967e-17
-3.7534e-18
0
0
0
1.49242e-17
-1.1859e-16
1.16331e-16
-1.12362e-17
-8.77052e-17
1.3776e-16
-6.94235e-17
0
0
3.79859e-17
-3.12895e-17
0
-9.60718e-18
1.66952e-17
-1.90714e-18
4.90566e-18
1.50387e-18
1.56945e-20
3.29735e-19
0
0
0
9.8799e-17
-6.62187e-17
7.04926e-17
-1.10114e-16
3.14946e-17
0
-1.15149e-17
1.85587e-17
-1.89681e-17
-3.76317e-18
-8.87842e-20
-2.60218e-18
-3.90958e-19
-2.07276e-18
-5.79389e-19
-3.17526e-19
1.25155e-16
-2.23691e-16
1.06267e-16
0
2.90708e-17
-3.95867e-17
4.01118e-17
-3.18272e-17
0
-1.57414e-17
2.20719e-17
0
0
-6.66723e-20
0
-2.66162e-18
1.82324e-18
3.41861e-19
5.05475e-19
1.2104e-16
0
-4.87956e-17
5.45132e-17
-3.45734e-17
7.56991e-17
-3.58821e-17
-2.8363e-17
2.86592e-17
-2.93104e-18
0
0
1.89877e-18
-3.2303e-18
-2.2641e-18
4.29817e-18
-9.3053e-19
4.78541e-19
0
6.87343e-17
5.41159e-17
-1.63467e-18
-5.19405e-17
-5.28516e-18
-3.83536e-17
4.00153e-18
3.23933e-17
-1.68456e-18
2.98607e-18
0
0
-1.94517e-18
0
2.29402e-18
-2.45405e-18
0
3.14557e-19
-8.73278e-20
-3.64853e-17
-2.71386e-17
2.54083e-17
-2.93093e-18
-1.31975e-18
3.58409e-18
0
-9.54496e-19
1.43904e-17
-1.21191e-17
0
4.14651e-18
-8.06401e-19
-3.66872e-18
-3.36184e-19
-2.62417e-19
0
-2.45779e-19
0
1.4948e-17
-2.84781e-17
-4.30699e-19
1.23152e-17
1.13704e-17
-1.13014e-17
-8.082e-18
9.15107e-18
-3.16674e-18
2.47548e-18
-2.42451e-18
2.49929e-18
0
6.42577e-21
-2.47494e-19
8.90568e-19
-3.0502e-21
0
0
1.49485e-17
-1.48925e-17
-1.22508e-17
1.08492e-17
2.00904e-17
-2.0209e-17
-4.04113e-18
4.05066e-18
-3.19347e-18
3.22701e-18
-2.42459e-18
4.58097e-18
-1.28478e-18
-9.28535e-19
-2.85806e-19
9.4586e-20
2.26239e-19
5.98676e-20
-4.4902e-20
0
-3.55431e-18
2.13498e-17
-2.31329e-17
2.00639e-17
-1.77788e-17
0
1.43523e-17
-1.28332e-17
0
4.83236e-18
-6.12171e-18
-3.50083e-18
3.6691e-18
6.77815e-19
0
0
-2.45811e-19
8.93532e-20
5.95061e-17
-1.09805e-16
1.12524e-16
-9.92607e-17
3.91073e-17
-3.35875e-17
3.18573e-17
3.82215e-18
-1.43039e-17
1.27847e-17
0
-9.38125e-18
8.53942e-18
-1.63265e-18
-6.63919e-19
1.0502e-18
7.72893e-19
2.38636e-19
-8.63355e-20
1.36511e-16
0
-5.51835e-17
4.28763e-17
5.22436e-18
-4.04978e-17
7.20406e-17
-6.42833e-17
2.52926e-17
-1.09262e-17
1.1184e-17
2.22418e-18
3.85257e-18
1.59022e-18
-1.3295e-18
-1.71213e-19
-1.67621e-18
0
1.72743e-19
1.0989e-16
-1.23694e-16
0
1.14861e-17
5.00042e-17
-4.90314e-17
8.44931e-18
7.53569e-18
3.2983e-18
5.87009e-18
0
0
-6.70563e-18
1.26268e-17
-4.62479e-18
-1.66566e-18
1.82362e-18
1.46534e-19
-3.29074e-19
9.46939e-18
1.08653e-16
-1.26679e-17
-8.73176e-17
7.66355e-17
9.25172e-18
-8.26919e-18
-7.36012e-18
2.45271e-17
-3.04292e-17
1.85637e-17
-1.8973e-17
3.01612e-18
-3.78506e-18
7.00826e-18
-4.66472e-18
0
0
3.41933e-19
0
2.73222e-17
-8.28769e-17
9.466e-17
-7.76107e-17
7.74259e-17
0
2.74603e-17
-2.75861e-17
-2.10654e-17
3.13115e-17
0
1.32237e-17
-1.67064e-17
-2.47913e-18
0
-2.83232e-19
-5.75619e-19
-3.79183e-21
-2.58221e-16
1.23568e-16
0
-8.49718e-17
8.49633e-17
5.29309e-17
-3.48131e-17
1.45826e-17
0
-6.68106e-19
5.10486e-18
-4.79164e-18
-7.24489e-18
1.12611e-17
-1.19742e-17
0
2.66907e-18
-6.12662e-19
-3.56083e-19
1.59245e-16
-1.56993e-16
0
2.19959e-17
2.01886e-17
-1.85623e-17
0
-1.52827e-17
-1.33875e-17
0
-5.05979e-19
0
8.27073e-18
0
0
3.86629e-18
1.46069e-17
-1.88546e-17
0
2.36354e-20
2.37285e-17
-2.20888e-17
1.83919e-17
-9.33137e-17
3.59166e-17
0
3.18209e-18
9.04148e-18
0
-9.47951e-18
2.81928e-17
-2.96181e-17
5.11014e-18
0
-5.15569e-19
0
0
0
2.23927e-20
0
2.04156e-17
0
-3.24509e-17
3.29668e-17
0
1.22297e-17
-9.97272e-18
3.65363e-17
-1.77019e-17
6.57106e-18
-1.07363e-17
1.04127e-17
-1.61517e-17
-2.60095e-18
0
-1.81566e-18
0
6.21232e-17
-1.05e-16
0
-1.74349e-17
1.58385e-17
0
0
-2.24141e-17
0
-8.49845e-18
-1.38997e-17
-6.03941e-18
9.84346e-18
0
5.5411e-18
0
0
3.99864e-18
-4.46047e-18
0
9.14998e-17
-7.33213e-17
1.61408e-17
-1.46665e-17
-6.15827e-18
1.78654e-17
2.04333e-17
-2.55474e-17
8.26576e-18
4.61163e-19
-8.14766e-18
3.35579e-17
-1.04648e-17
-2.50889e-17
8.76396e-18
-2.35184e-18
1.40127e-18
-4.42609e-19
-1.46949e-16
5.45835e-17
0
0
6.32846e-18
-6.43533e-18
4.81998e-18
3.35278e-18
2.3203e-17
1.21803e-17
-1.21888e-17
-3.77406e-19
-7.19887e-18
5.86998e-18
0
3.06742e-18
2.15563e-18
1.1983e-18
4.00056e-19
0
4.76458e-17
-4.48795e-17
1.44834e-17
1.53437e-17
-2.97806e-18
-9.86889e-18
-8.59191e-18
-2.91275e-17
1.20534e-17
-7.756e-18
1.03298e-17
6.73183e-18
-8.73013e-18
9.2665e-18
6.151e-18
-7.90917e-18
-1.10681e-18
0
-8.30407e-18
-3.7753e-17
1.36676e-17
1.28969e-17
-4.52909e-17
3.26796e-17
1.68638e-17
-1.72374e-17
1.36416e-17
-1.14393e-17
0
0
-1.03559e-17
1.87519e-17
-8.3744e-18
8.12634e-18
-8.86443e-18
1.50113e-18
-2.66901e-18
1.5652e-17
1.47608e-17
-1.361e-17
1.10109e-17
-1.26204e-17
-1.99306e-17
0
0
0
0
0
0
5.34603e-18
-1.44856e-17
1.53201e-17
-5.15553e-18
6.34679e-18
3.04258e-18
-2.58559e-18
3.23062e-17
-5.62089e-17
7.03963e-17
-3.40762e-17
4.69893e-17
-3.57553e-17
6.73512e-17
-3.8567e-17
-2.17048e-17
2.2203e-17
0
6.4677e-18
-5.2228e-18
1.32621e-17
-4.26979e-18
-5.73807e-18
-1.2506e-17
9.25544e-19
2.20853e-18
5.021e-17
1.47049e-17
0
-2.36239e-17
-1.92126e-17
4.44466e-17
4.97751e-18
-1.8802e-17
1.13442e-17
-8.36713e-18
0
-5.11992e-18
0
-4.38112e-18
3.60382e-18
-3.30578e-18
-1.1016e-18
7.90844e-19
0
7.02232e-17
-1.55447e-17
6.68914e-17
-5.24512e-17
-1.08249e-17
4.39143e-17
-2.63307e-17
1.22036e-18
1.02432e-18
-8.20705e-18
7.96557e-18
0
0
5.27598e-18
-1.99703e-18
1.32863e-18
3.98261e-18
-1.38504e-18
0
1.3875e-20
0
-1.47314e-17
8.82428e-17
-5.99375e-17
-6.59022e-17
3.62045e-17
-3.94975e-17
3.69121e-17
1.89103e-17
-1.47166e-17
6.10008e-18
-5.50605e-18
9.09626e-19
9.50401e-18
4.14724e-19
-3.74679e-18
3.70836e-18
-7.55456e-19
1.71617e-16
-5.49066e-17
2.78295e-17
-8.54874e-17
2.39273e-17
-3.84724e-17
2.04663e-17
0
0
-7.8656e-19
-1.04676e-18
-3.08019e-19
0
-8.18824e-18
-6.33869e-18
4.72394e-18
-3.48526e-19
5.91395e-19
1.4792e-18
0
-5.49556e-17
9.47419e-17
2.22635e-17
-7.88262e-17
2.17226e-17
-3.43519e-17
5.1241e-18
2.85762e-17
0
0
5.39701e-19
6.5792e-18
0
-6.07773e-18
-2.82392e-18
4.13876e-19
-1.51116e-18
-1.69573e-18
0
-3.50256e-17
6.91908e-18
6.39892e-17
4.95367e-17
-9.15038e-17
4.19997e-17
-3.05488e-17
1.62138e-17
-2.34032e-17
0
0
0
-1.07316e-17
3.05677e-18
-3.64885e-18
0
-2.29498e-19
1.15418e-18
-1.29415e-16
1.23088e-16
1.34703e-16
-1.63767e-16
7.87146e-17
-7.44163e-17
0
3.20498e-17
-4.42065e-17
2.60786e-17
-2.08469e-17
1.7386e-17
1.43919e-17
1.10988e-17
8.86009e-18
0
0
0
0
1.42326e-16
-8.31917e-17
0
0
-2.8504e-17
7.10558e-17
-4.5627e-17
-3.37962e-17
3.34153e-17
2.57452e-17
4.39822e-17
-1.80397e-17
7.7012e-18
5.96527e-18
4.47774e-18
3.63032e-18
5.91193e-18
-2.91937e-19
2.97364e-19
-1.44615e-16
1.33742e-16
7.29685e-17
-3.77358e-17
8.54714e-17
-5.50047e-17
-4.46324e-17
-3.84182e-17
0
-5.37415e-17
2.36377e-18
2.02957e-17
-1.62709e-17
-1.34113e-17
-4.96855e-18
-5.31795e-18
-4.24253e-18
0
0
-4.97478e-17
0
3.94466e-17
-7.13916e-20
0
0
4.60397e-17
3.96421e-17
0
2.89774e-17
0
-3.08531e-17
-8.70047e-18
1.55483e-17
0
1.00771e-17
-1.42956e-18
1.45834e-18
0
1.05441e-16
0
7.63994e-17
-1.42726e-16
1.28747e-16
1.06448e-16
-2.9503e-18
0
2.68416e-18
3.32057e-17
0
-3.41615e-17
3.87952e-17
-3.46263e-17
-7.57837e-18
-8.11573e-18
-2.36797e-18
-4.18855e-19
-1.45838e-18
-9.89417e-17
1.42769e-16
-4.10351e-17
-1.0885e-16
-6.39135e-17
-5.61456e-17
-9.84449e-17
-4.04733e-17
2.88656e-18
1.53094e-17
-1.52806e-17
4.95697e-17
-2.19295e-17
4.45309e-17
-8.34755e-18
0
9.36769e-18
-5.47447e-18
1.48004e-18
2.16845e-16
-4.30827e-18
-1.69232e-16
1.43051e-16
-1.29878e-16
1.14955e-16
-3.26842e-18
-4.50018e-17
3.98192e-17
1.62024e-17
-1.95533e-18
-4.02262e-17
1.18056e-17
1.21008e-17
-3.74451e-18
3.78722e-18
-9.70265e-18
-8.66457e-19
-2.20833e-18
1.06452e-16
4.57337e-17
8.14419e-17
-7.26148e-17
-6.12621e-17
2.85072e-18
-4.84815e-17
1.17764e-16
3.58116e-18
5.5878e-17
3.29723e-17
-2.93397e-17
0
-2.09456e-17
0
0
1.31116e-17
5.82242e-18
2.58224e-18
1.0037e-16
0
8.0511e-17
7.21461e-17
-6.49903e-17
5.77488e-17
0
-4.6248e-17
-6.45578e-17
-5.70279e-17
-3.32641e-17
2.96715e-17
0
0
0
0
-1.22874e-17
-8.92761e-18
0
-1.96679e-16
0
-3.5453e-18
-3.1303e-18
9.87027e-17
-5.67627e-17
-2.62784e-17
-2.6367e-17
6.52585e-17
0
1.72981e-17
-1.84629e-18
1.53057e-17
0
0
2.00587e-17
-1.48945e-18
1.07171e-17
-3.99552e-18
1.38618e-16
4.05968e-17
-4.01777e-17
-3.6023e-17
-1.27161e-16
8.8305e-17
1.07745e-16
-2.55675e-18
-4.43266e-17
4.35291e-17
9.20731e-18
-4.64801e-17
-3.83732e-17
-2.28685e-17
-2.41504e-17
-2.3117e-17
1.88805e-17
-8.93927e-19
4.09225e-18
-4.27679e-17
1.96426e-17
-9.49839e-17
1.65676e-17
-1.65073e-17
0
-5.34043e-17
-3.28174e-18
-4.94893e-17
3.7222e-18
4.83571e-17
3.60702e-17
-8.78401e-18
4.07134e-18
2.29869e-17
0
-3.90868e-17
-1.42241e-17
-2.96267e-19
8.65185e-17
-2.39103e-18
1.49291e-16
-7.16491e-17
1.30942e-19
1.93087e-18
5.8249e-17
-4.07331e-18
4.79964e-17
-4.49636e-17
-4.22495e-17
0
4.15209e-17
3.34224e-17
4.59476e-19
-6.67094e-19
2.10466e-17
1.44587e-17
0
-6.15923e-17
0
-1.53751e-17
6.81699e-17
8.85579e-19
1.578e-17
-5.63259e-17
5.33911e-17
5.5912e-17
5.3524e-17
5.13684e-17
0
-4.03368e-17
0
2.11311e-18
-2.19466e-18
0
-2.07881e-19
1.01954e-17
4.23802e-17
2.00226e-18
-3.44168e-17
1.05752e-16
-3.40785e-17
0
0
-6.21741e-17
-5.4173e-17
-5.18528e-17
-9.35283e-17
-1.30595e-17
0
0
0
-4.28629e-18
4.53597e-18
2.89045e-17
-1.03504e-17
2.06633e-18
0
-7.3333e-17
-6.76774e-17
7.05338e-17
-6.99669e-17
-1.00467e-16
1.23934e-16
3.4092e-17
0
5.48789e-17
6.16671e-17
-1.33156e-17
7.2145e-17
-1.18026e-17
1.22836e-17
4.76022e-17
-2.74667e-17
0
-8.10584e-17
0
-7.78656e-17
7.64083e-17
0
1.38985e-16
6.54825e-17
-1.36923e-16
1.08908e-16
-7.41987e-19
-3.30536e-17
-5.97064e-17
0
8.16672e-17
-1.37111e-16
1.47076e-16
-1.87412e-16
0
0
8.06631e-17
-4.7661e-19
-1.17463e-18
-1.53646e-16
1.54846e-16
-7.50042e-17
7.46985e-17
7.36121e-17
-6.55334e-17
0
0
1.2232e-16
-1.24428e-16
-1.33265e-16
1.32035e-16
-1.28571e-16
1.39016e-16
-2.17718e-16
0
)
;

boundaryField
{
    up
    {
        type            calculated;
        value           nonuniform List<scalar> 
84
(
0
0
0
0
-7.44416e-18
1.34427e-17
-5.61867e-18
4.09224e-18
-3.57048e-18
0
-2.89947e-18
2.76252e-18
-1.9663e-18
1.60612e-19
1.36599e-19
1.45965e-18
0
0
-9.20666e-19
6.83142e-19
6.98307e-19
-6.7805e-19
6.34743e-20
0
2.79508e-19
1.24913e-19
-2.54823e-18
0
3.4046e-18
4.02956e-18
5.18809e-19
-8.94089e-19
3.51797e-19
0
-1.73139e-19
3.42065e-19
-3.175e-19
5.0497e-19
0
-8.72408e-20
0
0
-4.49331e-20
8.93532e-20
-8.63355e-20
1.72743e-19
-3.29074e-19
3.41933e-19
-3.79183e-21
-3.56083e-19
0
0
0
-4.46047e-18
-6.00706e-19
4.00056e-19
0
-2.66901e-18
-2.58559e-18
1.92999e-18
0
0
-7.55456e-19
1.4792e-18
-1.69573e-18
1.15418e-18
0
2.97364e-19
0
0
-1.45838e-18
1.48004e-18
-2.20833e-18
2.58224e-18
0
-3.99552e-18
4.09225e-18
-2.96267e-19
0
1.01954e-17
-1.03504e-17
0
0
0
)
;
    }
    low
    {
        type            calculated;
        value           nonuniform List<scalar> 
84
(
-1.61473e-16
1.61392e-16
-7.9156e-17
1.24534e-16
2.18031e-17
-5.66568e-18
4.73509e-17
4.56218e-18
0
2.01316e-16
-5.10246e-17
4.29598e-17
-4.7274e-17
-3.04103e-16
4.97045e-17
0
-4.63049e-17
3.51182e-18
-3.35571e-18
-3.74087e-17
1.91116e-17
5.13622e-17
8.69234e-17
-7.79146e-17
0
-1.50997e-17
-7.7639e-18
0
-7.11621e-17
-2.00771e-17
-6.75431e-17
-7.30856e-17
7.90818e-17
2.71587e-17
1.86359e-16
1.49242e-17
0
1.25155e-16
1.21276e-16
6.88651e-17
-3.6556e-17
1.4948e-17
1.49485e-17
0
5.95061e-17
1.36747e-16
1.0989e-16
9.61977e-18
0
-2.58216e-16
1.59245e-16
2.36354e-20
2.23927e-20
6.21232e-17
0
-1.46646e-16
0
-8.30407e-18
1.5652e-17
3.21283e-17
4.9896e-17
6.99287e-17
1.3875e-20
1.71369e-16
0
0
-1.29415e-16
1.42194e-16
-1.44523e-16
-4.97478e-17
1.05432e-16
-9.89417e-17
2.17146e-16
1.0667e-16
1.0037e-16
-1.96679e-16
1.38372e-16
-4.25106e-17
8.65185e-17
-6.14891e-17
4.23802e-17
2.25309e-18
-8.10584e-17
8.07144e-17
)
;
    }
    left
    {
        type            calculated;
        value           nonuniform List<scalar> 
19
(
-1.6137e-16
-7.86499e-17
7.96986e-17
1.58674e-18
-1.52275e-16
0
-7.13326e-17
-7.03348e-17
-4.68293e-18
-3.69393e-17
-3.52198e-19
-3.67125e-17
1.62957e-16
-3.62718e-17
1.69566e-16
1.4626e-16
8.69795e-17
1.27534e-16
0
)
;
    }
    right
    {
        type            calculated;
        value           nonuniform List<scalar> 
19
(
8.06631e-17
-4.20344e-19
-1.17463e-18
-1.53645e-16
1.54884e-16
-7.50042e-17
7.46985e-17
7.36121e-17
-6.53075e-17
0
0
1.23484e-16
-1.26067e-16
-1.33265e-16
1.32035e-16
-1.28571e-16
1.39016e-16
-2.35449e-16
0
)
;
    }
    frontAndBackPlanes
    {
        type            empty;
    }
}


// ************************************************************************* //
