/*--------------------------------*- C++ -*----------------------------------*\
  =========                 |
  \\      /  F ield         | OpenFOAM: The Open Source CFD Toolbox
   \\    /   O peration     | Website:  https://openfoam.org
    \\  /    A nd           | Version:  7
     \\/     M anipulation  |
\*---------------------------------------------------------------------------*/
FoamFile
{
    version     2.0;
    format      ascii;
    class       volScalarField;
    location    "0.19";
    object      gradTx;
}
// * * * * * * * * * * * * * * * * * * * * * * * * * * * * * * * * * * * * * //

dimensions      [0 -1 0 1 0 0 0];

internalField   nonuniform List<scalar> 
1596
(
-0.251542
-1.26143
-2.25417
-3.14027
-3.91039
-4.55991
-5.119
-5.60739
-6.05317
-6.5095
-6.99331
-7.56885
-8.30988
-9.32023
-10.7198
-12.8029
-16.019
-21.3371
-30.7606
0.0563305
-1.047
-2.02437
-2.86213
-3.57752
-4.17309
-4.67642
-5.09759
-5.45802
-5.78629
-6.08809
-6.39949
-6.73616
-7.11975
-7.54301
-7.98822
-8.33137
-8.31574
-7.39348
0.309417
-0.848478
-1.79231
-2.571
-3.22206
-3.75682
-4.19929
-4.55623
-4.84222
-5.07318
-5.24933
-5.39063
-5.4961
-5.56674
-5.58465
-5.51614
-5.26329
-4.65175
-3.3353
0.352192
-0.736836
-1.59548
-2.29175
-2.86663
-3.33523
-3.71639
-4.01547
-4.2418
-4.40378
-4.50033
-4.54167
-4.52304
-4.44003
-4.2782
-4.01068
-3.57585
-2.87101
-1.69177
0.113406
-0.758753
-1.46864
-2.05357
-2.53889
-2.936
-3.25636
-3.50375
-3.68327
-3.79824
-3.84803
-3.83652
-3.75908
-3.61045
-3.38134
-3.05306
-2.59042
-1.93633
-0.975018
-0.384571
-0.932571
-1.43907
-1.88459
-2.2665
-2.58565
-2.84429
-3.0434
-3.18424
-3.26627
-3.28945
-3.25324
-3.15378
-2.98582
-2.74384
-2.41463
-1.97918
-1.40643
-0.632252
-1.0455
-1.24413
-1.51908
-1.80487
-2.07107
-2.3049
-2.49873
-2.64947
-2.75465
-2.81053
-2.81704
-2.77051
-2.66746
-2.50259
-2.27235
-1.96667
-1.57551
-1.08187
-0.450582
-1.73591
-1.63391
-1.68547
-1.80782
-1.95331
-2.09732
-2.2237
-2.32471
-2.39436
-2.42625
-2.41957
-2.36851
-2.26947
-2.11692
-1.90807
-1.63442
-1.29049
-0.866637
-0.343524
-2.44926
-2.13692
-1.99152
-1.95027
-1.9659
-2.00839
-2.05639
-2.098
-2.12421
-2.12636
-2.10223
-2.04446
-1.9488
-1.80919
-1.62261
-1.38114
-1.0811
-0.716197
-0.275165
-2.87754
-2.49016
-2.22961
-2.07175
-1.9848
-1.94201
-1.92182
-1.91033
-1.89685
-1.87148
-1.83071
-1.76643
-1.67383
-1.54658
-1.3813
-1.17049
-0.911127
-0.598588
-0.225799
-3.22853
-2.8111
-2.48213
-2.23832
-2.06494
-1.94356
-1.85644
-1.79018
-1.7339
-1.67732
-1.61588
-1.54119
-1.44786
-1.3293
-1.18153
-0.997206
-0.77315
-0.505292
-0.188555
-3.58918
-3.17086
-2.79968
-2.48861
-2.23779
-2.03909
-1.88131
-1.75394
-1.64741
-1.55198
-1.4625
-1.37053
-1.2701
-1.15426
-1.01831
-0.85479
-0.659945
-0.429552
-0.15915
-3.69459
-3.33253
-2.97098
-2.639
-2.34917
-2.10309
-1.8967
-1.72381
-1.57755
-1.44984
-1.33588
-1.22787
-1.11981
-1.0048
-0.877811
-0.731503
-0.561697
-0.364015
-0.134174
-3.72952
-3.42815
-3.09606
-2.76506
-2.45549
-2.17721
-1.93296
-1.72158
-1.53963
-1.3814
-1.24314
-1.11802
-1.0003
-0.883304
-0.761792
-0.628584
-0.479099
-0.308751
-0.11323
-3.7361
-3.48936
-3.19301
-2.87527
-2.55905
-2.25995
-1.98653
-1.74266
-1.52873
-1.34181
-1.17969
-1.03679
-0.907856
-0.786556
-0.667542
-0.543783
-0.41036
-0.262462
-0.0956425
-3.65962
-3.47173
-3.21877
-2.92709
-2.61958
-2.31489
-2.02577
-1.76045
-1.52302
-1.31353
-1.13169
-0.973406
-0.834205
-0.708282
-0.590377
-0.473694
-0.353119
-0.223698
-0.0808596
-3.49476
-3.36342
-3.1585
-2.90276
-2.61737
-2.3219
-2.03145
-1.75748
-1.50729
-1.28371
-1.08854
-0.919342
-0.77264
-0.643347
-0.526491
-0.41562
-0.305593
-0.191439
-0.0685416
-3.29646
-3.20181
-3.03957
-2.82174
-2.56501
-2.28782
-2.00608
-1.7333
-1.47919
-1.24901
-1.0465
-0.870879
-0.719745
-0.58881
-0.473502
-0.367761
-0.266534
-0.164939
-0.05842
-3.13049
-3.06513
-2.93533
-2.74787
-2.51532
-2.25439
-1.98121
-1.71064
-1.45432
-1.2195
-1.01156
-0.831159
-0.6768
-0.544858
-0.431053
-0.329589
-0.235448
-0.143834
-0.0503227
-2.8275
-2.80176
-2.71077
-2.56218
-2.36566
-2.13534
-1.88624
-1.63325
-1.38896
-1.16201
-0.95911
-0.782258
-0.630981
-0.502478
-0.392962
-0.297023
-0.209787
-0.126688
-0.0437402
-2.48619
-2.49174
-2.43596
-2.32463
-2.1652
-1.96927
-1.75017
-1.522
-1.29751
-1.08602
-0.895039
-0.727614
-0.584136
-0.462612
-0.359785
-0.270623
-0.190263
-0.114158
-0.0388682
-2.12537
-2.15077
-2.12399
-2.04666
-1.92352
-1.7636
-1.57829
-1.38033
-1.18193
-0.992463
-0.819666
-0.667224
-0.536149
-0.425197
-0.331727
-0.251148
-0.178435
-0.108329
-0.0368558
-1.72034
-1.75505
-1.75171
-1.70691
-1.62188
-1.50246
-1.35754
-1.19779
-1.03419
-0.875485
-0.728977
-0.598607
-0.485717
-0.389809
-0.309103
-0.239882
-0.177224
-0.114582
-0.0439835
-1.25896
-1.24117
-1.19559
-1.12308
-1.0287
-0.91971
-0.804355
-0.690141
-0.583494
-0.488369
-0.406607
-0.338103
-0.281196
-0.233855
-0.194031
-0.159284
-0.126298
-0.0895643
-0.0398833
-0.841364
-0.931802
-1.02305
-1.09643
-1.13962
-1.14615
-1.11631
-1.05499
-0.970923
-0.873559
-0.771206
-0.67089
-0.576457
-0.491043
-0.416525
-0.353714
-0.300914
-0.254037
-0.204039
-0.283315
-0.322416
-0.371868
-0.421427
-0.463432
-0.492604
-0.507168
-0.507404
-0.496208
-0.477065
-0.452302
-0.424514
-0.393668
-0.360591
-0.326508
-0.294442
-0.266107
-0.24341
-0.225779
0.275898
0.228434
0.159248
0.0777179
-0.00703021
-0.0873284
-0.158189
-0.216959
-0.263742
-0.300008
-0.326523
-0.34447
-0.352543
-0.350246
-0.338108
-0.320066
-0.299795
-0.281663
-0.266979
0.832364
0.76753
0.671795
0.555505
0.428935
0.301316
0.179675
0.0684257
-0.030812
-0.118296
-0.19397
-0.257937
-0.307578
-0.340275
-0.354388
-0.353254
-0.341865
-0.327334
-0.313331
1.33246
1.23904
1.11093
0.960093
0.797108
0.631532
0.470811
0.319618
0.179938
0.0516437
-0.0652698
-0.170656
-0.261045
-0.331407
-0.376359
-0.396334
-0.395783
-0.384521
-0.369702
1.84649
1.71692
1.55177
1.36341
1.1628
0.959822
0.762039
0.573992
0.397561
0.232216
0.0772601
-0.0679986
-0.200531
-0.313867
-0.398253
-0.448661
-0.465391
-0.459326
-0.442424
2.22865
2.05811
1.85753
1.63878
1.41247
1.1874
0.969733
0.762588
0.566786
0.380738
0.202564
0.0298366
-0.136422
-0.290533
-0.419649
-0.511755
-0.557392
-0.562586
-0.542083
2.58096
2.37587
2.14102
1.89289
1.64265
1.398
1.16372
0.941564
0.731436
0.53086
0.336937
0.145185
-0.0468042
-0.237507
-0.415509
-0.565017
-0.663226
-0.700991
-0.686777
2.90111
2.65075
2.3794
2.10374
1.83358
1.57459
1.32969
1.09915
0.882063
0.675393
0.475873
0.277828
0.0756184
-0.135492
-0.351476
-0.562788
-0.739981
-0.852796
-0.8714
3.1
2.78145
2.45551
2.13683
1.83268
1.54634
1.27883
1.02925
0.796017
0.575973
0.365703
0.159487
-0.0498014
-0.271839
-0.513066
-0.780117
-1.05979
-1.32647
-1.53177
3.21454
2.86871
2.54051
2.23864
1.96368
1.71362
1.48543
1.27583
1.082
0.901132
0.731129
0.569379
0.412747
0.256328
0.0934522
-0.0896183
-0.305651
-0.569066
-0.884371
3.29289
2.93786
2.62208
2.34158
2.0901
1.86239
1.65381
1.46083
1.28098
1.11215
0.953316
0.803823
0.662981
0.530651
0.407315
0.292025
0.183184
0.0754109
-0.0415923
3.10057
2.69628
2.35205
2.05441
1.79334
1.56184
1.35424
1.16628
0.99481
0.837028
0.691258
0.5563
0.43098
0.314944
0.208903
0.113701
0.0311856
-0.036218
-0.0874283
2.70927
2.34453
2.03842
1.77688
1.54993
1.35042
1.17279
1.01282
0.867533
0.734346
0.61176
0.498732
0.394216
0.297729
0.20939
0.1291
0.0570404
-0.0062624
-0.0609943
2.24192
1.93806
1.68194
1.46355
1.27491
1.10991
0.963723
0.832648
0.714062
0.60572
0.506276
0.414763
0.33016
0.251874
0.179781
0.113572
0.0532326
-0.000815599
-0.0486756
1.68265
1.44953
1.2548
1.09019
0.949033
0.826266
0.717981
0.621204
0.533859
0.454182
0.38111
0.313863
0.251615
0.193867
0.140492
0.0912515
0.0461709
0.00565123
-0.0303088
1.05731
0.901995
0.776355
0.672203
0.583959
0.507779
0.440909
0.381333
0.327674
0.278778
0.233947
0.192662
0.154373
0.118741
0.0856656
0.0549879
0.0267321
0.0011933
-0.0215698
0.405225
0.342172
0.293047
0.2529
0.219026
0.189804
0.164164
0.141354
0.120865
0.102267
0.0852847
0.0697022
0.0552883
0.0418812
0.029401
0.0177489
0.0068924
-0.00309208
-0.0121921
-0.405031
-0.341735
-0.292444
-0.252186
-0.218243
-0.188984
-0.163334
-0.140535
-0.120076
-0.101523
-0.0845997
-0.0690874
-0.0547538
-0.0414355
-0.0290508
-0.0174994
-0.0067471
0.0031329
0.0121303
-1.05712
-0.901607
-0.775824
-0.671577
-0.583275
-0.507067
-0.440193
-0.380633
-0.327007
-0.278159
-0.233388
-0.192173
-0.153965
-0.118421
-0.0854391
-0.0548602
-0.0267057
-0.00126769
0.0213979
-1.68247
-1.44915
-1.25428
-1.08957
-0.948343
-0.825538
-0.717238
-0.620468
-0.533147
-0.45351
-0.380489
-0.313303
-0.251123
-0.193449
-0.140151
-0.0909886
-0.0459847
-0.00553783
0.0303551
-2.24178
-1.93779
-1.68157
-1.46311
-1.27443
-1.1094
-0.963212
-0.83215
-0.713591
-0.605288
-0.505895
-0.41444
-0.329902
-0.251684
-0.179661
-0.113521
-0.0532484
0.00073809
0.0485422
-2.70918
-2.34436
-2.03816
-1.77657
-1.54957
-1.35004
-1.1724
-1.01244
-0.867175
-0.734022
-0.61148
-0.498505
-0.394046
-0.297621
-0.209343
-0.129109
-0.0570982
0.00616854
0.0608808
-3.10056
-2.69622
-2.35193
-2.05424
-1.79314
-1.56162
-1.35402
-1.16607
-0.994633
-0.836892
-0.691176
-0.55628
-0.43103
-0.31507
-0.209106
-0.11397
-0.0314927
0.0359215
0.0871986
-3.29287
-2.93757
-2.62143
-2.34056
-2.08871
-1.86067
-1.65181
-1.45861
-1.27858
-1.10961
-0.950687
-0.801129
-0.660238
-0.52787
-0.404513
-0.289266
-0.180625
-0.0733898
0.0425205
-3.2151
-2.87022
-2.54299
-2.24205
-1.96795
-1.71865
-1.49111
-1.28207
-1.0887
-0.908206
-0.738536
-0.577114
-0.42086
-0.264949
-0.102794
0.0792428
0.293955
0.555965
0.870267
-3.09976
-2.78079
-2.45439
-2.13525
-1.83069
-1.54399
-1.27619
-1.02638
-0.792996
-0.572858
-0.36255
-0.156348
0.0528781
0.274823
0.515988
0.783138
1.06332
1.3312
1.53862
-2.9013
-2.65121
-2.38009
-2.10461
-1.83459
-1.5757
-1.33087
-1.10038
-0.883312
-0.676654
-0.477142
-0.279105
-0.0768944
0.134262
0.350407
0.56209
0.739901
0.853478
0.872634
-2.58108
-2.37616
-2.14145
-1.89344
-1.64329
-1.39871
-1.16448
-0.942352
-0.73224
-0.531668
-0.337739
-0.145964
0.0460879
0.23693
0.415191
0.565089
0.663751
0.701885
0.687853
-2.22878
-2.0584
-1.85798
-1.63935
-1.41315
-1.18814
-0.970515
-0.763387
-0.567579
-0.381506
-0.203286
-0.0304822
0.135901
0.290206
0.41959
0.512006
0.557922
0.563286
0.542823
-1.84661
-1.71721
-1.55223
-1.36401
-1.1635
-0.960595
-0.762846
-0.574802
-0.398344
-0.232944
-0.077907
0.0674656
0.200154
0.313691
0.398307
0.448936
0.46583
0.459851
0.442975
-1.33257
-1.23932
-1.11137
-0.960669
-0.797788
-0.632274
-0.471577
-0.32037
-0.180644
-0.0522745
0.0647404
0.170255
0.260802
0.331342
0.376473
0.396598
0.396147
0.384936
0.370139
-0.832482
-0.767826
-0.672259
-0.556111
-0.429643
-0.302079
-0.180447
-0.0691629
0.0301441
0.117726
0.19352
0.257626
0.307419
0.34027
0.354521
0.353494
0.342174
0.327681
0.313701
-0.276
-0.228717
-0.159701
-0.0783108
0.00634322
0.086599
0.157469
0.216292
0.263162
0.29954
0.326182
0.344263
0.352471
0.350299
0.338264
0.320297
0.300075
0.281977
0.267321
0.283073
0.321688
0.370643
0.419761
0.461434
0.490413
0.50493
0.505248
0.494235
0.475345
0.450868
0.423377
0.392812
0.359983
0.326102
0.294197
0.265993
0.24343
0.225988
0.841528
0.932431
1.02424
1.09819
1.14189
1.14881
1.11922
1.05799
0.973864
0.876337
0.773745
0.673156
0.57844
0.492762
0.418012
0.355014
0.30207
0.255084
0.204989
1.25878
1.24052
1.19448
1.12156
1.0269
0.917744
0.802356
0.688217
0.581727
0.486809
0.405277
0.337004
0.280313
0.233164
0.193503
0.158893
0.126022
0.0893891
0.0398121
1.72044
1.75525
1.75201
1.70729
1.6223
1.50289
1.35794
1.19814
1.03448
0.8757
0.729128
0.598703
0.485772
0.389835
0.30911
0.239878
0.177215
0.114574
0.0439807
2.12538
2.15079
2.12402
2.04668
1.92355
1.76362
1.5783
1.38033
1.18192
0.992446
0.819642
0.667197
0.536121
0.425171
0.331705
0.251131
0.178422
0.108323
0.0368551
2.4862
2.49176
2.43598
2.32465
2.16522
1.96928
1.75017
1.522
1.2975
1.086
0.895018
0.727592
0.584115
0.462593
0.35977
0.270612
0.190257
0.114155
0.0388676
2.8275
2.80177
2.71079
2.56219
2.36567
2.13534
1.88624
1.63324
1.38895
1.162
0.959091
0.782239
0.630965
0.502465
0.392952
0.297017
0.209783
0.126686
0.0437397
3.1305
3.06515
2.93535
2.74789
2.51534
2.25439
1.98122
1.71063
1.45431
1.21949
1.01155
0.831146
0.676789
0.544849
0.431046
0.329585
0.235445
0.143832
0.0503221
3.29647
3.20182
3.03959
2.82175
2.56502
2.28782
2.00608
1.73329
1.47918
1.249
1.04649
0.870868
0.719736
0.588803
0.473496
0.367757
0.266531
0.164937
0.0584193
3.49477
3.36343
3.15851
2.90277
2.61738
2.3219
2.03144
1.75747
1.50728
1.2837
1.08853
0.919333
0.772632
0.64334
0.526485
0.415615
0.305589
0.191436
0.0685407
3.65963
3.47175
3.21879
2.92711
2.61958
2.3149
2.02577
1.76044
1.52301
1.31352
1.13168
0.973398
0.834197
0.708274
0.59037
0.473687
0.353114
0.223695
0.0808586
3.7361
3.48937
3.19302
2.87527
2.55905
2.25995
1.98652
1.74266
1.52872
1.3418
1.17968
1.03678
0.907846
0.786546
0.667532
0.543773
0.410353
0.262458
0.0956415
3.72953
3.42816
3.09607
2.76507
2.4555
2.17721
1.93296
1.72157
1.53962
1.3814
1.24313
1.11801
1.00029
0.883292
0.76178
0.628573
0.47909
0.308746
0.113229
3.6946
3.33255
2.971
2.63901
2.34917
2.10309
1.8967
1.72381
1.57755
1.44983
1.33587
1.22786
1.1198
1.00479
0.877798
0.731492
0.561689
0.364012
0.134174
3.58917
3.17085
2.79968
2.4886
2.23777
2.03908
1.8813
1.75393
1.6474
1.55197
1.46248
1.37051
1.27009
1.15424
1.01829
0.854778
0.659937
0.42955
0.159151
3.22855
2.81112
2.48214
2.23833
2.06494
1.94356
1.85643
1.79018
1.73389
1.67731
1.61586
1.54117
1.44785
1.32928
1.18152
0.997199
0.773147
0.505293
0.188557
2.87757
2.49019
2.22962
2.07176
1.9848
1.94201
1.92182
1.91032
1.89684
1.87147
1.83069
1.76641
1.67382
1.54657
1.38129
1.17049
0.91113
0.598593
0.225802
2.44929
2.13694
1.99153
1.95028
1.9659
2.00838
2.05639
2.098
2.1242
2.12635
2.10222
2.04445
1.94879
1.80918
1.62261
1.38115
1.08111
0.716205
0.275168
1.73593
1.63392
1.68547
1.80782
1.95331
2.09731
2.2237
2.3247
2.39435
2.42624
2.41956
2.36851
2.26947
2.11693
1.90808
1.63443
1.2905
0.866645
0.343526
1.04552
1.24414
1.51908
1.80488
2.07108
2.3049
2.49873
2.64947
2.75464
2.81053
2.81703
2.77051
2.66746
2.50259
2.27237
1.96669
1.57552
1.08188
0.450582
0.384582
0.93258
1.43908
1.8846
2.2665
2.58566
2.84429
3.04339
3.18424
3.26627
3.28945
3.25325
3.15378
2.98584
2.74385
2.41464
1.9792
1.40643
0.63225
-0.1134
0.758761
1.46865
2.05358
2.5389
2.93601
3.25636
3.50375
3.68327
3.79824
3.84803
3.83653
3.75909
3.61046
3.38135
3.05307
2.59043
1.93633
0.975014
-0.352192
0.736843
1.59549
2.29176
2.86663
3.33523
3.71639
4.01547
4.24181
4.40379
4.50034
4.54168
4.52305
4.44005
4.27821
4.01068
3.57585
2.87101
1.69177
-0.309419
0.84848
1.79231
2.57099
3.22206
3.75682
4.19929
4.55624
4.84222
5.07318
5.24934
5.39064
5.49611
5.56674
5.58465
5.51614
5.26328
4.65174
3.3353
-0.0563306
1.047
2.02436
2.86212
3.57752
4.17309
4.67643
5.09759
5.45802
5.78629
6.0881
6.3995
6.73616
7.11975
7.543
7.98821
8.33136
8.31573
7.39348
0.251544
1.26144
2.25417
3.14027
3.91039
4.55991
5.119
5.60739
6.05318
6.50951
6.99331
7.56884
8.30987
9.32021
10.7198
12.8029
16.019
21.3371
30.7606
)
;

boundaryField
{
    up
    {
        type            calculated;
        value           nonuniform List<scalar> 
84
(
-30.7606
-7.39348
-3.3353
-1.69177
-0.975018
-0.632252
-0.450582
-0.343524
-0.275165
-0.225799
-0.188555
-0.15915
-0.134174
-0.11323
-0.0956425
-0.0808596
-0.0685416
-0.05842
-0.0503227
-0.0437402
-0.0388682
-0.0368558
-0.0439835
-0.0398833
-0.17348
-0.209467
-0.24987
-0.293761
-0.346349
-0.413525
-0.503808
-0.627035
-0.777178
-1.5043
-0.910611
-0.0431225
-0.0871169
-0.0607678
-0.0485475
-0.0302611
-0.0215526
-0.0121918
0.01213
0.021381
0.0303078
0.048415
0.0606556
0.0868882
0.0440275
0.896193
1.51236
0.778293
0.627964
0.504483
0.414041
0.346765
0.29412
0.250209
0.209762
0.174334
0.0398121
0.0439807
0.0368551
0.0388676
0.0437397
0.0503221
0.0584193
0.0685407
0.0808586
0.0956415
0.113229
0.134174
0.159151
0.188557
0.225802
0.275168
0.343526
0.450582
0.63225
0.975014
1.69177
3.3353
7.39348
30.7606
)
;
    }
    low
    {
        type            calculated;
        value           nonuniform List<scalar> 
84
(
-0.226546
0.0942909
0.3706
0.418559
0.155044
-0.392258
-1.10864
-1.84178
-2.57159
-2.97812
-3.31707
-3.66092
-3.7262
-3.73669
-3.72804
-3.6288
-3.44425
-3.24074
-3.06213
-2.73556
-2.3824
-2.01872
-1.61557
-1.16674
-0.769052
-0.257173
0.246123
0.758514
1.23815
1.75292
2.15294
2.52034
2.86197
3.08835
3.22454
3.32827
3.16233
2.77485
2.30014
1.72883
1.08782
0.417967
-0.417771
-1.08763
-1.72863
-2.29998
-2.77473
-3.16229
-3.32822
-3.22501
-3.08812
-2.86212
-2.52044
-2.15306
-1.75304
-1.23826
-0.758638
-0.246227
0.256937
0.769213
1.16657
1.61565
2.01873
2.38241
2.73557
3.06214
3.24075
3.44426
3.62881
3.72804
3.73669
3.72621
3.6609
3.31709
2.97814
2.57162
1.8418
1.10866
0.392269
-0.155038
-0.41856
-0.370606
-0.0942948
0.226547
)
;
    }
    left
    {
        type            calculated;
        value           nonuniform List<scalar> 
19
(
-0.223606
-1.21205
-2.22565
-3.14298
-3.94669
-4.62676
-5.21548
-5.73584
-6.21573
-6.72123
-7.26895
-7.93058
-8.80162
-10.0198
-11.7352
-14.3605
-18.5195
-25.5656
-26.6787
)
;
    }
    right
    {
        type            calculated;
        value           nonuniform List<scalar> 
19
(
0.223608
1.21205
2.22565
3.14298
3.94669
4.62676
5.21548
5.73584
6.21573
6.72123
7.26895
7.93057
8.8016
10.0198
11.7352
14.3605
18.5195
25.5656
26.6788
)
;
    }
    frontAndBackPlanes
    {
        type            empty;
    }
}


// ************************************************************************* //
