/*--------------------------------*- C++ -*----------------------------------*\
  =========                 |
  \\      /  F ield         | OpenFOAM: The Open Source CFD Toolbox
   \\    /   O peration     | Website:  https://openfoam.org
    \\  /    A nd           | Version:  7
     \\/     M anipulation  |
\*---------------------------------------------------------------------------*/
FoamFile
{
    version     2.0;
    format      ascii;
    class       volScalarField;
    location    "0.19";
    object      T;
}
// * * * * * * * * * * * * * * * * * * * * * * * * * * * * * * * * * * * * * //

dimensions      [0 0 0 1 0 0 0];

internalField   nonuniform List<scalar> 
1596
(
4.98418
4.93893
4.89305
4.85038
4.81214
4.7781
4.74763
4.71909
4.69121
4.66104
4.62626
4.58369
4.52662
4.44607
4.32845
4.144
3.83768
3.29964
2.30964
4.93172
4.79115
4.65984
4.54136
4.4363
4.34335
4.26051
4.18422
4.11126
4.03601
3.9536
3.85806
3.73906
3.58432
3.37906
3.09639
2.69548
2.10674
1.1986
4.87001
4.63422
4.42428
4.23885
4.07611
3.93321
3.80683
3.69224
3.58498
3.47829
3.36621
3.24177
3.09424
2.91166
2.68127
2.38235
1.98742
1.45507
0.70873
4.80962
4.48539
4.20493
3.96088
3.74848
3.56329
3.40088
3.25578
3.12284
2.99488
2.86562
2.72789
2.5715
2.38568
2.15983
1.87821
1.52229
1.06744
0.469079
4.7602
4.3603
4.01855
3.72343
3.46789
3.24628
3.05337
2.88325
2.73043
2.58767
2.44866
2.30634
2.15123
1.97367
1.76464
1.51172
1.20175
0.819409
0.337947
4.72774
4.26921
3.87622
3.53684
3.24325
2.98933
2.76942
2.5775
2.40795
2.25363
2.10835
1.96522
1.81538
1.65003
1.46117
1.23843
0.971721
0.650671
0.258285
4.71273
4.21442
3.78086
3.40367
3.07622
2.79281
2.54796
2.33576
2.15069
1.98582
1.83511
1.69187
1.54776
1.39458
1.22494
1.02975
0.800623
0.529762
0.205437
4.71119
4.19087
3.72764
3.31918
2.96179
2.65124
2.38276
2.15094
1.95052
1.7749
1.61825
1.47405
1.33438
1.19148
1.03837
0.866755
0.669174
0.439147
0.167786
4.71933
4.1919
3.70914
3.27583
2.89238
2.55688
2.26585
2.01472
1.79874
1.61168
1.448
1.30135
1.16418
1.02907
0.889298
0.737078
0.565515
0.368765
0.139473
4.72959
4.20451
3.71099
3.25941
2.85439
2.49681
2.18495
1.91539
1.68407
1.48529
1.3138
1.1635
1.02712
0.897534
0.768214
0.631751
0.481596
0.312228
0.117169
4.73755
4.21842
3.72033
3.25645
2.83467
2.45858
2.12842
1.84207
1.59638
1.38625
1.20681
1.05219
0.915416
0.789619
0.668433
0.544753
0.412286
0.265685
0.0990061
4.74706
4.23592
3.73657
3.2642
2.82918
2.43743
2.09112
1.78952
1.53043
1.30943
1.12206
0.962704
0.82465
0.701236
0.586245
0.472815
0.354855
0.227129
0.0840357
4.75575
4.25325
3.75454
3.2763
2.83083
2.426
2.06571
1.7506
1.47945
1.24851
1.05371
0.889717
0.750026
0.628153
0.517996
0.412895
0.306923
0.194928
0.0715664
4.76062
4.26477
3.76732
3.2851
2.83162
2.41629
2.04448
1.71805
1.43668
1.19727
0.996158
0.828218
0.687127
0.566545
0.460461
0.362379
0.266518
0.1678
0.0610906
4.7644
4.27284
3.77586
3.29018
2.83003
2.40595
2.02451
1.68861
1.39876
1.1524
0.946181
0.775175
0.63318
0.513948
0.411525
0.319545
0.232343
0.14491
0.0522844
4.76791
4.27907
3.78136
3.29186
2.82545
2.39359
2.00383
1.65996
1.36311
1.11121
0.901139
0.728057
0.585829
0.468237
0.369344
0.282872
0.203246
0.125518
0.0448692
4.76986
4.28207
3.78245
3.28855
2.81594
2.37694
1.97992
1.62941
1.32704
1.07107
0.85849
0.684479
0.542879
0.427445
0.332211
0.250951
0.178156
0.10893
0.0385838
4.77084
4.28253
3.77983
3.28077
2.8017
2.35579
1.9522
1.59606
1.2894
1.03064
0.81682
0.642992
0.502904
0.390217
0.298891
0.222719
0.156237
0.0945929
0.0332127
4.77402
4.28552
3.77894
3.27368
2.78726
2.33387
1.92353
1.56195
1.25148
0.990641
0.776333
0.603422
0.46546
0.355939
0.268692
0.197495
0.136904
0.0820955
0.0285905
4.77836
4.29081
3.78025
3.2681
2.7735
2.31196
1.89448
1.5274
1.21336
0.950866
0.736631
0.565209
0.429868
0.323859
0.240845
0.174554
0.119547
0.0710176
0.0245549
4.78155
4.2952
3.78093
3.26183
2.75879
2.28885
1.86413
1.49169
1.17439
0.910741
0.697132
0.52774
0.395474
0.293288
0.214642
0.153211
0.10357
0.0609434
0.02095
4.78501
4.3001
3.78243
3.25645
2.74484
2.26629
1.83417
1.4563
1.13583
0.871189
0.65844
0.491311
0.362301
0.264016
0.189687
0.132939
0.0884102
0.0514183
0.0176036
4.7894
4.30678
3.78617
3.25355
2.7334
2.24612
1.8064
1.4229
1.09909
0.833328
0.621323
0.456341
0.330443
0.235857
0.16555
0.113094
0.0732598
0.0416417
0.0141292
4.79437
4.31485
3.7919
3.25311
2.72473
2.22889
1.78162
1.39243
1.06508
0.797905
0.586283
0.423031
0.299802
0.208437
0.14161
0.0927889
0.0568934
0.0300064
0.00902435
4.80276
4.33501
3.8197
3.28471
2.75685
2.25894
1.80782
1.41376
1.08113
0.808771
0.592428
0.425188
0.298844
0.205265
0.137064
0.0875757
0.051672
0.0255854
0.00672479
4.81225
4.3622
3.86276
3.34065
2.82178
2.3285
1.87775
1.48033
1.14144
0.860899
0.635432
0.459077
0.324369
0.223683
0.149845
0.0961281
0.0571275
0.028716
0.00786746
4.81723
4.37939
3.89307
3.38337
2.87477
2.38856
1.94115
1.54332
1.2007
0.913852
0.680379
0.495293
0.352037
0.243718
0.163618
0.105108
0.0626028
0.0316478
0.00882659
4.81777
4.38615
3.90964
3.41144
2.91409
2.43724
1.99619
1.60115
1.25771
0.966862
0.726918
0.533825
0.382029
0.265593
0.178549
0.114608
0.0681471
0.0344235
0.00963803
4.81552
4.38576
3.91662
3.42926
2.94399
2.47841
2.04622
1.65664
1.31489
1.02208
0.777051
0.57657
0.416092
0.290795
0.195762
0.125382
0.0742263
0.0373168
0.0104161
4.81087
4.38037
3.91746
3.44095
2.96866
2.51591
2.09458
1.71264
1.37467
1.08168
0.832844
0.625596
0.456279
0.321208
0.216762
0.138424
0.081374
0.0405716
0.0112424
4.80512
4.37352
3.91698
3.45181
2.99333
2.55457
2.1455
1.77273
1.4401
1.14839
0.896927
0.683604
0.505425
0.359659
0.244028
0.1555
0.090518
0.0445145
0.0121896
4.80134
4.37025
3.92091
3.46765
3.02352
2.59935
2.20328
1.8406
1.5144
1.22513
0.972205
0.753766
0.567172
0.410246
0.281724
0.18011
0.103798
0.0498538
0.0132743
4.79825
4.36889
3.92782
3.48739
3.05844
2.64971
2.2676
1.91617
1.59778
1.31258
1.05998
0.838312
0.645033
0.478043
0.336363
0.219329
0.127176
0.0597399
0.0145565
4.79565
4.36941
3.93793
3.51146
3.09866
2.70631
2.33921
2.00029
1.69125
1.412
1.162
0.93982
0.742988
0.56927
0.417313
0.286034
0.175815
0.0881804
0.023445
4.79243
4.36789
3.94405
3.52938
3.1306
2.75274
2.39924
2.07206
1.77234
1.49971
1.25373
1.03316
0.835764
0.659368
0.502251
0.362342
0.238459
0.130845
0.0397433
4.78521
4.35468
3.93099
3.52075
3.12901
2.75939
2.41421
2.0946
1.80116
1.53321
1.29019
1.07093
0.873347
0.695504
0.535943
0.392628
0.264107
0.149694
0.048014
4.77514
4.33395
3.90598
3.49578
3.10679
2.7414
2.401
2.086
1.79651
1.53151
1.29029
1.07168
0.873696
0.694616
0.533396
0.388472
0.259037
0.14512
0.0458406
4.76718
4.31772
3.88662
3.47669
3.09009
2.72823
2.39175
2.08049
1.7942
1.53158
1.29188
1.07394
0.875884
0.696186
0.534078
0.388257
0.25818
0.144137
0.0453846
4.76205
4.30691
3.8736
3.46388
3.07904
2.71979
2.38619
2.07766
1.79368
1.53278
1.29414
1.07666
0.878518
0.698333
0.535525
0.388953
0.258251
0.143901
0.0452658
4.75832
4.29905
3.86413
3.45459
3.07106
2.71371
2.3822
2.07565
1.79334
1.53368
1.29581
1.07865
0.880452
0.699911
0.536588
0.389461
0.258293
0.14372
0.045184
4.75558
4.29323
3.85712
3.44769
3.06505
2.70902
2.37895
2.07376
1.7926
1.53379
1.29646
1.07956
0.881348
0.700598
0.536961
0.389498
0.258066
0.143417
0.0450592
4.75296
4.28838
3.85161
3.44239
3.06042
2.70527
2.37613
2.07182
1.79141
1.53319
1.29627
1.07962
0.881514
0.700755
0.537043
0.389474
0.257952
0.143284
0.0450144
4.75297
4.2884
3.85164
3.44242
3.06045
2.70531
2.37617
2.07186
1.79145
1.53323
1.29631
1.07965
0.881544
0.700781
0.537064
0.389491
0.257964
0.143291
0.0450169
4.75561
4.29329
3.85721
3.44779
3.06516
2.70914
2.37907
2.07388
1.79272
1.5339
1.29657
1.07966
0.881439
0.700677
0.537028
0.389551
0.258105
0.14344
0.0450674
4.75836
4.29914
3.86426
3.45475
3.07123
2.7139
2.38239
2.07585
1.79353
1.53386
1.29598
1.07881
0.880596
0.700037
0.536693
0.389544
0.258353
0.143756
0.0451965
4.7621
4.30703
3.87377
3.46409
3.07928
2.72005
2.38645
2.07792
1.79393
1.53302
1.29437
1.07687
0.878709
0.698499
0.535663
0.389062
0.258329
0.143949
0.045282
4.76724
4.31787
3.88683
3.47695
3.09038
2.72855
2.39207
2.08082
1.79451
1.53189
1.29216
1.0742
0.876117
0.696388
0.534246
0.388388
0.258274
0.144193
0.0454037
4.77521
4.33412
3.90623
3.49608
3.10712
2.74176
2.40137
2.08638
1.79688
1.53186
1.29062
1.07198
0.873961
0.694843
0.533581
0.388615
0.259136
0.145177
0.045859
4.78528
4.35487
3.93126
3.52109
3.1294
2.7598
2.41464
2.09503
1.80158
1.5336
1.29056
1.07125
0.87363
0.695737
0.536123
0.392754
0.264183
0.14973
0.0480226
4.79252
4.36817
3.94448
3.52995
3.13127
2.7535
2.40006
2.07292
1.77321
1.50059
1.25459
1.03398
0.836555
0.660117
0.502951
0.362979
0.239005
0.131245
0.0399115
4.79576
4.36973
3.93844
3.51214
3.09949
2.70724
2.34022
2.00134
1.69233
1.41307
1.16306
0.940839
0.743957
0.570173
0.418131
0.286737
0.176364
0.0885327
0.0235704
4.79834
4.36917
3.92827
3.48799
3.05917
2.65053
2.26848
1.91709
1.5987
1.31348
1.06085
0.83913
0.645782
0.478705
0.336918
0.219754
0.127456
0.0598784
0.0145842
4.80142
4.3705
3.92133
3.46822
3.02421
2.60013
2.20411
1.84146
1.51526
1.22596
0.972982
0.754476
0.567798
0.410774
0.28214
0.180406
0.103978
0.0499395
0.0132957
4.80519
4.37376
3.91738
3.45234
2.99398
2.5553
2.14628
1.77353
1.44089
1.14914
0.897617
0.684218
0.50595
0.360084
0.244349
0.155721
0.0906504
0.0445797
0.0122072
4.81093
4.38059
3.91783
3.44145
2.96927
2.5166
2.09531
1.71338
1.37538
1.08235
0.833453
0.626126
0.456721
0.321557
0.217019
0.138598
0.0814794
0.040625
0.0112575
4.81557
4.38595
3.91694
3.42971
2.94454
2.47903
2.04688
1.65731
1.31554
1.02268
0.777585
0.577027
0.416466
0.291085
0.195973
0.125524
0.0743139
0.0373622
0.0104294
4.81781
4.38631
3.90993
3.41184
2.91459
2.43781
1.9968
1.60175
1.25829
0.967391
0.727383
0.534218
0.382346
0.265837
0.178726
0.114728
0.0682224
0.0344637
0.00965026
4.81727
4.37954
3.89333
3.38374
2.87522
2.38906
1.94168
1.54385
1.20121
0.914314
0.680781
0.49563
0.352307
0.243925
0.16377
0.105213
0.0626699
0.031685
0.00883865
4.81229
4.36232
3.86298
3.34096
2.82217
2.32894
1.87822
1.48079
1.14188
0.861298
0.635779
0.459366
0.324602
0.223863
0.149977
0.0962217
0.0571896
0.0287522
0.00788031
4.80276
4.33504
3.81976
3.28479
2.75696
2.25907
1.80796
1.4139
1.08127
0.808896
0.592537
0.425279
0.298916
0.205318
0.137099
0.0875962
0.0516808
0.0255863
0.00672278
4.79435
4.31482
3.79185
3.25303
2.72465
2.2288
1.78153
1.39234
1.065
0.797839
0.586227
0.422985
0.299765
0.208406
0.141583
0.0927662
0.0568745
0.0299921
0.00901715
4.7894
4.30677
3.78616
3.25354
2.73339
2.24611
1.80639
1.4229
1.0991
0.833336
0.621335
0.456354
0.330456
0.235869
0.16556
0.113102
0.0732654
0.0416448
0.0141298
4.78501
4.3001
3.78242
3.25644
2.74484
2.26629
1.83417
1.4563
1.13584
0.871197
0.658449
0.491321
0.36231
0.264025
0.189695
0.132944
0.0884141
0.0514204
0.0176042
4.78155
4.29519
3.78093
3.26182
2.75878
2.28884
1.86413
1.49169
1.1744
0.910748
0.69714
0.527748
0.395482
0.293295
0.214648
0.153215
0.103573
0.060945
0.0209505
4.77836
4.2908
3.78024
3.2681
2.7735
2.31196
1.89448
1.52741
1.21336
0.950872
0.736637
0.565215
0.429874
0.323864
0.240849
0.174557
0.119549
0.0710189
0.0245553
4.77402
4.28551
3.77893
3.27368
2.78726
2.33387
1.92353
1.56196
1.25149
0.990646
0.776338
0.603427
0.465465
0.355943
0.268696
0.197498
0.136906
0.0820967
0.0285908
4.77084
4.28253
3.77983
3.28077
2.8017
2.35579
1.9522
1.59606
1.2894
1.03065
0.816824
0.642996
0.502908
0.390221
0.298894
0.222722
0.156239
0.0945938
0.0332129
4.76986
4.28207
3.78245
3.28855
2.81594
2.37694
1.97993
1.62941
1.32705
1.07107
0.858494
0.684482
0.542882
0.427448
0.332214
0.250953
0.178158
0.108931
0.038584
4.76791
4.27907
3.78136
3.29186
2.82545
2.39359
2.00383
1.65996
1.36311
1.11121
0.901141
0.72806
0.585831
0.468239
0.369346
0.282874
0.203247
0.125518
0.0448692
4.7644
4.27284
3.77586
3.29018
2.83003
2.40595
2.02451
1.68862
1.39876
1.1524
0.946183
0.775177
0.633182
0.513949
0.411526
0.319546
0.232343
0.14491
0.0522843
4.76062
4.26477
3.76732
3.2851
2.83162
2.4163
2.04448
1.71805
1.43668
1.19728
0.996159
0.828219
0.687128
0.566545
0.460461
0.362379
0.266517
0.1678
0.0610904
4.75575
4.25325
3.75455
3.27631
2.83083
2.426
2.06571
1.7506
1.47945
1.24851
1.05371
0.889717
0.750026
0.628152
0.517995
0.412893
0.306921
0.194927
0.0715662
4.74706
4.23592
3.73657
3.2642
2.82918
2.43743
2.09112
1.78951
1.53043
1.30943
1.12206
0.962703
0.824649
0.701234
0.586242
0.472812
0.354853
0.227128
0.0840356
4.73755
4.21843
3.72033
3.25645
2.83467
2.45858
2.12841
1.84207
1.59638
1.38625
1.2068
1.05218
0.915413
0.789615
0.66843
0.54475
0.412283
0.265683
0.0990062
4.72959
4.20451
3.71099
3.25941
2.85439
2.4968
2.18495
1.91539
1.68407
1.48529
1.31379
1.16349
1.02711
0.897529
0.768209
0.631746
0.481593
0.312227
0.11717
4.71933
4.1919
3.70914
3.27583
2.89238
2.55687
2.26585
2.01472
1.79873
1.61168
1.44799
1.30135
1.16418
1.02907
0.889292
0.737074
0.565512
0.368765
0.139473
4.71119
4.19087
3.72763
3.31917
2.96178
2.65124
2.38275
2.15093
1.95052
1.7749
1.61824
1.47404
1.33437
1.19147
1.03837
0.866751
0.669172
0.439147
0.167787
4.71273
4.21442
3.78086
3.40366
3.07621
2.79281
2.54795
2.33575
2.15068
1.98581
1.83511
1.69187
1.54776
1.39457
1.22493
1.02975
0.800623
0.529763
0.205438
4.72774
4.26921
3.87622
3.53683
3.24325
2.98932
2.76941
2.57749
2.40795
2.25363
2.10834
1.96521
1.81538
1.65003
1.46116
1.23843
0.971722
0.650673
0.258286
4.76019
4.3603
4.01855
3.72343
3.46789
3.24628
3.05336
2.88324
2.73043
2.58766
2.44865
2.30633
2.15122
1.97366
1.76463
1.51172
1.20176
0.81941
0.337948
4.80962
4.48539
4.20492
3.96088
3.74848
3.56328
3.40088
3.25577
3.12284
2.99488
2.86561
2.72788
2.57149
2.38568
2.15983
1.87821
1.5223
1.06744
0.469079
4.87001
4.63422
4.42427
4.23885
4.07611
3.93321
3.80683
3.69223
3.58498
3.47828
3.3662
3.24177
3.09424
2.91166
2.68127
2.38235
1.98742
1.45507
0.708729
4.93172
4.79115
4.65984
4.54136
4.4363
4.34335
4.26051
4.18422
4.11126
4.03601
3.9536
3.85806
3.73906
3.58432
3.37906
3.09639
2.69548
2.10674
1.1986
4.98418
4.93893
4.89305
4.85038
4.81214
4.7781
4.74763
4.71909
4.69121
4.66104
4.62626
4.58369
4.52662
4.44607
4.32845
4.144
3.83768
3.29964
2.30964
)
;

boundaryField
{
    up
    {
        type            fixedValue;
        value           uniform 0;
    }
    low
    {
        type            fixedValue;
        value           uniform 5;
    }
    left
    {
        type            fixedValue;
        value           uniform 5;
    }
    right
    {
        type            fixedValue;
        value           uniform 5;
    }
    frontAndBackPlanes
    {
        type            empty;
    }
}


// ************************************************************************* //
