/*--------------------------------*- C++ -*----------------------------------*\
  =========                 |
  \\      /  F ield         | OpenFOAM: The Open Source CFD Toolbox
   \\    /   O peration     | Website:  https://openfoam.org
    \\  /    A nd           | Version:  7
     \\/     M anipulation  |
\*---------------------------------------------------------------------------*/
FoamFile
{
    version     2.0;
    format      ascii;
    class       volScalarField;
    location    "0.14";
    object      gradTz;
}
// * * * * * * * * * * * * * * * * * * * * * * * * * * * * * * * * * * * * * //

dimensions      [0 -1 0 1 0 0 0];

internalField   nonuniform List<scalar> 
1596
(
-3.22689e-16
-1.55377e-16
1.59556e-16
4.98493e-18
-2.99588e-16
0
-1.37235e-16
-1.35354e-16
-1.12654e-17
-7.25345e-17
-5.07262e-19
-7.25918e-17
3.22636e-16
-7.22767e-17
3.36756e-16
2.91364e-16
1.7352e-16
2.19708e-16
0
3.20664e-16
0
4.41234e-16
-4.24533e-18
-1.30975e-16
1.29441e-16
2.72856e-16
1.08868e-17
1.28074e-16
-6.22383e-17
1.24582e-16
-1.46433e-18
-1.73472e-16
-1.09023e-16
-2.72042e-16
-2.66232e-16
-2.4274e-16
1.38575e-16
0
-1.54812e-16
0
-2.82644e-16
6.70363e-18
2.4981e-16
-7.46013e-17
7.92522e-18
-1.69054e-18
-1.51487e-18
-1.4697e-18
4.33167e-17
0
8.99221e-17
2.53317e-16
-2.51148e-17
2.06432e-17
4.83233e-17
7.69241e-17
0
2.46345e-16
-7.05868e-17
7.03291e-17
0
-6.64615e-17
-7.00318e-17
1.12072e-16
-9.25706e-17
0
0
-3.99452e-17
2.26869e-17
0
-7.36045e-17
-9.17243e-17
6.4607e-17
-6.92599e-17
-3.54599e-18
0
4.33998e-17
1.09544e-16
-9.39159e-17
0
-2.61543e-17
-8.05928e-17
0
1.16941e-16
-1.13527e-17
-1.02948e-17
-1.50129e-17
5.89462e-17
7.46921e-17
8.22258e-18
6.27826e-18
-6.98244e-17
3.48528e-18
3.25712e-17
-1.43618e-17
-1.12702e-17
-1.49695e-16
1.37015e-16
-1.13633e-16
-3.44674e-19
-9.28506e-17
2.56275e-18
-2.57125e-18
-6.84813e-17
0
-1.24638e-17
-7.01439e-17
-6.73085e-17
5.24388e-17
5.98368e-17
-8.02797e-19
-3.5969e-17
-3.30365e-17
2.55369e-17
9.41873e-17
-1.51626e-16
1.61677e-16
8.68085e-17
0
7.19111e-17
3.98932e-17
-1.88878e-17
8.6303e-17
-1.57564e-17
-6.89967e-17
4.95838e-19
-3.91638e-17
-5.26477e-17
-3.936e-17
3.48132e-17
3.62856e-17
-4.92962e-19
-1.04941e-17
1.27506e-17
2.42776e-16
-2.70573e-16
0
0
-8.44834e-17
0
0
0
4.97938e-17
0
0
3.64042e-17
1.02195e-18
1.29032e-17
-3.07145e-17
0
1.63384e-17
6.74848e-18
0
-1.53138e-16
2.90926e-16
0
0
8.70061e-17
0
-2.90923e-17
2.90628e-17
-5.06828e-17
2.01017e-17
-2.02487e-17
0
2.8932e-17
3.20467e-17
0
-1.8397e-17
-1.66785e-17
-5.95025e-18
3.93956e-16
-1.80942e-16
0
-1.10496e-16
1.0926e-16
0
6.90189e-17
0
0
0
1.73348e-17
-1.74179e-17
0
-2.25715e-17
-6.16711e-18
0
3.56345e-18
1.00077e-17
0
-1.00071e-16
0
0
1.11114e-16
-2.01435e-16
1.52247e-17
5.97045e-18
-2.56639e-17
4.2324e-18
1.68375e-18
-1.78259e-17
-2.6361e-17
0
1.94569e-17
-4.21876e-18
4.28208e-18
1.27584e-17
-7.9982e-18
-3.49056e-18
7.63226e-17
-1.21784e-17
7.36294e-17
2.35431e-16
-1.85025e-17
-9.11866e-17
0
0
0
3.70265e-17
1.34658e-17
4.70847e-17
-1.12712e-17
-1.91088e-17
-1.02769e-17
-6.14266e-18
2.78998e-18
-6.24428e-18
3.28481e-18
-8.87996e-17
8.72961e-17
-1.57436e-16
-2.32901e-16
2.09521e-16
7.36766e-17
-1.31596e-16
1.05341e-16
-8.40508e-17
2.21765e-17
1.4877e-17
-1.29339e-17
6.85071e-18
-6.58934e-18
1.99202e-17
0
-1.55915e-18
1.19116e-17
-1.79606e-18
-5.9686e-16
2.67654e-16
1.96267e-19
-4.97365e-17
9.84518e-18
7.15973e-17
-1.33321e-16
-4.94958e-17
3.87053e-17
-3.00422e-17
-2.34448e-17
0
-2.3718e-17
-6.8341e-18
-1.13036e-17
-6.62041e-18
5.15057e-19
-6.68528e-18
3.61647e-19
9.75311e-17
-8.3657e-17
6.98328e-20
-5.84351e-17
-1.34303e-16
1.23744e-16
6.89838e-19
4.82336e-17
-3.76847e-17
5.72396e-17
1.29881e-17
9.75133e-18
2.65969e-17
0
1.99484e-17
9.05728e-18
0
3.38658e-18
2.70466e-19
0
8.1157e-17
5.77178e-17
-1.23665e-16
1.29833e-16
-1.86211e-16
1.24292e-16
4.03534e-17
-8.99265e-18
-5.76484e-17
8.88015e-18
-8.83633e-18
-2.32839e-17
8.34499e-18
-4.35005e-18
-8.52133e-18
3.3738e-18
-2.12683e-18
9.95297e-19
-9.07371e-17
2.89778e-16
-2.17679e-16
1.08138e-16
0
0
-2.18933e-17
4.85774e-17
-2.86475e-17
5.22101e-17
0
0
1.51062e-17
-1.24691e-17
-7.73382e-18
2.45282e-18
-2.65677e-18
1.44469e-18
0
1.06309e-17
8.49121e-17
-6.2669e-17
-5.2219e-17
-7.56472e-17
-1.81546e-17
3.25414e-17
0
-2.64256e-17
-1.87701e-17
1.60931e-17
-1.17231e-17
8.50004e-18
0
3.07155e-18
5.20395e-18
0
0
0
-1.03156e-17
1.23268e-16
4.03476e-17
-1.58667e-16
3.97747e-17
3.19446e-17
0
0
2.43809e-17
-1.29569e-17
-1.55655e-17
1.13384e-17
-8.22018e-18
0
-1.6964e-18
1.25473e-18
0
-1.04999e-18
-3.73798e-19
-6.95605e-17
2.04262e-16
-2.38257e-16
-8.53032e-17
4.60322e-17
-2.94087e-17
2.25276e-17
0
-1.2483e-17
9.60501e-18
0
0
2.88131e-18
-2.88463e-18
7.04157e-19
-1.08955e-18
1.41326e-18
2.58171e-19
2.83352e-19
3.73992e-17
-3.21736e-17
1.52816e-16
-9.75046e-17
-3.51811e-17
6.31806e-18
4.79207e-17
1.55251e-17
1.19443e-17
0
5.07666e-18
-4.62321e-18
3.25529e-18
-2.46634e-18
2.577e-18
-4.17341e-18
-1.09434e-18
9.27778e-19
2.28009e-19
9.70553e-17
-9.99583e-17
0
7.5416e-17
-4.10682e-17
-2.61515e-17
1.43299e-17
-4.88384e-17
0
-8.68987e-19
-6.37388e-18
-3.84119e-18
4.74142e-18
-5.18576e-19
-2.49063e-18
1.67282e-18
0
5.01574e-19
-2.21395e-19
1.73706e-16
-2.87767e-17
1.12167e-16
-8.72525e-17
4.00528e-17
-7.49636e-19
-4.21823e-17
-1.14735e-17
1.9575e-17
-1.15273e-18
-8.33607e-18
6.52176e-18
-2.63677e-18
-2.82663e-18
0
0
0
-5.05522e-19
1.80009e-20
-1.49341e-16
1.44013e-16
9.50582e-20
1.87828e-17
1.48406e-17
-3.13251e-17
3.44024e-17
-2.5105e-17
1.92662e-17
-5.04866e-18
9.34685e-18
2.72957e-18
-1.05001e-18
5.16077e-20
-2.50422e-19
-4.477e-19
0
0
0
0
0
6.20704e-17
-3.57474e-17
-8.73169e-17
0
0
-7.25898e-18
-1.01818e-17
7.5198e-18
0
-3.44248e-18
2.32326e-18
-6.5685e-18
7.29611e-18
-1.99519e-18
2.10855e-18
2.11304e-19
0
-2.88739e-17
2.92293e-17
0
-2.01818e-17
2.01387e-17
2.96163e-17
0
7.3283e-18
7.30786e-18
-3.5074e-17
0
-4.04661e-18
2.75966e-18
1.66113e-18
-1.09558e-18
1.47976e-18
0
-4.72355e-19
0
-1.4869e-17
-1.41054e-17
8.33077e-19
2.07363e-17
-5.14014e-17
0
-1.09809e-17
0
2.43175e-17
8.47051e-18
0
1.60155e-17
-1.52791e-17
1.87575e-18
-2.23619e-18
1.05357e-18
2.8709e-18
9.5167e-19
-7.55102e-19
0
3.00424e-17
-2.41821e-17
2.96253e-17
3.1966e-17
0
2.1944e-17
-1.99106e-17
-1.32397e-17
1.69988e-17
-2.52028e-17
-1.02989e-17
0
0
1.50641e-18
0
0
3.521e-19
0
-1.36532e-16
1.05531e-16
0
2.26656e-18
-1.81358e-17
-9.22259e-19
1.43872e-17
8.40415e-18
-1.1883e-17
-2.37819e-17
3.28828e-17
-9.15569e-18
0
-3.19916e-18
0
0
0
-1.37664e-18
1.10482e-18
-3.9413e-17
3.54322e-17
8.86016e-17
-8.4787e-17
2.45905e-17
1.89438e-18
-1.45813e-17
1.14279e-17
1.7559e-17
1.18392e-17
-2.31494e-17
0
8.87683e-18
1.85206e-19
-3.66183e-18
-6.72372e-18
5.39551e-18
-6.92067e-19
1.39434e-18
-1.36282e-16
1.81517e-16
-1.78222e-16
2.92436e-17
2.28153e-17
-2.09655e-17
1.68784e-17
-1.1907e-17
0
-8.59565e-18
1.18097e-17
5.03631e-18
7.46186e-18
7.86794e-18
-1.14348e-17
-4.6072e-19
0
-6.15778e-19
2.11225e-19
-1.47318e-16
-4.13625e-17
-6.7904e-17
3.71226e-17
-5.42784e-17
4.38715e-17
-2.52585e-17
1.92683e-17
-1.96217e-18
-1.89037e-18
-1.32677e-17
8.3087e-18
-3.27472e-18
1.05658e-17
-1.13425e-17
9.37629e-19
1.05436e-18
0
-3.84825e-19
1.59283e-16
-4.48494e-17
0
0
-5.57141e-17
1.06114e-16
-2.36947e-17
-3.99852e-18
3.11486e-17
-9.06755e-19
0
0
-5.34159e-18
0
-1.03897e-17
2.39922e-17
-1.62303e-17
0
1.67534e-19
5.34409e-17
9.66099e-17
0
-3.82112e-17
-2.83945e-17
-2.29372e-17
-2.48608e-17
9.34572e-18
-2.51673e-17
-1.25142e-17
0
0
8.414e-18
0
0
-1.49834e-17
2.49721e-17
0
0
3.67e-16
-4.84797e-17
-2.11637e-16
-1.06454e-16
1.45172e-16
4.30708e-17
2.41057e-17
0
-7.92407e-18
7.05913e-18
1.77323e-17
-5.54509e-18
-7.38335e-18
1.12022e-17
-1.19157e-17
-3.2853e-18
0
0
0
2.93882e-17
-2.22437e-16
2.17273e-16
-1.98619e-17
-1.4504e-16
2.22197e-16
-1.09052e-16
0
0
4.89931e-17
-3.94527e-17
0
-1.0573e-17
1.87288e-17
-1.86528e-18
5.21712e-18
1.5346e-18
2.15674e-20
3.20369e-19
0
0
0
1.72145e-16
-1.1594e-16
1.12384e-16
-1.73098e-16
4.79638e-17
0
-1.55976e-17
2.36602e-17
-2.41821e-17
-4.40822e-18
1.0083e-19
-2.85244e-18
-3.62708e-19
-2.27671e-18
-6.53487e-19
-3.48874e-19
2.43503e-16
-4.28339e-16
2.00128e-16
0
4.87054e-17
-6.66759e-17
6.23319e-17
-4.93343e-17
0
-2.15719e-17
3.02804e-17
0
0
9.56663e-20
0
-3.15875e-18
2.13957e-18
3.41823e-19
5.63851e-19
2.42291e-16
0
-8.91909e-17
9.94774e-17
-5.8591e-17
1.26414e-16
-5.87117e-17
-4.29527e-17
4.34013e-17
-4.233e-18
0
0
2.51503e-18
-4.04506e-18
-2.8249e-18
5.31009e-18
-1.14721e-18
5.66869e-19
0
1.37372e-16
1.02482e-16
-6.05811e-18
-9.51917e-17
-9.178e-18
-6.34404e-17
8.51486e-18
5.15944e-17
-2.55347e-18
4.31249e-18
0
0
-2.57648e-18
0
2.96047e-18
-3.167e-18
0
4.02008e-19
-1.10446e-19
-7.28733e-17
-5.14843e-17
4.82573e-17
-5.29546e-18
-2.31229e-18
6.05014e-18
0
-1.50789e-18
2.16317e-17
-1.82124e-17
0
5.7368e-18
-1.21093e-18
-4.97593e-18
-4.47882e-19
-3.46308e-19
0
-3.15148e-19
0
2.91694e-17
-5.48547e-17
-7.92891e-20
2.26916e-17
1.96608e-17
-1.94677e-17
-1.30294e-17
1.47209e-17
-4.78207e-18
3.76051e-18
-3.46158e-18
3.56834e-18
0
8.71768e-21
-3.30789e-19
1.18422e-18
-4.02476e-21
0
0
2.91704e-17
-2.90611e-17
-2.25715e-17
2.00363e-17
3.46782e-17
-3.48829e-17
-6.51497e-18
6.53121e-18
-4.8231e-18
4.87347e-18
-3.46176e-18
6.47326e-18
-1.81589e-18
-1.27127e-18
-3.81254e-19
1.28382e-19
2.99631e-19
7.87805e-20
-5.90389e-20
0
-6.83274e-18
3.92054e-17
-4.2612e-17
3.45467e-17
-3.06987e-17
0
2.22694e-17
-1.99732e-17
0
6.84736e-18
-8.63923e-18
-4.74861e-18
4.97684e-18
8.88734e-19
0
0
-3.15242e-19
1.14286e-19
1.15979e-16
-2.11118e-16
2.09921e-16
-1.79259e-16
6.95979e-17
-5.54666e-17
5.28043e-17
5.93184e-18
-2.12852e-17
1.8977e-17
0
-1.27265e-17
1.1615e-17
-2.1183e-18
-8.70515e-19
1.32369e-18
9.65521e-19
3.0604e-19
-1.10426e-19
2.72812e-16
0
-1.01079e-16
7.86516e-17
9.07273e-18
-6.64436e-17
1.15787e-16
-9.94115e-17
3.84602e-17
-1.53904e-17
1.57535e-17
3.02123e-18
4.94344e-18
2.06325e-18
-1.63281e-18
-2.38842e-19
-2.07903e-18
0
2.03176e-19
2.13391e-16
-2.40217e-16
0
2.05587e-17
8.44859e-17
-8.21561e-17
1.32542e-17
1.13095e-17
4.84487e-18
8.07813e-18
0
0
-8.54165e-18
1.55547e-17
-5.60458e-18
-1.95532e-18
2.14075e-18
1.68543e-19
-3.82731e-19
2.57991e-17
2.11181e-16
-2.33017e-17
-1.51857e-16
1.33588e-16
1.51596e-17
-1.29717e-17
-1.1046e-17
3.40784e-17
-4.22031e-17
2.36722e-17
-2.41941e-17
3.41287e-18
-4.66618e-18
7.8058e-18
-5.24289e-18
0
0
3.43397e-19
0
5.20534e-17
-1.48753e-16
1.70451e-16
-1.27955e-16
1.2765e-16
0
3.89774e-17
-3.9156e-17
-2.70073e-17
3.94913e-17
0
1.48146e-17
-1.87486e-17
-2.71867e-18
0
-2.81115e-19
-5.05482e-19
-4.05846e-20
-5.0842e-16
2.3863e-16
0
-1.45159e-16
1.45144e-16
8.19414e-17
-5.36333e-17
2.01991e-17
0
-8.17344e-19
5.239e-18
-5.53953e-18
-7.3768e-18
1.11915e-17
-1.19003e-17
0
2.23546e-18
-3.74137e-19
-3.159e-19
3.09546e-16
-3.0137e-16
0
3.77889e-17
3.27738e-17
-2.89995e-17
0
-2.11688e-17
-1.65963e-17
0
-1.34574e-18
0
8.42132e-18
0
0
3.00142e-18
1.09736e-17
-1.44013e-17
0
1.03121e-20
4.48723e-17
-3.96599e-17
2.93639e-17
-1.50706e-16
5.60361e-17
0
4.00244e-18
1.11496e-17
0
-1.01641e-17
2.60307e-17
-2.73468e-17
3.98755e-18
0
-7.2344e-19
0
0
0
1.88547e-20
0
3.66556e-17
0
-4.95881e-17
5.03765e-17
0
1.49566e-17
-1.09463e-17
3.76998e-17
-1.77536e-17
5.48726e-18
-8.15144e-18
6.97081e-18
-1.13642e-17
-1.72987e-18
0
-8.34916e-19
0
1.18472e-16
-2.00839e-16
0
-2.89922e-17
2.44428e-17
0
0
-2.6858e-17
0
-8.60501e-18
-1.18239e-17
-5.0433e-18
7.47357e-18
0
3.03317e-18
0
0
1.74479e-18
-1.83294e-18
0
1.67893e-16
-1.33759e-16
2.68402e-17
-2.26341e-17
-8.27058e-18
2.29952e-17
2.35138e-17
-2.54727e-17
8.08671e-18
1.14512e-18
-5.54903e-18
2.20729e-17
-6.74586e-18
-1.32271e-17
4.26765e-18
-9.0729e-19
5.55312e-19
-1.41452e-19
-2.88107e-16
1.05572e-16
0
0
9.15387e-18
-9.30845e-18
5.30036e-18
2.48247e-18
2.22461e-17
9.9608e-18
-9.40245e-18
-7.46622e-19
-4.05731e-18
3.20415e-18
0
1.1831e-18
8.31598e-19
3.8182e-19
1.27853e-19
0
8.81858e-17
-7.87868e-17
2.45477e-17
2.25647e-17
-4.24023e-18
-1.20665e-17
-9.34481e-18
-2.74102e-17
9.66286e-18
-4.52454e-18
7.16479e-18
3.79409e-18
-3.88886e-18
4.12779e-18
2.07179e-18
-2.84548e-18
-3.52668e-19
0
-1.66486e-17
-7.08216e-17
2.39178e-17
2.07429e-17
-6.51603e-17
4.49176e-17
1.87495e-17
-1.91649e-17
1.25682e-17
-9.17054e-18
0
0
-4.90735e-18
8.40652e-18
-3.46018e-18
2.66341e-18
-2.93556e-18
4.27195e-19
-7.56222e-19
3.07018e-17
2.74944e-17
-2.35958e-17
1.59052e-17
-2.01091e-17
-2.59661e-17
0
0
0
0
0
0
2.49281e-18
-5.64824e-18
5.97363e-18
-1.59038e-18
1.98542e-18
8.36398e-19
-7.01184e-19
6.46124e-17
-1.00848e-16
1.2548e-16
-5.08247e-17
7.12504e-17
-4.31954e-17
7.70254e-17
-4.04417e-17
-1.72772e-17
1.76738e-17
0
3.44067e-18
-2.43534e-18
4.9491e-18
-2.01071e-18
-2.07139e-18
-3.62575e-18
2.96634e-19
5.85027e-19
1.01108e-16
2.72217e-17
0
-3.74679e-17
-2.615e-17
5.7287e-17
3.46412e-18
-1.88764e-17
1.04723e-17
-6.23305e-18
0
-2.72368e-18
0
-1.73101e-18
1.29869e-18
-1.04685e-18
-3.3145e-19
2.09117e-19
0
1.40451e-16
-2.87763e-17
1.12179e-16
-8.73362e-17
-1.57322e-17
5.47204e-17
-3.26969e-17
2.1579e-18
1.57403e-18
-6.13907e-18
5.671e-18
0
0
2.24652e-18
-6.42219e-19
3.65294e-19
1.19721e-18
-4.13426e-19
0
2.56402e-20
0
-2.54937e-17
1.38151e-16
-9.14811e-17
-8.46399e-17
4.5816e-17
-3.93935e-17
3.52615e-17
1.50229e-17
-9.95541e-18
3.66877e-18
-3.06691e-18
6.57217e-19
3.9142e-18
1.86745e-20
-1.19502e-18
1.15856e-18
-2.45309e-19
3.35698e-16
-1.05678e-16
4.47758e-17
-1.4163e-16
3.5181e-17
-4.96789e-17
2.7695e-17
0
0
-9.30022e-19
-1.42606e-18
-4.10984e-19
0
-3.77293e-18
-2.57708e-18
1.72858e-18
-1.21119e-19
2.74627e-19
5.11457e-19
0
-1.02224e-16
1.61909e-16
2.9176e-17
-1.21925e-16
2.94087e-17
-4.02852e-17
9.67947e-18
2.98765e-17
0
0
4.91604e-19
4.0838e-18
0
-2.90174e-18
-1.1852e-18
1.80613e-19
-5.22686e-19
-6.53781e-19
0
-6.15669e-17
1.98065e-17
1.09179e-16
7.16345e-17
-1.27675e-16
5.57276e-17
-3.27931e-17
1.81553e-17
-2.1158e-17
0
0
0
-5.94092e-18
1.13854e-18
-1.70475e-18
0
-9.63086e-20
4.71803e-19
-2.498e-16
2.33884e-16
2.30379e-16
-2.78034e-16
1.17285e-16
-1.08202e-16
0
3.51832e-17
-4.64542e-17
2.4977e-17
-1.71602e-17
1.26906e-17
9.36284e-18
6.14422e-18
4.44754e-18
0
0
0
0
2.8278e-16
-1.55666e-16
0
0
-4.41806e-17
9.81937e-17
-6.22588e-17
-3.77843e-17
3.73584e-17
2.39008e-17
3.67215e-17
-1.31677e-17
5.39316e-18
3.61172e-18
2.44026e-18
2.07078e-18
3.24707e-18
-1.54718e-19
1.57594e-19
-2.83667e-16
2.54752e-16
1.25985e-16
-6.69809e-17
1.29597e-16
-8.24163e-17
-5.87174e-17
-4.58667e-17
0
-5.05301e-17
3.66031e-18
1.58981e-17
-1.10832e-17
-8.34512e-18
-2.94568e-18
-2.82034e-18
-2.27168e-18
0
0
-9.75857e-17
0
7.0294e-17
1.05144e-22
0
0
6.05689e-17
4.7328e-17
0
2.80145e-17
0
-2.40023e-17
-6.4193e-18
1.10562e-17
0
6.88899e-18
-9.45246e-19
9.64277e-19
0
2.10883e-16
0
1.32381e-16
-2.39903e-16
2.05195e-16
1.50838e-16
-7.09646e-18
0
4.76468e-18
3.47378e-17
0
-2.85273e-17
2.97784e-17
-2.59037e-17
-5.52071e-18
-5.44402e-18
-1.72498e-18
-3.33036e-19
-1.38279e-18
-1.902e-16
2.72361e-16
-7.31398e-17
-1.82236e-16
-9.98666e-17
-8.1092e-17
-1.3054e-16
-4.7033e-17
5.66013e-18
1.4905e-17
-1.4877e-17
4.32585e-17
-1.88263e-17
3.58747e-17
-6.67119e-18
0
8.49623e-18
-5.30343e-18
1.35023e-18
4.33691e-16
-1.21756e-17
-3.05124e-16
2.35432e-16
-2.02966e-16
1.66464e-16
-7.58431e-18
-5.51486e-17
4.51085e-17
1.62753e-17
-2.80523e-18
-3.67154e-17
9.84833e-18
1.24437e-17
-3.38099e-18
3.41955e-18
-8.80003e-18
-1.8046e-18
-2.70084e-18
2.12904e-16
8.57053e-17
1.44578e-16
-1.20654e-16
-9.1806e-17
7.60846e-18
-6.22502e-17
1.48688e-16
6.91847e-18
6.15557e-17
3.46617e-17
-3.00748e-17
0
-1.94569e-17
0
0
1.53489e-17
6.39945e-18
3.10938e-18
1.96516e-16
0
1.41966e-16
1.19875e-16
-1.00726e-16
8.32118e-17
0
-5.74686e-17
-7.70221e-17
-6.36578e-17
-3.49685e-17
3.04149e-17
0
0
0
0
-1.44339e-17
-1.25242e-17
0
-3.8484e-16
0
-1.03023e-17
-9.23309e-18
1.54804e-16
-8.02924e-17
-3.54811e-17
-3.58525e-17
7.98829e-17
0
2.01015e-17
-2.05761e-18
2.00867e-17
0
0
2.79404e-17
-2.12055e-18
1.50669e-17
-6.58898e-18
2.68678e-16
7.34811e-17
-7.27225e-17
-6.11558e-17
-1.9857e-16
1.309e-16
1.51187e-16
-6.36927e-18
-5.59047e-17
5.73564e-17
1.16509e-17
-6.13476e-17
-4.81434e-17
-3.29757e-17
-3.55615e-17
-3.22965e-17
3.02446e-17
-1.39974e-18
6.7485e-18
-8.13503e-17
3.55961e-17
-1.68955e-16
2.70015e-17
-2.69033e-17
0
-7.60859e-17
-8.53451e-18
-7.06109e-17
9.70968e-18
6.89962e-17
4.82065e-17
-1.25489e-17
1.72216e-18
3.35993e-17
0
-6.52436e-17
-2.54704e-17
-5.2126e-19
1.69182e-16
-4.35801e-18
2.65976e-16
-1.22987e-16
3.44673e-19
3.08383e-18
9.10585e-17
-1.09027e-17
6.84809e-17
-6.39153e-17
-6.0502e-17
0
6.7308e-17
5.15905e-17
7.75283e-19
-1.13667e-18
3.63203e-17
2.58817e-17
0
-1.19473e-16
0
-2.47906e-17
1.18208e-16
2.3228e-18
2.61892e-17
-8.80522e-17
8.21662e-17
9.15545e-17
8.82079e-17
8.57346e-17
0
-6.53885e-17
0
3.79143e-18
-3.93773e-18
0
-3.99784e-19
2.00817e-17
8.4959e-17
6.18241e-18
-6.09485e-17
1.90962e-16
-6.03483e-17
0
0
-1.08179e-16
-8.87069e-17
-8.54537e-17
-1.61317e-16
-2.26868e-17
0
0
0
-8.19932e-18
8.67693e-18
5.70588e-17
-2.03953e-17
6.50418e-18
0
-1.37153e-16
-1.20921e-16
1.29624e-16
-1.2917e-16
-1.83105e-16
2.18822e-16
6.44264e-17
0
9.7497e-17
1.16456e-16
-2.51295e-17
1.3872e-16
-2.28828e-17
2.38154e-17
9.4379e-17
-5.42242e-17
0
-1.61479e-16
0
-1.52478e-16
1.48562e-16
0
2.59254e-16
1.20118e-16
-2.57771e-16
2.11233e-16
-1.04022e-18
-6.28756e-17
-1.12753e-16
0
1.63779e-16
-2.72042e-16
2.92803e-16
-3.73354e-16
0
0
1.61274e-16
-1.52742e-18
-3.73534e-18
-3.02638e-16
3.07429e-16
-1.47283e-16
1.46682e-16
1.44632e-16
-1.23494e-16
0
0
2.45265e-16
-2.4949e-16
-2.63207e-16
2.6197e-16
-2.56012e-16
2.77556e-16
-4.35431e-16
0
)
;

boundaryField
{
    up
    {
        type            calculated;
        value           nonuniform List<scalar> 
84
(
0
0
0
0
-1.43618e-17
2.55369e-17
-1.04941e-17
6.74848e-18
-5.95025e-18
0
-3.49056e-18
3.28481e-18
-1.79606e-18
3.61647e-19
2.70466e-19
9.95297e-19
0
0
-3.73798e-19
2.83352e-19
2.28009e-19
-2.21395e-19
1.80009e-20
0
8.41657e-20
4.94809e-20
-6.99849e-19
0
1.10482e-18
1.51025e-18
2.11225e-19
-3.84825e-19
1.67534e-19
0
-7.05503e-20
3.2573e-19
-3.44757e-19
5.60349e-19
0
-1.09606e-19
0
0
-5.89752e-20
1.14286e-19
-1.10426e-19
2.03176e-19
-3.82731e-19
3.43397e-19
-4.05846e-20
-3.159e-19
0
0
0
-1.83294e-18
-2.57638e-19
1.27853e-19
0
-7.56222e-19
-7.01184e-19
5.0108e-19
0
0
-2.45309e-19
5.11457e-19
-6.53781e-19
4.71803e-19
0
1.57594e-19
0
0
-1.38279e-18
1.35023e-18
-2.70084e-18
3.10938e-18
0
-6.58898e-18
6.7485e-18
-5.2126e-19
0
2.00817e-17
-2.03953e-17
0
0
0
)
;
    }
    low
    {
        type            calculated;
        value           nonuniform List<scalar> 
84
(
-3.23028e-16
3.20664e-16
-1.54192e-16
2.4684e-16
4.37286e-17
-1.13656e-17
9.49736e-17
1.34907e-17
0
3.94812e-16
-1.00071e-16
7.58148e-17
-8.87996e-17
-5.96962e-16
9.75311e-17
0
-9.07371e-17
1.06309e-17
-1.03156e-17
-6.95605e-17
3.73992e-17
9.70553e-17
1.72886e-16
-1.49341e-16
0
-2.88739e-17
-1.4869e-17
0
-1.36532e-16
-3.9413e-17
-1.35796e-16
-1.46968e-16
1.59089e-16
5.34409e-17
3.67126e-16
2.93882e-17
0
2.43503e-16
2.43e-16
1.37748e-16
-7.30704e-17
2.91694e-17
2.91704e-17
0
1.15979e-16
2.7352e-16
2.13391e-16
2.63314e-17
0
-5.08545e-16
3.09546e-16
1.03121e-20
1.88547e-20
1.18472e-16
0
-2.87228e-16
0
-1.66486e-17
3.07018e-17
6.40775e-17
1.00199e-16
1.39631e-16
2.56402e-20
3.35078e-16
0
0
-2.498e-16
2.82568e-16
-2.83567e-16
-9.75857e-17
2.10985e-16
-1.902e-16
4.34706e-16
2.13581e-16
1.96516e-16
-3.8484e-16
2.67938e-16
-8.05639e-17
1.69182e-16
-1.19144e-16
8.4959e-17
7.12408e-18
-1.61479e-16
1.61443e-16
)
;
    }
    left
    {
        type            calculated;
        value           nonuniform List<scalar> 
19
(
-3.22689e-16
-1.55539e-16
1.59556e-16
5.01424e-18
-2.99735e-16
0
-1.37235e-16
-1.35354e-16
-1.18003e-17
-7.25345e-17
-5.07262e-19
-7.25918e-17
3.25807e-16
-7.22767e-17
3.36756e-16
2.91364e-16
1.7352e-16
2.55079e-16
0
)
;
    }
    right
    {
        type            calculated;
        value           nonuniform List<scalar> 
19
(
1.61274e-16
-1.36554e-18
-3.73534e-18
-3.02667e-16
3.07576e-16
-1.47283e-16
1.46682e-16
1.44632e-16
-1.22959e-16
0
0
2.47556e-16
-2.52661e-16
-2.63207e-16
2.6197e-16
-2.56012e-16
2.77556e-16
-4.70801e-16
0
)
;
    }
    frontAndBackPlanes
    {
        type            empty;
    }
}


// ************************************************************************* //
