/*--------------------------------*- C++ -*----------------------------------*\
  =========                 |
  \\      /  F ield         | OpenFOAM: The Open Source CFD Toolbox
   \\    /   O peration     | Website:  https://openfoam.org
    \\  /    A nd           | Version:  7
     \\/     M anipulation  |
\*---------------------------------------------------------------------------*/
FoamFile
{
    version     2.0;
    format      ascii;
    class       volScalarField;
    location    "0.14";
    object      gradTx;
}
// * * * * * * * * * * * * * * * * * * * * * * * * * * * * * * * * * * * * * //

dimensions      [0 -1 0 1 0 0 0];

internalField   nonuniform List<scalar> 
1596
(
-0.124657
-0.624769
-1.11266
-1.54074
-1.90177
-2.19191
-2.42525
-2.61136
-2.76426
-2.90943
-3.05589
-3.23415
-3.47816
-3.83376
-4.35237
-5.15454
-6.42081
-8.53767
-12.3039
0.0294739
-0.514267
-0.99353
-1.39881
-1.73646
-2.00659
-2.22226
-2.38866
-2.51681
-2.62104
-2.70544
-2.78785
-2.87719
-2.98528
-3.11219
-3.2539
-3.36289
-3.33772
-2.95887
0.156958
-0.407564
-0.86675
-1.24196
-1.54977
-1.79483
-1.98859
-2.13471
-2.24095
-2.31568
-2.36025
-2.38494
-2.39081
-2.38029
-2.34837
-2.28421
-2.15106
-1.88153
-1.33845
0.18085
-0.340954
-0.752692
-1.08464
-1.35506
-1.57057
-1.7401
-1.86659
-1.95515
-2.01041
-2.03278
-2.02768
-1.99381
-1.93044
-1.83303
-1.6927
-1.48691
-1.1772
-0.68403
0.0674719
-0.33906
-0.671451
-0.944802
-1.16981
-1.35131
-1.49465
-1.60188
-1.6759
-1.71873
-1.73063
-1.71369
-1.66606
-1.58583
-1.46971
-1.31116
-1.09756
-0.808392
-0.399752
-0.169877
-0.41218
-0.639451
-0.840189
-1.01199
-1.15473
-1.26936
-1.35647
-1.41698
-1.45087
-1.45837
-1.43926
-1.39154
-1.31267
-1.20018
-1.04882
-0.851682
-0.597941
-0.264055
-0.482609
-0.553826
-0.664643
-0.783556
-0.895802
-0.995072
-1.07782
-1.14262
-1.18852
-1.21389
-1.2187
-1.2011
-1.15895
-1.08925
-0.989807
-0.855846
-0.68329
-0.466085
-0.191608
-0.806362
-0.735037
-0.736407
-0.773182
-0.823804
-0.876971
-0.925466
-0.965719
-0.995114
-1.01072
-1.01199
-0.996015
-0.960447
-0.901925
-0.818198
-0.704583
-0.558157
-0.374953
-0.147877
-1.13865
-0.971281
-0.878671
-0.834935
-0.820193
-0.821518
-0.829815
-0.839785
-0.847476
-0.848907
-0.842769
-0.825414
-0.794117
-0.745183
-0.676056
-0.581949
-0.460125
-0.307231
-0.118582
-1.3369
-1.13846
-0.992803
-0.89296
-0.827361
-0.785475
-0.758702
-0.741158
-0.728272
-0.715562
-0.701071
-0.680847
-0.6519
-0.610431
-0.553661
-0.476861
-0.377237
-0.251597
-0.09627
-1.50036
-1.29178
-1.11594
-0.97561
-0.867755
-0.786464
-0.725515
-0.679675
-0.644491
-0.615425
-0.590021
-0.564219
-0.53479
-0.497871
-0.450465
-0.387929
-0.307274
-0.205219
-0.078405
-1.67046
-1.46444
-1.27073
-1.09919
-0.953898
-0.834307
-0.737778
-0.660875
-0.600007
-0.550999
-0.511108
-0.476227
-0.442859
-0.40703
-0.365494
-0.313681
-0.248371
-0.16612
-0.0635475
-1.72466
-1.54703
-1.35966
-1.17919
-1.01531
-0.872307
-0.751215
-0.651034
-0.569673
-0.503865
-0.451067
-0.407425
-0.369415
-0.333128
-0.295238
-0.251394
-0.198315
-0.132566
-0.050792
-1.74844
-1.60044
-1.42812
-1.2488
-1.0755
-0.916495
-0.776257
-0.656472
-0.55688
-0.475429
-0.41008
-0.357357
-0.313811
-0.275625
-0.239427
-0.201078
-0.1573
-0.104734
-0.0401145
-1.761
-1.6392
-1.48427
-1.31145
-1.1347
-0.965071
-0.809938
-0.67364
-0.55789
-0.46202
-0.384715
-0.322951
-0.273416
-0.232375
-0.196421
-0.161582
-0.124603
-0.0822379
-0.0313619
-1.736
-1.64238
-1.50825
-1.34775
-1.17465
-1.00154
-0.837902
-0.69039
-0.562638
-0.455426
-0.368334
-0.298894
-0.244024
-0.20012
-0.163777
-0.131176
-0.0991171
-0.0644963
-0.0243662
-1.66958
-1.60343
-1.49251
-1.34908
-1.18603
-1.01646
-0.851147
-0.698502
-0.563848
-0.449353
-0.355566
-0.280654
-0.221864
-0.175784
-0.139072
-0.10806
-0.0796335
-0.0508418
-0.0189345
-1.58651
-1.53864
-1.44863
-1.32343
-1.17371
-1.01211
-0.849974
-0.696918
-0.559599
-0.441402
-0.343798
-0.265596
-0.204414
-0.157064
-0.120303
-0.0906086
-0.0649594
-0.0405532
-0.0148281
-1.51772
-1.48433
-1.41005
-1.29921
-1.16049
-1.00584
-0.846863
-0.694032
-0.555068
-0.434345
-0.334087
-0.25363
-0.190871
-0.142779
-0.106165
-0.0775894
-0.0540856
-0.0329593
-0.011799
-1.38095
-1.36796
-1.31356
-1.22221
-1.10109
-0.960904
-0.812871
-0.667681
-0.533702
-0.416072
-0.317691
-0.238468
-0.176684
-0.129591
-0.0941736
-0.0671564
-0.0456922
-0.02723
-0.00954284
-1.2224
-1.22574
-1.18977
-1.11773
-1.01545
-0.892319
-0.758764
-0.625203
-0.500208
-0.389358
-0.296018
-0.220588
-0.161727
-0.117015
-0.0836734
-0.058643
-0.0392174
-0.0229802
-0.00789593
-1.05104
-1.06471
-1.0441
-0.990093
-0.906943
-0.802489
-0.686098
-0.567478
-0.454972
-0.354254
-0.268896
-0.19967
-0.145583
-0.104576
-0.0741849
-0.0516374
-0.0344003
-0.0201342
-0.00686149
-0.854696
-0.873122
-0.865168
-0.828999
-0.766747
-0.684251
-0.589301
-0.490343
-0.395018
-0.308721
-0.234983
-0.174862
-0.127709
-0.0919167
-0.0654702
-0.0460397
-0.031379
-0.019214
-0.00720214
-0.627403
-0.619635
-0.593487
-0.549836
-0.492346
-0.426226
-0.357098
-0.289971
-0.228845
-0.176056
-0.13264
-0.0983762
-0.072169
-0.0526413
-0.0384084
-0.0280947
-0.0203602
-0.013661
-0.00596545
-0.419439
-0.462634
-0.500092
-0.521591
-0.521684
-0.499453
-0.458168
-0.403539
-0.342526
-0.281353
-0.224717
-0.175583
-0.134814
-0.102364
-0.0775138
-0.059233
-0.0461303
-0.0366463
-0.0285935
-0.140533
-0.157513
-0.177677
-0.195632
-0.207458
-0.210814
-0.205354
-0.192088
-0.173399
-0.151925
-0.129871
-0.109174
-0.090458
-0.0741397
-0.060347
-0.0493645
-0.0410839
-0.0354399
-0.0318878
0.139324
0.120174
0.0901821
0.0541238
0.0170181
-0.0167348
-0.0441209
-0.0636295
-0.075487
-0.0809568
-0.0815209
-0.0789543
-0.0740737
-0.0676227
-0.0601969
-0.0528591
-0.0463532
-0.0414647
-0.0382259
0.416618
0.390718
0.347935
0.293341
0.232714
0.171762
0.115263
0.0664327
0.0266347
-0.0042865
-0.0271553
-0.0434303
-0.0538613
-0.0591189
-0.0597801
-0.0572941
-0.0531217
-0.0490331
-0.0458161
0.663483
0.625134
0.567151
0.495222
0.415288
0.333417
0.254989
0.183881
0.122236
0.070526
0.0283865
-0.00533106
-0.031142
-0.0492868
-0.0597019
-0.0635353
-0.062467
-0.0592732
-0.0558083
0.913565
0.858363
0.782404
0.691572
0.592074
0.490261
0.391787
0.300753
0.219632
0.149143
0.0891049
0.0384133
-0.00342254
-0.0362779
-0.0590951
-0.0719528
-0.0757898
-0.0740219
-0.0699627
1.09466
1.02076
0.928624
0.823795
0.712225
0.599627
0.490941
0.38963
0.297845
0.216142
0.144309
0.0811137
0.0258652
-0.0212596
-0.0582213
-0.0833736
-0.0953004
-0.0965349
-0.0914057
1.257
1.16756
1.05982
0.941579
0.819034
0.6973
0.580544
0.471498
0.371866
0.281909
0.201267
0.128379
0.0619291
0.00132044
-0.0514227
-0.0935117
-0.119973
-0.129698
-0.125772
1.39959
1.28963
1.16551
1.03513
0.904021
0.776231
0.654869
0.541765
0.43808
0.343739
0.258282
0.179941
0.106732
0.0366716
-0.0297207
-0.0909186
-0.139704
-0.169377
-0.173421
1.48078
1.34043
1.19266
1.04456
0.900563
0.763498
0.635413
0.517313
0.409784
0.312414
0.224449
0.144004
0.068608
-0.00506948
-0.0791689
-0.156082
-0.232178
-0.301019
-0.350152
1.51973
1.36853
1.22112
1.08175
0.951513
0.830484
0.718491
0.61513
0.520147
0.433075
0.353531
0.280744
0.21354
0.150121
0.0882864
0.0237719
-0.0468401
-0.127176
-0.217688
1.54045
1.38623
1.24497
1.11535
0.995462
0.883964
0.779946
0.682842
0.592477
0.508628
0.43126
0.360302
0.295317
0.235925
0.181837
0.132206
0.0860948
0.0416824
-0.00409929
1.43668
1.26147
1.10875
0.973321
0.851782
0.742005
0.642467
0.552043
0.469971
0.395425
0.327809
0.26659
0.210986
0.160443
0.114725
0.073625
0.0373
0.0062776
-0.0193087
1.24487
1.08888
0.954547
0.8367
0.731978
0.638142
0.553565
0.47702
0.407674
0.3447
0.287535
0.235707
0.188558
0.145615
0.106618
0.0712485
0.0393519
0.0110422
-0.0138111
1.02272
0.894237
0.782778
0.685089
0.598648
0.521574
0.452424
0.390071
0.333732
0.282644
0.236296
0.194254
0.155942
0.120937
0.0889995
0.0598321
0.0332942
0.00949656
-0.0116442
0.76325
0.665421
0.581222
0.508013
0.443674
0.38661
0.335608
0.289731
0.248335
0.210802
0.176732
0.145783
0.117519
0.0916193
0.0679168
0.0462005
0.0263907
0.00860468
-0.00719391
0.47769
0.412597
0.358443
0.312305
0.272249
0.236987
0.205618
0.177484
0.15214
0.129174
0.108322
0.0893584
0.0720035
0.0560541
0.0414046
0.0279251
0.0155741
0.00444181
-0.00547293
0.182541
0.155831
0.134499
0.116616
0.101186
0.087645
0.075637
0.064913
0.055305
0.0466557
0.0388566
0.0318097
0.0253968
0.0195246
0.014134
0.00915871
0.00456549
0.000372725
-0.00342531
-0.182453
-0.155632
-0.134221
-0.116285
-0.100821
-0.0872629
-0.0752508
-0.0645334
-0.0549409
-0.0463142
-0.0385434
-0.0315293
-0.0251528
-0.0193201
-0.0139713
-0.00903954
-0.00449094
-0.00034273
0.00341165
-0.477607
-0.412417
-0.358196
-0.312012
-0.271927
-0.236651
-0.205281
-0.177155
-0.151826
-0.128883
-0.108058
-0.0891258
-0.071806
-0.0558943
-0.0412848
-0.0278471
-0.0155386
-0.00444871
0.00542492
-0.763165
-0.665244
-0.580977
-0.50772
-0.443349
-0.386268
-0.335262
-0.289391
-0.248008
-0.210496
-0.176452
-0.145531
-0.117298
-0.0914327
-0.0677646
-0.0460829
-0.0263071
-0.00855343
0.0072149
-1.02265
-0.894106
-0.782599
-0.684875
-0.598412
-0.521327
-0.452176
-0.38983
-0.333505
-0.282436
-0.236111
-0.194094
-0.155809
-0.120833
-0.0889247
-0.0597862
-0.0332763
-0.00950511
0.0116112
-1.24482
-1.08879
-0.954414
-0.836539
-0.731796
-0.637951
-0.553372
-0.476833
-0.407499
-0.344541
-0.287396
-0.23559
-0.188465
-0.145546
-0.106573
-0.0712256
-0.0393491
-0.0110557
0.0137863
-1.43666
-1.26142
-1.10868
-0.973224
-0.851669
-0.741885
-0.642349
-0.551934
-0.469877
-0.395349
-0.327753
-0.266557
-0.210976
-0.160456
-0.114762
-0.0736809
-0.0373676
-0.00634449
0.0192563
-1.54044
-1.38608
-1.24466
-1.11487
-0.994828
-0.883205
-0.779094
-0.68193
-0.591533
-0.507677
-0.43032
-0.359384
-0.294427
-0.235063
-0.181003
-0.131412
-0.0853746
-0.0411205
0.00436073
-1.51998
-1.3692
-1.22223
-1.08327
-0.953386
-0.832648
-0.720877
-0.61767
-0.522777
-0.435744
-0.356203
-0.283402
-0.216188
-0.152789
-0.0910304
-0.0266727
0.043714
0.123815
0.214221
-1.48066
-1.34011
-1.19213
-1.04385
-0.899696
-0.762514
-0.634351
-0.516208
-0.408666
-0.311307
-0.223371
-0.142968
-0.0676227
0.00600233
0.0800649
0.156989
0.23321
0.30237
0.352074
-1.39967
-1.28983
-1.16582
-1.03552
-0.904481
-0.776738
-0.655405
-0.542311
-0.43862
-0.344261
-0.258779
-0.180408
-0.107165
-0.0370597
0.0294051
0.0907259
0.139692
0.169578
0.173783
-1.25705
-1.16768
-1.06002
-0.941834
-0.819338
-0.697639
-0.580906
-0.471868
-0.372232
-0.282259
-0.201593
-0.128672
-0.0621812
-0.00151345
0.0513155
0.0935213
0.120112
0.129938
0.126056
-1.09471
-1.02089
-0.92883
-0.824065
-0.712546
-0.599983
-0.491315
-0.390004
-0.298204
-0.216473
-0.144602
-0.0813621
-0.0260591
0.0211331
0.0581766
0.0834192
0.0954264
0.0967091
0.0915853
-0.913619
-0.858499
-0.78262
-0.691858
-0.592414
-0.490634
-0.392171
-0.301128
-0.21998
-0.149452
-0.0893667
-0.0386215
0.00327347
0.036194
0.0590792
0.0720005
0.0758852
0.074142
0.0700849
-0.663531
-0.625267
-0.567365
-0.495504
-0.41562
-0.333777
-0.255352
-0.184226
-0.122546
-0.0707907
-0.0285999
0.00517175
0.031038
0.0492382
0.0597047
0.0635806
0.0625406
0.0593605
0.0558969
-0.416674
-0.390862
-0.348165
-0.293641
-0.233059
-0.172128
-0.115621
-0.0667603
-0.0269173
0.00405709
0.026981
0.0433097
0.0537911
0.0590942
0.0597937
0.0573361
0.0531814
0.0491013
0.0458856
-0.139374
-0.120315
-0.0904091
-0.054418
-0.0173517
0.0163921
0.0437971
0.0633453
0.0752543
0.0807797
0.0813968
0.0788781
0.0740389
0.0676219
0.060222
0.0529018
0.046406
0.0415228
0.0382862
0.140412
0.157153
0.177084
0.194853
0.206566
0.209891
0.204473
0.191302
0.172738
0.151399
0.129472
0.108886
0.0902629
0.0740164
0.060276
0.0493298
0.041074
0.0354505
0.0319245
0.419517
0.462932
0.500641
0.522373
0.522645
0.500517
0.459255
0.404579
0.343468
0.282167
0.225395
0.176132
0.135249
0.102706
0.0777826
0.0594484
0.0463082
0.0367989
0.0287264
0.627309
0.619312
0.592947
0.549126
0.491535
0.425386
0.356291
0.289241
0.228217
0.17554
0.13223
0.0980619
0.0719348
0.0524717
0.038289
0.0280134
0.0203074
0.0136303
0.00595406
0.854742
0.873216
0.865306
0.829165
0.766923
0.684419
0.589447
0.49046
0.395104
0.308778
0.235016
0.174879
0.127716
0.0919172
0.0654684
0.0460374
0.0313771
0.019213
0.00720246
1.05104
1.06472
1.0441
0.990098
0.906945
0.802489
0.686094
0.56747
0.454961
0.354241
0.268884
0.199659
0.145574
0.104569
0.0741805
0.0516351
0.0343994
0.0201343
0.00686201
1.2224
1.22575
1.18977
1.11773
1.01546
0.892317
0.758758
0.625195
0.500198
0.389348
0.296009
0.22058
0.161722
0.117012
0.083672
0.058643
0.0392182
0.022981
0.0078963
1.38095
1.36797
1.31356
1.22222
1.10109
0.960901
0.812866
0.667674
0.533694
0.416064
0.317684
0.238463
0.176682
0.12959
0.0941741
0.0671578
0.0456938
0.0272312
0.0095432
1.51772
1.48434
1.41006
1.29922
1.1605
1.00584
0.84686
0.694027
0.555062
0.434339
0.334083
0.253628
0.19087
0.14278
0.106167
0.0775916
0.0540877
0.0329605
0.0117993
1.58651
1.53865
1.44864
1.32344
1.17371
1.01211
0.849971
0.696914
0.559595
0.441398
0.343795
0.265595
0.204415
0.157066
0.120306
0.0906111
0.0649613
0.0405542
0.0148282
1.66958
1.60344
1.49251
1.34909
1.18603
1.01646
0.851144
0.698499
0.563845
0.44935
0.355564
0.280654
0.221866
0.175786
0.139074
0.108062
0.0796347
0.0508421
0.0189344
1.736
1.64239
1.50826
1.34775
1.17465
1.00154
0.837901
0.690389
0.562636
0.455425
0.368334
0.298895
0.244025
0.200121
0.163778
0.131176
0.0991169
0.0644955
0.0243658
1.761
1.6392
1.48428
1.31145
1.1347
0.965071
0.809937
0.673638
0.557889
0.462019
0.384715
0.322952
0.273416
0.232376
0.19642
0.16158
0.1246
0.0822357
0.0313611
1.74844
1.60044
1.42812
1.24881
1.0755
0.916496
0.776257
0.656471
0.556879
0.475429
0.41008
0.357357
0.31381
0.275623
0.239423
0.201074
0.157295
0.10473
0.0401135
1.72467
1.54704
1.35966
1.1792
1.01532
0.872309
0.751216
0.651035
0.569673
0.503865
0.451066
0.407423
0.369411
0.333123
0.295231
0.251386
0.198308
0.132562
0.0507912
1.67046
1.46444
1.27073
1.09919
0.953895
0.834304
0.737775
0.660872
0.600004
0.550996
0.511104
0.476221
0.442851
0.40702
0.365483
0.31367
0.248362
0.166116
0.0635472
1.50037
1.29179
1.11595
0.975613
0.867757
0.786465
0.725515
0.679675
0.644489
0.615422
0.590015
0.564211
0.53478
0.497859
0.450452
0.387918
0.307266
0.205216
0.0784056
1.33692
1.13847
0.992808
0.892961
0.827361
0.785475
0.758701
0.741156
0.728269
0.715556
0.701062
0.680836
0.651887
0.610418
0.553649
0.476852
0.377233
0.251597
0.0962715
1.13867
0.971287
0.878673
0.834936
0.820194
0.821518
0.829814
0.839782
0.847471
0.848899
0.842758
0.825401
0.794104
0.745171
0.676047
0.581945
0.460125
0.307234
0.118584
0.80637
0.73504
0.736408
0.773184
0.823805
0.876971
0.925464
0.965715
0.995107
1.01071
1.01198
0.996003
0.960436
0.901917
0.818195
0.704585
0.558162
0.374958
0.147879
0.482616
0.55383
0.664647
0.78356
0.895805
0.995073
1.07782
1.14261
1.18851
1.21388
1.21869
1.20109
1.15894
1.08925
0.989811
0.855854
0.683299
0.466092
0.191609
0.169881
0.412186
0.639457
0.840195
1.01199
1.15473
1.26936
1.35647
1.41697
1.45086
1.45836
1.43926
1.39154
1.31268
1.20019
1.04883
0.851693
0.597947
0.264054
-0.0674691
0.339065
0.671458
0.944807
1.16981
1.35131
1.49464
1.60187
1.6759
1.71873
1.73062
1.71369
1.66607
1.58584
1.46973
1.31117
1.09757
0.808395
0.39975
-0.180849
0.340958
0.752696
1.08465
1.35506
1.57057
1.7401
1.86659
1.95515
2.01041
2.03279
2.02769
1.99382
1.93045
1.83305
1.69271
1.48691
1.1772
0.684027
-0.156959
0.407566
0.86675
1.24196
1.54977
1.79483
1.98859
2.13471
2.24096
2.31568
2.36026
2.38495
2.39082
2.3803
2.34838
2.28422
2.15105
1.88152
1.33844
-0.0294737
0.514267
0.993526
1.3988
1.73645
2.00659
2.22226
2.38866
2.51681
2.62104
2.70545
2.78786
2.87719
2.98529
3.11219
3.25389
3.36288
3.33772
2.95887
0.124659
0.624768
1.11266
1.54073
1.90176
2.19191
2.42525
2.61136
2.76426
2.90944
3.05589
3.23415
3.47815
3.83375
4.35236
5.15453
6.4208
8.53767
12.3039
)
;

boundaryField
{
    up
    {
        type            calculated;
        value           nonuniform List<scalar> 
84
(
-12.3039
-2.95887
-1.33845
-0.68403
-0.399752
-0.264055
-0.191608
-0.147877
-0.118582
-0.09627
-0.078405
-0.0635475
-0.050792
-0.0401145
-0.0313619
-0.0243662
-0.0189345
-0.0148281
-0.011799
-0.00954284
-0.00789593
-0.00686149
-0.00720214
-0.00596545
-0.0240139
-0.0291337
-0.0351505
-0.0420711
-0.0510011
-0.0635113
-0.0821349
-0.110276
-0.147724
-0.338016
-0.221994
-0.00435611
-0.0191261
-0.0136921
-0.0115757
-0.00716553
-0.0054608
-0.00342243
0.0034088
0.00541298
0.00718671
0.0115432
0.013668
0.0190744
0.00461198
0.21849
0.340259
0.148056
0.110513
0.082289
0.0636179
0.0510798
0.0421342
0.035207
0.0291811
0.0241302
0.00595406
0.00720246
0.00686201
0.0078963
0.0095432
0.0117993
0.0148282
0.0189344
0.0243658
0.0313611
0.0401135
0.0507912
0.0635472
0.0784056
0.0962715
0.118584
0.147879
0.191609
0.264054
0.39975
0.684027
1.33844
2.95887
12.3039
)
;
    }
    low
    {
        type            calculated;
        value           nonuniform List<scalar> 
84
(
-0.112117
0.0486618
0.187589
0.21372
0.0878618
-0.173596
-0.51279
-0.856407
-1.19606
-1.3841
-1.54246
-1.70578
-1.74252
-1.75617
-1.76279
-1.72798
-1.65272
-1.56733
-1.4924
-1.34352
-1.17813
-1.00409
-0.807264
-0.58479
-0.385348
-0.12808
0.125121
0.381667
0.619566
0.87124
1.06199
1.23229
1.38551
1.47967
1.52844
1.56047
1.46803
1.27697
1.05062
0.78503
0.491931
0.188444
-0.188357
-0.491846
-0.78494
-1.05054
-1.27692
-1.46801
-1.56044
-1.52865
-1.47955
-1.38558
-1.23233
-1.06204
-0.871293
-0.619617
-0.381726
-0.125171
0.127962
0.385424
0.584702
0.807303
1.0041
1.17813
1.34352
1.4924
1.56734
1.65272
1.72798
1.76279
1.75617
1.74253
1.70577
1.54247
1.38411
1.19607
0.856415
0.512797
0.173601
-0.0878591
-0.213721
-0.187592
-0.0486643
0.112118
)
;
    }
    left
    {
        type            calculated;
        value           nonuniform List<scalar> 
19
(
-0.111294
-0.601769
-1.10086
-1.54487
-1.92229
-2.22647
-2.4723
-2.67083
-2.83591
-2.99876
-3.16836
-3.3783
-3.67192
-4.10902
-4.7532
-5.7725
-7.41705
-10.2267
-10.6703
)
;
    }
    right
    {
        type            calculated;
        value           nonuniform List<scalar> 
19
(
0.111296
0.601771
1.10086
1.54487
1.92229
2.22646
2.4723
2.67083
2.83592
2.99876
3.16836
3.3783
3.67191
4.109
4.75319
5.77248
7.41704
10.2267
10.6703
)
;
    }
    frontAndBackPlanes
    {
        type            empty;
    }
}


// ************************************************************************* //
