/*--------------------------------*- C++ -*----------------------------------*\
  =========                 |
  \\      /  F ield         | OpenFOAM: The Open Source CFD Toolbox
   \\    /   O peration     | Website:  https://openfoam.org
    \\  /    A nd           | Version:  7
     \\/     M anipulation  |
\*---------------------------------------------------------------------------*/
FoamFile
{
    version     2.0;
    format      ascii;
    class       volScalarField;
    location    "0.13";
    object      gradTy;
}
// * * * * * * * * * * * * * * * * * * * * * * * * * * * * * * * * * * * * * //

dimensions      [0 -1 0 1 0 0 0];

internalField   nonuniform List<scalar> 
1596
(
-0.548809
-1.01199
-1.37708
-1.7079
-2.00025
-2.29476
-2.56875
-2.8666
-3.20084
-3.5793
-4.11141
-4.78941
-5.75621
-7.17266
-9.43466
-13.0189
-19.4903
-31.477
-74.3511
-1.66147
-2.02638
-2.24354
-2.4136
-2.54878
-2.69887
-2.84845
-3.04091
-3.29071
-3.59809
-4.05755
-4.65302
-5.48198
-6.61727
-8.26457
-10.5202
-13.9095
-18.9104
-33.1066
-2.94478
-3.0352
-3.04106
-3.03011
-3.00491
-3.01109
-3.03435
-3.11441
-3.26329
-3.47621
-3.83273
-4.30849
-4.97248
-5.85777
-7.09127
-8.68102
-10.9149
-13.9869
-20.555
-4.25155
-3.98912
-3.75775
-3.56059
-3.37881
-3.24576
-3.14584
-3.11265
-3.15507
-3.26506
-3.50847
-3.85691
-4.36012
-5.03099
-5.95231
-7.09808
-8.64029
-10.6517
-14.0739
-5.40894
-4.83275
-4.38355
-4.01419
-3.68866
-3.4265
-3.21129
-3.06959
-3.00773
-3.01604
-3.14813
-3.37549
-3.73444
-4.22804
-4.91348
-5.75433
-6.86178
-8.25504
-10.2757
-6.27726
-5.51805
-4.91023
-4.40111
-3.95358
-3.57779
-3.25914
-3.01784
-2.85872
-2.77209
-2.80063
-2.91833
-3.15163
-3.49897
-4.00158
-4.62284
-5.43921
-6.44697
-7.77381
-6.79884
-6.01305
-5.32843
-4.72603
-4.18585
-3.71667
-3.30956
-2.98041
-2.73401
-2.56192
-2.4974
-2.51827
-2.64332
-2.86892
-3.22537
-3.67994
-4.28741
-5.0356
-5.97312
-6.99845
-6.3046
-5.62462
-4.98199
-4.38408
-3.84598
-3.36829
-2.96551
-2.64395
-2.39759
-2.25188
-2.18905
-2.22181
-2.34563
-2.58262
-2.9052
-3.35337
-3.91331
-4.60316
-6.9561
-6.43264
-5.82069
-5.1846
-4.56117
-3.97718
-3.44531
-2.98185
-2.59612
-2.28554
-2.06963
-1.93497
-1.8895
-1.92823
-2.06673
-2.28233
-2.60399
-3.01899
-3.53318
-6.73351
-6.38064
-5.87345
-5.28534
-4.67134
-4.07013
-3.50638
-3.00071
-2.56657
-2.20547
-1.93311
-1.74004
-1.63075
-1.60004
-1.65822
-1.78693
-2.00677
-2.30715
-2.68911
-6.49234
-6.25072
-5.84083
-5.31528
-4.73063
-4.13198
-3.55329
-3.02024
-2.55086
-2.15108
-1.83448
-1.59519
-1.43529
-1.3495
-1.34381
-1.40322
-1.54159
-1.75029
-2.02841
-6.22284
-6.09036
-5.76811
-5.306
-4.75864
-4.17359
-3.59089
-3.04094
-2.54616
-2.1168
-1.76577
-1.49021
-1.29069
-1.16191
-1.10639
-1.1115
-1.18572
-1.32184
-1.51809
-5.90903
-5.87068
-5.62949
-5.23121
-4.72747
-4.16664
-3.59187
-3.03739
-2.52927
-2.08151
-1.70739
-1.40649
-1.17866
-1.01862
-0.926306
-0.890747
-0.916279
-0.996707
-1.12982
-5.64649
-5.65448
-5.47126
-5.12563
-4.66173
-4.12677
-3.56473
-3.01256
-2.49902
-2.04105
-1.65274
-1.3355
-1.08887
-0.907626
-0.789719
-0.725249
-0.715378
-0.754464
-0.840001
-5.41588
-5.45885
-5.3151
-5.00828
-4.57614
-4.06386
-3.51504
-2.96837
-2.45438
-1.99213
-1.59654
-1.27023
-1.01263
-0.818449
-0.684182
-0.600513
-0.566241
-0.575963
-0.626923
-5.19679
-5.27612
-5.16332
-4.88467
-4.4759
-3.98134
-3.44414
-2.90414
-2.39298
-1.93106
-1.53387
-1.20466
-0.942704
-0.742536
-0.599504
-0.504555
-0.454766
-0.444796
-0.471687
-5.00583
-5.11006
-5.02028
-4.7609
-4.36719
-3.88417
-3.35523
-2.82125
-2.3146
-1.8563
-1.46202
-1.13504
-0.874254
-0.673844
-0.528193
-0.428278
-0.36993
-0.347778
-0.358718
-4.84535
-4.96801
-4.8946
-4.64682
-4.26032
-3.78189
-3.25632
-2.72585
-2.22346
-1.77038
-1.38192
-1.06086
-0.805423
-0.609162
-0.46555
-0.365424
-0.303687
-0.274894
-0.275839
-4.68092
-4.8463
-4.7937
-4.55472
-4.16968
-3.68909
-3.16091
-2.62949
-2.12883
-1.68025
-1.29833
-0.984942
-0.737229
-0.547861
-0.409336
-0.312192
-0.250582
-0.218957
-0.214027
-4.50389
-4.72401
-4.70065
-4.47264
-4.0872
-3.6007
-3.06595
-2.53049
-2.02983
-1.58544
-1.21086
-0.906733
-0.668783
-0.488535
-0.357438
-0.265618
-0.20661
-0.174774
-0.166778
-4.35279
-4.61566
-4.62229
-4.40602
-4.01851
-3.52262
-2.97731
-2.43432
-1.93127
-1.48994
-1.12264
-0.828484
-0.601441
-0.431671
-0.309455
-0.224412
-0.169523
-0.139076
-0.129769
-4.21543
-4.52225
-4.55951
-4.35593
-3.96594
-3.45858
-2.89975
-2.34619
-1.83828
-1.39841
-1.03758
-0.753202
-0.537301
-0.378483
-0.265772
-0.188172
-0.138096
-0.109747
-0.100004
-4.08153
-4.4387
-4.5097
-4.32085
-3.9293
-3.40999
-2.83611
-2.26992
-1.75511
-1.31498
-0.959312
-0.683847
-0.478531
-0.330374
-0.227106
-0.15703
-0.111863
-0.0854695
-0.0750622
-3.95468
-4.3627
-4.46754
-4.29269
-3.89864
-3.3658
-2.77538
-2.19501
-1.67208
-1.23115
-0.880166
-0.613685
-0.419262
-0.282271
-0.189064
-0.127352
-0.0878335
-0.063402
-0.0492129
-3.84587
-4.30282
-4.4534
-4.3141
-3.94416
-3.42315
-2.83541
-2.25081
-1.72009
-1.27072
-0.911162
-0.637646
-0.437362
-0.29595
-0.199441
-0.135645
-0.0944239
-0.0680225
-0.0497604
-3.76447
-4.25474
-4.44139
-4.33888
-4.00159
-3.50437
-2.92987
-2.34797
-1.81155
-1.35142
-0.978159
-0.690833
-0.477819
-0.325575
-0.22036
-0.150302
-0.104916
-0.0764796
-0.0585543
-3.75497
-4.25173
-4.45526
-4.37775
-4.06793
-3.59514
-3.03748
-2.46296
-1.92479
-1.45591
-1.06941
-0.766905
-0.538556
-0.372145
-0.25478
-0.175204
-0.122977
-0.0901831
-0.0699279
-3.82681
-4.3023
-4.49905
-4.42903
-4.13631
-3.68416
-3.14453
-2.58145
-2.04646
-1.57322
-1.17646
-0.86015
-0.61625
-0.434074
-0.301955
-0.209886
-0.148006
-0.108565
-0.084105
-3.96861
-4.40615
-4.57745
-4.49998
-4.21475
-3.77887
-3.2573
-2.70855
-2.18095
-1.70757
-1.30387
-0.975836
-0.716924
-0.517888
-0.368307
-0.259984
-0.184411
-0.134871
-0.10356
-4.17318
-4.55179
-4.68284
-4.58731
-4.30279
-3.88001
-3.37669
-2.84495
-2.32888
-1.85996
-1.45353
-1.11721
-0.845585
-0.630376
-0.46181
-0.33352
-0.239051
-0.1743
-0.132113
-4.43416
-4.73749
-4.82096
-4.70153
-4.41309
-4.0004
-3.51435
-3.00047
-2.49819
-2.03685
-1.63114
-1.29012
-1.00922
-0.780648
-0.593962
-0.443408
-0.324027
-0.236291
-0.17637
-4.70322
-4.94407
-4.9823
-4.83809
-4.5442
-4.1404
-3.67139
-3.17634
-2.68995
-2.23919
-1.83773
-1.49622
-1.21119
-0.975467
-0.776731
-0.607412
-0.46017
-0.33918
-0.24888
-5.00196
-5.17868
-5.16962
-4.99847
-4.69702
-4.30055
-3.84794
-3.37225
-2.90341
-2.46579
-2.07177
-1.73364
-1.44985
-1.2153
-1.01659
-0.843533
-0.67989
-0.524194
-0.37591
-5.34642
-5.45304
-5.39464
-5.19592
-4.88701
-4.4988
-4.0642
-3.61049
-3.1628
-2.74246
-2.36071
-2.03073
-1.75376
-1.52915
-1.34695
-1.19939
-1.0648
-0.93237
-0.788476
-5.72003
-5.75119
-5.63183
-5.3924
-5.06231
-4.66918
-4.24026
-3.79826
-3.36387
-2.9546
-2.58081
-2.25404
-1.97726
-1.75274
-1.57701
-1.44939
-1.35763
-1.29292
-1.23991
-6.13694
-6.06908
-5.87335
-5.58079
-5.21756
-4.80775
-4.37359
-3.93442
-3.50754
-3.10706
-2.74307
-2.42451
-2.15449
-1.93467
-1.76359
-1.64022
-1.55951
-1.519
-1.51446
-6.59501
-6.41109
-6.13555
-5.78908
-5.39129
-4.96164
-4.51832
-4.0778
-3.65496
-3.26172
-2.90749
-2.59953
-2.3404
-2.13071
-1.9683
-1.84919
-1.76646
-1.71336
-1.68163
-7.0011
-6.71472
-6.36856
-5.97359
-5.54396
-5.09505
-4.642
-4.19869
-3.77795
-3.38998
-3.04299
-2.74316
-2.49226
-2.29023
-2.13458
-2.02096
-1.94258
-1.89292
-1.86422
-7.3164
-6.9627
-6.56539
-6.13362
-5.67922
-5.21518
-4.75448
-4.30906
-3.89021
-3.50673
-3.16597
-2.87323
-2.62976
-2.43506
-2.28653
-2.17953
-2.10742
-2.06361
-2.04037
-7.56259
-7.15859
-6.72261
-6.26277
-5.78939
-5.31372
-4.84711
-4.40007
-3.98273
-3.60283
-3.26709
-2.98012
-2.74281
-2.55433
-2.41198
-2.31088
-2.24448
-2.2061
-2.18804
-7.74081
-7.29946
-6.83447
-6.35404
-5.86703
-5.38318
-4.91252
-4.46447
-4.04832
-3.67109
-3.33904
-3.05636
-2.82364
-2.63983
-2.50216
-2.40551
-2.34334
-2.30883
-2.29424
-7.8619
-7.38116
-6.89408
-6.40055
-5.90577
-5.41759
-4.94498
-4.49665
-4.08139
-3.70581
-3.37595
-3.09576
-2.8657
-2.68462
-2.54974
-2.45589
-2.39659
-2.36498
-2.35334
-7.86193
-7.38122
-6.89416
-6.40065
-5.90587
-5.4177
-4.9451
-4.49677
-4.08152
-3.70594
-3.37609
-3.09589
-2.86584
-2.68477
-2.54989
-2.45604
-2.39675
-2.36515
-2.35352
-7.74086
-7.29959
-6.83466
-6.35427
-5.8673
-5.38348
-4.91284
-4.46481
-4.04868
-3.67145
-3.33942
-3.05674
-2.82404
-2.64025
-2.5026
-2.40597
-2.34384
-2.30936
-2.29482
-7.56266
-7.15879
-6.7229
-6.26315
-5.78982
-5.3142
-4.84762
-4.40062
-3.9833
-3.60342
-3.26769
-2.98075
-2.74345
-2.55499
-2.41267
-2.31161
-2.24526
-2.20693
-2.18893
-7.31651
-6.96296
-6.56578
-6.1341
-5.67978
-5.2158
-4.75515
-4.30977
-3.89095
-3.5075
-3.16676
-2.87404
-2.63058
-2.43591
-2.2874
-2.18044
-2.10838
-2.06463
-2.04146
-7.00122
-6.71502
-6.369
-5.97415
-5.54461
-5.09579
-4.64281
-4.19954
-3.77885
-3.39091
-3.04394
-2.74413
-2.49325
-2.29124
-2.13562
-2.02202
-1.94369
-1.89409
-1.86546
-6.59514
-6.41142
-6.13603
-5.7897
-5.39202
-4.96246
-4.51922
-4.07877
-3.65597
-3.26277
-2.90856
-2.60061
-2.34149
-2.13181
-1.96941
-1.85031
-1.76761
-1.71453
-1.68284
-6.13709
-6.06947
-5.87396
-5.58161
-5.21855
-4.8089
-4.37488
-3.93582
-3.50902
-3.1086
-2.74466
-2.42613
-2.15614
-1.93635
-1.76532
-1.64195
-1.56121
-1.52056
-1.51573
-5.72012
-5.75126
-5.63198
-5.39268
-5.06275
-4.66977
-4.241
-3.79912
-3.36481
-2.95556
-2.58177
-2.25493
-1.97804
-1.75337
-1.5775
-1.44978
-1.35813
-1.29387
-1.24185
-5.34647
-5.45333
-5.39521
-5.19681
-4.88826
-4.50039
-4.0661
-3.61264
-3.16512
-2.74489
-2.36317
-2.03317
-1.75617
-1.53153
-1.34939
-1.20204
-1.06786
-0.936024
-0.792865
-5.00196
-5.17875
-5.16988
-4.99898
-4.69782
-4.30164
-3.84927
-3.37377
-2.90506
-2.46749
-2.07345
-1.73527
-1.45142
-1.21683
-1.01812
-0.845118
-0.681504
-0.52571
-0.377059
-4.7032
-4.9441
-4.9825
-4.83855
-4.54495
-4.14145
-3.67268
-3.17782
-2.69153
-2.24079
-1.83929
-1.4977
-1.21259
-0.97679
-0.777995
-0.608615
-0.461261
-0.340074
-0.24953
-4.43413
-4.73747
-4.8211
-4.70191
-4.41377
-4.00137
-3.51555
-3.00184
-2.49963
-2.0383
-1.63252
-1.2914
-1.0104
-0.781717
-0.594927
-0.44426
-0.324742
-0.236848
-0.176767
-4.17314
-4.55174
-4.68294
-4.58764
-4.3034
-3.88089
-3.3778
-2.84621
-2.33019
-1.86124
-1.45473
-1.1183
-0.84655
-0.631219
-0.462533
-0.334122
-0.23953
-0.174665
-0.132374
-3.96855
-4.40608
-4.5775
-4.50024
-4.21529
-3.77967
-3.2583
-2.70968
-2.18211
-1.70869
-1.3049
-0.976743
-0.717704
-0.518545
-0.368847
-0.260415
-0.184743
-0.13512
-0.103741
-3.82676
-4.30221
-4.49907
-4.42926
-4.13678
-3.68488
-3.14543
-2.58245
-2.04747
-1.57418
-1.17732
-0.860892
-0.616871
-0.434582
-0.30236
-0.210199
-0.148243
-0.108744
-0.0842401
-3.75492
-4.25165
-4.45527
-4.37794
-4.06834
-3.59577
-3.03826
-2.46382
-1.92565
-1.45672
-1.07012
-0.767506
-0.539049
-0.37254
-0.255087
-0.175438
-0.123154
-0.0903195
-0.0700387
-3.76441
-4.25465
-4.44137
-4.339
-4.00189
-3.50483
-2.93045
-2.34861
-1.81218
-1.352
-0.978673
-0.691264
-0.478168
-0.32585
-0.22057
-0.15046
-0.105035
-0.076575
-0.0586457
-3.84592
-4.30286
-4.45346
-4.31421
-3.94434
-3.42338
-2.83568
-2.25111
-1.72038
-1.27101
-0.911424
-0.637879
-0.437563
-0.29612
-0.199581
-0.135761
-0.0945189
-0.0680983
-0.0498092
-3.95474
-4.36275
-4.46755
-4.29264
-3.89852
-3.36563
-2.77517
-2.19479
-1.67186
-1.23094
-0.879993
-0.613545
-0.419152
-0.282188
-0.189003
-0.127306
-0.0877986
-0.0633717
-0.0491733
-4.08157
-4.43872
-4.50972
-4.32085
-3.9293
-3.40998
-2.8361
-2.26991
-1.75511
-1.31499
-0.959325
-0.683862
-0.478546
-0.330387
-0.227117
-0.157039
-0.111871
-0.0854757
-0.0750642
-4.21546
-4.52227
-4.55951
-4.35591
-3.96592
-3.45855
-2.89973
-2.34617
-1.83828
-1.39841
-1.03758
-0.753208
-0.537307
-0.37849
-0.265778
-0.188177
-0.138101
-0.109752
-0.100008
-4.35281
-4.61568
-4.62229
-4.40601
-4.01849
-3.5226
-2.97729
-2.43431
-1.93127
-1.48994
-1.12265
-0.828487
-0.601444
-0.431674
-0.309459
-0.224416
-0.169528
-0.139082
-0.129774
-4.5039
-4.72402
-4.70065
-4.47263
-4.08718
-3.60068
-3.06594
-2.53049
-2.02983
-1.58543
-1.21086
-0.906734
-0.668783
-0.488536
-0.35744
-0.265621
-0.206616
-0.174782
-0.166785
-4.68093
-4.8463
-4.79369
-4.55471
-4.16967
-3.68908
-3.1609
-2.62949
-2.12883
-1.68025
-1.29833
-0.98494
-0.737228
-0.54786
-0.409337
-0.312196
-0.25059
-0.218968
-0.214037
-4.84536
-4.96802
-4.89459
-4.64681
-4.26032
-3.78188
-3.25632
-2.72585
-2.22346
-1.77037
-1.38191
-1.06085
-0.805419
-0.60916
-0.465551
-0.365429
-0.303697
-0.274908
-0.275852
-5.00583
-5.11006
-5.02028
-4.7609
-4.36718
-3.88418
-3.35523
-2.82125
-2.3146
-1.85629
-1.46202
-1.13503
-0.874248
-0.673841
-0.528194
-0.428284
-0.369942
-0.347795
-0.358733
-5.19679
-5.27612
-5.16331
-4.88467
-4.4759
-3.98135
-3.44415
-2.90414
-2.39298
-1.93105
-1.53386
-1.20465
-0.942697
-0.742533
-0.599506
-0.504563
-0.45478
-0.444814
-0.471701
-5.41587
-5.45884
-5.3151
-5.00828
-4.57614
-4.06387
-3.51505
-2.96837
-2.45437
-1.99212
-1.59653
-1.27022
-1.01262
-0.818446
-0.684186
-0.600523
-0.566257
-0.57598
-0.626933
-5.64648
-5.65447
-5.47125
-5.12564
-4.66174
-4.12678
-3.56473
-3.01256
-2.49901
-2.04104
-1.65273
-1.33548
-1.08887
-0.907624
-0.789724
-0.725259
-0.715392
-0.754474
-0.840004
-5.90902
-5.87067
-5.62949
-5.23122
-4.72748
-4.16665
-3.59187
-3.03739
-2.52926
-2.0815
-1.70737
-1.40647
-1.17865
-1.01862
-0.926312
-0.890756
-0.916286
-0.996706
-1.12982
-6.22281
-6.09035
-5.76812
-5.30601
-4.75865
-4.17359
-3.59089
-3.04093
-2.54615
-2.11679
-1.76576
-1.4902
-1.29069
-1.16191
-1.10639
-1.1115
-1.18571
-1.32183
-1.51807
-6.49232
-6.25071
-5.84084
-5.3153
-4.73065
-4.13199
-3.55329
-3.02024
-2.55085
-2.15107
-1.83447
-1.59518
-1.43529
-1.3495
-1.34382
-1.40321
-1.54157
-1.75025
-2.02839
-6.73349
-6.38065
-5.87347
-5.28536
-4.67135
-4.07013
-3.50638
-3.0007
-2.56656
-2.20547
-1.9331
-1.74004
-1.63075
-1.60005
-1.65822
-1.78692
-2.00674
-2.3071
-2.68908
-6.95609
-6.43265
-5.82071
-5.18462
-4.56117
-3.97718
-3.4453
-2.98184
-2.59612
-2.28554
-2.06963
-1.93497
-1.8895
-1.92824
-2.06672
-2.28231
-2.60395
-3.01894
-3.53315
-6.99846
-6.30462
-5.62464
-4.982
-4.38408
-3.84598
-3.36829
-2.96551
-2.64395
-2.39759
-2.25189
-2.18906
-2.22182
-2.34563
-2.58261
-2.90517
-3.35333
-3.91327
-4.60315
-6.79886
-6.01308
-5.32845
-4.72603
-4.18586
-3.71667
-3.30956
-2.98041
-2.73402
-2.56193
-2.49741
-2.51828
-2.64332
-2.86892
-3.22535
-3.67991
-4.28737
-5.03557
-5.97313
-6.27729
-5.51807
-4.91024
-4.40112
-3.95358
-3.57779
-3.25915
-3.01785
-2.85874
-2.77211
-2.80065
-2.91835
-3.15163
-3.49896
-4.00156
-4.62281
-5.43919
-6.44696
-7.77383
-5.40896
-4.83276
-4.38356
-4.0142
-3.68867
-3.42651
-3.2113
-3.06961
-3.00774
-3.01606
-3.14815
-3.3755
-3.73444
-4.22803
-4.91345
-5.75431
-6.86177
-8.25505
-10.2758
-4.25157
-3.98912
-3.75775
-3.5606
-3.37882
-3.24578
-3.14586
-3.11267
-3.15509
-3.26508
-3.50849
-3.85692
-4.36012
-5.03098
-5.95229
-7.09806
-8.64029
-10.6518
-14.0739
-2.94479
-3.03519
-3.04106
-3.03012
-3.00492
-3.0111
-3.03437
-3.11442
-3.26331
-3.47623
-3.83274
-4.30849
-4.97247
-5.85775
-7.09125
-8.68101
-10.9149
-13.9869
-20.555
-1.66148
-2.02638
-2.24353
-2.4136
-2.54879
-2.69888
-2.84846
-3.04093
-3.29073
-3.59811
-4.05756
-4.65302
-5.48198
-6.61725
-8.26455
-10.5201
-13.9095
-18.9104
-33.1066
-0.548813
-1.01199
-1.37707
-1.70789
-2.00025
-2.29476
-2.56875
-2.8666
-3.20084
-3.57931
-4.11142
-4.78941
-5.7562
-7.17265
-9.43463
-13.0189
-19.4903
-31.477
-74.3511
)
;

boundaryField
{
    up
    {
        type            calculated;
        value           nonuniform List<scalar> 
84
(
-67.3813
-36.4937
-22.359
-15.152
-10.9905
-8.2848
-6.35533
-4.89491
-3.75564
-2.85721
-2.15252
-1.60713
-1.1919
-0.881745
-0.6539
-0.488359
-0.368456
-0.28107
-0.216419
-0.167471
-0.12949
-0.0991272
-0.0730675
-0.0434123
-0.0416427
-0.053705
-0.0644499
-0.0773381
-0.0946976
-0.119923
-0.158383
-0.218079
-0.323917
-0.761517
-1.25625
-1.52507
-1.67008
-1.85446
-2.03313
-2.1832
-2.29102
-2.35162
-2.35181
-2.29162
-2.18413
-2.03425
-1.85573
-1.6713
-1.52607
-1.25832
-0.766557
-0.32501
-0.218628
-0.158723
-0.120148
-0.0948557
-0.0774583
-0.0645516
-0.0538135
-0.0416976
-0.0433646
-0.0730656
-0.0991288
-0.129494
-0.167478
-0.216428
-0.281081
-0.368467
-0.488369
-0.653907
-0.881743
-1.19189
-1.60711
-2.1525
-2.85719
-3.75564
-4.89493
-6.35538
-8.28485
-10.9905
-15.152
-22.359
-36.4937
-67.3813
)
;
    }
    low
    {
        type            calculated;
        value           nonuniform List<scalar> 
84
(
-0.589752
-1.7392
-3.11097
-4.5266
-5.78261
-6.71192
-7.24091
-7.40423
-7.27849
-6.95426
-6.66335
-6.34769
-5.96951
-5.67387
-5.42548
-5.17869
-4.96253
-4.79486
-4.61244
-4.39367
-4.20853
-4.04281
-3.8745
-3.71515
-3.55249
-3.44585
-3.43968
-3.54828
-3.73867
-4.00351
-4.31789
-4.62208
-4.95927
-5.34644
-5.75414
-6.21519
-6.73316
-7.1748
-7.50915
-7.77097
-7.9619
-8.10304
-8.10307
-7.96192
-7.77101
-7.5092
-7.17486
-6.73324
-6.21528
-5.75409
-5.34649
-4.9592
-4.62204
-4.31785
-4.00347
-3.73863
-3.54826
-3.43966
-3.44585
-3.55251
-3.71524
-3.8745
-4.04283
-4.20855
-4.39368
-4.61245
-4.79487
-4.96254
-5.1787
-5.42547
-5.67386
-5.9695
-6.34767
-6.66331
-6.95423
-7.27847
-7.40422
-7.24093
-6.71194
-5.78264
-4.52663
-3.11099
-1.73922
-0.589759
)
;
    }
    left
    {
        type            calculated;
        value           nonuniform List<scalar> 
19
(
-0.538946
-0.994782
-1.36843
-1.71199
-2.01852
-2.32672
-2.61406
-2.92694
-3.27786
-3.68076
-4.24973
-4.98103
-6.03689
-7.60971
-10.1431
-14.2221
-21.6675
-35.6146
-69.8793
)
;
    }
    right
    {
        type            calculated;
        value           nonuniform List<scalar> 
19
(
-0.53895
-0.994782
-1.36843
-1.71199
-2.01852
-2.32672
-2.61406
-2.92694
-3.27787
-3.68077
-4.24973
-4.98103
-6.03687
-7.60968
-10.1431
-14.2221
-21.6675
-35.6146
-69.8793
)
;
    }
    frontAndBackPlanes
    {
        type            empty;
    }
}


// ************************************************************************* //
