/*--------------------------------*- C++ -*----------------------------------*\
  =========                 |
  \\      /  F ield         | OpenFOAM: The Open Source CFD Toolbox
   \\    /   O peration     | Website:  https://openfoam.org
    \\  /    A nd           | Version:  7
     \\/     M anipulation  |
\*---------------------------------------------------------------------------*/
FoamFile
{
    version     2.0;
    format      ascii;
    class       volScalarField;
    location    "0.17";
    object      gradTz;
}
// * * * * * * * * * * * * * * * * * * * * * * * * * * * * * * * * * * * * * //

dimensions      [0 -1 0 1 0 0 0];

internalField   nonuniform List<scalar> 
1596
(
-1.61353e-16
-7.80022e-17
7.97521e-17
2.17938e-18
-1.50635e-16
0
-6.95488e-17
-6.85888e-17
-5.2263e-18
-3.64986e-17
-2.86813e-19
-3.64418e-17
1.61318e-16
-3.61866e-17
1.68807e-16
1.45894e-16
8.68412e-17
1.09835e-16
0
1.60696e-16
0
2.23287e-16
-1.90368e-18
-6.71542e-17
6.64448e-17
1.3878e-16
5.02736e-18
6.53903e-17
-3.16715e-17
6.33175e-17
-8.30655e-19
-8.80397e-17
-5.51983e-17
-1.36415e-16
-1.33331e-16
-1.21455e-16
6.92505e-17
0
-7.80648e-17
0
-1.44092e-16
3.01413e-18
1.29276e-16
-3.7671e-17
3.5741e-18
-8.84813e-19
-8.35831e-19
-8.45206e-19
2.27966e-17
0
4.565e-17
1.2897e-16
-1.2757e-17
1.03971e-17
2.43857e-17
3.85156e-17
0
1.23582e-16
-3.60999e-17
3.59681e-17
0
-3.42478e-17
-3.58459e-17
5.87871e-17
-4.96715e-17
0
0
-1.9945e-17
1.19246e-17
0
-3.76816e-17
-4.739e-17
3.31409e-17
-3.49267e-17
-1.79186e-18
0
2.16999e-17
5.59037e-17
-4.89221e-17
0
-1.39628e-17
-4.28173e-17
0
6.28914e-17
-6.16908e-18
-5.59132e-18
-7.00555e-18
3.21221e-17
4.02028e-17
4.31515e-18
2.56647e-18
-3.58242e-17
1.79517e-18
1.6664e-17
-7.27562e-18
-5.63511e-18
-7.65297e-17
7.11416e-17
-6.02076e-17
-1.59158e-19
-5.08462e-17
1.41703e-18
-1.42174e-18
-3.8612e-17
0
-5.84921e-18
-3.81255e-17
-3.62652e-17
2.87453e-17
3.15683e-17
-4.26528e-19
-1.89586e-17
-1.6902e-17
1.30081e-17
4.70936e-17
-7.76282e-17
8.44437e-17
4.61444e-17
0
3.92423e-17
2.22937e-17
-1.06327e-17
4.87891e-17
-9.01315e-18
-3.8916e-17
3.09508e-19
-2.24846e-17
-2.8869e-17
-2.19773e-17
1.9139e-17
1.91254e-17
-2.5807e-19
-5.37836e-18
5.73907e-18
1.23909e-16
-1.41035e-16
0
0
-4.69816e-17
0
0
0
2.96143e-17
0
0
2.07874e-17
6.61644e-19
6.66917e-18
-1.68243e-17
0
8.95091e-18
3.61474e-18
0
-7.89605e-17
1.5077e-16
0
0
4.83845e-17
0
-1.71014e-17
1.70841e-17
-3.01431e-17
1.22059e-17
-1.22951e-17
0
1.76461e-17
1.85425e-17
0
-1.06667e-17
-9.14081e-18
-3.17565e-18
1.98186e-16
-9.16594e-17
0
-5.92818e-17
5.86184e-17
0
3.94849e-17
0
0
0
1.08179e-17
-1.08697e-17
0
-1.37102e-17
-3.81924e-18
0
1.70456e-18
5.91373e-18
0
-5.03255e-17
0
0
5.94882e-17
-1.09068e-16
7.2231e-18
2.78206e-18
-1.5308e-17
2.17913e-18
8.78478e-19
-1.1181e-17
-1.71404e-17
0
1.28074e-17
-2.68921e-18
2.72957e-18
7.70528e-18
-4.69223e-18
-2.09208e-18
3.96109e-17
-5.54297e-18
3.81394e-17
1.25041e-16
-8.66427e-18
-4.99235e-17
0
0
0
2.30952e-17
8.75381e-18
3.10452e-17
-7.46231e-18
-1.25783e-17
-7.05221e-18
-4.0643e-18
1.83174e-18
-4.05046e-18
1.97726e-18
-4.52382e-17
4.44127e-17
-8.08306e-17
-1.23604e-16
1.12394e-16
4.13735e-17
-7.49134e-17
6.18633e-17
-5.10074e-17
1.33988e-17
9.50467e-18
-8.45151e-18
4.86438e-18
-4.57394e-18
1.36552e-17
0
-1.05483e-18
7.93584e-18
-1.18984e-18
-3.00099e-16
1.35712e-16
1.04166e-19
-2.68305e-17
4.5906e-18
4.01601e-17
-7.53473e-17
-2.9132e-17
2.35904e-17
-1.89965e-17
-1.53863e-17
0
-1.64375e-17
-4.80818e-18
-8.23683e-18
-4.86476e-18
3.80575e-19
-4.66067e-18
1.90217e-19
4.90434e-17
-4.26431e-17
5.78518e-20
-3.08357e-17
-7.30382e-17
6.78661e-17
3.68592e-19
2.83891e-17
-2.29683e-17
3.62426e-17
8.39737e-18
6.52547e-18
1.87873e-17
0
1.47843e-17
6.76429e-18
0
2.43477e-18
1.49931e-19
0
4.13687e-17
3.05102e-17
-6.4663e-17
7.0664e-17
-1.03065e-16
7.03181e-17
2.41726e-17
-4.69163e-18
-3.61698e-17
5.97807e-18
-5.94857e-18
-1.66597e-17
6.23301e-18
-3.22094e-18
-6.50425e-18
2.67221e-18
-1.67801e-18
7.32928e-19
-4.56539e-17
1.49024e-16
-1.11611e-16
5.7314e-17
0
0
-1.29113e-17
2.82204e-17
-1.78779e-17
3.29648e-17
0
0
1.09498e-17
-9.26834e-18
-6.08099e-18
1.93006e-18
-2.09508e-18
1.12859e-18
0
4.77615e-18
4.27105e-17
-3.25503e-17
-2.76009e-17
-4.16105e-17
-1.12438e-17
1.81991e-17
0
-1.65956e-17
-1.24405e-17
1.08389e-17
-8.25825e-18
6.2667e-18
0
2.37624e-18
4.26104e-18
0
0
0
-4.61293e-18
6.42528e-17
2.22979e-17
-8.3736e-17
2.17534e-17
1.78789e-17
0
0
1.54433e-17
-8.14368e-18
-1.04836e-17
7.98723e-18
-6.06037e-18
0
-1.39468e-18
1.08174e-18
0
-9.25202e-19
-3.27886e-19
-3.55924e-17
1.04474e-16
-1.23645e-16
-4.6095e-17
2.46257e-17
-1.66633e-17
1.32024e-17
0
-7.89976e-18
6.26177e-18
0
0
2.21698e-18
-2.21953e-18
5.91692e-19
-8.73639e-19
1.26527e-18
2.04788e-19
2.47056e-19
1.88307e-17
-1.6482e-17
8.04507e-17
-5.15524e-17
-1.94357e-17
3.16068e-18
2.77816e-17
9.55085e-18
7.55888e-18
0
3.61137e-18
-3.30579e-18
2.44193e-18
-1.93466e-18
2.20427e-18
-3.67548e-18
-9.83314e-19
8.44824e-19
2.14398e-19
4.94234e-17
-5.06099e-17
0
4.10926e-17
-2.21239e-17
-1.49252e-17
8.94006e-18
-2.9702e-17
0
-5.4292e-19
-4.40342e-18
-2.83709e-18
3.73517e-18
-3.624e-19
-2.13039e-18
1.49178e-18
0
4.85142e-19
-2.08179e-19
8.6971e-17
-1.47577e-17
5.94302e-17
-4.63483e-17
2.27758e-17
6.51799e-19
-2.47682e-17
-7.3372e-18
1.27694e-17
-6.84866e-19
-6.14169e-18
4.93836e-18
-2.05897e-18
-2.393e-18
0
0
0
-4.89267e-19
1.77237e-20
-7.57137e-17
7.32793e-17
5.33492e-20
1.01493e-17
8.27769e-18
-1.83848e-17
2.07387e-17
-1.5831e-17
1.26579e-17
-3.62556e-18
6.77526e-18
2.14215e-18
-8.58547e-19
4.07796e-20
-2.42616e-19
-4.27581e-19
0
0
0
0
0
3.31719e-17
-1.80033e-17
-4.8049e-17
0
0
-4.60149e-18
-6.79916e-18
5.2804e-18
0
-2.70164e-18
1.92516e-18
-5.81957e-18
6.55023e-18
-1.92496e-18
2.03826e-18
2.11927e-19
0
-1.46519e-17
1.48322e-17
0
-1.08589e-17
1.09181e-17
1.67751e-17
0
4.64543e-18
5.16821e-18
-2.41256e-17
0
-3.13003e-18
2.25064e-18
1.44478e-18
-9.99058e-19
1.39627e-18
0
-4.71307e-19
0
-7.54143e-18
-7.28585e-18
4.30683e-19
1.11573e-17
-2.85274e-17
0
-6.55339e-18
0
1.59742e-17
5.89139e-18
0
1.24105e-17
-1.22854e-17
1.41448e-18
-2.13089e-18
8.38078e-19
2.70868e-18
9.44351e-19
-7.49036e-19
0
1.53683e-17
-1.2779e-17
1.57306e-17
1.76968e-17
0
1.31876e-17
-1.21591e-17
-8.64945e-18
1.18296e-17
-1.76301e-17
-7.73678e-18
0
0
1.3289e-18
0
0
3.37477e-19
0
-6.92016e-17
5.33561e-17
0
1.03475e-18
-1.01544e-17
-5.32267e-19
8.41914e-18
5.33453e-18
-7.19886e-18
-1.58075e-17
2.31117e-17
-6.37792e-18
0
-2.52906e-18
0
0
0
-1.31451e-18
1.05343e-18
-1.98259e-17
1.81035e-17
4.64265e-17
-4.47999e-17
1.32904e-17
9.21299e-19
-8.54092e-18
6.95386e-18
1.11291e-17
7.89705e-18
-1.55108e-17
0
6.72491e-18
4.54496e-19
-2.89588e-18
-5.71604e-18
4.63844e-18
-6.54562e-19
1.28464e-18
-6.80118e-17
9.32587e-17
-9.1917e-17
1.54912e-17
1.2487e-17
-1.16321e-17
9.5343e-18
-7.05174e-18
0
-5.43743e-18
7.95256e-18
3.41646e-18
5.23994e-18
5.95226e-18
-8.75354e-18
-2.75399e-19
0
-5.48505e-19
1.86573e-19
-7.35274e-17
-2.11027e-17
-3.55318e-17
1.92206e-17
-2.93433e-17
2.4409e-17
-1.42478e-17
1.13331e-17
-1.01561e-18
-9.93301e-19
-8.70341e-18
5.32774e-18
-2.426e-18
7.63052e-18
-8.19144e-18
8.06796e-19
8.02219e-19
0
-3.32922e-19
7.94992e-17
-2.28329e-17
0
0
-3.01516e-17
5.79145e-17
-1.31704e-17
-2.34135e-18
1.8654e-17
-5.15572e-19
0
0
-3.61221e-18
0
-7.35602e-18
1.73279e-17
-1.18422e-17
0
1.39817e-19
2.68591e-17
4.91566e-17
0
-2.00059e-17
-1.54203e-17
-1.29311e-17
-1.37778e-17
5.38547e-18
-1.47228e-17
-7.61686e-18
0
0
5.32962e-18
0
0
-1.0353e-17
1.71756e-17
0
0
1.84404e-16
-2.34184e-17
-1.08298e-16
-5.61772e-17
7.64488e-17
2.33337e-17
1.33593e-17
0
-4.59806e-18
4.22966e-18
1.06011e-17
-3.35586e-18
-4.67678e-18
7.16791e-18
-7.62446e-18
-2.19711e-18
0
0
0
1.47669e-17
-1.1355e-16
1.11069e-16
-1.0344e-17
-7.7264e-17
1.19393e-16
-5.91434e-17
0
0
2.85302e-17
-2.31618e-17
0
-6.53085e-18
1.14946e-17
-1.20254e-18
3.26747e-18
9.7511e-19
1.2531e-20
2.07079e-19
0
0
0
9.01115e-17
-6.05901e-17
6.06901e-17
-9.395e-17
2.63309e-17
0
-8.94012e-18
1.38758e-17
-1.41818e-17
-2.66529e-18
2.17588e-20
-1.76811e-18
-2.37754e-19
-1.41264e-18
-4.02318e-19
-2.16612e-19
1.2285e-16
-2.17243e-16
1.02066e-16
0
2.58694e-17
-3.53432e-17
3.40101e-17
-2.69465e-17
0
-1.23453e-17
1.73141e-17
0
0
2.37528e-20
0
-1.91126e-18
1.29946e-18
2.19152e-19
3.48366e-19
1.21111e-16
0
-4.5969e-17
5.13012e-17
-3.10137e-17
6.72725e-17
-3.1477e-17
-2.36999e-17
2.39474e-17
-2.3803e-18
0
0
1.46328e-18
-2.39957e-18
-1.68096e-18
3.17061e-18
-6.85844e-19
3.43495e-19
0
6.87019e-17
5.21943e-17
-2.567e-18
-4.90337e-17
-4.81769e-18
-3.39086e-17
4.1782e-18
2.79674e-17
-1.41118e-18
2.425e-18
0
0
-1.49903e-18
0
1.74291e-18
-1.86449e-18
0
2.37761e-19
-6.55425e-20
-3.64528e-17
-2.621e-17
2.45578e-17
-2.74202e-18
-1.21099e-18
3.21113e-18
0
-8.20817e-19
1.19996e-17
-1.01044e-17
0
3.28943e-18
-6.7224e-19
-2.87631e-18
-2.60936e-19
-2.02551e-19
0
-1.8619e-19
0
1.47072e-17
-2.77815e-17
-1.71088e-19
1.16723e-17
1.03476e-17
-1.02602e-17
-7.03941e-18
7.95968e-18
-2.64976e-18
2.07906e-18
-1.96136e-18
2.02186e-18
0
5.04355e-21
-1.92706e-19
6.90724e-19
-2.3555e-21
0
0
1.47077e-17
-1.46526e-17
-1.16107e-17
1.02982e-17
1.82634e-17
-1.83712e-17
-3.51985e-18
3.52844e-18
-2.67235e-18
2.70032e-18
-1.96145e-18
3.68315e-18
-1.03313e-18
-7.32721e-19
-2.2212e-19
7.42617e-20
1.7509e-19
4.61589e-20
-3.46037e-20
0
-3.46234e-18
2.0188e-17
-2.19176e-17
1.82055e-17
-1.61616e-17
0
1.22032e-17
-1.09329e-17
0
3.88858e-18
-4.91341e-18
-2.74484e-18
2.87677e-18
5.20378e-19
0
0
-1.86236e-19
6.7583e-20
5.84922e-17
-1.06966e-16
1.07467e-16
-9.28181e-17
3.62269e-17
-2.96664e-17
2.82037e-17
3.24503e-18
-1.18418e-17
1.05673e-17
0
-7.34033e-18
6.69469e-18
-1.2427e-18
-5.0971e-19
7.85557e-19
5.74997e-19
1.808e-19
-6.53006e-20
1.3644e-16
0
-5.20593e-17
4.04911e-17
4.76238e-18
-3.55888e-17
6.24865e-17
-5.4423e-17
2.11911e-17
-8.73089e-18
8.93683e-18
1.74028e-18
2.90462e-18
1.2104e-18
-9.76002e-19
-1.37231e-19
-1.24072e-18
0
1.23413e-19
1.07726e-16
-1.21265e-16
0
1.0671e-17
4.4731e-17
-4.36251e-17
7.20348e-18
6.24644e-18
2.70192e-18
4.60812e-18
0
0
-5.03491e-18
9.27233e-18
-3.36093e-18
-1.18743e-18
1.30004e-18
1.03113e-19
-2.33313e-19
1.1805e-17
1.06569e-16
-1.19737e-17
-7.95444e-17
6.99161e-17
8.11121e-18
-7.04991e-18
-6.10091e-18
1.93493e-17
-2.39833e-17
1.38817e-17
-1.41878e-17
2.09154e-18
-2.77708e-18
4.8154e-18
-3.22564e-18
0
0
2.19533e-19
0
2.64374e-17
-7.70552e-17
8.82008e-17
-6.82327e-17
6.80702e-17
0
2.19186e-17
-2.20191e-17
-1.57648e-17
2.31824e-17
0
9.09443e-18
-1.15053e-17
-1.68498e-18
0
-1.80386e-19
-3.37992e-19
-1.84947e-20
-2.55476e-16
1.20657e-16
0
-7.64392e-17
7.64315e-17
4.46333e-17
-2.92651e-17
1.14394e-17
0
-4.84407e-19
3.3052e-18
-3.35202e-18
-4.67186e-18
7.15968e-18
-7.61312e-18
0
1.51821e-18
-2.86541e-19
-2.10404e-19
1.56186e-16
-1.52677e-16
0
1.98596e-17
1.75573e-17
-1.57442e-17
0
-1.19886e-17
-9.7716e-18
0
-6.5978e-19
0
5.33337e-18
0
0
2.09261e-18
7.74403e-18
-1.0102e-17
0
1.16756e-20
2.28443e-17
-2.054e-17
1.58214e-17
-8.08666e-17
3.04265e-17
0
2.3434e-18
6.57814e-18
0
-6.30702e-18
1.70463e-17
-1.79081e-17
2.77385e-18
0
-4.28133e-19
0
0
0
1.43297e-20
0
1.89841e-17
0
-2.71196e-17
2.75507e-17
0
8.84227e-18
-6.72582e-18
2.36816e-17
-1.12697e-17
3.72165e-18
-5.7229e-18
5.1281e-18
-8.20479e-18
-1.27433e-18
0
-7.04402e-19
0
6.01587e-17
-1.01885e-16
0
-1.5413e-17
1.33291e-17
0
0
-1.5993e-17
0
-5.44259e-18
-7.96077e-18
-3.42054e-18
5.24698e-18
0
2.3969e-18
0
0
1.50147e-18
-1.61228e-18
0
8.63549e-17
-6.89321e-17
1.42689e-17
-1.23429e-17
-4.73181e-18
1.33542e-17
1.42046e-17
-1.61919e-17
5.17487e-18
5.95779e-19
-4.04963e-18
1.63014e-17
-5.02322e-18
-1.05915e-17
3.51931e-18
-8.14255e-19
4.94434e-19
-1.35703e-19
-1.44989e-16
5.33665e-17
0
0
5.10576e-18
-5.19198e-18
3.25854e-18
1.78558e-18
1.43425e-17
6.79505e-18
-6.54165e-18
-4.21528e-19
-3.16469e-18
2.53231e-18
0
1.05913e-18
7.46324e-19
3.65859e-19
1.22656e-19
0
4.52384e-17
-4.11405e-17
1.29719e-17
1.2519e-17
-2.37845e-18
-7.13752e-18
-5.75956e-18
-1.77761e-17
6.6309e-18
-3.48868e-18
5.17629e-18
2.95937e-18
-3.29848e-18
3.50113e-18
1.94377e-18
-2.60952e-18
-3.37925e-19
0
-8.31828e-18
-3.61697e-17
1.25047e-17
1.11606e-17
-3.64202e-17
2.55013e-17
1.14576e-17
-1.17114e-17
8.20997e-18
-6.29306e-18
0
0
-4.05562e-18
7.08354e-18
-3.00386e-18
2.51234e-18
-2.76155e-18
4.23355e-19
-7.50001e-19
1.54492e-17
1.40755e-17
-1.2374e-17
8.87794e-18
-1.08515e-17
-1.50142e-17
0
0
0
0
0
0
2.05872e-18
-4.98146e-18
5.26844e-18
-1.52687e-18
1.89393e-18
8.35997e-19
-7.03668e-19
3.23062e-17
-5.22698e-17
6.51809e-17
-2.80403e-17
3.90853e-17
-2.55928e-17
4.64889e-17
-2.51497e-17
-1.18117e-17
1.20829e-17
0
2.70015e-18
-2.01126e-18
4.41063e-18
-1.66251e-18
-1.87312e-18
-3.54208e-18
2.80239e-19
5.91067e-19
5.0443e-17
1.39602e-17
0
-2.02358e-17
-1.48654e-17
3.31656e-17
2.53585e-18
-1.18746e-17
6.786e-18
-4.3358e-18
0
-2.13747e-18
0
-1.50047e-18
1.16458e-18
-9.84886e-19
-3.17817e-19
2.11459e-19
0
7.02257e-17
-1.47575e-17
5.94202e-17
-4.6365e-17
-8.73539e-18
3.19805e-17
-1.91521e-17
1.15402e-18
8.89484e-19
-4.23141e-18
3.99415e-18
0
0
1.89117e-18
-6.02028e-19
3.64067e-19
1.15066e-18
-3.99687e-19
0
1.42128e-20
0
-1.33635e-17
7.47959e-17
-4.99278e-17
-4.88891e-17
2.65718e-17
-2.47349e-17
2.24523e-17
1.01668e-17
-7.10011e-18
2.72458e-18
-2.33901e-18
4.66461e-19
3.33025e-18
5.78164e-20
-1.12251e-18
1.10225e-18
-2.31034e-19
1.69031e-16
-5.34899e-17
2.40196e-17
-7.52332e-17
1.94356e-17
-2.85678e-17
1.56971e-17
0
0
-5.68173e-19
-8.27319e-19
-2.42492e-19
0
-3.07862e-18
-2.20434e-18
1.5415e-18
-1.10874e-19
2.31707e-19
4.72013e-19
0
-5.22952e-17
8.50948e-17
1.6768e-17
-6.61329e-17
1.66633e-17
-2.38796e-17
5.06089e-18
1.83801e-17
0
0
3.20176e-19
2.99568e-18
0
-2.35752e-18
-1.00971e-18
1.51052e-19
-4.82061e-19
-5.82753e-19
0
-3.20484e-17
9.06105e-18
5.73542e-17
3.96828e-17
-7.14815e-17
3.17107e-17
-1.99794e-17
1.09125e-17
-1.36505e-17
0
0
0
-4.57759e-18
1.00778e-18
-1.40154e-18
0
-8.3485e-20
4.12838e-19
-1.26269e-16
1.18796e-16
1.20905e-16
-1.46259e-16
6.42836e-17
-5.97521e-17
0
2.12714e-17
-2.84819e-17
1.57839e-17
-1.14552e-17
8.84838e-18
6.81795e-18
4.73424e-18
3.5658e-18
0
0
0
0
1.41675e-16
-7.94332e-17
0
0
-2.38991e-17
5.50929e-17
-3.50692e-17
-2.27143e-17
2.24583e-17
1.52979e-17
2.44283e-17
-9.18105e-18
3.87681e-18
2.74263e-18
1.92015e-18
1.6223e-18
2.57178e-18
-1.24383e-19
1.26695e-19
-1.42658e-16
1.29266e-16
6.58759e-17
-3.47303e-17
7.05806e-17
-4.50519e-17
-3.34877e-17
-2.70205e-17
0
-3.23294e-17
2.04085e-18
1.09043e-17
-7.97903e-18
-6.23306e-18
-2.26065e-18
-2.25832e-18
-1.81613e-18
0
0
-4.90778e-17
0
3.63942e-17
-2.14203e-20
0
0
3.45436e-17
2.78813e-17
0
1.77627e-17
0
-1.6524e-17
-4.56357e-18
7.95259e-18
0
5.05837e-18
-7.03765e-19
7.17934e-19
0
1.05441e-16
0
6.91308e-17
-1.26464e-16
1.10033e-16
8.40511e-17
-3.39049e-18
0
2.54555e-18
2.15074e-17
0
-1.93016e-17
2.07734e-17
-1.83124e-17
-3.9513e-18
-4.02317e-18
-1.24028e-18
-2.32178e-19
-9.04245e-19
-9.62228e-17
1.38106e-16
-3.78649e-17
-9.62347e-17
-5.39042e-17
-4.49165e-17
-7.44881e-17
-2.81165e-17
2.92552e-18
9.52256e-18
-9.50467e-18
2.88761e-17
-1.27035e-17
2.47976e-17
-4.63071e-18
0
5.64531e-18
-3.43971e-18
8.94723e-19
2.16845e-16
-5.57278e-18
-1.57444e-16
1.25042e-16
-1.09656e-16
9.22769e-17
-3.70795e-18
-3.24847e-17
2.7367e-17
1.03237e-17
-1.56719e-18
-2.41658e-17
6.70026e-18
7.92342e-18
-2.25078e-18
2.27645e-18
-5.84717e-18
-9.33732e-19
-1.60982e-18
1.06452e-16
4.36992e-17
7.49743e-17
-6.39679e-17
-5.03753e-17
3.49746e-18
-3.60924e-17
8.67522e-17
3.63954e-18
3.78847e-17
2.17576e-17
-1.90824e-17
0
-1.28074e-17
0
0
9.29562e-18
3.96408e-18
1.8634e-18
9.88888e-17
0
7.38579e-17
6.3555e-17
-5.47587e-17
4.63355e-17
0
-3.37828e-17
-4.60667e-17
-3.90312e-17
-2.19502e-17
1.92982e-17
0
0
0
0
-8.73046e-18
-7.10565e-18
0
-1.93703e-16
0
-4.63745e-18
-4.1255e-18
8.38763e-17
-4.52104e-17
-2.03603e-17
-2.05196e-17
4.74714e-17
0
1.22058e-17
-1.26323e-18
1.16843e-17
0
0
1.58949e-17
-1.19707e-18
8.54198e-18
-3.52931e-18
1.35653e-16
3.79373e-17
-3.75457e-17
-3.22331e-17
-1.07882e-16
7.24639e-17
8.54889e-17
-3.11724e-18
-3.28931e-17
3.32789e-17
6.86319e-18
-3.55877e-17
-2.84446e-17
-1.85314e-17
-1.9832e-17
-1.83539e-17
1.63677e-17
-7.63768e-19
3.61475e-18
-4.13246e-17
1.83833e-17
-8.78431e-17
1.44742e-17
-1.44216e-17
0
-4.28278e-17
-4.07155e-18
-3.98128e-17
4.61488e-18
3.89158e-17
2.78389e-17
-7.0762e-18
1.81882e-18
1.87872e-17
0
-3.47909e-17
-1.325e-17
-2.72883e-19
8.52183e-17
-2.24779e-18
1.38274e-16
-6.48197e-17
1.59158e-19
1.66783e-18
4.96717e-17
-5.10379e-18
3.86119e-17
-3.60946e-17
-3.40797e-17
0
3.6265e-17
2.82893e-17
4.11911e-19
-6.0181e-19
1.9143e-17
1.34657e-17
0
-6.03406e-17
0
-1.33388e-17
6.20738e-17
1.0718e-18
1.39814e-17
-4.80318e-17
4.50856e-17
4.91391e-17
4.72361e-17
4.57065e-17
0
-3.52308e-17
0
1.97083e-18
-2.04688e-18
0
-2.02758e-19
1.00974e-17
4.24481e-17
2.72384e-18
-3.17832e-17
9.89511e-17
-3.14879e-17
0
0
-5.6812e-17
-4.76107e-17
-4.57612e-17
-8.49852e-17
-1.19246e-17
0
0
0
-4.16613e-18
4.40881e-18
2.86665e-17
-1.02536e-17
2.85065e-18
0
-7.02008e-17
-6.29047e-17
6.67629e-17
-6.64215e-17
-9.45859e-17
1.14321e-16
3.28589e-17
0
5.08311e-17
5.942e-17
-1.28274e-17
7.03413e-17
-1.15705e-17
1.2042e-17
4.73405e-17
-2.72417e-17
0
-8.08498e-17
0
-7.68004e-17
7.50145e-17
0
1.32827e-16
6.19063e-17
-1.31641e-16
1.06758e-16
-5.93889e-19
-3.19958e-17
-5.75307e-17
0
8.18172e-17
-1.36415e-16
1.46648e-16
-1.86947e-16
0
0
8.06457e-17
-6.64161e-19
-1.62926e-18
-1.52121e-16
1.54106e-16
-7.41108e-17
7.38087e-17
7.27626e-17
-6.30493e-17
0
0
1.22522e-16
-1.24633e-16
-1.32197e-16
1.31364e-16
-1.28212e-16
1.38866e-16
-2.17716e-16
0
)
;

boundaryField
{
    up
    {
        type            calculated;
        value           nonuniform List<scalar> 
84
(
0
0
0
0
-7.27562e-18
1.30081e-17
-5.37836e-18
3.61474e-18
-3.17565e-18
0
-2.09208e-18
1.97726e-18
-1.18984e-18
1.90217e-19
1.49931e-19
7.32928e-19
0
0
-3.27886e-19
2.47056e-19
2.14398e-19
-2.08179e-19
1.77237e-20
0
8.13336e-20
4.43648e-20
-7.0133e-19
0
1.05343e-18
1.37141e-18
1.86573e-19
-3.32922e-19
1.39817e-19
0
-6.54677e-20
2.12e-19
-2.14917e-19
3.46851e-19
0
-6.52073e-20
0
0
-3.45919e-20
6.7583e-20
-6.53006e-20
1.23413e-19
-2.33313e-19
2.19533e-19
-1.84947e-20
-2.10404e-19
0
0
0
-1.61228e-18
-2.226e-19
1.22656e-19
0
-7.50001e-19
-7.03668e-19
5.09972e-19
0
0
-2.31034e-19
4.72013e-19
-5.82753e-19
4.12838e-19
0
1.26695e-19
0
0
-9.04245e-19
8.94723e-19
-1.60982e-18
1.8634e-18
0
-3.52931e-18
3.61475e-18
-2.72883e-19
0
1.00974e-17
-1.02536e-17
0
0
0
)
;
    }
    low
    {
        type            calculated;
        value           nonuniform List<scalar> 
84
(
-1.61499e-16
1.60696e-16
-7.77966e-17
1.23798e-16
2.18443e-17
-5.67734e-18
4.74448e-17
6.072e-18
0
1.98573e-16
-5.03255e-17
3.93883e-17
-4.52382e-17
-3.00128e-16
4.90434e-17
0
-4.56539e-17
4.77615e-18
-4.61293e-18
-3.55924e-17
1.88307e-17
4.94234e-17
8.65905e-17
-7.57137e-17
0
-1.46519e-17
-7.54143e-18
0
-6.92016e-17
-1.98259e-17
-6.77794e-17
-7.33533e-17
7.9394e-17
2.68591e-17
1.84444e-16
1.47669e-17
0
1.2285e-16
1.21427e-16
6.88711e-17
-3.65421e-17
1.47072e-17
1.47077e-17
0
5.84922e-17
1.36755e-16
1.07726e-16
1.20338e-17
0
-2.55516e-16
1.56186e-16
1.16756e-20
1.43297e-20
6.01587e-17
0
-1.44589e-16
0
-8.31828e-18
1.54492e-17
3.20648e-17
5.00269e-17
6.9845e-17
1.42128e-20
1.68732e-16
0
0
-1.26269e-16
1.41554e-16
-1.42589e-16
-4.90778e-17
1.05471e-16
-9.62228e-17
2.17291e-16
1.06756e-16
9.88888e-17
-1.93703e-16
1.3532e-16
-4.09735e-17
8.52183e-17
-6.01961e-17
4.24481e-17
3.11893e-18
-8.08498e-17
8.07189e-17
)
;
    }
    left
    {
        type            calculated;
        value           nonuniform List<scalar> 
19
(
-1.61353e-16
-7.80758e-17
7.97521e-17
2.1862e-18
-1.50693e-16
0
-6.95488e-17
-6.85888e-17
-5.47638e-18
-3.64986e-17
-2.86813e-19
-3.64418e-17
1.62919e-16
-3.61866e-17
1.68807e-16
1.45894e-16
8.68412e-17
1.27537e-16
0
)
;
    }
    right
    {
        type            calculated;
        value           nonuniform List<scalar> 
19
(
8.06457e-17
-5.90596e-19
-1.62926e-18
-1.52128e-16
1.54164e-16
-7.41108e-17
7.38087e-17
7.27626e-17
-6.27992e-17
0
0
1.23669e-16
-1.26234e-16
-1.32197e-16
1.31364e-16
-1.28212e-16
1.38866e-16
-2.35418e-16
0
)
;
    }
    frontAndBackPlanes
    {
        type            empty;
    }
}


// ************************************************************************* //
