/*--------------------------------*- C++ -*----------------------------------*\
  =========                 |
  \\      /  F ield         | OpenFOAM: The Open Source CFD Toolbox
   \\    /   O peration     | Website:  https://openfoam.org
    \\  /    A nd           | Version:  7
     \\/     M anipulation  |
\*---------------------------------------------------------------------------*/
FoamFile
{
    version     2.0;
    format      ascii;
    class       volScalarField;
    location    "0.17";
    object      gradTy;
}
// * * * * * * * * * * * * * * * * * * * * * * * * * * * * * * * * * * * * * //

dimensions      [0 -1 0 1 0 0 0];

internalField   nonuniform List<scalar> 
1596
(
-0.225877
-0.417937
-0.57208
-0.71567
-0.84769
-0.985763
-1.12095
-1.273
-1.44855
-1.65228
-1.93524
-2.29582
-2.80242
-3.5338
-4.68497
-6.49341
-9.73931
-15.7375
-37.1752
-0.686099
-0.841138
-0.939585
-1.02357
-1.09796
-1.1834
-1.27327
-1.38644
-1.52998
-1.70491
-1.95475
-2.2736
-2.70767
-3.29258
-4.12884
-5.26537
-6.96312
-9.46262
-16.5569
-1.2227
-1.26774
-1.28372
-1.29867
-1.31255
-1.34369
-1.38526
-1.45425
-1.55632
-1.69002
-1.89175
-2.15144
-2.50144
-2.95795
-3.58226
-4.38001
-5.49339
-7.02175
-10.2954
-1.77832
-1.67824
-1.59903
-1.54088
-1.49382
-1.47056
-1.4631
-1.4856
-1.54211
-1.62956
-1.77812
-1.9756
-2.24522
-2.59328
-3.05911
-3.63152
-4.39459
-5.38721
-7.08154
-2.28216
-2.04912
-1.87996
-1.75213
-1.64731
-1.57192
-1.517
-1.49357
-1.50431
-1.54535
-1.64151
-1.78038
-1.97902
-2.23898
-2.58687
-3.00613
-3.55019
-4.23083
-5.22014
-2.67306
-2.35846
-2.12132
-1.93498
-1.7795
-1.65679
-1.55805
-1.49141
-1.45869
-1.4559
-1.50324
-1.58935
-1.72698
-1.91553
-2.17383
-2.48488
-2.88459
-3.37264
-4.01379
-2.92107
-2.59003
-2.31752
-2.09033
-1.89491
-1.73205
-1.59484
-1.48927
-1.41693
-1.37426
-1.37751
-1.41706
-1.50248
-1.63233
-1.8204
-2.0512
-2.34984
-2.71101
-3.15943
-3.03055
-2.73504
-2.46133
-2.21467
-1.99299
-1.7994
-1.6306
-1.49167
-1.38462
-1.30678
-1.27116
-1.27015
-1.31091
-1.39183
-1.52316
-1.69162
-1.91521
-2.18707
-2.51617
-3.03119
-2.80777
-2.56082
-2.31455
-2.07995
-1.86497
-1.67125
-1.50429
-1.36715
-1.25848
-1.18877
-1.15244
-1.15483
-1.19443
-1.27887
-1.39712
-1.56214
-1.76704
-2.01422
-2.94716
-2.7988
-2.59607
-2.3686
-2.13611
-1.91181
-1.70247
-1.51518
-1.35455
-1.22088
-1.12293
-1.05703
-1.02723
-1.03226
-1.07781
-1.15495
-1.2731
-1.42606
-1.61351
-2.84877
-2.75168
-2.59176
-2.39059
-2.16946
-1.94461
-1.72702
-1.52575
-1.34729
-1.1937
-1.07277
-0.98251
-0.92612
-0.902583
-0.91612
-0.959531
-1.03957
-1.15091
-1.2921
-2.73229
-2.68674
-2.5669
-2.39371
-2.18831
-1.96826
-1.74749
-1.53697
-1.34502
-1.17555
-1.0359
-0.925593
-0.847283
-0.800224
-0.787474
-0.803235
-0.852201
-0.929873
-1.03439
-2.59164
-2.59137
-2.50972
-2.3658
-2.17979
-1.9698
-1.75139
-1.53719
-1.33712
-1.15672
-1.00337
-0.877853
-0.782581
-0.717073
-0.683531
-0.67727
-0.701467
-0.752368
-0.82804
-2.4701
-2.4941
-2.44123
-2.3227
-2.1554
-1.95695
-1.74348
-1.52885
-1.32422
-1.13652
-0.973437
-0.836721
-0.728736
-0.64922
-0.599722
-0.576378
-0.581211
-0.61105
-0.664029
-2.36015
-2.40305
-2.37119
-2.27277
-2.12154
-1.934
-1.72623
-1.51286
-1.30601
-1.11369
-0.943958
-0.799348
-0.682233
-0.592508
-0.531214
-0.495055
-0.485174
-0.498837
-0.534289
-2.25367
-2.3154
-2.30085
-2.21842
-2.08034
-1.90227
-1.70002
-1.48876
-1.28127
-1.08641
-0.912609
-0.762946
-0.639823
-0.543215
-0.47374
-0.428471
-0.407873
-0.409521
-0.431778
-2.15861
-2.23346
-2.23265
-2.1627
-2.03474
-1.86408
-1.66636
-1.45721
-1.24992
-1.05398
-0.878114
-0.725751
-0.59927
-0.498632
-0.424066
-0.372843
-0.34489
-0.337982
-0.350578
-2.07656
-2.16099
-2.17079
-2.11024
-1.98952
-1.82381
-1.62895
-1.42106
-1.21393
-1.01757
-0.840888
-0.687509
-0.559695
-0.457276
-0.380089
-0.325455
-0.292843
-0.280135
-0.285856
-1.99313
-2.0966
-2.11851
-2.06628
-1.95081
-1.78776
-1.5937
-1.38547
-1.17754
-0.980432
-0.803213
-0.649597
-0.521625
-0.418896
-0.340801
-0.284586
-0.249294
-0.232839
-0.233773
-1.90514
-2.03164
-2.06859
-2.02547
-1.91472
-1.75322
-1.55872
-1.34914
-1.13981
-0.941846
-0.764442
-0.611333
-0.484259
-0.382482
-0.304896
-0.248559
-0.212118
-0.193479
-0.191215
-1.82956
-1.97307
-2.02475
-1.99085
-1.88428
-1.72319
-1.52692
-1.31475
-1.10309
-0.903782
-0.726124
-0.573832
-0.448271
-0.348273
-0.272164
-0.216692
-0.180097
-0.160267
-0.155865
-1.76156
-1.92176
-1.98772
-1.96308
-1.86046
-1.69912
-1.50012
-1.28433
-1.06947
-0.868184
-0.689954
-0.538462
-0.414652
-0.31687
-0.242808
-0.188774
-0.152503
-0.131825
-0.125725
-1.69709
-1.87606
-1.95687
-1.94175
-1.84317
-1.68135
-1.47913
-1.25909
-1.04039
-0.836605
-0.657427
-0.506532
-0.384439
-0.289012
-0.217294
-0.165019
-0.129176
-0.107172
-0.098598
-1.63794
-1.83566
-1.93071
-1.92394
-1.82815
-1.66441
-1.45776
-1.2324
-1.00908
-0.802478
-0.622122
-0.471989
-0.352004
-0.259562
-0.190982
-0.141488
-0.106864
-0.0831102
-0.0672114
-1.58866
-1.80398
-1.91675
-1.92551
-1.84247
-1.68778
-1.48694
-1.2642
-1.04103
-0.833113
-0.649911
-0.496501
-0.372851
-0.276947
-0.205211
-0.153276
-0.116284
-0.0896163
-0.0681292
-1.55313
-1.77963
-1.9045
-1.92651
-1.85668
-1.71363
-1.52186
-1.3049
-1.08418
-0.875928
-0.689793
-0.531878
-0.402727
-0.301048
-0.22381
-0.167451
-0.127331
-0.0994291
-0.0794274
-1.55029
-1.77857
-1.90834
-1.93836
-1.87844
-1.74585
-1.56343
-1.35367
-1.13727
-0.93038
-0.742831
-0.581144
-0.44642
-0.338104
-0.254014
-0.191493
-0.14648
-0.115272
-0.0936018
-1.58406
-1.80434
-1.93007
-1.96063
-1.90515
-1.77968
-1.60532
-1.40304
-1.19235
-0.988779
-0.801871
-0.638196
-0.499031
-0.38432
-0.292711
-0.22274
-0.171291
-0.135256
-0.110347
-1.64987
-1.85633
-1.97078
-1.99551
-1.93963
-1.81818
-1.65045
-1.45565
-1.25174
-1.05326
-0.869057
-0.705454
-0.563468
-0.443096
-0.34349
-0.26453
-0.204531
-0.161615
-0.131694
-1.745
-1.92921
-2.02619
-2.04033
-1.98059
-1.86093
-1.69889
-1.51176
-1.31573
-1.12417
-0.944973
-0.78408
-0.641878
-0.51782
-0.410774
-0.321629
-0.250463
-0.197736
-0.160342
-1.86703
-2.02174
-2.09779
-2.09853
-2.03264
-1.91308
-1.75579
-1.57609
-1.38842
-1.20489
-1.03247
-0.876797
-0.737569
-0.613232
-0.501172
-0.402006
-0.316856
-0.249778
-0.200689
-1.9957
-2.12531
-2.1806
-2.16706
-2.09408
-1.97387
-1.82093
-1.64865
-1.46974
-1.29517
-1.13103
-0.983053
-0.85067
-0.731533
-0.620612
-0.51615
-0.417039
-0.329791
-0.260905
-2.1401
-2.24275
-2.27561
-2.24643
-2.16529
-2.04365
-1.89456
-1.72949
-1.55941
-1.39415
-1.23901
-1.1002
-0.977734
-0.869837
-0.769876
-0.673161
-0.571356
-0.465766
-0.358513
-2.30701
-2.37893
-2.38776
-2.34244
-2.25328
-2.13085
-1.98646
-1.8297
-1.66977
-1.51522
-1.37077
-1.24288
-1.13302
-1.04188
-0.964902
-0.898671
-0.830833
-0.755244
-0.663995
-2.4895
-2.5274
-2.50676
-2.43955
-2.33642
-2.20718
-2.06131
-1.90683
-1.75125
-1.60139
-1.46154
-1.33704
-1.23007
-1.14286
-1.07498
-1.02785
-0.99626
-0.976252
-0.959868
-2.69351
-2.68646
-2.62981
-2.5361
-2.41496
-2.27504
-2.12398
-1.96864
-1.81522
-1.66902
-1.53421
-1.41466
-1.31234
-1.22873
-1.16423
-1.11953
-1.09382
-1.08736
-1.09982
-2.91715
-2.85673
-2.76258
-2.64278
-2.50423
-2.3537
-2.19723
-2.04054
-1.88883
-1.74645
-1.61716
-1.5039
-1.4081
-1.33042
-1.27044
-1.22675
-1.19692
-1.17813
-1.16713
-3.11788
-3.00906
-2.88107
-2.73751
-2.58284
-2.42205
-2.25992
-2.10104
-1.94975
-1.80958
-1.68364
-1.57427
-1.48237
-1.40811
-1.35078
-1.30878
-1.27973
-1.26115
-1.25015
-3.27664
-3.13469
-2.98148
-2.81952
-2.65216
-2.48325
-2.31665
-2.15607
-2.00517
-1.86683
-1.74367
-1.63759
-1.54915
-1.47827
-1.4241
-1.38497
-1.35853
-1.34234
-1.33357
-3.40155
-3.23436
-3.06182
-2.88571
-2.70859
-2.53344
-2.3634
-2.20153
-2.05092
-1.914
-1.79302
-1.68955
-1.60394
-1.53591
-1.48455
-1.44808
-1.42418
-1.4104
-1.40394
-3.49198
-3.30601
-3.11901
-2.93256
-2.74846
-2.56896
-2.39657
-2.23385
-2.0835
-1.94762
-1.82823
-1.72669
-1.64317
-1.57729
-1.52806
-1.49362
-1.47162
-1.45955
-1.4546
-3.55195
-3.34718
-3.14952
-2.95664
-2.76862
-2.58683
-2.41328
-2.25021
-2.1001
-1.96486
-1.84639
-1.74594
-1.66362
-1.599
-1.55108
-1.51798
-1.49737
-1.48675
-1.48328
-3.55196
-3.34721
-3.14956
-2.95668
-2.76867
-2.58687
-2.41333
-2.25026
-2.10015
-1.96492
-1.84645
-1.746
-1.66368
-1.59907
-1.55115
-1.51805
-1.49745
-1.48683
-1.48337
-3.492
-3.30607
-3.11909
-2.93266
-2.74858
-2.56909
-2.39671
-2.23399
-2.08365
-1.94778
-1.82839
-1.72686
-1.64335
-1.57748
-1.52826
-1.49384
-1.47186
-1.45981
-1.45488
-3.40159
-3.23446
-3.06196
-2.88588
-2.70877
-2.53364
-2.36362
-2.20176
-2.05116
-1.91425
-1.79328
-1.68983
-1.60423
-1.53622
-1.48487
-1.44843
-1.42456
-1.4108
-1.40437
-3.27668
-3.13481
-2.98166
-2.81973
-2.6524
-2.48351
-2.31693
-2.15637
-2.00548
-1.86716
-1.74402
-1.63795
-1.54953
-1.47866
-1.42451
-1.3854
-1.35899
-1.34282
-1.33408
-3.11793
-3.00919
-2.88126
-2.73775
-2.58312
-2.42236
-2.26026
-2.1014
-1.95012
-1.80998
-1.68406
-1.5747
-1.48282
-1.40858
-1.35126
-1.30928
-1.28026
-1.2617
-1.25074
-2.91721
-2.85688
-2.7628
-2.64305
-2.50454
-2.35404
-2.1976
-2.04094
-1.88925
-1.74689
-1.61762
-1.50437
-1.4086
-1.33092
-1.27096
-1.22728
-1.19745
-1.17867
-1.16767
-2.69358
-2.68664
-2.63008
-2.53645
-2.41538
-2.27553
-2.12453
-1.96924
-1.81587
-1.66971
-1.53495
-1.41544
-1.31317
-1.22961
-1.16515
-1.12047
-1.09474
-1.08816
-1.10037
-2.48955
-2.52743
-2.50681
-2.43964
-2.33655
-2.20736
-2.06152
-1.90707
-1.75151
-1.60166
-1.46179
-1.33726
-1.23023
-1.14293
-1.07497
-1.02779
-0.996267
-0.976571
-0.960871
-2.30703
-2.37905
-2.38798
-2.34278
-2.25375
-2.13145
-1.98719
-1.83055
-1.67071
-1.51624
-1.37184
-1.24401
-1.13419
-1.04312
-0.966286
-0.900295
-0.832837
-0.757753
-0.667086
-2.1401
-2.24277
-2.27569
-2.2466
-2.16556
-2.04403
-1.89504
-1.73006
-1.56005
-1.39483
-1.23973
-1.10094
-0.978512
-0.870667
-0.770789
-0.674178
-0.572445
-0.466814
-0.359308
-1.9957
-2.12531
-2.18066
-2.16721
-2.09433
-1.97423
-1.82139
-1.64921
-1.47037
-1.29584
-1.13173
-0.983776
-0.851414
-0.732305
-0.62141
-0.516953
-0.417789
-0.33042
-0.261387
-1.86702
-2.02173
-2.09782
-2.09865
-2.03286
-1.91341
-1.75622
-1.57661
-1.389
-1.20551
-1.03311
-0.877452
-0.738227
-0.613887
-0.501807
-0.402594
-0.317366
-0.250191
-0.201011
-1.74498
-1.92919
-2.02621
-2.04042
-1.98078
-1.86122
-1.69928
-1.51223
-1.31627
-1.12473
-0.945554
-0.784657
-0.642441
-0.518356
-0.411268
-0.322062
-0.250824
-0.198026
-0.160573
-1.64985
-1.85629
-1.97077
-1.99557
-1.93979
-1.81844
-1.65081
-1.45608
-1.25223
-1.05377
-0.86957
-0.705953
-0.563941
-0.44353
-0.343874
-0.264856
-0.204798
-0.161831
-0.13187
-1.58404
-1.8043
-1.93005
-1.96068
-1.90528
-1.77991
-1.60563
-1.40342
-1.19278
-0.989225
-0.802314
-0.638618
-0.499421
-0.384668
-0.293011
-0.22299
-0.171495
-0.135423
-0.11049
-1.55027
-1.77853
-1.90832
-1.9384
-1.87856
-1.74605
-1.56371
-1.35401
-1.13764
-0.930764
-0.743206
-0.581497
-0.44674
-0.338383
-0.254251
-0.191689
-0.146641
-0.115409
-0.0937257
-1.55311
-1.77959
-1.90447
-1.92652
-1.85675
-1.71376
-1.52206
-1.30515
-1.08445
-0.876206
-0.690062
-0.532128
-0.40295
-0.301241
-0.223969
-0.167582
-0.127439
-0.0995261
-0.0795335
-1.58869
-1.80399
-1.91677
-1.92555
-1.84254
-1.68788
-1.48706
-1.26434
-1.04119
-0.83328
-0.650079
-0.496665
-0.373006
-0.27709
-0.20534
-0.153391
-0.116385
-0.0897026
-0.068192
-1.63797
-1.83569
-1.93072
-1.92393
-1.82811
-1.66435
-1.45767
-1.2323
-1.00897
-0.802373
-0.622023
-0.471902
-0.35193
-0.259501
-0.190932
-0.141448
-0.106829
-0.0830764
-0.0671677
-1.6971
-1.87607
-1.95688
-1.94175
-1.84317
-1.68135
-1.47913
-1.25909
-1.04038
-0.836604
-0.657428
-0.506536
-0.384445
-0.289019
-0.217302
-0.165027
-0.129185
-0.10718
-0.0986037
-1.76157
-1.92177
-1.98773
-1.96307
-1.86046
-1.69911
-1.50011
-1.28432
-1.06946
-0.868177
-0.68995
-0.538462
-0.414654
-0.316873
-0.242812
-0.18878
-0.152508
-0.131831
-0.125729
-1.82957
-1.97307
-2.02475
-1.99085
-1.88427
-1.72318
-1.52691
-1.31474
-1.10309
-0.903777
-0.726122
-0.573832
-0.448272
-0.348275
-0.272167
-0.216696
-0.180101
-0.160272
-0.155869
-1.90514
-2.03164
-2.06859
-2.02547
-1.91472
-1.75321
-1.55871
-1.34913
-1.1398
-0.941844
-0.764441
-0.611332
-0.484259
-0.382483
-0.304899
-0.248562
-0.212121
-0.193483
-0.191219
-1.99314
-2.0966
-2.11851
-2.06627
-1.9508
-1.78776
-1.5937
-1.38546
-1.17753
-0.98043
-0.803212
-0.649596
-0.521625
-0.418897
-0.340803
-0.284588
-0.249297
-0.232843
-0.233777
-2.07656
-2.16099
-2.17078
-2.11023
-1.98952
-1.82381
-1.62895
-1.42105
-1.21393
-1.01757
-0.840886
-0.687508
-0.559694
-0.457277
-0.38009
-0.325457
-0.292846
-0.280139
-0.285859
-2.15861
-2.23346
-2.23264
-2.1627
-2.03474
-1.86408
-1.66636
-1.45721
-1.24992
-1.05398
-0.878112
-0.725749
-0.599269
-0.498631
-0.424067
-0.372846
-0.344894
-0.337986
-0.350581
-2.25367
-2.31539
-2.30084
-2.21842
-2.08033
-1.90227
-1.70002
-1.48876
-1.28127
-1.08641
-0.912607
-0.762944
-0.639821
-0.543215
-0.473741
-0.428473
-0.407876
-0.409524
-0.431779
-2.36015
-2.40304
-2.37118
-2.27277
-2.12154
-1.93401
-1.72623
-1.51286
-1.30601
-1.11369
-0.943955
-0.799345
-0.682231
-0.592508
-0.531214
-0.495056
-0.485176
-0.498838
-0.534288
-2.47009
-2.4941
-2.44122
-2.3227
-2.1554
-1.95695
-1.74348
-1.52885
-1.32422
-1.13652
-0.973434
-0.836719
-0.728735
-0.649219
-0.599723
-0.576379
-0.58121
-0.611048
-0.664026
-2.59164
-2.59137
-2.50972
-2.3658
-2.17979
-1.96981
-1.75139
-1.53719
-1.33712
-1.15672
-1.00337
-0.877851
-0.78258
-0.717073
-0.683531
-0.677269
-0.701464
-0.752361
-0.828035
-2.73228
-2.68673
-2.5669
-2.39371
-2.18831
-1.96827
-1.74749
-1.53697
-1.34502
-1.17555
-1.0359
-0.925591
-0.847281
-0.800223
-0.787473
-0.803231
-0.852194
-0.929863
-1.03439
-2.84875
-2.75168
-2.59176
-2.3906
-2.16947
-1.94461
-1.72702
-1.52575
-1.34729
-1.1937
-1.07277
-0.982509
-0.92612
-0.902583
-0.916118
-0.959525
-1.03956
-1.1509
-1.29209
-2.94715
-2.7988
-2.59608
-2.36861
-2.13612
-1.91181
-1.70248
-1.51518
-1.35455
-1.22088
-1.12293
-1.05703
-1.02723
-1.03225
-1.07781
-1.15494
-1.27308
-1.42604
-1.6135
-3.03118
-2.80778
-2.56083
-2.31456
-2.07995
-1.86497
-1.67125
-1.50429
-1.36715
-1.25848
-1.18877
-1.15244
-1.15483
-1.19443
-1.27887
-1.39711
-1.56213
-1.76703
-2.01422
-3.03055
-2.73505
-2.46133
-2.21467
-1.993
-1.7994
-1.6306
-1.49167
-1.38462
-1.30679
-1.27117
-1.27015
-1.31091
-1.39183
-1.52315
-1.69161
-1.9152
-2.18707
-2.51617
-2.92108
-2.59004
-2.31753
-2.09034
-1.89492
-1.73206
-1.59484
-1.48927
-1.41693
-1.37426
-1.37751
-1.41706
-1.50248
-1.63233
-1.82039
-2.0512
-2.34983
-2.711
-3.15944
-2.67307
-2.35847
-2.12132
-1.93499
-1.77951
-1.65679
-1.55805
-1.49141
-1.45869
-1.45591
-1.50324
-1.58935
-1.72698
-1.91552
-2.17382
-2.48487
-2.88459
-3.37264
-4.0138
-2.28217
-2.04913
-1.87996
-1.75213
-1.64732
-1.57193
-1.51701
-1.49358
-1.50432
-1.54536
-1.64151
-1.78038
-1.97902
-2.23898
-2.58686
-3.00613
-3.55019
-4.23084
-5.22015
-1.77833
-1.67825
-1.59904
-1.54089
-1.49383
-1.47057
-1.4631
-1.48561
-1.54212
-1.62957
-1.77812
-1.9756
-2.24522
-2.59328
-3.0591
-3.63152
-4.39459
-5.38722
-7.08155
-1.22271
-1.26774
-1.28372
-1.29868
-1.31256
-1.3437
-1.38527
-1.45425
-1.55632
-1.69003
-1.89175
-2.15144
-2.50144
-2.95794
-3.58226
-4.38001
-5.49339
-7.02175
-10.2954
-0.686102
-0.841137
-0.939584
-1.02357
-1.09796
-1.18341
-1.27328
-1.38644
-1.52999
-1.70492
-1.95475
-2.2736
-2.70767
-3.29257
-4.12884
-5.26537
-6.96312
-9.46263
-16.5569
-0.225879
-0.417937
-0.572079
-0.71567
-0.84769
-0.985763
-1.12096
-1.273
-1.44856
-1.65228
-1.93524
-2.29582
-2.80241
-3.53379
-4.68497
-6.4934
-9.73931
-15.7375
-37.1752
)
;

boundaryField
{
    up
    {
        type            calculated;
        value           nonuniform List<scalar> 
84
(
-33.6891
-18.2461
-11.1895
-7.60988
-5.56534
-4.25726
-3.34015
-2.65439
-2.12105
-1.6964
-1.35576
-1.08253
-0.863922
-0.690213
-0.552962
-0.444779
-0.359384
-0.291614
-0.237345
-0.193271
-0.156875
-0.125895
-0.0970096
-0.0599066
-0.0576937
-0.0737957
-0.0875458
-0.103258
-0.123022
-0.149328
-0.185731
-0.237095
-0.320418
-0.650456
-0.980456
-1.11311
-1.16255
-1.24606
-1.33061
-1.40213
-1.45354
-1.48303
-1.48311
-1.45383
-1.40258
-1.33114
-1.24666
-1.1631
-1.11344
-0.981532
-0.654027
-0.321166
-0.237515
-0.186023
-0.149542
-0.123188
-0.103394
-0.0876666
-0.0739286
-0.0577695
-0.0598562
-0.0970127
-0.125899
-0.156878
-0.193274
-0.237348
-0.291617
-0.359386
-0.444779
-0.55296
-0.690209
-0.863917
-1.08252
-1.35576
-1.6964
-2.12105
-2.65441
-3.34016
-4.25727
-5.56535
-7.60989
-11.1895
-18.2461
-33.6891
)
;
    }
    low
    {
        type            calculated;
        value           nonuniform List<scalar> 
84
(
-0.24257
-0.717599
-1.29066
-1.89197
-2.43826
-2.85676
-3.11012
-3.20594
-3.17151
-3.04325
-2.92228
-2.78432
-2.61405
-2.47666
-2.3578
-2.23841
-2.13184
-2.04632
-1.95522
-1.84981
-1.76041
-1.6813
-1.60341
-1.53169
-1.46106
-1.41596
-1.41478
-1.46348
-1.54881
-1.66836
-1.81209
-1.95521
-2.11589
-2.30131
-2.49889
-2.72263
-2.97327
-3.1906
-3.35875
-3.49147
-3.58818
-3.65749
-3.6575
-3.5882
-3.49149
-3.35878
-3.19063
-2.97331
-2.72267
-2.49887
-2.30134
-2.11586
-1.9552
-1.81208
-1.66834
-1.5488
-1.46348
-1.41478
-1.41597
-1.46107
-1.53173
-1.60342
-1.68131
-1.76042
-1.84982
-1.95522
-2.04632
-2.13184
-2.23841
-2.3578
-2.47665
-2.61405
-2.78431
-2.92227
-3.04324
-3.1715
-3.20594
-3.11013
-2.85677
-2.43827
-1.89199
-1.29067
-0.717606
-0.242573
)
;
    }
    left
    {
        type            calculated;
        value           nonuniform List<scalar> 
19
(
-0.221664
-0.410382
-0.567769
-0.716414
-0.854287
-0.998284
-1.13967
-1.29913
-1.48346
-1.70022
-2.00278
-2.39168
-2.94455
-3.75565
-5.04365
-7.09979
-10.8321
-17.8092
-34.9405
)
;
    }
    right
    {
        type            calculated;
        value           nonuniform List<scalar> 
19
(
-0.221666
-0.410382
-0.567769
-0.716414
-0.854287
-0.998285
-1.13967
-1.29913
-1.48346
-1.70022
-2.00278
-2.39167
-2.94454
-3.75564
-5.04364
-7.09978
-10.8321
-17.8092
-34.9405
)
;
    }
    frontAndBackPlanes
    {
        type            empty;
    }
}


// ************************************************************************* //
