/*--------------------------------*- C++ -*----------------------------------*\
  =========                 |
  \\      /  F ield         | OpenFOAM: The Open Source CFD Toolbox
   \\    /   O peration     | Website:  https://openfoam.org
    \\  /    A nd           | Version:  7
     \\/     M anipulation  |
\*---------------------------------------------------------------------------*/
FoamFile
{
    version     2.0;
    format      ascii;
    class       volScalarField;
    location    "0.358";
    object      gradTz;
}
// * * * * * * * * * * * * * * * * * * * * * * * * * * * * * * * * * * * * * //

dimensions      [0 -1 0 1 0 0 0];

internalField   nonuniform List<scalar> 
1596
(
-9.68251e-16
-4.72434e-16
4.78104e-16
8.6582e-18
-9.15777e-16
0
-4.30594e-16
-4.24539e-16
-2.5645e-17
-2.22268e-16
-2.20945e-18
-2.20654e-16
9.67907e-16
-2.17746e-16
1.01842e-15
8.7805e-16
5.22059e-16
6.58775e-16
0
9.69395e-16
0
1.37783e-15
-8.27713e-18
-4.2673e-16
4.23543e-16
8.663e-16
2.42218e-17
4.11652e-16
-1.97804e-16
3.94278e-16
-6.43069e-18
-5.46157e-16
-3.40475e-16
-8.2361e-16
-8.02718e-16
-7.29783e-16
4.15035e-16
0
-4.78002e-16
0
-9.04502e-16
1.31583e-17
8.39469e-16
-2.30733e-16
1.52387e-17
-5.91226e-18
-6.22103e-18
-6.76929e-18
1.5341e-16
0
2.83382e-16
8.055e-16
-7.92371e-17
6.33629e-17
1.49234e-16
2.31757e-16
0
7.47519e-16
-2.28552e-16
2.27718e-16
0
-2.20191e-16
-2.26166e-16
3.93292e-16
-3.49358e-16
0
0
-1.18109e-16
8.00115e-17
0
-2.38252e-16
-3.05676e-16
2.10311e-16
-2.13423e-16
-1.09973e-17
0
1.30199e-16
3.53303e-16
-3.24289e-16
0
-9.73449e-17
-2.94868e-16
0
4.44551e-16
-4.46042e-17
-4.03444e-17
-3.26963e-17
2.33416e-16
2.84219e-16
2.88156e-17
6.47715e-18
-2.27435e-16
1.14934e-17
1.05097e-16
-4.48931e-17
-3.38107e-17
-4.85504e-16
4.67937e-16
-4.16064e-16
-7.4245e-19
-3.76778e-16
1.06654e-17
-1.07008e-17
-3.0297e-16
0
-2.6593e-17
-2.75489e-16
-2.56956e-16
2.11518e-16
2.13327e-16
-2.92639e-18
-1.27792e-16
-1.06599e-16
8.12527e-17
2.82562e-16
-4.96546e-16
5.67079e-16
3.20907e-16
0
2.88406e-16
1.72692e-16
-8.35427e-17
3.85038e-16
-7.2944e-17
-3.04994e-16
2.95399e-18
-1.83085e-16
-2.12573e-16
-1.68391e-16
1.41704e-16
1.28917e-16
-1.71263e-18
-3.4044e-17
2.33779e-17
7.86466e-16
-9.44883e-16
0
0
-3.65235e-16
0
0
0
2.6199e-16
0
0
1.67288e-16
6.72319e-18
4.15557e-17
-1.23538e-16
0
6.57676e-17
2.52544e-17
0
-5.16501e-16
9.98361e-16
0
0
3.76141e-16
0
-1.49153e-16
1.49003e-16
-2.66668e-16
1.12503e-16
-1.13326e-16
0
1.63832e-16
1.53576e-16
0
-8.87965e-17
-6.72209e-17
-2.19985e-17
1.21155e-15
-5.72022e-16
0
-4.3016e-16
4.25346e-16
0
3.32287e-16
0
0
0
1.06336e-16
-1.06846e-16
0
-1.26169e-16
-3.66035e-17
0
7.19443e-18
5.13358e-17
0
-3.07511e-16
0
0
4.31782e-16
-8.14161e-16
3.48225e-17
1.40044e-17
-1.41171e-16
1.37883e-17
3.60426e-18
-1.13155e-16
-1.86057e-16
0
1.40761e-16
-2.74287e-17
2.78404e-17
7.00896e-17
-4.00686e-17
-1.87353e-17
2.65491e-16
-2.26745e-17
2.54509e-16
8.93415e-16
-3.94701e-17
-3.85127e-16
0
0
0
2.33638e-16
9.61105e-17
3.48711e-16
-8.42973e-17
-1.38243e-16
-8.48628e-17
-4.49562e-17
1.99103e-17
-4.30019e-17
1.78847e-17
-2.87651e-16
2.8154e-16
-5.2583e-16
-8.8277e-16
8.27242e-16
3.41723e-16
-6.39444e-16
5.66948e-16
-5.01544e-16
1.30343e-16
1.03385e-16
-9.36754e-17
6.478e-17
-5.67348e-17
1.64241e-16
0
-1.22331e-17
8.93781e-17
-1.3225e-17
-1.83254e-15
8.50578e-16
7.57817e-19
-2.00783e-16
2.06957e-17
3.32819e-16
-6.37068e-16
-2.72102e-16
2.3862e-16
-2.07907e-16
-1.81365e-16
0
-2.10787e-16
-6.30759e-17
-1.14712e-16
-6.82345e-17
5.38743e-18
-5.79747e-17
8.26441e-19
2.99511e-16
-2.71353e-16
6.60601e-19
-2.17251e-16
-5.59935e-16
5.32435e-16
1.2707e-18
2.65163e-16
-2.32328e-16
4.00733e-16
9.51715e-17
8.07133e-17
2.55659e-16
0
2.15671e-16
9.89694e-17
0
3.23029e-17
7.04685e-19
0
2.63243e-16
2.15782e-16
-4.436e-16
5.43186e-16
-8.29786e-16
5.99579e-16
2.3845e-16
-2.90282e-17
-3.96367e-16
7.63743e-17
-7.59974e-17
-2.38304e-16
9.72945e-17
-4.71931e-17
-1.0114e-16
4.48206e-17
-2.76068e-17
1.02568e-17
-2.79037e-16
9.72353e-16
-7.22015e-16
4.07475e-16
0
0
-1.23049e-16
2.58581e-16
-1.95982e-16
3.72137e-16
0
0
1.63267e-16
-1.44301e-16
-1.05791e-16
3.31526e-17
-3.47759e-17
1.80411e-17
0
1.86653e-17
2.60916e-16
-2.18351e-16
-1.95263e-16
-3.28249e-16
-1.17007e-16
1.5016e-16
0
-1.85702e-16
-1.56995e-16
1.4344e-16
-1.20782e-16
1.0071e-16
0
3.99872e-17
8.17164e-17
0
0
0
-1.7785e-17
4.3324e-16
1.74411e-16
-5.86229e-16
1.67661e-16
1.47552e-16
0
0
1.76746e-16
-9.16509e-17
-1.38737e-16
1.16818e-16
-9.73943e-17
0
-2.76254e-17
2.48385e-17
0
-2.04168e-17
-7.06437e-18
-2.27736e-16
6.68363e-16
-8.23197e-16
-3.43171e-16
1.77887e-16
-1.40576e-16
1.21943e-16
0
-8.93567e-17
7.68316e-17
0
0
3.98478e-17
-3.98937e-17
1.25348e-17
-1.56045e-17
3.0002e-17
3.03562e-18
5.21825e-18
1.15155e-16
-1.05612e-16
5.55891e-16
-3.60214e-16
-1.52202e-16
1.63701e-17
2.47665e-16
9.92841e-17
8.5501e-17
0
5.4626e-17
-5.09399e-17
4.19198e-17
-3.65166e-17
4.9612e-17
-8.62921e-17
-2.33399e-17
2.04652e-17
5.56725e-18
3.11555e-16
-3.14117e-16
0
3.0978e-16
-1.61374e-16
-1.27379e-16
9.49522e-17
-2.98917e-16
0
-4.9011e-18
-6.13065e-17
-4.66457e-17
7.11221e-17
-4.88598e-18
-4.79491e-17
3.61953e-17
0
1.36544e-17
-5.40575e-18
5.23723e-16
-9.46183e-17
4.14885e-16
-3.25781e-16
1.90766e-16
2.91439e-17
-2.24887e-16
-8.27261e-17
1.51714e-16
-5.39077e-18
-9.76939e-17
8.4619e-17
-3.78415e-17
-5.25766e-17
0
0
0
-1.3789e-17
5.17797e-19
-4.71217e-16
4.60421e-16
2.79398e-19
7.41051e-17
6.56682e-17
-1.65485e-16
1.99597e-16
-1.70294e-16
1.49643e-16
-5.33872e-17
1.02522e-16
3.83468e-17
-1.66682e-17
9.35522e-19
-6.66854e-18
-1.17639e-17
0
0
0
0
0
2.35541e-16
-1.07864e-16
-3.66683e-16
0
0
-4.91772e-17
-8.31257e-17
7.17534e-17
0
-4.83623e-17
3.9015e-17
-1.35371e-16
1.57141e-16
-5.35486e-17
5.72057e-17
6.38371e-18
0
-9.1344e-17
9.24682e-17
0
-7.82135e-17
7.95898e-17
1.36983e-16
0
4.96468e-17
7.09571e-17
-3.11201e-16
0
-5.22799e-17
4.23078e-17
3.19503e-17
-2.45023e-17
3.65059e-17
0
-1.39498e-17
0
-4.69523e-17
-4.74535e-17
2.81354e-18
8.03624e-17
-2.21357e-16
0
-6.02715e-17
0
1.8357e-16
7.73843e-17
0
2.06972e-16
-2.23032e-16
2.10068e-17
-5.48289e-17
1.30814e-17
6.96026e-17
2.73547e-17
-2.16507e-17
0
9.77618e-17
-8.81378e-17
1.09814e-16
1.36423e-16
0
1.23309e-16
-1.17893e-16
-9.78535e-17
1.53964e-16
-2.31846e-16
-1.19107e-16
0
0
2.91802e-17
0
0
8.78285e-18
0
-4.30215e-16
3.2957e-16
0
4.24644e-18
-8.0257e-17
-4.53153e-18
7.39655e-17
5.62834e-17
-6.76398e-17
-1.85418e-16
3.06319e-16
-8.21328e-17
0
-4.29817e-17
0
0
0
-3.37748e-17
2.69324e-17
-1.20877e-16
1.14877e-16
3.14065e-16
-3.09277e-16
9.67616e-17
4.75477e-18
-7.51949e-17
6.67734e-17
1.17079e-16
9.29394e-17
-1.84158e-16
0
1.04092e-16
1.82504e-17
-4.91763e-17
-1.12996e-16
9.3793e-17
-1.61702e-17
3.0093e-17
-4.05994e-16
6.00787e-16
-5.97866e-16
1.07734e-16
9.41154e-17
-9.0626e-17
7.72878e-17
-6.36641e-17
0
-5.67855e-17
9.53372e-17
4.14864e-17
6.85504e-17
9.15228e-17
-1.383e-16
-1.27754e-18
0
-1.1919e-17
3.95428e-18
-4.39009e-16
-1.33528e-16
-2.39864e-16
1.2634e-16
-2.1447e-16
1.91097e-16
-1.15219e-16
1.00799e-16
-5.89501e-18
-5.92488e-18
-9.81865e-17
5.69011e-17
-3.52428e-17
1.0588e-16
-1.13663e-16
1.57045e-17
1.24782e-17
0
-6.76159e-18
4.74665e-16
-1.43763e-16
0
0
-2.21095e-16
4.33183e-16
-1.02838e-16
-2.05746e-17
1.7236e-16
-4.35814e-18
0
0
-4.34065e-17
0
-9.75218e-17
2.40168e-16
-1.67888e-16
0
2.61943e-18
1.63444e-16
3.09057e-16
0
-1.35228e-16
-1.1388e-16
-1.03728e-16
-1.06546e-16
4.55371e-17
-1.28726e-16
-7.2407e-17
0
0
5.50313e-17
0
0
-1.29656e-16
2.13089e-16
0
0
1.12139e-15
-1.2679e-16
-6.90977e-16
-3.86977e-16
5.24002e-16
1.71091e-16
1.03309e-16
0
-3.92858e-17
3.91747e-17
9.62427e-17
-3.13415e-17
-4.82904e-17
7.5254e-17
-8.00472e-17
-2.55479e-17
0
0
0
8.98015e-17
-7.19688e-16
7.06494e-16
-6.88465e-17
-5.43202e-16
8.56518e-16
-4.33364e-16
0
0
2.43907e-16
-2.01581e-16
0
-6.3046e-17
1.09206e-16
-1.27337e-17
3.23178e-17
9.97191e-18
9.78599e-20
2.20351e-18
0
0
0
6.06592e-16
-4.06239e-16
4.38604e-16
-6.86501e-16
1.97249e-16
0
-7.32865e-17
1.19054e-16
-1.21681e-16
-2.44455e-17
-7.85962e-19
-1.70577e-17
-2.63546e-18
-1.35642e-17
-3.77132e-18
-2.07657e-18
7.54507e-16
-1.35215e-15
6.44107e-16
0
1.79365e-16
-2.44095e-16
2.50199e-16
-1.98564e-16
0
-9.97705e-17
1.39932e-16
0
0
-6.03082e-19
0
-1.71786e-17
1.17903e-17
2.27061e-18
3.29686e-18
7.26131e-16
0
-2.97035e-16
3.31914e-16
-2.12815e-16
4.66904e-16
-2.2194e-16
-1.77243e-16
1.79094e-16
-1.84122e-17
0
0
1.20509e-17
-2.06894e-17
-1.44874e-17
2.7547e-17
-5.96321e-18
3.08752e-18
0
4.12453e-16
3.27524e-16
-8.4428e-18
-3.15926e-16
-3.24068e-17
-2.36652e-16
2.37431e-17
2.00873e-16
-1.05063e-17
1.8758e-17
0
0
-1.23453e-17
0
1.45866e-17
-1.56042e-17
0
2.00128e-18
-5.56654e-19
-2.18959e-16
-1.6417e-16
1.53673e-16
-1.78605e-17
-8.07424e-18
2.20445e-17
0
-5.91864e-18
8.97984e-17
-7.56242e-17
0
2.61203e-17
-5.0316e-18
-2.31611e-17
-2.12559e-18
-1.66087e-18
0
-1.56275e-18
0
9.00311e-17
-1.71862e-16
-2.95436e-18
7.48072e-17
6.96797e-17
-6.92925e-17
-4.99778e-17
5.66055e-17
-1.9738e-17
1.54173e-17
-1.52088e-17
1.56778e-17
0
4.05321e-20
-1.56262e-18
5.63016e-18
-1.92961e-20
0
0
9.00341e-17
-8.96967e-17
-7.44162e-17
6.5879e-17
1.23145e-16
-1.23871e-16
-2.49897e-17
2.50482e-17
-1.99043e-17
2.01135e-17
-1.52092e-17
2.87688e-17
-8.06827e-18
-5.85127e-18
-1.806e-18
5.96588e-19
1.43067e-18
3.78842e-19
-2.84164e-19
0
-2.14599e-17
1.2977e-16
-1.40549e-16
1.2306e-16
-1.08998e-16
0
8.92136e-17
-7.97354e-17
0
3.03595e-17
-3.84827e-17
-2.21009e-17
2.31631e-17
4.2986e-18
0
0
-1.56291e-18
5.68346e-19
3.58531e-16
-6.63015e-16
6.82587e-16
-6.05039e-16
2.38867e-16
-2.07275e-16
1.96503e-16
2.37948e-17
-8.94521e-17
7.99801e-17
0
-5.93315e-17
5.39735e-17
-1.03868e-17
-4.21048e-18
6.70429e-18
4.93958e-18
1.51729e-18
-5.49152e-19
8.19178e-16
0
-3.35805e-16
2.60829e-16
3.20338e-17
-2.50384e-16
4.46663e-16
-4.0061e-16
1.57952e-16
-6.89016e-17
7.05268e-17
1.40744e-17
2.46008e-17
1.01168e-17
-8.53568e-18
-1.07248e-18
-1.07286e-17
0
1.11586e-18
6.62699e-16
-7.45943e-16
0
7.01618e-17
3.08215e-16
-3.02591e-16
5.26616e-17
4.72571e-17
2.07095e-17
3.72412e-17
0
0
-4.28446e-17
8.11392e-17
-2.97902e-17
-1.07706e-17
1.1792e-17
9.50405e-19
-2.13006e-18
5.31059e-17
6.55218e-16
-7.71183e-17
-5.36238e-16
4.70492e-16
5.73037e-17
-5.1539e-17
-4.61561e-17
1.55561e-16
-1.93005e-16
1.19081e-16
-1.21707e-16
1.96765e-17
-2.4347e-17
4.5795e-17
-3.04255e-17
0
0
2.27222e-18
0
1.65361e-16
-5.06683e-16
5.78402e-16
-4.80926e-16
4.79781e-16
0
1.7396e-16
-1.74757e-16
-1.35349e-16
2.01713e-16
0
8.65331e-17
-1.09272e-16
-1.62499e-17
0
-1.88614e-18
-3.91296e-18
1.99569e-20
-1.55382e-15
7.46183e-16
0
-5.23893e-16
5.23841e-16
3.31471e-16
-2.18149e-16
9.28856e-17
0
-4.32919e-18
3.39761e-17
-3.1295e-17
-4.82204e-17
7.51312e-17
-7.98895e-17
0
1.82937e-17
-4.38284e-18
-2.41746e-18
9.60514e-16
-9.49074e-16
0
1.35541e-16
1.25562e-16
-1.16103e-16
0
-9.7345e-17
-8.67546e-17
0
-2.57067e-18
0
5.50482e-17
0
0
2.68241e-17
1.01811e-16
-1.31099e-16
0
1.62239e-19
1.43832e-16
-1.35114e-16
1.14714e-16
-5.80955e-16
2.24854e-16
0
2.05877e-17
5.86251e-17
0
-6.27239e-17
1.907e-16
-2.00341e-16
3.54441e-17
0
-3.09575e-18
0
0
0
1.47472e-19
0
1.24879e-16
0
-2.0388e-16
2.07121e-16
0
7.95286e-17
-6.58783e-17
2.43575e-16
-1.18471e-16
4.51731e-17
-7.48317e-17
7.38548e-17
-1.1378e-16
-1.8476e-17
0
-1.36052e-17
0
3.75994e-16
-6.35165e-16
0
-1.08036e-16
9.93551e-17
0
0
-1.46246e-16
0
-5.68212e-17
-9.53998e-17
-4.15182e-17
6.86087e-17
0
4.05384e-17
0
0
3.01805e-17
-3.39654e-17
0
5.5757e-16
-4.47246e-16
1.00017e-16
-9.20034e-17
-3.95021e-17
1.15366e-16
1.34201e-16
-1.71464e-16
5.56228e-17
2.14889e-18
-5.77436e-17
2.3927e-16
-7.47956e-17
-1.84649e-16
6.5229e-17
-1.81139e-17
1.07354e-17
-3.50778e-18
-8.84937e-16
3.29512e-16
0
0
4.01245e-17
-4.08021e-17
3.18969e-17
2.33229e-17
1.56698e-16
8.4241e-17
-8.51705e-17
-1.81759e-18
-5.26017e-17
4.30127e-17
0
2.36748e-17
1.66027e-17
9.51542e-18
3.17053e-18
0
2.89878e-16
-2.75575e-16
8.94641e-17
9.70381e-17
-1.89336e-17
-6.42568e-17
-5.69621e-17
-1.97519e-16
8.37933e-17
-5.64097e-17
7.33801e-17
4.91891e-17
-6.6089e-17
7.01494e-17
4.84922e-17
-6.17131e-17
-8.7889e-18
0
-4.97995e-17
-2.29148e-16
8.39611e-17
8.0382e-17
-2.87553e-16
2.0907e-16
1.11602e-16
-1.14075e-16
9.28596e-17
-7.9524e-17
0
0
-7.79537e-17
1.42348e-16
-6.43033e-17
6.45225e-17
-7.02267e-17
1.21717e-17
-2.16669e-17
9.42473e-17
8.97057e-17
-8.37688e-17
6.98909e-17
-7.88189e-17
-1.28689e-16
0
0
0
0
0
0
4.05687e-17
-1.12614e-16
1.19101e-16
-4.14102e-17
5.09301e-17
2.48567e-17
-2.11756e-17
1.93837e-16
-3.43963e-16
4.31265e-16
-2.15297e-16
2.96087e-16
-2.34188e-16
4.4519e-16
-2.58562e-16
-1.52109e-16
1.55601e-16
0
4.83305e-17
-3.96335e-17
1.0418e-16
-3.2244e-17
-4.51987e-17
-1.01679e-16
7.40711e-18
1.81681e-17
3.00868e-16
8.95054e-17
0
-1.47793e-16
-1.23464e-16
2.88331e-16
3.52087e-17
-1.27409e-16
7.78639e-17
-5.95973e-17
0
-3.8259e-17
0
-3.43396e-17
2.85895e-17
-2.66663e-17
-8.94592e-18
6.50654e-18
0
4.2133e-16
-9.4617e-17
4.14715e-16
-3.25663e-16
-6.89003e-17
2.87195e-16
-1.72077e-16
7.28775e-18
6.14481e-18
-5.88618e-17
5.7314e-17
0
0
4.10109e-17
-1.60585e-17
1.0879e-17
3.22977e-17
-1.12178e-17
0
7.63841e-20
0
-9.08199e-17
5.54558e-16
-3.78588e-16
-4.29553e-16
2.36847e-16
-2.69216e-16
2.53537e-16
1.34075e-16
-1.07264e-16
4.52504e-17
-4.13279e-17
6.47481e-18
7.42956e-17
3.70642e-18
-3.0174e-17
2.9837e-17
-6.02931e-18
1.03427e-15
-3.31927e-16
1.74079e-16
-5.31962e-16
1.52201e-16
-2.51299e-16
1.3245e-16
0
0
-5.01987e-18
-6.59687e-18
-1.93171e-18
0
-6.31132e-17
-4.96122e-17
3.74006e-17
-2.76321e-18
4.41102e-18
1.16807e-17
0
-3.34574e-16
5.86525e-16
1.44557e-16
-4.97797e-16
1.40576e-16
-2.28655e-16
3.00415e-17
1.94238e-16
0
0
3.73081e-18
4.86473e-17
0
-4.62675e-17
-2.18678e-17
3.20059e-18
-1.19378e-17
-1.31371e-17
0
-2.15817e-16
3.71885e-17
3.96784e-16
3.1711e-16
-5.9035e-16
2.73551e-16
-2.06921e-16
1.08984e-16
-1.63161e-16
0
0
0
-7.99872e-17
2.4174e-17
-2.77608e-17
0
-1.75235e-18
8.84741e-18
-7.82363e-16
7.46601e-16
8.35112e-16
-1.01675e-15
5.01666e-16
-4.76687e-16
0
2.1629e-16
-3.00665e-16
1.80365e-16
-1.4712e-16
1.24713e-16
1.04694e-16
8.27245e-17
6.66849e-17
0
0
0
0
8.55165e-16
-5.06333e-16
0
0
-1.804e-16
4.59801e-16
-2.95995e-16
-2.27207e-16
2.24646e-16
1.78468e-16
3.09195e-16
-1.29402e-16
5.46551e-17
4.31846e-17
3.2982e-17
2.62742e-17
4.31356e-17
-2.1374e-18
2.17713e-18
-8.7148e-16
8.11082e-16
4.5192e-16
-2.32332e-16
5.43371e-16
-3.50513e-16
-2.91205e-16
-2.54831e-16
0
-3.69924e-16
1.44267e-17
1.42774e-16
-1.16992e-16
-9.72945e-17
-3.59753e-17
-3.90714e-17
-3.10679e-17
0
0
-2.99772e-16
0
2.42731e-16
-5.40657e-19
0
0
3.00387e-16
2.6295e-16
0
1.98481e-16
0
-2.16976e-16
-6.08861e-17
1.09547e-16
0
7.09613e-17
-1.00972e-17
1.03005e-17
0
6.32649e-16
0
4.7285e-16
-8.88936e-16
8.09951e-16
6.84075e-16
-1.69773e-17
0
1.59315e-17
2.23692e-16
0
-2.35848e-16
2.71085e-16
-2.41924e-16
-5.30111e-17
-5.73353e-17
-1.64853e-17
-2.87435e-18
-9.75034e-18
-5.98994e-16
8.65764e-16
-2.52476e-16
-6.77928e-16
-4.03483e-16
-3.59463e-16
-6.3859e-16
-2.67751e-16
1.67983e-17
1.03579e-16
-1.03385e-16
3.39257e-16
-1.49703e-16
3.06451e-16
-5.74389e-17
0
6.30725e-17
-3.65046e-17
9.95751e-18
1.30107e-15
-2.33872e-17
-1.0382e-15
8.9342e-16
-8.18553e-16
7.3383e-16
-1.8402e-17
-2.94021e-16
2.62791e-16
1.08669e-16
-1.25302e-17
-2.72927e-16
8.1108e-17
7.98502e-17
-2.52353e-17
2.55232e-17
-6.53277e-17
-4.88183e-18
-1.42349e-17
6.38711e-16
2.78338e-16
5.01104e-16
-4.51867e-16
-3.88152e-16
1.62361e-17
-3.14256e-16
7.65074e-16
2.05354e-17
3.68617e-16
2.18351e-16
-1.9465e-16
0
-1.40761e-16
0
0
8.50603e-17
3.81225e-17
1.66854e-17
6.05004e-16
0
4.95233e-16
4.4895e-16
-4.08421e-16
3.67714e-16
0
-3.00578e-16
-4.20919e-16
-3.75089e-16
-2.20284e-16
1.96851e-16
0
0
0
0
-7.96744e-17
-5.64188e-17
0
-1.18558e-15
0
-1.9553e-17
-1.73006e-17
6.18582e-16
-3.60629e-16
-1.67722e-16
-1.68121e-16
4.22613e-16
0
1.12503e-16
-1.2162e-17
9.76169e-17
0
0
1.2689e-16
-9.39094e-18
6.77049e-17
-2.46574e-17
8.3702e-16
2.48229e-16
-2.45667e-16
-2.22962e-16
-7.96346e-16
5.57228e-16
6.84341e-16
-1.371e-17
-2.85553e-16
2.77992e-16
5.91015e-17
-2.96493e-16
-2.46542e-16
-1.43933e-16
-1.5155e-16
-1.46172e-16
1.1702e-16
-5.5585e-18
2.52544e-17
-2.59148e-16
1.1998e-16
-5.81751e-16
1.02885e-16
-1.02511e-16
0
-3.381e-16
-1.78299e-17
-3.12392e-16
2.03637e-17
3.04994e-16
2.29651e-16
-5.53668e-17
2.81878e-17
1.44404e-16
0
-2.40823e-16
-8.67244e-17
-1.81093e-18
5.21232e-16
-1.45796e-17
9.13683e-16
-4.40763e-16
7.42449e-19
1.20061e-17
3.62937e-16
-2.2367e-17
3.02969e-16
-2.83843e-16
-2.66334e-16
0
2.56956e-16
2.08306e-16
2.82611e-18
-4.09726e-18
1.29025e-16
8.81591e-17
0
-3.71596e-16
0
-9.56627e-17
4.18736e-16
5.03589e-18
9.74749e-17
-3.50955e-16
3.33293e-16
3.4569e-16
3.30559e-16
3.16614e-16
0
-2.49628e-16
0
1.28806e-17
-1.33776e-17
0
-1.25424e-18
6.13029e-17
2.5417e-16
1.09114e-17
-2.10628e-16
6.44828e-16
-2.08415e-16
0
0
-3.81013e-16
-3.34938e-16
-3.20238e-16
-5.7375e-16
-8.00114e-17
0
0
0
-2.58825e-17
2.73901e-17
1.73744e-16
-6.22306e-17
1.11949e-17
0
-4.44693e-16
-4.13257e-16
4.28833e-16
-4.25039e-16
-6.11461e-16
7.57819e-16
2.06319e-16
0
3.35156e-16
3.73185e-16
-8.05769e-17
4.35374e-16
-7.11324e-17
7.40314e-17
2.85961e-16
-1.65099e-16
0
-4.8666e-16
0
-4.6877e-16
4.60505e-16
0
8.42968e-16
3.98135e-16
-8.29207e-16
6.56511e-16
-4.67694e-18
-1.9983e-16
-3.61319e-16
0
4.89779e-16
-8.23609e-16
8.83024e-16
-1.12509e-15
0
0
4.84006e-16
-2.58263e-18
-6.3692e-18
-9.24124e-16
9.30162e-16
-4.51324e-16
4.49484e-16
4.42893e-16
-3.96774e-16
0
0
7.33644e-16
-7.46282e-16
-8.01053e-16
7.93116e-16
-7.71901e-16
8.34294e-16
-1.30631e-15
0
)
;

boundaryField
{
    up
    {
        type            calculated;
        value           nonuniform List<scalar> 
84
(
0
0
0
0
-4.48931e-17
8.12527e-17
-3.4044e-17
2.52544e-17
-2.19985e-17
0
-1.87353e-17
1.78847e-17
-1.3225e-17
8.26441e-19
7.04685e-19
1.02568e-17
0
0
-7.06437e-18
5.21825e-18
5.56725e-18
-5.40575e-18
5.17797e-19
0
2.25625e-18
9.5088e-19
-2.07881e-17
0
2.69324e-17
3.11389e-17
3.95428e-18
-6.76159e-18
2.61943e-18
0
-1.28331e-18
2.29344e-18
-2.08048e-18
3.29618e-18
0
-5.56607e-19
0
0
-2.84414e-19
5.68346e-19
-5.49152e-19
1.11586e-18
-2.13006e-18
2.27222e-18
1.99569e-20
-2.41746e-18
0
0
0
-3.39654e-17
-4.55421e-18
3.17053e-18
0
-2.16669e-17
-2.11756e-17
1.59199e-17
0
0
-6.02931e-18
1.16807e-17
-1.31371e-17
8.84741e-18
0
2.17713e-18
0
0
-9.75034e-18
9.95751e-18
-1.42349e-17
1.66854e-17
0
-2.46574e-17
2.52544e-17
-1.81093e-18
0
6.13029e-17
-6.22306e-17
0
0
0
)
;
    }
    low
    {
        type            calculated;
        value           nonuniform List<scalar> 
84
(
-9.688e-16
9.69395e-16
-4.77009e-16
7.4833e-16
1.3075e-16
-3.39739e-17
2.83935e-16
2.469e-17
0
1.21304e-15
-3.07511e-16
2.6474e-16
-2.87651e-16
-1.83242e-15
2.99511e-16
0
-2.79037e-16
1.86653e-17
-1.7785e-17
-2.27736e-16
1.15155e-16
3.11555e-16
5.22137e-16
-4.71217e-16
0
-9.1344e-17
-4.69523e-17
0
-4.30215e-16
-1.20877e-16
-4.0488e-16
-4.38081e-16
4.73982e-16
1.63444e-16
1.12129e-15
8.98015e-17
0
7.54507e-16
7.27418e-16
4.1318e-16
-2.19356e-16
9.00311e-17
9.00341e-17
0
3.58531e-16
8.20465e-16
6.62699e-16
5.38805e-17
0
-1.55372e-15
9.60514e-16
1.62239e-19
1.47472e-19
3.75994e-16
0
-8.83291e-16
0
-4.97995e-17
9.42473e-17
1.92888e-16
2.99184e-16
4.19744e-16
7.63841e-20
1.03291e-15
0
0
-7.82363e-16
8.54392e-16
-8.70918e-16
-2.99772e-16
6.32531e-16
-5.98994e-16
1.30258e-15
6.39834e-16
6.05004e-16
-1.18558e-15
8.35707e-16
-2.57775e-16
5.21232e-16
-3.71045e-16
2.5417e-16
1.21872e-17
-4.8666e-16
4.84281e-16
)
;
    }
    left
    {
        type            calculated;
        value           nonuniform List<scalar> 
19
(
-9.68251e-16
-4.72741e-16
4.78104e-16
8.64847e-18
-9.15983e-16
0
-4.30594e-16
-4.24539e-16
-2.69767e-17
-2.22268e-16
-2.20945e-18
-2.20654e-16
9.77806e-16
-2.17746e-16
1.01842e-15
8.7805e-16
5.22059e-16
7.65202e-16
0
)
;
    }
    right
    {
        type            calculated;
        value           nonuniform List<scalar> 
19
(
4.84006e-16
-2.27539e-18
-6.3692e-18
-9.24114e-16
9.30368e-16
-4.51324e-16
4.49484e-16
4.42893e-16
-3.95442e-16
0
0
7.40661e-16
-7.56182e-16
-8.01053e-16
7.93116e-16
-7.71901e-16
8.34294e-16
-1.41274e-15
0
)
;
    }
    frontAndBackPlanes
    {
        type            empty;
    }
}


// ************************************************************************* //
