/*--------------------------------*- C++ -*----------------------------------*\
  =========                 |
  \\      /  F ield         | OpenFOAM: The Open Source CFD Toolbox
   \\    /   O peration     | Website:  https://openfoam.org
    \\  /    A nd           | Version:  7
     \\/     M anipulation  |
\*---------------------------------------------------------------------------*/
FoamFile
{
    version     2.0;
    format      ascii;
    class       volScalarField;
    location    "0.294";
    object      T;
}
// * * * * * * * * * * * * * * * * * * * * * * * * * * * * * * * * * * * * * //

dimensions      [0 0 0 1 0 0 0];

internalField   nonuniform List<scalar> 
1596
(
1.99515
1.98121
1.96688
1.95321
1.94042
1.92834
1.91668
1.90486
1.89245
1.87847
1.86215
1.84245
1.81701
1.78246
1.73356
1.65851
1.53529
1.31982
0.92382
1.979
1.93557
1.89442
1.85626
1.82097
1.78788
1.7562
1.7247
1.69232
1.65724
1.61794
1.57259
1.51773
1.44905
1.36115
1.24364
1.08031
0.843226
0.479416
1.95987
1.88679
1.82077
1.76087
1.70609
1.65522
1.60702
1.55987
1.51236
1.46236
1.4081
1.34756
1.27732
1.19347
1.09167
0.964234
0.800516
0.583974
0.283698
1.94095
1.84005
1.75157
1.67258
1.60107
1.5353
1.47367
1.41435
1.35572
1.2956
1.23218
1.16349
1.08648
0.997848
0.894309
0.770389
0.619229
0.431206
0.188352
1.92518
1.80017
1.69203
1.59638
1.51047
1.43214
1.35951
1.29063
1.22381
1.15685
1.08804
1.01548
0.936479
0.848279
0.748348
0.6327
0.496819
0.33503
0.136702
1.91453
1.77048
1.64573
1.53565
1.43719
1.34799
1.26604
1.18932
1.11613
1.04433
0.972237
0.898075
0.819407
0.733853
0.63937
0.532906
0.411329
0.271166
0.105899
1.90928
1.75194
1.61385
1.49141
1.38187
1.28298
1.19274
1.10919
1.03061
0.954932
0.880545
0.805733
0.72824
0.645934
0.557054
0.459121
0.349803
0.226841
0.0860272
1.90833
1.74325
1.59518
1.46242
1.34311
1.23541
1.13753
1.04763
0.964075
0.884886
0.808495
0.733237
0.65698
0.577741
0.493916
0.403362
0.304201
0.194837
0.0723731
1.91059
1.74255
1.5877
1.44662
1.31875
1.20296
1.09785
1.00181
0.913381
0.830674
0.75219
0.676303
0.600966
0.524281
0.444718
0.360328
0.269482
0.170931
0.062523
1.9137
1.74589
1.58707
1.43973
1.30464
1.18159
1.06973
0.967813
0.874573
0.788297
0.707565
0.630798
0.55601
0.481356
0.405329
0.326083
0.242115
0.152346
0.0550582
1.91625
1.75004
1.58931
1.43757
1.29671
1.1674
1.04943
0.942009
0.844152
0.754345
0.671285
0.593453
0.518921
0.445877
0.372814
0.297931
0.21978
0.137345
0.0491501
1.91946
1.75576
1.59435
1.43948
1.29391
1.15914
1.0356
0.922971
0.820625
0.727283
0.641782
0.562681
0.488108
0.416274
0.345655
0.274463
0.201252
0.125005
0.0443634
1.92254
1.76185
1.60058
1.44352
1.29414
1.15463
1.02605
0.908576
0.801944
0.70514
0.617172
0.536689
0.461879
0.390972
0.322415
0.254409
0.185482
0.114572
0.0403692
1.92452
1.76645
1.60572
1.44721
1.29484
1.15134
1.01834
0.896501
0.785927
0.685891
0.595581
0.513756
0.438664
0.368555
0.301845
0.236709
0.171629
0.105471
0.0369284
1.92622
1.77025
1.61005
1.45043
1.29556
1.14861
1.01169
0.885883
0.771683
0.66864
0.576133
0.493037
0.417666
0.348286
0.283282
0.220788
0.159227
0.0973794
0.0339045
1.92788
1.77372
1.6139
1.45325
1.29613
1.14606
1.00556
0.876108
0.758545
0.652697
0.55814
0.473862
0.398247
0.329574
0.266193
0.20619
0.147914
0.0900482
0.0311957
1.92909
1.77634
1.61672
1.45505
1.29585
1.14292
0.999129
0.866328
0.74567
0.63725
0.540828
0.455509
0.379742
0.311822
0.250056
0.192477
0.137353
0.0832543
0.0287142
1.92998
1.77827
1.61865
1.45591
1.29469
1.13904
0.992164
0.856234
0.732699
0.621906
0.523789
0.437564
0.361746
0.29464
0.234517
0.179347
0.127305
0.076841
0.0263984
1.93152
1.781
1.62129
1.45733
1.29399
1.13557
0.985591
0.846541
0.720153
0.607013
0.507224
0.420106
0.344236
0.277934
0.219432
0.16664
0.117631
0.0707127
0.0242116
1.93336
1.78439
1.62464
1.45942
1.29386
1.1326
0.979446
0.837231
0.707956
0.592442
0.490951
0.402905
0.326943
0.2614
0.204483
0.15405
0.108076
0.0647033
0.022099
1.93477
1.78735
1.62767
1.46124
1.2935
1.1294
0.973094
0.827733
0.695592
0.577713
0.474516
0.385522
0.309428
0.244591
0.189212
0.14113
0.0982484
0.0585514
0.0199762
1.93617
1.79024
1.63067
1.46307
1.29316
1.12622
0.966753
0.818222
0.683171
0.562867
0.457882
0.367834
0.291481
0.227205
0.17322
0.12739
0.0876328
0.0518462
0.0177002
1.93774
1.79338
1.63393
1.46517
1.29307
1.12327
0.960599
0.80883
0.670771
0.547906
0.440963
0.34966
0.272819
0.208849
0.155981
0.112143
0.0753798
0.0437375
0.0148623
1.93938
1.7966
1.63722
1.46724
1.29294
1.12026
0.954355
0.799295
0.658123
0.532533
0.423409
0.330581
0.252948
0.18894
0.13679
0.0944699
0.0602159
0.0325032
0.00982527
1.94193
1.80302
1.64653
1.47843
1.30501
1.13227
0.965444
0.808743
0.665367
0.537205
0.425384
0.329989
0.250142
0.184432
0.13118
0.0883728
0.0542962
0.0276258
0.00736843
1.94471
1.81115
1.65978
1.49632
1.32676
1.15685
0.991664
0.835327
0.691077
0.560955
0.446329
0.347648
0.264413
0.195553
0.139604
0.0946124
0.058755
0.0305029
0.0085509
1.94607
1.81586
1.66827
1.50869
1.34281
1.17601
1.01309
0.857977
0.71379
0.58259
0.46588
0.364395
0.278011
0.206053
0.147368
0.100139
0.0625042
0.0327799
0.00942372
1.94602
1.81702
1.67171
1.51517
1.35266
1.18916
1.02909
0.876035
0.732872
0.601546
0.483579
0.379891
0.290696
0.215749
0.154318
0.104832
0.0654729
0.0344448
0.0100087
1.94503
1.81561
1.67144
1.51728
1.35795
1.19795
1.04122
0.890916
0.7496
0.618987
0.500507
0.395156
0.303407
0.225455
0.161091
0.109148
0.0679782
0.0357136
0.0104094
1.94319
1.81226
1.66858
1.5165
1.36034
1.20408
1.05113
0.904182
0.765416
0.636255
0.517946
0.411446
0.317369
0.236285
0.16858
0.113689
0.070359
0.0367571
0.0106911
1.94085
1.80804
1.66469
1.51467
1.36181
1.20955
1.06075
0.917652
0.782016
0.654949
0.537462
0.430363
0.334247
0.249898
0.178249
0.119512
0.0731832
0.037786
0.0109065
1.93895
1.80454
1.66165
1.51384
1.36446
1.2164
1.07204
0.933145
0.801102
0.676708
0.560718
0.453718
0.356109
0.26863
0.192507
0.128674
0.0777318
0.0392342
0.0110675
1.93711
1.8013
1.65915
1.51385
1.36826
1.22476
1.08523
0.950997
0.823128
0.702146
0.58858
0.482787
0.384871
0.295256
0.21499
0.145236
0.0875164
0.0430033
0.0112208
1.93528
1.79839
1.6574
1.51505
1.3737
1.23518
1.10092
0.971875
0.848824
0.732083
0.622031
0.518883
0.422502
0.33292
0.250648
0.176305
0.111227
0.0573714
0.0158672
1.93313
1.79457
1.65405
1.51389
1.37594
1.24157
1.1118
0.987265
0.86853
0.755756
0.649246
0.549167
0.45532
0.367565
0.285989
0.210438
0.141101
0.0788713
0.0245174
1.92955
1.78667
1.644
1.50336
1.36611
1.23322
1.10535
0.982903
0.86623
0.75536
0.650528
0.551872
0.459202
0.372421
0.291673
0.216758
0.147655
0.0846501
0.0274946
1.92492
1.7761
1.62982
1.48722
1.34917
1.21624
1.08882
0.967049
0.851142
0.740997
0.636795
0.538664
0.446439
0.360107
0.279975
0.20605
0.138598
0.0782246
0.0248999
1.92096
1.7671
1.61778
1.47355
1.33484
1.20191
1.07489
0.953749
0.838568
0.729165
0.625689
0.528274
0.436782
0.351258
0.272093
0.199361
0.133395
0.0748413
0.0236773
1.91804
1.76026
1.6085
1.46293
1.32364
1.19067
1.06393
0.94328
0.828691
0.719919
0.617094
0.520351
0.429561
0.344796
0.266485
0.194727
0.12988
0.0726139
0.0229071
1.91578
1.755
1.60136
1.45475
1.31502
1.18201
1.05551
0.935239
0.821125
0.71287
0.610585
0.514402
0.424195
0.340047
0.262407
0.19139
0.127368
0.0710325
0.0223687
1.91414
1.75116
1.5962
1.44888
1.30886
1.17585
1.04953
0.929554
0.815793
0.70792
0.606033
0.510262
0.420477
0.336767
0.259596
0.189087
0.125627
0.0699306
0.021991
1.91285
1.74852
1.59286
1.44522
1.30513
1.1722
1.04604
0.926285
0.812771
0.705155
0.60353
0.508022
0.4185
0.335056
0.258158
0.187933
0.124772
0.0693998
0.0218149
1.91286
1.74853
1.59287
1.44523
1.30514
1.17221
1.04606
0.926297
0.812782
0.705166
0.60354
0.508031
0.418509
0.335063
0.258164
0.187938
0.124776
0.0694019
0.0218156
1.91415
1.75118
1.59623
1.44891
1.3089
1.17589
1.04957
0.92959
0.815829
0.707954
0.606065
0.510292
0.420503
0.33679
0.259615
0.189103
0.125639
0.0699375
0.0219934
1.9158
1.75503
1.6014
1.4548
1.31507
1.18207
1.05557
0.935297
0.821181
0.712924
0.610635
0.514448
0.424236
0.340082
0.262437
0.191413
0.127384
0.0710425
0.0223721
1.91805
1.7603
1.60856
1.463
1.32371
1.19074
1.06401
0.943357
0.828765
0.71999
0.617159
0.52041
0.429613
0.344841
0.266522
0.194756
0.129901
0.072626
0.0229112
1.92098
1.76715
1.61785
1.47363
1.33493
1.20201
1.07499
0.953843
0.838659
0.72925
0.625767
0.528345
0.436844
0.351311
0.272135
0.199393
0.133417
0.0748545
0.0236816
1.92495
1.77615
1.62989
1.48732
1.34927
1.21635
1.08893
0.967157
0.851245
0.741094
0.636884
0.538743
0.446506
0.360161
0.280017
0.20608
0.138617
0.0782342
0.0249022
1.92957
1.78673
1.64408
1.50347
1.36623
1.23334
1.10548
0.983023
0.866344
0.755465
0.650621
0.551951
0.459264
0.372465
0.291699
0.216767
0.147651
0.0846402
0.0274882
1.93315
1.79465
1.65419
1.51407
1.37615
1.24182
1.11207
0.987554
0.868833
0.756068
0.649562
0.549485
0.455638
0.367879
0.286298
0.210734
0.141367
0.0790747
0.0246064
1.93531
1.79849
1.65756
1.51527
1.37397
1.23549
1.10127
0.972253
0.849226
0.732501
0.62246
0.519318
0.422936
0.333345
0.25105
0.176665
0.111517
0.0575628
0.015937
1.93714
1.80138
1.65929
1.51404
1.3685
1.22504
1.08553
0.951324
0.823473
0.702501
0.588938
0.483141
0.385212
0.295572
0.215265
0.145454
0.0876628
0.0430762
0.0112348
1.93898
1.80462
1.66178
1.51402
1.36468
1.21666
1.07233
0.933452
0.801423
0.677034
0.561041
0.45403
0.356398
0.268885
0.192714
0.128825
0.0778257
0.0392798
0.0110793
1.94087
1.80812
1.66481
1.51484
1.36202
1.20979
1.06102
0.917939
0.782313
0.655247
0.537752
0.430637
0.334492
0.250106
0.178412
0.119627
0.0732545
0.0378224
0.0109169
1.94321
1.81232
1.66869
1.51665
1.36053
1.2043
1.05138
0.904448
0.76569
0.636527
0.518207
0.411687
0.317581
0.23646
0.168714
0.113784
0.0704186
0.0367889
0.0107007
1.94505
1.81567
1.67154
1.51742
1.35813
1.19816
1.04145
0.891161
0.74985
0.619234
0.500741
0.395368
0.303591
0.225605
0.161205
0.109229
0.0680309
0.0357426
0.0104185
1.94604
1.81707
1.6718
1.51529
1.35281
1.18935
1.0293
0.876257
0.733099
0.601768
0.483788
0.380079
0.290857
0.21588
0.154418
0.104904
0.0655212
0.0344723
0.0100178
1.94608
1.81591
1.66834
1.5088
1.34295
1.17618
1.01328
0.858178
0.713994
0.582789
0.466066
0.364561
0.278153
0.206169
0.147458
0.100206
0.0625501
0.0328074
0.00943354
1.94472
1.81119
1.65985
1.49641
1.32689
1.157
0.991832
0.835506
0.691258
0.561131
0.446493
0.347795
0.264539
0.195657
0.139687
0.0946759
0.0588007
0.0305319
0.00856231
1.94193
1.80303
1.64654
1.47845
1.30504
1.1323
0.965489
0.808791
0.665416
0.537251
0.425424
0.330022
0.250166
0.184448
0.131188
0.0883745
0.0542934
0.0276213
0.0073656
1.93938
1.79659
1.6372
1.46721
1.29291
1.12023
0.954318
0.799256
0.658084
0.532494
0.423372
0.330545
0.252914
0.188909
0.136761
0.0944449
0.0601952
0.0324883
0.00981857
1.93774
1.79338
1.63393
1.46516
1.29307
1.12327
0.960592
0.808825
0.670766
0.547904
0.440962
0.349661
0.272821
0.208852
0.155984
0.112146
0.0753831
0.0437398
0.014863
1.93616
1.79024
1.63067
1.46307
1.29315
1.12621
0.966748
0.818218
0.683169
0.562866
0.457883
0.367836
0.291483
0.227207
0.173223
0.127393
0.087635
0.0518476
0.0177006
1.93477
1.78735
1.62767
1.46124
1.29349
1.12939
0.973091
0.827732
0.695591
0.577713
0.474517
0.385524
0.30943
0.244593
0.189214
0.141132
0.0982499
0.0585522
0.0199765
1.93336
1.78439
1.62464
1.45941
1.29386
1.1326
0.979445
0.83723
0.707956
0.592442
0.490952
0.402907
0.326945
0.261401
0.204484
0.154052
0.108077
0.0647038
0.0220992
1.93152
1.781
1.62128
1.45733
1.29398
1.13557
0.98559
0.846541
0.720154
0.607014
0.507225
0.420108
0.344238
0.277935
0.219433
0.166641
0.117632
0.0707131
0.0242117
1.92998
1.77827
1.61865
1.45591
1.29469
1.13904
0.992164
0.856234
0.7327
0.621907
0.52379
0.437566
0.361747
0.294641
0.234518
0.179347
0.127306
0.0768412
0.0263984
1.92909
1.77634
1.61672
1.45505
1.29585
1.14292
0.99913
0.866329
0.745671
0.637251
0.540829
0.45551
0.379743
0.311822
0.250057
0.192478
0.137353
0.0832544
0.0287143
1.92788
1.77372
1.6139
1.45325
1.29613
1.14606
1.00556
0.876109
0.758545
0.652698
0.558141
0.473863
0.398247
0.329575
0.266193
0.20619
0.147914
0.0900482
0.0311957
1.92622
1.77025
1.61005
1.45043
1.29556
1.14861
1.01169
0.885883
0.771684
0.66864
0.576134
0.493037
0.417666
0.348286
0.283282
0.220788
0.159227
0.0973793
0.0339045
1.92452
1.76645
1.60572
1.44721
1.29484
1.15134
1.01834
0.896501
0.785928
0.685891
0.595581
0.513756
0.438664
0.368554
0.301845
0.236709
0.171628
0.105471
0.0369284
1.92255
1.76185
1.60058
1.44352
1.29414
1.15463
1.02605
0.908577
0.801944
0.70514
0.617171
0.536689
0.461879
0.390971
0.322414
0.254409
0.185482
0.114572
0.0403693
1.91946
1.75576
1.59435
1.43948
1.29391
1.15914
1.0356
0.922971
0.820625
0.727282
0.641781
0.562681
0.488107
0.416274
0.345654
0.274462
0.201252
0.125005
0.0443635
1.91625
1.75004
1.58931
1.43757
1.29671
1.1674
1.04943
0.942009
0.844151
0.754344
0.671284
0.593453
0.518921
0.445877
0.372813
0.297931
0.21978
0.137345
0.0491502
1.9137
1.74589
1.58707
1.43973
1.30464
1.18159
1.06973
0.967812
0.874572
0.788295
0.707564
0.630796
0.556009
0.481355
0.405329
0.326083
0.242115
0.152346
0.0550583
1.91059
1.74255
1.58769
1.44662
1.31875
1.20295
1.09784
1.00181
0.913379
0.830672
0.752188
0.676302
0.600964
0.52428
0.444718
0.360328
0.269482
0.170931
0.0625232
1.90833
1.74325
1.59518
1.46242
1.34311
1.23541
1.13753
1.04763
0.964073
0.884884
0.808493
0.733235
0.656979
0.577741
0.493915
0.403362
0.304201
0.194837
0.0723733
1.90928
1.75194
1.61385
1.49141
1.38187
1.28298
1.19274
1.10918
1.0306
0.95493
0.880544
0.805731
0.728239
0.645933
0.557053
0.459121
0.349803
0.226841
0.0860274
1.91453
1.77048
1.64573
1.53565
1.43719
1.34799
1.26603
1.18932
1.11613
1.04433
0.972235
0.898074
0.819406
0.733853
0.639369
0.532906
0.411329
0.271167
0.105899
1.92518
1.80017
1.69203
1.59638
1.51047
1.43214
1.35951
1.29063
1.2238
1.15685
1.08803
1.01548
0.936478
0.848279
0.748348
0.6327
0.496819
0.33503
0.136702
1.94095
1.84005
1.75157
1.67257
1.60107
1.5353
1.47367
1.41435
1.35572
1.2956
1.23218
1.16349
1.08648
0.997847
0.894309
0.770389
0.619229
0.431206
0.188352
1.95987
1.88679
1.82077
1.76087
1.70609
1.65522
1.60701
1.55987
1.51236
1.46236
1.4081
1.34756
1.27732
1.19347
1.09167
0.964234
0.800516
0.583974
0.283698
1.979
1.93557
1.89442
1.85626
1.82097
1.78788
1.7562
1.7247
1.69232
1.65724
1.61794
1.57259
1.51773
1.44905
1.36115
1.24364
1.08031
0.843226
0.479416
1.99515
1.98121
1.96688
1.95321
1.94042
1.92834
1.91668
1.90486
1.89245
1.87847
1.86215
1.84245
1.81701
1.78246
1.73356
1.65851
1.53529
1.31982
0.92382
)
;

boundaryField
{
    up
    {
        type            fixedValue;
        value           uniform 0;
    }
    low
    {
        type            fixedValue;
        value           uniform 2;
    }
    left
    {
        type            fixedValue;
        value           uniform 2;
    }
    right
    {
        type            fixedValue;
        value           uniform 2;
    }
    frontAndBackPlanes
    {
        type            empty;
    }
}


// ************************************************************************* //
