/*--------------------------------*- C++ -*----------------------------------*\
  =========                 |
  \\      /  F ield         | OpenFOAM: The Open Source CFD Toolbox
   \\    /   O peration     | Website:  https://openfoam.org
    \\  /    A nd           | Version:  7
     \\/     M anipulation  |
\*---------------------------------------------------------------------------*/
FoamFile
{
    version     2.0;
    format      ascii;
    class       volScalarField;
    location    "0.117";
    object      T;
}
// * * * * * * * * * * * * * * * * * * * * * * * * * * * * * * * * * * * * * //

dimensions      [0 0 0 1 0 0 0];

internalField   nonuniform List<scalar> 
1596
(
3.98196
3.93063
3.87933
3.83305
3.79365
3.76121
3.73515
3.71376
3.69569
3.67793
3.6582
3.63328
3.59687
3.54094
3.45389
3.31134
3.06916
2.63985
1.84787
3.9226
3.76403
3.61824
3.49076
3.38339
3.2953
3.22447
3.16704
3.11942
3.07567
3.03071
2.97825
2.90806
2.80839
2.66557
2.45643
2.14746
1.68305
0.958956
3.85409
3.59042
3.35926
3.16135
2.99612
2.86117
2.75296
2.66619
2.59571
2.53412
2.47496
2.41062
2.33007
2.22121
2.07128
1.86124
1.56737
1.15587
0.566049
3.78924
3.43084
3.12513
2.86685
2.65247
2.47789
2.33826
2.22727
2.13878
2.06473
1.99805
1.93072
1.85199
1.75051
1.61489
1.42959
1.17733
0.836834
0.37221
3.73893
3.30291
2.93463
2.62507
2.36852
2.15965
1.99264
1.8606
1.75679
1.67288
1.60158
1.53486
1.46261
1.37442
1.26012
1.10664
0.900556
0.627238
0.264176
3.70886
3.21636
2.79809
2.4454
2.15217
1.91271
1.72076
1.56919
1.45095
1.35767
1.28202
1.2161
1.1505
1.07567
0.982466
0.859553
0.69578
0.479963
0.196591
3.69803
3.17091
2.71539
2.32725
2.00205
1.73478
1.51939
1.34887
1.21611
1.11284
1.03176
0.965135
0.904156
0.840085
0.764573
0.667623
0.53955
0.370993
0.150108
3.70086
3.15831
2.67786
2.26186
1.90927
1.61682
1.37934
1.1903
1.04278
0.928687
0.840805
0.771529
0.712572
0.655855
0.593729
0.517276
0.417907
0.287363
0.115842
3.71252
3.16938
2.67471
2.23798
1.86248
1.54754
1.28945
1.0825
0.920203
0.794722
0.698928
0.625332
0.566035
0.51349
0.460638
0.399487
0.322372
0.221865
0.0894723
3.72499
3.18954
2.68923
2.23866
1.84533
1.51143
1.2351
1.01179
0.835577
0.698997
0.59503
0.516275
0.455111
0.404399
0.357569
0.307429
0.247145
0.170043
0.0686695
3.7339
3.20814
2.70766
2.2492
1.84324
1.49458
1.20328
0.966026
0.777667
0.631141
0.519581
0.435664
0.371963
0.321639
0.278517
0.236089
0.188274
0.129133
0.0521523
3.74339
3.22759
2.7291
2.26603
1.85092
1.49068
1.1871
0.938118
0.739348
0.584167
0.465869
0.377184
0.310791
0.260048
0.219065
0.181886
0.14308
0.0974
0.0392091
3.75123
3.24437
2.74844
2.2826
1.86087
1.49175
1.17851
0.920144
0.712995
0.550834
0.427093
0.334522
0.265842
0.214515
0.174842
0.141287
0.108956
0.0732195
0.0292422
3.75459
3.25321
2.75924
2.29171
1.86548
1.49016
1.17004
0.905001
0.691924
0.524896
0.397442
0.302299
0.232186
0.180612
0.141998
0.111125
0.0835269
0.0551015
0.0217143
3.75637
3.25685
2.76284
2.29328
1.86343
1.48357
1.15872
0.889283
0.672497
0.502615
0.373169
0.276835
0.206279
0.155015
0.117532
0.0888429
0.064811
0.0417655
0.0161542
3.7575
3.25717
2.76079
2.28793
1.85434
1.4708
1.1427
0.8707
0.652141
0.481257
0.351463
0.255296
0.185331
0.135043
0.0989584
0.072259
0.0510639
0.0320449
0.0121167
3.75678
3.25299
2.75204
2.27448
1.83675
1.45006
1.11997
0.847109
0.628654
0.458603
0.330113
0.235493
0.167184
0.118606
0.0843059
0.0596052
0.0408313
0.0249347
0.00920188
3.75489
3.24529
2.73769
2.25388
1.81129
1.42158
1.09035
0.818012
0.601278
0.433698
0.308005
0.216189
0.150515
0.104335
0.0722136
0.0496051
0.0330218
0.0196516
0.00708408
3.75531
3.23965
2.72366
2.23167
1.78268
1.38912
1.05668
0.785346
0.571204
0.407128
0.285251
0.197133
0.134802
0.0915192
0.0618675
0.0414261
0.0268803
0.0156296
0.0055179
3.75709
3.23617
2.71089
2.20916
1.75228
1.35388
1.01986
0.749751
0.538805
0.379026
0.261775
0.178071
0.119647
0.079655
0.0526966
0.0344824
0.0218704
0.0124609
0.00432381
3.75792
3.23193
2.6972
2.185
1.71942
1.31565
0.979951
0.711398
0.504263
0.349522
0.237618
0.158937
0.10488
0.0684797
0.0443714
0.0284134
0.0176474
0.00987612
0.00338072
3.75942
3.22893
2.68484
2.1618
1.68687
1.27712
0.939396
0.672341
0.469202
0.319811
0.213591
0.140219
0.0907307
0.0580321
0.0367977
0.0230447
0.0140093
0.00770281
0.00260964
3.76245
3.22898
2.67623
2.14237
1.65767
1.24133
0.900989
0.634979
0.435538
0.291324
0.190679
0.122534
0.0775285
0.0484319
0.0299526
0.0182639
0.0107979
0.00578629
0.00193382
3.76668
3.23221
2.67213
2.12817
1.63386
1.21064
0.867133
0.60151
0.405103
0.265453
0.169852
0.106482
0.0655872
0.0397873
0.0238072
0.0139514
0.00783057
0.0038988
0.00115199
3.77541
3.25095
2.69497
2.15049
1.65269
1.22468
0.87638
0.606753
0.407437
0.265925
0.169291
0.105457
0.0644426
0.038703
0.0228543
0.0131336
0.00713223
0.00333819
0.000851852
3.78596
3.27972
2.73778
2.20184
1.70679
1.27646
0.922271
0.644853
0.437315
0.2882
0.185138
0.116256
0.0715094
0.04316
0.0255792
0.0147551
0.00806139
0.00382012
0.00100915
3.79195
3.29991
2.77165
2.24631
1.75721
1.32784
0.970354
0.686739
0.471586
0.314709
0.204592
0.129826
0.0805068
0.0488287
0.02898
0.0166989
0.00910962
0.00432107
0.00115361
3.79343
3.31082
2.79511
2.28195
1.80195
1.37713
1.01955
0.732032
0.51051
0.346172
0.228611
0.147164
0.0923139
0.0563812
0.0335021
0.0192189
0.0103984
0.00488702
0.00129472
3.79233
3.31586
2.81186
2.31206
1.84362
1.42634
1.07145
0.782176
0.555541
0.384115
0.258756
0.169771
0.10826
0.0668823
0.0399023
0.0227855
0.0121808
0.00563192
0.00146239
3.78914
3.31715
2.82481
2.33947
1.88451
1.47709
1.12721
0.838074
0.60759
0.4296
0.296275
0.199022
0.129724
0.0815628
0.0491369
0.0280271
0.014798
0.00670501
0.00169451
3.78534
3.31824
2.83822
2.36827
1.92803
1.53199
1.18872
0.901181
0.667923
0.483919
0.342608
0.236526
0.158409
0.102069
0.0625993
0.0359254
0.0187894
0.00832161
0.00204004
3.78421
3.32416
2.85737
2.40326
1.97821
1.59419
1.25837
0.973324
0.738084
0.548577
0.399401
0.284171
0.19645
0.130669
0.0824507
0.0482141
0.0252105
0.0108756
0.00254413
3.78421
3.33266
2.88
2.44241
2.03323
1.66214
1.3349
1.05365
0.817695
0.623761
0.467473
0.343458
0.246048
0.170213
0.111986
0.0681765
0.0366617
0.0157023
0.00327066
3.78494
3.34323
2.90564
2.4853
2.09276
1.73558
1.41817
1.14214
0.907014
0.710116
0.547986
0.416208
0.309855
0.224391
0.156094
0.101823
0.0596207
0.0283899
0.00700139
3.78514
3.35164
2.92698
2.52183
2.14437
1.80029
1.49281
1.22296
0.990248
0.792399
0.626617
0.489251
0.376048
0.282968
0.206503
0.143348
0.0911033
0.0483571
0.0141064
3.78127
3.34803
2.92885
2.53219
2.16429
1.82937
1.52962
1.26547
1.0362
0.839565
0.673035
0.533315
0.416531
0.319011
0.23757
0.169033
0.110954
0.0615963
0.0193432
3.77449
3.33644
2.91799
2.52537
2.16319
1.83442
1.54038
1.28092
1.05503
0.860318
0.694296
0.553816
0.435182
0.334961
0.250275
0.178241
0.116768
0.0645109
0.0201153
3.76964
3.3285
2.91117
2.52215
2.16477
1.84107
1.55169
1.29602
1.07282
0.879572
0.713846
0.572619
0.452352
0.349817
0.262384
0.187386
0.122954
0.0679744
0.0212289
3.76719
3.32468
2.90857
2.5224
2.16868
1.84879
1.56286
1.30997
1.08867
0.896372
0.73069
0.588697
0.466972
0.362446
0.272684
0.195183
0.128249
0.0709584
0.0222056
3.76557
3.32227
2.90718
2.52319
2.1722
1.85512
1.57174
1.32087
1.10094
0.909318
0.743619
0.601002
0.478133
0.372061
0.280501
0.201076
0.132228
0.0731855
0.0229348
3.76431
3.32023
2.90574
2.5232
2.17409
1.85895
1.57733
1.32787
1.10891
0.917766
0.752084
0.609068
0.485445
0.378342
0.28558
0.20487
0.134754
0.0745734
0.0233819
3.76249
3.3174
2.90318
2.52156
2.17362
1.85971
1.57919
1.33063
1.11233
0.921574
0.756017
0.612895
0.488967
0.381404
0.288081
0.206758
0.136023
0.075279
0.0236148
3.7625
3.31742
2.90321
2.52159
2.17366
1.85975
1.57923
1.33067
1.11237
0.921609
0.75605
0.612925
0.488993
0.381427
0.2881
0.206772
0.136034
0.0752853
0.023617
3.76433
3.32029
2.90582
2.5233
2.1742
1.85907
1.57745
1.32798
1.10902
0.917873
0.752183
0.609158
0.485524
0.378411
0.285637
0.204916
0.134787
0.0745932
0.0233888
3.76561
3.32236
2.90731
2.52335
2.17238
1.85531
1.57193
1.32106
1.10113
0.90949
0.743778
0.601146
0.47826
0.372171
0.280592
0.201147
0.132279
0.0732164
0.0229455
3.76723
3.3248
2.90875
2.52262
2.16892
1.84904
1.56312
1.31022
1.08891
0.896604
0.730903
0.588889
0.467141
0.362591
0.272804
0.195277
0.128316
0.0709989
0.0222196
3.7697
3.32865
2.91139
2.52241
2.16506
1.84138
1.55201
1.29634
1.07312
0.879857
0.714108
0.572855
0.452559
0.349994
0.262529
0.187499
0.123035
0.068023
0.0212456
3.77456
3.33661
2.91824
2.52568
2.16353
1.83479
1.54075
1.28129
1.05539
0.86065
0.694598
0.554086
0.435417
0.33516
0.250438
0.178366
0.116856
0.064563
0.0201328
3.78134
3.34823
2.92914
2.53254
2.16469
1.8298
1.53005
1.26589
1.0366
0.839939
0.673374
0.533615
0.416788
0.319225
0.23774
0.16916
0.11104
0.061645
0.0193591
3.78524
3.35192
2.92743
2.52241
2.14505
1.80103
1.49358
1.22373
0.99099
0.793097
0.627259
0.489832
0.376565
0.283423
0.206897
0.143683
0.0913723
0.0485436
0.0141815
3.78506
3.34357
2.90617
2.48598
2.09356
1.73645
1.41907
1.14304
0.907868
0.71091
0.548707
0.41685
0.310418
0.224875
0.156502
0.102153
0.0598662
0.0285424
0.00705428
3.7843
3.33296
2.88047
2.44302
2.03394
1.66291
1.33569
1.05441
0.818408
0.624407
0.468043
0.343949
0.246461
0.170551
0.112252
0.0683712
0.036786
0.0157628
0.00328293
3.7843
3.32444
2.85782
2.40385
1.97889
1.59492
1.2591
0.974025
0.738727
0.549147
0.399889
0.284578
0.19678
0.130927
0.0826428
0.048345
0.0252874
0.0109102
0.00255157
3.78542
3.3185
2.83865
2.36882
1.92867
1.53268
1.1894
0.90182
0.668497
0.484415
0.343021
0.23686
0.158671
0.102266
0.062739
0.0360162
0.0188408
0.00834438
0.00204495
3.78921
3.31739
2.8252
2.33998
1.8851
1.47772
1.12783
0.838648
0.608095
0.430026
0.296622
0.199294
0.12993
0.0817126
0.0492394
0.0280915
0.0148336
0.00672078
0.00169795
3.79239
3.31607
2.81222
2.31253
1.84417
1.42691
1.07201
0.782683
0.555979
0.384476
0.259043
0.16999
0.108421
0.066996
0.0399779
0.0228319
0.0122062
0.00564325
0.00146495
3.79348
3.31101
2.79543
2.28238
1.80244
1.37764
1.02004
0.73247
0.510882
0.346473
0.228845
0.147339
0.0924397
0.0564678
0.0335585
0.0192531
0.0104172
0.00489562
0.00129679
3.792
3.30007
2.77193
2.24668
1.75764
1.32828
0.970772
0.68711
0.471897
0.314957
0.204781
0.129965
0.0806055
0.0488956
0.0290232
0.0167252
0.00912439
0.00432818
0.00115553
3.786
3.27986
2.73802
2.20216
1.70715
1.27683
0.92262
0.645161
0.43757
0.288402
0.185292
0.116368
0.0715881
0.0432132
0.0256137
0.0147765
0.00807384
0.00382652
0.00101112
3.77541
3.25098
2.69503
2.15057
1.65279
1.22479
0.876483
0.606846
0.407517
0.26599
0.169342
0.105495
0.0644701
0.0387216
0.0228661
0.0131404
0.00713543
0.003339
0.000851501
3.76666
3.23218
2.67208
2.1281
1.63378
1.21057
0.867065
0.601453
0.405057
0.265418
0.169826
0.106464
0.0655742
0.039778
0.0238004
0.0139464
0.00782678
0.00389604
0.00115052
3.76245
3.22898
2.67622
2.14236
1.65767
1.24133
0.900993
0.634986
0.435546
0.291331
0.190686
0.122539
0.0775323
0.0484345
0.0299542
0.0182648
0.0107983
0.00578637
0.00193369
3.75942
3.22892
2.68484
2.1618
1.68687
1.27712
0.939399
0.672346
0.469207
0.319817
0.213595
0.140223
0.090733
0.0580337
0.0367988
0.0230454
0.0140097
0.00770302
0.00260966
3.75792
3.23193
2.69719
2.185
1.71942
1.31565
0.979954
0.711402
0.504267
0.349525
0.237621
0.158939
0.104881
0.068481
0.0443725
0.0284143
0.0176481
0.00987658
0.00338084
3.75709
3.23616
2.71089
2.20916
1.75228
1.35388
1.01986
0.749754
0.538807
0.379028
0.261777
0.178072
0.119649
0.0796564
0.0526979
0.0344837
0.0218715
0.0124616
0.00432404
3.75531
3.23965
2.72366
2.23167
1.78268
1.38912
1.05668
0.785348
0.571205
0.40713
0.285252
0.197134
0.134804
0.0915209
0.0618694
0.041428
0.026882
0.0156307
0.00551824
3.75489
3.24529
2.73769
2.25388
1.81129
1.42158
1.09035
0.818013
0.601278
0.433698
0.308005
0.216191
0.150517
0.104337
0.0722162
0.0496078
0.0330242
0.0196532
0.00708452
3.75678
3.25298
2.75204
2.27448
1.83676
1.45006
1.11997
0.847109
0.628654
0.458604
0.330113
0.235495
0.167186
0.118609
0.0843095
0.0596088
0.0408344
0.0249366
0.0092024
3.7575
3.25717
2.76079
2.28793
1.85434
1.4708
1.1427
0.870699
0.652141
0.481257
0.351464
0.255299
0.185334
0.135047
0.098963
0.0722635
0.0510676
0.032047
0.0121172
3.75637
3.25685
2.76284
2.29328
1.86343
1.48357
1.15872
0.889283
0.672497
0.502615
0.373171
0.276837
0.206283
0.15502
0.117537
0.0888479
0.0648149
0.0417676
0.0161546
3.75459
3.25321
2.75924
2.29171
1.86548
1.49016
1.17004
0.905
0.691924
0.524896
0.397444
0.302303
0.232191
0.180618
0.142004
0.11113
0.0835303
0.055103
0.0217144
3.75123
3.24437
2.74844
2.2826
1.86087
1.49175
1.17851
0.920144
0.712995
0.550835
0.427096
0.334527
0.265848
0.214521
0.174847
0.141291
0.108958
0.0732199
0.029242
3.74339
3.2276
2.7291
2.26603
1.85092
1.49068
1.1871
0.938117
0.739348
0.584168
0.465872
0.377189
0.310797
0.260053
0.219069
0.181887
0.143079
0.0973989
0.0392085
3.7339
3.20815
2.70766
2.2492
1.84324
1.49458
1.20328
0.966026
0.777668
0.631143
0.519584
0.435668
0.371967
0.321642
0.278518
0.236088
0.188271
0.12913
0.0521515
3.72499
3.18954
2.68923
2.23866
1.84533
1.51143
1.2351
1.01179
0.835578
0.698999
0.595032
0.516277
0.455112
0.404398
0.357566
0.307424
0.247139
0.170039
0.0686689
3.71252
3.16938
2.67471
2.23797
1.86248
1.54754
1.28944
1.0825
0.920202
0.794722
0.698928
0.625331
0.566032
0.513484
0.46063
0.399478
0.322364
0.221861
0.0894722
3.70086
3.15831
2.67786
2.26186
1.90927
1.61682
1.37934
1.1903
1.04278
0.928685
0.840802
0.771524
0.712564
0.655845
0.593718
0.517266
0.417899
0.28736
0.115843
3.69803
3.1709
2.71539
2.32725
2.00205
1.73478
1.51939
1.34887
1.21611
1.11283
1.03176
0.965126
0.904145
0.840072
0.764561
0.667613
0.539544
0.370991
0.150109
3.70885
3.21635
2.79809
2.44539
2.15217
1.91271
1.72076
1.56919
1.45094
1.35766
1.28201
1.21609
1.15048
1.07566
0.982454
0.859545
0.695777
0.479964
0.196592
3.73893
3.3029
2.93463
2.62507
2.36852
2.15964
1.99264
1.8606
1.75679
1.67287
1.60157
1.53485
1.4626
1.37441
1.26011
1.10664
0.900556
0.627241
0.264178
3.78924
3.43084
3.12513
2.86685
2.65247
2.47789
2.33825
2.22726
2.13878
2.06472
1.99804
1.9307
1.85198
1.7505
1.61489
1.42959
1.17733
0.836837
0.372211
3.85409
3.59042
3.35926
3.16135
2.99612
2.86116
2.75296
2.66619
2.59571
2.53412
2.47495
2.41062
2.33007
2.22121
2.07128
1.86124
1.56738
1.15587
0.566049
3.9226
3.76403
3.61824
3.49077
3.38339
3.29529
3.22447
3.16704
3.11942
3.07567
3.03071
2.97824
2.90806
2.80839
2.66557
2.45643
2.14746
1.68306
0.958955
3.98196
3.93063
3.87933
3.83305
3.79365
3.76121
3.73515
3.71376
3.69569
3.67793
3.6582
3.63328
3.59687
3.54094
3.45389
3.31134
3.06916
2.63985
1.84787
)
;

boundaryField
{
    up
    {
        type            fixedValue;
        value           uniform 0;
    }
    low
    {
        type            fixedValue;
        value           uniform 4;
    }
    left
    {
        type            fixedValue;
        value           uniform 4;
    }
    right
    {
        type            fixedValue;
        value           uniform 4;
    }
    frontAndBackPlanes
    {
        type            empty;
    }
}


// ************************************************************************* //
