/*--------------------------------*- C++ -*----------------------------------*\
  =========                 |
  \\      /  F ield         | OpenFOAM: The Open Source CFD Toolbox
   \\    /   O peration     | Website:  https://openfoam.org
    \\  /    A nd           | Version:  7
     \\/     M anipulation  |
\*---------------------------------------------------------------------------*/
FoamFile
{
    version     2.0;
    format      ascii;
    class       volScalarField;
    location    "0.28";
    object      T;
}
// * * * * * * * * * * * * * * * * * * * * * * * * * * * * * * * * * * * * * //

dimensions      [0 0 0 1 0 0 0];

internalField   nonuniform List<scalar> 
1596
(
6.98256
6.93249
6.88114
6.83225
6.78673
6.74398
6.70302
6.66179
6.61877
6.57043
6.51405
6.44592
6.35764
6.23743
6.06682
5.80453
5.37344
4.61937
3.23338
6.92455
6.76862
6.6211
6.48474
6.35917
6.24213
6.13085
6.02094
5.90863
5.78742
5.65184
5.4953
5.30548
5.06715
4.76122
4.35125
3.78049
2.95114
1.67796
6.85587
6.5935
6.35689
6.14287
5.948
5.76806
5.59869
5.43414
5.26934
5.09667
4.90971
4.70114
4.45876
4.16859
3.81518
3.37151
2.80019
2.04335
0.992884
6.78794
6.42577
6.10873
5.82648
5.57207
5.33937
5.12272
4.91557
4.71218
4.50461
4.28636
4.05022
3.78518
3.47939
3.12103
2.69071
2.16427
1.50799
0.659024
6.73139
6.28275
5.89525
5.55348
5.24773
4.9704
4.71488
4.47417
4.24221
4.0111
3.7745
3.52555
3.25442
2.9511
2.6064
2.20607
1.73408
1.17047
0.478015
6.6932
6.17633
5.72931
5.33589
4.98529
4.66923
4.3806
4.11223
3.85793
3.61
3.36228
3.10823
2.83894
2.54571
2.22099
1.85378
1.43284
0.945836
0.369886
6.6744
6.10992
5.61509
5.17737
4.78711
4.43641
4.11821
3.82548
3.5521
3.29058
3.03499
2.77899
2.51432
2.23311
1.92881
1.59236
1.21528
0.789427
0.299946
6.67102
6.07881
5.54822
5.07351
4.64819
4.26589
3.9203
3.60485
3.3137
3.03969
2.77707
2.51967
2.25967
1.98971
1.70378
1.39396
1.05334
0.676031
0.251712
6.67912
6.07633
5.52141
5.01684
4.56077
4.14939
3.77781
3.44034
3.13166
2.84503
2.57494
2.31536
2.05877
1.79813
1.52766
1.24013
0.929452
0.590912
0.216751
6.69026
6.08824
5.5191
4.99201
4.51003
4.07255
3.67669
3.31803
2.99205
2.69256
2.41437
2.15163
1.89705
1.64377
1.38611
1.11719
0.831336
0.524408
0.19012
6.69934
6.10299
5.52697
4.98408
4.48135
4.02138
3.60358
3.22512
2.88251
2.5703
2.28369
2.01709
1.76341
1.51593
1.26896
1.0158
0.750963
0.470498
0.168942
6.71074
6.12328
5.54474
4.99058
4.47096
3.99138
3.55357
3.15643
2.7977
2.47276
2.17736
1.90615
1.65228
1.40912
1.17095
0.931091
0.684096
0.42599
0.151708
6.72167
6.1448
5.56663
5.00457
4.47127
3.97471
3.51886
3.10437
2.73029
2.39295
2.08869
1.8125
1.55773
1.31786
1.08707
0.858667
0.627116
0.388289
0.137287
6.72858
6.16088
5.5845
5.01715
4.47308
3.96227
3.49067
3.06062
2.67252
2.32367
2.01106
1.73007
1.47427
1.23722
1.013
0.794865
0.577124
0.355419
0.124857
6.73452
6.17405
5.59933
5.02787
4.47482
3.9517
3.46614
3.02207
2.62115
2.26169
1.94133
1.65585
1.39906
1.16459
0.946416
0.737682
0.532515
0.326269
0.11395
6.74031
6.18597
5.61232
5.03699
4.47584
3.94162
3.44338
2.98646
2.57375
2.20449
1.877
1.58743
1.32983
1.09787
0.885443
0.685524
0.492024
0.299977
0.104216
6.74444
6.19482
5.62157
5.04237
4.47367
3.92924
3.41941
2.95077
2.52731
2.14918
1.81531
1.52224
1.26423
1.03498
0.828254
0.636871
0.454483
0.275772
0.0953508
6.74747
6.20116
5.62756
5.04424
4.46818
3.91409
3.39341
2.91389
2.48054
2.09436
1.75482
1.45883
1.20082
0.974542
0.773615
0.590668
0.419068
0.253113
0.0871419
6.75284
6.21041
5.63606
5.0481
4.46427
3.90028
3.36869
2.87838
2.4353
2.04124
1.69622
1.39744
1.13952
0.916224
0.72103
0.546373
0.385301
0.231669
0.0794613
6.75932
6.22205
5.64719
5.05435
4.4624
3.88819
3.34546
2.84421
2.39133
1.98938
1.63888
1.3373
1.07942
0.859008
0.669437
0.502967
0.352333
0.210888
0.0721241
6.76427
6.23224
5.65724
5.05972
4.45972
3.87535
3.32155
2.80947
2.34693
1.93721
1.58131
1.27696
1.01908
0.801432
0.617347
0.458998
0.318904
0.189924
0.0648559
6.76922
6.24227
5.6673
5.06527
4.4573
3.86276
3.29787
2.7749
2.30261
1.88499
1.52349
1.2161
0.957857
0.742555
0.563494
0.412914
0.283366
0.167467
0.0571987
6.77484
6.25329
5.67847
5.07199
4.45605
3.85129
3.27518
2.74114
2.2588
1.83288
1.46527
1.15422
0.894916
0.681145
0.506207
0.362509
0.243004
0.140797
0.0478453
6.78074
6.26471
5.68995
5.07894
4.45502
3.84005
3.2527
2.70746
2.21477
1.78003
1.40561
1.09005
0.828691
0.615334
0.443206
0.304819
0.193713
0.104381
0.0315424
6.78995
6.28787
5.7234
5.11902
4.49812
3.88281
3.29217
2.74114
2.24079
1.79721
1.41358
1.08932
0.820484
0.601388
0.425529
0.285438
0.174802
0.0887448
0.0236418
6.80004
6.31733
5.77132
5.18352
4.57627
3.97076
3.38554
2.83534
2.33142
1.88049
1.48664
1.15056
0.869657
0.639414
0.454063
0.306331
0.189542
0.0981356
0.0274558
6.80502
6.33457
5.80235
5.22867
4.6346
4.04012
3.46275
2.91656
2.41245
1.95729
1.5557
1.20944
0.917233
0.675943
0.48088
0.325235
0.202204
0.105712
0.0303091
6.80492
6.33915
5.81552
5.25306
4.67135
4.08881
3.52154
2.98245
2.48165
2.02565
1.61922
1.26483
0.962426
0.710392
0.505489
0.341764
0.212566
0.11144
0.0322748
6.80149
6.33462
5.81561
5.26221
4.69232
4.12255
3.56727
3.03789
2.54337
2.08951
1.68082
1.32014
1.00837
0.745461
0.529995
0.357416
0.221654
0.116014
0.0336866
6.79502
6.32327
5.80666
5.26135
4.70336
4.14732
3.60569
3.08821
2.6025
2.15337
1.7448
1.37956
1.05915
0.784864
0.557367
0.374177
0.230575
0.119984
0.0347536
6.78684
6.30898
5.79425
5.25705
4.71147
4.17014
3.64353
3.13968
2.66481
2.22265
1.81642
1.44848
1.12036
0.834165
0.592511
0.395578
0.241211
0.124038
0.0356438
6.78032
6.29742
5.78515
5.25658
4.72403
4.19815
3.68754
3.19856
2.73613
2.30292
1.90132
1.53302
1.19898
0.901267
0.643551
0.428548
0.257865
0.129619
0.0363899
6.77407
6.28697
5.77817
5.25933
4.74093
4.23169
3.7384
3.2659
2.81791
2.39619
2.00239
1.6375
1.30154
0.995586
0.722834
0.486841
0.292404
0.143137
0.0371399
6.76793
6.27783
5.77401
5.26646
4.76373
4.27259
3.79816
3.34392
2.91259
2.50522
2.12297
1.7664
1.43476
1.1279
0.847255
0.594638
0.374303
0.1926
0.0530877
6.76068
6.26558
5.7643
5.26532
4.77533
4.29938
3.84112
3.40288
2.9866
2.59279
2.22237
1.87576
1.55205
1.25053
0.971257
0.713475
0.477621
0.266544
0.0826875
6.74842
6.23887
5.73087
5.23104
4.74429
4.27421
3.82321
3.39269
2.98388
2.59682
2.23219
1.8903
1.5703
1.27164
0.994586
0.738243
0.502347
0.287706
0.0933429
6.73246
6.20275
5.6828
5.17685
4.688
4.21846
3.76958
3.34191
2.93613
2.55182
2.18946
1.84935
1.53069
1.23324
0.957851
0.704327
0.473414
0.267022
0.084938
6.71889
6.1722
5.64229
5.13127
4.64074
4.17173
3.72471
3.29958
2.89657
2.51495
2.15511
1.81735
1.50098
1.20596
0.933443
0.683493
0.457098
0.256347
0.0810654
6.709
6.14924
5.61138
5.09617
4.60411
4.13534
3.68966
3.26648
2.86568
2.4863
2.12867
1.79308
1.47889
1.18616
0.916199
0.669169
0.446162
0.249372
0.0786482
6.70141
6.13161
5.58765
5.06924
4.57599
4.1074
3.66276
3.24107
2.84202
2.46445
2.10862
1.77482
1.46245
1.17159
0.903643
0.658837
0.43833
0.24441
0.0769557
6.69586
6.11878
5.5705
5.04988
4.55587
4.08747
3.64361
3.22304
2.82526
2.44901
2.09451
1.76203
1.45097
1.16145
0.894919
0.651648
0.432857
0.24092
0.0757564
6.69146
6.1098
5.55924
5.03767
4.54353
4.0755
3.6323
3.21254
2.81564
2.44028
2.08666
1.75505
1.44482
1.15613
0.890439
0.648037
0.430168
0.239241
0.075199
6.69147
6.10983
5.55927
5.03771
4.54357
4.07555
3.63234
3.21259
2.81568
2.44032
2.08669
1.75508
1.44485
1.15616
0.890461
0.648055
0.43018
0.239248
0.0752015
6.69589
6.11885
5.5706
5.04999
4.55599
4.08761
3.64374
3.22317
2.82539
2.44913
2.09462
1.76214
1.45107
1.16154
0.894991
0.651705
0.432899
0.240946
0.0757653
6.70145
6.13172
5.58781
5.06942
4.57619
4.10761
3.66297
3.24129
2.84222
2.46464
2.1088
1.77499
1.4626
1.17172
0.903752
0.658922
0.438391
0.244447
0.0769682
6.70906
6.14938
5.61158
5.09641
4.60437
4.13562
3.68995
3.26675
2.86595
2.48656
2.12891
1.79329
1.47908
1.18633
0.916336
0.669276
0.446238
0.249417
0.0786634
6.71896
6.17237
5.64253
5.13156
4.64106
4.17207
3.72505
3.29992
2.8969
2.51527
2.15541
1.81761
1.50121
1.20616
0.933603
0.683616
0.457184
0.256397
0.0810818
6.73254
6.20294
5.68308
5.17718
4.68837
4.21885
3.76998
3.3423
2.93651
2.55218
2.18979
1.84964
1.53094
1.23345
0.958013
0.704444
0.47349
0.267061
0.0849484
6.74851
6.23908
5.73118
5.23141
4.74471
4.27465
3.82366
3.39312
2.9843
2.59721
2.23254
1.8906
1.57054
1.27181
0.994697
0.738292
0.502347
0.287682
0.0933248
6.76079
6.26589
5.7648
5.26597
4.77611
4.30027
3.84209
3.40391
2.98768
2.59389
2.22349
1.87688
1.55317
1.25163
0.972334
0.714501
0.478539
0.267243
0.0829922
6.76805
6.2782
5.77459
5.26725
4.76469
4.27371
3.79941
3.34526
2.91401
2.50669
2.12448
1.76791
1.43627
1.12937
0.848641
0.595874
0.375297
0.193253
0.0533251
6.77417
6.28728
5.77867
5.26001
4.74178
4.23267
3.73948
3.26706
2.81913
2.39744
2.00365
1.63873
1.30272
0.996678
0.723783
0.48759
0.292906
0.143387
0.0371883
6.78041
6.2977
5.78562
5.25722
4.72483
4.19907
3.68856
3.19965
2.73726
2.30406
1.90245
1.53411
1.19999
0.902146
0.644265
0.429068
0.258188
0.129776
0.0364302
6.78692
6.30924
5.79469
5.25764
4.71222
4.171
3.64449
3.1407
2.66586
2.2237
1.81744
1.44944
1.12121
0.834885
0.593072
0.395973
0.241455
0.124162
0.0356793
6.79509
6.3235
5.80706
5.2619
4.70405
4.14813
3.60658
3.08915
2.60347
2.15433
1.74571
1.3804
1.05988
0.785467
0.557828
0.374501
0.230779
0.120093
0.034786
6.80155
6.33482
5.81596
5.26271
4.69295
4.1233
3.56809
3.03876
2.54426
2.09038
1.68164
1.32088
1.00901
0.745977
0.530388
0.357694
0.221834
0.116112
0.0337173
6.80497
6.33933
5.81583
5.2535
4.67192
4.08948
3.52229
2.98324
2.48245
2.02643
1.61995
1.26548
0.962982
0.710841
0.505833
0.342011
0.212729
0.111532
0.0323052
6.80506
6.33472
5.80263
5.22906
4.63511
4.04072
3.46342
2.91727
2.41317
1.95799
1.55635
1.21001
0.917723
0.676341
0.481187
0.325461
0.202359
0.105804
0.0303416
6.80008
6.31745
5.77156
5.18386
4.57672
3.9713
3.38614
2.83597
2.33206
1.88111
1.48721
1.15107
0.870093
0.639771
0.454344
0.306545
0.189694
0.0982316
0.0274932
6.78995
6.2879
5.72345
5.1191
4.49824
3.88296
3.29233
2.74131
2.24096
1.79737
1.41373
1.08944
0.820575
0.601449
0.425562
0.285449
0.174797
0.0887319
0.0236329
6.78072
6.26467
5.68988
5.07886
4.45492
3.83993
3.25257
2.70733
2.21464
1.77991
1.40549
1.08993
0.828583
0.615234
0.443116
0.304739
0.193647
0.104333
0.0315207
6.77484
6.25328
5.67845
5.07196
4.45603
3.85126
3.27516
2.74113
2.25879
1.83287
1.46527
1.15423
0.894926
0.681157
0.506221
0.362522
0.243016
0.140805
0.0478476
6.76921
6.24226
5.66728
5.06525
4.45728
3.86274
3.29785
2.77489
2.3026
1.88499
1.52349
1.21611
0.957866
0.742565
0.563505
0.412924
0.283374
0.167472
0.0572
6.76427
6.23223
5.65723
5.0597
4.45971
3.87533
3.32154
2.80947
2.34693
1.93722
1.58131
1.27697
1.01908
0.801442
0.617355
0.459005
0.318909
0.189927
0.0648568
6.75932
6.22205
5.64718
5.05434
4.46239
3.88819
3.34546
2.84421
2.39133
1.98939
1.63888
1.33731
1.07943
0.859016
0.669443
0.502972
0.352337
0.21089
0.0721247
6.75284
6.21041
5.63606
5.04809
4.46427
3.90028
3.36869
2.87838
2.4353
2.04124
1.69622
1.39745
1.13953
0.91623
0.721035
0.546377
0.385303
0.23167
0.0794617
6.74747
6.20116
5.62756
5.04424
4.46818
3.91409
3.39341
2.91389
2.48055
2.09436
1.75483
1.45883
1.20083
0.974547
0.773618
0.590671
0.41907
0.253114
0.0871421
6.74443
6.19481
5.62157
5.04237
4.47367
3.92925
3.41941
2.95077
2.52731
2.14919
1.81532
1.52225
1.26423
1.03498
0.828256
0.636872
0.454483
0.275773
0.0953509
6.74031
6.18597
5.61232
5.03699
4.47585
3.94162
3.44338
2.98647
2.57375
2.2045
1.877
1.58743
1.32983
1.09788
0.885443
0.685524
0.492024
0.299977
0.104216
6.73452
6.17405
5.59933
5.02787
4.47482
3.9517
3.46615
3.02207
2.62115
2.26169
1.94133
1.65585
1.39906
1.16459
0.946415
0.737681
0.532514
0.326268
0.11395
6.72858
6.16088
5.5845
5.01715
4.47308
3.96228
3.49067
3.06062
2.67252
2.32367
2.01106
1.73007
1.47427
1.23722
1.013
0.794864
0.577123
0.355418
0.124857
6.72167
6.1448
5.56663
5.00457
4.47127
3.97472
3.51886
3.10437
2.73029
2.39295
2.08868
1.8125
1.55773
1.31786
1.08707
0.858665
0.627115
0.388289
0.137287
6.71074
6.12328
5.54474
4.99058
4.47096
3.99138
3.55357
3.15643
2.7977
2.47276
2.17735
1.90615
1.65228
1.40912
1.17094
0.931089
0.684095
0.425989
0.151709
6.69934
6.10299
5.52697
4.98408
4.48135
4.02138
3.60358
3.22511
2.88251
2.57029
2.28369
2.01709
1.76341
1.51593
1.26896
1.0158
0.750962
0.470498
0.168942
6.69026
6.08824
5.5191
4.99201
4.51003
4.07255
3.67669
3.31803
2.99205
2.69256
2.41437
2.15163
1.89704
1.64377
1.38611
1.11719
0.831336
0.524409
0.190121
6.67912
6.07633
5.52141
5.01684
4.56077
4.14938
3.7778
3.44033
3.13166
2.84503
2.57493
2.31535
2.05876
1.79813
1.52766
1.24013
0.929452
0.590913
0.216752
6.67102
6.07881
5.54822
5.0735
4.64818
4.26588
3.92029
3.60485
3.3137
3.03969
2.77706
2.51967
2.25966
1.98971
1.70377
1.39396
1.05334
0.676032
0.251712
6.6744
6.10991
5.61508
5.17736
4.7871
4.4364
4.11821
3.82548
3.55209
3.29057
3.03498
2.77898
2.51431
2.23311
1.92881
1.59236
1.21528
0.789428
0.299946
6.6932
6.17633
5.72931
5.33589
4.98529
4.66923
4.3806
4.11223
3.85793
3.60999
3.36227
3.10823
2.83894
2.54571
2.22099
1.85378
1.43284
0.945837
0.369886
6.73139
6.28275
5.89525
5.55348
5.24773
4.97039
4.71487
4.47417
4.2422
4.01109
3.7745
3.52555
3.25441
2.9511
2.6064
2.20607
1.73408
1.17047
0.478015
6.78793
6.42577
6.10872
5.82648
5.57206
5.33936
5.12271
4.91556
4.71217
4.50461
4.28636
4.05022
3.78517
3.47938
3.12103
2.69071
2.16427
1.50799
0.659023
6.85587
6.5935
6.35689
6.14287
5.94799
5.76805
5.59868
5.43413
5.26934
5.09666
4.90971
4.70114
4.45876
4.16858
3.81518
3.37151
2.80019
2.04335
0.992883
6.92455
6.76862
6.6211
6.48474
6.35916
6.24213
6.13085
6.02094
5.90863
5.78741
5.65184
5.4953
5.30548
5.06715
4.76122
4.35125
3.78049
2.95114
1.67796
6.98256
6.93249
6.88114
6.83225
6.78673
6.74398
6.70302
6.66179
6.61877
6.57043
6.51405
6.44592
6.35764
6.23743
6.06683
5.80453
5.37344
4.61937
3.23338
)
;

boundaryField
{
    up
    {
        type            fixedValue;
        value           uniform 0;
    }
    low
    {
        type            fixedValue;
        value           uniform 7;
    }
    left
    {
        type            fixedValue;
        value           uniform 7;
    }
    right
    {
        type            fixedValue;
        value           uniform 7;
    }
    frontAndBackPlanes
    {
        type            empty;
    }
}


// ************************************************************************* //
