/*--------------------------------*- C++ -*----------------------------------*\
  =========                 |
  \\      /  F ield         | OpenFOAM: The Open Source CFD Toolbox
   \\    /   O peration     | Website:  https://openfoam.org
    \\  /    A nd           | Version:  7
     \\/     M anipulation  |
\*---------------------------------------------------------------------------*/
FoamFile
{
    version     2.0;
    format      ascii;
    class       volScalarField;
    location    "0.15";
    object      gradTx;
}
// * * * * * * * * * * * * * * * * * * * * * * * * * * * * * * * * * * * * * //

dimensions      [0 -1 0 1 0 0 0];

internalField   nonuniform List<scalar> 
1596
(
-0.0592879
-0.297169
-0.529645
-0.734431
-0.90835
-1.04971
-1.16525
-1.25952
-1.33914
-1.41634
-1.49535
-1.5909
-1.71941
-1.9033
-2.16784
-2.57291
-3.20866
-4.26845
-6.15201
0.0138121
-0.245175
-0.473712
-0.667577
-0.830024
-0.9612
-1.06735
-1.15087
-1.21696
-1.2724
-1.31903
-1.36536
-1.41557
-1.4752
-1.54394
-1.61938
-1.6775
-1.66736
-1.47924
0.0741795
-0.195497
-0.414957
-0.59469
-0.742793
-0.861569
-0.956481
-1.02921
-1.08337
-1.12287
-1.14824
-1.16436
-1.1716
-1.17099
-1.15977
-1.13222
-1.06965
-0.938063
-0.668655
0.0852121
-0.165228
-0.3628
-0.522307
-0.652664
-0.757103
-0.839901
-0.902402
-0.946955
-0.975704
-0.988743
-0.98863
-0.97468
-0.94644
-0.90154
-0.835339
-0.736321
-0.584924
-0.341066
0.0306925
-0.165874
-0.326405
-0.458484
-0.567417
-0.655586
-0.725564
-0.778284
-0.815068
-0.836816
-0.843583
-0.836363
-0.814254
-0.776318
-0.720915
-0.644703
-0.541236
-0.399966
-0.198636
-0.0833305
-0.202182
-0.313217
-0.41118
-0.495054
-0.564841
-0.621003
-0.663795
-0.693606
-0.710386
-0.7142
-0.704942
-0.681683
-0.643244
-0.588474
-0.514796
-0.418727
-0.294684
-0.130642
-0.233859
-0.27102
-0.326817
-0.386143
-0.441932
-0.49118
-0.532169
-0.564203
-0.586786
-0.599103
-0.60112
-0.591955
-0.570638
-0.535798
-0.486475
-0.420428
-0.335684
-0.229176
-0.0944385
-0.390058
-0.358575
-0.362093
-0.382423
-0.409063
-0.436532
-0.461309
-0.481661
-0.4963
-0.503791
-0.503879
-0.495164
-0.47658
-0.446598
-0.404259
-0.347424
-0.274779
-0.184412
-0.0727437
-0.550659
-0.472459
-0.43077
-0.412657
-0.408248
-0.411167
-0.416922
-0.42293
-0.427255
-0.42796
-0.424438
-0.414933
-0.398199
-0.372541
-0.336858
-0.288983
-0.227751
-0.151644
-0.0583967
-0.646633
-0.552905
-0.48545
-0.440379
-0.411702
-0.394099
-0.383247
-0.376244
-0.370845
-0.364868
-0.357405
-0.346552
-0.33093
-0.308781
-0.27889
-0.239112
-0.188278
-0.125002
-0.0476081
-0.725658
-0.626541
-0.544255
-0.479616
-0.430693
-0.39431
-0.367226
-0.34681
-0.330854
-0.317148
-0.304551
-0.291111
-0.275331
-0.25541
-0.230009
-0.197007
-0.155133
-0.102979
-0.0390743
-0.807658
-0.70941
-0.618251
-0.538474
-0.471564
-0.416872
-0.372828
-0.337619
-0.309435
-0.286238
-0.266759
-0.249037
-0.231451
-0.21214
-0.189627
-0.1618
-0.127251
-0.0844854
-0.0320344
-0.833298
-0.748516
-0.660193
-0.575985
-0.500106
-0.434203
-0.378443
-0.332146
-0.294203
-0.263009
-0.237401
-0.215554
-0.195843
-0.176439
-0.155816
-0.131941
-0.103348
-0.0685168
-0.0259796
-0.843957
-0.77335
-0.692155
-0.608423
-0.527999
-0.454443
-0.389548
-0.333894
-0.287238
-0.24856
-0.216946
-0.190775
-0.168475
-0.148268
-0.128603
-0.10753
-0.0835537
-0.0551562
-0.0208835
-0.848966
-0.790951
-0.718099
-0.637486
-0.55544
-0.476842
-0.404858
-0.341319
-0.286916
-0.241299
-0.203914
-0.173385
-0.148226
-0.126718
-0.107293
-0.0880713
-0.0675455
-0.044217
-0.0166618
-0.83568
-0.791213
-0.728378
-0.653733
-0.573524
-0.493351
-0.417376
-0.34851
-0.28836
-0.237272
-0.195139
-0.160879
-0.133142
-0.110295
-0.0907805
-0.0727921
-0.0548298
-0.0354348
-0.0132334
-0.802384
-0.77108
-0.719399
-0.653015
-0.577737
-0.499389
-0.422726
-0.351481
-0.288052
-0.233457
-0.188064
-0.151127
-0.12148
-0.097605
-0.0779913
-0.0609095
-0.0448903
-0.0285291
-0.0105176
-0.761145
-0.738546
-0.696885
-0.639294
-0.570513
-0.496123
-0.42112
-0.34978
-0.285126
-0.228758
-0.181499
-0.142937
-0.112109
-0.0876303
-0.0680541
-0.051729
-0.0372272
-0.0232025
-0.00841695
-0.726878
-0.711184
-0.677077
-0.626447
-0.563071
-0.492158
-0.418808
-0.347675
-0.282275
-0.224686
-0.176104
-0.136396
-0.10476
-0.0799098
-0.0604397
-0.0447473
-0.0314292
-0.0191833
-0.00683131
-0.660211
-0.654143
-0.629447
-0.588113
-0.533197
-0.469306
-0.40132
-0.333964
-0.271044
-0.214993
-0.167334
-0.128224
-0.0970656
-0.0727261
-0.0538953
-0.0390582
-0.0268669
-0.0160852
-0.00562124
-0.583465
-0.585068
-0.569039
-0.536824
-0.49087
-0.435144
-0.374137
-0.312424
-0.253883
-0.20115
-0.155964
-0.118724
-0.0890238
-0.0658984
-0.0481594
-0.0343983
-0.0233285
-0.0137705
-0.00472674
-0.500963
-0.507412
-0.498569
-0.474807
-0.437844
-0.390947
-0.338097
-0.283528
-0.231001
-0.183184
-0.141905
-0.107737
-0.0804338
-0.0592087
-0.0430247
-0.0306107
-0.0207494
-0.0122719
-0.00418567
-0.406911
-0.41558
-0.412619
-0.397129
-0.369876
-0.333223
-0.290436
-0.24517
-0.200852
-0.160009
-0.124425
-0.0947896
-0.0710005
-0.0524755
-0.0383905
-0.0276885
-0.0192784
-0.0119803
-0.00452053
-0.298464
-0.294648
-0.282655
-0.262826
-0.236731
-0.206616
-0.174947
-0.143949
-0.11545
-0.0905555
-0.0697984
-0.0531473
-0.0401548
-0.0302373
-0.0227928
-0.0171927
-0.0127766
-0.00871189
-0.00382721
-0.199506
-0.220259
-0.239013
-0.250977
-0.253421
-0.245571
-0.228571
-0.204755
-0.177179
-0.148713
-0.121634
-0.0975091
-0.076933
-0.0600934
-0.046828
-0.036782
-0.0293354
-0.0236999
-0.0186424
-0.0669156
-0.0752463
-0.0853084
-0.0945624
-0.101139
-0.103868
-0.102494
-0.0973779
-0.0895455
-0.0801694
-0.0702282
-0.0606292
-0.0516583
-0.0435559
-0.0364559
-0.0306163
-0.02607
-0.0228654
-0.020752
0.0660759
0.0565024
0.0418157
0.0242758
0.00621239
-0.010348
-0.0240237
-0.0341023
-0.0406588
-0.0442318
-0.0454228
-0.0449843
-0.043195
-0.0403495
-0.0367278
-0.0329344
-0.0294251
-0.0266947
-0.0248051
0.197981
0.184998
0.164224
0.138076
0.109211
0.0801988
0.0531562
0.0295041
0.00984451
-0.00587685
-0.0179545
-0.0269464
-0.0330238
-0.0363417
-0.0370682
-0.0359318
-0.0337281
-0.0314626
-0.0296003
0.315674
0.296589
0.268523
0.234203
0.196356
0.157687
0.120544
0.0865936
0.0567372
0.0311631
0.00975664
-0.00789449
-0.0218145
-0.0318678
-0.0377956
-0.0400785
-0.0395741
-0.0378031
-0.0358027
0.435316
0.408113
0.371483
0.328244
0.281232
0.233268
0.1868
0.143564
0.104573
0.0700857
0.0400282
0.0139755
-0.00809375
-0.0258231
-0.0383612
-0.0455271
-0.0477061
-0.0467203
-0.0443898
0.522495
0.486241
0.44179
0.391801
0.338998
0.285909
0.234643
0.186619
0.142671
0.102937
0.067272
0.0351234
0.00630842
-0.0188195
-0.0388765
-0.0526933
-0.0593053
-0.0599819
-0.0570659
0.601166
0.55737
0.505368
0.448889
0.390776
0.333281
0.278155
0.226475
0.178859
0.135284
0.0954959
0.0587169
0.0243709
-0.00766756
-0.0360699
-0.0590429
-0.0736394
-0.0790468
-0.0768547
0.670814
0.617076
0.557115
0.494699
0.432365
0.371861
0.314454
0.260812
0.211306
0.165755
0.123843
0.084649
0.0471891
0.0105215
-0.0249284
-0.0581183
-0.0849151
-0.101389
-0.103718
0.711317
0.642776
0.571208
0.499973
0.431064
0.365667
0.304565
0.248064
0.196291
0.148931
0.105543
0.0651528
0.0265115
-0.012073
-0.0516753
-0.0934818
-0.135449
-0.173917
-0.201893
0.731692
0.65775
0.58622
0.5191
0.456802
0.399214
0.346089
0.297084
0.251944
0.210339
0.172022
0.136577
0.103421
0.0716539
0.0401482
0.0066605
-0.0306656
-0.0738355
-0.123172
0.743367
0.667872
0.599291
0.536895
0.479631
0.426699
0.3775
0.331621
0.288856
0.249009
0.212013
0.177812
0.146216
0.117084
0.0903418
0.065634
0.04254
0.0201294
-0.00323344
0.694693
0.608894
0.534593
0.469141
0.410738
0.358213
0.310692
0.267527
0.228262
0.192443
0.15976
0.129957
0.102686
0.0777284
0.0550389
0.0345892
0.0165371
0.00121079
-0.0112799
0.602995
0.526418
0.460923
0.403852
0.35343
0.308443
0.267991
0.231392
0.198176
0.1679
0.140278
0.115085
0.0920253
0.0709048
0.0516415
0.0341207
0.018304
0.00427262
-0.0080235
0.496114
0.43291
0.378481
0.331099
0.28941
0.252395
0.219262
0.189396
0.16237
0.13778
0.11537
0.0949316
0.0762027
0.0590017
0.0432407
0.028802
0.0156403
0.00382783
-0.00666595
0.370664
0.322476
0.281308
0.245756
0.214689
0.187249
0.162783
0.140785
0.120909
0.102833
0.0863551
0.0713109
0.0574995
0.0447815
0.033094
0.0223523
0.0125338
0.00370898
-0.00413195
0.232166
0.200097
0.173601
0.151175
0.131814
0.11484
0.0997766
0.0862726
0.0740918
0.0630218
0.0529293
0.0437059
0.0352219
0.0273874
0.0201616
0.0134918
0.00736707
0.00183985
-0.00308529
0.0887687
0.0756375
0.0652144
0.0565294
0.0490736
0.0425539
0.0367827
0.0316283
0.0270021
0.0228236
0.0190387
0.0156006
0.0124543
0.00955781
0.00688635
0.00441128
0.0021197
2.3539e-05
-0.00187806
-0.0887262
-0.0755408
-0.0650797
-0.0563689
-0.048897
-0.0423687
-0.0365952
-0.0314437
-0.0268246
-0.0226567
-0.0188853
-0.015463
-0.0123345
-0.00945738
-0.00680655
-0.00435309
-0.00208373
-9.779e-06
0.00187004
-0.232126
-0.20001
-0.173482
-0.151034
-0.131658
-0.114678
-0.099613
-0.0861126
-0.0739392
-0.0628799
-0.0528006
-0.0435925
-0.0351258
-0.0273099
-0.0201041
-0.0134551
-0.00735164
-0.00184562
0.00305894
-0.370623
-0.322391
-0.28119
-0.245615
-0.214532
-0.187084
-0.162615
-0.140619
-0.120749
-0.102683
-0.0862169
-0.0711867
-0.0573906
-0.0446891
-0.0330186
-0.0222939
-0.0124923
-0.00368359
0.00414234
-0.496081
-0.432847
-0.378395
-0.330997
-0.289297
-0.252276
-0.219142
-0.18928
-0.162259
-0.137679
-0.11528
-0.0948536
-0.0761383
-0.0589516
-0.0432052
-0.0287809
-0.0156334
-0.00383421
0.0066473
-0.602972
-0.526374
-0.46086
-0.403776
-0.353343
-0.308352
-0.267898
-0.231301
-0.19809
-0.167823
-0.140211
-0.115028
-0.09198
-0.0708717
-0.0516204
-0.0341112
-0.0183046
-0.00428149
0.00800907
-0.694688
-0.608875
-0.53456
-0.469096
-0.410685
-0.358156
-0.310636
-0.267474
-0.228216
-0.192406
-0.159733
-0.129942
-0.102683
-0.0777379
-0.0550606
-0.0346216
-0.016576
-0.00124919
0.0112497
-0.74336
-0.6678
-0.599139
-0.536661
-0.479322
-0.426327
-0.377079
-0.331165
-0.28838
-0.248524
-0.211528
-0.177333
-0.145745
-0.116622
-0.0898906
-0.0652006
-0.042145
-0.0198205
0.00337667
-0.731815
-0.65808
-0.586762
-0.519841
-0.457718
-0.400278
-0.34727
-0.29835
-0.253265
-0.211694
-0.173393
-0.137958
-0.104815
-0.0730776
-0.0416319
-0.0082492
0.0289335
0.0719537
0.12121
-0.711258
-0.642622
-0.570953
-0.499625
-0.430637
-0.365178
-0.304032
-0.247504
-0.195719
-0.148359
-0.10498
-0.0646075
-0.0259891
0.0125706
0.0521556
0.0939707
0.136009
0.174654
0.202947
-0.670855
-0.617175
-0.557264
-0.49489
-0.432588
-0.372106
-0.314714
-0.261077
-0.21157
-0.166014
-0.124092
-0.0848876
-0.0474146
-0.0107269
0.0247586
0.0580133
0.084908
0.101499
0.103914
-0.601191
-0.557431
-0.505463
-0.449012
-0.390922
-0.333443
-0.278328
-0.226653
-0.179036
-0.135456
-0.095658
-0.0588657
-0.0245006
0.00756719
0.0360146
0.0590505
0.0737175
0.0791805
0.0770134
-0.522522
-0.486305
-0.441889
-0.391931
-0.339152
-0.286079
-0.234822
-0.186799
-0.142845
-0.1031
-0.0674184
-0.0352488
-0.00640706
0.0187559
0.0388567
0.0527225
0.0593781
0.0600808
0.0571687
-0.435342
-0.408179
-0.371587
-0.328381
-0.281394
-0.233446
-0.186985
-0.143745
-0.104743
-0.0702386
-0.0401592
-0.0140805
0.00801877
0.0257825
0.0383574
0.0455578
0.0477626
0.0467901
0.0444616
-0.315698
-0.296653
-0.268625
-0.234338
-0.196514
-0.157859
-0.120719
-0.0867611
-0.0568895
-0.0312946
-0.00986372
0.00781424
0.0217629
0.0318457
0.0378014
0.0401076
0.0396185
0.037855
0.0358561
-0.198008
-0.185067
-0.164333
-0.138219
-0.109377
-0.0803742
-0.0533295
-0.0296647
-0.00998479
0.00576152
0.017866
0.0268851
0.0329889
0.0363315
0.037079
0.0359583
0.0337645
0.0315039
0.029643
-0.0660997
-0.0565694
-0.0419234
-0.0244159
-0.00637222
0.0101824
0.0238653
0.0339614
0.0405416
0.0441412
0.0453587
0.044945
0.0431779
0.0403512
0.0367441
0.0329607
0.0294573
0.0267304
0.0248426
0.0668581
0.0750745
0.0850242
0.0941858
0.100703
0.10341
0.102049
0.0969733
0.0891981
0.0798866
0.0700087
0.0604674
0.0515458
0.0434828
0.0364123
0.0305939
0.0260626
0.022871
0.0207748
0.199543
0.220403
0.239279
0.25136
0.253897
0.246106
0.229127
0.205297
0.177679
0.149155
0.122011
0.0978216
0.0771869
0.0602976
0.0469925
0.0369167
0.0294488
0.0237985
0.0187293
0.298419
0.294494
0.282396
0.262483
0.236335
0.2062
0.174542
0.143577
0.115124
0.0902834
0.0695787
0.0529753
0.0400242
0.0301409
0.0227236
0.0171446
0.0127447
0.00869288
0.00382001
0.406933
0.415626
0.412686
0.39721
0.369963
0.333307
0.290511
0.245231
0.200898
0.16004
0.124444
0.0947999
0.0710048
0.0524763
0.0383897
0.0276872
0.0192772
0.0119795
0.00452059
0.500966
0.507415
0.498572
0.47481
0.437846
0.390948
0.338096
0.283525
0.230995
0.183177
0.141898
0.107731
0.0804286
0.0592047
0.0430219
0.030609
0.0207486
0.0122717
0.00418587
0.583467
0.585071
0.569042
0.536826
0.490871
0.435144
0.374135
0.31242
0.253878
0.201144
0.155959
0.11872
0.0890205
0.0658962
0.0481582
0.0343978
0.0233286
0.0137708
0.00472687
0.660212
0.654145
0.629449
0.588114
0.533198
0.469306
0.401318
0.333961
0.27104
0.214989
0.16733
0.128221
0.0970637
0.0727252
0.053895
0.0390585
0.0268674
0.0160856
0.00562136
0.72688
0.711188
0.67708
0.62645
0.563072
0.492158
0.418807
0.347672
0.282272
0.224683
0.176102
0.136394
0.104759
0.0799097
0.0604401
0.044748
0.0314299
0.0191837
0.0068314
0.761146
0.738549
0.696888
0.639296
0.570514
0.496123
0.421119
0.349778
0.285123
0.228756
0.181498
0.142936
0.112109
0.0876307
0.0680548
0.0517298
0.0372277
0.0232028
0.00841697
0.802385
0.771082
0.7194
0.653017
0.577738
0.499389
0.422725
0.351479
0.28805
0.233456
0.188063
0.151127
0.12148
0.0976056
0.077992
0.0609099
0.0448904
0.028529
0.0105175
0.835682
0.791216
0.728381
0.653736
0.573526
0.493352
0.417375
0.348509
0.288359
0.237271
0.195138
0.160878
0.133142
0.110295
0.0907806
0.0727919
0.0548293
0.0354343
0.0132332
0.848966
0.790952
0.718101
0.637488
0.555441
0.476842
0.404858
0.341318
0.286915
0.241299
0.203914
0.173385
0.148226
0.126717
0.107292
0.08807
0.067544
0.0442159
0.0166615
0.843958
0.773352
0.692158
0.608425
0.528
0.454443
0.389547
0.333893
0.287238
0.248559
0.216945
0.190774
0.168474
0.148267
0.128601
0.107528
0.0835513
0.0551546
0.0208831
0.833301
0.74852
0.660196
0.575988
0.500107
0.434204
0.378443
0.332146
0.294202
0.263009
0.2374
0.215552
0.195841
0.176436
0.155813
0.131937
0.103345
0.068515
0.0259793
0.807656
0.70941
0.61825
0.538473
0.471562
0.41687
0.372826
0.337617
0.309433
0.286236
0.266757
0.249033
0.231447
0.212135
0.189623
0.161795
0.127248
0.0844836
0.0320344
0.725662
0.626545
0.544258
0.479618
0.430694
0.39431
0.367226
0.346809
0.330853
0.317146
0.304548
0.291107
0.275326
0.255404
0.230004
0.197002
0.15513
0.102978
0.0390746
0.64664
0.552909
0.485453
0.44038
0.411702
0.394098
0.383246
0.376243
0.370843
0.364865
0.357401
0.346547
0.330924
0.308776
0.278885
0.239109
0.188276
0.125002
0.0476089
0.550664
0.472462
0.430771
0.412658
0.408248
0.411167
0.416922
0.422929
0.427252
0.427956
0.424433
0.414928
0.398194
0.372536
0.336855
0.288982
0.227751
0.151645
0.0583976
0.390062
0.358577
0.362094
0.382423
0.409063
0.436532
0.461308
0.481659
0.496297
0.503787
0.503875
0.49516
0.476576
0.446595
0.404259
0.347426
0.274782
0.184415
0.0727444
0.233862
0.271022
0.326819
0.386144
0.441933
0.491181
0.532169
0.564201
0.586784
0.599099
0.601116
0.591952
0.570636
0.535798
0.486477
0.420431
0.335689
0.229179
0.0944389
0.0833328
0.202184
0.313219
0.411182
0.495056
0.564841
0.621002
0.663793
0.693603
0.710384
0.714198
0.704941
0.681684
0.643247
0.588478
0.514801
0.418731
0.294686
0.130642
-0.0306912
0.165876
0.326407
0.458486
0.567418
0.655586
0.725563
0.778283
0.815066
0.836815
0.843583
0.836365
0.814257
0.776322
0.720921
0.644708
0.541239
0.399967
0.198635
-0.0852119
0.16523
0.362802
0.522308
0.652664
0.757103
0.839901
0.902401
0.946955
0.975704
0.988745
0.988633
0.974684
0.946445
0.901545
0.835342
0.736323
0.584923
0.341065
-0.0741799
0.195497
0.414957
0.594689
0.742792
0.861568
0.956481
1.02921
1.08337
1.12287
1.14825
1.16436
1.17161
1.17099
1.15977
1.13222
1.06965
0.93806
0.668653
-0.0138121
0.245174
0.47371
0.667575
0.830022
0.961199
1.06735
1.15087
1.21696
1.27241
1.31903
1.36537
1.41557
1.4752
1.54394
1.61938
1.67749
1.66736
1.47924
0.0592885
0.297169
0.529643
0.734429
0.908349
1.04971
1.16525
1.25952
1.33914
1.41634
1.49536
1.5909
1.71941
1.9033
2.16783
2.5729
3.20866
4.26845
6.15201
)
;

boundaryField
{
    up
    {
        type            calculated;
        value           nonuniform List<scalar> 
84
(
-6.15201
-1.47924
-0.668655
-0.341066
-0.198636
-0.130642
-0.0944385
-0.0727437
-0.0583967
-0.0476081
-0.0390743
-0.0320344
-0.0259796
-0.0208835
-0.0166618
-0.0132334
-0.0105176
-0.00841695
-0.00683131
-0.00562124
-0.00472674
-0.00418567
-0.00452053
-0.00382721
-0.0157065
-0.0190315
-0.0229075
-0.0273212
-0.0329291
-0.0406137
-0.0517579
-0.0681553
-0.0894979
-0.195779
-0.125924
-0.00339731
-0.0111933
-0.0079664
-0.00663331
-0.00411873
-0.00307982
-0.00187695
0.00186893
0.00305355
0.00412921
0.00661489
0.00795228
0.0111634
0.00353737
0.123934
0.19701
0.0896783
0.0682893
0.051848
0.0406778
0.0329775
0.0273608
0.0229432
0.0190616
0.015783
0.00382001
0.00452059
0.00418587
0.00472687
0.00562136
0.0068314
0.00841697
0.0105175
0.0132332
0.0166615
0.0208831
0.0259793
0.0320344
0.0390746
0.0476089
0.0583976
0.0727444
0.0944389
0.130642
0.198635
0.341065
0.668653
1.47924
6.15201
)
;
    }
    low
    {
        type            calculated;
        value           nonuniform List<scalar> 
84
(
-0.0533404
0.0228988
0.0887196
0.100858
0.0404256
-0.0851113
-0.248355
-0.414163
-0.578361
-0.669408
-0.745912
-0.824508
-0.841568
-0.847187
-0.849193
-0.831069
-0.793453
-0.751072
-0.713855
-0.641456
-0.56155
-0.477909
-0.383783
-0.277794
-0.183055
-0.0609229
0.0592438
0.181137
0.294426
0.41469
0.506387
0.588804
0.663532
0.71029
0.735451
0.752651
0.709559
0.61833
0.509499
0.381147
0.239035
0.0916204
-0.0915777
-0.238993
-0.381104
-0.509462
-0.618302
-0.709548
-0.752637
-0.735555
-0.710233
-0.663563
-0.588825
-0.506412
-0.414716
-0.294451
-0.181165
-0.059268
0.0608668
0.183092
0.277752
0.383802
0.477911
0.561551
0.641456
0.713856
0.751073
0.793454
0.831071
0.849193
0.847189
0.84157
0.824505
0.745914
0.669414
0.578365
0.414167
0.248358
0.0851138
-0.0404243
-0.100858
-0.0887212
-0.0228999
0.0533407
)
;
    }
    left
    {
        type            calculated;
        value           nonuniform List<scalar> 
19
(
-0.0528717
-0.286046
-0.523739
-0.73604
-0.917773
-1.06591
-1.18762
-1.28815
-1.37404
-1.46033
-1.55123
-1.66297
-1.81661
-2.04148
-2.36891
-2.88253
-3.70729
-5.11329
-5.33532
)
;
    }
    right
    {
        type            calculated;
        value           nonuniform List<scalar> 
19
(
0.0528724
0.286047
0.523739
0.736039
0.917772
1.06591
1.18762
1.28815
1.37404
1.46033
1.55123
1.66297
1.8166
2.04147
2.36891
2.88253
3.70729
5.11329
5.33532
)
;
    }
    frontAndBackPlanes
    {
        type            empty;
    }
}


// ************************************************************************* //
