/*--------------------------------*- C++ -*----------------------------------*\
  =========                 |
  \\      /  F ield         | OpenFOAM: The Open Source CFD Toolbox
   \\    /   O peration     | Website:  https://openfoam.org
    \\  /    A nd           | Version:  7
     \\/     M anipulation  |
\*---------------------------------------------------------------------------*/
FoamFile
{
    version     2.0;
    format      ascii;
    class       volScalarField;
    location    "0.19";
    object      gradTx;
}
// * * * * * * * * * * * * * * * * * * * * * * * * * * * * * * * * * * * * * //

dimensions      [0 -1 0 1 0 0 0];

internalField   nonuniform List<scalar> 
1596
(
-0.30185
-1.51372
-2.70501
-3.76833
-4.69247
-5.47189
-6.1428
-6.72886
-7.26381
-7.8114
-8.39197
-9.08261
-9.97185
-11.1843
-12.8638
-15.3635
-19.2228
-25.6045
-36.9128
0.0675966
-1.2564
-2.42924
-3.43455
-4.29303
-5.00771
-5.61171
-6.11711
-6.54962
-6.94354
-7.3057
-7.67939
-8.08339
-8.5437
-9.05161
-9.58587
-9.99765
-9.97889
-8.87217
0.371301
-1.01817
-2.15077
-3.08519
-3.86648
-4.50818
-5.03915
-5.46748
-5.81066
-6.08781
-6.2992
-6.46876
-6.59532
-6.68008
-6.70158
-6.61937
-6.31595
-5.5821
-4.00236
0.422631
-0.884203
-1.91458
-2.7501
-3.43995
-4.00227
-4.45966
-4.81857
-5.09016
-5.28454
-5.4004
-5.45
-5.42764
-5.32804
-5.13384
-4.81281
-4.29102
-3.44521
-2.03013
0.136087
-0.910503
-1.76237
-2.46428
-3.04667
-3.52321
-3.90764
-4.20451
-4.41993
-4.55789
-4.61763
-4.60382
-4.51089
-4.33254
-4.0576
-3.66367
-3.10851
-2.3236
-1.17002
-0.461485
-1.11909
-1.72689
-2.26151
-2.7198
-3.10278
-3.41315
-3.65208
-3.82109
-3.91953
-3.94734
-3.90389
-3.78453
-3.58299
-3.29261
-2.89755
-2.37502
-1.68771
-0.758702
-1.2546
-1.49296
-1.82289
-2.16585
-2.48529
-2.76588
-2.99847
-3.17936
-3.30558
-3.37264
-3.38044
-3.32462
-3.20095
-3.0031
-2.72682
-2.36001
-1.89061
-1.29825
-0.540698
-2.08309
-1.96069
-2.02256
-2.16938
-2.34398
-2.51678
-2.66845
-2.78965
-2.87323
-2.9115
-2.90349
-2.84221
-2.72336
-2.54031
-2.28969
-1.9613
-1.54859
-1.03996
-0.412229
-2.93912
-2.56431
-2.38983
-2.34033
-2.35908
-2.41006
-2.46767
-2.5176
-2.54905
-2.55163
-2.52268
-2.45335
-2.33856
-2.17102
-1.94713
-1.65737
-1.29732
-0.859437
-0.330198
-3.45304
-2.9882
-2.67554
-2.4861
-2.38176
-2.33041
-2.30619
-2.29239
-2.27622
-2.24578
-2.19685
-2.11971
-2.00859
-1.85589
-1.65756
-1.40459
-1.09335
-0.718306
-0.270959
-3.87424
-3.37332
-2.97856
-2.68598
-2.47793
-2.33227
-2.22773
-2.14822
-2.08068
-2.01278
-1.93905
-1.84942
-1.73744
-1.59516
-1.41784
-1.19665
-0.92778
-0.60635
-0.226266
-4.30701
-3.80503
-3.35962
-2.98633
-2.68534
-2.44691
-2.25757
-2.10473
-1.9769
-1.86238
-1.755
-1.64463
-1.52413
-1.38511
-1.22197
-1.02575
-0.791933
-0.515462
-0.19098
-4.43351
-3.99904
-3.56518
-3.1668
-2.819
-2.52371
-2.27604
-2.06858
-1.89306
-1.7398
-1.60305
-1.47345
-1.34378
-1.20576
-1.05337
-0.877804
-0.674036
-0.436818
-0.161009
-4.47542
-4.11378
-3.71527
-3.31808
-2.94659
-2.61266
-2.31955
-2.0659
-1.84756
-1.65769
-1.49177
-1.34162
-1.20036
-1.05996
-0.914151
-0.7543
-0.574919
-0.370501
-0.135876
-4.48332
-4.18723
-3.83161
-3.45032
-3.07086
-2.71194
-2.38383
-2.0912
-1.83448
-1.61017
-1.41563
-1.24415
-1.08943
-0.943867
-0.80105
-0.652539
-0.492432
-0.314955
-0.114771
-4.39155
-4.16608
-3.86253
-3.51251
-3.14349
-2.77787
-2.43092
-2.11254
-1.82762
-1.57623
-1.35802
-1.16809
-1.00105
-0.849938
-0.708452
-0.568433
-0.423743
-0.268438
-0.0970315
-4.19372
-4.0361
-3.7902
-3.48331
-3.14085
-2.78628
-2.43774
-2.10898
-1.80875
-1.54045
-1.30624
-1.10321
-0.927168
-0.772016
-0.631789
-0.498744
-0.366712
-0.229727
-0.0822499
-3.95575
-3.84217
-3.64749
-3.38609
-3.07802
-2.74538
-2.4073
-2.07995
-1.77502
-1.49881
-1.2558
-1.04506
-0.863694
-0.706572
-0.568202
-0.441313
-0.319841
-0.197926
-0.070104
-3.75659
-3.67816
-3.5224
-3.29745
-3.01839
-2.70526
-2.37746
-2.05277
-1.74518
-1.4634
-1.21388
-0.997391
-0.812161
-0.653829
-0.517264
-0.395507
-0.282537
-0.1726
-0.0603872
-3.393
-3.36211
-3.25293
-3.07461
-2.83879
-2.56241
-2.26349
-1.95989
-1.66675
-1.39441
-1.15093
-0.938709
-0.757177
-0.602974
-0.471554
-0.356428
-0.251744
-0.152026
-0.0524882
-2.98343
-2.99009
-2.92316
-2.78956
-2.59824
-2.36312
-2.1002
-1.8264
-1.55701
-1.30323
-1.07405
-0.873137
-0.700964
-0.555134
-0.431742
-0.324748
-0.228316
-0.13699
-0.0466419
-2.55044
-2.58093
-2.54879
-2.45599
-2.30822
-2.11632
-1.89395
-1.65639
-1.41831
-1.19096
-0.983599
-0.800669
-0.643379
-0.510236
-0.398072
-0.301378
-0.214122
-0.129995
-0.044227
-2.06441
-2.10606
-2.10205
-2.04829
-1.94626
-1.80295
-1.62905
-1.43735
-1.24103
-1.05058
-0.874773
-0.718329
-0.582861
-0.467771
-0.370923
-0.287858
-0.212669
-0.137499
-0.0527802
-1.51076
-1.4894
-1.43471
-1.34769
-1.23445
-1.10365
-0.965227
-0.828169
-0.700193
-0.586042
-0.487928
-0.405724
-0.337435
-0.280626
-0.232837
-0.191141
-0.151557
-0.107477
-0.04786
-1.00964
-1.11816
-1.22766
-1.31572
-1.36754
-1.37538
-1.33957
-1.26599
-1.16511
-1.04827
-0.925447
-0.805068
-0.691748
-0.589252
-0.49983
-0.424456
-0.361097
-0.304845
-0.244847
-0.339978
-0.3869
-0.446241
-0.505713
-0.556118
-0.591124
-0.608602
-0.608885
-0.59545
-0.572478
-0.542762
-0.509417
-0.472402
-0.432709
-0.39181
-0.35333
-0.319328
-0.292092
-0.270934
0.331077
0.274121
0.191097
0.0932615
-0.00843626
-0.104794
-0.189827
-0.260351
-0.316491
-0.36001
-0.391828
-0.413364
-0.423051
-0.420296
-0.40573
-0.384079
-0.359754
-0.337996
-0.320375
0.998837
0.921036
0.806154
0.666607
0.514722
0.361579
0.21561
0.0821108
-0.0369744
-0.141955
-0.232764
-0.309524
-0.369094
-0.40833
-0.425266
-0.423905
-0.410238
-0.392801
-0.375997
1.59896
1.48685
1.33312
1.15211
0.95653
0.757838
0.564973
0.383542
0.215926
0.0619725
-0.0783238
-0.204787
-0.313254
-0.397688
-0.451631
-0.4756
-0.47494
-0.461425
-0.443642
2.21579
2.06031
1.86212
1.63609
1.39536
1.15179
0.914447
0.688791
0.477074
0.278659
0.0927122
-0.0815983
-0.240637
-0.37664
-0.477903
-0.538393
-0.558469
-0.551191
-0.530908
2.67438
2.46973
2.22904
1.96653
1.69497
1.42488
1.16368
0.915105
0.680143
0.456886
0.243077
0.0358039
-0.163707
-0.34864
-0.503579
-0.614105
-0.668871
-0.675104
-0.6505
3.09715
2.85104
2.56922
2.27147
1.97118
1.6776
1.39646
1.12988
0.877723
0.637032
0.404325
0.174222
-0.056165
-0.285008
-0.498611
-0.67802
-0.795871
-0.841189
-0.824133
3.48134
3.1809
2.85528
2.52449
2.2003
1.88951
1.59563
1.31898
1.05848
0.810472
0.571048
0.333394
0.0907421
-0.16259
-0.421771
-0.675346
-0.887978
-1.02336
-1.04568
3.72001
3.33774
2.94661
2.56419
2.19921
1.8556
1.5346
1.23509
0.955221
0.691168
0.438843
0.191384
-0.0597617
-0.326207
-0.615679
-0.936141
-1.27175
-1.59177
-1.83812
3.85744
3.44245
3.04862
2.68637
2.35642
2.05635
1.78251
1.531
1.29841
1.08136
0.877355
0.683255
0.495297
0.307594
0.112143
-0.107542
-0.366781
-0.682879
-1.06124
3.95146
3.52543
3.14649
2.80989
2.50812
2.23487
1.98457
1.753
1.53718
1.33458
1.14398
0.964588
0.795577
0.636782
0.488778
0.35043
0.219821
0.0904931
-0.0499107
3.72068
3.23553
2.82246
2.46529
2.15201
1.87421
1.62509
1.39953
1.19377
1.00443
0.82951
0.66756
0.517176
0.377933
0.250684
0.136442
0.0374227
-0.0434616
-0.104914
3.25113
2.81344
2.4461
2.13226
1.85992
1.62051
1.40735
1.21539
1.04104
0.881216
0.734111
0.598479
0.473059
0.357275
0.251268
0.15492
0.0684484
-0.00751488
-0.0731932
2.6903
2.32567
2.01833
1.75626
1.52989
1.33189
1.15647
0.999178
0.856874
0.726864
0.607532
0.497716
0.396192
0.302249
0.215737
0.136286
0.0638792
-0.000978719
-0.0584107
2.01918
1.73943
1.50576
1.30823
1.13884
0.99152
0.861577
0.745444
0.640631
0.545019
0.457332
0.376636
0.301938
0.23264
0.16859
0.109502
0.055405
0.00678148
-0.0363706
1.26877
1.08239
0.931626
0.806644
0.700751
0.609335
0.529091
0.457599
0.393208
0.334534
0.280737
0.231194
0.185248
0.142489
0.102799
0.0659855
0.0320785
0.00143196
-0.0258838
0.48627
0.410606
0.351656
0.30348
0.262832
0.227765
0.196997
0.169625
0.145038
0.12272
0.102342
0.0836426
0.066346
0.0502575
0.0352812
0.0212986
0.00827088
-0.0037105
-0.0146305
-0.486037
-0.410083
-0.350933
-0.302623
-0.261892
-0.226781
-0.196
-0.168642
-0.144091
-0.121828
-0.10152
-0.0829049
-0.0657046
-0.0497226
-0.034861
-0.0209993
-0.00809652
0.00375948
0.0145563
-1.26855
-1.08193
-0.930989
-0.805893
-0.69993
-0.60848
-0.528231
-0.456759
-0.392408
-0.333791
-0.280066
-0.230608
-0.184758
-0.142105
-0.102527
-0.0658322
-0.0320468
-0.00152122
0.0256775
-2.01896
-1.73898
-1.50514
-1.30748
-1.13801
-0.990646
-0.860686
-0.744562
-0.639777
-0.544212
-0.456586
-0.375963
-0.301348
-0.232138
-0.168181
-0.109186
-0.0551817
-0.0066454
0.0364261
-2.69013
-2.32535
-2.01789
-1.75574
-1.52931
-1.33128
-1.15585
-0.99858
-0.856309
-0.726346
-0.607074
-0.497329
-0.395882
-0.302021
-0.215593
-0.136225
-0.0638981
0.000885708
0.0582506
-3.25102
-2.81323
-2.4458
-2.13188
-1.85949
-1.62005
-1.40688
-1.21493
-1.04061
-0.880827
-0.733776
-0.598206
-0.472855
-0.357145
-0.251211
-0.154931
-0.0685178
0.00740225
0.073057
-3.72067
-3.23546
-2.82232
-2.46509
-2.15177
-1.87394
-1.62482
-1.39929
-1.19356
-1.00427
-0.829411
-0.667536
-0.517236
-0.378084
-0.250927
-0.136764
-0.0377912
0.0431058
0.104638
-3.95145
-3.52509
-3.14572
-2.80867
-2.50645
-2.23281
-1.98217
-1.75033
-1.53429
-1.33154
-1.14082
-0.961355
-0.792286
-0.633444
-0.485415
-0.34712
-0.216751
-0.0880678
0.0510246
-3.85812
-3.44426
-3.05159
-2.69046
-2.36154
-2.06238
-1.78934
-1.53848
-1.30644
-1.08985
-0.886243
-0.692537
-0.505032
-0.317939
-0.123353
0.0950914
0.352746
0.667158
1.04432
-3.71971
-3.33695
-2.94526
-2.5623
-2.19682
-1.85278
-1.53143
-1.23166
-0.951595
-0.68743
-0.43506
-0.187618
0.0634537
0.329788
0.619186
0.939766
1.27599
1.59744
1.84634
-3.48157
-3.18145
-2.85611
-2.52553
-2.20151
-1.89084
-1.59705
-1.32045
-1.05997
-0.811984
-0.57257
-0.334926
-0.0922733
0.161114
0.420489
0.674508
0.887881
1.02417
1.04716
-3.09729
-2.85139
-2.56974
-2.27213
-1.97195
-1.67846
-1.39737
-1.13082
-0.878688
-0.638002
-0.405287
-0.175157
0.0553055
0.284316
0.498229
0.678107
0.796502
0.842262
0.825424
-2.67453
-2.47009
-2.22957
-1.96722
-1.69577
-1.42577
-1.16462
-0.916064
-0.681095
-0.457808
-0.243943
-0.0365787
0.163081
0.348247
0.503508
0.614408
0.669507
0.675943
0.651388
-2.21594
-2.06066
-1.86267
-1.63681
-1.39621
-1.15271
-0.915416
-0.689762
-0.478012
-0.279533
-0.0934884
0.0809588
0.240184
0.376429
0.477968
0.538723
0.558997
0.551822
0.53157
-1.59908
-1.48718
-1.33365
-1.1528
-0.957345
-0.758729
-0.565892
-0.384444
-0.216773
-0.0627294
0.0776885
0.204306
0.312962
0.397611
0.451767
0.475917
0.475377
0.461924
0.444167
-0.998978
-0.921391
-0.806711
-0.667334
-0.515571
-0.362495
-0.216536
-0.0829955
0.0361729
0.141271
0.232224
0.309151
0.368903
0.408324
0.425426
0.424193
0.410609
0.393218
0.376442
-0.331199
-0.27446
-0.191641
-0.093973
0.00761186
0.103919
0.188963
0.25955
0.315795
0.359448
0.391418
0.413116
0.422965
0.420359
0.405916
0.384356
0.36009
0.338372
0.320786
0.339687
0.386025
0.444771
0.503714
0.553721
0.588495
0.605917
0.606298
0.593082
0.570415
0.541042
0.508052
0.471374
0.431979
0.391323
0.353037
0.319191
0.292116
0.271186
1.00983
1.11892
1.22909
1.31783
1.37027
1.37857
1.34306
1.26958
1.16864
1.0516
0.928495
0.807787
0.694128
0.591315
0.501615
0.426017
0.362484
0.3061
0.245987
1.51053
1.48863
1.43337
1.34588
1.23228
1.10129
0.962827
0.82586
0.698072
0.584171
0.486332
0.404405
0.336375
0.279797
0.232204
0.190672
0.151226
0.107267
0.0477745
2.06453
2.1063
2.10241
2.04874
1.94676
1.80347
1.62953
1.43777
1.24137
1.05084
0.874953
0.718444
0.582926
0.467801
0.370932
0.287854
0.212658
0.137488
0.0527769
2.55046
2.58095
2.54882
2.45602
2.30826
2.11635
1.89396
1.6564
1.4183
1.19094
0.98357
0.800636
0.643345
0.510206
0.398046
0.301357
0.214107
0.129987
0.0442261
2.98344
2.99011
2.92318
2.78958
2.59826
2.36313
2.10021
1.8264
1.557
1.3032
1.07402
0.87311
0.700938
0.555112
0.431724
0.324735
0.228308
0.136986
0.0466412
3.393
3.36213
3.25295
3.07463
2.8388
2.56241
2.26349
1.95989
1.66674
1.39439
1.15091
0.938687
0.757158
0.602958
0.471543
0.35642
0.251739
0.152024
0.0524876
3.7566
3.67818
3.52242
3.29747
3.0184
2.70527
2.37746
2.05276
1.74517
1.46338
1.21386
0.997375
0.812147
0.653818
0.517256
0.395502
0.282534
0.172598
0.0603866
3.95576
3.84218
3.6475
3.38611
3.07803
2.74538
2.4073
2.07995
1.77501
1.4988
1.25579
1.04504
0.863683
0.706563
0.568196
0.441308
0.319838
0.197924
0.0701032
4.19372
4.03611
3.79021
3.48332
3.14085
2.78628
2.43773
2.10897
1.80873
1.54044
1.30623
1.1032
0.927159
0.772008
0.631782
0.498737
0.366707
0.229723
0.0822488
4.39156
4.16609
3.86254
3.51253
3.1435
2.77788
2.43092
2.11253
1.82762
1.57622
1.35801
1.16808
1.00104
0.849929
0.708444
0.568424
0.423736
0.268434
0.0970303
4.48332
4.18724
3.83162
3.45033
3.07086
2.71194
2.38383
2.09119
1.83447
1.61016
1.41562
1.24414
1.08942
0.943856
0.801038
0.652528
0.492423
0.314949
0.11477
4.47543
4.11379
3.71529
3.31808
2.9466
2.61265
2.31955
2.06589
1.84755
1.65767
1.49176
1.34161
1.20034
1.05995
0.914136
0.754287
0.574908
0.370495
0.135875
4.43352
3.99906
3.5652
3.16681
2.81901
2.52371
2.27604
2.06857
1.89306
1.73979
1.60304
1.47343
1.34376
1.20575
1.05336
0.87779
0.674027
0.436814
0.161009
4.307
3.80502
3.35961
2.98632
2.68533
2.44689
2.25756
2.10471
1.97688
1.86236
1.75498
1.64461
1.52411
1.38509
1.22195
1.02573
0.791925
0.51546
0.190981
3.87426
3.37334
2.97857
2.68599
2.47793
2.33227
2.22772
2.14821
2.08067
2.01277
1.93904
1.84941
1.73742
1.59514
1.41782
1.19664
0.927777
0.606352
0.226268
3.45308
2.98822
2.67555
2.48611
2.38176
2.33041
2.30618
2.29238
2.27621
2.24577
2.19683
2.1197
2.00858
1.85588
1.65755
1.40459
1.09336
0.718312
0.270963
2.93915
2.56433
2.38983
2.34033
2.35908
2.41006
2.46767
2.51759
2.54904
2.55162
2.52267
2.45334
2.33855
2.17102
1.94713
1.65738
1.29733
0.859445
0.330201
2.08312
1.9607
2.02256
2.16938
2.34397
2.51678
2.66844
2.78965
2.87322
2.91149
2.90348
2.84221
2.72336
2.54031
2.2897
1.96131
1.5486
1.03997
0.412231
1.25462
1.49297
1.8229
2.16585
2.48529
2.76588
2.99847
3.17936
3.30557
3.37263
3.38044
3.32462
3.20095
3.00311
2.72684
2.36002
1.89062
1.29826
0.540698
0.461498
1.1191
1.7269
2.26152
2.7198
3.10279
3.41315
3.65207
3.82108
3.91953
3.94734
3.9039
3.78454
3.583
3.29262
2.89757
2.37503
1.68772
0.7587
-0.13608
0.910514
1.76238
2.46429
3.04668
3.52321
3.90764
4.2045
4.41993
4.55789
4.61764
4.60383
4.51091
4.33255
4.05762
3.66368
3.10851
2.32359
1.17002
-0.42263
0.884211
1.91458
2.75011
3.43996
4.00227
4.45967
4.81857
5.09017
5.28455
5.40041
5.45001
5.42766
5.32806
5.13385
4.81282
4.29102
3.44521
2.03012
-0.371303
1.01818
2.15077
3.08519
3.86647
4.50818
5.03915
5.46748
5.81067
6.08782
6.29921
6.46877
6.59533
6.68009
6.70158
6.61936
6.31593
5.58208
4.00236
-0.0675967
1.2564
2.42924
3.43455
4.29302
5.00771
5.61171
6.11711
6.54963
6.94355
7.30572
7.6794
8.08339
8.5437
9.0516
9.58585
9.99763
9.97888
8.87217
0.301853
1.51372
2.70501
3.76832
4.69246
5.47189
6.1428
6.72887
7.26381
7.81141
8.39198
9.08261
9.97184
11.1843
12.8638
15.3635
19.2228
25.6045
36.9128
)
;

boundaryField
{
    up
    {
        type            calculated;
        value           nonuniform List<scalar> 
84
(
-36.9128
-8.87217
-4.00236
-2.03013
-1.17002
-0.758702
-0.540698
-0.412229
-0.330198
-0.270959
-0.226266
-0.19098
-0.161009
-0.135876
-0.114771
-0.0970315
-0.0822499
-0.070104
-0.0603872
-0.0524882
-0.0466419
-0.044227
-0.0527802
-0.04786
-0.208176
-0.251361
-0.299844
-0.352514
-0.415618
-0.49623
-0.604569
-0.752442
-0.932614
-1.80516
-1.09273
-0.051747
-0.10454
-0.0729214
-0.058257
-0.0363134
-0.0258632
-0.0146302
0.014556
0.0256572
0.0363693
0.058098
0.0727867
0.104266
0.052833
1.07543
1.81483
0.933951
0.753557
0.60538
0.49685
0.416118
0.352944
0.300251
0.251714
0.2092
0.0477745
0.0527769
0.0442261
0.0466412
0.0524876
0.0603866
0.0701032
0.0822488
0.0970303
0.11477
0.135875
0.161009
0.190981
0.226268
0.270963
0.330201
0.412231
0.540698
0.7587
1.17002
2.03012
4.00236
8.87217
36.9128
)
;
    }
    low
    {
        type            calculated;
        value           nonuniform List<scalar> 
84
(
-0.271855
0.113149
0.44472
0.502271
0.186052
-0.470709
-1.33037
-2.21013
-3.08591
-3.57374
-3.98049
-4.3931
-4.47145
-4.48402
-4.47365
-4.35456
-4.1331
-3.88889
-3.67456
-3.28267
-2.85888
-2.42246
-1.93868
-1.40009
-0.922862
-0.308607
0.295348
0.910217
1.48578
2.1035
2.58353
3.02441
3.43436
3.70603
3.86945
3.99392
3.7948
3.32982
2.76017
2.07459
1.30539
0.50156
-0.501325
-1.30516
-2.07436
-2.75998
-3.32967
-3.79475
-3.99386
-3.87002
-3.70574
-3.43455
-3.02453
-2.58367
-2.10365
-1.48591
-0.910365
-0.295473
0.308324
0.923055
1.39988
1.93879
2.42248
2.8589
3.28268
3.67457
3.8889
4.13311
4.35457
4.47365
4.48403
4.47146
4.39308
3.9805
3.57377
3.08594
2.21016
1.33039
0.470723
-0.186045
-0.502272
-0.444727
-0.113154
0.271857
)
;
    }
    left
    {
        type            calculated;
        value           nonuniform List<scalar> 
19
(
-0.268327
-1.45446
-2.67078
-3.77158
-4.73603
-5.55211
-6.25857
-6.883
-7.45887
-8.06547
-8.72274
-9.51669
-10.5619
-12.0238
-14.0823
-17.2326
-22.2234
-30.6788
-32.0145
)
;
    }
    right
    {
        type            calculated;
        value           nonuniform List<scalar> 
19
(
0.26833
1.45447
2.67078
3.77158
4.73603
5.55211
6.25857
6.88301
7.45887
8.06547
8.72274
9.51668
10.5619
12.0238
14.0822
17.2326
22.2234
30.6788
32.0145
)
;
    }
    frontAndBackPlanes
    {
        type            empty;
    }
}


// ************************************************************************* //
