/*--------------------------------*- C++ -*----------------------------------*\
  =========                 |
  \\      /  F ield         | OpenFOAM: The Open Source CFD Toolbox
   \\    /   O peration     | Website:  https://openfoam.org
    \\  /    A nd           | Version:  7
     \\/     M anipulation  |
\*---------------------------------------------------------------------------*/
FoamFile
{
    version     2.0;
    format      ascii;
    class       volScalarField;
    location    "0.19";
    object      gradTz;
}
// * * * * * * * * * * * * * * * * * * * * * * * * * * * * * * * * * * * * * //

dimensions      [0 -1 0 1 0 0 0];

internalField   nonuniform List<scalar> 
1596
(
-9.68145e-16
-4.68935e-16
4.78434e-16
1.21544e-17
-9.063e-16
0
-4.20066e-16
-4.14249e-16
-3.01534e-17
-2.1968e-16
-1.8215e-18
-2.19078e-16
9.67907e-16
-2.17257e-16
1.01406e-15
8.75958e-16
5.21274e-16
6.58954e-16
0
9.65255e-16
0
1.34761e-15
-1.07668e-17
-4.07871e-16
4.03808e-16
8.39683e-16
2.89221e-17
3.96376e-16
-1.91667e-16
3.82942e-16
-5.28241e-18
-5.32061e-16
-3.33188e-16
-8.19611e-16
-8.00591e-16
-7.28967e-16
4.15399e-16
0
-4.7035e-16
0
-8.72781e-16
1.70669e-17
7.88733e-16
-2.2708e-16
2.02307e-17
-5.42586e-18
-5.2539e-18
-5.41061e-18
1.40215e-16
0
2.75922e-16
7.80589e-16
-7.71219e-17
6.25979e-17
1.46954e-16
2.31243e-16
0
7.42716e-16
-2.19019e-16
2.18219e-16
0
-2.08515e-16
-2.17477e-16
3.61025e-16
-3.08383e-16
0
0
-1.1948e-16
7.32992e-17
0
-2.28676e-16
-2.88854e-16
2.01296e-16
-2.10407e-16
-1.08051e-17
0
1.30199e-16
3.38897e-16
-2.99555e-16
0
-8.64832e-17
-2.64565e-16
0
3.90885e-16
-3.85307e-17
-3.49139e-17
-4.03406e-17
2.00911e-16
2.49959e-16
2.6501e-17
1.36149e-17
-2.17614e-16
1.09251e-17
1.01084e-16
-4.39249e-17
-3.38107e-17
-4.64327e-16
4.34914e-16
-3.71786e-16
-9.13041e-19
-3.18906e-16
8.92537e-18
-8.95499e-18
-2.45475e-16
0
-3.36892e-17
-2.38165e-16
-2.25587e-16
1.80297e-16
1.94371e-16
-2.63503e-18
-1.16673e-16
-1.02528e-16
7.87416e-17
2.82562e-16
-4.71488e-16
5.17994e-16
2.85369e-16
0
2.45704e-16
1.41189e-16
-6.75647e-17
3.10567e-16
-5.7694e-17
-2.47442e-16
2.05891e-18
-1.44187e-16
-1.811e-16
-1.39074e-16
1.2021e-16
1.177e-16
-1.5829e-18
-3.2652e-17
3.24136e-17
7.51414e-16
-8.64426e-16
0
0
-2.97162e-16
0
0
0
1.93172e-16
0
0
1.32959e-16
4.47209e-18
4.05306e-17
-1.05484e-16
0
5.61261e-17
2.24196e-17
0
-4.81438e-16
9.21593e-16
0
0
3.06036e-16
0
-1.11021e-16
1.10909e-16
-1.96621e-16
8.03883e-17
-8.09763e-17
0
1.16468e-16
1.19358e-16
0
-6.87363e-17
-5.73277e-17
-1.96609e-17
1.19303e-15
-5.53808e-16
0
-3.68834e-16
3.64706e-16
0
2.53478e-16
0
0
0
7.22053e-17
-7.25514e-17
0
-9.0313e-17
-2.53886e-17
0
9.83509e-18
3.84591e-17
0
-3.029e-16
0
0
3.69855e-16
-6.81966e-16
4.19219e-17
1.60471e-17
-1.0026e-16
1.32188e-17
5.25492e-18
-7.49128e-17
-1.16755e-16
0
8.76649e-17
-1.81243e-17
1.83963e-17
5.06307e-17
-3.04078e-17
-1.36989e-17
2.42401e-16
-3.14687e-17
2.33187e-16
7.74475e-16
-4.99269e-17
-3.1399e-16
0
0
0
1.54466e-16
5.96779e-17
2.12943e-16
-5.1273e-17
-8.60967e-17
-4.92371e-17
-2.78816e-17
1.25199e-17
-2.75367e-17
1.29745e-17
-2.74174e-16
2.68999e-16
-4.91912e-16
-7.65337e-16
6.99814e-16
2.6363e-16
-4.80606e-16
4.02967e-16
-3.3751e-16
8.84498e-17
6.44056e-17
-5.77475e-17
3.45863e-17
-3.2121e-17
9.53045e-17
0
-7.31331e-18
5.46452e-17
-8.17084e-18
-1.80603e-15
8.20428e-16
6.41923e-19
-1.67554e-16
2.63981e-17
2.5584e-16
-4.81851e-16
-1.9012e-16
1.56607e-16
-1.28353e-16
-1.05781e-16
0
-1.15681e-16
-3.4056e-17
-5.92448e-17
-3.51004e-17
2.75184e-18
-3.27929e-17
1.13968e-18
2.95161e-16
-2.58506e-16
4.13334e-19
-1.90378e-16
-4.58059e-16
4.27485e-16
2.23652e-18
1.85272e-16
-1.52478e-16
2.45155e-16
5.72872e-17
4.53052e-17
1.3362e-16
0
1.07283e-16
4.92111e-17
0
1.7378e-17
9.20212e-19
0
2.50781e-16
1.8852e-16
-3.97302e-16
4.43355e-16
-6.523e-16
4.50052e-16
1.5926e-16
-2.85749e-17
-2.43772e-16
4.16827e-17
-4.1477e-17
-1.19427e-16
4.5589e-17
-2.33739e-17
-4.78641e-17
2.00054e-17
-1.2528e-17
5.2917e-18
-2.74833e-16
9.07576e-16
-6.78659e-16
3.54578e-16
0
0
-8.44172e-17
1.83097e-16
-1.20266e-16
2.23066e-16
0
0
7.90697e-17
-6.76773e-17
-4.55704e-17
1.44516e-17
-1.56508e-17
8.3817e-18
0
2.6917e-17
2.57079e-16
-1.99257e-16
-1.70541e-16
-2.62441e-16
-7.50811e-17
1.15765e-16
0
-1.12023e-16
-8.6189e-17
7.57613e-17
-5.90021e-17
4.5754e-17
0
1.76719e-17
3.2583e-17
0
0
0
-2.59308e-17
3.93924e-16
1.4074e-16
-5.1679e-16
1.3673e-16
1.13759e-16
0
0
1.047e-16
-5.50027e-17
-7.32777e-17
5.70658e-17
-4.42476e-17
0
-1.07073e-17
8.53264e-18
0
-7.31412e-18
-2.58314e-18
-2.16124e-16
6.34295e-16
-7.56325e-16
-2.87908e-16
1.52992e-16
-1.0662e-16
8.59522e-17
0
-5.34951e-17
4.30663e-17
0
0
1.65486e-17
-1.65677e-17
4.59826e-18
-6.60024e-18
1.01139e-17
1.52055e-18
1.9396e-18
1.13391e-16
-1.00131e-16
4.95688e-16
-3.18324e-16
-1.22703e-16
1.87979e-17
1.79794e-16
6.37001e-17
5.11868e-17
0
2.59461e-17
-2.3825e-17
1.80185e-17
-1.45847e-17
1.73108e-17
-2.92186e-17
-7.86878e-18
6.79822e-18
1.75193e-18
2.99334e-16
-3.05619e-16
0
2.5759e-16
-1.37857e-16
-9.58032e-17
5.9985e-17
-1.96913e-16
0
-3.60778e-18
-3.11471e-17
-2.07596e-17
2.82149e-17
-2.5629e-18
-1.67305e-17
1.19371e-17
0
4.02635e-18
-1.70111e-18
5.22188e-16
-8.96903e-17
3.67201e-16
-2.86747e-16
1.45835e-16
7.69723e-18
-1.61164e-16
-4.98455e-17
8.76436e-17
-4.43567e-18
-4.4789e-17
3.65392e-17
-1.54662e-17
-1.86971e-17
0
0
0
-4.06181e-18
1.48344e-19
-4.57499e-16
4.43606e-16
3.29724e-19
6.33071e-17
5.24698e-17
-1.19535e-16
1.36667e-16
-1.06702e-16
8.70394e-17
-2.6071e-17
4.89663e-17
1.60789e-17
-6.56823e-18
3.12809e-19
-2.00924e-18
-3.52912e-18
0
0
0
0
0
2.05777e-16
-1.08238e-16
-3.02424e-16
0
0
-3.10493e-17
-4.71106e-17
3.74698e-17
0
-2.02784e-17
1.48413e-17
-4.63038e-17
5.24612e-17
-1.59487e-17
1.69112e-17
1.78816e-18
0
-8.85705e-17
8.96606e-17
0
-6.75777e-17
6.81626e-17
1.07087e-16
0
3.13458e-17
3.678e-17
-1.69426e-16
0
-2.32573e-17
1.7157e-17
1.13823e-17
-8.05265e-18
1.14292e-17
0
-3.96422e-18
0
-4.55764e-17
-4.44326e-17
2.62783e-18
6.94344e-17
-1.80266e-16
0
-4.29109e-17
0
1.09614e-16
4.15737e-17
0
9.22577e-17
-9.29937e-17
1.0328e-17
-1.74563e-17
6.24652e-18
2.21337e-17
7.91425e-18
-6.27546e-18
0
9.32769e-17
-7.88296e-17
9.72714e-17
1.11694e-16
0
8.66523e-17
-8.0523e-17
-5.91829e-17
8.34498e-17
-1.24671e-16
-5.66135e-17
0
0
1.05038e-17
0
0
2.77239e-18
0
-4.18092e-16
3.21952e-16
0
5.8735e-18
-6.44402e-17
-3.42953e-18
5.4615e-17
3.59828e-17
-4.74441e-17
-1.09081e-16
1.63795e-16
-4.49742e-17
0
-1.89457e-17
0
0
0
-1.07742e-17
8.62674e-18
-1.19325e-16
1.09819e-16
2.85244e-16
-2.76389e-16
8.29073e-17
5.41467e-18
-5.54306e-17
4.59746e-17
7.50425e-17
5.45746e-17
-1.07416e-16
0
4.93677e-17
4.46226e-18
-2.16948e-17
-4.42972e-17
3.61305e-17
-5.33024e-18
1.03362e-17
-4.07672e-16
5.67375e-16
-5.60288e-16
9.57095e-17
7.84268e-17
-7.35556e-17
6.0808e-17
-4.60255e-17
0
-3.66323e-17
5.52013e-17
2.37947e-17
3.70985e-17
4.36576e-17
-6.45739e-17
-1.74297e-18
0
-4.34254e-18
1.47014e-18
-4.40753e-16
-1.27932e-16
-2.18196e-16
1.17404e-16
-1.8315e-16
1.54547e-16
-9.08238e-17
7.37271e-17
-6.14748e-18
-6.05384e-18
-5.96553e-17
3.61069e-17
-1.75947e-17
5.47409e-17
-5.87649e-17
6.25882e-18
5.90007e-18
0
-2.59836e-18
4.76551e-16
-1.38281e-16
0
0
-1.88328e-16
3.63243e-16
-8.33521e-17
-1.51983e-17
1.22409e-16
-3.30423e-18
0
0
-2.51144e-17
0
-5.22666e-17
1.24303e-16
-8.53669e-17
0
1.07256e-18
1.6159e-16
2.97621e-16
0
-1.229e-16
-9.6479e-17
-8.2363e-17
-8.70585e-17
3.46835e-17
-9.55104e-17
-5.03441e-17
0
0
3.58906e-17
0
0
-7.26874e-17
1.20332e-16
0
0
1.10927e-15
-1.37904e-16
-6.57622e-16
-3.46479e-16
4.71012e-16
1.45798e-16
8.4414e-17
0
-2.97009e-17
2.77676e-17
6.94348e-17
-2.21117e-17
-3.14943e-17
4.84789e-17
-5.15667e-17
-1.51835e-17
0
0
0
8.88307e-17
-6.88654e-16
6.74089e-16
-6.33681e-17
-4.78711e-16
7.42897e-16
-3.69679e-16
0
0
1.84495e-16
-1.50364e-16
0
-4.34078e-17
7.61533e-17
-8.15624e-18
2.18485e-17
6.56626e-18
8.03809e-20
1.40612e-18
0
0
0
5.53411e-16
-3.71802e-16
3.78444e-16
-5.87268e-16
1.65493e-16
0
-5.73415e-17
8.99417e-17
-9.19257e-17
-1.75286e-17
7.23348e-21
-1.17623e-17
-1.62696e-18
-9.39587e-18
-2.66429e-18
-1.44078e-18
7.40521e-16
-1.31304e-15
6.1864e-16
0
1.5997e-16
-2.18349e-16
2.13053e-16
-1.68881e-16
0
-7.90515e-17
1.10841e-16
0
0
4.02629e-20
0
-1.25488e-17
8.54805e-18
1.48112e-18
2.31126e-18
7.26562e-16
0
-2.80065e-16
3.12642e-16
-1.91424e-16
4.16282e-16
-1.95469e-16
-1.49168e-16
1.50726e-16
-1.51081e-17
0
0
9.42947e-18
-1.56105e-17
-1.09444e-17
2.06778e-17
-4.47469e-18
2.25619e-18
0
4.12261e-16
3.16089e-16
-1.3982e-17
-2.9862e-16
-2.96128e-17
-2.10204e-16
2.48087e-17
1.74518e-16
-8.88306e-18
1.53918e-17
0
0
-9.65987e-18
0
1.12844e-17
-1.20717e-17
0
1.54211e-18
-4.25848e-19
-2.18767e-16
-1.58686e-16
1.48654e-16
-1.67409e-17
-7.43329e-18
1.98375e-17
0
-5.13012e-18
7.56505e-17
-6.37058e-17
0
2.1043e-17
-4.2389e-18
-1.84647e-17
-1.68048e-18
-1.30665e-18
0
-1.20697e-18
0
8.86147e-17
-1.67764e-16
-1.42682e-18
7.10259e-17
6.36624e-17
-6.31664e-17
-4.38419e-17
4.9592e-17
-1.66933e-17
1.30845e-17
-1.2479e-17
1.28639e-17
0
3.23795e-20
-1.24054e-18
4.45007e-18
-1.51966e-20
0
0
8.86178e-17
-8.82857e-17
-7.06522e-17
6.26398e-17
1.12398e-16
-1.13061e-16
-2.19218e-17
2.19748e-17
-1.68352e-17
1.70116e-17
-1.24796e-17
2.34765e-17
-6.58493e-18
-4.69649e-18
-1.43026e-18
4.7672e-19
1.12886e-18
2.97939e-19
-2.23386e-19
0
-2.09146e-17
1.22913e-16
-1.33372e-16
1.12084e-16
-9.9453e-17
0
7.65081e-17
-6.85079e-17
0
2.47714e-17
-3.13217e-17
-1.76205e-17
1.84674e-17
3.36018e-18
0
0
-1.20723e-18
4.3829e-19
3.52495e-16
-6.46116e-16
6.52495e-16
-5.66707e-16
2.21747e-16
-1.8396e-16
1.74777e-16
2.03392e-17
-7.47783e-17
6.67582e-17
0
-4.71084e-17
4.29469e-17
-8.03708e-18
-3.2913e-18
5.10631e-18
3.74341e-18
1.17199e-18
-4.23488e-19
8.18747e-16
0
-3.17058e-16
2.46545e-16
2.92726e-17
-2.20902e-16
3.89243e-16
-3.41295e-16
1.33285e-16
-5.56526e-17
5.69653e-17
1.1165e-17
1.88159e-17
7.8282e-18
-6.37092e-18
-8.77168e-19
-8.0869e-18
0
8.1159e-19
6.49568e-16
-7.31197e-16
0
6.5244e-17
2.76195e-16
-2.69752e-16
4.50483e-17
3.93635e-17
1.70946e-17
2.94797e-17
0
0
-3.26588e-17
6.04839e-17
-2.19851e-17
-7.81065e-18
8.55135e-18
6.80621e-19
-1.53719e-18
6.7396e-17
6.42482e-16
-7.28587e-17
-4.88672e-16
4.29348e-16
5.0345e-17
-4.4088e-17
-3.84464e-17
1.23561e-16
-1.53204e-16
8.99769e-17
-9.19606e-17
1.38386e-17
-1.81101e-17
3.19501e-17
-2.13702e-17
0
0
1.48238e-18
0
1.59917e-16
-4.70807e-16
5.38615e-16
-4.22974e-16
4.21967e-16
0
1.39415e-16
-1.40054e-16
-1.02054e-16
1.5049e-16
0
6.02641e-17
-7.62194e-17
-1.12085e-17
0
-1.22045e-18
-2.33464e-18
-9.84122e-20
-1.53685e-15
7.28175e-16
0
-4.70944e-16
4.70897e-16
2.79638e-16
-1.83507e-16
7.30473e-17
0
-3.16048e-18
2.2222e-17
-2.20849e-17
-3.14586e-17
4.84186e-17
-5.14851e-17
0
1.0571e-17
-2.10699e-18
-1.45076e-18
9.41562e-16
-9.22331e-16
0
1.22231e-16
1.09103e-16
-9.8484e-17
0
-7.65542e-17
-6.35905e-17
0
-3.83558e-18
0
3.5913e-17
0
0
1.47601e-17
5.49321e-17
-7.14548e-17
0
8.84985e-20
1.3835e-16
-1.25481e-16
9.85914e-17
-5.02939e-16
1.90348e-16
0
1.52109e-17
4.28486e-17
0
-4.20841e-17
1.16703e-16
-1.22603e-16
1.95468e-17
0
-2.75039e-18
0
0
0
9.91038e-20
0
1.15975e-16
0
-1.70254e-16
1.7296e-16
0
5.76634e-17
-4.46866e-17
1.59021e-16
-7.60499e-17
2.5918e-17
-4.05136e-17
3.71013e-17
-5.88529e-17
-9.22953e-18
0
-5.43569e-18
0
3.63822e-16
-6.15862e-16
0
-9.5384e-17
8.3537e-17
0
0
-1.04656e-16
0
-3.66646e-17
-5.52539e-17
-2.3821e-17
3.71445e-17
0
1.79481e-17
0
0
1.16916e-17
-1.26841e-17
0
5.25631e-16
-4.19989e-16
8.83038e-17
-7.73557e-17
-3.03639e-17
8.63155e-17
9.35916e-17
-1.09338e-16
3.50595e-17
3.54128e-18
-2.92059e-17
1.18254e-16
-3.65674e-17
-7.98175e-17
2.6887e-17
-6.47415e-18
3.91373e-18
-1.11424e-18
-8.72815e-16
3.21988e-16
0
0
3.23513e-17
-3.28976e-17
2.16328e-17
1.26912e-17
9.74952e-17
4.74689e-17
-4.61475e-17
-2.6058e-18
-2.35675e-17
1.89677e-17
0
8.41934e-18
5.93403e-18
3.00513e-18
1.00712e-18
0
2.74964e-16
-2.52283e-16
8.0019e-17
7.90982e-17
-1.51103e-17
-4.65368e-17
-3.83109e-17
-1.21197e-16
4.64632e-17
-2.5822e-17
3.71835e-17
2.20385e-17
-2.5574e-17
2.71453e-17
1.58129e-17
-2.09916e-17
-2.77568e-18
0
-4.98899e-17
-2.19349e-16
7.67237e-17
6.94542e-17
-2.30957e-16
1.62967e-16
7.59072e-17
-7.75888e-17
5.6173e-17
-4.40959e-17
0
0
-3.1097e-17
5.4833e-17
-2.35825e-17
2.05269e-17
-2.25249e-17
3.54405e-18
-6.28285e-18
9.29953e-17
8.5461e-17
-7.60376e-17
5.62573e-17
-6.7633e-17
-9.68158e-17
0
0
0
0
0
0
1.58163e-17
-3.94796e-17
4.1754e-17
-1.2602e-17
1.55917e-17
7.03818e-18
-5.93766e-18
1.93837e-16
-3.19347e-16
3.98666e-16
-1.7671e-16
2.45629e-16
-1.67107e-16
3.06372e-16
-1.68194e-16
-8.27797e-17
8.46799e-17
0
2.02669e-17
-1.54517e-17
3.52016e-17
-1.2757e-17
-1.50396e-17
-2.95371e-17
2.29728e-18
5.00702e-18
3.02316e-16
8.48436e-17
0
-1.26204e-16
-9.51172e-17
2.14163e-16
1.81916e-17
-7.996e-17
4.63549e-17
-3.07044e-17
0
-1.60436e-17
0
-1.18473e-17
9.34428e-18
-8.0831e-18
-2.63163e-18
1.79187e-18
0
4.21352e-16
-8.9689e-17
3.671e-16
-2.86779e-16
-5.52679e-17
2.07617e-16
-1.24432e-16
7.09705e-18
5.61719e-18
-2.99087e-17
2.84911e-17
0
0
1.47345e-17
-4.92798e-18
3.06385e-18
9.53149e-18
-3.31575e-18
0
8.74464e-20
0
-8.2128e-17
4.67345e-16
-3.13265e-16
-3.15691e-16
1.71978e-16
-1.6662e-16
1.52337e-16
7.11496e-17
-5.10484e-17
1.99898e-17
-1.73869e-17
3.32245e-18
2.60926e-17
6.2658e-19
-9.20171e-18
9.0725e-18
-1.8896e-18
1.01789e-15
-3.22974e-16
1.49393e-16
-4.65638e-16
1.22702e-16
-1.84217e-16
1.00446e-16
0
0
-3.74141e-18
-5.30881e-18
-1.56331e-18
0
-2.36497e-17
-1.73113e-17
1.2335e-17
-8.95912e-19
1.78631e-18
3.81981e-18
0
-3.17522e-16
5.2392e-16
1.07904e-16
-4.13883e-16
1.0662e-16
-1.56438e-16
3.08124e-17
1.22729e-16
0
0
2.18998e-18
2.18532e-17
0
-1.80207e-17
-7.89369e-18
1.17211e-18
-3.90063e-18
-4.63061e-18
0
-1.96383e-16
5.15387e-17
3.53146e-16
2.51094e-16
-4.54909e-16
2.03491e-16
-1.32795e-16
7.20235e-17
-9.33933e-17
0
0
0
-3.4108e-17
8.03733e-18
-1.07599e-17
0
-6.53999e-19
3.24861e-18
-7.6199e-16
7.18721e-16
7.44126e-16
-9.0126e-16
4.0467e-16
-3.77639e-16
0
1.40848e-16
-1.89973e-16
1.06915e-16
-7.96712e-17
6.28418e-17
4.94143e-17
3.52752e-17
2.70401e-17
0
0
0
0
8.50961e-16
-4.81762e-16
0
0
-1.49455e-16
3.511e-16
-2.23956e-16
-1.49959e-16
1.48269e-16
1.0422e-16
1.69536e-16
-6.52044e-17
2.78069e-17
2.01723e-17
1.43773e-17
1.20709e-17
1.92534e-17
-9.37154e-19
9.54576e-19
-8.58618e-16
7.81715e-16
4.04754e-16
-2.12438e-16
4.42969e-16
-2.83299e-16
-2.15192e-16
-1.76494e-16
0
-2.19965e-16
1.28366e-17
7.66226e-17
-5.74192e-17
-4.55892e-17
-1.6695e-17
-1.70037e-17
-1.36558e-17
0
0
-2.95386e-16
0
2.22462e-16
-1.95421e-19
0
0
2.21977e-16
1.82117e-16
0
1.20293e-16
0
-1.16273e-16
-3.24663e-17
5.69272e-17
0
3.64892e-17
-5.10733e-18
5.21016e-18
0
6.32649e-16
0
4.245e-16
-7.80408e-16
6.85019e-16
5.33622e-16
-1.9753e-17
0
1.56564e-17
1.43808e-16
0
-1.34336e-16
1.46698e-16
-1.29965e-16
-2.81823e-17
-2.91142e-17
-8.85258e-18
-1.6329e-18
-6.17026e-18
-5.81007e-16
8.34935e-16
-2.31447e-16
-5.94327e-16
-3.367e-16
-2.84272e-16
-4.78372e-16
-1.84709e-16
1.77014e-17
6.45268e-17
-6.44056e-17
1.99519e-16
-8.80858e-17
1.73871e-16
-3.25196e-17
0
3.88128e-17
-2.33828e-17
6.14549e-18
1.30107e-15
-3.17344e-17
-9.60647e-16
7.7448e-16
-6.85107e-16
5.83992e-16
-2.18206e-17
-2.11614e-16
1.80743e-16
6.96224e-17
-9.92654e-18
-1.65741e-16
4.66746e-17
5.3319e-17
-1.54851e-17
1.56617e-17
-4.02007e-17
-5.6097e-18
-1.05125e-17
6.38711e-16
2.64958e-16
4.58633e-16
-3.95691e-16
-3.17056e-16
1.99993e-17
-2.33277e-16
5.62344e-16
2.21302e-17
2.51577e-16
1.45715e-16
-1.2839e-16
0
-8.76646e-17
0
0
6.11615e-17
2.63673e-17
1.22009e-17
5.95374e-16
0
4.52419e-16
3.93137e-16
-3.42824e-16
2.93639e-16
0
-2.1965e-16
-3.01742e-16
-2.58641e-16
-1.47005e-16
1.29842e-16
0
0
0
0
-5.74087e-17
-4.53155e-17
0
-1.16635e-15
0
-2.62095e-17
-2.32415e-17
5.24122e-16
-2.87629e-16
-1.30613e-16
-1.31476e-16
3.09708e-16
0
8.03877e-17
-8.37038e-18
7.53815e-17
0
0
1.01492e-16
-7.61489e-18
5.44555e-17
-2.18897e-17
8.18104e-16
2.31418e-16
-2.29029e-16
-1.98717e-16
-6.74773e-16
4.57316e-16
5.44749e-16
-1.82177e-17
-2.13526e-16
2.14485e-16
4.45485e-17
-2.29335e-16
-1.84918e-16
-1.17624e-16
-1.25424e-16
-1.17133e-16
1.02025e-16
-4.77954e-18
2.24197e-17
-2.50003e-16
1.12129e-16
-5.37519e-16
8.98972e-17
-8.95702e-17
0
-2.72231e-16
-2.35577e-17
-2.53109e-16
2.66601e-17
2.47441e-16
1.79017e-16
-4.49861e-17
1.41001e-17
1.18968e-16
0
-2.1533e-16
-8.10248e-17
-1.67376e-18
5.13236e-16
-1.36986e-17
8.45944e-16
-3.99118e-16
9.1304e-19
1.03972e-17
3.10846e-16
-2.93229e-17
2.45474e-16
-2.29636e-16
-2.16555e-16
0
2.25586e-16
1.77464e-16
2.54473e-18
-3.71164e-18
1.17806e-16
8.23482e-17
0
-3.63898e-16
0
-8.29934e-17
3.81545e-16
6.15001e-18
8.65986e-17
-3.00583e-16
2.82928e-16
3.0512e-16
2.92988e-16
2.82889e-16
0
-2.19153e-16
0
1.20476e-17
-1.25125e-17
0
-1.22477e-18
6.0744e-17
2.5459e-16
1.52407e-17
-1.94671e-16
6.04118e-16
-1.92883e-16
0
0
-3.491e-16
-2.9563e-16
-2.8384e-16
-5.23024e-16
-7.3299e-17
0
0
0
-2.51887e-17
2.6656e-17
1.72386e-16
-6.16791e-17
1.59047e-17
0
-4.26036e-16
-3.84753e-16
4.06394e-16
-4.04011e-16
-5.76604e-16
7.00718e-16
1.99077e-16
0
3.11246e-16
3.60045e-16
-7.77346e-17
4.24908e-16
-6.97943e-17
7.26389e-17
2.84469e-16
-1.63816e-16
0
-4.85423e-16
0
-4.62458e-16
4.52254e-16
0
8.06501e-16
3.76971e-16
-7.98058e-16
6.43918e-16
-3.7887e-18
-1.9363e-16
-3.48597e-16
0
4.90677e-16
-8.1961e-16
8.80583e-16
-1.12244e-15
0
0
4.839e-16
-3.69269e-18
-9.07124e-18
-9.15098e-16
9.25788e-16
-4.46057e-16
4.44239e-16
4.37902e-16
-3.8217e-16
0
0
7.34812e-16
-7.47471e-16
-7.94889e-16
7.89266e-16
-7.69856e-16
8.33445e-16
-1.3063e-15
0
)
;

boundaryField
{
    up
    {
        type            calculated;
        value           nonuniform List<scalar> 
84
(
0
0
0
0
-4.39249e-17
7.87416e-17
-3.2652e-17
2.24196e-17
-1.96609e-17
0
-1.36989e-17
1.29745e-17
-8.17084e-18
1.13968e-18
9.20212e-19
5.2917e-18
0
0
-2.58314e-18
1.9396e-18
1.75193e-18
-1.70111e-18
1.48344e-19
0
6.73964e-19
3.51662e-19
-5.90661e-18
0
8.62674e-18
1.09592e-17
1.47014e-18
-2.59836e-18
1.07256e-18
0
-5.15878e-19
1.44445e-18
-1.43235e-18
2.30326e-18
0
-4.24153e-19
0
0
-2.23379e-19
4.3829e-19
-4.23488e-19
8.1159e-19
-1.53719e-18
1.48238e-18
-9.84122e-20
-1.45076e-18
0
0
0
-1.26841e-17
-1.73803e-18
1.00712e-18
0
-6.28285e-18
-5.93766e-18
4.33514e-18
0
0
-1.8896e-18
3.81981e-18
-4.63061e-18
3.24861e-18
0
9.54576e-19
0
0
-6.17026e-18
6.14549e-18
-1.05125e-17
1.22009e-17
0
-2.18897e-17
2.24197e-17
-1.67376e-18
0
6.0744e-17
-6.16791e-17
0
0
0
)
;
    }
    low
    {
        type            calculated;
        value           nonuniform List<scalar> 
84
(
-9.68955e-16
9.65255e-16
-4.68865e-16
7.43914e-16
1.31005e-16
-3.40471e-17
2.84536e-16
3.42923e-17
0
1.19522e-15
-3.029e-16
2.41163e-16
-2.74174e-16
-1.80614e-15
2.95161e-16
0
-2.74833e-16
2.6917e-17
-2.59308e-17
-2.16124e-16
1.13391e-16
2.99334e-16
5.20013e-16
-4.57499e-16
0
-8.85705e-17
-4.55764e-17
0
-4.18092e-16
-1.19325e-16
-4.06321e-16
-4.39722e-16
4.75903e-16
1.6159e-16
1.10945e-15
8.88307e-17
0
7.40521e-16
7.28336e-16
4.13218e-16
-2.19274e-16
8.86147e-17
8.86178e-17
0
3.52495e-16
8.2052e-16
6.49568e-16
6.86539e-17
0
-1.53702e-15
9.41562e-16
8.84985e-20
9.91038e-20
3.63822e-16
0
-8.7055e-16
0
-4.98899e-17
9.29953e-17
1.92476e-16
2.99954e-16
4.19177e-16
8.74464e-20
1.01615e-15
0
0
-7.6199e-16
8.50199e-16
-8.58155e-16
-2.95386e-16
6.32762e-16
-5.81007e-16
1.30355e-15
6.40421e-16
5.95374e-16
-1.16635e-15
8.16226e-16
-2.48029e-16
5.13236e-16
-3.63092e-16
2.5459e-16
1.73906e-17
-4.85423e-16
4.84305e-16
)
;
    }
    left
    {
        type            calculated;
        value           nonuniform List<scalar> 
19
(
-9.68145e-16
-4.69352e-16
4.78434e-16
1.21775e-17
-9.06611e-16
0
-4.20066e-16
-4.14249e-16
-3.16095e-17
-2.1968e-16
-1.8215e-18
-2.19078e-16
9.77565e-16
-2.17257e-16
1.01406e-15
8.75958e-16
5.21274e-16
7.65214e-16
0
)
;
    }
    right
    {
        type            calculated;
        value           nonuniform List<scalar> 
19
(
4.839e-16
-3.27557e-18
-9.07124e-18
-9.15121e-16
9.26099e-16
-4.46057e-16
4.44239e-16
4.37902e-16
-3.80714e-16
0
0
7.41711e-16
-7.57129e-16
-7.94889e-16
7.89266e-16
-7.69856e-16
8.33445e-16
-1.41256e-15
0
)
;
    }
    frontAndBackPlanes
    {
        type            empty;
    }
}


// ************************************************************************* //
