/*--------------------------------*- C++ -*----------------------------------*\
  =========                 |
  \\      /  F ield         | OpenFOAM: The Open Source CFD Toolbox
   \\    /   O peration     | Website:  https://openfoam.org
    \\  /    A nd           | Version:  7
     \\/     M anipulation  |
\*---------------------------------------------------------------------------*/
FoamFile
{
    version     2.0;
    format      ascii;
    class       volScalarField;
    location    "0.19";
    object      T;
}
// * * * * * * * * * * * * * * * * * * * * * * * * * * * * * * * * * * * * * //

dimensions      [0 0 0 1 0 0 0];

internalField   nonuniform List<scalar> 
1596
(
5.98101
5.92671
5.87166
5.82046
5.77457
5.73372
5.69716
5.66291
5.62945
5.59325
5.55152
5.50042
5.43194
5.33529
5.19414
4.9728
4.60521
3.95957
2.77157
5.91806
5.74938
5.59181
5.44963
5.32356
5.21202
5.11261
5.02106
4.93351
4.84321
4.74432
4.62967
4.48687
4.30118
4.05487
3.71566
3.23457
2.52809
1.43833
5.84401
5.56107
5.30913
5.08662
4.89134
4.71985
4.5682
4.43069
4.30198
4.17394
4.03945
3.89013
3.71309
3.49399
3.21752
2.85882
2.3849
1.74608
0.850476
5.77155
5.38247
5.04591
4.75306
4.49818
4.27595
4.08106
3.90693
3.74741
3.59386
3.43874
3.27347
3.0858
2.86282
2.59179
2.25385
1.82675
1.28093
0.562895
5.71224
5.23236
4.82226
4.46812
4.16147
3.89554
3.66404
3.4599
3.27652
3.1052
2.93839
2.7676
2.58147
2.3684
2.11756
1.81406
1.44211
0.983291
0.405537
5.67329
5.12306
4.65147
4.2442
3.8919
3.58719
3.3233
3.093
2.88954
2.70436
2.53002
2.35826
2.17846
1.98004
1.7534
1.48612
1.16607
0.780805
0.309942
5.65528
5.05731
4.53703
4.0844
3.69146
3.35138
3.05755
2.80291
2.58083
2.38298
2.20213
2.03025
1.85732
1.67349
1.46992
1.2357
0.960748
0.635714
0.246524
5.65343
5.02905
4.47316
3.98301
3.55415
3.18149
2.85931
2.58113
2.34063
2.12988
1.9419
1.76885
1.60125
1.42978
1.24605
1.04011
0.803008
0.526977
0.201343
5.6632
5.03028
4.45097
3.931
3.47086
3.06825
2.71902
2.41767
2.15848
1.93402
1.73759
1.56162
1.39702
1.23489
1.06716
0.884494
0.678618
0.442518
0.167367
5.67551
5.04541
4.45319
3.9113
3.42527
2.99617
2.62195
2.29847
2.02088
1.78235
1.57656
1.3962
1.23254
1.07704
0.921856
0.758101
0.577915
0.374673
0.140603
5.68506
5.06211
4.46439
3.90774
3.40161
2.95029
2.5541
2.21049
1.91566
1.66351
1.44817
1.26262
1.0985
0.947542
0.80212
0.653704
0.494743
0.318822
0.118807
5.69647
5.0831
4.48388
3.91704
3.39501
2.92492
2.50934
2.14742
1.83651
1.57132
1.34647
1.15525
0.98958
0.841483
0.703494
0.567378
0.425826
0.272555
0.100843
5.7069
5.1039
4.50545
3.93156
3.39699
2.9112
2.47885
2.10072
1.77534
1.49821
1.26445
1.06766
0.900031
0.753783
0.621595
0.495473
0.368307
0.233913
0.0858797
5.71274
5.11772
4.52078
3.94212
3.39795
2.89955
2.45338
2.06166
1.72401
1.43673
1.19539
0.993862
0.824553
0.679854
0.552553
0.434855
0.319822
0.20136
0.0733087
5.71728
5.1274
4.53103
3.94822
3.39603
2.88714
2.42941
2.02634
1.67851
1.38287
1.13542
0.93021
0.759816
0.616737
0.49383
0.383454
0.278811
0.173892
0.0627412
5.72149
5.13489
4.53763
3.95024
3.39054
2.87231
2.4046
1.99195
1.63573
1.33345
1.08137
0.873669
0.702994
0.561884
0.443213
0.339447
0.243896
0.150621
0.053843
5.72383
5.13848
4.53894
3.94625
3.37913
2.85232
2.37591
1.95529
1.59245
1.28528
1.03019
0.821375
0.651454
0.512934
0.398653
0.301141
0.213788
0.130716
0.0463006
5.72501
5.13903
4.5358
3.93692
3.36204
2.82694
2.34264
1.91527
1.54727
1.23677
0.980184
0.77159
0.603485
0.468261
0.35867
0.267263
0.187485
0.113511
0.0398552
5.72882
5.14262
4.53472
3.92842
3.34471
2.80064
2.30823
1.87434
1.50178
1.18877
0.931599
0.724107
0.558552
0.427126
0.322431
0.236995
0.164285
0.0985146
0.0343086
5.73403
5.14897
4.5363
3.92172
3.3282
2.77436
2.27337
1.83289
1.45603
1.14104
0.883957
0.678251
0.515841
0.38863
0.289014
0.209465
0.143456
0.0852211
0.0294659
5.73786
5.15424
4.53712
3.91419
3.31054
2.74662
2.23695
1.79003
1.40927
1.09289
0.836559
0.633288
0.474569
0.351946
0.257571
0.183853
0.124284
0.0731321
0.02514
5.74201
5.16012
4.53891
3.90774
3.29381
2.71955
2.201
1.74756
1.363
1.04543
0.790128
0.589573
0.434761
0.31682
0.227625
0.159526
0.106092
0.061702
0.0211244
5.74729
5.16813
4.5434
3.90426
3.28008
2.69534
2.16768
1.70748
1.31891
0.999993
0.745588
0.547609
0.396532
0.283029
0.19866
0.135713
0.0879118
0.0499701
0.016955
5.75324
5.17782
4.55028
3.90373
3.26968
2.67467
2.13794
1.67091
1.2781
0.957486
0.703539
0.507638
0.359763
0.250125
0.169932
0.111347
0.0682721
0.0360077
0.0108292
5.76331
5.20202
4.58364
3.94165
3.30822
2.71073
2.16939
1.69651
1.29736
0.970525
0.710913
0.510225
0.358613
0.246319
0.164476
0.105091
0.0620064
0.0307025
0.00806975
5.77471
5.23463
4.63531
4.00878
3.38613
2.7942
2.25331
1.7764
1.36973
1.03308
0.762519
0.550892
0.389243
0.26842
0.179814
0.115354
0.068553
0.0344593
0.00944095
5.78068
5.25527
4.67168
4.06005
3.44973
2.86627
2.32938
1.85198
1.44084
1.09662
0.816455
0.594352
0.422444
0.292461
0.196342
0.12613
0.0751234
0.0379774
0.0105919
5.78132
5.26338
4.69157
4.09372
3.4969
2.92469
2.39543
1.92138
1.50926
1.16023
0.872302
0.64059
0.458435
0.318712
0.214259
0.137529
0.0817765
0.0413082
0.0115656
5.77862
5.26291
4.69994
4.11511
3.53278
2.97409
2.45546
1.98797
1.57787
1.2265
0.932461
0.691884
0.499311
0.348954
0.234915
0.150458
0.0890715
0.0447801
0.0124993
5.77304
5.25645
4.70096
4.12914
3.56239
3.0191
2.5135
2.05517
1.6496
1.29801
0.999413
0.750715
0.547535
0.385449
0.260114
0.166109
0.0976488
0.0486859
0.0134909
5.76614
5.24823
4.70038
4.14217
3.592
3.06549
2.57459
2.12727
1.72812
1.37807
1.07631
0.820325
0.606509
0.43159
0.292833
0.1866
0.108622
0.0534174
0.0146275
5.76161
5.24429
4.70509
4.16118
3.62823
3.11922
2.64393
2.20872
1.81728
1.47016
1.16665
0.904519
0.680606
0.492296
0.338069
0.216133
0.124557
0.0598246
0.0159292
5.7579
5.24267
4.71339
4.18487
3.67013
3.17965
2.72111
2.29941
1.91734
1.57509
1.27197
1.00597
0.77404
0.573651
0.403636
0.263195
0.152611
0.0716879
0.0174678
5.75478
5.24329
4.72551
4.21375
3.7184
3.24758
2.80705
2.40034
2.0295
1.69439
1.3944
1.12778
0.891586
0.683124
0.500776
0.34324
0.210978
0.105816
0.028134
5.75091
5.24147
4.73286
4.23525
3.75672
3.30329
2.87909
2.48648
2.12681
1.79966
1.50448
1.23979
1.00292
0.791242
0.602701
0.43481
0.286151
0.157015
0.0476919
5.74225
5.22562
4.71718
4.2249
3.75481
3.31127
2.89705
2.51352
2.1614
1.83985
1.54823
1.28511
1.04802
0.834605
0.643132
0.471154
0.316929
0.179633
0.0576169
5.73017
5.20074
4.68718
4.19494
3.72814
3.28968
2.8812
2.5032
2.15582
1.83781
1.54835
1.28602
1.04844
0.833539
0.640075
0.466167
0.310845
0.174143
0.0550087
5.72062
5.18127
4.66395
4.17203
3.7081
3.27388
2.8701
2.49659
2.15303
1.8379
1.55026
1.28873
1.05106
0.835423
0.640894
0.465908
0.309816
0.172964
0.0544616
5.71446
5.16829
4.64831
4.15666
3.69485
3.26375
2.86342
2.49319
2.15241
1.83933
1.55297
1.29199
1.05422
0.838
0.64263
0.466743
0.309901
0.172682
0.054319
5.70999
5.15886
4.63696
4.14551
3.68527
3.25645
2.85864
2.49078
2.15201
1.84041
1.55497
1.29438
1.05654
0.839893
0.643906
0.467353
0.309952
0.172464
0.0542208
5.7067
5.15188
4.62855
4.13723
3.67806
3.25082
2.85474
2.48851
2.15112
1.84055
1.55575
1.29547
1.05762
0.840717
0.644353
0.467397
0.309679
0.1721
0.054071
5.70355
5.14605
4.62194
4.13086
3.6725
3.24633
2.85136
2.48619
2.1497
1.83983
1.55553
1.29555
1.05782
0.840906
0.644451
0.467368
0.309542
0.171941
0.0540173
5.70356
5.14608
4.62197
4.1309
3.67255
3.24637
2.85141
2.48624
2.14974
1.83987
1.55557
1.29558
1.05785
0.840937
0.644477
0.467389
0.309557
0.17195
0.0540203
5.70673
5.15195
4.62865
4.13734
3.67819
3.25096
2.85488
2.48866
2.15126
1.84068
1.55589
1.29559
1.05773
0.840813
0.644434
0.467461
0.309726
0.172128
0.0540809
5.71003
5.15897
4.63711
4.1457
3.68548
3.25668
2.85887
2.49102
2.15224
1.84063
1.55518
1.29458
1.05672
0.840044
0.644032
0.467453
0.310024
0.172507
0.0542358
5.71452
5.16844
4.64852
4.15691
3.69514
3.26406
2.86374
2.49351
2.15272
1.83963
1.55325
1.29225
1.05445
0.838199
0.642795
0.466874
0.309995
0.172738
0.0543384
5.72069
5.18144
4.6642
4.17234
3.70845
3.27426
2.87049
2.49698
2.15341
1.83826
1.5506
1.28904
1.05134
0.835666
0.641095
0.466066
0.309929
0.173032
0.0544845
5.73025
5.20094
4.68747
4.1953
3.72855
3.29012
2.88165
2.50365
2.15626
1.83823
1.54875
1.28638
1.04875
0.833811
0.640297
0.466338
0.310964
0.174212
0.0550308
5.74234
5.22585
4.71751
4.22531
3.75527
3.31177
2.89756
2.51403
2.16189
1.84032
1.54867
1.28551
1.04836
0.834884
0.643347
0.471305
0.31702
0.179676
0.0576271
5.75102
5.2418
4.73338
4.23594
3.75753
3.3042
2.88008
2.48751
2.12785
1.8007
1.5055
1.24078
1.00387
0.792141
0.603541
0.435575
0.286807
0.157494
0.0478938
5.75491
5.24368
4.72613
4.21456
3.71938
3.24869
2.80826
2.40161
2.03079
1.69569
1.39567
1.12901
0.892748
0.684208
0.501757
0.344084
0.211637
0.106239
0.0282845
5.75801
5.243
4.71393
4.18559
3.671
3.18063
2.72217
2.30051
1.91844
1.57618
1.27302
1.00696
0.774938
0.574445
0.404301
0.263705
0.152947
0.071854
0.0175011
5.76171
5.2446
4.7056
4.16186
3.62905
3.12016
2.64493
2.20975
1.81831
1.47115
1.16758
0.905371
0.681358
0.492929
0.338568
0.216487
0.124773
0.0599274
0.0159549
5.76623
5.24851
4.70085
4.14281
3.59278
3.06637
2.57553
2.12823
1.72907
1.37896
1.07714
0.821062
0.60714
0.432101
0.293219
0.186865
0.108781
0.0534956
0.0146487
5.77312
5.2567
4.70139
4.12974
3.56312
3.01992
2.51437
2.05605
1.65046
1.29882
1.00014
0.751351
0.548066
0.385868
0.260423
0.166317
0.0977753
0.04875
0.013509
5.77869
5.26314
4.70033
4.11565
3.53345
2.97484
2.45626
1.98877
1.57865
1.22722
0.933102
0.692432
0.499759
0.349302
0.235168
0.150629
0.0891767
0.0448347
0.0125152
5.78138
5.26358
4.69192
4.09421
3.49751
2.92537
2.39615
1.9221
1.50995
1.16087
0.87286
0.641062
0.458815
0.319004
0.214471
0.137674
0.0818669
0.0413564
0.0115803
5.78073
5.25544
4.67199
4.06048
3.45026
2.86687
2.33002
1.85262
1.44145
1.09718
0.816938
0.594756
0.422768
0.29271
0.196523
0.126255
0.0752039
0.038022
0.0106064
5.77475
5.23478
4.63557
4.00915
3.3866
2.79473
2.25387
1.77695
1.37026
1.03356
0.762935
0.55124
0.389522
0.268635
0.179973
0.115466
0.0686275
0.0345027
0.00945637
5.76331
5.20205
4.58371
3.94175
3.30835
2.71088
2.16955
1.69668
1.29753
0.970675
0.711045
0.510335
0.358699
0.246382
0.164519
0.105115
0.0620169
0.0307036
0.00806733
5.75322
5.17778
4.55022
3.90364
3.26958
2.67457
2.13784
1.67081
1.27801
0.957407
0.703473
0.507583
0.359717
0.250087
0.1699
0.111319
0.0682495
0.0359905
0.0108206
5.74728
5.16813
4.54339
3.90425
3.28007
2.69533
2.16767
1.70749
1.31891
1
0.745601
0.547624
0.396547
0.283042
0.198672
0.135722
0.0879185
0.0499737
0.0169557
5.74201
5.16012
4.53891
3.90773
3.2938
2.71955
2.201
1.74756
1.363
1.04544
0.790139
0.589585
0.434772
0.31683
0.227634
0.159533
0.106097
0.0617045
0.021125
5.73786
5.15423
4.53711
3.91419
3.31054
2.74661
2.23695
1.79003
1.40928
1.0929
0.836568
0.633297
0.474578
0.351954
0.257577
0.183858
0.124288
0.073134
0.0251406
5.73403
5.14896
4.53629
3.92172
3.3282
2.77436
2.27338
1.83289
1.45603
1.14105
0.883965
0.678258
0.515848
0.388637
0.289019
0.209469
0.143459
0.0852227
0.0294663
5.72882
5.14262
4.53472
3.92842
3.34471
2.80064
2.30824
1.87435
1.50179
1.18877
0.931605
0.724113
0.558558
0.427131
0.322435
0.236998
0.164287
0.098516
0.0343089
5.72501
5.13903
4.5358
3.93692
3.36204
2.82695
2.34264
1.91527
1.54728
1.23678
0.980189
0.771595
0.603489
0.468265
0.358673
0.267266
0.187487
0.113513
0.0398555
5.72383
5.13848
4.53894
3.94626
3.37913
2.85233
2.37591
1.95529
1.59246
1.28528
1.03019
0.821379
0.651458
0.512938
0.398656
0.301144
0.213789
0.130717
0.0463008
5.72149
5.13489
4.53764
3.95024
3.39054
2.87231
2.4046
1.99195
1.63574
1.33346
1.08137
0.873672
0.702997
0.561887
0.443215
0.339448
0.243896
0.150621
0.053843
5.71728
5.12741
4.53103
3.94822
3.39604
2.88714
2.42941
2.02634
1.67851
1.38288
1.13542
0.930212
0.759818
0.616739
0.493831
0.383455
0.278811
0.173892
0.0627411
5.71274
5.11772
4.52078
3.94212
3.39795
2.89956
2.45338
2.06166
1.72402
1.43673
1.19539
0.993863
0.824553
0.679854
0.552553
0.434855
0.319821
0.201359
0.0733085
5.7069
5.1039
4.50546
3.93157
3.39699
2.9112
2.47885
2.10072
1.77534
1.49821
1.26445
1.06766
0.900031
0.753782
0.621594
0.495471
0.368305
0.233912
0.0858795
5.69647
5.0831
4.48389
3.91704
3.39502
2.92492
2.50934
2.14742
1.83651
1.57132
1.34647
1.15524
0.989578
0.841481
0.703491
0.567374
0.425823
0.272553
0.100843
5.68506
5.06211
4.4644
3.90774
3.40161
2.95029
2.5541
2.21049
1.91566
1.6635
1.44816
1.26262
1.0985
0.947538
0.802115
0.653699
0.49474
0.31882
0.118807
5.67551
5.04541
4.45319
3.9113
3.42527
2.99616
2.62194
2.29847
2.02088
1.78234
1.57655
1.39619
1.23254
1.07703
0.921851
0.758096
0.577912
0.374672
0.140604
5.6632
5.03028
4.45097
3.931
3.47086
3.06825
2.71901
2.41766
2.15848
1.93401
1.73759
1.56161
1.39701
1.23488
1.06715
0.884489
0.678615
0.442518
0.167368
5.65343
5.02905
4.47316
3.98301
3.55414
3.18149
2.85931
2.58112
2.34062
2.12987
1.94189
1.76885
1.60124
1.42977
1.24604
1.0401
0.803007
0.526977
0.201344
5.65528
5.0573
4.53703
4.08439
3.69145
3.35137
3.05754
2.8029
2.58082
2.38297
2.20213
2.03024
1.85731
1.67349
1.46992
1.2357
0.960748
0.635715
0.246525
5.67329
5.12305
4.65146
4.2442
3.8919
3.58718
3.3233
3.09299
2.88954
2.70435
2.53001
2.35825
2.17845
1.98004
1.7534
1.48612
1.16607
0.780807
0.309943
5.71223
5.23235
4.82225
4.46811
4.16146
3.89553
3.66403
3.45989
3.27651
3.1052
2.93838
2.7676
2.58146
2.3684
2.11756
1.81406
1.44211
0.983293
0.405537
5.77155
5.38247
5.04591
4.75306
4.49817
4.27594
4.08105
3.90693
3.7474
3.59385
3.43873
3.27346
3.08579
2.86281
2.59179
2.25385
1.82676
1.28093
0.562895
5.84401
5.56107
5.30913
5.08662
4.89133
4.71985
4.56819
4.43068
4.30197
4.17394
4.03944
3.89012
3.71308
3.49399
3.21752
2.85882
2.3849
1.74608
0.850475
5.91806
5.74938
5.59181
5.44963
5.32355
5.21201
5.11261
5.02106
4.93351
4.84321
4.74432
4.62967
4.48687
4.30118
4.05488
3.71567
3.23457
2.52809
1.43832
5.98101
5.92671
5.87166
5.82046
5.77456
5.73372
5.69716
5.6629
5.62945
5.59325
5.55152
5.50042
5.43195
5.33529
5.19414
4.9728
4.60521
3.95957
2.77157
)
;

boundaryField
{
    up
    {
        type            fixedValue;
        value           uniform 0;
    }
    low
    {
        type            fixedValue;
        value           uniform 6;
    }
    left
    {
        type            fixedValue;
        value           uniform 6;
    }
    right
    {
        type            fixedValue;
        value           uniform 6;
    }
    frontAndBackPlanes
    {
        type            empty;
    }
}


// ************************************************************************* //
