/*--------------------------------*- C++ -*----------------------------------*\
  =========                 |
  \\      /  F ield         | OpenFOAM: The Open Source CFD Toolbox
   \\    /   O peration     | Website:  https://openfoam.org
    \\  /    A nd           | Version:  7
     \\/     M anipulation  |
\*---------------------------------------------------------------------------*/
FoamFile
{
    version     2.0;
    format      ascii;
    class       volScalarField;
    location    "0.428";
    object      T;
}
// * * * * * * * * * * * * * * * * * * * * * * * * * * * * * * * * * * * * * //

dimensions      [0 0 0 1 0 0 0];

internalField   nonuniform List<scalar> 
1596
(
0.997948
0.992031
0.985882
0.979888
0.974104
0.968418
0.962692
0.956654
0.950112
0.942626
0.933857
0.923349
0.90999
0.892163
0.867279
0.829464
0.767692
0.659899
0.461902
0.991112
0.972657
0.95495
0.938171
0.922164
0.906577
0.891024
0.874943
0.857875
0.839029
0.817761
0.793298
0.76408
0.728102
0.682775
0.622981
0.540639
0.421732
0.239702
0.983014
0.951947
0.923521
0.897159
0.872306
0.848353
0.824716
0.800672
0.77562
0.748659
0.719073
0.686051
0.648124
0.603542
0.550312
0.484729
0.401529
0.292429
0.141895
0.975013
0.932136
0.894054
0.859311
0.826914
0.796016
0.765877
0.735687
0.704782
0.672254
0.63741
0.599507
0.557294
0.509385
0.454363
0.389675
0.312006
0.216573
0.0943388
0.968374
0.915299
0.86881
0.826831
0.788027
0.751373
0.716016
0.6811
0.645934
0.609638
0.571572
0.531074
0.487094
0.438553
0.384455
0.32304
0.25221
0.169207
0.0687006
0.963929
0.90286
0.849338
0.801175
0.756899
0.715398
0.675757
0.637102
0.598736
0.559814
0.519741
0.477921
0.433457
0.385486
0.333292
0.275622
0.211116
0.13817
0.0535525
0.961798
0.895222
0.836127
0.782758
0.733769
0.68808
0.64478
0.603006
0.56207
0.521161
0.479719
0.43719
0.392785
0.345781
0.295635
0.241414
0.182201
0.117049
0.043931
0.961506
0.891818
0.828637
0.771011
0.717961
0.668578
0.622027
0.577497
0.534327
0.491742
0.449209
0.406202
0.362001
0.31597
0.26767
0.216364
0.1614
0.102211
0.0374711
0.96258
0.891842
0.825973
0.764996
0.708471
0.655783
0.606255
0.559168
0.513916
0.469769
0.426218
0.382756
0.338706
0.293486
0.246709
0.197761
0.146147
0.0915151
0.0329571
0.964022
0.893602
0.82627
0.762843
0.703457
0.647866
0.595619
0.546138
0.498905
0.453246
0.408684
0.364732
0.320738
0.276152
0.23061
0.183567
0.134618
0.0835352
0.0296655
0.965231
0.895725
0.827811
0.762738
0.701108
0.64305
0.588377
0.53669
0.487585
0.44047
0.39491
0.350438
0.306427
0.26234
0.21782
0.172357
0.125594
0.0773634
0.0271678
0.966713
0.89852
0.830557
0.764386
0.700977
0.640795
0.583923
0.530164
0.479254
0.430697
0.384114
0.339067
0.294947
0.251224
0.207535
0.163382
0.118421
0.0725097
0.0252352
0.968142
0.901479
0.833827
0.766969
0.702159
0.640156
0.581301
0.525607
0.472964
0.422991
0.375375
0.329716
0.285425
0.241975
0.198985
0.155952
0.112527
0.0685622
0.0236893
0.969105
0.903819
0.836658
0.769422
0.703545
0.640017
0.579415
0.521955
0.467693
0.416371
0.367758
0.3215
0.277031
0.233825
0.19148
0.149475
0.107439
0.0651969
0.0223962
0.969951
0.905828
0.839158
0.77169
0.70495
0.640103
0.577928
0.518833
0.46304
0.410422
0.36084
0.313994
0.269347
0.226374
0.18465
0.143624
0.102888
0.062227
0.0212774
0.970773
0.90769
0.841455
0.773797
0.706299
0.640257
0.576621
0.515977
0.458709
0.404824
0.354285
0.306855
0.262032
0.219294
0.178189
0.138129
0.098658
0.059503
0.0202724
0.971394
0.909188
0.84332
0.775477
0.707282
0.640131
0.57512
0.512999
0.454304
0.399182
0.347701
0.299697
0.254711
0.212231
0.171778
0.132718
0.0945345
0.0568834
0.0193264
0.971877
0.910375
0.844788
0.776736
0.70786
0.639641
0.573301
0.509737
0.449637
0.393283
0.340857
0.292274
0.247129
0.204928
0.16517
0.127173
0.0903482
0.0542578
0.0183977
0.972603
0.911849
0.846495
0.778179
0.708579
0.639255
0.571547
0.506494
0.444928
0.387271
0.333821
0.284586
0.239226
0.197278
0.158229
0.121353
0.0859761
0.0515456
0.0174578
0.973428
0.913541
0.848433
0.779824
0.709455
0.638973
0.569836
0.503221
0.440099
0.381036
0.326452
0.276456
0.230789
0.189033
0.150687
0.114995
0.0811982
0.0486043
0.0164606
0.974059
0.914999
0.850147
0.781241
0.710085
0.638418
0.567811
0.499574
0.434819
0.374253
0.318424
0.267552
0.221469
0.179825
0.142156
0.107708
0.0756711
0.0452028
0.0153321
0.97466
0.916358
0.851731
0.7825
0.710521
0.637619
0.565477
0.495533
0.429035
0.366834
0.309608
0.257698
0.211038
0.169359
0.132264
0.0990542
0.0689347
0.0409773
0.0139451
0.975309
0.917734
0.853275
0.783659
0.710792
0.636578
0.562807
0.491041
0.422658
0.35865
0.299832
0.246673
0.199216
0.157286
0.120564
0.0884504
0.0602735
0.0352114
0.0119557
0.975959
0.919048
0.854656
0.784548
0.710685
0.635056
0.559546
0.485828
0.415401
0.349393
0.288762
0.234111
0.185605
0.143157
0.106522
0.0751894
0.0486756
0.0265081
0.00802527
0.976948
0.921547
0.858288
0.788917
0.715382
0.639664
0.563658
0.489067
0.41745
0.35002
0.287868
0.231751
0.181979
0.138577
0.101375
0.0698903
0.0436978
0.0224975
0.00604157
0.978012
0.924641
0.863355
0.795832
0.723926
0.64952
0.574425
0.500279
0.428605
0.360641
0.297544
0.240212
0.189124
0.144466
0.106166
0.0737559
0.0467222
0.0246195
0.00698011
0.978486
0.926253
0.866259
0.800112
0.729574
0.656419
0.582349
0.508896
0.437501
0.369358
0.305639
0.247336
0.195084
0.14925
0.109907
0.0766393
0.0488869
0.0260902
0.00761627
0.978369
0.926316
0.866876
0.80159
0.732124
0.66013
0.587173
0.514648
0.443867
0.375927
0.311954
0.252975
0.199751
0.15284
0.112515
0.0784718
0.0501504
0.0269037
0.00796522
0.977839
0.925207
0.86574
0.800922
0.732316
0.661439
0.589698
0.518324
0.44847
0.381093
0.317216
0.25784
0.2038
0.15584
0.114483
0.0796262
0.0507837
0.0272467
0.00811372
0.976914
0.923162
0.863304
0.79874
0.730911
0.661185
0.590799
0.520806
0.452181
0.385712
0.322279
0.262791
0.208081
0.159033
0.116456
0.0805604
0.0510663
0.027272
0.00812031
0.975728
0.920604
0.860209
0.795841
0.728812
0.660334
0.591466
0.52308
0.455971
0.390749
0.328123
0.26885
0.213668
0.163501
0.119403
0.0819918
0.0514079
0.027152
0.00803416
0.97466
0.918187
0.857266
0.793138
0.726996
0.659889
0.592704
0.526135
0.460812
0.397175
0.335758
0.277131
0.22184
0.170693
0.124825
0.08522
0.0526376
0.0271885
0.00787647
0.973554
0.915741
0.854377
0.790626
0.725541
0.660007
0.594733
0.530254
0.46705
0.405419
0.345747
0.28842
0.233748
0.182263
0.134906
0.0927058
0.0569094
0.0285684
0.0076907
0.972391
0.913312
0.851676
0.788524
0.724744
0.661039
0.597953
0.53587
0.475153
0.415993
0.358676
0.303471
0.250497
0.199991
0.152494
0.10862
0.0694111
0.0363037
0.0102369
0.971034
0.910375
0.848135
0.785228
0.722364
0.660076
0.598753
0.538662
0.48007
0.4231
0.367992
0.314972
0.264093
0.215461
0.169321
0.125776
0.0851122
0.0480205
0.0151044
0.969001
0.905523
0.841466
0.777549
0.714292
0.652065
0.591127
0.531637
0.473788
0.417643
0.363412
0.3113
0.261362
0.213717
0.168628
0.126162
0.0864664
0.0498547
0.0162987
0.966448
0.899394
0.83286
0.767277
0.70295
0.640089
0.578827
0.519232
0.461429
0.405436
0.35144
0.299648
0.250127
0.203042
0.158736
0.117384
0.0792844
0.0449125
0.0143533
0.964167
0.893966
0.825283
0.758276
0.693056
0.62969
0.568208
0.508599
0.450941
0.395215
0.3416
0.290307
0.241415
0.19511
0.151769
0.111587
0.0748769
0.0421107
0.0133552
0.962384
0.889633
0.819181
0.750995
0.685038
0.621266
0.559622
0.500035
0.442544
0.387104
0.333884
0.283092
0.234809
0.189225
0.14672
0.107488
0.0718355
0.0402247
0.012708
0.960974
0.886223
0.814396
0.745304
0.678793
0.614727
0.552986
0.493449
0.436127
0.38095
0.32808
0.277719
0.229942
0.184937
0.143082
0.104563
0.0696843
0.0389016
0.0122603
0.959946
0.883755
0.810961
0.741251
0.674375
0.61013
0.548346
0.488869
0.431689
0.376719
0.324114
0.274069
0.226654
0.182053
0.140643
0.102605
0.0682428
0.0380126
0.0119586
0.959209
0.882163
0.808862
0.738861
0.671833
0.607535
0.545767
0.486359
0.429286
0.374456
0.322017
0.272162
0.224958
0.180584
0.139417
0.101635
0.0675382
0.0375843
0.0118166
0.95921
0.882166
0.808866
0.738865
0.671838
0.60754
0.545772
0.486363
0.42929
0.37446
0.32202
0.272166
0.224961
0.180586
0.139419
0.101637
0.0675393
0.0375849
0.0118168
0.95995
0.883764
0.810972
0.741264
0.674389
0.610144
0.54836
0.488883
0.431702
0.376732
0.324125
0.27408
0.226663
0.182061
0.140649
0.102611
0.0682466
0.0380149
0.0119594
0.96098
0.886237
0.814414
0.745325
0.678815
0.61475
0.553009
0.493471
0.436147
0.380969
0.328097
0.277735
0.229955
0.184948
0.143091
0.10457
0.0696893
0.0389046
0.0122613
0.962391
0.889651
0.819205
0.751022
0.685068
0.621296
0.559652
0.500063
0.442571
0.387128
0.333905
0.283111
0.234825
0.189238
0.14673
0.107495
0.0718407
0.0402277
0.012709
0.964175
0.893987
0.825312
0.758309
0.693091
0.629726
0.568244
0.508633
0.450972
0.395243
0.341625
0.290328
0.241432
0.195124
0.15178
0.111594
0.0748814
0.0421129
0.0133557
0.966458
0.899417
0.832892
0.767314
0.702991
0.64013
0.578868
0.51927
0.461464
0.405466
0.351466
0.299669
0.250143
0.203053
0.158743
0.117386
0.0792842
0.0449111
0.0143522
0.969011
0.905548
0.841501
0.77759
0.714336
0.652111
0.591171
0.531678
0.473825
0.417674
0.363436
0.311316
0.26137
0.213717
0.16862
0.126147
0.0864485
0.0498389
0.0162913
0.971046
0.910411
0.848193
0.785305
0.722456
0.660181
0.598869
0.538786
0.480201
0.423237
0.368134
0.315118
0.264242
0.215613
0.169474
0.125929
0.0852535
0.0481316
0.0151543
0.972406
0.913355
0.851745
0.788618
0.724861
0.661176
0.598108
0.536041
0.475338
0.41619
0.358884
0.303687
0.250718
0.200214
0.15271
0.108818
0.0695735
0.0364123
0.010277
0.973565
0.915776
0.854435
0.790706
0.725641
0.660124
0.594867
0.530401
0.467208
0.405586
0.34592
0.288596
0.233921
0.182428
0.135053
0.0928237
0.0569893
0.028608
0.00769795
0.974671
0.918219
0.85732
0.793212
0.727088
0.659999
0.592828
0.526272
0.460958
0.397327
0.335914
0.277285
0.221987
0.170824
0.124934
0.0853002
0.0526876
0.0272127
0.00788279
0.975737
0.920632
0.860258
0.795908
0.728898
0.660436
0.591582
0.523207
0.456105
0.390888
0.328262
0.268985
0.213792
0.163608
0.119488
0.0820524
0.0514458
0.0271717
0.00803995
0.976922
0.923187
0.863348
0.798801
0.730989
0.661278
0.590905
0.520922
0.452304
0.385838
0.322404
0.26291
0.208187
0.159123
0.116527
0.0806105
0.0510987
0.0272897
0.00812584
0.977845
0.925229
0.865778
0.800978
0.732388
0.661524
0.589796
0.518431
0.448583
0.381207
0.317328
0.257945
0.203893
0.155917
0.114543
0.0796704
0.0508132
0.0272635
0.00811925
0.978375
0.926335
0.86691
0.801639
0.732188
0.660207
0.587262
0.514745
0.443969
0.37603
0.312054
0.253068
0.199833
0.152909
0.112569
0.0785124
0.0501785
0.0269204
0.00797107
0.97849
0.926269
0.866288
0.800155
0.729631
0.656489
0.582429
0.508984
0.437593
0.369451
0.305729
0.247419
0.195158
0.149312
0.109957
0.0766781
0.0489149
0.0261078
0.00762293
0.978015
0.924654
0.86338
0.795869
0.723976
0.649581
0.574496
0.500357
0.428687
0.360724
0.297624
0.240286
0.18919
0.144524
0.106214
0.0737944
0.0467517
0.0246392
0.00698832
0.976948
0.921549
0.858292
0.788924
0.715392
0.639676
0.563672
0.489083
0.417465
0.350033
0.287879
0.231759
0.181982
0.138577
0.101371
0.0698843
0.0436909
0.0224917
0.00603898
0.975957
0.919042
0.854647
0.784535
0.710669
0.635037
0.559524
0.485804
0.415376
0.349366
0.288735
0.234083
0.185578
0.143131
0.106497
0.0751677
0.048658
0.0264959
0.00802021
0.975308
0.917732
0.853272
0.783655
0.710786
0.636572
0.562801
0.491034
0.422651
0.358644
0.299827
0.246669
0.199214
0.157284
0.120564
0.0884508
0.0602747
0.0352127
0.0119563
0.974659
0.916356
0.851728
0.782496
0.710516
0.637614
0.565471
0.495527
0.42903
0.366829
0.309604
0.257695
0.211036
0.169358
0.132264
0.0990544
0.0689353
0.0409779
0.0139453
0.974058
0.914998
0.850145
0.781237
0.710081
0.638413
0.567806
0.49957
0.434815
0.37425
0.318421
0.26755
0.221468
0.179825
0.142155
0.107709
0.0756714
0.045203
0.0153321
0.973428
0.913539
0.848431
0.779821
0.709452
0.63897
0.569833
0.503218
0.440096
0.381034
0.32645
0.276455
0.230788
0.189033
0.150687
0.114995
0.0811982
0.0486044
0.0164606
0.972602
0.911848
0.846493
0.778177
0.708577
0.639252
0.571544
0.506492
0.444926
0.387269
0.33382
0.284585
0.239225
0.197277
0.158229
0.121353
0.0859761
0.0515456
0.0174577
0.971877
0.910374
0.844787
0.776735
0.707859
0.639639
0.573299
0.509736
0.449635
0.393282
0.340856
0.292273
0.247128
0.204928
0.16517
0.127173
0.0903481
0.0542577
0.0183977
0.971393
0.909187
0.843319
0.775476
0.707281
0.64013
0.575119
0.512997
0.454303
0.399181
0.347701
0.299697
0.254711
0.212231
0.171777
0.132717
0.0945344
0.0568833
0.0193264
0.970773
0.90769
0.841455
0.773796
0.706299
0.640257
0.57662
0.515977
0.458708
0.404824
0.354285
0.306855
0.262031
0.219294
0.178189
0.138129
0.0986579
0.0595029
0.0202724
0.969951
0.905828
0.839158
0.771689
0.70495
0.640103
0.577928
0.518833
0.46304
0.410421
0.360839
0.313993
0.269347
0.226374
0.18465
0.143624
0.102888
0.0622269
0.0212774
0.969105
0.903819
0.836658
0.769422
0.703545
0.640017
0.579415
0.521955
0.467693
0.416371
0.367758
0.3215
0.277031
0.233825
0.19148
0.149475
0.107439
0.0651969
0.0223962
0.968142
0.901479
0.833827
0.766969
0.702159
0.640156
0.581301
0.525607
0.472964
0.422991
0.375375
0.329716
0.285425
0.241975
0.198985
0.155952
0.112527
0.0685622
0.0236893
0.966713
0.89852
0.830557
0.764386
0.700977
0.640795
0.583923
0.530164
0.479254
0.430697
0.384114
0.339067
0.294947
0.251224
0.207535
0.163382
0.118421
0.0725097
0.0252353
0.965231
0.895725
0.827812
0.762738
0.701108
0.64305
0.588377
0.53669
0.487585
0.44047
0.39491
0.350438
0.306427
0.26234
0.21782
0.172358
0.125594
0.0773635
0.0271679
0.964022
0.893602
0.826271
0.762843
0.703457
0.647866
0.595619
0.546138
0.498905
0.453246
0.408684
0.364732
0.320738
0.276152
0.23061
0.183567
0.134618
0.0835354
0.0296656
0.96258
0.891841
0.825973
0.764996
0.708471
0.655783
0.606255
0.559168
0.513916
0.469769
0.426218
0.382756
0.338706
0.293486
0.24671
0.197762
0.146147
0.0915153
0.0329572
0.961506
0.891818
0.828637
0.771011
0.71796
0.668577
0.622027
0.577496
0.534326
0.491742
0.449209
0.406202
0.362001
0.31597
0.26767
0.216364
0.1614
0.102211
0.0374712
0.961798
0.895222
0.836127
0.782758
0.733768
0.68808
0.644779
0.603005
0.562069
0.521161
0.479719
0.43719
0.392785
0.345781
0.295635
0.241415
0.182202
0.117049
0.0439311
0.963929
0.902859
0.849338
0.801174
0.756899
0.715398
0.675756
0.637101
0.598735
0.559813
0.519741
0.47792
0.433457
0.385486
0.333292
0.275622
0.211116
0.13817
0.0535525
0.968374
0.915298
0.868809
0.82683
0.788027
0.751372
0.716015
0.681099
0.645933
0.609637
0.571571
0.531073
0.487094
0.438553
0.384455
0.32304
0.25221
0.169207
0.0687006
0.975013
0.932135
0.894053
0.859311
0.826913
0.796015
0.765876
0.735687
0.704782
0.672253
0.637409
0.599507
0.557294
0.509385
0.454362
0.389675
0.312006
0.216573
0.0943388
0.983014
0.951947
0.923521
0.897159
0.872306
0.848353
0.824715
0.800671
0.775619
0.748659
0.719072
0.68605
0.648123
0.603542
0.550311
0.484729
0.401529
0.292429
0.141895
0.991112
0.972657
0.95495
0.93817
0.922164
0.906576
0.891024
0.874943
0.857875
0.839029
0.81776
0.793297
0.76408
0.728101
0.682774
0.622981
0.540639
0.421732
0.239702
0.997948
0.992031
0.985883
0.979888
0.974104
0.968418
0.962692
0.956654
0.950112
0.942626
0.933857
0.923349
0.90999
0.892163
0.867279
0.829464
0.767692
0.659899
0.461902
)
;

boundaryField
{
    up
    {
        type            fixedValue;
        value           uniform 0;
    }
    low
    {
        type            fixedValue;
        value           uniform 1;
    }
    left
    {
        type            fixedValue;
        value           uniform 1;
    }
    right
    {
        type            fixedValue;
        value           uniform 1;
    }
    frontAndBackPlanes
    {
        type            empty;
    }
}


// ************************************************************************* //
