/*--------------------------------*- C++ -*----------------------------------*\
  =========                 |
  \\      /  F ield         | OpenFOAM: The Open Source CFD Toolbox
   \\    /   O peration     | Website:  https://openfoam.org
    \\  /    A nd           | Version:  7
     \\/     M anipulation  |
\*---------------------------------------------------------------------------*/
FoamFile
{
    version     2.0;
    format      ascii;
    class       volScalarField;
    location    "0.29";
    object      gradTx;
}
// * * * * * * * * * * * * * * * * * * * * * * * * * * * * * * * * * * * * * //

dimensions      [0 -1 0 1 0 0 0];

internalField   nonuniform List<scalar> 
1596
(
-0.272543
-1.3695
-2.45992
-3.45661
-4.35781
-5.16437
-5.91327
-6.62801
-7.33941
-8.1075
-8.94708
-9.93016
-11.1436
-12.7178
-14.8098
-17.8235
-22.3878
-29.8639
-43.0659
0.0596565
-1.14099
-2.21294
-3.14965
-3.97653
-4.70063
-5.35498
-5.95111
-6.51179
-7.06742
-7.61904
-8.20411
-8.83372
-9.52599
-10.2602
-11.0019
-11.5717
-11.6081
-10.3467
0.331722
-0.935553
-1.97298
-2.84126
-3.58673
-4.22489
-4.78407
-5.27165
-5.70263
-6.09282
-6.43772
-6.75609
-7.03935
-7.27975
-7.44333
-7.47339
-7.22528
-6.44869
-4.65659
0.374363
-0.829698
-1.78017
-2.55841
-3.21374
-3.7652
-4.23491
-4.62871
-4.95599
-5.22452
-5.42968
-5.57987
-5.66396
-5.66953
-5.56947
-5.31811
-4.82153
-3.92803
-2.34603
0.107881
-0.872604
-1.66944
-2.32968
-2.8848
-3.34928
-3.73678
-4.05158
-4.29878
-4.4811
-4.59587
-4.64543
-4.62098
-4.51156
-4.29941
-3.95243
-3.41462
-2.59808
-1.3339
-0.446319
-1.08217
-1.66608
-2.18026
-2.6241
-2.9999
-3.31074
-3.55795
-3.74271
-3.86403
-3.92113
-3.91248
-3.83214
-3.67147
-3.42007
-3.05587
-2.54703
-1.84316
-0.847551
-1.18469
-1.44122
-1.77926
-2.12612
-2.44828
-2.73189
-2.96852
-3.15489
-3.28815
-3.36421
-3.38309
-3.3407
-3.23309
-3.05349
-2.79621
-2.44588
-1.98502
-1.38468
-0.589539
-1.95947
-1.88302
-1.98039
-2.15499
-2.35139
-2.54104
-2.7051
-2.83467
-2.92292
-2.96292
-2.95442
-2.89155
-2.77138
-2.58837
-2.33954
-2.01384
-1.60211
-1.08766
-0.438862
-2.76188
-2.44739
-2.32959
-2.33045
-2.39195
-2.4775
-2.561
-2.62814
-2.66821
-2.67165
-2.63682
-2.55649
-2.42777
-2.24557
-2.00813
-1.70704
-1.33754
-0.88983
-0.345441
-3.24288
-2.83886
-2.59276
-2.46837
-2.42293
-2.42161
-2.43662
-2.45038
-2.44965
-2.42307
-2.36744
-2.27486
-2.14216
-1.96464
-1.74106
-1.46499
-1.13417
-0.743029
-0.280783
-3.6328
-3.18964
-2.86586
-2.64866
-2.51327
-2.43257
-2.3816
-2.34212
-2.29982
-2.24229
-2.16488
-2.05922
-1.92165
-1.74751
-1.53558
-1.28057
-0.981436
-0.63503
-0.235158
-4.02738
-3.57936
-3.20707
-2.91714
-2.70123
-2.54253
-2.42209
-2.3236
-2.23323
-2.13842
-2.03339
-1.90947
-1.76229
-1.58697
-1.38189
-1.14227
-0.867402
-0.555312
-0.202264
-4.12778
-3.73949
-3.3756
-3.06255
-2.8065
-2.601
-2.43422
-2.29356
-2.1672
-2.04359
-1.91682
-1.77849
-1.62402
-1.44854
-1.25021
-1.02475
-0.771588
-0.489441
-0.175961
-4.14376
-3.82124
-3.4884
-3.17634
-2.9008
-2.66445
-2.46253
-2.2871
-2.12925
-1.97927
-1.83175
-1.67896
-1.5163
-1.33905
-1.14517
-0.930689
-0.694971
-0.437062
-0.155395
-4.12382
-3.86122
-3.56709
-3.26983
-2.98902
-2.73382
-2.5057
-2.30154
-2.11593
-1.94149
-1.77389
-1.60634
-1.43449
-1.25381
-1.06213
-0.855691
-0.633684
-0.395231
-0.139114
-4.00928
-3.81081
-3.56366
-3.29501
-3.02524
-2.76719
-2.52686
-2.30541
-2.10088
-1.90849
-1.72542
-1.54613
-1.36675
-1.18315
-0.993197
-0.793379
-0.582806
-0.360637
-0.125775
-3.79805
-3.66005
-3.46407
-3.23402
-2.98906
-2.74339
-2.50564
-2.28013
-2.06787
-1.86656
-1.67505
-1.4892
-1.30586
-1.12145
-0.934001
-0.740368
-0.539753
-0.331494
-0.114648
-3.55358
-3.4539
-3.30265
-3.11258
-2.89866
-2.67425
-2.44903
-2.22927
-2.01821
-1.81569
-1.6221
-1.43466
-1.25101
-1.06812
-0.884191
-0.696436
-0.504271
-0.307452
-0.105456
-3.34841
-3.27994
-3.16331
-3.00597
-2.81878
-2.61355
-2.40032
-2.18673
-1.97781
-1.77525
-1.58081
-1.39291
-1.20986
-1.02893
-0.848278
-0.665116
-0.478894
-0.289899
-0.098478
-3.00149
-2.97339
-2.89605
-2.77833
-2.62853
-2.45617
-2.27031
-2.07864
-1.887
-1.69818
-1.51495
-1.33677
-1.16259
-0.990088
-0.817317
-0.641258
-0.461089
-0.277685
-0.0932325
-2.6218
-2.62566
-2.58375
-2.50346
-2.39125
-2.2546
-2.10116
-1.93801
-1.77108
-1.60368
-1.43903
-1.27732
-1.11795
-0.958982
-0.798215
-0.631904
-0.457884
-0.276346
-0.0916148
-2.22922
-2.25412
-2.24189
-2.19586
-2.12014
-2.02019
-1.90214
-1.77214
-1.63575
-1.49626
-1.35684
-1.21795
-1.07927
-0.939207
-0.795514
-0.643571
-0.47853
-0.296409
-0.0991104
-1.79726
-1.83317
-1.84528
-1.83188
-1.7939
-1.73429
-1.65739
-1.56795
-1.4707
-1.36839
-1.26341
-1.15606
-1.04583
-0.931618
-0.8118
-0.681964
-0.534864
-0.359087
-0.139928
-1.31259
-1.29561
-1.26015
-1.20694
-1.14038
-1.06626
-0.991223
-0.920633
-0.858423
-0.805625
-0.76053
-0.719423
-0.677651
-0.63106
-0.576384
-0.509939
-0.425636
-0.310354
-0.139169
-0.878284
-0.98192
-1.10185
-1.22226
-1.33178
-1.4221
-1.48942
-1.5324
-1.55235
-1.55108
-1.52921
-1.48782
-1.42702
-1.34954
-1.2592
-1.15987
-1.0508
-0.924027
-0.756503
-0.298921
-0.351893
-0.423136
-0.503202
-0.585177
-0.664071
-0.738015
-0.806161
-0.869184
-0.927099
-0.976584
-1.01426
-1.03375
-1.03195
-1.00916
-0.971813
-0.925678
-0.8778
-0.829939
0.281843
0.21436
0.119725
0.00713143
-0.115027
-0.240141
-0.364476
-0.486152
-0.605058
-0.720967
-0.83018
-0.927585
-1.00393
-1.05195
-1.06845
-1.05939
-1.03289
-0.999564
-0.964278
0.863469
0.772029
0.645859
0.49577
0.331503
0.16093
-0.0109919
-0.181956
-0.351812
-0.520925
-0.686506
-0.842916
-0.978741
-1.08176
-1.14294
-1.16479
-1.15645
-1.13243
-1.10141
1.39275
1.2654
1.1003
0.910634
0.706859
0.497309
0.287049
0.0778917
-0.130924
-0.341351
-0.552797
-0.761043
-0.954286
-1.11589
-1.2288
-1.28791
-1.29976
-1.2827
-1.25161
1.94699
1.77677
1.56878
1.33712
1.09283
0.844712
0.597763
0.353231
0.10937
-0.137587
-0.389908
-0.646737
-0.898738
-1.12753
-1.30766
-1.42175
-1.46641
-1.46013
-1.42649
2.37324
2.15307
1.90125
1.63203
1.3566
1.08304
0.815053
0.552434
0.291958
0.0278012
-0.245448
-0.531817
-0.827909
-1.11906
-1.37554
-1.56605
-1.66669
-1.6838
-1.64496
2.78076
2.51689
2.22237
1.91698
1.61275
1.31683
1.03161
0.755647
0.484769
0.211935
-0.0704311
-0.371134
-0.694977
-1.03773
-1.37543
-1.67104
-1.87456
-1.95948
-1.93799
3.16804
2.84767
2.50726
2.16723
1.83824
1.52536
1.22918
0.946981
0.674188
0.40357
0.127213
-0.166023
-0.487781
-0.847621
-1.23936
-1.64193
-1.99602
-2.23327
-2.28449
3.43492
3.02877
2.61819
2.22118
1.84515
1.4922
1.16074
0.846978
0.546136
0.2516
-0.0436554
-0.350051
-0.681114
-1.05549
-1.48836
-1.99413
-2.55206
-3.11161
-3.57491
3.61826
3.17084
2.75095
2.37015
2.02855
1.72288
1.44769
1.19756
0.967333
0.752084
0.548137
0.350972
0.155445
-0.0469928
-0.269633
-0.53937
-0.885537
-1.3427
-1.92916
3.76873
3.30232
2.89359
2.53834
2.22787
1.95451
1.71052
1.48995
1.28798
1.10052
0.925533
0.761423
0.607586
0.464444
0.33363
0.21471
0.105483
-0.00457814
-0.13607
3.60496
3.07089
2.62192
2.24045
1.91209
1.62641
1.37433
1.14918
0.945821
0.75993
0.58935
0.432458
0.288492
0.157876
0.0427159
-0.0547072
-0.130525
-0.180805
-0.203649
3.19554
2.70184
2.29491
1.95463
1.66591
1.41777
1.20131
1.01001
0.839063
0.684609
0.544628
0.417641
0.302668
0.199397
0.108201
0.0289499
-0.0383112
-0.0937028
-0.138087
2.67819
2.25802
1.91245
1.62525
1.38344
1.17718
0.998636
0.841969
0.702988
0.578304
0.465987
0.364571
0.272812
0.189932
0.115632
0.0492717
-0.00952103
-0.0608524
-0.105278
2.03082
1.70377
1.4381
1.21977
1.03771
0.883644
0.751199
0.635653
0.533668
0.442553
0.360686
0.286829
0.219848
0.158984
0.103877
0.0540101
0.00915204
-0.030585
-0.0654365
1.28546
1.06694
0.894736
0.755929
0.641632
0.545703
0.463722
0.392499
0.329826
0.27394
0.223744
0.178403
0.137128
0.0993764
0.0648748
0.033286
0.00448335
-0.0213682
-0.0443002
0.495408
0.408189
0.341775
0.288929
0.245535
0.209049
0.177764
0.150487
0.1264
0.104855
0.0854293
0.0677988
0.0516483
0.0367483
0.0229588
0.0101211
-0.00185096
-0.0129206
-0.0230972
-0.49517
-0.407673
-0.341082
-0.288127
-0.244674
-0.208165
-0.176886
-0.149636
-0.125594
-0.104109
-0.0847554
-0.0672069
-0.0511472
-0.0363452
-0.0226593
-0.00992948
0.00193185
0.0128907
0.0229583
-1.28524
-1.06649
-0.894138
-0.755242
-0.640901
-0.544961
-0.462996
-0.391809
-0.329189
-0.273371
-0.223253
-0.178
-0.13682
-0.0991707
-0.0647749
-0.0332948
-0.00460196
0.0211419
0.0439707
-2.03061
-1.70334
-1.43753
-1.21909
-1.03698
-0.88288
-0.750432
-0.634904
-0.532956
-0.44189
-0.360085
-0.286298
-0.219392
-0.158606
-0.103578
-0.0537863
-0.00899837
0.030676
0.0654734
-2.67804
-2.25774
-1.91208
-1.62482
-1.38298
-1.17671
-0.998173
-0.841536
-0.702602
-0.577978
-0.465731
-0.364393
-0.272716
-0.189918
-0.115696
-0.0494072
0.00932345
0.0606034
0.104989
-3.19546
-2.70169
-2.29468
-1.95436
-1.6656
-1.41745
-1.201
-1.00972
-0.838812
-0.684413
-0.544499
-0.417589
-0.302699
-0.19951
-0.108389
-0.0291981
0.0380239
0.0934042
0.13781
-3.60499
-3.07089
-2.62188
-2.24036
-1.91197
-1.62628
-1.37421
-1.14909
-0.945786
-0.759969
-0.589483
-0.432702
-0.288865
-0.158388
-0.0433635
0.0539489
0.129721
0.180066
0.203102
-3.76876
-3.30206
-2.89293
-2.53723
-2.22629
-1.95247
-1.70804
-1.48707
-1.28473
-1.09695
-0.921648
-0.757252
-0.603144
-0.459742
-0.328706
-0.209697
-0.100708
0.00841786
0.137817
-3.61896
-3.17266
-2.75396
-2.37435
-2.03389
-1.72932
-1.4552
-1.20608
-0.976835
-0.762557
-0.559608
-0.363522
-0.169245
0.0316226
0.2522
0.519162
0.861837
1.31516
1.89836
-3.43467
-3.02808
-2.61695
-2.21936
-1.84275
-1.48925
-1.15727
-0.84305
-0.541809
-0.246944
0.0485642
0.355121
0.68624
1.06058
1.49342
1.99944
2.55841
3.12037
3.58791
-3.16829
-2.84825
-2.50811
-2.16831
-1.83949
-1.52674
-1.23067
-0.948566
-0.675859
-0.405335
-0.129094
0.163996
0.485602
0.845364
1.23725
1.64041
1.99563
2.23433
2.28658
-2.78091
-2.51725
-2.2229
-1.91765
-1.61352
-1.31768
-1.03253
-0.756617
-0.485796
-0.213028
0.069266
0.369908
0.693753
1.03666
1.37478
1.67109
1.87546
1.96112
1.94
-2.3734
-2.15343
-1.90179
-1.63271
-1.35739
-1.0839
-0.815978
-0.553402
-0.292959
-0.0288268
0.244416
0.530827
0.82706
1.11851
1.37546
1.56655
1.66772
1.68516
1.64642
-1.94714
-1.77712
-1.56931
-1.3378
-1.09363
-0.845595
-0.598701
-0.354199
-0.110348
0.136626
0.389002
0.64595
0.898169
1.12729
1.30784
1.42236
1.46733
1.46123
1.42766
-1.39288
-1.26571
-1.10079
-0.911272
-0.707611
-0.498139
-0.287924
-0.0787802
0.130052
0.34053
0.552073
0.760481
0.953964
1.11587
1.22912
1.28852
1.30057
1.28363
1.25261
-0.863601
-0.772352
-0.646361
-0.496424
-0.332274
-0.161777
0.0101099
0.181077
0.350976
0.520173
0.685886
0.842484
0.978553
1.08185
1.1433
1.16537
1.15718
1.13327
1.10234
-0.281954
-0.21466
-0.120203
-0.00776079
0.114286
0.239331
0.363643
0.48534
0.60431
0.720327
0.829692
0.927293
1.00387
1.05213
1.06885
1.05997
1.0336
1.00039
0.965216
0.298669
0.351126
0.421818
0.501348
0.582852
0.661371
0.735062
0.803085
0.866114
0.924158
0.973874
1.01187
1.03172
1.03032
1.00788
0.97089
0.92511
0.877677
0.830504
0.878465
0.982611
1.10319
1.22433
1.33458
1.42559
1.49349
1.53692
1.55717
1.55606
1.53422
1.49274
1.43178
1.3541
1.26353
1.16398
1.05471
0.927741
0.759984
1.31241
1.29493
1.25896
1.20528
1.13831
1.0639
0.988679
0.918026
0.85586
0.803195
0.758297
0.717428
0.675914
0.629587
0.575163
0.508957
0.424882
0.309836
0.138939
1.79738
1.8334
1.84563
1.83234
1.79443
1.73487
1.65797
1.56851
1.47121
1.36882
1.26377
1.15634
1.04603
0.931757
0.811883
0.682002
0.534863
0.359064
0.139909
2.22924
2.25416
2.24194
2.19592
2.12021
2.02026
1.90221
1.7722
1.6358
1.49629
1.35686
1.21796
1.07927
0.939192
0.79549
0.643542
0.478499
0.296385
0.0991034
2.62182
2.6257
2.5838
2.50351
2.39131
2.25466
2.10121
1.93805
1.77111
1.6037
1.43904
1.27732
1.11794
0.958964
0.798193
0.631882
0.457864
0.276334
0.0916115
3.00151
2.97342
2.89608
2.77837
2.62857
2.45621
2.27035
2.07867
1.88701
1.69819
1.51495
1.33677
1.16257
0.99007
0.817298
0.64124
0.461075
0.277677
0.0932303
3.34844
3.27997
3.16335
3.00601
2.81882
2.61359
2.40035
2.18675
1.97782
1.77525
1.5808
1.3929
1.20984
1.02891
0.848262
0.665102
0.478884
0.289893
0.0984762
3.55359
3.45392
3.30267
3.11261
2.89869
2.67427
2.44905
2.22928
2.01822
1.81568
1.62209
1.43464
1.251
1.06811
0.884177
0.696424
0.504263
0.307447
0.105454
3.79806
3.66006
3.46409
3.23404
2.98908
2.7434
2.50565
2.28013
2.06786
1.86655
1.67504
1.48918
1.30585
1.12144
0.933988
0.740358
0.539745
0.33149
0.114647
4.0093
3.81083
3.56368
3.29503
3.02526
2.7672
2.52687
2.30541
2.10087
1.90848
1.72541
1.54611
1.36673
1.18314
0.993186
0.79337
0.5828
0.360633
0.125774
4.12382
3.86123
3.5671
3.26984
2.98903
2.73382
2.50569
2.30153
2.11592
1.94148
1.77388
1.60633
1.43447
1.2538
1.06212
0.855683
0.633678
0.395229
0.139114
4.14377
3.82126
3.48842
3.17635
2.90081
2.66445
2.46253
2.28709
2.12924
1.97926
1.83174
1.67895
1.51629
1.33904
1.14516
0.930683
0.694968
0.43706
0.155396
4.1278
3.7395
3.37562
3.06256
2.80651
2.60101
2.43422
2.29356
2.16719
2.04358
1.91681
1.77849
1.62401
1.44853
1.25021
1.02475
0.771588
0.489442
0.175962
4.02738
3.57935
3.20706
2.91713
2.70122
2.54251
2.42207
2.32359
2.23322
2.1384
2.03338
1.90946
1.76228
1.58697
1.38188
1.14226
0.867401
0.555313
0.202265
3.63282
3.18966
2.86587
2.64867
2.51328
2.43257
2.38159
2.34212
2.29981
2.24228
2.16487
2.05922
1.92165
1.74751
1.53558
1.28057
0.98144
0.635033
0.23516
3.24292
2.83888
2.59278
2.46838
2.42293
2.42161
2.43662
2.45037
2.44965
2.42306
2.36744
2.27486
2.14216
1.96464
1.74107
1.465
1.13418
0.743034
0.280785
2.76191
2.44741
2.3296
2.33045
2.39195
2.4775
2.561
2.62813
2.66821
2.67165
2.63682
2.55649
2.42777
2.24558
2.00813
1.70704
1.33755
0.889836
0.345442
1.95949
1.88304
1.9804
2.15499
2.35139
2.54104
2.70509
2.83467
2.92291
2.96292
2.95442
2.89155
2.77139
2.58837
2.33954
2.01385
1.60211
1.08766
0.438862
1.18471
1.44123
1.77927
2.12613
2.44828
2.73189
2.96852
3.15489
3.28815
3.36421
3.38309
3.3407
3.23309
3.05349
2.79622
2.44588
1.98503
1.38469
0.589539
0.446332
1.08218
1.66609
2.18027
2.6241
2.9999
3.31074
3.55795
3.74271
3.86403
3.92113
3.91248
3.83214
3.67148
3.42007
3.05588
2.54704
1.84316
0.84755
-0.107874
0.872612
1.66945
2.32969
2.8848
3.34928
3.73678
4.05158
4.29878
4.4811
4.59587
4.64543
4.62099
4.51156
4.29941
3.95243
3.41462
2.59808
1.3339
-0.374361
0.829703
1.78018
2.55841
3.21374
3.7652
4.23491
4.62871
4.95599
5.22452
5.42968
5.57987
5.66397
5.66953
5.56946
5.3181
4.82153
3.92803
2.34603
-0.331724
0.935554
1.97298
2.84126
3.58673
4.22489
4.78406
5.27165
5.70263
6.09282
6.43773
6.75609
7.03935
7.27975
7.44333
7.47338
7.22527
6.44868
4.65659
-0.0596572
1.14099
2.21294
3.14964
3.97653
4.70063
5.35498
5.95111
6.51179
7.06742
7.61904
8.20411
8.83372
9.52598
10.2602
11.0019
11.5717
11.6081
10.3467
0.272544
1.3695
2.45992
3.45661
4.35781
5.16437
5.91327
6.62801
7.33941
8.10749
8.94708
9.93015
11.1436
12.7178
14.8098
17.8235
22.3878
29.8639
43.0659
)
;

boundaryField
{
    up
    {
        type            calculated;
        value           nonuniform List<scalar> 
84
(
-43.0659
-10.3467
-4.65659
-2.34603
-1.3339
-0.847551
-0.589539
-0.438862
-0.345441
-0.280783
-0.235158
-0.202264
-0.175961
-0.155395
-0.139114
-0.125775
-0.114648
-0.105456
-0.098478
-0.0932325
-0.0916148
-0.0991104
-0.139928
-0.139169
-0.650045
-0.78127
-0.918105
-1.05293
-1.19813
-1.36493
-1.56812
-1.82192
-2.10563
-3.56175
-2.00314
-0.140205
-0.203641
-0.137967
-0.105202
-0.0654159
-0.044298
-0.023107
0.0229681
0.0439688
0.0654532
0.104913
0.137691
0.203093
0.1419
1.97134
3.57727
2.10747
1.82367
1.56949
1.36606
1.19912
1.05386
0.919065
0.782162
0.653231
0.138939
0.139909
0.0991034
0.0916115
0.0932303
0.0984762
0.105454
0.114647
0.125774
0.139114
0.155396
0.175962
0.202265
0.23516
0.280785
0.345442
0.438862
0.589539
0.84755
1.3339
2.34603
4.65659
10.3467
43.0659
)
;
    }
    low
    {
        type            calculated;
        value           nonuniform List<scalar> 
84
(
-0.245955
0.0993575
0.396325
0.445137
0.152697
-0.454665
-1.25381
-2.07608
-2.89681
-3.35285
-3.7276
-4.10057
-4.15299
-4.13868
-4.09917
-3.95775
-3.72435
-3.47449
-3.25653
-2.88661
-2.49727
-2.10486
-1.67812
-1.2096
-0.798896
-0.270449
0.249384
0.782087
1.28671
1.83816
2.28044
2.70172
3.11079
3.40783
3.61616
3.79711
3.66701
3.26584
2.7431
2.08383
1.32119
0.510511
-0.510271
-1.32096
-2.0836
-2.74292
-3.26572
-3.66698
-3.79709
-3.61675
-3.40759
-3.11099
-2.70186
-2.28059
-1.83831
-1.28684
-0.782225
-0.249497
0.270203
0.799074
1.20943
1.67822
2.10489
2.4973
2.88663
3.25655
3.47451
3.72436
3.95776
4.09917
4.13869
4.153
4.10056
3.72762
3.35288
2.89684
2.07611
1.25383
0.45468
-0.15269
-0.445138
-0.39633
-0.0993606
0.245956
)
;
    }
    left
    {
        type            calculated;
        value           nonuniform List<scalar> 
19
(
-0.241499
-1.31355
-2.42521
-3.45542
-4.39465
-5.23839
-6.02682
-6.78749
-7.55125
-8.39439
-9.3308
-10.4426
-11.8447
-13.714
-16.2493
-20.0205
-25.9007
-35.791
-37.3538
)
;
    }
    right
    {
        type            calculated;
        value           nonuniform List<scalar> 
19
(
0.241501
1.31355
2.42521
3.45543
4.39465
5.2384
6.02682
6.78749
7.55125
8.39439
9.33079
10.4425
11.8447
13.714
16.2493
20.0205
25.9007
35.791
37.3538
)
;
    }
    frontAndBackPlanes
    {
        type            empty;
    }
}


// ************************************************************************* //
