/*--------------------------------*- C++ -*----------------------------------*\
  =========                 |
  \\      /  F ield         | OpenFOAM: The Open Source CFD Toolbox
   \\    /   O peration     | Website:  https://openfoam.org
    \\  /    A nd           | Version:  7
     \\/     M anipulation  |
\*---------------------------------------------------------------------------*/
FoamFile
{
    version     2.0;
    format      ascii;
    class       volScalarField;
    location    "0.15";
    object      gradTx;
}
// * * * * * * * * * * * * * * * * * * * * * * * * * * * * * * * * * * * * * //

dimensions      [0 -1 0 1 0 0 0];

internalField   nonuniform List<scalar> 
1596
(
-0.177864
-0.891508
-1.58893
-2.20329
-2.72505
-3.14913
-3.49576
-3.77855
-4.01742
-4.24901
-4.48606
-4.77269
-5.15823
-5.7099
-6.50352
-7.71873
-9.62599
-12.8054
-18.456
0.0414364
-0.735524
-1.42114
-2.00273
-2.49007
-2.8836
-3.20204
-3.45262
-3.65088
-3.81721
-3.95708
-4.09609
-4.2467
-4.42561
-4.63182
-4.85815
-5.03249
-5.00208
-4.43771
0.222538
-0.58649
-1.24487
-1.78407
-2.22838
-2.58471
-2.86944
-3.08764
-3.25011
-3.36861
-3.44473
-3.49307
-3.51481
-3.51296
-3.47931
-3.39667
-3.20896
-2.81419
-2.00596
0.255636
-0.495684
-1.0884
-1.56692
-1.95799
-2.27131
-2.5197
-2.70721
-2.84086
-2.92711
-2.96623
-2.96589
-2.92404
-2.83932
-2.70462
-2.50602
-2.20896
-1.75477
-1.0232
0.0920776
-0.497622
-0.979214
-1.37545
-1.70225
-1.96676
-2.17669
-2.33485
-2.4452
-2.51045
-2.53075
-2.50909
-2.44276
-2.32895
-2.16275
-1.93411
-1.62371
-1.1999
-0.595907
-0.249992
-0.606546
-0.93965
-1.23354
-1.48516
-1.69452
-1.86301
-1.99139
-2.08082
-2.13116
-2.1426
-2.11483
-2.04505
-1.92973
-1.76542
-1.54439
-1.25618
-0.884051
-0.391926
-0.701576
-0.81306
-0.980451
-1.15843
-1.3258
-1.47354
-1.59651
-1.69261
-1.76036
-1.79731
-1.80336
-1.77587
-1.71191
-1.60739
-1.45942
-1.26128
-1.00705
-0.687528
-0.283316
-1.17017
-1.07573
-1.08628
-1.14727
-1.22719
-1.3096
-1.38393
-1.44498
-1.4889
-1.51137
-1.51164
-1.48549
-1.42974
-1.33979
-1.21278
-1.04227
-0.824338
-0.553237
-0.218231
-1.65198
-1.41738
-1.29231
-1.23797
-1.22474
-1.2335
-1.25077
-1.26879
-1.28176
-1.28388
-1.27331
-1.2448
-1.1946
-1.11762
-1.01058
-0.86695
-0.683252
-0.454932
-0.17519
-1.9399
-1.65871
-1.45635
-1.32114
-1.23511
-1.1823
-1.14974
-1.12873
-1.11253
-1.0946
-1.07222
-1.03965
-0.99279
-0.926344
-0.83667
-0.717337
-0.564833
-0.375006
-0.142824
-2.17697
-1.87962
-1.63277
-1.43885
-1.29208
-1.18293
-1.10168
-1.04043
-0.992563
-0.951445
-0.913654
-0.873332
-0.825992
-0.766229
-0.690027
-0.59102
-0.465398
-0.308937
-0.117223
-2.42297
-2.12823
-1.85475
-1.61542
-1.41469
-1.25062
-1.11848
-1.01286
-0.928306
-0.858713
-0.800277
-0.74711
-0.694353
-0.636419
-0.568882
-0.4854
-0.381754
-0.253456
-0.0961033
-2.49989
-2.24555
-1.98058
-1.72796
-1.50032
-1.30261
-1.13533
-0.996437
-0.882608
-0.789028
-0.712204
-0.646661
-0.587528
-0.529317
-0.467449
-0.395822
-0.310043
-0.20555
-0.0779387
-2.53187
-2.32005
-2.07647
-1.82527
-1.584
-1.36333
-1.16864
-1.00168
-0.861715
-0.74568
-0.650837
-0.572325
-0.505424
-0.444805
-0.38581
-0.32259
-0.250661
-0.165469
-0.0626504
-2.5469
-2.37285
-2.1543
-1.91246
-1.66632
-1.43053
-1.21457
-1.02396
-0.860749
-0.723898
-0.611743
-0.520156
-0.444679
-0.380153
-0.321878
-0.264214
-0.202636
-0.132651
-0.0499855
-2.50704
-2.37364
-2.18513
-1.9612
-1.72057
-1.48005
-1.25213
-1.04553
-0.865079
-0.711817
-0.585416
-0.482636
-0.399427
-0.330884
-0.272342
-0.218376
-0.16449
-0.106305
-0.0397003
-2.40715
-2.31324
-2.1582
-1.95905
-1.73321
-1.49817
-1.26818
-1.05444
-0.864156
-0.700371
-0.564193
-0.453382
-0.364441
-0.292815
-0.233974
-0.182728
-0.134671
-0.0855872
-0.0315528
-2.28343
-2.21564
-2.09066
-1.91788
-1.71154
-1.48837
-1.26336
-1.04934
-0.855377
-0.686274
-0.544497
-0.42881
-0.336327
-0.262891
-0.204162
-0.155187
-0.111681
-0.0696075
-0.0252509
-2.18064
-2.13355
-2.03123
-1.87934
-1.68921
-1.47647
-1.25643
-1.04302
-0.846824
-0.674059
-0.528313
-0.409188
-0.31428
-0.23973
-0.181319
-0.134242
-0.0942876
-0.0575499
-0.0204939
-1.98063
-1.96243
-1.88834
-1.76434
-1.59959
-1.40792
-1.20396
-1.00189
-0.813131
-0.644979
-0.502001
-0.384673
-0.291197
-0.218178
-0.161686
-0.117175
-0.0806006
-0.0482556
-0.0168637
-1.7504
-1.7552
-1.70712
-1.61047
-1.47261
-1.30543
-1.12241
-0.937271
-0.761648
-0.603449
-0.467891
-0.356173
-0.267071
-0.197695
-0.144478
-0.103195
-0.0699856
-0.0413115
-0.0141802
-1.50289
-1.52224
-1.49571
-1.42442
-1.31353
-1.17284
-1.01429
-0.850584
-0.693002
-0.549551
-0.425715
-0.32321
-0.241301
-0.177626
-0.129074
-0.091832
-0.0622483
-0.0368158
-0.012557
-1.22073
-1.24674
-1.23786
-1.19139
-1.10963
-0.999668
-0.871309
-0.735509
-0.602556
-0.480026
-0.373275
-0.284369
-0.213001
-0.157426
-0.115172
-0.0830655
-0.0578353
-0.0359408
-0.0135616
-0.895391
-0.883944
-0.847964
-0.788478
-0.710194
-0.619848
-0.524841
-0.431848
-0.346349
-0.271667
-0.209395
-0.159442
-0.120464
-0.0907118
-0.0683785
-0.0515782
-0.0383298
-0.0261357
-0.0114816
-0.598517
-0.660778
-0.717038
-0.752932
-0.760262
-0.736712
-0.685714
-0.614266
-0.531537
-0.44614
-0.364903
-0.292527
-0.230799
-0.18028
-0.140484
-0.110346
-0.0880063
-0.0710997
-0.0559273
-0.200747
-0.225739
-0.255925
-0.283687
-0.303418
-0.311603
-0.307482
-0.292134
-0.268636
-0.240508
-0.210685
-0.181887
-0.154975
-0.130668
-0.109368
-0.0918489
-0.07821
-0.0685962
-0.0622559
0.198228
0.169507
0.125447
0.0728275
0.0186372
-0.031044
-0.072071
-0.102307
-0.121976
-0.132695
-0.136268
-0.134953
-0.129585
-0.121048
-0.110183
-0.0988033
-0.0882754
-0.0800842
-0.0744152
0.593942
0.554994
0.492671
0.414229
0.327634
0.240596
0.159469
0.0885124
0.0295335
-0.0176306
-0.0538635
-0.0808392
-0.0990713
-0.109025
-0.111205
-0.107795
-0.101184
-0.0943879
-0.088801
0.947023
0.889768
0.805568
0.702609
0.589067
0.47306
0.361633
0.259781
0.170212
0.0934892
0.0292699
-0.0236835
-0.0654436
-0.0956033
-0.113387
-0.120236
-0.118722
-0.113409
-0.107408
1.30595
1.22434
1.11445
0.984732
0.843695
0.699803
0.560401
0.430692
0.313718
0.210257
0.120085
0.0419265
-0.0242813
-0.0774692
-0.115084
-0.136581
-0.143118
-0.140161
-0.133169
1.56749
1.45872
1.32537
1.1754
1.01699
0.857727
0.70393
0.559857
0.428012
0.308811
0.201816
0.10537
0.0189253
-0.0564585
-0.11663
-0.15808
-0.177916
-0.179946
-0.171198
1.8035
1.67211
1.5161
1.34667
1.17233
0.999843
0.834465
0.679426
0.536576
0.405853
0.286488
0.176151
0.0731126
-0.0230027
-0.10821
-0.177129
-0.220918
-0.23714
-0.230564
2.01244
1.85123
1.67134
1.4841
1.2971
1.11558
0.943363
0.782435
0.633917
0.497266
0.371528
0.253947
0.141567
0.0315645
-0.0747851
-0.174355
-0.254745
-0.304168
-0.311153
2.13395
1.92833
1.71362
1.49992
1.29319
1.097
0.913696
0.744193
0.588874
0.446794
0.316628
0.195458
0.0795346
-0.036219
-0.155026
-0.280445
-0.406347
-0.521751
-0.60568
2.19508
1.97325
1.75866
1.5573
1.37041
1.19764
1.03827
0.891253
0.755831
0.631018
0.516065
0.409731
0.310264
0.214962
0.120445
0.0199815
-0.0919967
-0.221506
-0.369517
2.2301
2.00362
1.79787
1.61068
1.43889
1.2801
1.1325
0.994862
0.866568
0.747028
0.636039
0.533436
0.438648
0.351252
0.271025
0.196902
0.12762
0.0603883
-0.00970033
2.08408
1.82668
1.60378
1.40742
1.23221
1.07464
0.932077
0.80258
0.684786
0.577328
0.479279
0.389871
0.308058
0.233185
0.165117
0.103768
0.0496112
0.00363237
-0.0338396
1.80898
1.57925
1.38277
1.21156
1.06029
0.92533
0.803973
0.694175
0.594527
0.503701
0.420835
0.345255
0.276076
0.212714
0.154924
0.102362
0.0549119
0.0128178
-0.0240705
1.48834
1.29873
1.13544
0.993298
0.868231
0.757184
0.657786
0.568189
0.487109
0.413341
0.346111
0.284795
0.228608
0.177005
0.129722
0.0864059
0.0469209
0.0114835
-0.0199978
1.11199
0.967428
0.843925
0.737269
0.644066
0.561747
0.488348
0.422356
0.362727
0.308499
0.259065
0.213933
0.172498
0.134345
0.0992821
0.0670569
0.0376013
0.0111269
-0.0123959
0.696499
0.60029
0.520804
0.453526
0.395442
0.344521
0.29933
0.258818
0.222275
0.189065
0.158788
0.131118
0.105666
0.0821621
0.0604849
0.0404755
0.0221012
0.00551954
-0.00925588
0.266306
0.226913
0.195643
0.169588
0.147221
0.127662
0.110348
0.094885
0.0810064
0.0684709
0.0571162
0.0468018
0.0373628
0.0286734
0.020659
0.0132338
0.00635911
7.06169e-05
-0.00563419
-0.266179
-0.226622
-0.195239
-0.169107
-0.146691
-0.127106
-0.109786
-0.0943311
-0.0804739
-0.0679702
-0.056656
-0.0463891
-0.0370034
-0.0283721
-0.0204197
-0.0130593
-0.00625119
-2.9337e-05
0.00561011
-0.696378
-0.60003
-0.520445
-0.453101
-0.394975
-0.344034
-0.298839
-0.258338
-0.221818
-0.18864
-0.158402
-0.130778
-0.105377
-0.0819298
-0.0603123
-0.0403652
-0.0220549
-0.00553685
0.00917683
-1.11187
-0.967172
-0.84357
-0.736844
-0.643595
-0.561251
-0.487844
-0.421858
-0.362248
-0.308049
-0.258651
-0.21356
-0.172172
-0.134067
-0.0990557
-0.0668818
-0.0374769
-0.0110508
0.012427
-1.48824
-1.29854
-1.13519
-0.99299
-0.867891
-0.756828
-0.657427
-0.56784
-0.486778
-0.413037
-0.345839
-0.284561
-0.228415
-0.176855
-0.129616
-0.0863428
-0.0469001
-0.0115026
0.0199419
-1.80892
-1.57912
-1.38258
-1.21133
-1.06003
-0.925055
-0.803695
-0.693904
-0.594271
-0.503468
-0.420632
-0.345084
-0.27594
-0.212615
-0.154861
-0.102334
-0.0549139
-0.0128445
0.0240272
-2.08406
-1.82662
-1.60368
-1.40729
-1.23206
-1.07447
-0.931909
-0.802423
-0.684649
-0.577217
-0.479199
-0.389825
-0.308049
-0.233214
-0.165182
-0.103865
-0.0497279
-0.00374758
0.0337492
-2.23008
-2.0034
-1.79742
-1.60998
-1.43797
-1.27898
-1.13124
-0.993495
-0.865139
-0.745573
-0.634583
-0.531998
-0.437235
-0.349867
-0.269672
-0.195602
-0.126435
-0.0594614
0.01013
-2.19545
-1.97424
-1.76029
-1.55952
-1.37315
-1.20083
-1.04181
-0.89505
-0.759796
-0.635083
-0.520179
-0.413873
-0.314445
-0.219233
-0.124896
-0.0247476
0.0868006
0.215861
0.363629
-2.13377
-1.92787
-1.71286
-1.49888
-1.29191
-1.09553
-0.912097
-0.742511
-0.587156
-0.445077
-0.31494
-0.193823
-0.0779673
0.0377118
0.156467
0.281912
0.408028
0.523963
0.60884
-2.01256
-1.85153
-1.67179
-1.48467
-1.29776
-1.11632
-0.944141
-0.783232
-0.634711
-0.498042
-0.372276
-0.254663
-0.142244
-0.0321808
0.0742759
0.17404
0.254724
0.304498
0.311743
-1.80357
-1.67229
-1.51639
-1.34704
-1.17277
-1.00033
-0.834985
-0.679959
-0.537107
-0.406367
-0.286974
-0.176597
-0.0735019
0.0227016
0.108044
0.177152
0.221152
0.237542
0.23104
-1.56757
-1.45892
-1.32567
-1.17579
-1.01746
-0.858238
-0.704467
-0.560397
-0.428535
-0.309299
-0.202255
-0.105746
-0.0192212
0.0562677
0.11657
0.158167
0.178134
0.180243
0.171506
-1.30603
-1.22454
-1.11476
-0.985144
-0.844182
-0.700338
-0.560954
-0.431236
-0.314228
-0.210716
-0.120478
-0.0422415
0.0240563
0.0773475
0.115072
0.136673
0.143288
0.14037
0.133385
-0.947094
-0.889959
-0.805874
-0.703013
-0.589543
-0.473577
-0.362157
-0.260283
-0.170669
-0.0938837
-0.0295912
0.0234427
0.0652887
0.095537
0.113404
0.120323
0.118855
0.113565
0.107568
-0.594023
-0.5552
-0.492999
-0.414657
-0.32813
-0.241123
-0.159988
-0.0889942
-0.0299544
0.0172846
0.053598
0.0806553
0.0989668
0.108995
0.111237
0.107875
0.101293
0.0945116
0.0889289
-0.198299
-0.169708
-0.12577
-0.0732478
-0.0191167
0.0305471
0.071596
0.101884
0.121625
0.132424
0.136076
0.134835
0.129534
0.121054
0.110232
0.0988822
0.088372
0.0801911
0.0745277
0.200574
0.225223
0.255073
0.282557
0.30211
0.310229
0.306147
0.29092
0.267594
0.23966
0.210026
0.181402
0.154637
0.130448
0.109237
0.0917816
0.0781877
0.0686131
0.0623245
0.59863
0.661209
0.717837
0.75408
0.761692
0.738317
0.687381
0.61589
0.533037
0.447466
0.366033
0.293465
0.231561
0.180893
0.140978
0.11075
0.0883464
0.0713954
0.0561879
0.895257
0.883483
0.847188
0.787449
0.709006
0.618601
0.523626
0.430732
0.345373
0.27085
0.208736
0.158926
0.120073
0.0904226
0.0681707
0.0514337
0.038234
0.0260786
0.01146
1.2208
1.24688
1.23806
1.19163
1.10989
0.999922
0.871534
0.735693
0.602694
0.48012
0.373333
0.2844
0.213014
0.157429
0.115169
0.0830616
0.0578315
0.0359386
0.0135618
1.5029
1.52224
1.49572
1.42443
1.31354
1.17284
1.01429
0.850574
0.692986
0.549532
0.425695
0.323192
0.241286
0.177614
0.129066
0.0918269
0.0622457
0.0368152
0.0125576
1.7504
1.75521
1.70713
1.61048
1.47261
1.30543
1.12241
0.93726
0.761634
0.603433
0.467876
0.35616
0.267061
0.197689
0.144474
0.103193
0.0699857
0.0413123
0.0141806
1.98063
1.96243
1.88835
1.76434
1.59959
1.40792
1.20395
1.00188
0.813119
0.644966
0.50199
0.384664
0.291191
0.218175
0.161685
0.117175
0.0806021
0.0482568
0.0168641
2.18064
2.13356
2.03124
1.87935
1.68922
1.47647
1.25642
1.04302
0.846815
0.67405
0.528306
0.409183
0.314277
0.239729
0.18132
0.134244
0.0942896
0.0575512
0.0204942
2.28344
2.21565
2.09066
1.91789
1.71154
1.48837
1.26336
1.04933
0.85537
0.686268
0.544493
0.428807
0.336326
0.262892
0.204164
0.155189
0.111683
0.0696083
0.0252509
2.40715
2.31325
2.1582
1.95905
1.73321
1.49817
1.26817
1.05444
0.864151
0.700367
0.56419
0.453381
0.364441
0.292817
0.233976
0.18273
0.134671
0.085587
0.0315526
2.50705
2.37365
2.18514
1.96121
1.72058
1.48006
1.25213
1.04553
0.865076
0.711814
0.585415
0.482635
0.399427
0.330884
0.272342
0.218376
0.164488
0.106303
0.0396996
2.5469
2.37286
2.1543
1.91246
1.66632
1.43053
1.21457
1.02395
0.860746
0.723896
0.611741
0.520155
0.444678
0.380152
0.321875
0.26421
0.202632
0.132648
0.0499844
2.53187
2.32006
2.07647
1.82528
1.584
1.36333
1.16864
1.00168
0.861713
0.745678
0.650835
0.572322
0.505421
0.4448
0.385804
0.322583
0.250654
0.165464
0.0626493
2.4999
2.24556
1.98059
1.72796
1.50032
1.30261
1.13533
0.996437
0.882607
0.789026
0.712201
0.646657
0.587522
0.529308
0.467438
0.395811
0.310034
0.205545
0.0779379
2.42297
2.12823
1.85475
1.61542
1.41469
1.25061
1.11848
1.01285
0.9283
0.858707
0.80027
0.7471
0.694341
0.636405
0.568868
0.485386
0.381744
0.253451
0.0961032
2.17699
1.87964
1.63277
1.43885
1.29208
1.18293
1.10168
1.04043
0.992559
0.951439
0.913645
0.87332
0.825978
0.766213
0.690011
0.591007
0.465389
0.308934
0.117224
1.93992
1.65873
1.45636
1.32114
1.23511
1.1823
1.14974
1.12873
1.11253
1.0946
1.0722
1.03964
0.992773
0.926327
0.836656
0.717327
0.564829
0.375007
0.142827
1.65199
1.41739
1.29231
1.23797
1.22474
1.2335
1.25077
1.26879
1.28176
1.28387
1.2733
1.24478
1.19458
1.11761
1.01057
0.866947
0.683254
0.454936
0.175193
1.17019
1.07573
1.08628
1.14727
1.22719
1.3096
1.38392
1.44498
1.48889
1.51136
1.51162
1.48548
1.42973
1.33979
1.21278
1.04228
0.824346
0.553245
0.218233
0.701586
0.813066
0.980456
1.15843
1.3258
1.47354
1.59651
1.6926
1.76035
1.7973
1.80335
1.77586
1.71191
1.60739
1.45943
1.26129
1.00707
0.687536
0.283317
0.249998
0.606553
0.939658
1.23355
1.48517
1.69452
1.86301
1.99138
2.08081
2.13115
2.1426
2.11482
2.04505
1.92974
1.76543
1.5444
1.25619
0.884058
0.391925
-0.0920737
0.497629
0.979222
1.37546
1.70225
1.96676
2.17669
2.33485
2.4452
2.51045
2.53075
2.50909
2.44277
2.32897
2.16276
1.93412
1.62372
1.1999
0.595905
-0.255636
0.49569
1.08841
1.56692
1.95799
2.27131
2.5197
2.7072
2.84086
2.92711
2.96623
2.9659
2.92405
2.83933
2.70464
2.50603
2.20897
1.75477
1.02319
-0.22254
0.586491
1.24487
1.78407
2.22838
2.5847
2.86944
3.08764
3.25011
3.36862
3.44474
3.49308
3.51482
3.51297
3.47932
3.39667
3.20896
2.81418
2.00596
-0.0414362
0.735523
1.42113
2.00273
2.49007
2.8836
3.20204
3.45262
3.65089
3.81722
3.9571
4.0961
4.24671
4.42561
4.63182
4.85814
5.03248
5.00207
4.43771
0.177865
0.891507
1.58893
2.20329
2.72505
3.14912
3.49576
3.77856
4.01743
4.24901
4.48607
4.77269
5.15823
5.70989
6.5035
7.71871
9.62598
12.8054
18.456
)
;

boundaryField
{
    up
    {
        type            calculated;
        value           nonuniform List<scalar> 
84
(
-18.456
-4.43771
-2.00596
-1.0232
-0.595907
-0.391926
-0.283316
-0.218231
-0.17519
-0.142824
-0.117223
-0.0961033
-0.0779387
-0.0626504
-0.0499855
-0.0397003
-0.0315528
-0.0252509
-0.0204939
-0.0168637
-0.0141802
-0.012557
-0.0135616
-0.0114816
-0.0471195
-0.0570945
-0.0687224
-0.0819637
-0.0987872
-0.121841
-0.155274
-0.204466
-0.268494
-0.587338
-0.377771
-0.0101919
-0.0335798
-0.0238992
-0.0198999
-0.0123562
-0.00923945
-0.00563085
0.0056068
0.00916066
0.0123876
0.0198447
0.0238568
0.0334903
0.0106121
0.371803
0.59103
0.269035
0.204868
0.155544
0.122033
0.0989326
0.0820823
0.0688296
0.0571849
0.0473491
0.01146
0.0135618
0.0125576
0.0141806
0.0168641
0.0204942
0.0252509
0.0315526
0.0396996
0.0499844
0.0626493
0.0779379
0.0961032
0.117224
0.142827
0.175193
0.218233
0.283317
0.391925
0.595905
1.02319
2.00596
4.43771
18.456
)
;
    }
    low
    {
        type            calculated;
        value           nonuniform List<scalar> 
84
(
-0.160021
0.0686963
0.266159
0.302573
0.121277
-0.255334
-0.745064
-1.24249
-1.73508
-2.00823
-2.23774
-2.47352
-2.5247
-2.54156
-2.54758
-2.49321
-2.38036
-2.25321
-2.14156
-1.92437
-1.68465
-1.43373
-1.15135
-0.833382
-0.549166
-0.182769
0.177731
0.54341
0.883279
1.24407
1.51916
1.76641
1.99059
2.13087
2.20635
2.25795
2.12868
1.85499
1.5285
1.14344
0.717104
0.274861
-0.274733
-0.71698
-1.14331
-1.52839
-1.85491
-2.12864
-2.25791
-2.20666
-2.1307
-1.99069
-1.76648
-1.51924
-1.24415
-0.883352
-0.543494
-0.177804
0.1826
0.549277
0.833257
1.15141
1.43373
1.68465
1.92437
2.14157
2.25322
2.38036
2.49321
2.54758
2.54157
2.52471
2.47352
2.23774
2.00824
1.7351
1.2425
0.745075
0.255341
-0.121273
-0.302574
-0.266164
-0.0686997
0.160022
)
;
    }
    left
    {
        type            calculated;
        value           nonuniform List<scalar> 
19
(
-0.158615
-0.858138
-1.57122
-2.20812
-2.75332
-3.19774
-3.56287
-3.86444
-4.12213
-4.38098
-4.65369
-4.98891
-5.44982
-6.12443
-7.10674
-8.6476
-11.1219
-15.3399
-16.0059
)
;
    }
    right
    {
        type            calculated;
        value           nonuniform List<scalar> 
19
(
0.158617
0.858141
1.57122
2.20812
2.75332
3.19774
3.56287
3.86444
4.12213
4.38099
4.65369
4.9889
5.44981
6.12441
7.10672
8.64758
11.1219
15.3399
16.006
)
;
    }
    frontAndBackPlanes
    {
        type            empty;
    }
}


// ************************************************************************* //
