/*--------------------------------*- C++ -*----------------------------------*\
  =========                 |
  \\      /  F ield         | OpenFOAM: The Open Source CFD Toolbox
   \\    /   O peration     | Website:  https://openfoam.org
    \\  /    A nd           | Version:  7
     \\/     M anipulation  |
\*---------------------------------------------------------------------------*/
FoamFile
{
    version     2.0;
    format      ascii;
    class       volScalarField;
    location    "0.07";
    object      gradTx;
}
// * * * * * * * * * * * * * * * * * * * * * * * * * * * * * * * * * * * * * //

dimensions      [0 -1 0 1 0 0 0];

internalField   nonuniform List<scalar> 
1596
(
-0.42877
-2.14677
-3.78035
-5.13669
-6.18031
-6.90761
-7.38571
-7.66628
-7.80705
-7.88436
-7.91688
-7.97792
-8.14652
-8.5337
-9.26712
-10.62
-12.9739
-17.1076
-24.6057
0.125343
-1.70038
-3.28095
-4.55729
-5.53957
-6.23492
-6.70296
-6.9812
-7.12112
-7.17348
-7.15218
-7.10153
-7.03926
-6.99474
-6.97874
-7.0047
-7.00073
-6.78674
-5.9343
0.59135
-1.2158
-2.67204
-3.81974
-4.7005
-5.33307
-5.76706
-6.03265
-6.17119
-6.21877
-6.1863
-6.10049
-5.95857
-5.76167
-5.49854
-5.15553
-4.67471
-3.94628
-2.71897
0.70203
-0.848085
-2.07142
-3.03278
-3.77526
-4.31955
-4.70178
-4.9455
-5.08164
-5.13541
-5.11707
-5.04214
-4.90213
-4.68688
-4.3782
-3.95412
-3.37391
-2.57808
-1.43155
0.361925
-0.710821
-1.60118
-2.32429
-2.89742
-3.33156
-3.64647
-3.85762
-3.98548
-4.04613
-4.04946
-4.00374
-3.90047
-3.72602
-3.46106
-3.07987
-2.55099
-1.8391
-0.872989
-0.355566
-0.851739
-1.35168
-1.80123
-2.18145
-2.48641
-2.71883
-2.88443
-2.99339
-3.05352
-3.07317
-3.05568
-2.99421
-2.87539
-2.68148
-2.38554
-1.96014
-1.37813
-0.597727
-1.27515
-1.24252
-1.3537
-1.51892
-1.69317
-1.85417
-1.99006
-2.09636
-2.17352
-2.22176
-2.24612
-2.24627
-2.21681
-2.14617
-2.01942
-1.81091
-1.49559
-1.04789
-0.436987
-2.1993
-1.7765
-1.55698
-1.45885
-1.43168
-1.44435
-1.47574
-1.51266
-1.54724
-1.57297
-1.5903
-1.59577
-1.58447
-1.54686
-1.47111
-1.33482
-1.11568
-0.788646
-0.32629
-3.12776
-2.47606
-1.99716
-1.65843
-1.4285
-1.28015
-1.19069
-1.1415
-1.11814
-1.10797
-1.10563
-1.10414
-1.09759
-1.07757
-1.03474
-0.950761
-0.80667
-0.579052
-0.241857
-3.67537
-2.98129
-2.37604
-1.88447
-1.50706
-1.23094
-1.03921
-0.912907
-0.834612
-0.787907
-0.762626
-0.748915
-0.739341
-0.726058
-0.701463
-0.651405
-0.560776
-0.409538
-0.174223
-4.13297
-3.44451
-2.77765
-2.18272
-1.68814
-1.30001
-1.01223
-0.80962
-0.674476
-0.58814
-0.536352
-0.506407
-0.488757
-0.47519
-0.458869
-0.428982
-0.373977
-0.277868
-0.120867
-4.62113
-3.95938
-3.25754
-2.58219
-1.98338
-1.48701
-1.10072
-0.816443
-0.618471
-0.486994
-0.404229
-0.354311
-0.324919
-0.306473
-0.291853
-0.272356
-0.239204
-0.180339
-0.0801959
-4.805
-4.23305
-3.55883
-2.86429
-2.21498
-1.65322
-1.19964
-0.855018
-0.607895
-0.439479
-0.330489
-0.263027
-0.222643
-0.198419
-0.182623
-0.167774
-0.147085
-0.111849
-0.0506925
-4.91682
-4.43
-3.79906
-3.10668
-2.42823
-1.81964
-1.31322
-0.918729
-0.629611
-0.428864
-0.296625
-0.213435
-0.163016
-0.13306
-0.114965
-0.101716
-0.0876997
-0.0666313
-0.0305881
-5.009
-4.59261
-4.0039
-3.32091
-2.6238
-1.9792
-1.42955
-0.993
-0.667874
-0.439125
-0.286745
-0.189962
-0.130894
-0.0958764
-0.0753504
-0.0622651
-0.0515676
-0.0385218
-0.0177097
-5.00551
-4.66532
-4.12539
-3.46339
-2.76264
-2.09783
-1.51969
-1.05365
-0.702533
-0.453282
-0.286138
-0.17944
-0.114129
-0.0754737
-0.0531239
-0.0398231
-0.0307404
-0.022046
-0.00996681
-4.8891
-4.62648
-4.14287
-3.51385
-2.82488
-2.15671
-1.56654
-1.08563
-0.720571
-0.460085
-0.28489
-0.172886
-0.104343
-0.0638953
-0.0407141
-0.0273959
-0.0192187
-0.012871
-0.00558193
-4.72476
-4.51629
-4.08455
-3.49221
-2.8234
-2.16282
-1.57261
-1.08839
-0.719489
-0.455919
-0.27877
-0.165745
-0.0968122
-0.0563464
-0.0333493
-0.0204146
-0.0129381
-0.007932
-0.00321681
-4.60065
-4.4357
-4.04004
-3.4713
-2.81369
-2.15585
-1.56443
-1.07836
-0.7085
-0.445147
-0.269057
-0.157426
-0.0898544
-0.0505387
-0.0284361
-0.0162188
-0.00942029
-0.00528061
-0.00197476
-4.26619
-4.17341
-3.83833
-3.31857
-2.69811
-2.06764
-1.49689
-1.0271
-0.670444
-0.417709
-0.249852
-0.144293
-0.080975
-0.0445048
-0.0242342
-0.0131939
-0.00720419
-0.00376086
-0.00130688
-3.84645
-3.81707
-3.54622
-3.08464
-2.51406
-1.92516
-1.38892
-0.947529
-0.613762
-0.378826
-0.22413
-0.127814
-0.0706682
-0.038139
-0.020287
-0.0107052
-0.00561114
-0.00279024
-0.00091951
-3.36378
-3.37943
-3.16975
-2.77315
-2.26502
-1.73247
-1.24501
-0.844051
-0.542292
-0.331469
-0.193949
-0.109246
-0.0595762
-0.0316533
-0.0165314
-0.00853347
-0.00435841
-0.0021075
-0.00067412
-2.77583
-2.81819
-2.66922
-2.35135
-1.92752
-1.47516
-1.05795
-0.714181
-0.456085
-0.276689
-0.160487
-0.0895255
-0.0483015
-0.0253617
-0.013075
-0.00666018
-0.00336845
-0.00163572
-0.000546291
-2.05979
-2.02865
-1.86727
-1.60172
-1.28177
-0.960067
-0.675535
-0.448205
-0.281616
-0.168133
-0.0959066
-0.052547
-0.027789
-0.0142646
-0.00717015
-0.00356493
-0.00178896
-0.000906392
-0.000351196
-1.38096
-1.49721
-1.51859
-1.4226
-1.22958
-0.984347
-0.734077
-0.512991
-0.338239
-0.211679
-0.126603
-0.0729445
-0.0407236
-0.0221858
-0.0119013
-0.00637967
-0.00351661
-0.00210479
-0.00141255
-0.458243
-0.495116
-0.521426
-0.519931
-0.484774
-0.421192
-0.341446
-0.259002
-0.184891
-0.124901
-0.0803566
-0.0497232
-0.0297716
-0.0173811
-0.00996558
-0.00568934
-0.00332434
-0.00213225
-0.00162718
0.473958
0.439551
0.355894
0.24417
0.13132
0.0390321
-0.0221421
-0.0527343
-0.0604859
-0.0548144
-0.0435094
-0.0318149
-0.0219425
-0.0145346
-0.00933442
-0.00588905
-0.00372789
-0.00252856
-0.00198508
1.387
1.3394
1.19609
0.982488
0.739509
0.507981
0.316551
0.176676
0.0855856
0.0327213
0.0058943
-0.00568936
-0.00922844
-0.00911074
-0.00755924
-0.00572133
-0.00409064
-0.00297213
-0.00238144
2.17759
2.09632
1.89427
1.60006
1.26026
0.924662
0.632174
0.402714
0.238756
0.130985
0.0656268
0.0285817
0.00904757
-0.00042468
-0.00424311
-0.00510172
-0.00450641
-0.00359293
-0.00291499
2.94503
2.80802
2.53716
2.16419
1.73929
1.31639
0.939352
0.632851
0.403269
0.243106
0.13851
0.0736091
0.0351194
0.0131759
0.00155855
-0.00377683
-0.005191
-0.0047607
-0.00388468
3.45972
3.266
2.94533
2.52824
2.06239
1.59826
1.17804
0.827092
0.554438
0.355358
0.218082
0.127326
0.069253
0.0328563
0.010934
-0.00135072
-0.00657243
-0.00739556
-0.00613385
3.88663
3.64597
3.27987
2.82603
2.33077
1.83996
1.39196
1.01056
0.705778
0.474997
0.308782
0.193218
0.114769
0.0618935
0.0267813
0.00401782
-0.00844133
-0.0128787
-0.011918
4.22877
3.92806
3.51891
3.03897
2.52967
2.02977
1.57167
1.1758
0.851852
0.598725
0.409417
0.272053
0.174184
0.104304
0.0541991
0.017523
-0.00711107
-0.0205143
-0.0225029
4.37477
3.99279
3.53113
3.02468
2.50826
2.01248
1.5624
1.17348
0.853126
0.600029
0.408007
0.266624
0.164362
0.0898777
0.0343407
-0.009962
-0.0454144
-0.0724642
-0.087838
4.39373
3.98706
3.53611
3.06543
2.59607
2.14645
1.7326
1.36537
1.05134
0.791586
0.583598
0.421518
0.297494
0.203151
0.130725
0.0720804
0.021472
-0.0257657
-0.0713185
4.364
3.94971
3.51835
3.07941
2.6444
2.2261
1.83679
1.48575
1.17936
0.919639
0.70564
0.533768
0.398006
0.291991
0.209592
0.144685
0.0922175
0.0478223
0.00749273
4.00227
3.53512
3.085
2.65183
2.24139
1.86131
1.51849
1.21732
0.959973
0.74531
0.570415
0.430826
0.32054
0.233794
0.165411
0.110699
0.0660936
0.0292952
-0.00150579
3.42201
3.01153
2.62186
2.25197
1.90537
1.58691
1.30089
1.04987
0.83491
0.654701
0.506763
0.387495
0.29209
0.215949
0.154948
0.105278
0.0639926
0.0291843
-0.000678972
2.78223
2.44716
2.12755
1.82556
1.54452
1.28787
1.05836
0.857369
0.685261
0.540655
0.421461
0.324763
0.24676
0.183844
0.132819
0.0907034
0.0552234
0.0249549
-0.00126203
2.06075
1.80714
1.56792
1.34419
1.13762
0.950004
0.78274
0.636412
0.511021
0.405395
0.317983
0.246671
0.188732
0.141596
0.103012
0.0708621
0.0435542
0.0201252
-0.000225221
1.28338
1.11501
0.962359
0.822765
0.695515
0.580807
0.478979
0.390091
0.313967
0.249788
0.196572
0.153013
0.117459
0.0883588
0.0643674
0.0442149
0.0269608
0.0120572
-0.000950409
0.488737
0.41898
0.358743
0.304836
0.256246
0.212786
0.174469
0.141247
0.112991
0.0893367
0.0698613
0.0540292
0.0411892
0.0307353
0.0221437
0.0149266
0.00872173
0.00331505
-0.00146297
-0.488504
-0.418441
-0.357995
-0.303961
-0.255313
-0.211849
-0.173569
-0.140415
-0.112243
-0.088681
-0.0692991
-0.0535565
-0.0407999
-0.0304226
-0.021901
-0.0147488
-0.00860498
-0.00325617
0.00146628
-1.28316
-1.11452
-0.96169
-0.821988
-0.694691
-0.579984
-0.478195
-0.38937
-0.313324
-0.24923
-0.196098
-0.15262
-0.117139
-0.0881064
-0.0641767
-0.0440815
-0.0268815
-0.0120292
0.000929105
-2.06051
-1.80666
-1.56725
-1.34341
-1.1368
-0.949185
-0.781962
-0.635701
-0.51039
-0.404851
-0.317525
-0.246291
-0.188423
-0.141351
-0.102822
-0.0707206
-0.0434559
-0.0200654
0.000250241
-2.78203
-2.44678
-2.12704
-1.82498
-1.54391
-1.28728
-1.05782
-0.856885
-0.684847
-0.540312
-0.421184
-0.324545
-0.246593
-0.183719
-0.13273
-0.0906451
-0.0551916
-0.0249461
0.00125064
-3.42186
-3.01124
-2.62147
-2.25152
-1.9049
-1.58646
-1.30049
-1.04953
-0.83464
-0.654493
-0.50661
-0.387387
-0.292017
-0.215903
-0.154922
-0.105267
-0.0639918
-0.0291899
0.000671684
-4.00221
-3.53495
-3.08475
-2.65154
-2.2411
-1.86106
-1.51829
-1.2172
-0.959906
-0.745293
-0.570436
-0.43087
-0.320598
-0.233856
-0.165473
-0.110756
-0.0661416
-0.0293292
0.0014893
-4.36392
-3.94921
-3.51743
-3.07814
-2.6429
-2.2245
-1.83519
-1.48425
-1.17803
-0.918485
-0.704674
-0.532974
-0.397359
-0.29146
-0.209148
-0.144304
-0.0918915
-0.0475695
-0.0073664
-4.39439
-3.98886
-3.53904
-3.06932
-2.60067
-2.15147
-1.73772
-1.37033
-1.05594
-0.795685
-0.587139
-0.424506
-0.299977
-0.205211
-0.132456
-0.0735882
-0.0228381
0.0245072
0.0702217
-4.37438
-3.99187
-3.52977
-3.02306
-2.50655
-2.0108
-1.56083
-1.17206
-0.851856
-0.598906
-0.407018
-0.265752
-0.163595
-0.0892008
-0.0337349
0.0105239
0.04599
0.0731627
0.0888168
-4.22897
-3.92858
-3.51977
-3.04013
-2.53105
-2.03128
-1.57319
-1.17723
-0.853111
-0.599777
-0.410259
-0.272704
-0.174677
-0.104666
-0.0544524
-0.0176687
0.00707903
0.0205909
0.0226556
-3.88674
-3.64628
-3.28044
-2.82685
-2.3318
-1.8411
-1.39311
-1.01163
-0.706698
-0.475743
-0.30936
-0.193651
-0.115087
-0.0621203
-0.0269289
-0.00408334
0.00845941
0.0129509
0.0119807
-3.45984
-3.26635
-2.94595
-2.52912
-2.06346
-1.59941
-1.17917
-0.828095
-0.555268
-0.356005
-0.218565
-0.127677
-0.0695043
-0.0330319
-0.0110463
0.00129947
0.0065775
0.00743251
0.00615162
-2.94517
-2.8084
-2.53784
-2.16513
-1.7404
-1.31754
-0.940426
-0.633766
-0.403993
-0.243645
-0.138896
-0.073879
-0.0353061
-0.0133015
-0.00163521
0.00374265
0.00519039
0.00477643
0.00388728
-2.17773
-2.09672
-1.89497
-1.60099
-1.26132
-0.925711
-0.633109
-0.403473
-0.239327
-0.13139
-0.0659038
-0.0287671
-0.00917003
0.000347092
0.00419978
0.00508509
0.00450737
0.00360032
0.002914
-1.38717
-1.33987
-1.19686
-0.983455
-0.74054
-0.508943
-0.317355
-0.177288
-0.0860174
-0.0330082
-0.00607772
0.00557485
0.0091587
0.00907127
0.00754117
0.00571784
0.00409466
0.00297729
0.00238121
-0.474117
-0.440034
-0.356657
-0.245085
-0.132235
-0.0398267
0.0215272
0.0523028
0.060207
0.0546462
0.0434128
0.031762
0.0219158
0.0145241
0.00933397
0.00589411
0.00373431
0.0025336
0.00198665
0.457845
0.493963
0.519699
0.517965
0.482904
0.419638
0.340289
0.258215
0.184396
0.124609
0.0801946
0.0496381
0.0297302
0.017364
0.00996108
0.00569049
0.00332683
0.00213423
0.0016286
1.38119
1.49803
1.51996
1.4243
1.23135
0.985943
0.735369
0.513947
0.338895
0.212104
0.126866
0.0731021
0.0408168
0.0222411
0.0119346
0.00640018
0.00352939
0.00211304
0.00141787
2.05947
2.02762
1.8657
1.59991
1.28001
0.958552
0.674347
0.447343
0.281029
0.167756
0.0956764
0.0524125
0.0277137
0.0142243
0.00714952
0.00355471
0.00178395
0.000903994
0.000350402
2.77596
2.81846
2.66958
2.35172
1.92785
1.47542
1.05813
0.714295
0.456152
0.276725
0.160507
0.0895359
0.0483073
0.0253652
0.0130771
0.00666146
0.00336916
0.00163612
0.000546534
3.36379
3.37943
3.16974
2.77313
2.26499
1.73243
1.24498
0.844033
0.542284
0.331468
0.193952
0.109251
0.0595803
0.0316567
0.0165339
0.0085352
0.00435957
0.00210824
0.000674407
3.84645
3.81709
3.54622
3.08462
2.51403
1.92514
1.38889
0.947514
0.613756
0.378826
0.224134
0.127818
0.0706725
0.0381424
0.0202895
0.0107071
0.00561263
0.00279125
0.000919831
4.2662
4.17342
3.83833
3.31857
2.69809
2.06762
1.49687
1.02709
0.670436
0.417708
0.249854
0.144296
0.0809787
0.0445081
0.0242371
0.0131965
0.0072065
0.00376257
0.00130743
4.60066
4.43572
4.04006
3.47131
2.81368
2.15584
1.56442
1.07834
0.708492
0.445144
0.269058
0.157428
0.0898576
0.0505422
0.0284398
0.0162228
0.00942424
0.00528363
0.00197569
4.72476
4.51631
4.08457
3.49222
2.8234
2.16282
1.57259
1.08838
0.71948
0.455914
0.278769
0.165747
0.0968154
0.0563509
0.0333549
0.0204211
0.0129449
0.00793712
0.00321829
4.8891
4.62649
4.14288
3.51386
2.82488
2.15671
1.56653
1.08562
0.720563
0.46008
0.284889
0.172888
0.104347
0.0639019
0.040723
0.0274067
0.0192297
0.0128789
0.00558393
5.00552
4.66533
4.12541
3.46341
2.76265
2.09784
1.51969
1.05364
0.702526
0.453278
0.286137
0.179443
0.114135
0.0754837
0.0531377
0.0398397
0.0307565
0.0220567
0.0099689
5.009
4.59261
4.00391
3.32092
2.62381
1.97921
1.42955
0.992995
0.667868
0.439122
0.286745
0.189966
0.130903
0.0958915
0.0753707
0.0622879
0.0515879
0.0385334
0.0177108
4.91682
4.43
3.79908
3.1067
2.42824
1.81965
1.31323
0.918728
0.62961
0.428864
0.296629
0.213443
0.163031
0.133081
0.114992
0.101743
0.0877199
0.0666395
0.0305865
4.80501
4.23307
3.55886
2.86431
2.21501
1.65324
1.19965
0.855023
0.607898
0.439484
0.330497
0.26304
0.222663
0.198445
0.18265
0.167796
0.147096
0.111847
0.0506867
4.62111
3.95938
3.25755
2.5822
1.98339
1.48701
1.10072
0.816446
0.618474
0.486999
0.404239
0.354327
0.32494
0.306496
0.291871
0.272361
0.239193
0.18032
0.0801858
4.13299
3.44454
2.77768
2.18274
1.68816
1.30003
1.01225
0.80963
0.674486
0.58815
0.536365
0.506423
0.488773
0.475199
0.458862
0.428954
0.373934
0.277829
0.120855
3.67541
2.98132
2.37606
1.88448
1.50707
1.23095
1.03922
0.912917
0.834622
0.787916
0.762634
0.74892
0.739336
0.726036
0.701415
0.651336
0.560701
0.409488
0.174216
3.1278
2.47608
1.99717
1.65843
1.4285
1.28016
1.1907
1.1415
1.11815
1.10797
1.10562
1.10412
1.09755
1.07751
1.03465
0.950657
0.806581
0.579008
0.24186
2.19932
1.77651
1.55698
1.45886
1.43169
1.44436
1.47574
1.51266
1.54723
1.57295
1.59027
1.59572
1.5844
1.54675
1.47099
1.33471
1.11561
0.788631
0.326308
1.27517
1.24254
1.35371
1.51893
1.69318
1.85418
1.99006
2.09635
2.17351
2.22172
2.24607
2.24619
2.21671
2.14605
2.01932
1.81084
1.49558
1.04792
0.437014
0.355582
0.851762
1.35171
1.80126
2.18147
2.48642
2.71882
2.88441
2.99336
3.05347
3.0731
3.05559
2.99411
2.8753
2.68143
2.38554
1.9602
1.37819
0.597754
-0.361916
0.710852
1.60122
2.32433
2.89743
3.33156
3.64645
3.85759
3.98544
4.04607
4.04939
4.00367
3.9004
3.72598
3.46109
3.07996
2.5511
1.83918
0.873
-0.702028
0.848114
2.07145
3.0328
3.77527
4.31954
4.70176
4.94547
5.0816
5.13537
5.11702
5.0421
4.90213
4.68693
4.3783
3.95426
3.37402
2.57813
1.43154
-0.591352
1.21581
2.67205
3.81973
4.70048
5.33305
5.76704
6.03263
6.17117
6.21876
6.1863
6.10051
5.95864
5.76177
5.49867
5.15565
4.67477
3.94627
2.71893
-0.12534
1.70037
3.28092
4.55725
5.53954
6.23489
6.70294
6.9812
7.12112
7.1735
7.15223
7.1016
7.03935
6.99485
6.97882
7.00472
7.0007
6.78668
5.93427
0.428777
2.14675
3.78032
5.13665
6.18027
6.90758
7.3857
7.66628
7.80707
7.8844
7.91693
7.97799
8.14658
8.53371
9.26708
10.6199
12.9738
17.1075
24.6057
)
;

boundaryField
{
    up
    {
        type            calculated;
        value           nonuniform List<scalar> 
84
(
-24.6057
-5.9343
-2.71897
-1.43155
-0.872989
-0.597727
-0.436987
-0.32629
-0.241857
-0.174223
-0.120867
-0.0801959
-0.0506925
-0.0305881
-0.0177097
-0.00996681
-0.00558193
-0.00321681
-0.00197476
-0.00130688
-0.00091951
-0.00067412
-0.000546291
-0.000351196
-0.00112403
-0.0014175
-0.00175326
-0.00208813
-0.00246075
-0.00303696
-0.00431786
-0.00744055
-0.0127888
-0.0785601
-0.0699087
0.00763317
-0.00122152
-0.000483158
-0.00113271
-0.000159145
-0.000914748
-0.00144835
0.00145178
0.000893805
0.00018439
0.00112203
0.000476712
0.00120591
-0.00750842
0.0688609
0.0797011
0.0129257
0.00745073
0.00429767
0.00301762
0.00244843
0.00208253
0.00175251
0.00141899
0.00112797
0.000350402
0.000546534
0.000674407
0.000919831
0.00130743
0.00197569
0.00321829
0.00558393
0.0099689
0.0177108
0.0305865
0.0506867
0.0801858
0.120855
0.174216
0.24186
0.326308
0.437014
0.597754
0.873
1.43154
2.71893
5.93427
24.6057
)
;
    }
    low
    {
        type            calculated;
        value           nonuniform List<scalar> 
84
(
-0.38378
0.195548
0.69964
0.813848
0.428555
-0.367231
-1.36625
-2.34592
-3.29402
-3.81453
-4.26325
-4.74063
-4.88403
-4.9754
-5.05841
-5.03331
-4.89608
-4.72868
-4.58951
-4.21709
-3.7715
-3.27269
-2.67225
-1.95867
-1.29261
-0.424454
0.434992
1.2935
2.06657
2.84934
3.39978
3.8531
4.22621
4.4061
4.4481
4.44508
4.1086
3.52413
2.86795
2.12612
1.32548
0.505983
-0.505749
-1.32525
-2.12587
-2.86774
-3.52395
-4.1085
-4.44495
-4.44864
-4.40571
-4.22634
-3.85317
-3.39989
-2.84947
-2.06671
-1.29368
-0.435152
0.424062
1.29282
1.95836
2.67236
3.27269
3.7715
4.21709
4.58951
4.72869
4.89608
5.03331
5.05839
4.9754
4.88404
4.74061
4.26327
3.81457
3.29405
2.34594
1.36628
0.367249
-0.428545
-0.813852
-0.699656
-0.195562
0.383782
)
;
    }
    left
    {
        type            calculated;
        value           nonuniform List<scalar> 
19
(
-0.389908
-2.0893
-3.77398
-5.19244
-6.29246
-7.061
-7.56824
-7.87147
-8.02784
-8.12842
-8.19076
-8.29351
-8.53869
-9.06863
-10.0384
-11.8192
-14.9335
-20.4637
-21.33
)
;
    }
    right
    {
        type            calculated;
        value           nonuniform List<scalar> 
19
(
0.389917
2.0893
3.77395
5.1924
6.29242
7.06098
7.56823
7.87148
8.02787
8.12846
8.19081
8.29356
8.53871
9.06861
10.0383
11.8191
14.9333
20.4637
21.33
)
;
    }
    frontAndBackPlanes
    {
        type            empty;
    }
}


// ************************************************************************* //
