/*--------------------------------*- C++ -*----------------------------------*\
  =========                 |
  \\      /  F ield         | OpenFOAM: The Open Source CFD Toolbox
   \\    /   O peration     | Website:  https://openfoam.org
    \\  /    A nd           | Version:  7
     \\/     M anipulation  |
\*---------------------------------------------------------------------------*/
FoamFile
{
    version     2.0;
    format      ascii;
    class       volScalarField;
    location    "0.387";
    object      gradTx;
}
// * * * * * * * * * * * * * * * * * * * * * * * * * * * * * * * * * * * * * //

dimensions      [0 -1 0 1 0 0 0];

internalField   nonuniform List<scalar> 
1596
(
-0.101891
-0.513067
-0.925081
-1.30768
-1.6621
-1.98993
-2.3059
-2.61917
-2.94124
-3.29504
-3.68511
-4.13893
-4.69073
-5.39373
-6.31342
-7.62174
-9.58833
-12.7975
-18.457
0.0226536
-0.426768
-0.830494
-1.18809
-1.51057
-1.80145
-2.07372
-2.33173
-2.58376
-2.84092
-3.10221
-3.38115
-3.68037
-4.00537
-4.34542
-4.6841
-4.94378
-4.96926
-4.43361
0.12475
-0.349077
-0.738643
-1.06835
-1.35669
-1.61009
-1.83955
-2.04772
-2.2399
-2.42149
-2.58948
-2.75001
-2.89784
-3.02782
-3.12369
-3.15946
-3.07194
-2.75294
-1.99355
0.140911
-0.308869
-0.665039
-0.959328
-1.21102
-1.42767
-1.61781
-1.78348
-1.92791
-2.05347
-2.1574
-2.24193
-2.30113
-2.32827
-2.31026
-2.22598
-2.03386
-1.66764
-1.00164
0.0413115
-0.324604
-0.622942
-0.872064
-1.08425
-1.26521
-1.42018
-1.55067
-1.65835
-1.74381
-1.80535
-1.84306
-1.85237
-1.82751
-1.75972
-1.6339
-1.42479
-1.09337
-0.566274
-0.1658
-0.402779
-0.621615
-0.815804
-0.985297
-1.13108
-1.25435
-1.35554
-1.43493
-1.49186
-1.5256
-1.53503
-1.51707
-1.46732
-1.38039
-1.24585
-1.04887
-0.766598
-0.356497
-0.441267
-0.536577
-0.664003
-0.79594
-0.919707
-1.03006
-1.1238
-1.19963
-1.25638
-1.29235
-1.30732
-1.29943
-1.2667
-1.20586
-1.11383
-0.983328
-0.805896
-0.568021
-0.244928
-0.729428
-0.700633
-0.738817
-0.807064
-0.884215
-0.959311
-1.02515
-1.07829
-1.11608
-1.13586
-1.13743
-1.11848
-1.07769
-1.01258
-0.921507
-0.79936
-0.641446
-0.439734
-0.179719
-1.02667
-0.909621
-0.868466
-0.873027
-0.900924
-0.937929
-0.973987
-1.00349
-1.02233
-1.02689
-1.0165
-0.988535
-0.941879
-0.874545
-0.785647
-0.671534
-0.529658
-0.355194
-0.139472
-1.20278
-1.05276
-0.964398
-0.923106
-0.912072
-0.917529
-0.928631
-0.93842
-0.941756
-0.934349
-0.914967
-0.880826
-0.830866
-0.76346
-0.678181
-0.572472
-0.445092
-0.293277
-0.111846
-1.34396
-1.18
-1.06346
-0.988606
-0.945277
-0.922406
-0.910045
-0.900832
-0.889092
-0.870098
-0.842033
-0.802
-0.748853
-0.681159
-0.598698
-0.499649
-0.383535
-0.248886
-0.0927107
-1.48565
-1.32078
-1.18724
-1.08665
-1.01496
-0.964784
-0.928262
-0.898547
-0.86999
-0.837689
-0.799346
-0.751947
-0.69416
-0.624597
-0.543071
-0.448212
-0.339948
-0.217573
-0.0793935
-1.51753
-1.37526
-1.24539
-1.13704
-1.0516
-0.985462
-0.933289
-0.889435
-0.848837
-0.806823
-0.760929
-0.708203
-0.647234
-0.576729
-0.496561
-0.40573
-0.304445
-0.192523
-0.069071
-1.51798
-1.40047
-1.28264
-1.17545
-1.08391
-1.00779
-0.944253
-0.889225
-0.838553
-0.788068
-0.735363
-0.677627
-0.613436
-0.541581
-0.461973
-0.3739
-0.277753
-0.173703
-0.0613995
-1.5051
-1.41014
-1.30718
-1.20628
-1.11396
-1.03236
-0.960882
-0.897101
-0.837967
-0.779995
-0.721025
-0.658453
-0.590887
-0.517198
-0.437337
-0.350812
-0.258161
-0.159799
-0.0557296
-1.45776
-1.38659
-1.30132
-1.21164
-1.12439
-1.04311
-0.968817
-0.900541
-0.836345
-0.773508
-0.710257
-0.644264
-0.574224
-0.499111
-0.418936
-0.33343
-0.243307
-0.149216
-0.051416
-1.3758
-1.32679
-1.26047
-1.18538
-1.10802
-1.03247
-0.960655
-0.89271
-0.82763
-0.763416
-0.698722
-0.631522
-0.560627
-0.485105
-0.405036
-0.320379
-0.232096
-0.141158
-0.04812
-1.28274
-1.24773
-1.19787
-1.13775
-1.07239
-1.00565
-0.939849
-0.875774
-0.813116
-0.750476
-0.686881
-0.620572
-0.550447
-0.475603
-0.396108
-0.312087
-0.224792
-0.135666
-0.0457656
-1.20489
-1.18145
-1.14459
-1.097
-1.04228
-0.983764
-0.923904
-0.863947
-0.804149
-0.743622
-0.681721
-0.616901
-0.548068
-0.474222
-0.395223
-0.311119
-0.223323
-0.133855
-0.0446198
-1.07702
-1.06812
-1.04552
-1.01251
-0.971843
-0.926132
-0.877506
-0.827237
-0.775798
-0.722573
-0.6671
-0.607975
-0.544088
-0.474286
-0.398084
-0.31516
-0.226753
-0.135419
-0.0445264
-0.938741
-0.941497
-0.93182
-0.912587
-0.885972
-0.853976
-0.818288
-0.780009
-0.739604
-0.696542
-0.650379
-0.599746
-0.543471
-0.480223
-0.409033
-0.328797
-0.239759
-0.144084
-0.0467799
-0.797052
-0.807774
-0.809158
-0.802701
-0.789813
-0.771896
-0.750189
-0.725536
-0.698272
-0.667801
-0.633529
-0.594012
-0.547973
-0.493973
-0.430667
-0.356009
-0.268242
-0.166709
-0.0549919
-0.642285
-0.65758
-0.668246
-0.674032
-0.675293
-0.672678
-0.666913
-0.658466
-0.647438
-0.633008
-0.614191
-0.589317
-0.556879
-0.515484
-0.463863
-0.399673
-0.319219
-0.216687
-0.0847695
-0.469453
-0.466618
-0.4603
-0.450685
-0.43911
-0.427258
-0.416972
-0.409494
-0.405327
-0.403737
-0.402808
-0.399764
-0.391777
-0.376455
-0.352045
-0.316631
-0.266981
-0.195568
-0.0876854
-0.315031
-0.35697
-0.408991
-0.466284
-0.525288
-0.583063
-0.637722
-0.687666
-0.73159
-0.767909
-0.794191
-0.808128
-0.807626
-0.792316
-0.763034
-0.721109
-0.665912
-0.592722
-0.48806
-0.108598
-0.133211
-0.167285
-0.207701
-0.252157
-0.298916
-0.347217
-0.39643
-0.446106
-0.495137
-0.540612
-0.57923
-0.606601
-0.620063
-0.619103
-0.606685
-0.58602
-0.561127
-0.533438
0.0988657
0.0677519
0.0243908
-0.0280568
-0.0867033
-0.149293
-0.214582
-0.281898
-0.350948
-0.421009
-0.489444
-0.552431
-0.604302
-0.640285
-0.657988
-0.659821
-0.649987
-0.634027
-0.614802
0.307862
0.26679
0.210986
0.144337
0.0703015
-0.00839628
-0.0901745
-0.174428
-0.261208
-0.350463
-0.440394
-0.527281
-0.604607
-0.665203
-0.703691
-0.720455
-0.719984
-0.709469
-0.693484
0.499902
0.444412
0.373175
0.29112
0.202098
0.109098
0.0137264
-0.0836969
-0.183817
-0.287573
-0.394538
-0.502055
-0.603722
-0.690386
-0.752742
-0.787165
-0.796636
-0.789963
-0.774695
0.703683
0.631351
0.543382
0.445222
0.341055
0.234118
0.125985
0.0167045
-0.0949225
-0.210853
-0.332281
-0.458525
-0.584743
-0.701238
-0.794733
-0.855365
-0.88094
-0.879962
-0.864152
0.864148
0.771818
0.666132
0.552847
0.436352
0.319749
0.2042
0.0892293
-0.0269822
-0.14737
-0.274767
-0.411126
-0.554886
-0.698639
-0.827437
-0.924636
-0.977734
-0.988735
-0.971065
1.02133
0.911027
0.787969
0.660177
0.532447
0.407615
0.286376
0.167825
0.0497985
-0.0711618
-0.198953
-0.33797
-0.490921
-0.65597
-0.821659
-0.968961
-1.07264
-1.11797
-1.11013
1.17508
1.04169
0.899886
0.758107
0.620693
0.489723
0.365225
0.245878
0.129437
0.0124768
-0.108977
-0.240415
-0.387917
-0.55666
-0.74456
-0.941315
-1.11801
-1.23934
-1.26915
1.28763
1.11912
0.948431
0.78312
0.62618
0.478451
0.339036
0.206181
0.0776145
-0.0497194
-0.179201
-0.315822
-0.466347
-0.640227
-0.845968
-1.09154
-1.36851
-1.65252
-1.89524
1.37185
1.18457
1.00847
0.848729
0.705572
0.577874
0.463395
0.359966
0.265434
0.177735
0.0953316
0.0162207
-0.0619263
-0.143172
-0.234264
-0.348665
-0.502072
-0.713288
-0.993906
1.44606
1.24889
1.07613
0.926568
0.796774
0.68371
0.58409
0.495435
0.415648
0.342937
0.27645
0.215433
0.15972
0.10958
0.0658215
0.0283501
-0.00390868
-0.0363168
-0.0792762
1.39883
1.17237
0.982176
0.821189
0.683408
0.564457
0.460422
0.368493
0.286476
0.212543
0.145891
0.0858343
0.0321992
-0.014728
-0.0539441
-0.0843954
-0.104314
-0.112099
-0.106984
1.25261
1.0402
0.865897
0.721132
0.59934
0.495776
0.406536
0.328819
0.260554
0.20009
0.146622
0.0994798
0.0582897
0.0228893
-0.00666142
-0.0305782
-0.0490529
-0.062507
-0.0715643
1.05923
0.876188
0.726914
0.604057
0.501748
0.415597
0.342106
0.27872
0.223595
0.175256
0.132875
0.0957554
0.0633384
0.0352028
0.0110678
-0.0095163
-0.0269142
-0.041455
-0.0535507
0.808954
0.665297
0.549833
0.456024
0.378795
0.314388
0.259933
0.213329
0.173086
0.138015
0.107383
0.0805886
0.0570944
0.0364853
0.0184753
0.00271097
-0.0110526
-0.0229525
-0.0331937
0.514645
0.418513
0.343506
0.283739
0.235178
0.195042
0.161338
0.132638
0.107952
0.0864904
0.0677495
0.0513201
0.0368217
0.0239612
0.0125357
0.00232275
-0.00681799
-0.0149195
-0.0220495
0.1991
0.161095
0.1324
0.109822
0.0915244
0.0763603
0.0635603
0.0525879
0.0430749
0.0347316
0.0273655
0.0208217
0.0149535
0.00964486
0.00481021
0.00035882
-0.00377234
-0.00759934
-0.0111419
-0.199004
-0.160893
-0.132134
-0.109522
-0.0912099
-0.0760451
-0.0632547
-0.0522994
-0.0428089
-0.0344924
-0.0271562
-0.0206444
-0.0148097
-0.00953584
-0.00473676
-0.000321562
0.00377305
0.00756373
0.0110705
-0.514559
-0.41834
-0.343281
-0.283488
-0.234918
-0.194787
-0.161097
-0.132419
-0.107759
-0.0863282
-0.0676209
-0.0512269
-0.0367651
-0.0239418
-0.0125536
-0.00237774
0.00672646
0.0147927
0.0218895
-0.808873
-0.665138
-0.549622
-0.455781
-0.378535
-0.314124
-0.259674
-0.213083
-0.172859
-0.137811
-0.107205
-0.0804376
-0.0569709
-0.0363885
-0.0184031
-0.00266059
0.0110846
0.0229701
0.0332008
-1.05918
-0.876093
-0.72679
-0.603916
-0.501602
-0.415454
-0.341975
-0.278608
-0.223507
-0.175198
-0.132848
-0.0957624
-0.0633784
-0.0352735
-0.0111653
0.00939715
0.0267795
0.0413106
0.0534021
-1.25258
-1.04016
-0.865836
-0.721057
-0.599259
-0.495696
-0.406465
-0.328764
-0.260521
-0.200086
-0.14665
-0.0995435
-0.0583894
-0.0230227
0.00650025
0.0303985
0.0488675
0.062331
0.0714148
-1.39885
-1.1724
-0.982188
-0.821189
-0.683402
-0.564452
-0.460428
-0.368518
-0.286531
-0.212636
-0.146031
-0.0860308
-0.0324588
0.0144011
0.0535533
0.0839557
0.103862
0.111692
0.106691
-1.44609
-1.24882
-1.07591
-0.926165
-0.796182
-0.682927
-0.583119
-0.494282
-0.41432
-0.34144
-0.27479
-0.213614
-0.157744
-0.107448
-0.0635491
-0.0259981
0.00618039
0.0381619
0.0801132
-1.37213
-1.1853
-1.00968
-0.850418
-0.707744
-0.580527
-0.466528
-0.363581
-0.269539
-0.182346
-0.100481
-0.0219653
0.055487
0.135865
0.225828
0.33872
0.490222
0.699309
0.978026
-1.28755
-1.11888
-0.947974
-0.782432
-0.62525
-0.477281
-0.337631
-0.204555
-0.0757851
0.0517288
0.18136
0.31809
0.46867
0.642555
0.848297
1.094
1.37147
1.65666
1.9015
-1.17518
-1.04193
-0.900235
-0.758549
-0.621209
-0.490298
-0.365852
-0.246552
-0.130159
-0.0132562
0.108125
0.239471
0.386873
0.555545
0.743483
0.940497
1.11772
1.23975
1.27005
-1.0214
-0.911179
-0.788191
-0.660454
-0.532767
-0.407968
-0.286757
-0.168235
-0.0502416
0.0706781
0.19842
0.337389
0.490319
0.655421
0.82129
0.968922
1.07302
1.1187
1.11105
-0.864213
-0.771962
-0.666346
-0.553118
-0.436668
-0.320099
-0.204578
-0.0896314
0.0265563
0.146921
0.274299
0.41066
0.554469
0.698349
0.827365
0.924842
0.978199
0.989363
0.971745
-0.703742
-0.631487
-0.543588
-0.445488
-0.341368
-0.234467
-0.126361
-0.0171004
0.0945127
0.210437
0.331875
0.458159
0.584467
0.701113
0.794805
0.85564
0.881371
0.880481
0.864712
-0.499952
-0.444533
-0.373363
-0.291364
-0.202387
-0.10942
-0.0140713
0.0833394
0.183456
0.287223
0.39422
0.5018
0.603571
0.690378
0.752893
0.78746
0.797034
0.790423
0.775197
-0.307913
-0.266911
-0.211174
-0.144583
-0.0705928
0.00807248
0.0898312
0.174078
0.260866
0.350145
0.440124
0.527089
0.604523
0.665249
0.703869
0.720745
0.720358
0.709903
0.693971
-0.0989066
-0.0678619
-0.0245663
0.0278247
0.086427
0.148986
0.21426
0.281576
0.350642
0.420738
0.489232
0.552302
0.604277
0.640377
0.65819
0.66012
0.650366
0.634476
0.615324
0.108508
0.132935
0.166805
0.207014
0.251274
0.297861
0.346023
0.395137
0.444759
0.493786
0.539305
0.578016
0.605516
0.61913
0.618329
0.606083
0.585617
0.561
0.533748
0.315098
0.357224
0.409491
0.46707
0.526381
0.584464
0.639413
0.689615
0.733756
0.770245
0.796647
0.810658
0.810186
0.794873
0.765564
0.723597
0.668343
0.595075
0.49029
0.469391
0.466382
0.459876
0.45008
0.438342
0.426356
0.415974
0.408439
0.404253
0.402681
0.401799
0.398827
0.390928
0.375704
0.351397
0.31609
0.266551
0.195262
0.0875443
0.64233
0.657668
0.66838
0.674209
0.675506
0.672915
0.667162
0.658714
0.647675
0.633225
0.61438
0.589474
0.557004
0.515578
0.463927
0.399708
0.319226
0.216674
0.0847566
0.797068
0.807794
0.809184
0.802733
0.78985
0.771937
0.750231
0.725578
0.698312
0.667836
0.633558
0.594034
0.547987
0.49398
0.430666
0.356
0.268228
0.166696
0.0549871
0.938757
0.941516
0.931844
0.912615
0.886003
0.854009
0.818321
0.780041
0.739633
0.696567
0.650399
0.59976
0.54348
0.480226
0.40903
0.32879
0.239751
0.144078
0.0467783
1.07703
1.06814
1.04554
1.01253
0.971868
0.926158
0.877532
0.827261
0.775819
0.72259
0.667113
0.607983
0.544091
0.474286
0.398081
0.315155
0.226748
0.135417
0.0445256
1.20491
1.18147
1.14461
1.09703
1.0423
0.983787
0.923926
0.863967
0.804165
0.743634
0.68173
0.616906
0.54807
0.474221
0.39522
0.311116
0.22332
0.133853
0.0446193
1.28275
1.24775
1.19789
1.13776
1.07241
1.00567
0.939864
0.875787
0.813127
0.750483
0.686886
0.620574
0.550447
0.475601
0.396106
0.312084
0.22479
0.135665
0.0457653
1.37581
1.3268
1.26048
1.1854
1.10804
1.03248
0.960666
0.892718
0.827637
0.76342
0.698723
0.631522
0.560626
0.485103
0.405034
0.320377
0.232095
0.141157
0.0481198
1.45777
1.38661
1.30133
1.21165
1.1244
1.04312
0.968826
0.900548
0.83635
0.773511
0.710258
0.644264
0.574223
0.499109
0.418934
0.333429
0.243306
0.149216
0.0514159
1.50511
1.41015
1.30719
1.20629
1.11396
1.03237
0.960887
0.897104
0.837968
0.779995
0.721024
0.658452
0.590885
0.517196
0.437335
0.35081
0.25816
0.159799
0.0557296
1.51799
1.40048
1.28265
1.17546
1.08392
1.00779
0.944256
0.889227
0.838554
0.788068
0.735362
0.677626
0.613435
0.541579
0.461972
0.373899
0.277752
0.173703
0.0613997
1.51754
1.37527
1.2454
1.13705
1.0516
0.985468
0.933293
0.889439
0.848839
0.806825
0.76093
0.708203
0.647235
0.57673
0.496561
0.405731
0.304446
0.192523
0.0690713
1.48565
1.32078
1.18724
1.08665
1.01496
0.964783
0.92826
0.898544
0.869987
0.837686
0.799343
0.751945
0.694159
0.624595
0.54307
0.448212
0.339948
0.217573
0.0793936
1.34397
1.18001
1.06347
0.988612
0.945282
0.922408
0.910046
0.900833
0.889092
0.870098
0.842033
0.802
0.748853
0.681159
0.598699
0.49965
0.383536
0.248887
0.0927111
1.2028
1.05277
0.964407
0.923113
0.912076
0.917532
0.928632
0.938421
0.941757
0.934349
0.914967
0.880826
0.830867
0.763461
0.678183
0.572473
0.445093
0.293278
0.111847
1.02668
0.909631
0.868472
0.873031
0.900926
0.937931
0.973988
1.00349
1.02233
1.02689
1.0165
0.988535
0.94188
0.874547
0.785648
0.671536
0.52966
0.355196
0.139472
0.729438
0.700639
0.73882
0.807066
0.884215
0.959311
1.02515
1.07829
1.11608
1.13586
1.13743
1.11848
1.07769
1.01258
0.921508
0.799361
0.641447
0.439734
0.179719
0.441275
0.536582
0.664007
0.795942
0.919708
1.03006
1.1238
1.19963
1.25638
1.29235
1.30732
1.29943
1.2667
1.20587
1.11383
0.983329
0.805896
0.568022
0.244928
0.165805
0.402783
0.621617
0.815805
0.985298
1.13108
1.25435
1.35554
1.43493
1.49186
1.5256
1.53503
1.51707
1.46732
1.38039
1.24585
1.04887
0.766598
0.356496
-0.0413084
0.324606
0.622944
0.872065
1.08425
1.26521
1.42018
1.55067
1.65835
1.74381
1.80535
1.84306
1.85236
1.82751
1.75971
1.6339
1.42479
1.09337
0.566273
-0.14091
0.30887
0.66504
0.959328
1.21102
1.42767
1.6178
1.78348
1.92791
2.05347
2.1574
2.24193
2.30113
2.32827
2.31026
2.22598
2.03386
1.66764
1.00164
-0.124751
0.349077
0.738642
1.06835
1.35669
1.61009
1.83955
2.04772
2.2399
2.42148
2.58948
2.75001
2.89784
3.02782
3.12369
3.15946
3.07193
2.75293
1.99355
-0.022654
0.426768
0.830493
1.18809
1.51057
1.80145
2.07372
2.33173
2.58376
2.84092
3.10221
3.38115
3.68037
4.00537
4.34542
4.6841
4.94378
4.96926
4.43361
0.101891
0.513067
0.925081
1.30768
1.6621
1.98993
2.3059
2.61917
2.94124
3.29504
3.68511
4.13893
4.69073
5.39373
6.31342
7.62174
9.58833
12.7975
18.457
)
;

boundaryField
{
    up
    {
        type            calculated;
        value           nonuniform List<scalar> 
84
(
-18.457
-4.43361
-1.99355
-1.00164
-0.566274
-0.356497
-0.244928
-0.179719
-0.139472
-0.111846
-0.0927107
-0.0793935
-0.069071
-0.0613995
-0.0557296
-0.051416
-0.04812
-0.0457656
-0.0446198
-0.0445264
-0.0467799
-0.0549919
-0.0847695
-0.0876854
-0.421049
-0.505059
-0.589428
-0.668161
-0.747927
-0.834329
-0.934537
-1.05489
-1.18388
-1.89914
-1.03555
-0.0815549
-0.107101
-0.0715662
-0.0535441
-0.0331954
-0.022053
-0.0111479
0.0110765
0.0218931
0.0332027
0.0533955
0.0714165
0.106806
0.0823647
1.01909
1.90668
1.18467
1.05568
0.93518
0.834876
0.748427
0.668656
0.589969
0.50558
0.423103
0.0875443
0.0847566
0.0549871
0.0467783
0.0445256
0.0446193
0.0457653
0.0481198
0.0514159
0.0557296
0.0613997
0.0690713
0.0793936
0.0927111
0.111847
0.139472
0.179719
0.244928
0.356496
0.566273
1.00164
1.99355
4.43361
18.457
)
;
    }
    low
    {
        type            calculated;
        value           nonuniform List<scalar> 
84
(
-0.0920877
0.0370595
0.14829
0.166789
0.0577284
-0.168858
-0.46656
-0.77195
-1.07546
-1.24182
-1.37686
-1.50999
-1.52377
-1.51279
-1.49256
-1.43537
-1.34551
-1.25076
-1.16858
-1.03291
-0.891705
-0.750601
-0.59819
-0.431562
-0.285976
-0.0981906
0.086962
0.277759
0.460125
0.661973
0.827442
0.988957
1.15025
1.27393
1.3677
1.45393
1.42051
1.27849
1.08386
0.829497
0.528687
0.205085
-0.204988
-0.528597
-0.829408
-1.08379
-1.27845
-1.42051
-1.45393
-1.36794
-1.27385
-1.15034
-0.989017
-0.827503
-0.66203
-0.460175
-0.277811
-0.0870037
0.0981028
0.286042
0.431504
0.59823
0.750617
0.891721
1.03292
1.16859
1.25077
1.34552
1.43538
1.49256
1.5128
1.52378
1.50999
1.37687
1.24183
1.07548
0.77196
0.466569
0.168864
-0.0577252
-0.166789
-0.148291
-0.0370604
0.0920878
)
;
    }
    left
    {
        type            calculated;
        value           nonuniform List<scalar> 
19
(
-0.0902242
-0.491922
-0.911766
-1.307
-1.67618
-2.019
-2.35159
-2.68474
-3.03004
-3.41704
-3.84981
-4.36008
-4.99377
-5.82381
-6.93357
-8.56618
-11.096
-15.3389
-16.0094
)
;
    }
    right
    {
        type            calculated;
        value           nonuniform List<scalar> 
19
(
0.0902245
0.491922
0.911767
1.307
1.67618
2.019
2.35158
2.68474
3.03004
3.41704
3.8498
4.36008
4.99376
5.82381
6.93357
8.56617
11.096
15.3389
16.0094
)
;
    }
    frontAndBackPlanes
    {
        type            empty;
    }
}


// ************************************************************************* //
