/*--------------------------------*- C++ -*----------------------------------*\
  =========                 |
  \\      /  F ield         | OpenFOAM: The Open Source CFD Toolbox
   \\    /   O peration     | Website:  https://openfoam.org
    \\  /    A nd           | Version:  7
     \\/     M anipulation  |
\*---------------------------------------------------------------------------*/
FoamFile
{
    version     2.0;
    format      ascii;
    class       volScalarField;
    location    "0.03";
    object      gradTz;
}
// * * * * * * * * * * * * * * * * * * * * * * * * * * * * * * * * * * * * * //

dimensions      [0 -1 0 1 0 0 0];

internalField   nonuniform List<scalar> 
1596
(
-1.61195e-16
-7.12898e-17
8.00261e-17
8.32976e-18
-1.36519e-16
0
-5.56557e-17
-5.52151e-17
-1.17496e-17
-3.30026e-17
1.1354e-20
-3.36407e-17
1.61318e-16
-3.47367e-17
1.56239e-16
1.38525e-16
8.34717e-17
1.10937e-16
0
1.53128e-16
0
1.72979e-16
-4.29316e-18
-3.96895e-17
3.99517e-17
1.03455e-16
1.10071e-17
4.56643e-17
-2.28607e-17
4.6253e-17
1.04842e-19
-6.30944e-17
-4.02781e-17
-1.24921e-16
-1.25901e-16
-1.17901e-16
7.04835e-17
0
-6.54447e-17
0
-9.49588e-17
6.27304e-18
6.34789e-17
-2.97453e-17
6.33687e-18
-2.16756e-19
-7.77901e-20
1.14139e-20
8.30064e-18
0
3.25764e-17
8.34009e-17
-8.4135e-18
8.18417e-18
1.80987e-17
3.62642e-17
0
1.16052e-16
-2.27813e-17
2.26981e-17
0
-1.78846e-17
-2.03031e-17
2.39906e-17
-1.31054e-17
0
0
-1.49721e-17
4.40406e-18
0
-2.14914e-17
-2.10833e-17
1.66843e-17
-2.64898e-17
-1.27039e-18
0
2.16999e-17
3.96685e-17
-2.24836e-17
0
-3.5452e-18
-1.25337e-17
0
1.58587e-17
-1.20797e-18
-1.15355e-18
-6.55206e-18
5.97391e-18
8.84481e-18
1.38403e-18
6.21713e-18
-1.79396e-17
8.02772e-19
8.67037e-18
-4.81587e-18
-5.63511e-18
-5.21857e-17
3.51126e-17
-2.07358e-17
-1.88521e-19
-8.11554e-18
1.8301e-19
-1.83618e-19
-3.69295e-18
0
-3.66889e-18
-7.4234e-18
-7.813e-18
4.19382e-18
9.04355e-18
-1.01514e-19
-5.20436e-18
-8.79424e-18
7.62764e-18
4.70936e-17
-5.49901e-17
4.20765e-17
1.42957e-17
0
6.59536e-18
2.4208e-18
-9.64766e-19
4.43219e-18
-6.26949e-19
-3.89631e-18
-6.05662e-21
-1.50007e-18
-4.18782e-18
-2.15137e-18
2.37997e-18
5.25017e-18
-8.02449e-20
-2.67685e-18
1.35313e-17
9.26092e-17
-7.44184e-17
0
0
-7.04122e-18
0
0
0
9.71891e-19
0
0
1.54267e-18
-1.83915e-20
1.35955e-18
-2.20745e-18
0
1.17339e-18
7.38358e-19
0
-5.14485e-17
9.01147e-17
0
0
7.25148e-18
0
-7.77263e-19
7.76477e-19
-9.89244e-19
2.68551e-19
-2.70515e-19
0
3.71932e-19
9.58412e-19
0
-5.0178e-19
-1.19004e-18
-6.83139e-19
1.83631e-16
-7.73404e-17
0
-2.04836e-17
2.02543e-17
0
4.14936e-18
0
0
0
1.42273e-19
-1.42955e-19
0
-3.12439e-19
-5.65342e-20
0
2.93968e-19
2.05925e-19
0
-4.66541e-17
0
0
2.16011e-17
-3.34188e-17
5.61371e-18
2.1711e-18
-7.55421e-19
3.97365e-19
7.25023e-20
-1.70639e-19
-1.18299e-19
0
6.4979e-20
-2.29034e-20
2.32472e-20
1.78298e-19
-1.79921e-19
-6.14235e-20
2.16329e-17
-1.21927e-17
2.29495e-17
5.13541e-17
-9.48421e-18
-1.26181e-17
0
0
0
4.46726e-19
7.43017e-20
1.71772e-19
-3.83361e-20
-6.38166e-20
-1.64907e-20
-1.76667e-20
9.13017e-21
-2.891e-20
5.54464e-20
-3.48863e-17
3.58214e-17
-5.59573e-17
-5.11806e-17
3.91327e-17
6.89186e-18
-1.02262e-17
5.01208e-18
-2.32954e-18
5.62625e-19
1.56638e-19
-5.87024e-20
5.25368e-21
-8.92856e-21
3.34339e-20
0
-3.20479e-21
3.79088e-20
-6.68933e-21
-2.78849e-16
1.12088e-16
-7.84432e-20
-8.42241e-18
5.63393e-18
6.77973e-18
-1.11862e-17
-2.15837e-18
9.77948e-19
-4.20932e-19
-1.75787e-19
0
-5.23987e-20
-1.12689e-20
-7.87393e-21
-3.44841e-21
1.32113e-22
-1.02508e-20
4.30004e-21
4.54245e-17
-3.23949e-17
-2.59712e-19
-1.36611e-17
-1.99996e-17
1.62631e-17
1.45904e-19
2.10333e-18
-9.52161e-19
7.97913e-19
1.12446e-19
5.81176e-20
5.37905e-20
0
1.21845e-20
3.94454e-21
0
2.73334e-21
1.3815e-21
0
3.14268e-17
1.29343e-17
-3.32269e-17
1.8993e-17
-2.14081e-17
1.00625e-17
1.3821e-18
-7.56951e-19
-9.77909e-19
5.17781e-20
-5.15226e-20
-4.56654e-20
8.12388e-21
-2.85721e-21
-3.24822e-21
6.26199e-22
-3.65013e-22
6.26076e-22
-4.18473e-17
9.90807e-17
-7.76625e-17
2.32073e-17
0
0
-9.36255e-19
2.60382e-18
-5.27563e-19
8.10027e-19
0
0
2.68943e-20
-1.42677e-20
-3.32638e-21
9.36931e-22
-5.19759e-22
2.66667e-22
0
1.14195e-17
3.93272e-17
-1.83266e-17
-1.17402e-17
-9.27099e-18
1.3925e-18
3.03253e-18
0
-4.3875e-19
-7.7777e-20
9.21201e-20
-3.50978e-20
1.30449e-20
0
1.62472e-21
1.32826e-21
0
0
0
-1.13453e-17
3.23658e-17
5.82013e-19
-3.65016e-17
5.14272e-18
2.91037e-18
0
0
3.54511e-19
-2.16129e-19
-8.91002e-20
3.3946e-20
-1.26154e-20
0
-4.83981e-22
3.02123e-22
0
-5.90907e-23
-1.77289e-23
-2.49808e-17
7.53406e-17
-6.98061e-17
-1.35033e-17
8.38728e-18
-2.15833e-18
9.88075e-19
0
-1.74904e-19
8.77404e-20
0
0
2.62446e-21
-2.62748e-21
1.6267e-22
-3.02747e-22
9.96146e-23
2.50186e-23
1.35731e-23
1.6904e-17
-1.11703e-17
3.55563e-17
-2.11908e-17
-3.6983e-18
1.0416e-18
2.55821e-18
3.2283e-19
1.67357e-19
0
1.41229e-20
-1.28222e-20
4.60025e-21
-1.75597e-21
5.06341e-22
-4.78638e-22
-6.64345e-23
4.06353e-23
5.59785e-24
3.7031e-17
-4.16318e-17
0
9.93078e-18
-6.29697e-18
-1.66496e-18
1.89858e-19
-1.2293e-18
0
-6.5309e-21
-2.6427e-20
-6.06084e-21
3.21086e-21
-6.62433e-22
-4.8937e-22
1.66216e-22
0
1.12777e-23
-5.43547e-24
8.51199e-17
-9.50833e-18
2.20471e-17
-1.655e-17
2.62819e-18
-1.63741e-18
-1.66508e-18
-1.31917e-19
1.80092e-19
-1.68591e-20
-1.31664e-20
7.96492e-21
-2.00709e-21
-6.87754e-22
0
0
0
-1.127e-23
3.06159e-25
-6.01817e-17
5.46602e-17
-1.61636e-19
2.41102e-18
1.19057e-18
-1.14638e-18
8.73926e-19
-3.3082e-19
1.30914e-19
-1.04616e-20
1.74348e-20
1.52553e-21
-3.12309e-22
1.07628e-23
6.21531e-24
-1.6196e-23
0
0
0
0
0
9.7805e-18
-1.03721e-17
-8.32429e-18
0
0
-6.52035e-20
-4.92839e-20
1.54421e-20
0
-1.92398e-21
6.36788e-22
-7.07296e-22
6.76419e-22
-5.96692e-23
6.3041e-23
3.02682e-24
0
-1.13353e-17
1.14748e-17
0
-2.66195e-18
1.93991e-18
1.65849e-18
0
6.58262e-20
1.19372e-20
-9.4828e-20
0
-1.74892e-21
5.80247e-22
2.02182e-22
-7.07695e-23
5.23137e-23
0
-7.28908e-24
0
-5.88748e-18
-3.838e-18
2.35207e-19
2.73509e-18
-3.90184e-18
0
-2.41065e-19
0
1.13028e-19
1.68498e-20
0
6.17987e-21
-3.82863e-21
5.44118e-22
1.54639e-23
1.03612e-22
8.43238e-23
1.57392e-23
-1.25246e-23
0
1.01425e-17
-4.67365e-18
5.34547e-18
2.58369e-18
0
4.46445e-19
-3.23198e-19
-6.56993e-20
3.1887e-20
-4.31262e-20
-5.21252e-21
0
0
7.25324e-23
0
0
5.38269e-24
0
-5.52965e-17
4.43982e-17
0
1.20624e-18
-1.03245e-18
-4.09586e-20
5.05958e-19
5.07208e-20
-1.81771e-19
-1.07194e-19
5.56409e-20
-1.4475e-20
0
-4.67806e-22
0
0
0
-2.05278e-23
1.63155e-23
-1.80451e-17
1.25422e-17
2.11412e-17
-1.74364e-17
3.21879e-18
5.03024e-19
-5.03381e-19
2.09111e-19
1.62627e-19
4.90292e-20
-8.77295e-20
0
3.19735e-21
-2.05385e-21
-5.45754e-22
-8.04812e-24
-1.78409e-23
-1.66941e-23
1.0282e-24
-6.99373e-17
6.07849e-17
-5.59988e-17
5.97428e-18
2.91091e-18
-2.18053e-18
1.18619e-18
-3.79942e-19
0
-8.89484e-20
4.01063e-20
1.44673e-20
1.08594e-20
2.4389e-21
-2.93711e-21
-2.27765e-22
0
1.75278e-23
-1.47929e-23
-7.5356e-17
-1.5408e-17
-1.7336e-17
1.10895e-17
-8.06368e-18
4.16302e-18
-1.9305e-18
7.13163e-19
-1.43953e-19
-1.00802e-19
-7.09984e-20
5.80432e-20
1.61844e-21
7.84324e-21
-8.4198e-21
-4.83288e-22
1.77387e-22
0
5.72513e-23
8.14764e-17
-1.75367e-17
0
0
-8.5543e-18
1.40628e-17
-2.30687e-18
-1.6057e-19
8.5038e-19
-5.46985e-20
0
0
-1.47851e-20
0
-9.86473e-21
1.49323e-20
-7.84716e-21
0
-4.71226e-23
2.50188e-17
3.81541e-17
0
-9.80981e-18
-4.08921e-18
-1.0415e-18
-2.47964e-18
4.84234e-19
-1.01889e-18
-2.05872e-19
0
0
6.6947e-20
0
0
-1.99416e-20
3.86014e-20
0
0
1.728e-16
-3.30383e-17
-7.74735e-17
-2.42982e-17
3.4238e-17
6.3057e-18
2.40432e-18
0
-3.43788e-19
2.04274e-19
4.13242e-19
-1.05333e-19
-5.87465e-20
6.32776e-20
-6.73079e-20
-8.30012e-21
0
0
0
1.38088e-17
-8.42534e-17
8.06567e-17
-5.49603e-18
-2.79874e-17
3.74277e-17
-1.54742e-17
0
0
1.81217e-18
-1.26278e-18
0
-1.06218e-19
2.07322e-19
-6.52298e-21
3.27044e-20
7.20254e-21
2.16571e-22
1.04646e-21
0
0
0
4.38133e-17
-3.02864e-17
1.66396e-17
-2.35018e-17
5.23367e-18
0
-7.06576e-19
6.447e-19
-6.58921e-19
-6.31236e-20
8.95056e-21
-2.14099e-20
-1.51257e-21
-1.36579e-20
-3.81378e-21
-1.82587e-21
1.08259e-16
-1.77104e-16
7.61427e-17
0
9.39844e-18
-1.33914e-17
7.30527e-18
-5.64306e-18
0
-8.88449e-19
1.29845e-18
0
0
9.57024e-21
0
-2.63726e-20
1.6721e-20
9.445e-22
3.15469e-21
1.21575e-16
0
-2.85333e-17
3.14938e-17
-1.17926e-17
2.31774e-17
-9.27694e-18
-3.77482e-18
3.81424e-18
-2.31236e-19
0
0
5.41928e-20
-5.86098e-20
-3.18444e-20
5.5446e-20
-1.09153e-20
4.10069e-21
0
6.84752e-17
3.93572e-17
-8.08655e-18
-3.04765e-17
-2.11636e-18
-1.0331e-17
3.37435e-18
6.31799e-18
-1.98641e-19
2.35578e-19
0
0
-5.55169e-20
0
3.81164e-20
-4.07755e-20
0
3.99436e-21
-1.04141e-21
-3.6225e-17
-1.98184e-17
1.86789e-17
-1.53741e-18
-5.42407e-19
1.10791e-18
0
-1.60926e-19
1.52124e-18
-1.27411e-18
0
1.61981e-19
-6.57549e-20
-1.07417e-19
-6.90504e-21
-4.53526e-21
0
-3.18148e-21
0
1.29805e-17
-2.28661e-17
1.4583e-18
7.35077e-18
4.21092e-18
-4.06114e-18
-1.6398e-18
1.82279e-18
-3.36201e-19
2.77556e-19
-1.33737e-19
1.37861e-19
0
1.6884e-22
-4.56151e-21
1.68632e-20
-4.837e-23
0
0
1.2981e-17
-1.29324e-17
-7.30931e-18
6.5771e-18
7.33285e-18
-7.37614e-18
-8.19978e-19
8.22903e-19
-3.39505e-19
3.42852e-19
-1.33757e-19
2.2225e-19
-6.08283e-20
-2.83575e-20
-5.606e-21
2.43912e-21
3.86466e-21
8.98103e-22
-6.62213e-22
0
-2.8263e-18
1.25157e-17
-1.38719e-17
7.27624e-18
-6.57874e-18
0
2.08315e-18
-1.90901e-18
0
2.58557e-19
-3.15484e-19
-1.02548e-19
1.07476e-19
1.28737e-20
0
0
-3.18475e-21
1.11857e-21
5.1559e-17
-8.78623e-17
7.44543e-17
-5.2713e-17
1.85807e-17
-8.89963e-18
8.7011e-18
6.05797e-19
-1.45764e-18
1.27542e-18
0
-3.40204e-19
3.10035e-19
-3.48503e-20
-1.26098e-20
1.43759e-20
9.20035e-21
3.09179e-21
-1.08079e-21
1.35976e-16
0
-3.26976e-17
2.55596e-17
2.09244e-18
-1.06727e-17
1.61922e-17
-1.03949e-17
3.46333e-18
-7.13433e-19
7.30261e-19
8.76979e-20
9.56792e-20
3.39445e-20
-1.84444e-20
-3.98677e-21
-1.98068e-20
0
1.39521e-21
9.40545e-17
-1.05928e-16
0
5.86223e-18
1.73573e-17
-1.6039e-17
1.69241e-18
1.05553e-18
3.45903e-19
3.83291e-19
0
0
-1.48758e-19
2.22274e-19
-6.87222e-20
-1.53032e-20
1.67544e-20
1.06366e-21
-2.52192e-21
2.6096e-17
9.37623e-17
-7.96162e-18
-3.82078e-17
3.41248e-17
2.58842e-18
-1.65633e-18
-1.03094e-18
1.90175e-18
-2.28949e-18
6.45695e-19
-6.5993e-19
3.18067e-20
-7.58429e-20
5.9215e-20
-3.99766e-20
0
0
1.27664e-21
0
2.11466e-17
-4.52544e-17
5.27035e-17
-2.42896e-17
2.42318e-17
0
2.85784e-18
-2.87094e-18
-9.46233e-19
1.26557e-18
0
1.67174e-19
-2.07868e-19
-2.04405e-20
0
-1.05419e-21
-1.04517e-21
-5.421e-22
-2.39064e-16
1.03327e-16
0
-3.42524e-17
3.4249e-17
1.10285e-17
-7.01603e-18
1.37977e-18
0
-2.36116e-20
3.36736e-20
-1.05471e-19
-5.88695e-20
6.34134e-20
-6.74295e-20
0
4.23105e-21
5.7939e-22
-7.30726e-22
1.37691e-16
-1.26842e-16
0
9.09408e-18
5.7904e-18
-4.10813e-18
0
-1.44601e-18
-5.86714e-19
0
-8.93691e-20
0
6.72052e-20
0
0
3.94794e-21
9.82867e-21
-1.52359e-20
0
-1.2866e-19
1.75483e-17
-1.18713e-17
4.56847e-18
-2.64281e-17
8.02783e-18
0
1.61004e-19
3.74168e-19
0
-1.37303e-19
1.29426e-19
-1.3597e-19
6.18662e-21
0
-2.6306e-21
0
0
0
-1.18766e-19
0
1.0972e-17
0
-6.21476e-18
6.31356e-18
0
4.94469e-19
-1.93015e-19
4.63684e-19
-1.74986e-19
1.58191e-20
-1.19139e-20
2.29222e-21
-8.48225e-21
-7.727e-22
0
7.2589e-23
0
4.73683e-17
-8.1496e-17
0
-5.40184e-18
2.97326e-18
0
0
-7.7971e-19
0
-8.9268e-20
-4.02763e-20
-1.45393e-20
1.09231e-20
0
3.32224e-22
0
0
-1.14437e-22
7.84715e-23
0
5.43268e-17
-4.18684e-17
5.00087e-18
-2.75326e-18
-4.54033e-19
9.65774e-19
5.08676e-19
-2.30101e-19
6.85899e-20
1.68512e-20
-4.43348e-21
1.46562e-20
-3.08219e-21
-1.29e-21
1.42355e-22
3.32205e-24
-1.74463e-23
-2.89978e-24
-1.31083e-16
4.46991e-17
0
0
7.22585e-19
-7.34787e-19
2.34609e-20
-8.97793e-20
1.39879e-19
2.68256e-20
-1.97526e-20
-2.74124e-21
-9.5159e-22
4.69472e-22
0
2.1301e-23
-3.0449e-24
5.78052e-24
2.62099e-24
0
2.86991e-17
-1.89118e-17
4.74603e-18
1.76571e-18
-2.87409e-19
-3.27001e-19
-1.27443e-19
-1.58679e-19
2.16943e-20
2.33228e-22
7.22905e-21
8.89854e-22
-2.67613e-22
2.84055e-22
5.27705e-23
-6.62432e-23
-5.33917e-24
0
-8.30369e-18
-2.46597e-17
5.40845e-18
2.73702e-18
-4.50102e-18
2.40546e-18
2.90715e-19
-2.97155e-19
6.24614e-20
-2.0589e-20
0
0
-7.74006e-22
1.07729e-21
-2.82235e-22
7.83629e-23
-8.49386e-23
7.29292e-24
-1.2777e-23
1.38241e-17
9.11101e-18
-5.04074e-18
1.04671e-18
-2.55123e-18
-9.78613e-19
0
0
0
0
0
0
5.93662e-22
-5.39594e-22
5.70679e-22
-4.63483e-23
6.60883e-23
1.27524e-23
-1.00329e-23
3.23062e-17
-2.7523e-17
3.28472e-17
-4.59795e-18
7.19323e-18
-1.25997e-18
1.74954e-18
-5.53827e-19
-6.02185e-20
6.16008e-20
0
1.92156e-21
-5.79977e-22
5.10277e-22
-3.63694e-22
-1.48046e-22
-9.14125e-23
1.03318e-23
7.15529e-24
5.219e-17
8.99444e-18
0
-4.98022e-18
-1.55264e-18
2.61591e-18
-1.80964e-19
-2.69314e-19
8.82337e-20
-2.02825e-20
0
-1.52113e-21
0
-2.99408e-22
1.35189e-22
-5.10242e-23
-1.05954e-23
2.41957e-24
0
7.01655e-17
-9.50811e-18
2.23546e-17
-1.68347e-17
-1.45336e-18
2.33658e-18
-1.32093e-18
9.34476e-20
4.48929e-20
-2.78321e-20
1.72858e-20
0
0
5.80353e-22
-8.02148e-24
3.45946e-24
3.60885e-23
-9.02975e-24
0
-6.97461e-20
0
-5.9723e-18
2.003e-17
-1.18072e-17
-4.5352e-18
2.3093e-18
-6.09909e-19
4.62165e-19
7.95595e-20
-2.65123e-20
6.63793e-21
-3.2734e-21
6.13666e-22
8.64082e-22
-4.63905e-23
-5.45169e-23
3.17713e-23
-6.01604e-24
1.52851e-16
-4.44975e-17
7.38673e-18
-2.85065e-17
3.69829e-18
-3.06806e-18
1.95575e-18
0
0
-1.00955e-20
-2.05737e-20
-2.67737e-21
0
-1.48659e-21
-5.06359e-22
1.71754e-22
-6.17585e-24
2.00939e-23
1.52681e-23
0
-3.6929e-17
3.90299e-17
-1.19749e-18
-1.82e-17
2.15832e-18
-1.55386e-18
8.67314e-19
6.63117e-19
0
0
1.98676e-21
7.3429e-21
0
-1.01564e-21
-2.2074e-22
3.75348e-23
-1.46752e-23
-2.71137e-23
0
-1.73909e-17
1.58128e-17
2.69622e-17
7.69467e-18
-1.21548e-17
4.02749e-18
-8.45125e-19
5.6005e-19
-2.25839e-19
0
0
0
-4.61212e-21
1.76498e-23
-4.86419e-22
0
-5.83344e-24
2.36675e-23
-1.08503e-16
9.50695e-17
5.80897e-17
-6.76366e-17
1.50934e-17
-1.2463e-17
0
1.02409e-18
-1.16631e-18
3.89174e-19
-1.11744e-19
4.33585e-20
1.64238e-20
4.76995e-21
1.74727e-21
0
0
0
0
1.37869e-16
-5.91878e-17
0
0
-6.94995e-18
8.87481e-18
-5.33712e-18
-1.21148e-18
1.19783e-18
2.88693e-19
2.50652e-19
-4.49886e-20
9.85842e-21
1.38716e-21
9.32166e-22
3.2963e-22
6.02209e-22
-2.00902e-23
2.04637e-23
-1.32256e-16
1.05272e-16
3.38502e-17
-2.02062e-17
1.86883e-17
-1.12914e-17
-4.12197e-18
-1.96007e-18
0
-6.31206e-19
1.14037e-19
6.20075e-20
-2.12319e-20
-8.12475e-21
-1.26249e-21
-3.31458e-22
-3.35589e-22
0
0
-4.5343e-17
0
2.1818e-17
2.38236e-19
0
0
4.25194e-18
2.02251e-18
0
3.88433e-19
0
-8.75155e-20
-5.13504e-21
1.22909e-20
0
3.72462e-21
-3.7652e-22
3.84101e-22
0
1.05441e-16
0
3.67651e-17
-5.8379e-17
3.8345e-17
1.56982e-17
-2.13911e-18
0
2.78021e-19
7.02979e-19
0
-1.03192e-19
6.68497e-20
-3.59189e-20
-5.42267e-21
-2.68553e-21
-1.19559e-21
-4.59092e-22
-5.95668e-21
-8.219e-17
1.14214e-16
-2.28435e-17
-4.27138e-17
-1.67225e-17
-9.1268e-18
-9.19482e-18
-1.61786e-18
5.88006e-19
1.56937e-19
-1.56642e-19
1.6796e-19
-4.64841e-20
5.68125e-20
-9.03383e-21
0
2.45042e-20
-2.43884e-20
5.22969e-21
2.16845e-16
-1.07477e-17
-1.01344e-16
5.13545e-17
-3.50099e-17
1.93875e-17
-2.05619e-18
-2.1178e-18
9.78924e-19
1.60396e-19
-8.60525e-20
-1.65178e-19
2.38783e-20
5.69049e-20
-8.65115e-21
8.74982e-21
-2.53804e-20
-4.95979e-20
-5.11062e-20
1.06452e-16
3.34333e-17
4.45724e-17
-2.67502e-17
-1.21067e-17
3.79007e-18
-3.171e-18
6.52802e-18
3.83813e-19
8.36586e-19
2.7633e-19
-1.90431e-19
0
-6.49513e-20
0
0
2.0525e-19
6.29586e-20
5.53663e-20
9.11011e-17
0
4.16467e-17
2.65776e-17
-1.43504e-17
8.19268e-18
0
-2.01979e-18
-1.64897e-18
-8.60888e-19
-2.78776e-19
1.92584e-19
0
0
0
0
-1.97001e-19
-4.99113e-19
0
-1.77843e-16
0
-8.68888e-18
-8.3879e-18
2.23083e-17
-4.7956e-18
-1.0912e-18
-1.38244e-18
1.62247e-18
0
2.68533e-19
-1.81199e-20
5.69498e-19
0
0
1.06271e-18
-8.77576e-20
6.03826e-19
-7.20852e-19
1.19186e-16
2.3849e-17
-2.36028e-17
-1.41572e-17
-2.65071e-17
1.19091e-17
7.99919e-18
-6.69386e-19
-1.32252e-18
1.82814e-18
2.77498e-19
-2.03899e-18
-1.11096e-18
-1.66804e-18
-1.99256e-18
-1.24853e-18
2.67744e-18
-1.04263e-19
7.38305e-19
-3.30882e-17
1.11471e-17
-4.56465e-17
4.13316e-18
-4.11812e-18
0
-4.10604e-18
-1.63308e-18
-3.80776e-18
1.81837e-18
3.89627e-18
1.73373e-18
-6.303e-19
-1.56599e-18
1.79098e-18
0
-7.83237e-18
-4.75715e-18
-8.48438e-20
7.60208e-17
-1.3293e-18
6.88409e-17
-2.2734e-17
1.88521e-19
3.38633e-19
8.55332e-18
-3.36606e-18
3.6929e-18
-3.50327e-18
-3.5061e-18
0
7.81311e-18
4.10392e-18
9.80379e-20
-1.53189e-19
5.2586e-18
4.82218e-18
0
-5.14861e-17
0
-3.55428e-18
2.36847e-17
1.31876e-18
3.54992e-18
-8.27093e-18
7.31922e-18
1.32519e-17
1.32434e-17
1.35064e-17
0
-7.59029e-18
0
7.39458e-19
-7.67993e-19
0
-1.29735e-19
8.23243e-18
4.24987e-17
8.49071e-18
-1.29187e-17
4.64655e-17
-1.27166e-17
0
0
-2.33666e-17
-1.28398e-17
-1.28299e-17
-3.24592e-17
-4.40406e-18
0
0
0
-2.58585e-18
2.73648e-18
2.40673e-17
-8.38917e-18
1.02334e-17
0
-4.23078e-17
-2.67082e-17
3.57918e-17
-3.94593e-17
-5.29433e-17
5.1786e-17
2.32985e-17
0
2.2977e-17
3.92884e-17
-7.83374e-18
4.97608e-17
-8.32229e-18
8.66148e-18
4.21124e-17
-2.28906e-17
0
-7.84494e-17
0
-6.56958e-17
6.16328e-17
0
8.52729e-17
3.67771e-17
-9.14383e-17
8.82068e-17
-1.50871e-21
-2.30948e-17
-3.80393e-17
0
8.14227e-17
-1.24921e-16
1.38091e-16
-1.76899e-16
0
0
8.04875e-17
-2.86422e-18
-6.38439e-18
-1.37976e-16
1.47025e-16
-6.66916e-17
6.64198e-17
6.58772e-17
-4.33988e-17
0
0
1.24934e-16
-1.27087e-16
-1.1742e-16
1.20296e-16
-1.21068e-16
1.35133e-16
-2.17648e-16
0
)
;

boundaryField
{
    up
    {
        type            calculated;
        value           nonuniform List<scalar> 
84
(
0
0
0
0
-4.81587e-18
7.62764e-18
-2.67685e-18
7.38358e-19
-6.83139e-19
0
-6.14235e-20
5.54464e-20
-6.68933e-21
4.30004e-21
1.3815e-21
6.26076e-22
0
0
-1.77289e-23
1.35731e-23
5.59785e-24
-5.43547e-24
3.06159e-25
0
2.03368e-24
2.03221e-24
-1.05113e-23
0
1.63155e-23
-1.46278e-23
-1.47929e-23
5.72513e-23
-4.71226e-23
0
6.68206e-22
9.34702e-22
-1.66393e-21
2.96963e-21
0
-9.41054e-22
0
0
-6.3827e-22
1.11857e-21
-1.08079e-21
1.39521e-21
-2.52192e-21
1.27664e-21
-5.421e-22
-7.30726e-22
0
0
0
7.84715e-23
1.56287e-23
2.62099e-24
0
-1.2777e-23
-1.00329e-23
5.13053e-24
0
0
-6.01604e-24
1.52681e-23
-2.71137e-23
2.36675e-23
0
2.04637e-23
0
0
-5.95668e-21
5.22969e-21
-5.11062e-20
5.53663e-20
0
-7.20852e-19
7.38305e-19
-8.48438e-20
0
8.23243e-18
-8.38917e-18
0
0
0
)
;
    }
    low
    {
        type            calculated;
        value           nonuniform List<scalar> 
84
(
-1.61949e-16
1.53128e-16
-6.41045e-17
1.16987e-16
2.22478e-17
-5.77716e-18
4.81704e-17
1.45002e-17
0
1.8489e-16
-4.66541e-17
2.06268e-17
-3.48863e-17
-2.79536e-16
4.54245e-17
0
-4.18473e-17
1.14195e-17
-1.13453e-17
-2.49808e-17
1.6904e-17
3.7031e-17
8.52103e-17
-6.01817e-17
0
-1.13353e-17
-5.88748e-18
0
-5.52965e-17
-1.80451e-17
-7.01298e-17
-7.56549e-17
8.18842e-17
2.50188e-17
1.7341e-16
1.38088e-17
0
1.08259e-16
1.22597e-16
6.89953e-17
-3.64899e-17
1.29805e-17
1.2981e-17
0
5.1559e-17
1.36998e-16
9.40545e-17
2.70221e-17
0
-2.39673e-16
1.37691e-16
-1.2866e-19
-1.18766e-19
4.73683e-17
0
-1.30798e-16
0
-8.30369e-18
1.38241e-17
3.21424e-17
5.21499e-17
7.02557e-17
-6.97461e-20
1.53141e-16
0
0
-1.08503e-16
1.38381e-16
-1.32833e-16
-4.5343e-17
1.06129e-16
-8.219e-17
2.18858e-16
1.07577e-16
9.11011e-17
-1.77843e-16
1.18217e-16
-3.20114e-17
7.60208e-17
-5.09382e-17
4.24987e-17
1.15736e-17
-7.84494e-17
8.08648e-17
)
;
    }
    left
    {
        type            calculated;
        value           nonuniform List<scalar> 
19
(
-1.61195e-16
-7.12627e-17
8.00261e-17
8.9354e-18
-1.37315e-16
0
-5.56557e-17
-5.52151e-17
-1.27928e-17
-3.30026e-17
1.1354e-20
-3.36407e-17
1.6377e-16
-3.47367e-17
1.56239e-16
1.38525e-16
8.34717e-17
1.2809e-16
0
)
;
    }
    right
    {
        type            calculated;
        value           nonuniform List<scalar> 
19
(
8.04875e-17
-2.89132e-18
-6.38439e-18
-1.38581e-16
1.4782e-16
-6.66916e-17
6.64198e-17
6.58772e-17
-4.23555e-17
0
0
1.2725e-16
-1.29538e-16
-1.1742e-16
1.20296e-16
-1.21068e-16
1.35133e-16
-2.348e-16
0
)
;
    }
    frontAndBackPlanes
    {
        type            empty;
    }
}


// ************************************************************************* //
