/*--------------------------------*- C++ -*----------------------------------*\
  =========                 |
  \\      /  F ield         | OpenFOAM: The Open Source CFD Toolbox
   \\    /   O peration     | Website:  https://openfoam.org
    \\  /    A nd           | Version:  7
     \\/     M anipulation  |
\*---------------------------------------------------------------------------*/
FoamFile
{
    version     2.0;
    format      ascii;
    class       volScalarField;
    location    "0.489";
    object      gradTx;
}
// * * * * * * * * * * * * * * * * * * * * * * * * * * * * * * * * * * * * * //

dimensions      [0 -1 0 1 0 0 0];

internalField   nonuniform List<scalar> 
1596
(
-0.187555
-0.946087
-1.71066
-2.42851
-3.10421
-3.74204
-4.37004
-5.00532
-5.66884
-6.40332
-7.21583
-8.15774
-9.29441
-10.7296
-12.5927
-15.2263
-19.1701
-25.5937
-36.9142
0.0425477
-0.785026
-1.53195
-2.20003
-2.81134
-3.37329
-3.91044
-4.43058
-4.94853
-5.48426
-6.03411
-6.62233
-7.25195
-7.93159
-8.63798
-9.33671
-9.87181
-9.93281
-8.86652
0.231595
-0.638766
-1.35694
-1.96999
-2.51328
-2.99928
-3.44854
-3.86563
-4.25972
-4.63991
-4.9989
-5.34674
-5.67126
-5.96013
-6.17908
-6.27448
-6.11881
-5.49492
-3.98495
0.262458
-0.560956
-1.21509
-1.75972
-2.23117
-2.64374
-3.01319
-3.34297
-3.63842
-3.90303
-4.13025
-4.32283
-4.46756
-4.54931
-4.54033
-4.39681
-4.03429
-3.31913
-1.99942
0.0805948
-0.585862
-1.13151
-1.59055
-1.98595
-2.32833
-2.62732
-2.88536
-3.10505
-3.28667
-3.42597
-3.52195
-3.56432
-3.54026
-3.43082
-3.20444
-2.80924
-2.16598
-1.12702
-0.297819
-0.725346
-1.12349
-1.47993
-1.79451
-2.06899
-2.30548
-2.50448
-2.66613
-2.78858
-2.8697
-2.90645
-2.89178
-2.81589
-2.66684
-2.42254
-2.05213
-1.50864
-0.706003
-0.799632
-0.966424
-1.19625
-1.43761
-1.6669
-1.87426
-2.05365
-2.20242
-2.31815
-2.39726
-2.43877
-2.43858
-2.39205
-2.29191
-2.13102
-1.8939
-1.56249
-1.10859
-0.481673
-1.322
-1.26201
-1.32852
-1.45303
-1.59632
-1.73786
-1.8643
-1.96901
-2.04693
-2.09289
-2.10609
-2.08187
-2.01712
-1.90645
-1.74576
-1.52417
-1.23126
-0.849974
-0.350337
-1.85784
-1.63848
-1.56122
-1.57018
-1.62391
-1.69579
-1.76718
-1.82746
-1.86887
-1.88464
-1.87321
-1.82959
-1.75131
-1.63421
-1.47597
-1.26889
-1.00701
-0.679867
-0.269263
-2.17083
-1.89321
-1.73099
-1.65704
-1.64019
-1.6546
-1.68018
-1.70375
-1.7157
-1.70808
-1.67834
-1.62141
-1.53512
-1.41625
-1.2636
-1.07188
-0.837933
-0.555554
-0.213644
-2.41901
-2.11839
-1.9066
-1.77288
-1.69831
-1.66193
-1.64525
-1.63426
-1.61833
-1.58874
-1.54187
-1.47262
-1.37879
-1.25779
-1.10904
-0.928964
-0.716119
-0.467084
-0.175277
-2.66666
-2.36715
-2.12691
-1.94862
-1.82451
-1.74027
-1.68111
-1.63383
-1.58775
-1.53381
-1.46747
-1.38351
-1.27958
-1.15335
-1.00459
-0.830884
-0.631832
-0.405775
-0.148892
-2.71597
-2.45902
-2.22711
-2.03639
-1.88897
-1.77737
-1.69126
-1.61953
-1.55243
-1.48121
-1.40099
-1.30667
-1.19584
-1.06653
-0.918818
-0.751271
-0.564278
-0.35743
-0.128674
-2.70944
-2.49863
-2.29006
-2.10319
-1.94661
-1.81884
-1.71402
-1.62373
-1.53973
-1.45401
-1.36171
-1.25793
-1.14027
-1.00708
-0.858709
-0.694516
-0.515536
-0.322298
-0.114019
-2.6797
-2.51077
-2.33063
-2.15703
-2.00115
-1.86579
-1.74893
-1.64501
-1.54758
-1.44969
-1.34678
-1.23418
-1.10959
-0.971561
-0.82073
-0.657137
-0.482423
-0.297882
-0.103667
-2.5894
-2.46403
-2.31702
-2.16531
-2.02063
-1.8882
-1.76877
-1.65925
-1.55499
-1.45017
-1.34077
-1.2224
-1.09283
-0.950831
-0.797309
-0.63297
-0.460157
-0.280957
-0.0963123
-2.43884
-2.35365
-2.24158
-2.11752
-1.99247
-1.87258
-1.76016
-1.65393
-1.55071
-1.44573
-1.33549
-1.21587
-1.0847
-0.940804
-0.785306
-0.619552
-0.446753
-0.270041
-0.0913071
-2.27002
-2.21038
-2.12865
-2.03273
-1.93098
-1.82917
-1.73017
-1.6338
-1.5379
-1.43851
-1.33256
-1.21605
-1.08669
-0.94317
-0.786522
-0.618525
-0.44335
-0.265575
-0.0886041
-2.12943
-2.09112
-2.03379
-1.96198
-1.88147
-1.79708
-1.71182
-1.62622
-1.53892
-1.44663
-1.34659
-1.23481
-1.10872
-0.96647
-0.808504
-0.636409
-0.454975
-0.270535
-0.0889662
-1.9016
-1.88951
-1.85828
-1.81362
-1.75985
-1.70058
-1.6382
-1.57322
-1.50451
-1.42901
-1.34405
-1.24547
-1.13029
-0.995933
-0.841742
-0.668241
-0.479878
-0.284555
-0.0921581
-1.65672
-1.66591
-1.6585
-1.63955
-1.61248
-1.57988
-1.54338
-1.50317
-1.45801
-1.40477
-1.34055
-1.26093
-1.16241
-1.0416
-0.896366
-0.725025
-0.529497
-0.316857
-0.101415
-1.40683
-1.43104
-1.44435
-1.44951
-1.44866
-1.44344
-1.43473
-1.4223
-1.4046
-1.37824
-1.33984
-1.28452
-1.2083
-1.10721
-0.977853
-0.815867
-0.617998
-0.384266
-0.12568
-1.13458
-1.16802
-1.19904
-1.22738
-1.25343
-1.27763
-1.30006
-1.3199
-1.33521
-1.34209
-1.33626
-1.31219
-1.26522
-1.19128
-1.08686
-0.946444
-0.761621
-0.519317
-0.203465
-0.830788
-0.833448
-0.835057
-0.835625
-0.836887
-0.840981
-0.850115
-0.865304
-0.885974
-0.909162
-0.929639
-0.940447
-0.935034
-0.907967
-0.855383
-0.773003
-0.653499
-0.479086
-0.214641
-0.559426
-0.643261
-0.75147
-0.876434
-1.01231
-1.15382
-1.29689
-1.43727
-1.57033
-1.69025
-1.78907
-1.85873
-1.89222
-1.88653
-1.84185
-1.75987
-1.63849
-1.46606
-1.21043
-0.195409
-0.249658
-0.325719
-0.418231
-0.523056
-0.636884
-0.757915
-0.884362
-1.01431
-1.14415
-1.26639
-1.37223
-1.45102
-1.49587
-1.50501
-1.48449
-1.44166
-1.38574
-1.32041
0.17165
0.104251
0.0105047
-0.103992
-0.233989
-0.375292
-0.525454
-0.682977
-0.846756
-1.01447
-1.17966
-1.33277
-1.46064
-1.55186
-1.60053
-1.61124
-1.59335
-1.5591
-1.51515
0.543513
0.45672
0.339407
0.198653
0.0408385
-0.12897
-0.307837
-0.494644
-0.689351
-0.891425
-1.09657
-1.29587
-1.47456
-1.61619
-1.70841
-1.75113
-1.75414
-1.73288
-1.69756
0.888087
0.773704
0.627066
0.457375
0.271893
0.0762867
-0.126487
-0.335954
-0.553476
-0.780845
-1.01698
-1.25561
-1.48256
-1.67736
-1.81929
-1.8994
-1.92401
-1.91174
-1.8791
1.25766
1.11139
0.93323
0.733586
0.520474
0.300123
0.0754069
-0.153781
-0.390066
-0.63755
-0.898835
-1.17223
-1.44727
-1.70269
-1.90945
-2.04504
-2.10438
-2.10501
-2.07227
1.55406
1.3694
1.1571
0.928481
0.692132
0.454193
0.21683
-0.0210127
-0.263204
-0.515922
-0.785362
-1.07572
-1.38394
-1.69415
-1.97423
-2.18725
-2.30577
-2.33281
-2.29708
1.84959
1.62979
1.38386
1.12752
0.870253
0.617775
0.371404
0.129313
-0.113022
-0.362834
-0.628594
-0.919819
-1.24284
-1.59422
-1.95004
-2.2688
-2.4959
-2.59782
-2.58481
2.14446
1.87969
1.59734
1.31419
1.03894
0.775896
0.525146
0.284116
0.0482068
-0.18964
-0.437968
-0.708567
-1.01498
-1.369
-1.76753
-2.18878
-2.57131
-2.8376
-2.9077
2.36891
2.03559
1.69682
1.36782
1.05462
0.759075
0.479355
0.212018
-0.0475734
-0.305662
-0.56937
-0.849278
-1.1601
-1.52258
-1.95639
-2.47988
-3.07735
-3.69741
-4.2365
2.54524
2.17297
1.82183
1.50262
1.21623
0.96089
0.732395
0.526749
0.33985
0.167739
0.00748475
-0.144932
-0.294281
-0.44914
-0.624285
-0.848942
-1.15838
-1.59524
-2.18767
2.70626
2.31206
1.96601
1.66653
1.40724
1.18249
0.985873
0.812647
0.658699
0.520482
0.396406
0.284901
0.185755
0.0995795
0.0280692
-0.0289122
-0.0737247
-0.118141
-0.184838
2.63879
2.18549
1.8044
1.48213
1.20693
0.970279
0.764402
0.583822
0.424227
0.282033
0.155805
0.0441686
-0.0530776
-0.135294
-0.200438
-0.246406
-0.269629
-0.267112
-0.237442
2.37971
1.95095
1.59956
1.30853
1.06468
0.858516
0.682199
0.530175
0.39832
0.283366
0.183771
0.0981398
0.0257352
-0.033857
-0.0807081
-0.115515
-0.13899
-0.152493
-0.157626
2.02466
1.65257
1.35025
1.10258
0.897484
0.72603
0.581093
0.457533
0.351621
0.260397
0.182188
0.115505
0.0591586
0.0121539
-0.0263093
-0.0573961
-0.0821362
-0.101578
-0.116786
1.55371
1.26038
1.02577
0.836238
0.681242
0.553056
0.445787
0.355167
0.278151
0.212317
0.156151
0.108343
0.0677269
0.0333321
0.00438754
-0.020008
-0.0405558
-0.0577846
-0.0722489
0.991778
0.795355
0.642797
0.521926
0.424407
0.344514
0.278152
0.222405
0.175233
0.135027
0.100727
0.0714392
0.046336
0.024737
0.0061107
-0.010103
-0.0243083
-0.0367136
-0.0475305
0.38465
0.307425
0.249338
0.20389
0.167315
0.137259
0.112139
0.0908558
0.0726525
0.0569354
0.0433017
0.0314184
0.0209706
0.0116978
0.00338968
-0.00417019
-0.0111462
-0.0176149
-0.0236384
-0.384467
-0.307044
-0.248846
-0.203344
-0.166754
-0.136709
-0.111618
-0.0903778
-0.072225
-0.0565638
-0.0429891
-0.0311659
-0.0207785
-0.0115657
-0.00331668
0.00418469
0.0111028
0.0175145
0.0234817
-0.991614
-0.795034
-0.642387
-0.521478
-0.423955
-0.344084
-0.277761
-0.222065
-0.174953
-0.134812
-0.100579
-0.0713594
-0.0463236
-0.0247903
-0.0062273
0.00992562
0.0240728
0.0364231
0.047189
-1.55356
-1.26009
-1.0254
-0.835809
-0.680794
-0.552611
-0.445363
-0.354777
-0.277804
-0.212019
-0.155904
-0.108147
-0.06758
-0.0332292
-0.00432174
0.0200448
0.0405725
0.0577901
0.0722511
-2.02457
-1.65241
-1.35005
-1.10235
-0.89726
-0.725826
-0.580923
-0.45741
-0.351555
-0.260394
-0.182252
-0.115636
-0.0593524
-0.0124027
0.0260169
0.0570739
0.081799
0.10124
0.116459
-2.37968
-1.9509
-1.59949
-1.30844
-1.06458
-0.858436
-0.682146
-0.530164
-0.398363
-0.283472
-0.183949
-0.0983921
-0.0260603
0.0334673
0.0802699
0.115052
0.138533
0.152076
0.157288
-2.63885
-2.18556
-1.80447
-1.48218
-1.20698
-0.970343
-0.764495
-0.583965
-0.424438
-0.282332
-0.156211
-0.0446977
0.0524111
0.134484
0.199494
0.245365
0.268576
0.266177
0.236779
-2.70633
-2.31196
-1.96563
-1.66581
-1.40616
-1.18104
-0.984051
-0.810454
-0.656141
-0.517564
-0.393134
-0.281276
-0.181773
-0.0952383
-0.0233942
0.033797
0.0784814
0.122027
0.186597
-2.54579
-2.17439
-1.82416
-1.50589
-1.22045
-0.966091
-0.738585
-0.533956
-0.348112
-0.177114
-0.0180603
0.133016
0.280793
0.433692
0.606286
0.82754
1.13267
1.56467
2.15267
-2.36878
-2.03516
-1.696
-1.36657
-1.05289
-0.756862
-0.476662
-0.20886
0.0511711
0.30966
0.57371
0.853877
1.16485
1.52736
1.96118
2.48493
3.08347
3.70603
4.24966
-2.14467
-1.88016
-1.59803
-1.31507
-1.03996
-0.777044
-0.526404
-0.285478
-0.049682
0.18803
0.436186
0.706566
1.01273
1.36656
1.76513
2.1869
2.57053
2.8383
2.90942
-1.84973
-1.6301
-1.3843
-1.12807
-0.870889
-0.618479
-0.372171
-0.130144
0.112114
0.361829
0.627469
0.918572
1.24153
1.59299
1.94916
2.2686
2.49658
2.59925
2.58664
-1.5542
-1.36969
-1.15752
-0.929011
-0.69275
-0.454882
-0.217578
0.0202084
0.262341
0.514997
0.784382
1.07472
1.38303
1.69349
1.97402
2.18762
2.30668
2.33407
2.29844
-1.25778
-1.11166
-0.933626
-0.734097
-0.521077
-0.300799
-0.0761419
0.152999
0.389245
0.636703
0.897993
1.17145
1.44668
1.7024
1.90957
2.04559
2.10525
2.10606
2.07342
-0.888184
-0.773935
-0.627421
-0.457838
-0.272443
-0.0769038
0.125821
0.335255
0.55276
0.78014
1.01633
1.25508
1.48224
1.67734
1.81959
1.9
1.92483
1.9127
1.88016
-0.543609
-0.456947
-0.339756
-0.199111
-0.0413842
0.128358
0.307181
0.493967
0.688677
0.890789
1.09603
1.29547
1.47439
1.61629
1.70878
1.75174
1.75494
1.73382
1.69862
-0.171726
-0.104453
-0.0108263
0.103565
0.233478
0.37472
0.524845
0.682359
0.846159
1.01393
1.17923
1.33251
1.4606
1.55205
1.60096
1.61189
1.59419
1.5601
1.51633
0.195249
0.249165
0.324855
0.416982
0.521429
0.634904
0.755628
0.881827
1.0116
1.14137
1.26362
1.36957
1.44857
1.49369
1.50314
1.48299
1.44062
1.38536
1.32111
0.559551
0.643721
0.75238
0.877881
1.01435
1.15649
1.30018
1.44114
1.57474
1.69513
1.79434
1.8643
1.898
1.89243
1.84782
1.76584
1.6444
1.47184
1.21595
0.830687
0.833041
0.834314
0.834547
0.835496
0.83932
0.848241
0.86328
0.883868
0.907042
0.927565
0.938473
0.933203
0.906311
0.853924
0.77176
0.652495
0.47836
0.214301
1.13467
1.16819
1.19929
1.22771
1.25383
1.27809
1.30055
1.3204
1.33569
1.34254
1.33667
1.31254
1.26552
1.19151
1.08702
0.946537
0.761644
0.519287
0.203428
1.40687
1.43109
1.44442
1.44959
1.44875
1.44354
1.43483
1.4224
1.4047
1.37833
1.33992
1.28459
1.20835
1.10724
0.977864
0.815856
0.617969
0.384234
0.125665
1.65676
1.66596
1.65856
1.63962
1.61256
1.57997
1.54347
1.50326
1.45809
1.40485
1.34062
1.26098
1.16244
1.04162
0.896373
0.725018
0.529482
0.316843
0.10141
1.90163
1.88956
1.85834
1.81368
1.75993
1.70066
1.63828
1.57329
1.50458
1.42908
1.3441
1.24551
1.13032
0.995949
0.841748
0.668238
0.479871
0.28455
0.0921565
2.12947
2.09117
2.03385
1.96204
1.88154
1.79715
1.7119
1.62629
1.53898
1.44668
1.34663
1.23485
1.10874
0.966485
0.808511
0.636411
0.454973
0.270534
0.0889658
2.27006
2.21042
2.1287
2.03278
1.93104
1.82923
1.73023
1.63386
1.53795
1.43856
1.3326
1.21608
1.08671
0.943183
0.786529
0.618529
0.443352
0.265576
0.0886044
2.43887
2.35368
2.24162
2.11757
1.99252
1.87263
1.76021
1.65398
1.55075
1.44576
1.33552
1.2159
1.08472
0.940816
0.785313
0.619557
0.446756
0.270043
0.0913078
2.58943
2.46407
2.31705
2.16535
2.02068
1.88825
1.76881
1.65929
1.55502
1.4502
1.34079
1.22242
1.09285
0.950844
0.797318
0.632977
0.460161
0.28096
0.0963133
2.67972
2.51079
2.33066
2.15706
2.00119
1.86582
1.74896
1.64504
1.54761
1.44971
1.3468
1.2342
1.1096
0.971571
0.820739
0.657144
0.482428
0.297885
0.103668
2.70946
2.49865
2.29009
2.10321
1.94663
1.81886
1.71404
1.62376
1.53975
1.45403
1.36173
1.25794
1.14029
1.00709
0.858718
0.694523
0.515541
0.322301
0.11402
2.71599
2.45904
2.22713
2.03641
1.88899
1.77739
1.69129
1.61956
1.55245
1.48123
1.40101
1.30669
1.19585
1.06654
0.918828
0.751279
0.564284
0.357434
0.128676
2.66667
2.36715
2.12692
1.94863
1.82452
1.74028
1.68112
1.63384
1.58776
1.53381
1.46747
1.38352
1.27958
1.15336
1.0046
0.830888
0.631835
0.405777
0.148893
2.41904
2.11841
1.90662
1.77289
1.69832
1.66194
1.64526
1.63427
1.61834
1.58875
1.54188
1.47262
1.3788
1.25779
1.10904
0.928969
0.716123
0.467087
0.175278
2.17087
1.89324
1.73101
1.65705
1.6402
1.65461
1.68019
1.70376
1.71571
1.70809
1.67834
1.62141
1.53512
1.41625
1.2636
1.07189
0.837936
0.555557
0.213645
1.85787
1.6385
1.56124
1.57019
1.62392
1.6958
1.76719
1.82746
1.86887
1.88464
1.87322
1.82959
1.75131
1.63421
1.47597
1.26889
1.00701
0.679869
0.269263
1.32202
1.26202
1.32853
1.45304
1.59632
1.73786
1.8643
1.96901
2.04693
2.09288
2.10608
2.08187
2.01712
1.90645
1.74576
1.52417
1.23126
0.849973
0.350337
0.799649
0.966436
1.19625
1.43762
1.66691
1.87426
2.05365
2.20242
2.31815
2.39725
2.43876
2.43857
2.39204
2.29191
2.13102
1.8939
1.56248
1.10859
0.481672
0.297831
0.725354
1.1235
1.47993
1.79451
2.06899
2.30547
2.50448
2.66612
2.78857
2.86969
2.90644
2.89177
2.81588
2.66684
2.42254
2.05213
1.50863
0.706002
-0.080587
0.585867
1.13151
1.59056
1.98595
2.32833
2.62731
2.88536
3.10504
3.28666
3.42597
3.52194
3.56431
3.54026
3.43081
3.20443
2.80924
2.16598
1.12702
-0.262455
0.560958
1.21509
1.75972
2.23117
2.64373
3.01318
3.34297
3.63842
3.90303
4.13024
4.32282
4.46755
4.5493
4.54033
4.39681
4.03428
3.31913
1.99942
-0.231594
0.638765
1.35694
1.96999
2.51328
2.99927
3.44853
3.86563
4.25971
4.6399
4.9989
5.34674
5.67125
5.96012
6.17908
6.27448
6.1188
5.49492
3.98495
-0.0425477
0.785023
1.53195
2.20002
2.81133
3.37329
3.91044
4.43057
4.94852
5.48426
6.03411
6.62233
7.25194
7.93159
8.63797
9.3367
9.8718
9.9328
8.86652
0.187553
0.946082
1.71065
2.4285
3.10421
3.74204
4.37004
5.00532
5.66884
6.40332
7.21583
8.15774
9.29441
10.7296
12.5927
15.2263
19.1701
25.5937
36.9142
)
;

boundaryField
{
    up
    {
        type            calculated;
        value           nonuniform List<scalar> 
84
(
-36.9142
-8.86652
-3.98495
-1.99942
-1.12702
-0.706003
-0.481673
-0.350337
-0.269263
-0.213644
-0.175277
-0.148892
-0.128674
-0.114019
-0.103667
-0.0963123
-0.0913071
-0.0886041
-0.0889662
-0.0921581
-0.101415
-0.12568
-0.203465
-0.214641
-1.04647
-1.25385
-1.45773
-1.64202
-1.8219
-2.00974
-2.22113
-2.46932
-2.72872
-4.25786
-2.28332
-0.190007
-0.237825
-0.157694
-0.116804
-0.0722642
-0.0475421
-0.0236523
0.0234955
0.0472007
0.0722665
0.116476
0.157355
0.237158
0.191706
2.24696
4.27376
2.73017
2.4709
2.22243
2.01086
1.82296
1.6431
1.45895
1.25506
1.05156
0.214301
0.203428
0.125665
0.10141
0.0921565
0.0889658
0.0886044
0.0913078
0.0963133
0.103668
0.11402
0.128676
0.148893
0.175278
0.213645
0.269263
0.350337
0.481672
0.706002
1.12702
1.99942
3.98495
8.86652
36.9142
)
;
    }
    low
    {
        type            calculated;
        value           nonuniform List<scalar> 
84
(
-0.169719
0.0684364
0.274017
0.309163
0.110214
-0.303327
-0.844985
-1.39776
-1.94381
-2.23814
-2.4744
-2.70588
-2.72239
-2.69536
-2.65261
-2.5451
-2.38096
-2.20964
-2.06183
-1.82078
-1.57128
-1.3229
-1.05521
-0.762702
-0.50729
-0.176716
0.150189
0.488843
0.815063
1.17989
1.48414
1.78651
2.09444
2.33913
2.53326
2.7172
2.67675
2.42688
2.07052
1.59255
1.01857
0.396131
-0.395946
-1.0184
-1.59238
-2.07041
-2.42682
-2.67677
-2.71722
-2.53372
-2.339
-2.09462
-1.78663
-1.48426
-1.18
-0.815161
-0.488942
-0.150266
0.176561
0.507412
0.762608
1.05529
1.32294
1.57132
1.82082
2.06187
2.20967
2.38099
2.54513
2.65263
2.69538
2.72241
2.70589
2.47442
2.23817
1.94384
1.39778
0.845003
0.303339
-0.110206
-0.309159
-0.274016
-0.0684354
0.169718
)
;
    }
    left
    {
        type            calculated;
        value           nonuniform List<scalar> 
19
(
-0.166024
-0.907052
-1.68605
-2.42743
-3.13109
-3.79794
-4.45885
-5.13412
-5.84488
-6.64678
-7.54581
-8.60186
-9.90324
-11.5931
-13.8363
-17.1181
-22.1875
-30.6777
-32.0193
)
;
    }
    right
    {
        type            calculated;
        value           nonuniform List<scalar> 
19
(
0.166022
0.907045
1.68604
2.42743
3.13108
3.79793
4.45885
5.13412
5.84488
6.64678
7.54581
8.60186
9.90324
11.5931
13.8363
17.1181
22.1875
30.6777
32.0193
)
;
    }
    frontAndBackPlanes
    {
        type            empty;
    }
}


// ************************************************************************* //
