/*--------------------------------*- C++ -*----------------------------------*\
  =========                 |
  \\      /  F ield         | OpenFOAM: The Open Source CFD Toolbox
   \\    /   O peration     | Website:  https://openfoam.org
    \\  /    A nd           | Version:  7
     \\/     M anipulation  |
\*---------------------------------------------------------------------------*/
FoamFile
{
    version     2.0;
    format      ascii;
    class       volScalarField;
    location    "0.084";
    object      T;
}
// * * * * * * * * * * * * * * * * * * * * * * * * * * * * * * * * * * * * * //

dimensions      [0 0 0 1 0 0 0];

internalField   nonuniform List<scalar> 
1596
(
3.97646
3.90978
3.84404
3.78631
3.73926
3.70289
3.67612
3.65646
3.64209
3.62947
3.61624
3.59897
3.57084
3.52314
3.44344
3.30651
3.0678
2.63995
1.84806
3.89961
3.6949
3.50944
3.35176
3.22463
3.12658
3.05406
3.0013
2.96325
2.93277
2.90436
2.8713
2.82251
2.74494
2.62323
2.43209
2.13641
1.67994
0.95898
3.81279
3.47572
3.18445
2.94196
2.74804
2.59888
2.48847
2.40868
2.35209
2.30956
2.27387
2.23689
2.18675
2.11007
1.99211
1.81114
1.54089
1.14576
0.564763
3.73364
3.28131
2.90058
2.5875
2.33818
2.14646
2.00427
1.9018
1.82995
1.77846
1.73919
1.70352
1.66013
1.59669
1.50007
1.35203
1.13232
0.8169
0.368405
3.67582
3.13365
2.68094
2.30989
2.01419
1.7861
1.61612
1.49335
1.40756
1.34781
1.30543
1.2717
1.23621
1.18806
1.11585
1.00429
0.837053
0.596276
0.256977
3.64493
3.04198
2.53474
2.11677
1.7817
1.5215
1.32604
1.18391
1.08415
1.01541
0.968613
0.935031
0.905156
0.869415
0.81806
0.7383
0.616598
0.43856
0.185681
3.63763
3.00186
2.45675
2.00184
1.63332
1.34425
1.12486
0.963731
0.849532
0.770667
0.717711
0.681869
0.654317
0.626609
0.590416
0.535106
0.449404
0.321233
0.135768
3.64558
2.99976
2.43181
1.94936
1.553
1.23825
0.996501
0.816898
0.688085
0.598339
0.537907
0.497849
0.46977
0.446054
0.419528
0.381407
0.322391
0.232308
0.0988534
3.66238
3.02259
2.44397
1.94223
1.52333
1.18606
0.923763
0.726566
0.58342
0.482598
0.414055
0.368627
0.338104
0.315403
0.294206
0.267249
0.226962
0.164923
0.0709239
3.67858
3.05255
2.47225
1.95887
1.5232
1.16756
0.887603
0.674776
0.518601
0.407485
0.331163
0.280226
0.246472
0.223103
0.204381
0.184223
0.156517
0.114454
0.049767
3.68951
3.07763
2.5008
1.98207
1.53545
1.16627
0.872452
0.646898
0.47987
0.360037
0.277017
0.221186
0.184258
0.159549
0.141675
0.125417
0.105827
0.0775208
0.0340019
3.7003
3.10122
2.52905
2.00789
1.55386
1.17458
0.869918
0.634141
0.458286
0.331324
0.242818
0.182954
0.143302
0.117169
0.0993482
0.085199
0.0706378
0.0514382
0.0226353
3.70859
3.11974
2.5517
2.02942
1.57041
1.18393
0.871337
0.628
0.445609
0.313408
0.220927
0.158186
0.116598
0.0894039
0.0714571
0.0584848
0.0470025
0.0336643
0.014738
3.71124
3.12764
2.56214
2.0394
1.57757
1.18683
0.869502
0.621653
0.435424
0.300234
0.205579
0.141346
0.0988232
0.0711796
0.0532914
0.0411173
0.0315773
0.0219583
0.0094564
3.71173
3.12834
2.56239
2.03834
1.57449
1.18142
0.861828
0.612075
0.424443
0.288366
0.193249
0.128856
0.0863779
0.058937
0.0414271
0.0299655
0.0217456
0.0144919
0.00605889
3.71116
3.12417
2.55446
2.0273
1.56125
1.16694
0.84695
0.597493
0.410634
0.275605
0.181624
0.118313
0.0767955
0.0501826
0.0334084
0.0227223
0.0155174
0.00982164
0.00393989
3.70812
3.11378
2.53727
2.00521
1.53664
1.14202
0.823419
0.576424
0.392508
0.26046
0.169189
0.108163
0.0684738
0.043275
0.0275871
0.0178029
0.0114872
0.00689371
0.00263709
3.70345
3.09837
2.51216
1.9733
1.5016
1.10729
0.791556
0.548923
0.369895
0.242564
0.155408
0.0977188
0.0605969
0.0372987
0.0229855
0.0142237
0.00874974
0.00500495
0.00182868
3.70137
3.08457
2.48601
1.93782
1.46138
1.06687
0.754419
0.517141
0.344202
0.222739
0.140652
0.0870149
0.0529537
0.0318686
0.0191063
0.0114349
0.00677
0.00372285
0.00130887
3.70085
3.07261
2.45995
1.90023
1.41741
1.02202
0.713053
0.481891
0.316024
0.201375
0.125126
0.0760939
0.0454527
0.0267902
0.0156825
0.0091301
0.00524194
0.00279457
0.000954389
3.69924
3.05937
2.4318
1.85936
1.3693
0.972844
0.667829
0.443651
0.285828
0.178859
0.109104
0.0651096
0.0381388
0.0220199
0.0126062
0.00716288
0.00400803
0.00208473
0.000697386
3.69867
3.04765
2.4048
1.81874
1.32054
0.922509
0.621406
0.404511
0.25516
0.156268
0.0932846
0.0544787
0.031228
0.0176391
0.00987345
0.00548024
0.00299445
0.00152438
0.000502502
3.70037
3.04027
2.38265
1.7825
1.27526
0.87476
0.576905
0.366876
0.225746
0.134755
0.0783873
0.0446139
0.024931
0.0137326
0.00749612
0.00405469
0.00215668
0.00106967
0.000347087
3.7041
3.03804
2.36743
1.75372
1.23703
0.833128
0.537392
0.333138
0.199286
0.115424
0.0650669
0.0358642
0.0194064
0.0103512
0.00546872
0.0028539
0.00145057
0.000672336
0.00019296
3.71416
3.05701
2.38718
1.76921
1.24636
0.836782
0.537066
0.330724
0.196254
0.112649
0.062905
0.0343489
0.0184231
0.00974875
0.00511287
0.00264335
0.00131705
0.00057988
0.000142899
3.72718
3.09072
2.4342
1.82108
1.29569
0.878688
0.569529
0.35398
0.211835
0.122514
0.068858
0.0378036
0.0203671
0.0108199
0.00569918
0.00296655
0.00149525
0.000671043
0.000172078
3.73507
3.11659
2.47542
1.8714
1.34774
0.92623
0.608801
0.383769
0.232819
0.136367
0.0774871
0.0429011
0.0232305
0.0123523
0.00648609
0.00335922
0.00168817
0.000759973
0.000198022
3.73784
3.13349
2.50873
1.91772
1.40043
0.978231
0.654747
0.420819
0.260447
0.155601
0.0900708
0.0506658
0.0277448
0.0148122
0.00773547
0.00394728
0.00194466
0.000859631
0.000221316
3.73795
3.14522
2.53754
1.96239
1.45517
1.03562
0.708293
0.466306
0.296158
0.181777
0.108111
0.0623934
0.0349209
0.0189109
0.00989246
0.00497294
0.0023759
0.00101018
0.000249008
3.736
3.15385
2.56408
2.0069
1.51251
1.09837
0.769339
0.52043
0.3406
0.215934
0.132861
0.079361
0.0459001
0.0255534
0.0135882
0.00681264
0.00316702
0.00128242
0.000295005
3.73378
3.16317
2.5923
2.05432
1.57442
1.16755
0.838491
0.583774
0.394597
0.259211
0.165709
0.103059
0.0621199
0.0359863
0.0197796
0.0100913
0.00464398
0.00180046
0.000383608
3.73518
3.17868
2.62746
2.10895
1.644
1.24526
0.917193
0.657508
0.459358
0.313021
0.208299
0.135297
0.0854316
0.0519605
0.0299649
0.0159154
0.00745059
0.00280935
0.000548388
3.73806
3.19711
2.66611
2.16757
1.71843
1.32917
1.00373
0.740635
0.534661
0.377903
0.261838
0.177808
0.117936
0.0757716
0.0464387
0.0263242
0.0130773
0.00504503
0.000844297
3.74178
3.21738
2.70714
2.2291
1.79677
1.4185
1.09756
0.832985
0.62083
0.454761
0.32783
0.232672
0.16223
0.110484
0.0726653
0.0450346
0.0251236
0.0113709
0.00259843
3.74467
3.23437
2.74206
2.28235
1.86577
1.49878
1.18383
0.920069
0.704385
0.531589
0.396006
0.291403
0.211551
0.15095
0.105037
0.0699462
0.0428924
0.0220522
0.00620049
3.7425
3.23648
2.75335
2.30482
1.89909
1.54099
1.2321
0.971339
0.755808
0.580815
0.441351
0.331819
0.24652
0.180356
0.129043
0.0887838
0.0567317
0.0308374
0.00950027
3.73663
3.22832
2.74846
2.30605
1.90732
1.55578
1.2522
0.995056
0.781419
0.606711
0.466214
0.354651
0.266601
0.197224
0.142482
0.0987493
0.0633672
0.0344851
0.0106224
3.73267
3.22338
2.74664
2.30942
1.9165
1.57037
1.27113
1.01698
0.804892
0.630395
0.488986
0.375644
0.285176
0.212962
0.155171
0.108328
0.0699123
0.0382165
0.0118386
3.73112
3.22218
2.7482
2.31502
1.92648
1.58438
1.28837
1.03639
0.825383
0.650912
0.508645
0.393751
0.301208
0.226564
0.16616
0.116637
0.0755972
0.0414622
0.012904
3.73017
3.2217
2.74986
2.31972
1.93446
1.59538
1.3018
1.05147
0.841284
0.666849
0.523942
0.407868
0.313729
0.237201
0.174755
0.123131
0.08003
0.0439851
0.0137325
3.72931
3.22085
2.75032
2.32222
1.93923
1.60228
1.31043
1.06131
0.851776
0.677449
0.534176
0.417354
0.322167
0.244376
0.180549
0.127495
0.0829908
0.0456556
0.0142769
3.72752
3.21835
2.74847
2.32163
1.94009
1.6045
1.31381
1.06554
0.856536
0.682427
0.539097
0.421994
0.326347
0.247966
0.183471
0.129711
0.0845038
0.0465148
0.0145604
3.72753
3.21837
2.7485
2.32167
1.94013
1.60455
1.31385
1.06558
0.856574
0.682461
0.539128
0.422022
0.32637
0.247986
0.183487
0.129724
0.0845125
0.04652
0.0145622
3.72933
3.22091
2.75041
2.32233
1.93936
1.60241
1.31056
1.06143
0.851891
0.677553
0.534269
0.417436
0.322237
0.244436
0.180597
0.127533
0.0830176
0.0456717
0.0142825
3.73021
3.22181
2.75001
2.3199
1.93466
1.59559
1.30201
1.05166
0.841468
0.667017
0.524092
0.407999
0.313841
0.237295
0.174831
0.12319
0.0800717
0.0440101
0.0137411
3.73117
3.22232
2.7484
2.31527
1.92675
1.58466
1.28865
1.03666
0.82563
0.651136
0.508844
0.393924
0.301355
0.226687
0.166258
0.116713
0.0756511
0.0414945
0.0129151
3.73274
3.22355
2.7469
2.30973
1.91684
1.57072
1.27148
1.01731
0.805198
0.630671
0.489229
0.375854
0.285353
0.213108
0.155289
0.108418
0.0699754
0.0382542
0.0118516
3.73671
3.22852
2.74876
2.30641
1.90772
1.5562
1.2526
0.995443
0.781774
0.607029
0.466492
0.354888
0.266799
0.197386
0.14261
0.0988458
0.0634343
0.0345246
0.0106357
3.74259
3.23671
2.7537
2.30524
1.89955
1.54147
1.23257
0.971781
0.756211
0.581172
0.441658
0.332078
0.246733
0.180527
0.129176
0.0888819
0.0567983
0.030876
0.00951339
3.74478
3.2347
2.74259
2.28302
1.86654
1.49959
1.18463
0.920836
0.705088
0.532212
0.396544
0.291857
0.211928
0.151259
0.105288
0.070146
0.0430452
0.0221544
0.00624069
3.74192
3.21778
2.70776
2.22989
1.79766
1.41943
1.09847
0.833843
0.621601
0.455431
0.328396
0.23314
0.162611
0.110789
0.0729065
0.0452199
0.0252566
0.0114518
0.00262609
3.73818
3.19747
2.66667
2.16827
1.71922
1.32998
1.00451
0.741349
0.535284
0.378427
0.262264
0.178147
0.1182
0.0759742
0.0465899
0.0264308
0.0131438
0.00507672
0.000850432
3.7353
3.17902
2.62799
2.10963
1.64475
1.24603
0.917912
0.658148
0.459901
0.313462
0.208646
0.135562
0.085631
0.0521068
0.0300686
0.0159836
0.00748913
0.00282511
0.000550717
3.73389
3.16349
2.59281
2.05497
1.57512
1.16826
0.839143
0.58434
0.395063
0.259577
0.165986
0.103264
0.0622676
0.03609
0.0198493
0.0101343
0.0046664
0.0018087
0.000384397
3.73609
3.15415
2.56456
2.0075
1.51317
1.09902
0.769921
0.520922
0.340993
0.216233
0.13308
0.0795163
0.0460075
0.0256252
0.0136338
0.00683887
0.0031797
0.00128662
0.0002952
3.73803
3.14549
2.53798
1.96294
1.45576
1.03619
0.708801
0.466724
0.296482
0.182016
0.10828
0.0625089
0.0349975
0.0189596
0.00992162
0.0049886
0.0023829
0.0010123
0.000249025
3.73791
3.13373
2.50913
1.91821
1.40096
0.978729
0.655179
0.421166
0.260709
0.155788
0.090199
0.0507504
0.0277986
0.0148449
0.00775399
0.00395666
0.00194864
0.000860813
0.000221355
3.73513
3.1168
2.47576
1.87182
1.34819
0.926648
0.609157
0.384049
0.233027
0.136512
0.0775838
0.0429631
0.0232687
0.0123746
0.00649829
0.00336525
0.00169078
0.000760896
0.000198173
3.72723
3.0909
2.43448
1.82143
1.29606
0.879028
0.569816
0.354203
0.211998
0.122626
0.0689317
0.0378501
0.0203952
0.0108361
0.00570797
0.00297104
0.00149741
0.00067201
0.000172358
3.71417
3.05705
2.38725
1.7693
1.24646
0.836876
0.537147
0.330789
0.196303
0.112683
0.062928
0.0343636
0.018432
0.00975368
0.00511537
0.00264446
0.00131743
0.000579883
0.000142757
3.70408
3.038
2.36736
1.75364
1.23695
0.833055
0.537331
0.333091
0.199251
0.115399
0.0650498
0.0358527
0.0193987
0.010346
0.00546531
0.00285168
0.00144917
0.000671482
0.000192549
3.70037
3.04026
2.38264
1.7825
1.27526
0.874764
0.576911
0.366882
0.225752
0.134759
0.0783892
0.0446147
0.024931
0.0137323
0.00749566
0.00405429
0.00215638
0.00106947
0.000346973
3.69867
3.04765
2.4048
1.81874
1.32054
0.922512
0.62141
0.404515
0.255164
0.15627
0.0932857
0.0544791
0.031228
0.0176389
0.00987322
0.00548006
0.00299434
0.00152432
0.000502466
3.69923
3.05936
2.43179
1.85936
1.3693
0.972846
0.667831
0.443653
0.285829
0.17886
0.109105
0.0651101
0.038139
0.02202
0.0126063
0.007163
0.00400817
0.00208485
0.000697411
3.70085
3.07261
2.45995
1.90022
1.41741
1.02202
0.713054
0.481893
0.316025
0.201376
0.125127
0.0760946
0.0454532
0.0267907
0.015683
0.00913058
0.0052424
0.00279491
0.000954489
3.70137
3.08456
2.48601
1.93782
1.46138
1.06687
0.754419
0.517141
0.344203
0.222739
0.140653
0.0870156
0.0529545
0.0318694
0.0191073
0.0114359
0.00677093
0.00372354
0.00130908
3.70345
3.09837
2.51216
1.9733
1.5016
1.10729
0.791555
0.548923
0.369895
0.242564
0.155408
0.0977196
0.0605981
0.0373
0.022987
0.0142254
0.00875138
0.00500615
0.00182905
3.70812
3.11378
2.53727
2.00521
1.53664
1.14201
0.823417
0.576422
0.392507
0.26046
0.169189
0.108164
0.0684754
0.0432771
0.0275896
0.0178057
0.0114899
0.00689562
0.00263763
3.71116
3.12417
2.55446
2.0273
1.56125
1.16694
0.846948
0.597491
0.410633
0.275605
0.181624
0.118315
0.0767978
0.0501858
0.0334123
0.0227266
0.0155214
0.00982438
0.0039406
3.71173
3.12835
2.56239
2.03834
1.57449
1.18142
0.861826
0.612073
0.424442
0.288366
0.19325
0.128859
0.0863814
0.0589416
0.0414328
0.0299716
0.021751
0.0144954
0.00605964
3.71125
3.12764
2.56214
2.03941
1.57757
1.18683
0.8695
0.621651
0.435423
0.300234
0.20558
0.14135
0.0988283
0.0711862
0.0532992
0.0411253
0.031584
0.0219622
0.00945697
3.70859
3.11974
2.5517
2.02942
1.57041
1.18392
0.871335
0.627998
0.445608
0.313409
0.22093
0.158191
0.116605
0.0894127
0.0714668
0.058494
0.0470094
0.0336675
0.014738
3.7003
3.10122
2.52905
2.00789
1.55386
1.17457
0.869915
0.63414
0.458286
0.331326
0.242822
0.182961
0.143311
0.11718
0.0993586
0.0852077
0.0706431
0.0514396
0.0226346
3.68951
3.07763
2.50081
1.98207
1.53545
1.16627
0.872451
0.646897
0.479871
0.360041
0.277022
0.221194
0.184268
0.159559
0.141684
0.125422
0.105829
0.077519
0.0340002
3.67859
3.05255
2.47225
1.95887
1.5232
1.16756
0.887602
0.674776
0.518603
0.407489
0.331169
0.280235
0.246481
0.223111
0.204386
0.184223
0.156512
0.114449
0.0497648
3.66238
3.02259
2.44397
1.94223
1.52333
1.18606
0.923761
0.726566
0.583422
0.482603
0.41406
0.368634
0.338109
0.315405
0.294202
0.267241
0.226951
0.164914
0.0709219
3.64558
2.99976
2.43181
1.94935
1.553
1.23824
0.996499
0.816898
0.688088
0.598343
0.537911
0.497851
0.469768
0.446048
0.419516
0.381391
0.322375
0.232299
0.0988525
3.63763
3.00186
2.45674
2.00184
1.63332
1.34425
1.12486
0.963731
0.849533
0.770667
0.71771
0.681864
0.654308
0.626594
0.590396
0.535085
0.449387
0.321226
0.13577
3.64493
3.04198
2.53474
2.11676
1.7817
1.5215
1.32604
1.18391
1.08415
1.01541
0.968606
0.935019
0.905138
0.869392
0.818035
0.738279
0.616585
0.438557
0.185684
3.67582
3.13365
2.68094
2.30989
2.01419
1.7861
1.61612
1.49335
1.40756
1.3478
1.30542
1.27168
1.23619
1.18803
1.11582
1.00427
0.837048
0.596279
0.256981
3.73364
3.28131
2.90058
2.5875
2.33818
2.14646
2.00427
1.90179
1.82994
1.77845
1.73917
1.7035
1.66011
1.59667
1.50005
1.35202
1.13232
0.816907
0.368408
3.81279
3.47572
3.18445
2.94196
2.74804
2.59888
2.48847
2.40867
2.35209
2.30955
2.27386
2.23687
2.18673
2.11006
1.99211
1.81114
1.5409
1.14577
0.564765
3.89961
3.6949
3.50944
3.35176
3.22463
3.12658
3.05406
3.0013
2.96325
2.93276
2.90435
2.87129
2.8225
2.74494
2.62323
2.4321
2.13642
1.67995
0.958979
3.97646
3.90978
3.84404
3.78632
3.73926
3.70289
3.67612
3.65646
3.64209
3.62947
3.61624
3.59897
3.57084
3.52314
3.44345
3.30652
3.0678
2.63995
1.84806
)
;

boundaryField
{
    up
    {
        type            fixedValue;
        value           uniform 0;
    }
    low
    {
        type            fixedValue;
        value           uniform 4;
    }
    left
    {
        type            fixedValue;
        value           uniform 4;
    }
    right
    {
        type            fixedValue;
        value           uniform 4;
    }
    frontAndBackPlanes
    {
        type            empty;
    }
}


// ************************************************************************* //
