/*--------------------------------*- C++ -*----------------------------------*\
  =========                 |
  \\      /  F ield         | OpenFOAM: The Open Source CFD Toolbox
   \\    /   O peration     | Website:  https://openfoam.org
    \\  /    A nd           | Version:  7
     \\/     M anipulation  |
\*---------------------------------------------------------------------------*/
FoamFile
{
    version     2.0;
    format      ascii;
    class       volScalarField;
    location    "0.164";
    object      gradTx;
}
// * * * * * * * * * * * * * * * * * * * * * * * * * * * * * * * * * * * * * //

dimensions      [0 -1 0 1 0 0 0];

internalField   nonuniform List<scalar> 
1596
(
-0.389529
-1.95272
-3.48379
-4.83927
-6.00066
-6.95816
-7.75682
-8.42651
-9.01073
-9.59052
-10.1933
-10.9169
-11.8719
-13.2106
-15.1062
-17.9747
-22.4465
-29.8761
-43.0644
0.0892157
-1.61528
-3.12155
-4.40438
-5.48711
-6.37172
-7.0997
-7.68667
-8.16621
-8.58281
-8.9474
-9.31607
-9.71525
-10.1805
-10.7065
-11.2732
-11.7101
-11.6593
-10.3531
0.483826
-1.29699
-2.74707
-3.938
-4.92483
-5.72354
-6.37038
-6.87607
-7.26375
-7.55876
-7.76342
-7.90945
-7.99815
-8.03447
-7.99704
-7.84296
-7.43889
-6.54421
-4.67595
0.553721
-1.10902
-2.42041
-3.48093
-4.35105
-5.05281
-5.61463
-6.04502
-6.35895
-6.57003
-6.67806
-6.69956
-6.62917
-6.46274
-6.18244
-5.75389
-5.09428
-4.06385
-2.37965
0.190785
-1.12548
-2.19893
-3.08261
-3.81313
-4.40688
-4.88104
-5.24154
-5.49668
-5.65201
-5.70737
-5.66917
-5.53115
-5.28666
-4.92387
-4.4185
-3.72394
-2.76394
-1.3801
-0.56738
-1.3764
-2.12875
-2.79166
-3.35948
-3.83271
-4.21452
-4.50648
-4.71081
-4.82692
-4.85501
-4.79435
-4.63896
-4.38117
-4.01328
-3.51737
-2.86839
-2.02563
-0.902709
-1.57053
-1.84074
-2.23168
-2.64321
-3.02858
-3.36803
-3.65004
-3.86991
-4.02409
-4.107
-4.11838
-4.05247
-3.90326
-3.66219
-3.32346
-2.87229
-2.29505
-1.56958
-0.649147
-2.61439
-2.42728
-2.47338
-2.62964
-2.82511
-3.02292
-3.19919
-3.34228
-3.44337
-3.49279
-3.48895
-3.42266
-3.28741
-3.07378
-2.77633
-2.38155
-1.88114
-1.26197
-0.498368
-3.6899
-3.18791
-2.93335
-2.8363
-2.82854
-2.86634
-2.91881
-2.9684
-3.00191
-3.0063
-2.97777
-2.9047
-2.77948
-2.59157
-2.33477
-1.99568
-1.56761
-1.04095
-0.400136
-4.33389
-3.72398
-3.29619
-3.02024
-2.85286
-2.75654
-2.70093
-2.66605
-2.63647
-2.59745
-2.54321
-2.46113
-2.34267
-2.17684
-1.95667
-1.66902
-1.30747
-0.863853
-0.327455
-4.86325
-4.21337
-3.68449
-3.27781
-2.97666
-2.75717
-2.59564
-2.47352
-2.37544
-2.28638
-2.19903
-2.10043
-1.98123
-1.83005
-1.63903
-1.3951
-1.09125
-0.719461
-0.270951
-5.41046
-4.76345
-4.17331
-3.66502
-3.2446
-2.90456
-2.63187
-2.41302
-2.2351
-2.08414
-1.95202
-1.82576
-1.69517
-1.54844
-1.37664
-1.16663
-0.910386
-0.59934
-0.224991
-5.57735
-5.01838
-4.44537
-3.90656
-3.42637
-3.01242
-2.66297
-2.37168
-2.13014
-1.92716
-1.75532
-1.60263
-1.45888
-1.31246
-1.15402
-0.970757
-0.754102
-0.495189
-0.185521
-5.64158
-5.17621
-4.64966
-4.11332
-3.60287
-3.13852
-2.7292
-2.37669
-2.07814
-1.82621
-1.61515
-1.43444
-1.27431
-1.1235
-0.972447
-0.808755
-0.623438
-0.407441
-0.152215
-5.66604
-5.28428
-4.8129
-4.29717
-3.77618
-3.2789
-2.82326
-2.4191
-2.06967
-1.77206
-1.52295
-1.31361
-1.13497
-0.97624
-0.827759
-0.677507
-0.516204
-0.334685
-0.124366
-5.56685
-5.2751
-4.87028
-4.3944
-3.88615
-3.37917
-2.89787
-2.4591
-2.07201
-1.73834
-1.45778
-1.22374
-1.02822
-0.861142
-0.712963
-0.572109
-0.429204
-0.275127
-0.101368
-5.33383
-5.12917
-4.79831
-4.37751
-3.90261
-3.40863
-2.92374
-2.47002
-2.06175
-1.7051
-1.40296
-1.15116
-0.943081
-0.7696
-0.621559
-0.487922
-0.359423
-0.227128
-0.0827342
-5.0486
-4.9011
-4.63641
-4.27404
-3.84277
-3.37591
-2.90303
-2.44957
-2.03381
-1.66573
-1.35129
-1.08869
-0.872845
-0.695687
-0.548585
-0.421083
-0.304135
-0.189089
-0.0679386
-4.81079
-4.70872
-4.49405
-4.17818
-3.78345
-3.34058
-2.87964
-2.42833
-2.00811
-1.63208
-1.30874
-1.03832
-0.816968
-0.637458
-0.491536
-0.369126
-0.261313
-0.159667
-0.0564751
-4.35995
-4.32044
-4.16707
-3.91216
-3.5734
-3.17747
-2.75279
-2.32736
-1.92432
-1.55907
-1.24224
-0.976084
-0.758228
-0.582593
-0.441643
-0.325927
-0.226864
-0.136429
-0.0474788
-3.84542
-3.85553
-3.75822
-3.56251
-3.2823
-2.94011
-2.56176
-2.1741
-1.80063
-1.45796
-1.1581
-0.904937
-0.697404
-0.530619
-0.397893
-0.290479
-0.200109
-0.119029
-0.0407638
-3.29594
-3.33741
-3.28637
-3.1451
-2.92295
-2.63806
-2.31299
-1.97236
-1.63884
-1.3292
-1.05592
-0.82399
-0.633382
-0.480388
-0.359331
-0.262333
-0.181403
-0.108532
-0.0370161
-2.6734
-2.72928
-2.71586
-2.62729
-2.46704
-2.2477
-1.98745
-1.70731
-1.42782
-1.16477
-0.930207
-0.729718
-0.564046
-0.430762
-0.325569
-0.242003
-0.172742
-0.109175
-0.0415024
-1.95906
-1.93295
-1.85746
-1.73438
-1.57285
-1.38603
-1.18861
-0.993972
-0.813395
-0.65388
-0.518939
-0.408671
-0.320525
-0.251117
-0.196902
-0.153949
-0.117687
-0.0816669
-0.0361038
-1.30935
-1.44724
-1.57776
-1.67025
-1.70599
-1.6776
-1.58954
-1.454
-1.2887
-1.11126
-0.936371
-0.775093
-0.632541
-0.511565
-0.412672
-0.334832
-0.274456
-0.225972
-0.179364
-0.43979
-0.496676
-0.566714
-0.633483
-0.684771
-0.71256
-0.714617
-0.692445
-0.651891
-0.599864
-0.541935
-0.48363
-0.426408
-0.371982
-0.321755
-0.278532
-0.24336
-0.217405
-0.199199
0.432033
0.365171
0.264888
0.145937
0.0231702
-0.0906448
-0.186912
-0.261099
-0.313512
-0.347195
-0.365136
-0.371292
-0.366292
-0.351307
-0.327973
-0.301101
-0.274636
-0.253019
-0.237162
1.29782
1.20685
1.06632
0.89217
0.701201
0.509215
0.328904
0.168651
0.0319138
-0.0816133
-0.173084
-0.244927
-0.296493
-0.327134
-0.336807
-0.330542
-0.314471
-0.296739
-0.281286
2.07249
1.93986
1.7507
1.52318
1.27451
1.02118
0.777007
0.55146
0.349407
0.171621
0.0177127
-0.113917
-0.22144
-0.301583
-0.350406
-0.370315
-0.367425
-0.353575
-0.337049
2.86338
2.67647
2.43077
2.14502
1.83708
1.52407
1.22025
0.935251
0.674321
0.438293
0.226579
0.0371197
-0.128411
-0.264943
-0.363583
-0.420952
-0.43892
-0.431228
-0.412119
3.44419
3.19638
2.89808
2.56708
2.22055
1.87378
1.5388
1.22311
0.930571
0.660888
0.412503
0.181881
-0.0310372
-0.221553
-0.376745
-0.485205
-0.537764
-0.543226
-0.519604
3.97266
3.67391
3.32481
2.95016
2.56795
2.19171
1.8312
1.49171
1.17569
0.881623
0.606919
0.345953
0.0951444
-0.145048
-0.362628
-0.541405
-0.656495
-0.699663
-0.68238
4.44523
4.07948
3.67657
3.26156
2.85041
2.45338
2.07722
1.72467
1.39666
1.09072
0.803743
0.52881
0.258829
-0.0125977
-0.281249
-0.537412
-0.747424
-0.878305
-0.897835
4.72726
4.26121
3.77896
3.3027
2.8447
2.41155
2.00695
1.63151
1.28479
0.963678
0.664426
0.379847
0.100857
-0.184859
-0.485145
-0.808464
-1.13868
-1.44622
-1.67506
4.87723
4.37338
3.89012
3.44057
3.02661
2.64648
2.29726
1.97553
1.67851
1.40317
1.14728
0.907645
0.680108
0.458234
0.233716
-0.0103423
-0.288554
-0.617014
-0.999205
4.97009
4.4548
3.991
3.57325
3.19349
2.84523
2.52323
2.22365
1.94413
1.68263
1.43825
1.21041
0.997954
0.800257
0.61733
0.447203
0.287279
0.130751
-0.0348638
4.65737
4.07139
3.56766
3.12737
2.73723
2.38828
2.07359
1.78793
1.5276
1.28906
1.07006
0.868865
0.683378
0.512516
0.356534
0.215833
0.0921509
-0.0117186
-0.0946725
4.05225
3.52734
3.08195
2.69698
2.35928
2.05968
1.79121
1.54858
1.3281
1.12645
0.941572
0.771954
0.615793
0.472045
0.340483
0.220629
0.112482
0.0167464
-0.0668446
3.34078
2.90618
2.53519
2.2149
1.93512
1.68808
1.46773
1.26936
1.08968
0.925726
0.775665
0.6381
0.511383
0.394459
0.286935
0.188193
0.0980855
0.0172027
-0.0546074
2.49999
2.16796
1.88685
1.64613
1.4373
1.2539
1.09096
0.944683
0.812422
0.69184
0.581493
0.480272
0.386891
0.300516
0.220846
0.147429
0.0802169
0.0197679
-0.0339391
1.56761
1.34657
1.16549
1.01347
0.883167
0.769573
0.669127
0.579218
0.498075
0.424158
0.356518
0.294421
0.237029
0.183792
0.134505
0.0888791
0.0469013
0.00897871
-0.0248249
0.599869
0.509633
0.438542
0.379754
0.329618
0.28599
0.247482
0.213115
0.18223
0.154248
0.128789
0.10554
0.0841464
0.0643462
0.0459984
0.0289342
0.0130879
-0.0014409
-0.0146449
-0.599582
-0.508982
-0.437637
-0.378678
-0.328434
-0.284749
-0.246224
-0.211874
-0.181034
-0.153121
-0.127752
-0.104609
-0.0833352
-0.063667
-0.0454604
-0.0285446
-0.0128514
0.00152399
0.0145775
-1.56734
-1.34599
-1.16469
-1.01252
-0.882127
-0.768487
-0.668033
-0.578147
-0.497053
-0.423206
-0.355655
-0.293662
-0.236388
-0.183279
-0.13413
-0.0886474
-0.0468175
-0.00904192
0.024619
-2.49971
-2.16739
-1.88606
-1.64519
-1.43625
-1.25279
-1.08984
-0.943568
-0.811345
-0.690824
-0.580556
-0.479427
-0.38615
-0.299885
-0.220331
-0.147031
-0.0799341
-0.019595
0.0340098
-3.34056
-2.90577
-2.53462
-2.21422
-1.93437
-1.6873
-1.46694
-1.26859
-1.08894
-0.92505
-0.775062
-0.637582
-0.510959
-0.394133
-0.286711
-0.18807
-0.0980599
-0.0172692
0.0544563
-4.0521
-3.52705
-3.08154
-2.69648
-2.35871
-2.05908
-1.79059
-1.54798
-1.32753
-1.12593
-0.941121
-0.771577
-0.615498
-0.471835
-0.34036
-0.220587
-0.11251
-0.0168315
0.0667231
-4.65735
-4.07128
-3.56745
-3.12708
-2.73689
-2.38792
-2.07322
-1.78759
-1.5273
-1.28882
-1.06989
-0.868779
-0.683381
-0.512615
-0.356728
-0.216109
-0.0924762
0.0113993
0.0944223
-4.97006
-4.45433
-3.98999
-3.5717
-3.19141
-2.8427
-2.52034
-2.22048
-1.94078
-1.67916
-1.43473
-1.20688
-0.994437
-0.796761
-0.613871
-0.443847
-0.2842
-0.128334
0.0359798
-4.87806
-4.37561
-3.89378
-3.44559
-3.03285
-2.65377
-2.3054
-1.98434
-1.68781
-1.41283
-1.15719
-0.917764
-0.690481
-0.469004
-0.245122
-0.00205565
0.274851
0.60194
0.983277
-4.72687
-4.26019
-3.77726
-3.30035
-2.84178
-2.40817
-2.00322
-1.62754
-1.28068
-0.959519
-0.660291
-0.375797
-0.0969408
0.188616
0.488793
0.812201
1.143
1.45194
1.68327
-4.44551
-4.08015
-3.67758
-3.26285
-2.85191
-2.45503
-2.07897
-1.72646
-1.39847
-1.09251
-0.805499
-0.530524
-0.260485
0.0110546
0.279949
0.536592
0.747358
0.879152
0.899353
-3.97283
-3.67433
-3.32545
-2.95098
-2.56892
-2.19279
-1.83235
-1.4929
-1.17688
-0.882794
-0.608048
-0.347012
-0.0960869
0.144309
0.362223
0.541481
0.657117
0.700722
0.683644
-3.44437
-3.19681
-2.89875
-2.56794
-2.22157
-1.87491
-1.53999
-1.22431
-0.931747
-0.662002
-0.413522
-0.182769
0.0303324
0.221104
0.37663
0.485467
0.538362
0.544028
0.520444
-2.86355
-2.67691
-2.43147
-2.14593
-1.83816
-1.52526
-1.22148
-0.936467
-0.675475
-0.439345
-0.227493
-0.0378603
0.127884
0.264673
0.363595
0.421231
0.439398
0.431809
0.412722
-2.07265
-1.94028
-1.75138
-1.52407
-1.27555
-1.02232
-0.778171
-0.552586
-0.350445
-0.17253
-0.0184616
0.113354
0.221085
0.301452
0.350491
0.370579
0.367809
0.354018
0.33751
-1.298
-1.20731
-1.06704
-0.893108
-0.702291
-0.51038
-0.330066
-0.169742
-0.0328813
0.0808057
0.172457
0.244493
0.296255
0.327086
0.336923
0.330782
0.31479
0.297099
0.281662
-0.43219
-0.36561
-0.265594
-0.146858
-0.0242276
0.0895378
0.185839
0.260129
0.31269
0.346548
0.364672
0.371009
0.366178
0.351341
0.328124
0.301334
0.27492
0.253335
0.237499
0.439412
0.495546
0.564832
0.630963
0.681811
0.709395
0.71148
0.689526
0.64932
0.597713
0.540217
0.482327
0.425473
0.371354
0.321363
0.278317
0.243277
0.217445
0.199405
1.3096
1.4482
1.57955
1.67285
1.70928
1.68136
1.59352
1.45797
1.29246
1.11467
0.939355
0.777642
0.634675
0.513333
0.414137
0.336064
0.275516
0.226909
0.1802
1.95877
1.93194
1.85575
1.73208
1.57017
1.38317
1.18577
0.99132
0.81103
0.651859
0.51727
0.407336
0.319488
0.250333
0.196325
0.153537
0.117407
0.081496
0.0360373
2.67355
2.72958
2.7163
2.62784
2.46764
2.2483
1.98799
1.70776
1.42817
1.16502
0.930369
0.729811
0.564091
0.430777
0.325567
0.241994
0.172731
0.109167
0.0415016
3.29596
3.33743
3.2864
3.14512
2.92297
2.63807
2.31299
1.97235
1.63881
1.32916
1.05588
0.823947
0.633342
0.480355
0.359307
0.262316
0.181393
0.108528
0.0370168
3.84543
3.85555
3.75824
3.56253
3.28231
2.94012
2.56176
2.17409
1.8006
1.45793
1.15806
0.904905
0.697377
0.530598
0.39788
0.290471
0.200106
0.119028
0.0407641
4.35996
4.32046
4.16709
3.91217
3.57341
3.17747
2.75278
2.32734
1.9243
1.55904
1.24221
0.976061
0.758211
0.582581
0.441637
0.325924
0.226865
0.13643
0.0474791
4.81081
4.70874
4.49408
4.1782
3.78347
3.34058
2.87963
2.42832
2.00809
1.63206
1.30872
1.0383
0.816958
0.637453
0.491535
0.369126
0.261314
0.159668
0.0564751
5.04861
4.90112
4.63643
4.27405
3.84278
3.37591
2.90302
2.44956
2.03379
1.66572
1.35127
1.08868
0.872839
0.695685
0.548585
0.421084
0.304136
0.189089
0.0679382
5.33384
5.12918
4.79832
4.37752
3.90261
3.40863
2.92374
2.47001
2.06174
1.70508
1.40295
1.15115
0.943077
0.769599
0.621558
0.487921
0.359421
0.227126
0.0827332
5.56686
5.27512
4.8703
4.39442
3.88616
3.37917
2.89787
2.45909
2.072
1.73833
1.45777
1.22374
1.02822
0.861138
0.712959
0.572103
0.429198
0.275122
0.101366
5.66604
5.28429
4.81291
4.29718
3.77619
3.2789
2.82325
2.41909
2.06966
1.77205
1.52294
1.3136
1.13496
0.976232
0.827749
0.677496
0.516192
0.334677
0.124364
5.64159
5.17623
4.64967
4.11334
3.60288
3.13853
2.7292
2.37669
2.07813
1.8262
1.61514
1.43443
1.2743
1.12349
0.97243
0.808738
0.623422
0.407431
0.152213
5.57737
5.0184
4.4454
3.90657
3.42638
3.01242
2.66297
2.37168
2.13013
1.92716
1.75531
1.60261
1.45887
1.31244
1.154
0.970735
0.754084
0.495179
0.185521
5.41045
4.76345
4.1733
3.66501
3.24459
2.90454
2.63185
2.41301
2.23508
2.08412
1.952
1.82574
1.69515
1.54841
1.37661
1.1666
0.910368
0.599332
0.224991
4.86327
4.2134
3.6845
3.27782
2.97666
2.75716
2.59563
2.47351
2.37543
2.28637
2.19901
2.10041
1.9812
1.83002
1.639
1.39508
1.09124
0.719459
0.270954
4.33394
3.72401
3.2962
3.02024
2.85286
2.75653
2.70093
2.66604
2.63645
2.59743
2.54318
2.4611
2.34264
2.17681
1.95665
1.66901
1.30746
0.863858
0.32746
3.68993
3.18793
2.93335
2.8363
2.82854
2.86634
2.9188
2.96839
3.00189
3.00628
2.97774
2.90467
2.77945
2.59155
2.33476
1.99569
1.56762
1.04096
0.400142
2.61442
2.42729
2.47338
2.62964
2.82511
3.02291
3.19918
3.34227
3.44336
3.49277
3.48893
3.42263
3.2874
3.07377
2.77633
2.38156
1.88116
1.26198
0.498371
1.57056
1.84075
2.23169
2.64321
3.02859
3.36803
3.65004
3.8699
4.02408
4.10699
4.11837
4.05246
3.90326
3.6622
3.32348
2.87231
2.29508
1.5696
0.649149
0.567395
1.37641
2.12877
2.79168
3.35949
3.83271
4.21452
4.50647
4.7108
4.82691
4.85501
4.79435
4.63897
4.38119
4.01331
3.5174
2.86841
2.02564
0.902707
-0.190776
1.12549
2.19895
3.08263
3.81314
4.40688
4.88104
5.24154
5.49667
5.65201
5.70737
5.66918
5.53117
5.28669
4.9239
4.41853
3.72396
2.76394
1.38009
-0.55372
1.10903
2.42042
3.48093
4.35106
5.05281
5.61463
6.04502
6.35895
6.57004
6.67807
6.69958
6.62919
6.46277
6.18247
5.75391
5.09428
4.06385
2.37965
-0.483829
1.29699
2.74707
3.93799
4.92483
5.72353
6.37038
6.87607
7.26376
7.55877
7.76343
7.90948
7.99818
8.03448
7.99705
7.84296
7.43888
6.54419
4.67594
-0.0892155
1.61528
3.12154
4.40437
5.4871
6.37171
7.0997
7.68667
8.16622
8.58283
8.94742
9.31609
9.71527
10.1805
10.7065
11.2732
11.71
11.6593
10.3531
0.389533
1.95273
3.48378
4.83926
6.00065
6.95816
7.75682
8.42651
9.01074
9.59053
10.1933
10.9169
11.8719
13.2106
15.1061
17.9747
22.4465
29.8761
43.0644
)
;

boundaryField
{
    up
    {
        type            calculated;
        value           nonuniform List<scalar> 
84
(
-43.0644
-10.3531
-4.67595
-2.37965
-1.3801
-0.902709
-0.649147
-0.498368
-0.400136
-0.327455
-0.270951
-0.224991
-0.185521
-0.152215
-0.124366
-0.101368
-0.0827342
-0.0679386
-0.0564751
-0.0474788
-0.0407638
-0.0370161
-0.0415024
-0.0361038
-0.151684
-0.183532
-0.220186
-0.261266
-0.312354
-0.380461
-0.476212
-0.612785
-0.78587
-1.6329
-1.02454
-0.0363632
-0.0941208
-0.0664719
-0.0543958
-0.0338559
-0.0247919
-0.01464
0.0145726
0.0245867
0.0339272
0.0542462
0.0663525
0.0938725
0.0374533
1.00834
1.64252
0.787254
0.613864
0.476963
0.381012
0.312782
0.261623
0.220513
0.183811
0.152428
0.0360373
0.0415016
0.0370168
0.0407641
0.0474791
0.0564751
0.0679382
0.0827332
0.101366
0.124364
0.152213
0.185521
0.224991
0.270954
0.32746
0.400142
0.498371
0.649149
0.902707
1.38009
2.37965
4.67594
10.3531
43.0644
)
;
    }
    low
    {
        type            calculated;
        value           nonuniform List<scalar> 
84
(
-0.350593
0.14858
0.579094
0.656566
0.254986
-0.579169
-1.66687
-2.77512
-3.87503
-4.48612
-4.99809
-5.52151
-5.62973
-5.65899
-5.66221
-5.52984
-5.26755
-4.97454
-4.71719
-4.22904
-3.6946
-3.1388
-2.5171
-1.82023
-1.19954
-0.399912
0.386592
1.18552
1.93015
2.724
3.33379
3.88647
4.39248
4.71628
4.89855
5.02891
4.75446
4.15344
3.42963
2.56989
1.61355
0.618979
-0.61869
-1.61327
-2.5696
-3.42939
-4.15325
-4.75439
-5.02882
-4.89925
-4.7159
-4.3927
-3.88662
-3.33396
-2.72418
-1.93031
-1.18571
-0.386752
0.399544
1.19978
1.81996
2.51722
3.13882
3.69461
4.22904
4.71721
4.97456
5.26756
5.52985
5.66221
5.659
5.62975
5.52149
4.99811
4.48616
3.87506
2.77515
1.66689
0.579187
-0.254977
-0.656569
-0.579105
-0.148587
0.350595
)
;
    }
    left
    {
        type            calculated;
        value           nonuniform List<scalar> 
19
(
-0.346912
-1.87823
-3.44274
-4.84715
-6.06007
-7.06312
-7.90424
-8.61813
-9.24783
-9.89336
-10.5819
-11.4219
-12.5553
-14.1826
-16.5193
-20.1475
-25.9411
-35.7925
-37.3485
)
;
    }
    right
    {
        type            calculated;
        value           nonuniform List<scalar> 
19
(
0.346916
1.87823
3.44274
4.84715
6.06007
7.06312
7.90424
8.61813
9.24783
9.89336
10.5819
11.4219
12.5553
14.1826
16.5192
20.1474
25.9411
35.7925
37.3485
)
;
    }
    frontAndBackPlanes
    {
        type            empty;
    }
}


// ************************************************************************* //
