/*--------------------------------*- C++ -*----------------------------------*\
  =========                 |
  \\      /  F ield         | OpenFOAM: The Open Source CFD Toolbox
   \\    /   O peration     | Website:  https://openfoam.org
    \\  /    A nd           | Version:  7
     \\/     M anipulation  |
\*---------------------------------------------------------------------------*/
FoamFile
{
    version     2.0;
    format      ascii;
    class       volScalarField;
    location    "0.28";
    object      gradTz;
}
// * * * * * * * * * * * * * * * * * * * * * * * * * * * * * * * * * * * * * //

dimensions      [0 -1 0 1 0 0 0];

internalField   nonuniform List<scalar> 
1596
(
-8.06848e-16
-3.92826e-16
3.98507e-16
8.08191e-18
-7.608e-16
0
-3.56235e-16
-3.51257e-16
-2.24671e-17
-1.84592e-16
-1.74517e-18
-1.83499e-16
8.06589e-16
-1.8134e-16
8.47657e-16
7.31219e-16
4.34867e-16
5.4902e-16
0
8.06791e-16
0
1.14066e-15
-7.50926e-18
-3.50932e-16
3.48039e-16
7.15351e-16
2.1335e-17
3.39298e-16
-1.63345e-16
3.25817e-16
-5.07551e-18
-4.51741e-16
-2.81988e-16
-6.85399e-16
-6.68434e-16
-6.07963e-16
3.45947e-16
0
-3.96399e-16
0
-7.45806e-16
1.19309e-17
6.86837e-16
-1.91434e-16
1.39871e-17
-4.79502e-18
-4.93329e-18
-5.29462e-18
1.24591e-16
0
2.34357e-16
6.65267e-16
-6.55256e-17
5.26222e-17
1.23824e-16
1.93012e-16
0
6.21712e-16
-1.88037e-16
1.8735e-16
0
-1.80572e-16
-1.86392e-16
3.19683e-16
-2.80806e-16
0
0
-9.88541e-17
6.50246e-17
0
-1.96236e-16
-2.50662e-16
1.73095e-16
-1.77142e-16
-9.11906e-18
0
1.08499e-16
2.90635e-16
-2.63793e-16
0
-7.83445e-17
-2.38058e-16
0
3.56923e-16
-3.56277e-17
-3.22521e-17
-2.92993e-17
1.86352e-16
2.28322e-16
2.34477e-17
7.19029e-18
-1.87171e-16
9.4412e-18
8.66227e-17
-3.71824e-17
-2.81755e-17
-3.99052e-16
3.81353e-16
-3.35035e-16
-6.61785e-19
-2.98822e-16
8.43869e-18
-8.4667e-18
-2.37572e-16
0
-2.41683e-17
-2.20216e-16
-2.06318e-16
1.68422e-16
1.73126e-16
-2.36704e-18
-1.03775e-16
-8.78602e-17
6.71132e-17
2.35468e-16
-4.06976e-16
4.59341e-16
2.58076e-16
0
2.29178e-16
1.35614e-16
-6.54182e-17
3.01537e-16
-5.68092e-17
-2.39383e-16
2.22105e-18
-1.42521e-16
-1.69237e-16
-1.32888e-16
1.12687e-16
1.04688e-16
-1.39568e-18
-2.80377e-17
2.19691e-17
6.45829e-16
-7.65451e-16
0
0
-2.85833e-16
0
0
0
1.99849e-16
0
0
1.30562e-16
4.99858e-18
3.45213e-17
-9.84251e-17
0
5.23903e-17
2.03455e-17
0
-4.20646e-16
8.10711e-16
0
0
2.94368e-16
0
-1.13895e-16
1.1378e-16
-2.03418e-16
8.5112e-17
-8.57345e-17
0
1.23863e-16
1.19119e-16
0
-6.87994e-17
-5.35378e-17
-1.77571e-17
1.00434e-15
-4.71493e-16
0
-3.41224e-16
3.37405e-16
0
2.54669e-16
0
0
0
7.92198e-17
-7.95996e-17
0
-9.55743e-17
-2.74838e-17
0
6.81935e-18
3.94067e-17
0
-2.54918e-16
0
0
3.42119e-16
-6.40719e-16
3.10154e-17
1.2033e-17
-1.06016e-16
1.13058e-17
3.72595e-18
-8.34799e-17
-1.35331e-16
0
1.02386e-16
-2.03137e-17
2.06186e-17
5.32479e-17
-3.08728e-17
-1.42829e-17
2.14525e-16
-2.1467e-17
2.0588e-16
7.09961e-16
-3.59176e-17
-3.00328e-16
0
0
0
1.7202e-16
6.95872e-17
2.51539e-16
-6.07661e-17
-1.00555e-16
-6.04812e-17
-3.26917e-17
1.45392e-17
-3.15658e-17
1.36032e-17
-2.3577e-16
2.30932e-16
-4.28312e-16
-7.01334e-16
6.51944e-16
2.6181e-16
-4.86127e-16
4.24115e-16
-3.69533e-16
9.62474e-17
7.46414e-17
-6.7692e-17
4.49055e-17
-4.01183e-17
1.17032e-16
0
-8.80508e-18
6.47312e-17
-9.60894e-18
-1.51938e-15
7.00007e-16
5.86589e-19
-1.57506e-16
1.88819e-17
2.54448e-16
-4.84547e-16
-2.02062e-16
1.74036e-16
-1.49093e-16
-1.28122e-16
0
-1.47022e-16
-4.3849e-17
-7.89007e-17
-4.6948e-17
3.69883e-18
-4.10493e-17
8.20927e-19
2.4833e-16
-2.22391e-16
4.87386e-19
-1.73119e-16
-4.36259e-16
4.12342e-16
1.54876e-18
1.96909e-16
-1.69447e-16
2.86311e-16
6.7889e-17
5.63651e-17
1.75463e-16
0
1.4658e-16
6.73743e-17
0
2.25453e-17
6.96854e-19
0
2.15745e-16
1.71784e-16
-3.56057e-16
4.22845e-16
-6.38167e-16
4.54489e-16
1.74377e-16
-2.42409e-17
-2.83131e-16
5.27705e-17
-5.25101e-17
-1.61165e-16
6.4612e-17
-3.20076e-17
-6.77661e-17
2.95463e-17
-1.83096e-17
7.07166e-18
-2.31341e-16
7.9153e-16
-5.8912e-16
3.24058e-16
0
0
-9.06469e-17
1.92368e-16
-1.39615e-16
2.63217e-16
0
0
1.09177e-16
-9.57623e-17
-6.86254e-17
2.16146e-17
-2.29815e-17
1.20573e-17
0
1.79226e-17
2.16333e-16
-1.76428e-16
-1.55421e-16
-2.53902e-16
-8.46438e-17
1.14794e-16
0
-1.31503e-16
-1.08219e-16
9.76812e-17
-8.04767e-17
6.58159e-17
0
2.61201e-17
5.18085e-17
0
0
0
-1.71354e-17
3.49847e-16
1.35595e-16
-4.68435e-16
1.30646e-16
1.1283e-16
0
0
1.24442e-16
-6.47526e-17
-9.44789e-17
7.78356e-17
-6.3649e-17
0
-1.73305e-17
1.50022e-17
0
-1.25817e-17
-4.38489e-18
-1.8654e-16
5.47407e-16
-6.67103e-16
-2.69949e-16
1.41116e-16
-1.07086e-16
9.07455e-17
0
-6.31825e-17
5.32142e-17
0
0
2.53403e-17
-2.53695e-17
7.72677e-18
-1.00903e-17
1.81087e-17
2.10633e-18
3.25641e-18
9.54826e-17
-8.65003e-17
4.46236e-16
-2.88332e-16
-1.18332e-16
1.45768e-17
1.86207e-16
7.182e-17
6.04562e-17
0
3.60476e-17
-3.34453e-17
2.68805e-17
-2.2953e-17
3.00888e-17
-5.20172e-17
-1.40974e-17
1.23196e-17
3.30097e-18
2.56287e-16
-2.59452e-16
0
2.43295e-16
-1.27886e-16
-9.68683e-17
6.84687e-17
-2.18094e-16
0
-3.79549e-18
-4.1322e-17
-3.0227e-17
4.46234e-17
-3.33852e-18
-2.90803e-17
2.16478e-17
0
7.93809e-18
-3.20522e-18
4.36024e-16
-7.75144e-17
3.32539e-16
-2.60656e-16
1.46e-16
1.77083e-17
-1.68706e-16
-5.88287e-17
1.06491e-16
-4.33255e-18
-6.40546e-17
5.44754e-17
-2.39837e-17
-3.206e-17
0
0
0
-8.01407e-18
2.98674e-19
-3.88989e-16
3.7915e-16
2.63295e-19
5.87783e-17
5.09887e-17
-1.24568e-16
1.47806e-16
-1.22745e-16
1.05537e-16
-3.57235e-17
6.81161e-17
2.45825e-17
-1.05113e-17
5.48311e-19
-3.90804e-18
-6.86959e-18
0
0
0
0
0
1.88151e-16
-9.01651e-17
-2.87753e-16
0
0
-3.56127e-17
-5.82085e-17
4.91278e-17
0
-3.10031e-17
2.43259e-17
-8.20156e-17
9.45462e-17
-3.12383e-17
3.32895e-17
3.66279e-18
0
-7.53809e-17
7.63087e-17
0
-6.22881e-17
6.32517e-17
1.05798e-16
0
3.59527e-17
4.8503e-17
-2.15832e-16
0
-3.42322e-17
2.6978e-17
1.95977e-17
-1.46941e-17
2.16188e-17
0
-8.04003e-18
0
-3.87613e-17
-3.87415e-17
2.29499e-18
6.39994e-17
-1.73156e-16
0
-4.53051e-17
0
1.30986e-16
5.35112e-17
0
1.35705e-16
-1.43424e-16
1.42514e-17
-3.27213e-17
8.88112e-18
4.14631e-17
1.58573e-17
-1.25585e-17
0
8.02763e-17
-7.09458e-17
8.81304e-17
1.0692e-16
0
9.23389e-17
-8.75723e-17
-7.01229e-17
1.06934e-16
-1.60691e-16
-7.96698e-17
0
0
1.80205e-17
0
0
5.23067e-18
0
-3.55298e-16
2.72622e-16
0
4.00107e-18
-6.25568e-17
-3.46989e-18
5.62395e-17
4.10171e-17
-5.07329e-17
-1.31953e-16
2.12103e-16
-5.73261e-17
0
-2.81881e-17
0
0
0
-2.01826e-17
1.61149e-17
-1.0032e-16
9.43885e-17
2.54011e-16
-2.48908e-16
7.69034e-17
4.15506e-18
-5.71475e-17
4.97486e-17
8.54445e-17
6.6165e-17
-1.3088e-16
0
6.9733e-17
1.04831e-17
-3.22654e-17
-7.1704e-17
5.92249e-17
-9.76742e-18
1.83885e-17
-3.38773e-16
4.9177e-16
-4.88219e-16
8.65584e-17
7.41808e-17
-7.0866e-17
5.98898e-17
-4.81452e-17
0
-4.15657e-17
6.76291e-17
2.93697e-17
4.77323e-17
6.14547e-17
-9.22789e-17
-1.3539e-18
0
-7.40923e-18
2.47369e-18
-3.66303e-16
-1.09789e-16
-1.94104e-16
1.0291e-16
-1.70294e-16
1.49318e-16
-8.93487e-17
7.64817e-17
-5.05521e-18
-5.05692e-18
-7.06789e-17
4.14974e-17
-2.39931e-17
7.27876e-17
-7.81383e-17
1.00423e-17
8.3602e-18
0
-4.26971e-18
3.96054e-16
-1.18353e-16
0
0
-1.7546e-16
3.42189e-16
-8.04239e-17
-1.56653e-17
1.29753e-16
-3.32595e-18
0
0
-3.08249e-17
0
-6.77641e-17
1.65195e-16
-1.14886e-16
0
1.68516e-18
1.35715e-16
2.54529e-16
0
-1.09432e-16
-9.02576e-17
-8.06819e-17
-8.35688e-17
3.49951e-17
-9.81885e-17
-5.42323e-17
0
0
4.04932e-17
0
0
-9.13073e-17
1.50368e-16
0
0
9.31306e-16
-1.08574e-16
-5.67049e-16
-3.11805e-16
4.2269e-16
1.35859e-16
8.10303e-17
0
-3.01492e-17
2.9476e-17
7.29204e-17
-2.35905e-17
-3.55331e-17
5.52103e-17
-5.87269e-17
-1.83021e-17
0
0
0
7.458e-17
-5.91642e-16
5.80288e-16
-5.59503e-17
-4.35798e-16
6.83988e-16
-3.44417e-16
0
0
1.87381e-16
-1.54246e-16
0
-4.71829e-17
8.20452e-17
-9.33417e-18
2.40732e-17
7.37038e-18
7.78063e-20
1.61355e-18
0
0
0
4.91762e-16
-3.29648e-16
3.49932e-16
-5.46393e-16
1.56135e-16
0
-5.68989e-17
9.15558e-17
-9.35755e-17
-1.85185e-17
-4.06459e-19
-1.27819e-17
-1.90994e-18
-1.01843e-17
-2.84967e-18
-1.5603e-18
6.2519e-16
-1.11683e-15
5.30273e-16
0
1.44547e-16
-1.96861e-16
1.99007e-16
-1.57897e-16
0
-7.78398e-17
1.0914e-16
0
0
-3.03135e-19
0
-1.31125e-17
8.97886e-18
1.6748e-18
2.48516e-18
6.05218e-16
0
-2.43278e-16
2.71771e-16
-1.71983e-16
3.76405e-16
-1.78317e-16
-1.40654e-16
1.42123e-16
-1.45189e-17
0
0
9.38548e-18
-1.59386e-17
-1.11728e-17
2.12038e-17
-4.59053e-18
2.35766e-18
0
3.43663e-16
2.70111e-16
-8.39986e-18
-2.58993e-16
-2.63109e-17
-1.90685e-16
2.00517e-17
1.60887e-16
-8.3565e-18
1.47916e-17
0
0
-9.61479e-18
0
1.13341e-17
-1.21248e-17
0
1.55392e-18
-4.31243e-19
-1.82419e-16
-1.3547e-16
1.26838e-16
-1.4609e-17
-6.57273e-18
1.78305e-17
0
-4.74046e-18
7.13757e-17
-6.011e-17
0
2.05256e-17
-3.99976e-18
-1.81521e-17
-1.66281e-18
-1.29767e-18
0
-1.21429e-18
0
7.46824e-17
-1.42225e-16
-2.09158e-18
6.14229e-17
5.6608e-17
-5.62589e-17
-4.01613e-17
4.5471e-17
-1.57102e-17
1.22829e-17
-1.20118e-17
1.23823e-17
0
3.17979e-20
-1.22444e-18
4.40489e-18
-1.50845e-20
0
0
7.4685e-17
-7.44051e-17
-6.11014e-17
5.41146e-17
1.00017e-16
-1.00607e-16
-2.00813e-17
2.01288e-17
-1.58429e-17
1.60093e-17
-1.20122e-17
2.26901e-17
-6.36373e-18
-4.59581e-18
-1.41378e-18
4.68065e-19
1.11894e-18
2.96052e-19
-2.22042e-19
0
-1.77493e-17
1.0647e-16
-1.15373e-16
9.98732e-17
-8.85062e-17
0
7.12444e-17
-6.37092e-17
0
2.39341e-17
-3.03166e-17
-1.73215e-17
1.8154e-17
3.35061e-18
0
0
-1.21446e-18
4.41425e-19
2.97283e-16
-5.48335e-16
5.61389e-16
-4.94734e-16
1.94836e-16
-1.66983e-16
1.58397e-16
1.89685e-17
-7.0918e-17
6.33811e-17
0
-4.64031e-17
4.2244e-17
-8.06601e-18
-3.28193e-18
5.18474e-18
3.81483e-18
1.17901e-18
-4.26517e-19
6.82539e-16
0
-2.75144e-16
2.13793e-16
2.60083e-17
-2.01272e-16
3.57831e-16
-3.18964e-16
1.25443e-16
-5.4082e-17
5.53577e-17
1.10007e-17
1.90207e-17
7.85638e-18
-6.55663e-18
-8.48329e-19
-8.27109e-18
0
8.50867e-19
5.48901e-16
-6.17858e-16
0
5.72267e-17
2.48686e-16
-2.43787e-16
4.19274e-17
3.7347e-17
1.6341e-17
2.90234e-17
0
0
-3.31022e-17
6.22629e-17
-2.2794e-17
-8.20294e-18
8.98085e-18
7.21206e-19
-1.62025e-18
4.79467e-17
5.4273e-16
-6.31603e-17
-4.34591e-16
3.8145e-16
4.59673e-17
-4.10336e-17
-3.6477e-17
1.21281e-16
-1.50463e-16
9.15814e-17
-9.36004e-17
1.48292e-17
-1.86612e-17
3.44452e-17
-2.29348e-17
0
0
1.67507e-18
0
1.36381e-16
-4.1287e-16
4.71621e-16
-3.85601e-16
3.84683e-16
0
1.35829e-16
-1.36451e-16
-1.039e-16
1.54356e-16
0
6.49805e-17
-8.21016e-17
-1.21777e-17
0
-1.38693e-18
-2.80744e-18
-2.49403e-20
-1.29038e-15
6.17079e-16
0
-4.22611e-16
4.22568e-16
2.62442e-16
-1.72587e-16
7.2059e-17
0
-3.2899e-18
2.50047e-17
-2.35575e-17
-3.54849e-17
5.51269e-17
-5.86181e-17
0
1.29971e-17
-2.95782e-18
-1.73717e-18
7.95424e-16
-7.83834e-16
0
1.09412e-16
1.0024e-16
-9.20588e-17
0
-7.55184e-17
-6.59287e-17
0
-2.59443e-18
0
4.05094e-17
0
0
1.87821e-17
7.08931e-17
-9.15531e-17
0
1.15078e-19
1.1841e-16
-1.10034e-16
9.12692e-17
-4.6323e-16
1.78103e-16
0
1.56762e-17
4.45205e-17
0
-4.6488e-17
1.37653e-16
-1.44613e-16
2.48267e-17
0
-2.57013e-18
0
0
0
1.09983e-19
0
1.01699e-16
0
-1.60808e-16
1.63365e-16
0
6.0191e-17
-4.89276e-17
1.78925e-16
-8.66212e-17
3.19828e-17
-5.2112e-17
5.03642e-17
-7.82294e-17
-1.25765e-17
0
-8.6866e-18
0
3.101e-16
-5.24184e-16
0
-8.66342e-17
7.85127e-17
0
0
-1.10245e-16
0
-4.15949e-17
-6.76794e-17
-2.93951e-17
4.77784e-17
0
2.66382e-17
0
0
1.91028e-17
-2.12718e-17
0
4.56144e-16
-3.65449e-16
8.02035e-17
-7.27032e-17
-3.03937e-17
8.8058e-17
1.00375e-16
-1.24959e-16
4.04079e-17
2.38424e-18
-3.94177e-17
1.62163e-16
-5.05446e-17
-1.20471e-16
4.19881e-17
-1.11911e-17
6.67466e-18
-2.0942e-18
-7.34233e-16
2.72599e-16
0
0
3.13061e-17
-3.18348e-17
2.36446e-17
1.62813e-17
1.13356e-16
5.92239e-17
-5.91489e-17
-1.93841e-18
-3.46215e-17
2.8212e-17
0
1.45911e-17
1.02575e-17
5.66776e-18
1.89286e-18
0
2.37597e-16
-2.23407e-16
7.20143e-17
7.59434e-17
-1.47246e-17
-4.8566e-17
-4.21309e-17
-1.42194e-16
5.85547e-17
-3.7338e-17
4.99653e-17
3.23754e-17
-4.16914e-17
4.42528e-17
2.91362e-17
-3.75412e-17
-5.23501e-18
0
-4.15243e-17
-1.8835e-16
6.80305e-17
6.40159e-17
-2.24001e-16
1.61389e-16
8.27305e-17
-8.45632e-17
6.65481e-17
-5.55713e-17
0
0
-4.95182e-17
8.95141e-17
-3.98835e-17
3.84415e-17
-4.19509e-17
7.07105e-18
-1.25695e-17
7.82074e-17
7.36241e-17
-6.77202e-17
5.44628e-17
-6.26209e-17
-9.82545e-17
0
0
0
0
0
0
2.55269e-17
-6.8826e-17
7.2791e-17
-2.43332e-17
2.99625e-17
1.43111e-17
-1.21557e-17
1.61531e-16
-2.79995e-16
3.50592e-16
-1.68706e-16
2.32759e-16
-1.75794e-16
3.30546e-16
-1.88757e-16
-1.05307e-16
1.07724e-16
0
3.09837e-17
-2.49385e-17
6.2889e-17
-2.04061e-17
-2.71931e-17
-5.88861e-17
4.37192e-18
1.03738e-17
2.51112e-16
7.33257e-17
0
-1.17185e-16
-9.48141e-17
2.18945e-16
2.41013e-17
-9.18436e-17
5.52729e-17
-4.04751e-17
0
-2.45271e-17
0
-2.07889e-17
1.70578e-17
-1.5593e-17
-5.18888e-18
3.71464e-18
0
3.51117e-16
-7.75133e-17
3.32396e-16
-2.6057e-16
-5.35238e-17
2.16008e-16
-1.29527e-16
6.10176e-18
5.11016e-18
-3.96581e-17
3.84596e-17
0
0
2.50798e-17
-9.42565e-18
6.24697e-18
1.87639e-17
-6.52679e-18
0
7.0143e-20
0
-7.32818e-17
4.37389e-16
-2.96809e-16
-3.24399e-16
1.78097e-16
-1.92757e-16
1.79872e-16
9.15813e-17
-7.0886e-17
2.9278e-17
-2.63645e-17
4.40054e-18
4.51271e-17
1.91234e-18
-1.76788e-17
1.74986e-17
-3.57038e-18
8.57381e-16
-2.74148e-16
1.38066e-16
-4.24534e-16
1.18331e-16
-1.89325e-16
1.00892e-16
0
0
-3.88147e-18
-5.18214e-18
-1.52594e-18
0
-3.89946e-17
-3.00893e-17
2.23689e-17
-1.64956e-18
2.8318e-18
7.0056e-18
0
-2.74037e-16
4.70963e-16
1.09677e-16
-3.90399e-16
1.07086e-16
-1.68448e-16
2.56945e-17
1.39564e-16
0
0
2.62709e-18
3.16001e-17
0
-2.90089e-17
-1.34311e-17
1.96934e-18
-7.15652e-18
-8.06128e-18
0
-1.74272e-16
3.52398e-17
3.18013e-16
2.44718e-16
-4.51394e-16
2.06815e-16
-1.49305e-16
7.93615e-17
-1.13736e-16
0
0
0
-5.14418e-17
1.44788e-17
-1.74155e-17
0
-1.09411e-18
5.49817e-18
-6.46182e-16
6.14215e-16
6.69478e-16
-8.13708e-16
3.89206e-16
-3.67607e-16
0
1.56754e-16
-2.15885e-16
1.26947e-16
-1.01055e-16
8.39955e-17
6.9325e-17
5.32022e-17
4.23799e-17
0
0
0
0
7.11448e-16
-4.14875e-16
0
0
-1.41127e-16
3.50339e-16
-2.24857e-16
-1.65412e-16
1.63548e-16
1.2525e-16
2.1335e-16
-8.71535e-17
3.72581e-17
2.87444e-17
2.15034e-17
1.74878e-17
2.84356e-17
-1.40312e-18
1.4292e-18
-7.22508e-16
6.67411e-16
3.62736e-16
-1.87793e-16
4.22827e-16
-2.71987e-16
-2.19703e-16
-1.88506e-16
0
-2.61754e-16
1.17663e-17
9.8398e-17
-7.85434e-17
-6.4612e-17
-2.39379e-17
-2.55452e-17
-2.03911e-17
0
0
-2.48546e-16
0
1.96329e-16
-3.41225e-19
0
0
2.2663e-16
1.94512e-16
0
1.41273e-16
0
-1.49583e-16
-4.22008e-17
7.53179e-17
0
4.88068e-17
-6.91909e-18
7.0584e-18
0
5.27207e-16
0
3.79836e-16
-7.0877e-16
6.38138e-16
5.25467e-16
-1.4871e-17
0
1.34299e-17
1.62388e-16
0
-1.66178e-16
1.88262e-16
-1.68008e-16
-3.67576e-17
-3.92826e-17
-1.14939e-17
-2.03872e-18
-7.13515e-18
-4.93908e-16
7.12474e-16
-2.04238e-16
-5.40525e-16
-3.16576e-16
-2.77351e-16
-4.85033e-16
-1.98626e-16
1.44944e-17
7.47818e-17
-7.46413e-17
2.41528e-16
-1.06882e-16
2.16678e-16
-4.06162e-17
0
4.57693e-17
-2.67987e-17
7.23229e-18
1.08423e-15
-2.19124e-17
-8.42722e-16
7.09965e-16
-6.4346e-16
5.68109e-16
-1.65111e-17
-2.21352e-16
1.95452e-16
7.92673e-17
-9.65964e-18
-1.96324e-16
5.74716e-17
5.93585e-17
-1.82924e-17
1.8501e-17
-4.74058e-17
-4.37406e-18
-1.08836e-17
5.32259e-16
2.28076e-16
4.05329e-16
-3.60606e-16
-3.03175e-16
1.44045e-17
-2.38833e-16
5.7987e-16
1.80166e-17
2.74241e-16
1.61676e-16
-1.43799e-16
0
-1.02386e-16
0
0
6.45372e-17
2.8606e-17
1.27203e-17
5.01426e-16
0
4.00688e-16
3.58279e-16
-3.22099e-16
2.85492e-16
0
-2.27686e-16
-3.17584e-16
-2.80038e-16
-1.63107e-16
1.45425e-16
0
0
0
0
-6.04863e-17
-4.41744e-17
0
-9.82553e-16
0
-1.80045e-17
-1.58952e-17
4.89425e-16
-2.80674e-16
-1.29806e-16
-1.30269e-16
3.21419e-16
0
8.51115e-17
-9.06473e-18
7.55945e-17
0
0
9.92318e-17
-7.37327e-18
5.30323e-17
-1.98646e-17
6.9227e-16
2.02261e-16
-2.00173e-16
-1.79062e-16
-6.30588e-16
4.37235e-16
5.32759e-16
-1.30106e-17
-2.18543e-16
2.14957e-16
4.54195e-17
-2.29569e-16
-1.89253e-16
-1.13248e-16
-1.19668e-16
-1.14372e-16
9.37871e-17
-4.43761e-18
2.03455e-17
-2.13445e-16
9.7879e-17
-4.73048e-16
8.22877e-17
-8.19884e-17
0
-2.64222e-16
-1.66801e-17
-2.4496e-16
1.89041e-17
2.39382e-16
1.7822e-16
-4.34876e-17
1.97558e-17
1.13878e-16
0
-1.94393e-16
-7.08906e-17
-1.47579e-18
4.32256e-16
-1.19181e-17
7.43607e-16
-3.56506e-16
6.61784e-19
9.58699e-18
2.89077e-16
-2.06808e-17
2.37571e-16
-2.22549e-16
-2.0917e-16
0
2.06318e-16
1.65839e-16
2.28593e-18
-3.31979e-18
1.04778e-16
7.20592e-17
0
-3.07638e-16
0
-7.63375e-17
3.39295e-16
4.47366e-18
7.84491e-17
-2.79533e-16
2.64862e-16
2.77891e-16
2.66078e-16
2.55461e-16
0
-2.00434e-16
0
1.0532e-17
-1.09384e-17
0
-1.03823e-18
5.09552e-17
2.11919e-16
1.01897e-17
-1.71421e-16
5.27086e-16
-1.69753e-16
0
0
-3.09565e-16
-2.69248e-16
-2.5777e-16
-4.6557e-16
-6.50246e-17
0
0
0
-2.14038e-17
2.26506e-17
1.44469e-16
-5.17301e-17
1.05258e-17
0
-3.65901e-16
-3.37218e-16
3.51751e-16
-3.48977e-16
-5.00916e-16
6.17339e-16
1.70167e-16
0
2.73423e-16
3.07806e-16
-6.64637e-17
3.60306e-16
-5.89595e-17
6.13625e-17
2.37952e-16
-1.37283e-16
0
-4.05241e-16
0
-3.89071e-16
3.81706e-16
0
6.9344e-16
3.26551e-16
-6.83353e-16
5.44031e-16
-3.67339e-18
-1.65018e-16
-2.98019e-16
0
4.08373e-16
-6.85398e-16
7.35283e-16
-9.36954e-16
0
0
4.03311e-16
-2.42825e-18
-5.98357e-18
-7.67865e-16
7.74053e-16
-3.74808e-16
3.7328e-16
3.67858e-16
-3.27076e-16
0
0
6.11649e-16
-6.22186e-16
-6.6608e-16
6.60022e-16
-6.42773e-16
6.95048e-16
-1.08859e-15
0
)
;

boundaryField
{
    up
    {
        type            calculated;
        value           nonuniform List<scalar> 
84
(
0
0
0
0
-3.71824e-17
6.71132e-17
-2.80377e-17
2.03455e-17
-1.77571e-17
0
-1.42829e-17
1.36032e-17
-9.60894e-18
8.20927e-19
6.96854e-19
7.07166e-18
0
0
-4.38489e-18
3.25641e-18
3.30097e-18
-3.20522e-18
2.98674e-19
0
1.31796e-18
5.95638e-19
-1.19889e-17
0
1.61149e-17
1.91612e-17
2.47369e-18
-4.26971e-18
1.68516e-18
0
-8.29616e-19
1.67281e-18
-1.55958e-18
2.48229e-18
0
-4.30734e-19
0
0
-2.22187e-19
4.41425e-19
-4.26517e-19
8.50867e-19
-1.62025e-18
1.67507e-18
-2.49403e-20
-1.73717e-18
0
0
0
-2.12718e-17
-2.86742e-18
1.89286e-18
0
-1.25695e-17
-1.21557e-17
9.06043e-18
0
0
-3.57038e-18
7.0056e-18
-8.06128e-18
5.49817e-18
0
1.4292e-18
0
0
-7.13515e-18
7.23229e-18
-1.08836e-17
1.27203e-17
0
-1.98646e-17
2.03455e-17
-1.47579e-18
0
5.09552e-17
-5.17301e-17
0
0
0
)
;
    }
    low
    {
        type            calculated;
        value           nonuniform List<scalar> 
84
(
-8.07372e-16
8.06791e-16
-3.95445e-16
6.22489e-16
1.09026e-16
-2.83315e-17
2.36781e-16
2.32259e-17
0
1.0058e-15
-2.54918e-16
2.13751e-16
-2.3577e-16
-1.51934e-15
2.4833e-16
0
-2.31341e-16
1.79226e-17
-1.71354e-17
-1.8654e-16
9.54826e-17
2.56287e-16
4.34525e-16
-3.88989e-16
0
-7.53809e-17
-3.87613e-17
0
-3.55298e-16
-1.0032e-16
-3.37776e-16
-3.65497e-16
3.9549e-16
1.35715e-16
9.31295e-16
7.458e-17
0
6.2519e-16
6.06416e-16
3.44327e-16
-1.82777e-16
7.46824e-17
7.4685e-17
0
2.97283e-16
6.83736e-16
5.48901e-16
4.8719e-17
0
-1.29037e-15
7.95424e-16
1.15078e-19
1.09983e-19
3.101e-16
0
-7.32691e-16
0
-4.15243e-17
7.82074e-17
1.60623e-16
2.49511e-16
3.49618e-16
7.0143e-20
8.56119e-16
0
0
-6.46182e-16
7.10784e-16
-7.22049e-16
-2.48546e-16
5.27169e-16
-4.93908e-16
1.08577e-15
5.33376e-16
5.01426e-16
-9.82553e-16
6.91013e-16
-2.12133e-16
4.32256e-16
-3.07111e-16
2.11919e-16
1.14802e-17
-4.05241e-16
4.03573e-16
)
;
    }
    left
    {
        type            calculated;
        value           nonuniform List<scalar> 
19
(
-8.06848e-16
-3.93112e-16
3.98507e-16
8.07669e-18
-7.60991e-16
0
-3.56235e-16
-3.51257e-16
-2.3601e-17
-1.84592e-16
-1.74517e-18
-1.83499e-16
8.14775e-16
-1.8134e-16
8.47657e-16
7.31219e-16
4.34867e-16
6.3767e-16
0
)
;
    }
    right
    {
        type            calculated;
        value           nonuniform List<scalar> 
19
(
4.03311e-16
-2.14218e-18
-5.98357e-18
-7.6786e-16
7.74245e-16
-3.74808e-16
3.7328e-16
3.67858e-16
-3.25942e-16
0
0
6.1746e-16
-6.30371e-16
-6.6608e-16
6.60022e-16
-6.42773e-16
6.95048e-16
-1.17724e-15
0
)
;
    }
    frontAndBackPlanes
    {
        type            empty;
    }
}


// ************************************************************************* //
