/*--------------------------------*- C++ -*----------------------------------*\
  =========                 |
  \\      /  F ield         | OpenFOAM: The Open Source CFD Toolbox
   \\    /   O peration     | Website:  https://openfoam.org
    \\  /    A nd           | Version:  7
     \\/     M anipulation  |
\*---------------------------------------------------------------------------*/
FoamFile
{
    version     2.0;
    format      ascii;
    class       volScalarField;
    location    "0.28";
    object      T;
}
// * * * * * * * * * * * * * * * * * * * * * * * * * * * * * * * * * * * * * //

dimensions      [0 0 0 1 0 0 0];

internalField   nonuniform List<scalar> 
1596
(
4.98754
4.95178
4.9151
4.88018
4.84767
4.81713
4.78787
4.75842
4.72769
4.69317
4.65289
4.60423
4.54117
4.45531
4.33345
4.14609
3.83817
3.29955
2.30956
4.94611
4.83473
4.72936
4.63196
4.54226
4.45866
4.37918
4.30067
4.22045
4.13387
4.03703
3.92521
3.78963
3.61939
3.40087
3.10803
2.70035
2.10796
1.19855
4.89705
4.70964
4.54064
4.38776
4.24857
4.12004
3.99906
3.88153
3.76382
3.64048
3.50694
3.35796
3.18483
2.97756
2.72513
2.40822
2.00014
1.45953
0.709203
4.84853
4.58984
4.36338
4.16177
3.98005
3.81383
3.65908
3.51112
3.36584
3.21758
3.06169
2.89302
2.7037
2.48528
2.22931
1.92194
1.54591
1.07714
0.470731
4.80813
4.48768
4.21089
3.96677
3.74838
3.55029
3.36777
3.19584
3.03015
2.86507
2.69607
2.51825
2.32458
2.10793
1.86171
1.57576
1.23863
0.836047
0.341439
4.78085
4.41167
4.09237
3.81135
3.56092
3.33517
3.129
2.93731
2.75567
2.57857
2.40163
2.22017
2.02782
1.81836
1.58642
1.32413
1.02346
0.675597
0.264204
4.76743
4.36423
4.01078
3.69812
3.41936
3.16886
2.94158
2.73249
2.53721
2.35041
2.16785
1.98499
1.79594
1.59508
1.37772
1.1374
0.86806
0.563877
0.214247
4.76501
4.34201
3.96301
3.62393
3.32013
3.04706
2.80021
2.57489
2.36693
2.17121
1.98362
1.79977
1.61405
1.42122
1.21698
0.995688
0.752389
0.482879
0.179794
4.7708
4.34023
3.94387
3.58346
3.25769
2.96385
2.69843
2.45738
2.2369
2.03217
1.83924
1.65383
1.47055
1.28438
1.09119
0.885808
0.663894
0.42208
0.154822
4.77875
4.34874
3.94222
3.56572
3.22145
2.90897
2.62621
2.37002
2.13718
1.92326
1.72455
1.53688
1.35503
1.17412
0.990081
0.797991
0.593812
0.374577
0.1358
4.78524
4.35928
3.94784
3.56006
3.20096
2.87241
2.57398
2.30365
2.05894
1.83593
1.63121
1.44078
1.25958
1.08281
0.906402
0.725572
0.536402
0.33607
0.120673
4.79338
4.37377
3.96053
3.5647
3.19354
2.85099
2.53826
2.25459
1.99836
1.76626
1.55525
1.36154
1.1802
1.00652
0.83639
0.665065
0.48864
0.304279
0.108363
4.80119
4.38914
3.97616
3.57469
3.19376
2.83908
2.51347
2.2174
1.95021
1.70925
1.49192
1.29464
1.11267
0.941331
0.776478
0.613334
0.44794
0.27735
0.0980621
4.80613
4.40063
3.98893
3.58368
3.19506
2.8302
2.49334
2.18616
1.90894
1.65977
1.43647
1.23576
1.05305
0.883727
0.723572
0.567761
0.412232
0.253871
0.0891834
4.81037
4.41003
3.99952
3.59134
3.1963
2.82264
2.47582
2.15862
1.87225
1.61549
1.38666
1.18275
0.999331
0.831847
0.676011
0.526916
0.380368
0.233049
0.0813928
4.81451
4.41855
4.0088
3.59785
3.19703
2.81544
2.45956
2.13319
1.83839
1.57464
1.34071
1.13388
0.94988
0.784196
0.632459
0.48966
0.351445
0.214269
0.0744397
4.81745
4.42487
4.01541
3.60169
3.19548
2.8066
2.44244
2.10769
1.80522
1.53513
1.29665
1.08732
0.903021
0.739271
0.59161
0.454908
0.32463
0.19698
0.0681077
4.81962
4.4294
4.01969
3.60303
3.19156
2.79578
2.42386
2.08135
1.77182
1.49597
1.25345
1.04202
0.857731
0.696102
0.552582
0.421906
0.299334
0.180795
0.0622442
4.82346
4.43601
4.02576
3.60578
3.18877
2.78592
2.40621
2.05598
1.7395
1.45803
1.21158
0.998171
0.813946
0.654446
0.515022
0.390267
0.275215
0.165478
0.0567581
4.82808
4.44432
4.03371
3.61025
3.18743
2.77728
2.38962
2.03158
1.70809
1.42099
1.17063
0.955214
0.771016
0.613577
0.478169
0.359262
0.251666
0.150634
0.0515172
4.83162
4.4516
4.04088
3.61408
3.18552
2.7681
2.37254
2.00676
1.67638
1.38372
1.12951
0.912115
0.727911
0.572452
0.440962
0.327855
0.227788
0.13566
0.0463257
4.83515
4.45876
4.04807
3.61805
3.18378
2.75911
2.35562
1.98207
1.64472
1.34642
1.08821
0.868643
0.684183
0.530396
0.402496
0.294938
0.202405
0.119619
0.0408562
4.83917
4.46664
4.05605
3.62285
3.18289
2.75092
2.33942
1.95796
1.61343
1.3092
1.04662
0.824446
0.639226
0.486532
0.361577
0.258935
0.173575
0.100569
0.0341752
4.84338
4.47479
4.06425
3.62782
3.18216
2.74289
2.32336
1.9339
1.58198
1.27145
1.00401
0.778607
0.591922
0.439524
0.316576
0.217728
0.138367
0.0745576
0.0225303
4.84997
4.49134
4.08814
3.65644
3.21294
2.77344
2.35155
1.95796
1.60056
1.28372
1.0097
0.778085
0.58606
0.429563
0.303949
0.203884
0.124859
0.0633891
0.016887
4.85717
4.51238
4.12237
3.70251
3.26876
2.83626
2.41824
2.02524
1.6653
1.34321
1.06188
0.821827
0.621184
0.456724
0.32433
0.218808
0.135387
0.0700969
0.0196113
4.86073
4.5247
4.14454
3.73476
3.31043
2.8858
2.47339
2.08325
1.72318
1.39807
1.11122
0.863884
0.655166
0.482817
0.343485
0.23231
0.144432
0.0755089
0.0216494
4.86066
4.52796
4.15394
3.75218
3.33668
2.92058
2.51539
2.13032
1.77261
1.4469
1.15659
0.903449
0.687447
0.507423
0.361064
0.244117
0.151833
0.0795999
0.0230534
4.85821
4.52473
4.15401
3.75872
3.35166
2.94468
2.54805
2.16992
1.8167
1.49251
1.20059
0.942955
0.720265
0.532472
0.378568
0.255297
0.158325
0.0828672
0.0240619
4.85359
4.51662
4.14762
3.75811
3.35954
2.96237
2.5755
2.20586
1.85893
1.53812
1.24628
0.9854
0.756536
0.560617
0.398119
0.267269
0.164696
0.0857031
0.024824
4.84774
4.50642
4.13875
3.75503
3.36534
2.97867
2.60252
2.24263
1.90344
1.58761
1.29744
1.03463
0.800255
0.595832
0.423222
0.282556
0.172294
0.0885984
0.0254598
4.84308
4.49816
4.13225
3.7547
3.37431
2.99868
2.63395
2.28469
1.95438
1.64494
1.35809
1.09502
0.856418
0.643762
0.459679
0.306106
0.18419
0.0925852
0.0259928
4.83862
4.4907
4.12726
3.75666
3.38638
3.02264
2.67029
2.33279
2.01279
1.71156
1.43028
1.16964
0.929669
0.711133
0.51631
0.347744
0.20886
0.102241
0.0265285
4.83423
4.48417
4.12429
3.76176
3.40266
3.05185
2.71297
2.38851
2.08042
1.78944
1.51641
1.26171
1.02483
0.805644
0.605182
0.424741
0.267359
0.137572
0.0379198
4.82906
4.47541
4.11736
3.76095
3.41095
3.07099
2.74365
2.43063
2.13328
1.85199
1.58741
1.33983
1.10861
0.893235
0.693755
0.509625
0.341158
0.190389
0.0590625
4.8203
4.45633
4.09348
3.73646
3.38878
3.05301
2.73087
2.42335
2.13134
1.85487
1.59442
1.35022
1.12164
0.908313
0.710418
0.527316
0.358819
0.205504
0.0666735
4.8089
4.43053
4.05915
3.69775
3.34857
3.01319
2.69256
2.38708
2.09724
1.82273
1.5639
1.32096
1.09335
0.880888
0.68418
0.503091
0.338153
0.19073
0.06067
4.79921
4.40871
4.03021
3.66519
3.31481
2.9798
2.6605
2.35684
2.06898
1.79639
1.53937
1.29811
1.07213
0.861402
0.666745
0.488209
0.326498
0.183105
0.0579039
4.79215
4.39231
4.00813
3.64012
3.28865
2.95381
2.63547
2.3332
2.04691
1.77593
1.52048
1.28077
1.05635
0.847259
0.654428
0.477978
0.318687
0.178123
0.0561773
4.78672
4.37972
3.99118
3.62089
3.26856
2.93386
2.61625
2.31505
2.03001
1.76032
1.50615
1.26773
1.0446
0.836851
0.645459
0.470598
0.313093
0.174578
0.0549683
4.78276
4.37056
3.97893
3.60706
3.25419
2.91962
2.60258
2.30217
2.01804
1.74929
1.49608
1.2586
1.03641
0.829609
0.639228
0.465463
0.309184
0.172086
0.0541117
4.77962
4.36414
3.97088
3.59834
3.24538
2.91107
2.5945
2.29467
2.01117
1.74306
1.49047
1.2536
1.03202
0.825808
0.636028
0.462884
0.307263
0.170886
0.0537136
4.77962
4.36416
3.97091
3.59836
3.24541
2.9111
2.59453
2.2947
2.0112
1.74309
1.4905
1.25363
1.03204
0.825827
0.636044
0.462896
0.307271
0.170891
0.0537154
4.78278
4.37061
3.979
3.60714
3.25428
2.91972
2.60267
2.30227
2.01813
1.74938
1.49616
1.25867
1.03648
0.82967
0.639279
0.465503
0.309214
0.172104
0.054118
4.78675
4.3798
3.99129
3.62101
3.26871
2.93401
2.61641
2.3152
2.03016
1.76046
1.50628
1.26785
1.04471
0.836944
0.645537
0.470659
0.313137
0.174605
0.0549773
4.79219
4.39241
4.00827
3.64029
3.28883
2.95401
2.63568
2.3334
2.04711
1.77612
1.52065
1.28092
1.05649
0.847378
0.654526
0.478054
0.318742
0.178155
0.0561882
4.79926
4.40884
4.03038
3.6654
3.31504
2.98005
2.66075
2.35708
2.06921
1.79662
1.53958
1.29829
1.07229
0.861542
0.666859
0.488297
0.32656
0.183141
0.0579156
4.80896
4.43067
4.05934
3.69798
3.34884
3.01347
2.69284
2.38736
2.09751
1.82298
1.56414
1.32117
1.09353
0.881036
0.684295
0.503175
0.338207
0.190758
0.0606774
4.82036
4.45649
4.0937
3.73672
3.38908
3.05332
2.73118
2.42366
2.13164
1.85515
1.59467
1.35043
1.12182
0.908439
0.710498
0.527351
0.358819
0.205487
0.0666606
4.82913
4.47563
4.11771
3.76141
3.41151
3.07162
2.74435
2.43137
2.13406
1.85278
1.58821
1.34063
1.10941
0.894022
0.694524
0.510358
0.341814
0.190888
0.0592801
4.83432
4.48443
4.12471
3.76232
3.40335
3.05265
2.71386
2.38947
2.08144
1.79049
1.51748
1.2628
1.02591
0.806693
0.606172
0.425624
0.268069
0.138038
0.0380894
4.83869
4.49092
4.12762
3.75715
3.38698
3.02333
2.67106
2.33362
2.01366
1.71245
1.43118
1.17052
0.930515
0.711913
0.516988
0.348278
0.209218
0.102419
0.0265631
4.84315
4.49836
4.13258
3.75516
3.37488
2.99934
2.63468
2.28547
1.95519
1.64576
1.3589
1.09579
0.857134
0.64439
0.460189
0.306477
0.18442
0.0926968
0.0260216
4.8478
4.5066
4.13906
3.75546
3.36587
2.97929
2.60321
2.24336
1.90419
1.58836
1.29817
1.03531
0.800864
0.596346
0.423623
0.282838
0.172468
0.0886873
0.0254852
4.85364
4.51679
4.1479
3.7585
3.36004
2.96295
2.57613
2.20654
1.85962
1.5388
1.24694
0.986
0.75706
0.561048
0.398449
0.267501
0.164842
0.0857804
0.0248472
4.85825
4.52487
4.15426
3.75908
3.35211
2.94521
2.54864
2.17054
1.81733
1.49313
1.20117
0.943483
0.720719
0.532841
0.378849
0.255496
0.158453
0.0829372
0.0240838
4.8607
4.52809
4.15417
3.7525
3.33708
2.92106
2.51592
2.13088
1.77318
1.44745
1.15711
0.903915
0.687844
0.507744
0.361309
0.244293
0.15195
0.079666
0.0230752
4.86076
4.5248
4.14473
3.73505
3.31079
2.88623
2.47387
2.08376
1.72369
1.39856
1.11168
0.864295
0.655516
0.483101
0.343705
0.232472
0.144542
0.0755743
0.0216725
4.8572
4.51247
4.12254
3.70276
3.26908
2.83664
2.41867
2.0257
1.66576
1.34365
1.06229
0.822191
0.621495
0.456979
0.324532
0.218961
0.135496
0.0701655
0.019638
4.84997
4.49136
4.08818
3.6565
3.21303
2.77354
2.35167
1.95808
1.60069
1.28384
1.00981
0.778171
0.586125
0.429607
0.303973
0.203892
0.124855
0.0633799
0.0168807
4.84337
4.47476
4.0642
3.62775
3.18208
2.74281
2.32327
1.9338
1.58188
1.27136
1.00392
0.778525
0.591845
0.439453
0.316511
0.217671
0.138319
0.0745235
0.0225148
4.83917
4.46663
4.05604
3.62283
3.18288
2.7509
2.3394
1.95795
1.61342
1.30919
1.04662
0.82445
0.639233
0.486541
0.361586
0.258944
0.173583
0.100575
0.0341769
4.83515
4.45875
4.04806
3.61804
3.18377
2.7591
2.35561
1.98207
1.64471
1.34642
1.08821
0.868648
0.68419
0.530404
0.402504
0.294945
0.20241
0.119623
0.0408572
4.83162
4.45159
4.04088
3.61407
3.18551
2.7681
2.37253
2.00676
1.67638
1.38373
1.12951
0.91212
0.727917
0.572458
0.440968
0.327861
0.227792
0.135662
0.0463263
4.82808
4.44432
4.0337
3.61024
3.18742
2.77728
2.38961
2.03158
1.70809
1.42099
1.17063
0.955219
0.771021
0.613583
0.478174
0.359266
0.251669
0.150635
0.0515176
4.82346
4.436
4.02575
3.60578
3.18876
2.78592
2.40621
2.05599
1.7395
1.45803
1.21159
0.998175
0.813951
0.65445
0.515025
0.390269
0.275217
0.165479
0.0567583
4.81962
4.4294
4.01969
3.60303
3.19156
2.79578
2.42386
2.08135
1.77182
1.49597
1.25345
1.04202
0.857734
0.696105
0.552584
0.421908
0.299336
0.180795
0.0622443
4.81745
4.42487
4.01541
3.60169
3.19548
2.8066
2.44244
2.1077
1.80522
1.53513
1.29666
1.08732
0.903023
0.739273
0.591611
0.454909
0.324631
0.19698
0.0681078
4.81451
4.41855
4.0088
3.59785
3.19703
2.81544
2.45956
2.13319
1.83839
1.57464
1.34071
1.13388
0.949881
0.784197
0.63246
0.48966
0.351445
0.214269
0.0744397
4.81037
4.41004
3.99952
3.59134
3.1963
2.82265
2.47582
2.15862
1.87225
1.61549
1.38666
1.18275
0.999331
0.831847
0.676011
0.526915
0.380367
0.233049
0.0813928
4.80613
4.40063
3.98893
3.58368
3.19506
2.8302
2.49334
2.18616
1.90894
1.65977
1.43647
1.23576
1.05305
0.883726
0.723571
0.56776
0.412231
0.25387
0.0891834
4.80119
4.38914
3.97616
3.57469
3.19376
2.83908
2.51347
2.21741
1.95021
1.70925
1.49192
1.29464
1.11267
0.941329
0.776476
0.613332
0.447939
0.277349
0.0980621
4.79339
4.37377
3.96053
3.5647
3.19355
2.85099
2.53826
2.25459
1.99836
1.76626
1.55525
1.36154
1.1802
1.00652
0.836388
0.665063
0.488639
0.304278
0.108363
4.78524
4.35928
3.94784
3.56006
3.20096
2.87241
2.57398
2.30365
2.05893
1.83592
1.63121
1.44078
1.25958
1.0828
0.9064
0.725571
0.536401
0.33607
0.120673
4.77876
4.34874
3.94222
3.56572
3.22145
2.90897
2.62621
2.37002
2.13718
1.92326
1.72455
1.53688
1.35503
1.17412
0.990079
0.79799
0.593811
0.374578
0.135801
4.7708
4.34023
3.94387
3.58346
3.25769
2.96385
2.69843
2.45738
2.2369
2.03216
1.83924
1.65382
1.47055
1.28438
1.09118
0.885807
0.663894
0.42208
0.154823
4.76501
4.34201
3.96301
3.62393
3.32013
3.04706
2.80021
2.57489
2.36693
2.17121
1.98362
1.79976
1.61405
1.42122
1.21698
0.995688
0.752389
0.48288
0.179794
4.76743
4.36422
4.01077
3.69812
3.41936
3.16886
2.94158
2.73248
2.53721
2.35041
2.16784
1.98499
1.79594
1.59508
1.37772
1.1374
0.86806
0.563877
0.214247
4.78085
4.41166
4.09236
3.81135
3.56092
3.33516
3.129
2.9373
2.75566
2.57856
2.40162
2.22016
2.02781
1.81836
1.58642
1.32413
1.02346
0.675598
0.264204
4.80813
4.48768
4.21089
3.96677
3.74838
3.55028
3.36777
3.19583
3.03014
2.86507
2.69607
2.51825
2.32458
2.10793
1.86171
1.57576
1.23863
0.836047
0.341439
4.84852
4.58983
4.36337
4.16177
3.98005
3.81383
3.65908
3.51112
3.36584
3.21758
3.06168
2.89301
2.7037
2.48527
2.22931
1.92194
1.54591
1.07714
0.470731
4.89705
4.70964
4.54064
4.38776
4.24857
4.12004
3.99906
3.88152
3.76381
3.64047
3.50694
3.35796
3.18483
2.97756
2.72513
2.40822
2.00014
1.45953
0.709202
4.94611
4.83473
4.72936
4.63195
4.54226
4.45866
4.37918
4.30067
4.22045
4.13387
4.03703
3.92521
3.78963
3.61939
3.40087
3.10803
2.70035
2.10796
1.19855
4.98754
4.95178
4.9151
4.88018
4.84767
4.81713
4.78787
4.75842
4.72769
4.69317
4.65289
4.60423
4.54117
4.45531
4.33345
4.14609
3.83817
3.29955
2.30956
)
;

boundaryField
{
    up
    {
        type            fixedValue;
        value           uniform 0;
    }
    low
    {
        type            fixedValue;
        value           uniform 5;
    }
    left
    {
        type            fixedValue;
        value           uniform 5;
    }
    right
    {
        type            fixedValue;
        value           uniform 5;
    }
    frontAndBackPlanes
    {
        type            empty;
    }
}


// ************************************************************************* //
