/*--------------------------------*- C++ -*----------------------------------*\
  =========                 |
  \\      /  F ield         | OpenFOAM: The Open Source CFD Toolbox
   \\    /   O peration     | Website:  https://openfoam.org
    \\  /    A nd           | Version:  7
     \\/     M anipulation  |
\*---------------------------------------------------------------------------*/
FoamFile
{
    version     2.0;
    format      ascii;
    class       volScalarField;
    location    "0.04";
    object      gradTx;
}
// * * * * * * * * * * * * * * * * * * * * * * * * * * * * * * * * * * * * * //

dimensions      [0 -1 0 1 0 0 0];

internalField   nonuniform List<scalar> 
1596
(
-1.22
-6.07854
-10.4774
-13.7973
-16.0093
-17.2615
-17.8838
-18.1002
-18.0772
-17.9641
-17.7408
-17.4969
-17.3273
-17.413
-18.0073
-19.6875
-23.2309
-30.0907
-43.0578
0.452083
-4.53734
-8.69921
-11.7889
-13.8723
-15.0901
-15.7246
-15.9625
-15.9703
-15.864
-15.6495
-15.3835
-15.0513
-14.6641
-14.2124
-13.7366
-13.169
-12.2961
-10.4613
1.85954
-2.74156
-6.36704
-9.0322
-10.8489
-11.945
-12.5403
-12.7889
-12.8353
-12.7748
-12.631
-12.4442
-12.1781
-11.7926
-11.2158
-10.3824
-9.18171
-7.474
-4.91349
2.21861
-1.32506
-4.11093
-6.19239
-7.64736
-8.56331
-9.08641
-9.33261
-9.41427
-9.40644
-9.3439
-9.25754
-9.11938
-8.88337
-8.46962
-7.77459
-6.67081
-5.04091
-2.69261
1.34158
-0.719625
-2.47964
-3.87929
-4.91235
-5.60452
-6.02619
-6.24871
-6.34781
-6.37674
-6.37255
-6.35933
-6.32377
-6.23195
-6.02085
-5.58708
-4.80458
-3.55158
-1.68592
-0.464009
-1.02697
-1.73389
-2.41789
-2.99415
-3.42559
-3.71498
-3.88649
-3.97799
-4.01981
-4.04247
-4.06346
-4.0804
-4.07432
-4.00546
-3.79103
-3.3236
-2.48117
-1.13061
-2.68864
-2.05896
-1.82678
-1.82193
-1.93008
-2.07178
-2.19893
-2.29158
-2.35125
-2.38484
-2.40994
-2.43651
-2.46676
-2.49256
-2.49355
-2.41351
-2.17293
-1.6647
-0.762766
-4.85649
-3.44788
-2.48563
-1.88101
-1.54583
-1.38977
-1.33592
-1.32919
-1.33931
-1.35062
-1.3647
-1.38302
-1.40715
-1.43427
-1.45614
-1.43961
-1.33317
-1.05511
-0.497579
-6.9921
-5.17511
-3.66592
-2.52427
-1.74179
-1.25491
-0.981643
-0.842654
-0.779526
-0.75333
-0.746926
-0.751252
-0.763197
-0.780483
-0.800261
-0.805147
-0.765677
-0.627092
-0.30758
-8.25719
-6.42457
-4.67613
-3.20862
-2.10714
-1.35781
-0.895357
-0.633791
-0.498247
-0.432827
-0.404866
-0.395776
-0.396838
-0.40399
-0.415543
-0.422985
-0.411237
-0.347844
-0.178121
-9.32231
-7.53612
-5.66804
-3.97293
-2.61263
-1.62983
-0.987063
-0.602011
-0.390044
-0.281558
-0.230181
-0.208032
-0.200328
-0.200003
-0.204371
-0.208919
-0.206504
-0.179832
-0.0961856
-10.4699
-8.74157
-6.77944
-4.88072
-3.27055
-2.04958
-1.21425
-0.692298
-0.39289
-0.233652
-0.154723
-0.118173
-0.102473
-0.0967387
-0.0962426
-0.0975752
-0.0972006
-0.0866529
-0.0482771
-10.9465
-9.41193
-7.49067
-5.52057
-3.77383
-2.39961
-1.42762
-0.80176
-0.432423
-0.230759
-0.128158
-0.0792112
-0.0570923
-0.0476953
-0.0443714
-0.043608
-0.0431629
-0.0390288
-0.0225256
-11.266
-9.902
-8.0416
-6.03582
-4.19277
-2.7022
-1.62234
-0.912325
-0.485179
-0.247755
-0.124958
-0.0654091
-0.0379947
-0.0259333
-0.0209669
-0.0190771
-0.0182836
-0.0165269
-0.00979724
-11.5506
-10.3162
-8.50091
-6.4634
-4.5399
-2.95377
-1.78627
-1.00849
-0.535122
-0.269211
-0.130415
-0.0625157
-0.0310128
-0.0170283
-0.0110784
-0.00862308
-0.0075957
-0.00666866
-0.00399507
-11.6283
-10.539
-8.77989
-6.73193
-4.75884
-3.11144
-1.88805
-1.06788
-0.566209
-0.283212
-0.135034
-0.06233
-0.0285295
-0.0135101
-0.00708828
-0.00440381
-0.00328437
-0.00264737
-0.00155139
-11.4555
-10.5196
-8.83488
-6.80435
-4.81897
-3.15128
-1.91012
-1.07813
-0.569833
-0.283568
-0.13402
-0.060799
-0.0268427
-0.0118011
-0.0053897
-0.00271842
-0.00161582
-0.00110206
-0.000594374
-11.1799
-10.3473
-8.72743
-6.72367
-4.74869
-3.09061
-1.86213
-1.044
-0.54783
-0.270473
-0.12668
-0.0567802
-0.0245917
-0.0104336
-0.00444266
-0.00196707
-0.000957929
-0.000525591
-0.000240576
-11.012
-10.2596
-8.66076
-6.64524
-4.65701
-3.00024
-1.78683
-0.989531
-0.512751
-0.249938
-0.115551
-0.051078
-0.0217633
-0.00902739
-0.00370378
-0.00153158
-0.000659351
-0.000301083
-0.000112373
-10.354
-9.77997
-8.28554
-6.33304
-4.39795
-2.79794
-1.64219
-0.895351
-0.456617
-0.219056
-0.0996962
-0.0433854
-0.0181895
-0.00740974
-0.00297003
-0.00118457
-0.000478679
-0.000196149
-6.2473e-05
-9.47586
-9.07838
-7.72129
-5.87368
-4.03377
-2.52707
-1.45688
-0.779231
-0.389703
-0.183356
-0.0818825
-0.0349826
-0.0144039
-0.00576138
-0.00226426
-0.000881402
-0.000343905
-0.000133272
-3.89083e-05
-8.41515
-8.16658
-6.97167
-5.27626
-3.58017
-2.20541
-1.24644
-0.652502
-0.319196
-0.146909
-0.0642095
-0.0268671
-0.0108423
-0.00425281
-0.00163918
-0.000625078
-0.000238157
-8.95499e-05
-2.51195e-05
-7.04817
-6.92284
-5.93865
-4.48016
-3.01024
-1.82715
-1.01419
-0.520383
-0.249271
-0.11231
-0.0480671
-0.0197065
-0.00779779
-0.00300146
-0.00113609
-0.000425724
-0.000159646
-5.94903e-05
-1.69847e-05
-5.2942
-5.06393
-4.22712
-3.10092
-2.02638
-1.197
-0.64711
-0.323473
-0.150905
-0.066144
-0.0274881
-0.0109137
-0.00416765
-0.00154149
-0.000557825
-0.000198963
-7.14478e-05
-2.67446e-05
-8.87797e-06
-3.56356
-3.70713
-3.3502
-2.63238
-1.82357
-1.1324
-0.640183
-0.333795
-0.162495
-0.0745649
-0.032572
-0.0136839
-0.00556782
-0.00221141
-0.00086486
-0.000336591
-0.000133351
-5.79755e-05
-3.14997e-05
-1.17417
-1.2064
-1.14138
-0.971177
-0.739807
-0.507516
-0.316597
-0.181363
-0.0964952
-0.0481358
-0.0227301
-0.0102803
-0.00448614
-0.00190517
-0.000793492
-0.000326913
-0.000136158
-6.30033e-05
-3.9112e-05
1.26531
1.20157
0.928451
0.576072
0.276175
0.0857968
-0.00482371
-0.0325862
-0.0315543
-0.0221459
-0.0131973
-0.00712251
-0.00358429
-0.00171938
-0.000796767
-0.000359539
-0.00016031
-7.77931e-05
-5.04094e-05
3.62694
3.4987
2.92274
2.11418
1.33342
0.737955
0.359224
0.152702
0.0550503
0.0151817
0.00169315
-0.0016518
-0.00177162
-0.00121663
-0.000711706
-0.000379453
-0.000186955
-9.3406e-05
-6.05047e-05
5.61112
5.37138
4.55585
3.41936
2.2832
1.36619
0.737999
0.361787
0.161372
0.0652265
0.0236286
0.00730443
0.00160256
-9.22082e-05
-0.000423558
-0.000361631
-0.000219135
-0.000111817
-6.43898e-05
7.45231
7.03238
5.98377
4.58079
3.16604
1.98709
1.14044
0.602276
0.294447
0.133745
0.0567052
0.0223394
0.00802801
0.00243142
0.000423104
-0.000185768
-0.000241597
-0.000139299
-5.22172e-05
8.59331
8.01866
6.84765
5.33564
3.80165
2.48767
1.50404
0.84519
0.444422
0.219897
0.103232
0.0461599
0.0196478
0.00777987
0.00265649
0.00053391
-0.000146177
-0.00018717
-1.87219e-05
9.4733
8.77814
7.51736
5.943
4.34558
2.94911
1.8672
1.10892
0.621963
0.331541
0.169595
0.0838605
0.0403089
0.0186968
0.00811695
0.00288341
0.000548747
-0.000183333
-5.56624e-05
10.1226
9.28836
7.96328
6.3747
4.77196
3.34945
2.21417
1.38521
0.825559
0.471799
0.261199
0.141367
0.0754539
0.0397505
0.0204571
0.00959955
0.00363862
0.000734185
0.000176072
10.3068
9.30607
7.92494
6.35891
4.81
3.434
2.31986
1.48688
0.907808
0.529862
0.29743
0.1613
0.0847014
0.0426075
0.0196451
0.00634141
-0.00171928
-0.00675288
-0.00904695
10.2074
9.17044
7.86129
6.42673
5.01099
3.72907
2.65373
1.80988
1.18723
0.751768
0.462015
0.27718
0.163082
0.0942764
0.0532781
0.0281063
0.0116445
-0.000563853
-0.0106709
10.0144
8.96732
7.72944
6.40114
5.09024
3.88893
2.85947
2.02797
1.39213
0.92832
0.60437
0.386448
0.24381
0.152403
0.0945901
0.0577414
0.0335786
0.0166761
0.00346629
9.0992
7.9516
6.72336
5.48362
4.31018
3.26667
2.39128
1.69447
1.16639
0.782693
0.514534
0.333317
0.213591
0.135745
0.0854612
0.0524954
0.0301098
0.0140769
0.00172717
7.72811
6.72893
5.68147
4.63947
3.66152
2.79446
2.06574
1.4822
1.03573
0.707182
0.474037
0.313684
0.205616
0.133768
0.0861957
0.054133
0.0316888
0.0151089
0.00196855
6.25345
5.44208
4.59224
3.7524
2.96856
2.27556
1.69298
1.22501
0.864925
0.59779
0.406314
0.27303
0.181936
0.120379
0.0788509
0.0502431
0.0297292
0.0142138
0.00167353
4.61709
4.00641
3.37603
2.75951
2.18761
1.68332
1.25922
0.917609
0.653474
0.456189
0.313606
0.213378
0.144093
0.0966551
0.0641741
0.0414204
0.0248177
0.0120656
0.00164544
2.86981
2.46763
2.06953
1.68825
1.33831
1.03132
0.773632
0.565971
0.405074
0.284475
0.19691
0.135001
0.0919053
0.0621489
0.041568
0.026973
0.0161751
0.00776841
0.000822934
1.09143
0.925606
0.769908
0.624254
0.49226
0.377472
0.281795
0.205176
0.146156
0.102162
0.0703853
0.0480312
0.0325434
0.0218937
0.0145491
0.00934287
0.00547645
0.00243833
-0.000106758
-1.0909
-0.924403
-0.768291
-0.622455
-0.490467
-0.375816
-0.280354
-0.20398
-0.1452
-0.101422
-0.0698263
-0.0476159
-0.0322389
-0.0216732
-0.0143917
-0.00923398
-0.00540654
-0.00240144
0.000113583
-2.86931
-2.46655
-2.06809
-1.68668
-1.33676
-1.02991
-0.772413
-0.564971
-0.404286
-0.283872
-0.196461
-0.134672
-0.0916672
-0.061979
-0.041449
-0.026893
-0.0161265
-0.00774658
-0.000825544
-4.61656
-4.00533
-3.37463
-2.75799
-2.18613
-1.68198
-1.25809
-0.916695
-0.652765
-0.455657
-0.313216
-0.213098
-0.143894
-0.0965147
-0.0640761
-0.0413533
-0.0247738
-0.0120397
-0.00163432
-6.25301
-5.44124
-4.59121
-3.75133
-2.96758
-2.27473
-1.69232
-1.22451
-0.864566
-0.597544
-0.40615
-0.272923
-0.181868
-0.120336
-0.0788248
-0.0502282
-0.029722
-0.014212
-0.00167572
-7.72775
-6.72828
-5.68071
-4.63873
-3.6609
-2.794
-2.06543
-1.48202
-1.03564
-0.707155
-0.474044
-0.313707
-0.205643
-0.133795
-0.0862186
-0.0541513
-0.0317024
-0.0151174
-0.001971
-9.09902
-7.95122
-6.72294
-5.48328
-4.31
-3.26666
-2.3914
-1.69468
-1.16664
-0.782932
-0.514745
-0.33349
-0.213725
-0.135845
-0.0855337
-0.0525462
-0.0301431
-0.014095
-0.00173169
-10.0141
-8.96619
-7.7276
-6.3989
-5.08792
-3.88679
-2.85767
-2.02657
-1.3911
-0.927609
-0.603897
-0.386144
-0.243619
-0.152281
-0.0945099
-0.0576836
-0.0335315
-0.0166366
-0.00344188
-10.2088
-9.17446
-7.86778
-6.43503
-5.02018
-3.7382
-2.66205
-1.81693
-1.19283
-0.755993
-0.465061
-0.279301
-0.16452
-0.0952375
-0.053921
-0.0285475
-0.0119615
0.000329436
0.0105177
-10.3059
-9.3042
-7.92264
-6.3567
-4.80817
-3.43261
-2.31883
-1.4861
-0.907198
-0.529362
-0.297012
-0.160953
-0.0844199
-0.042383
-0.019467
-0.00619716
0.00184686
0.00689192
0.0092473
-10.123
-9.28969
-7.96561
-6.37785
-4.77552
-3.35296
-2.21726
-1.38768
-0.827387
-0.473068
-0.262038
-0.141907
-0.0757969
-0.0399692
-0.0205983
-0.00968793
-0.00368671
-0.000755886
-0.000192685
-9.47354
-8.77902
-7.51911
-5.9455
-4.34846
-2.95193
-1.8696
-1.11076
-0.623257
-0.332387
-0.170121
-0.0841776
-0.0404984
-0.0188111
-0.00818647
-0.00292264
-0.000564431
0.000180065
3.59273e-05
-8.59361
-8.01962
-6.84948
-5.33818
-3.80447
-2.4903
-1.50618
-0.846732
-0.445437
-0.220516
-0.103589
-0.0463593
-0.0197573
-0.00783992
-0.00268883
-0.000548873
0.000142941
0.000189055
9.53487e-06
-7.45264
-7.03343
-5.98568
-4.58334
-3.16873
-1.98947
-1.14226
-0.603508
-0.295203
-0.134173
-0.056933
-0.0224554
-0.00808522
-0.00245863
-0.000434703
0.000182886
0.000243262
0.0001418
4.91373e-05
-5.61146
-5.37245
-4.55771
-3.4217
-2.28554
-1.36814
-0.739399
-0.362674
-0.161878
-0.0654917
-0.0237579
-0.00736369
-0.00162792
8.27251e-05
0.000421523
0.000363042
0.00022157
0.000113642
6.36962e-05
-3.62737
-3.49991
-2.92463
-2.11636
-1.33543
-0.739496
-0.360246
-0.153299
-0.0553636
-0.0153309
-0.00175823
0.00162622
0.00176319
0.00121523
0.00071301
0.000381522
0.000188739
9.44606e-05
6.05525e-05
-1.26573
-1.20278
-0.930189
-0.577888
-0.277687
-0.0868503
0.00419227
0.0322543
0.0313998
0.0220828
0.0131754
0.00711721
0.00358474
0.00172139
0.000798865
0.00036121
0.000161383
7.83572e-05
5.06175e-05
1.17315
1.20371
1.13792
0.96798
0.737438
0.506034
0.315791
0.180975
0.0963283
0.0480724
0.0227096
0.0102757
0.00448641
0.00190651
0.00079472
0.000327746
0.00013661
6.32236e-05
3.92669e-05
3.56406
3.70885
3.3527
2.63493
1.82565
1.13384
0.641064
0.334285
0.16275
0.074691
0.0326325
0.0137123
0.00558109
0.00221755
0.000867688
0.000337872
0.000133919
5.82488e-05
3.16571e-05
5.29335
5.06145
4.22382
3.09776
2.02392
1.19536
0.64614
0.322953
0.150648
0.0660251
0.0274361
0.010892
0.00415882
0.00153796
0.000556404
0.000198369
7.11823e-05
2.66303e-05
8.84977e-06
7.04847
6.92342
5.93936
4.4808
3.01072
1.82745
1.01436
0.52047
0.249313
0.112329
0.0480751
0.0197097
0.00779899
0.00300188
0.00113621
0.00042575
0.000159644
5.94873e-05
1.69863e-05
8.41512
8.16653
6.97163
5.27623
3.58015
2.2054
1.24643
0.6525
0.319197
0.14691
0.0642104
0.0268677
0.0108426
0.00425298
0.00163926
0.000625107
0.000238167
8.95547e-05
2.51195e-05
9.47582
9.07834
7.72127
5.87366
4.03376
2.52706
1.45687
0.779229
0.389702
0.183357
0.081883
0.034983
0.0144042
0.00576159
0.00226437
0.000881448
0.000343923
0.000133283
3.89069e-05
10.3539
9.77995
8.28552
6.33303
4.39794
2.79793
1.64219
0.895348
0.456616
0.219056
0.0996968
0.0433861
0.01819
0.00741006
0.0029702
0.00118463
0.000478703
0.000196175
6.24724e-05
11.012
10.2596
8.66077
6.64525
4.65701
3.00024
1.78682
0.989529
0.512751
0.249938
0.115552
0.0510789
0.021764
0.00902782
0.00370397
0.00153161
0.000659362
0.000301151
0.000112377
11.1799
10.3473
8.72743
6.72368
4.7487
3.09062
1.86212
1.044
0.547829
0.270474
0.126681
0.0567813
0.0245925
0.010434
0.00444275
0.00196697
0.000957919
0.000525806
0.000240607
11.4554
10.5196
8.83488
6.80435
4.81897
3.15128
1.91012
1.07813
0.569834
0.28357
0.134022
0.0608006
0.0268436
0.0118013
0.00538942
0.00271801
0.00161592
0.00110276
0.000594495
11.6283
10.539
8.77991
6.73195
4.75885
3.11145
1.88806
1.06788
0.566212
0.283215
0.135036
0.0623315
0.02853
0.0135096
0.0070872
0.00440306
0.00328515
0.00264942
0.00155171
11.5506
10.3162
8.50093
6.46342
4.53991
2.95378
1.78627
1.0085
0.535126
0.269214
0.130417
0.0625164
0.0310122
0.0170265
0.0110763
0.00862266
0.00759885
0.00667369
0.00399563
11.266
9.90202
8.04162
6.03584
4.19279
2.70221
1.62235
0.912334
0.485185
0.247758
0.12496
0.0654086
0.0379923
0.0259298
0.0209647
0.0190795
0.0182925
0.0165371
0.00979758
10.9466
9.41197
7.49071
5.52061
3.77387
2.39963
1.42764
0.801773
0.432431
0.230762
0.128157
0.0792084
0.0570878
0.0476914
0.0443723
0.043618
0.0431817
0.0390447
0.0225241
10.4699
8.74157
6.77945
4.88073
3.27057
2.04959
1.21426
0.692303
0.392892
0.23365
0.154718
0.118167
0.102467
0.0967384
0.096253
0.0975987
0.0972302
0.0866698
0.0482703
9.32237
7.53619
5.66811
3.97298
2.61267
1.62986
0.987081
0.602019
0.390045
0.281554
0.230174
0.208026
0.200327
0.200014
0.204397
0.208957
0.206536
0.179836
0.0961702
8.25729
6.42466
4.6762
3.20867
2.10718
1.35783
0.895369
0.633793
0.498243
0.43282
0.404859
0.395775
0.396848
0.404017
0.415584
0.423022
0.411244
0.347815
0.178099
6.99219
5.17518
3.66598
2.52431
1.74181
1.25492
0.981642
0.842646
0.779515
0.75332
0.746922
0.75126
0.76322
0.780521
0.800297
0.805151
0.765628
0.627019
0.307563
4.85656
3.44793
2.48565
1.88103
1.54583
1.38976
1.3359
1.32917
1.33929
1.35061
1.3647
1.38303
1.40717
1.4343
1.45614
1.43954
1.33306
1.05502
0.497587
2.68871
2.05899
1.82679
1.82193
1.93007
2.07176
2.19891
2.29155
2.35124
2.38483
2.40995
2.43652
2.46677
2.49255
2.49348
2.41337
2.17279
1.66464
0.762817
0.464054
1.02698
1.73389
2.41788
2.99412
3.42556
3.71495
3.88646
3.97798
4.0198
4.04247
4.06345
4.08037
4.07424
4.00532
3.79087
3.32351
2.48121
1.1307
-1.34156
0.719635
2.47964
3.87927
4.91231
5.60448
6.02616
6.24868
6.34779
6.37672
6.37253
6.35929
6.32369
6.23183
6.02071
5.58699
4.80463
3.55173
1.68599
-2.21862
1.32507
4.11092
6.19237
7.64732
8.56328
9.08638
9.33258
9.41425
9.40641
9.34385
9.25748
9.11928
8.88326
8.46956
7.77466
6.671
5.04109
2.69262
-1.85957
2.74155
6.36703
9.03218
10.8489
11.945
12.5402
12.7889
12.8353
12.7748
12.631
12.4442
12.1781
11.7926
11.2159
10.3825
9.18192
7.47408
4.9134
-0.452088
4.53732
8.69918
11.7888
13.8723
15.0901
15.7246
15.9625
15.9703
15.864
15.6495
15.3835
15.0514
14.6642
14.2125
13.7368
13.169
12.296
10.4612
1.22002
6.07854
10.4774
13.7973
16.0093
17.2615
17.8838
18.1002
18.0772
17.9641
17.7408
17.497
17.3274
17.4131
18.0073
19.6874
23.2307
30.0906
43.0579
)
;

boundaryField
{
    up
    {
        type            calculated;
        value           nonuniform List<scalar> 
84
(
-43.0578
-10.4613
-4.91349
-2.69261
-1.68592
-1.13061
-0.762766
-0.497579
-0.30758
-0.178121
-0.0961856
-0.0482771
-0.0225256
-0.00979724
-0.00399507
-0.00155139
-0.000594374
-0.000240576
-0.000112373
-6.2473e-05
-3.89083e-05
-2.51195e-05
-1.69847e-05
-8.87797e-06
-2.262e-05
-3.134e-05
-4.29621e-05
-5.51936e-05
-6.256e-05
-4.6626e-05
4.71968e-05
0.000362077
0.00157628
-0.00687503
-0.00977646
0.00357258
0.00187091
0.00208358
0.00176229
0.0016985
0.00085566
-9.14726e-05
9.84128e-05
-0.000857985
-0.00168727
-0.0017641
-0.00208565
-0.00187511
-0.0035484
0.00964591
0.00711566
-0.00160469
-0.000405643
-7.00607e-05
3.80607e-05
6.01019e-05
5.47796e-05
4.3074e-05
3.15059e-05
2.27251e-05
8.84977e-06
1.69863e-05
2.51195e-05
3.89069e-05
6.24724e-05
0.000112377
0.000240607
0.000594495
0.00155171
0.00399563
0.00979758
0.0225241
0.0482703
0.0961702
0.178099
0.307563
0.497587
0.762817
1.1307
1.68599
2.69262
4.9134
10.4612
43.0579
)
;
    }
    low
    {
        type            calculated;
        value           nonuniform List<scalar> 
84
(
-1.08123
0.677741
2.19033
2.54201
1.52458
-0.494631
-2.92022
-5.22402
-7.41474
-8.62926
-9.68841
-10.8277
-11.2232
-11.5059
-11.7801
-11.8182
-11.6069
-11.3366
-11.1489
-10.4091
-9.47183
-8.36739
-6.95244
-5.17345
-3.42736
-1.1159
1.19577
3.46671
5.44032
7.34274
8.57558
9.51317
10.2243
10.4713
10.4092
10.2645
9.39313
7.99902
6.47642
4.78485
2.97689
1.13486
-1.13433
-2.97637
-4.78429
-6.47592
-7.99858
-9.39285
-10.2641
-10.4103
-10.4703
-10.2245
-9.51326
-8.57575
-7.34298
-5.44059
-3.46711
-1.19617
1.11488
3.42782
5.17267
6.95268
8.36735
9.47179
10.409
11.1489
11.3365
11.6069
11.8182
11.78
11.5059
11.2232
10.8277
9.68846
8.62936
7.41483
5.22409
2.92028
0.494681
-1.52455
-2.54202
-2.19037
-0.677772
1.08124
)
;
    }
    left
    {
        type            calculated;
        value           nonuniform List<scalar> 
19
(
-1.14271
-6.01565
-10.6114
-14.1296
-16.4942
-17.8396
-18.5156
-18.7681
-18.7624
-18.6774
-18.4812
-18.265
-18.1659
-18.425
-19.354
-21.7216
-26.571
-35.8885
-37.2904
)
;
    }
    right
    {
        type            calculated;
        value           nonuniform List<scalar> 
19
(
1.14272
6.01567
10.6114
14.1296
16.4941
17.8396
18.5156
18.7681
18.7624
18.6774
18.4812
18.265
18.1659
18.425
19.3539
21.7214
26.5708
35.8883
37.2906
)
;
    }
    frontAndBackPlanes
    {
        type            empty;
    }
}


// ************************************************************************* //
