/*--------------------------------*- C++ -*----------------------------------*\
  =========                 |
  \\      /  F ield         | OpenFOAM: The Open Source CFD Toolbox
   \\    /   O peration     | Website:  https://openfoam.org
    \\  /    A nd           | Version:  7
     \\/     M anipulation  |
\*---------------------------------------------------------------------------*/
FoamFile
{
    version     2.0;
    format      ascii;
    class       volScalarField;
    location    "0.26";
    object      gradTz;
}
// * * * * * * * * * * * * * * * * * * * * * * * * * * * * * * * * * * * * * //

dimensions      [0 -1 0 1 0 0 0];

internalField   nonuniform List<scalar> 
1596
(
-9.68206e-16
-4.71004e-16
4.78245e-16
1.00848e-17
-9.11911e-16
0
-4.26318e-16
-4.2037e-16
-2.74578e-17
-2.21224e-16
-2.05115e-18
-2.20026e-16
9.67907e-16
-2.17554e-16
1.01671e-15
8.77235e-16
5.21755e-16
6.58843e-16
0
9.6769e-16
0
1.36544e-15
-9.28656e-18
-4.19031e-16
4.15459e-16
8.55477e-16
2.61217e-17
4.05468e-16
-1.95337e-16
3.89731e-16
-5.96321e-18
-5.40539e-16
-3.37586e-16
-8.22042e-16
-8.0189e-16
-7.29467e-16
4.15176e-16
0
-4.74828e-16
0
-8.91447e-16
1.47506e-17
8.18566e-16
-2.29326e-16
1.73463e-17
-5.69933e-18
-5.81162e-18
-6.20161e-18
1.48045e-16
0
2.80408e-16
7.95582e-16
-7.83986e-17
6.30632e-17
1.4834e-16
2.31559e-16
0
7.4552e-16
-2.24582e-16
2.23761e-16
0
-2.15391e-16
-2.2272e-16
3.80031e-16
-3.32392e-16
0
0
-1.18793e-16
7.72851e-17
0
-2.34429e-16
-2.9894e-16
2.06723e-16
-2.12241e-16
-1.09219e-17
0
1.30199e-16
3.47138e-16
-3.1377e-16
0
-9.27974e-17
-2.82287e-16
0
4.22314e-16
-4.20733e-17
-3.80954e-17
-3.6036e-17
2.19988e-16
2.70167e-16
2.7881e-17
9.42782e-18
-2.23526e-16
1.12669e-17
1.03507e-16
-4.45132e-17
-3.38107e-17
-4.7648e-16
4.53912e-16
-3.97039e-16
-8.13318e-19
-3.52051e-16
9.93057e-18
-9.96353e-18
-2.78596e-16
0
-2.98319e-17
-2.60087e-16
-2.44084e-16
1.98612e-16
2.05649e-16
-2.8081e-18
-1.23298e-16
-1.04986e-16
8.02608e-17
2.82562e-16
-4.85518e-16
5.45631e-16
3.0568e-16
0
2.70195e-16
1.59169e-16
-7.66922e-17
3.53434e-16
-6.6445e-17
-2.80773e-16
2.56301e-18
-1.66626e-16
-1.99561e-16
-1.56171e-16
1.32817e-16
1.24383e-16
-1.66048e-18
-3.34926e-17
2.73958e-17
7.70999e-16
-9.09364e-16
0
0
-3.35218e-16
0
0
0
2.3195e-16
0
0
1.52796e-16
5.74042e-18
4.1336e-17
-1.1609e-16
0
6.17892e-17
2.40991e-17
0
-5.00752e-16
9.64059e-16
0
0
3.45228e-16
0
-1.32299e-16
1.32166e-16
-2.36091e-16
9.84538e-17
-9.91739e-17
0
1.4321e-16
1.39066e-16
0
-8.02849e-17
-6.31379e-17
-2.10489e-17
1.20308e-15
-5.63689e-16
0
-4.02404e-16
3.979e-16
0
2.96488e-16
0
0
0
9.11229e-17
-9.15597e-17
0
-1.10585e-16
-3.16923e-17
0
8.50519e-18
4.58219e-17
0
-3.05367e-16
0
0
4.03377e-16
-7.53561e-16
3.80491e-17
1.46574e-17
-1.22467e-16
1.35049e-17
4.69335e-18
-9.57279e-17
-1.54307e-16
0
1.16678e-16
-2.33014e-17
2.36511e-17
6.16723e-17
-3.59495e-17
-1.65643e-17
2.54753e-16
-2.67812e-17
2.44582e-16
8.38139e-16
-4.43249e-17
-3.52125e-16
0
0
0
1.97188e-16
7.92374e-17
2.85942e-16
-6.90513e-17
-1.14591e-16
-6.83941e-17
-3.72421e-17
1.65882e-17
-3.60846e-17
1.57623e-17
-2.8136e-16
2.7566e-16
-5.10039e-16
-8.27945e-16
7.67488e-16
3.05049e-16
-5.64776e-16
4.8972e-16
-4.24176e-16
1.1058e-16
8.49799e-17
-7.70205e-17
5.02976e-17
-4.52417e-17
1.32341e-16
0
-9.99096e-18
7.36249e-17
-1.09418e-17
-1.82019e-15
8.36511e-16
6.90233e-19
-1.8513e-16
2.33237e-17
2.9632e-16
-5.6325e-16
-2.32817e-16
1.99152e-16
-1.69485e-16
-1.44768e-16
0
-1.65129e-16
-4.9171e-17
-8.80757e-17
-5.2395e-17
4.12486e-18
-4.62948e-17
1.0277e-18
2.97492e-16
-2.65382e-16
5.57911e-19
-2.04613e-16
-5.11596e-16
4.82522e-16
1.98951e-18
2.2688e-16
-1.93901e-16
3.25102e-16
7.69814e-17
6.34167e-17
1.95967e-16
0
1.62931e-16
7.49046e-17
0
2.52884e-17
8.67612e-19
0
2.57451e-16
2.02969e-16
-4.21886e-16
4.95735e-16
-7.44982e-16
5.27804e-16
1.9987e-16
-2.90719e-17
-3.21606e-16
5.91694e-17
-5.88775e-17
-1.79106e-16
7.12895e-17
-3.55569e-17
-7.49175e-17
3.24593e-17
-2.0155e-17
7.89585e-18
-2.77126e-16
9.42342e-16
-7.01929e-16
3.82724e-16
0
0
-1.04202e-16
2.21924e-16
-1.58509e-16
2.98053e-16
0
0
1.20851e-16
-1.05655e-16
-7.50321e-17
2.36691e-17
-2.52704e-17
1.33083e-17
0
2.2459e-17
2.59158e-16
-2.09504e-16
-1.83627e-16
-2.96985e-16
-9.66169e-17
1.33719e-16
0
-1.49e-16
-1.2136e-16
1.09059e-16
-8.90896e-17
7.2296e-17
0
2.86372e-17
5.61617e-17
0
0
0
-2.14995e-17
4.15292e-16
1.58815e-16
-5.54084e-16
1.53176e-16
1.31436e-16
0
0
1.4071e-16
-7.33207e-17
-1.05484e-16
8.61659e-17
-6.99157e-17
0
-1.87212e-17
1.59832e-17
0
-1.34849e-17
-4.71128e-18
-2.22519e-16
6.52983e-16
-7.92841e-16
-3.17531e-16
1.66465e-16
-1.24535e-16
1.04659e-16
0
-7.1538e-17
5.98024e-17
0
0
2.75553e-17
-2.7587e-17
8.29407e-18
-1.10138e-17
1.92688e-17
2.34897e-18
3.50546e-18
1.14379e-16
-1.03176e-16
5.28562e-16
-3.4118e-16
-1.3858e-16
1.78058e-17
2.15498e-16
8.1969e-17
6.84511e-17
0
3.97741e-17
-3.68362e-17
2.93342e-17
-2.48506e-17
3.21103e-17
-5.5352e-17
-1.50023e-17
1.30911e-17
3.48712e-18
3.06154e-16
-3.10377e-16
0
2.85932e-16
-1.50763e-16
-1.12558e-16
7.80251e-17
-2.49665e-16
0
-4.41221e-18
-4.59455e-17
-3.31162e-17
4.82777e-17
-3.72836e-18
-3.1034e-17
2.29676e-17
0
8.32425e-18
-3.38597e-18
5.23055e-16
-9.24582e-17
3.93594e-16
-3.0832e-16
1.69983e-16
1.87013e-17
-1.95002e-16
-6.6689e-17
1.20149e-16
-5.10031e-18
-7.04411e-17
5.95029e-17
-2.60398e-17
-3.42857e-17
0
0
0
-8.40297e-18
3.12232e-19
-4.65234e-16
4.53075e-16
3.23466e-19
6.92994e-17
5.9664e-17
-1.44129e-16
1.69996e-16
-1.39782e-16
1.19205e-16
-3.95714e-17
7.52616e-17
2.67821e-17
-1.13765e-17
5.80207e-19
-4.10938e-18
-7.21685e-18
0
0
0
0
0
2.22387e-16
-1.0827e-16
-3.37933e-16
0
0
-4.06023e-17
-6.55634e-17
5.48487e-17
0
-3.37772e-17
2.62212e-17
-8.74038e-17
1.00489e-16
-3.27975e-17
3.49203e-17
3.82037e-18
0
-9.01437e-17
9.12532e-17
0
-7.35336e-17
7.46047e-17
1.23514e-16
0
4.099e-17
5.41119e-17
-2.42093e-16
0
-3.75609e-17
2.93033e-17
2.09813e-17
-1.55941e-17
2.28261e-17
0
-8.39987e-18
0
-4.63582e-17
-4.61482e-17
2.73295e-18
7.55539e-17
-2.03079e-16
0
-5.23508e-17
0
1.48449e-16
5.99417e-17
0
1.48948e-16
-1.5627e-16
1.58254e-17
-3.46305e-17
9.84311e-18
4.38646e-17
1.66017e-17
-1.3151e-17
0
9.58247e-17
-8.4077e-17
1.04329e-16
1.25472e-16
0
1.06546e-16
-1.00731e-16
-7.95881e-17
1.19925e-16
-1.80061e-16
-8.80781e-17
0
0
1.93265e-17
0
0
5.53094e-18
0
-4.24986e-16
3.26286e-16
0
4.99021e-18
-7.32551e-17
-4.03666e-18
6.52491e-17
4.68413e-17
-5.85401e-17
-1.49323e-16
2.37539e-16
-6.43772e-17
0
-3.09152e-17
0
0
0
-2.13671e-17
1.70689e-17
-1.20208e-16
1.12694e-16
3.01537e-16
-2.94947e-16
9.07041e-17
5.06543e-18
-6.62905e-17
5.7277e-17
9.76074e-17
7.48663e-17
-1.47987e-16
0
7.70937e-17
1.08691e-17
-3.53913e-17
-7.76511e-17
6.40158e-17
-1.03804e-17
1.96296e-17
-4.06717e-16
5.86332e-16
-5.81596e-16
1.025e-16
8.72186e-17
-8.30776e-17
6.99714e-17
-5.57301e-17
0
-4.75198e-17
7.64093e-17
3.31507e-17
5.35384e-17
6.79892e-17
-1.01851e-16
-1.69625e-18
0
-7.96059e-18
2.66388e-18
-4.39761e-16
-1.31112e-16
-2.30458e-16
1.22476e-16
-2.00772e-16
1.74984e-16
-1.04411e-16
8.86434e-17
-6.10578e-18
-6.09486e-18
-8.02811e-17
4.73625e-17
-2.668e-17
8.12391e-17
-8.7211e-17
1.09005e-17
9.24049e-18
0
-4.61443e-18
4.75478e-16
-1.41401e-16
0
0
-2.06804e-16
4.0262e-16
-9.42719e-17
-1.81768e-17
1.49909e-16
-3.86816e-18
0
0
-3.48287e-17
0
-7.59323e-17
1.84401e-16
-1.27995e-16
0
1.83395e-18
1.62647e-16
3.04135e-16
0
-1.29915e-16
-1.0632e-16
-9.43684e-17
-9.80508e-17
4.07438e-17
-1.13992e-16
-6.25198e-17
0
0
4.63601e-17
0
0
-1.02822e-16
1.69463e-16
0
0
1.11619e-15
-1.31552e-16
-6.76671e-16
-3.69556e-16
5.01196e-16
1.60144e-16
9.50725e-17
0
-3.50765e-17
3.40472e-17
8.44126e-17
-2.72412e-17
-4.06814e-17
6.31301e-17
-6.71511e-17
-2.07426e-17
0
0
0
8.93858e-17
-7.06452e-16
6.92671e-16
-6.65196e-17
-5.15628e-16
8.07861e-16
-4.06051e-16
0
0
2.18044e-16
-1.79213e-16
0
-5.43498e-17
9.46418e-17
-1.06677e-17
2.76771e-17
8.44919e-18
9.14869e-20
1.84333e-18
0
0
0
5.84096e-16
-3.91681e-16
4.13099e-16
-6.44421e-16
1.83758e-16
0
-6.64625e-17
1.06544e-16
-1.08894e-16
-2.14277e-17
-3.91429e-19
-1.47277e-17
-2.17376e-18
-1.17417e-17
-3.29286e-18
-1.79931e-18
7.48653e-16
-1.33579e-15
6.33459e-16
0
1.71272e-16
-2.33331e-16
2.34614e-16
-1.86126e-16
0
-9.10646e-17
1.27674e-16
0
0
-2.85815e-19
0
-1.52083e-17
1.04052e-17
1.91815e-18
2.86918e-18
7.26311e-16
0
-2.90031e-16
3.23965e-16
-2.0398e-16
4.46008e-16
-2.1101e-16
-1.65631e-16
1.67361e-16
-1.70522e-17
0
0
1.09681e-17
-1.85512e-17
-1.30074e-17
2.46682e-17
-5.3405e-18
2.73473e-18
0
4.12375e-16
3.22858e-16
-1.06976e-17
-3.0886e-16
-3.12606e-17
-2.2587e-16
2.4182e-17
1.90121e-16
-9.84679e-18
1.73724e-17
0
0
-1.12361e-17
0
1.32309e-17
-1.41539e-17
0
1.8133e-18
-5.02816e-19
-2.18881e-16
-1.61954e-16
1.51647e-16
-1.74061e-17
-7.8161e-18
2.1151e-17
0
-5.60093e-18
8.4076e-17
-7.08056e-17
0
2.40652e-17
-4.71155e-18
-2.12593e-17
-1.94583e-18
-1.51777e-18
0
-1.41735e-18
0
8.94618e-17
-1.70215e-16
-2.34042e-18
7.32881e-17
6.7262e-17
-6.6831e-17
-4.75126e-17
5.37868e-17
-1.85142e-17
1.44806e-17
-1.4111e-17
1.45462e-17
0
3.72516e-20
-1.4336e-18
5.15464e-18
-1.76457e-20
0
0
8.94649e-17
-8.91296e-17
-7.29041e-17
6.45783e-17
1.18828e-16
-1.19529e-16
-2.37571e-17
2.38134e-17
-1.86708e-17
1.88668e-17
-1.41115e-17
2.66403e-17
-7.4717e-18
-5.38665e-18
-1.65477e-18
5.48358e-19
1.30918e-18
3.46269e-19
-2.59694e-19
0
-2.12384e-17
1.27002e-16
-1.37649e-16
1.18628e-16
-1.05147e-16
0
8.40797e-17
-7.52024e-17
0
2.80987e-17
-3.55821e-17
-2.02866e-17
2.12617e-17
3.91586e-18
0
0
-1.41757e-18
5.15158e-19
3.56066e-16
-6.56116e-16
6.70309e-16
-5.89403e-16
2.31894e-16
-1.97778e-16
1.87653e-16
2.23752e-17
-8.3462e-17
7.45796e-17
0
-5.43143e-17
4.94587e-17
-9.41512e-18
-3.83558e-18
6.04188e-18
4.44313e-18
1.37618e-18
-4.97759e-19
8.18998e-16
0
-3.28072e-16
2.54953e-16
3.0901e-17
-2.38219e-16
4.22955e-16
-3.76098e-16
1.47763e-16
-6.34083e-17
6.4904e-17
1.28742e-17
2.21705e-17
9.17043e-18
-7.62263e-18
-9.96595e-19
-9.62736e-18
0
9.86434e-19
6.57201e-16
-7.39767e-16
0
6.81194e-17
2.94813e-16
-2.88841e-16
4.94516e-17
4.39225e-17
1.92018e-17
3.39469e-17
0
0
-3.8571e-17
7.23683e-17
-2.64646e-17
-9.5063e-18
1.04078e-17
8.34653e-19
-1.87675e-18
5.91521e-17
6.49837e-16
-7.531e-17
-5.16127e-16
4.53083e-16
5.43743e-17
-4.83974e-17
-4.28992e-17
1.41896e-16
-1.76029e-16
1.06576e-16
-1.08925e-16
1.71237e-17
-2.1683e-17
3.9742e-17
-2.64819e-17
0
0
1.91834e-18
0
1.6304e-16
-4.91372e-16
5.61431e-16
-4.56134e-16
4.55048e-16
0
1.59049e-16
-1.59778e-16
-1.20861e-16
1.79344e-16
0
7.49453e-17
-9.47096e-17
-1.40319e-17
0
-1.58689e-18
-3.18333e-18
-4.48576e-20
-1.54654e-15
7.3845e-16
0
-5.01106e-16
5.01056e-16
3.09009e-16
-2.03147e-16
8.41928e-17
0
-3.8131e-18
2.86342e-17
-2.72039e-17
-4.06277e-17
6.30374e-17
-6.70296e-17
0
1.46846e-17
-3.27654e-18
-1.97098e-18
9.52356e-16
-9.37563e-16
0
1.29778e-16
1.18408e-16
-1.08458e-16
0
-8.82348e-17
-7.64365e-17
0
-3.27363e-18
0
4.63804e-17
0
0
2.11066e-17
7.94979e-17
-1.02779e-16
0
1.29904e-19
1.41469e-16
-1.30946e-16
1.07681e-16
-5.46961e-16
2.09775e-16
0
1.81898e-17
5.16008e-17
0
-5.33818e-17
1.5649e-16
-1.64402e-16
2.79052e-17
0
-3.05444e-18
0
0
0
1.26729e-19
0
1.21027e-16
0
-1.89118e-16
1.92124e-16
0
6.96957e-17
-5.62437e-17
2.04823e-16
-9.89785e-17
3.61016e-17
-5.84533e-17
5.60386e-17
-8.73172e-17
-1.39842e-17
0
-9.42748e-18
0
3.7074e-16
-6.26833e-16
0
-1.02519e-16
9.24058e-17
0
0
-1.27469e-16
0
-4.75545e-17
-7.64686e-17
-3.31807e-17
5.35923e-17
0
2.92318e-17
0
0
2.06633e-17
-2.29176e-17
0
5.4375e-16
-4.35448e-16
9.49096e-17
-8.55683e-17
-3.54188e-17
1.02312e-16
1.15728e-16
-1.42666e-16
4.60758e-17
3.04639e-18
-4.38861e-17
1.80081e-16
-5.60656e-17
-1.31852e-16
4.57189e-17
-1.19975e-17
7.17182e-18
-2.2162e-18
-8.79709e-16
3.26268e-16
0
0
3.66753e-17
-3.72946e-17
2.71781e-17
1.82817e-17
1.29071e-16
6.67075e-17
-6.63315e-17
-2.43962e-18
-3.80335e-17
3.09429e-17
0
1.56315e-17
1.09966e-17
5.99345e-18
2.00313e-18
0
2.8343e-16
-2.65445e-16
8.53436e-17
8.90765e-17
-1.72304e-17
-5.62261e-17
-4.83808e-17
-1.61649e-16
6.58291e-17
-4.11132e-17
5.56219e-17
3.55661e-17
-4.50712e-17
4.78403e-17
3.09163e-17
-4.00209e-17
-5.53584e-18
0
-4.98395e-17
-2.24913e-16
8.0816e-17
7.55737e-17
-2.62305e-16
1.88359e-16
9.51121e-17
-9.72192e-17
7.55323e-17
-6.2475e-17
0
0
-5.36965e-17
9.66951e-17
-4.28543e-17
4.067e-17
-4.4425e-17
7.40868e-18
-1.31631e-17
9.37076e-17
8.78691e-17
-8.03865e-17
6.37906e-17
-7.38683e-17
-1.14221e-16
0
0
0
0
0
0
2.75992e-17
-7.35668e-17
7.78049e-17
-2.56135e-17
3.15567e-17
1.49456e-17
-1.26805e-17
1.93837e-16
-3.33202e-16
4.17011e-16
-1.98021e-16
2.73526e-16
-2.03143e-16
3.80433e-16
-2.15893e-16
-1.1809e-16
1.208e-16
0
3.37564e-17
-2.6963e-17
6.69289e-17
-2.21048e-17
-2.88966e-17
-6.1654e-17
4.61081e-18
1.08003e-17
3.01498e-16
8.7462e-17
0
-1.38151e-16
-1.10497e-16
2.5412e-16
2.68962e-17
-1.04605e-16
6.2589e-17
-4.50958e-17
0
-2.6722e-17
0
-2.21635e-17
1.80805e-17
-1.63951e-17
-5.43825e-18
3.86709e-18
0
4.21343e-16
-9.24569e-17
3.93428e-16
-3.08232e-16
-6.26527e-17
2.49918e-16
-1.49878e-16
7.31384e-18
6.08706e-18
-4.4093e-17
4.26716e-17
0
0
2.6851e-17
-9.9246e-18
6.51882e-18
1.96751e-17
-6.84625e-18
0
8.58411e-20
0
-8.69455e-17
5.14816e-16
-3.48623e-16
-3.75974e-16
2.06119e-16
-2.19131e-16
2.03801e-16
1.02329e-16
-7.82414e-17
3.20527e-17
-2.8708e-17
4.90309e-18
4.81905e-17
1.90342e-18
-1.86013e-17
1.8412e-17
-3.76995e-18
1.02699e-15
-3.27958e-16
1.62836e-16
-5.0181e-16
1.38579e-16
-2.1932e-16
1.17331e-16
0
0
-4.51598e-18
-6.0776e-18
-1.79182e-18
0
-4.19301e-17
-3.21109e-17
2.37328e-17
-1.74777e-18
3.07889e-18
7.43258e-18
0
-3.26891e-16
5.57945e-16
1.27341e-16
-4.58737e-16
1.24535e-16
-1.93604e-16
3.09821e-17
1.5897e-16
0
0
2.96957e-18
3.46541e-17
0
-3.13436e-17
-1.4394e-17
2.11309e-18
-7.59172e-18
-8.62525e-18
0
-2.06884e-16
4.39623e-17
3.76563e-16
2.85956e-16
-5.25801e-16
2.39945e-16
-1.7035e-16
9.08487e-17
-1.28118e-16
0
0
0
-5.61327e-17
1.53734e-17
-1.8813e-17
0
-1.17819e-18
5.91012e-18
-7.73076e-16
7.33848e-16
7.9283e-16
-9.63065e-16
4.55715e-16
-4.29532e-16
0
1.79139e-16
-2.45874e-16
1.43542e-16
-1.13158e-16
9.33265e-17
7.64946e-17
5.80536e-17
4.6008e-17
0
0
0
0
8.53254e-16
-4.95014e-16
0
0
-1.65738e-16
4.07636e-16
-2.61357e-16
-1.89326e-16
1.87192e-16
1.41416e-16
2.39259e-16
-9.68352e-17
4.14941e-17
3.17194e-17
2.35474e-17
1.92763e-17
3.1239e-17
-1.53868e-18
1.56728e-18
-8.65522e-16
7.97498e-16
4.29799e-16
-2.23044e-16
4.95646e-16
-3.18516e-16
-2.547e-16
-2.16956e-16
0
-2.96234e-16
1.3961e-17
1.10162e-16
-8.70706e-17
-7.12896e-17
-2.64026e-17
-2.79825e-17
-2.23642e-17
0
0
-2.97748e-16
0
2.3324e-16
-3.69527e-19
0
0
2.62731e-16
2.23868e-16
0
1.60226e-16
0
-1.67456e-16
-4.72628e-17
8.41072e-17
0
5.44655e-17
-7.70855e-18
7.86376e-18
0
6.32649e-16
0
4.50179e-16
-8.3788e-16
7.51201e-16
6.12957e-16
-1.81681e-17
0
1.61158e-17
1.85432e-16
0
-1.87388e-16
2.11114e-16
-1.88307e-16
-4.11602e-17
-4.37756e-17
-1.28892e-17
-2.30049e-18
-8.14641e-18
-5.90603e-16
8.51392e-16
-2.42642e-16
-6.38912e-16
-3.72105e-16
-3.24035e-16
-5.63307e-16
-2.28608e-16
1.75305e-17
8.51397e-17
-8.49798e-17
2.73353e-16
-1.21016e-16
2.44383e-16
-4.58032e-17
0
5.20957e-17
-3.06361e-17
8.23449e-18
1.30107e-15
-2.72642e-17
-1.00228e-15
8.38144e-16
-7.56648e-16
6.64301e-16
-2.02365e-17
-2.56031e-16
2.2498e-16
9.055e-17
-1.12893e-17
-2.23005e-16
6.49038e-17
6.81758e-17
-2.08141e-17
2.10515e-17
-5.39585e-17
-5.34896e-18
-1.26358e-17
6.38711e-16
2.72141e-16
4.81476e-16
-4.26243e-16
-3.55578e-16
1.7704e-17
-2.77204e-16
6.72319e-16
2.18647e-17
3.1551e-16
1.85591e-16
-1.64881e-16
0
-1.16678e-16
0
0
7.47102e-17
3.29755e-17
1.47521e-17
6.00601e-16
0
4.75903e-16
4.23492e-16
-3.7898e-16
3.3403e-16
0
-2.63854e-16
-3.67336e-16
-3.22563e-16
-1.87234e-16
1.66746e-16
0
0
0
0
-7.00366e-17
-5.17562e-17
0
-1.17685e-15
0
-2.23555e-17
-1.9737e-17
5.76484e-16
-3.28462e-16
-1.51536e-16
-1.52146e-16
3.72745e-16
0
9.84532e-17
-1.04385e-17
8.81956e-17
0
0
1.16211e-16
-8.64784e-18
6.21439e-17
-2.35295e-17
8.28558e-16
2.40794e-16
-2.38309e-16
-2.12093e-16
-7.4283e-16
5.13272e-16
6.23397e-16
-1.61784e-17
-2.54013e-16
2.50737e-16
5.2848e-17
-2.67868e-16
-2.20091e-16
-1.32937e-16
-1.40665e-16
-1.33969e-16
1.10871e-16
-5.23808e-18
2.40992e-17
-2.5509e-16
1.16564e-16
-5.62653e-16
9.72739e-17
-9.692e-17
0
-3.09581e-16
-2.07109e-17
-2.8726e-16
2.34424e-17
2.80773e-16
2.08129e-16
-5.10162e-17
2.20968e-17
1.33793e-16
0
-2.30436e-16
-8.44398e-17
-1.75579e-18
5.17806e-16
-1.42024e-17
8.84692e-16
-4.23129e-16
8.13317e-19
1.13232e-17
3.41043e-16
-2.56375e-17
2.78595e-16
-2.60945e-16
-2.45395e-16
0
2.44083e-16
1.95555e-16
2.71187e-18
-3.94098e-18
1.2449e-16
8.58297e-17
0
-3.68298e-16
0
-9.01683e-17
4.02976e-16
5.49294e-18
9.29213e-17
-3.29783e-16
3.1218e-16
3.28942e-16
3.15105e-16
3.02799e-16
0
-2.37122e-16
0
1.25464e-17
-1.30306e-17
0
-1.24266e-18
6.10855e-17
2.5435e-16
1.271e-17
-2.03919e-16
6.27972e-16
-2.01973e-16
0
0
-3.67931e-16
-3.18712e-16
-3.05266e-16
-5.53047e-16
-7.72849e-17
0
0
0
-2.56086e-17
2.71003e-17
1.73215e-16
-6.20162e-17
1.31557e-17
0
-4.37011e-16
-4.01491e-16
4.19611e-16
-4.16441e-16
-5.97235e-16
7.34466e-16
2.03401e-16
0
3.25457e-16
3.67919e-16
-7.94439e-17
4.31218e-16
-7.06051e-17
7.34827e-17
2.8538e-16
-1.646e-16
0
-4.86153e-16
0
-4.66186e-16
4.57134e-16
0
8.28088e-16
3.89516e-16
-8.16579e-16
6.51449e-16
-4.30907e-18
-1.97338e-16
-3.56221e-16
0
4.90148e-16
-8.22041e-16
8.82074e-16
-1.12406e-15
0
0
4.83961e-16
-3.03665e-18
-7.47976e-18
-9.20439e-16
9.2838e-16
-4.49187e-16
4.47356e-16
4.40879e-16
-3.90878e-16
0
0
7.34107e-16
-7.46754e-16
-7.98622e-16
7.91607e-16
-7.71105e-16
8.33966e-16
-1.30631e-15
0
)
;

boundaryField
{
    up
    {
        type            calculated;
        value           nonuniform List<scalar> 
84
(
0
0
0
0
-4.45132e-17
8.02608e-17
-3.34926e-17
2.40991e-17
-2.10489e-17
0
-1.65643e-17
1.57623e-17
-1.09418e-17
1.0277e-18
8.67612e-19
7.89585e-18
0
0
-4.71128e-18
3.50546e-18
3.48712e-18
-3.38597e-18
3.12232e-19
0
1.38432e-18
6.41394e-19
-1.25268e-17
0
1.70689e-17
2.05088e-17
2.66388e-18
-4.61443e-18
1.83395e-18
0
-9.02789e-19
1.90826e-18
-1.79693e-18
2.86483e-18
0
-5.02012e-19
0
0
-2.59839e-19
5.15158e-19
-4.97759e-19
9.86434e-19
-1.87675e-18
1.91834e-18
-4.48576e-20
-1.97098e-18
0
0
0
-2.29176e-17
-3.09614e-18
2.00313e-18
0
-1.31631e-17
-1.26805e-17
9.42071e-18
0
0
-3.76995e-18
7.43258e-18
-8.62525e-18
5.91012e-18
0
1.56728e-18
0
0
-8.14641e-18
8.23449e-18
-1.26358e-17
1.47521e-17
0
-2.35295e-17
2.40992e-17
-1.75579e-18
0
6.10855e-17
-6.20162e-17
0
0
0
)
;
    }
    low
    {
        type            calculated;
        value           nonuniform List<scalar> 
84
(
-9.68863e-16
9.6769e-16
-4.73627e-16
7.46495e-16
1.3086e-16
-3.40062e-17
2.84206e-16
2.89693e-17
0
1.2049e-15
-3.05367e-16
2.53768e-16
-2.8136e-16
-1.82017e-15
2.97492e-16
0
-2.77126e-16
2.2459e-17
-2.14995e-17
-2.22519e-16
1.14379e-16
3.06154e-16
5.21187e-16
-4.65234e-16
0
-9.01437e-17
-4.63582e-17
0
-4.24986e-16
-1.20208e-16
-4.05492e-16
-4.38781e-16
4.74805e-16
1.62647e-16
1.11621e-15
8.93858e-17
0
7.48653e-16
7.27802e-16
4.13197e-16
-2.19323e-16
8.94618e-17
8.94649e-17
0
3.56066e-16
8.20489e-16
6.57201e-16
6.01337e-17
0
-1.54655e-15
9.52356e-16
1.29904e-19
1.26729e-19
3.7074e-16
0
-8.77787e-16
0
-4.98395e-17
9.37076e-17
1.927e-16
2.99498e-16
4.19475e-16
8.58411e-20
1.02543e-15
0
0
-7.73076e-16
8.52456e-16
-8.6498e-16
-2.97748e-16
6.32628e-16
-5.90603e-16
1.30304e-15
6.4012e-16
6.00601e-16
-1.17685e-15
8.26984e-16
-2.53446e-16
5.17806e-16
-3.67637e-16
2.5435e-16
1.43561e-17
-4.86153e-16
4.8429e-16
)
;
    }
    left
    {
        type            calculated;
        value           nonuniform List<scalar> 
19
(
-9.68206e-16
-4.7136e-16
4.78245e-16
1.00813e-17
-9.12152e-16
0
-4.26318e-16
-4.2037e-16
-2.88311e-17
-2.21224e-16
-2.05115e-18
-2.20026e-16
9.77702e-16
-2.17554e-16
1.01671e-15
8.77235e-16
5.21755e-16
7.65205e-16
0
)
;
    }
    right
    {
        type            calculated;
        value           nonuniform List<scalar> 
19
(
4.83961e-16
-2.68077e-18
-7.47976e-18
-9.20436e-16
9.28621e-16
-4.49187e-16
4.47356e-16
4.40879e-16
-3.89505e-16
0
0
7.41066e-16
-7.56548e-16
-7.98622e-16
7.91607e-16
-7.71105e-16
8.33966e-16
-1.41267e-15
0
)
;
    }
    frontAndBackPlanes
    {
        type            empty;
    }
}


// ************************************************************************* //
