/*--------------------------------*- C++ -*----------------------------------*\
  =========                 |
  \\      /  F ield         | OpenFOAM: The Open Source CFD Toolbox
   \\    /   O peration     | Website:  https://openfoam.org
    \\  /    A nd           | Version:  7
     \\/     M anipulation  |
\*---------------------------------------------------------------------------*/
FoamFile
{
    version     2.0;
    format      ascii;
    class       volScalarField;
    location    "0.26";
    object      T;
}
// * * * * * * * * * * * * * * * * * * * * * * * * * * * * * * * * * * * * * //

dimensions      [0 0 0 1 0 0 0];

internalField   nonuniform List<scalar> 
1596
(
5.98441
5.93971
5.89395
5.85059
5.8105
5.7732
5.73788
5.70273
5.6664
5.62581
5.57852
5.52127
5.44673
5.34468
5.19923
4.97494
4.60572
3.95948
2.77148
5.9326
5.7934
5.66206
5.5412
5.43068
5.32862
5.23264
5.13889
5.04404
4.94232
4.82887
4.69778
4.53821
4.33682
4.07706
3.72752
3.23954
2.52933
1.43827
5.87129
5.63717
5.42658
5.23697
5.06549
4.90857
4.76242
4.622
4.4828
4.33803
4.18192
4.00784
3.80495
3.56088
3.26208
2.88513
2.39785
1.75064
0.85096
5.81072
5.48768
5.20557
4.95554
4.73165
4.52861
4.34152
4.1646
3.99273
3.8188
3.63692
3.4405
3.21965
2.96376
2.66229
2.29827
1.85077
1.2908
0.56458
5.76037
5.36036
5.01563
4.71286
4.44366
4.20147
3.98054
3.77468
3.57847
3.38483
3.18796
2.98154
2.75665
2.50422
2.21588
1.879
1.47954
1.0002
0.409093
5.72645
5.26579
4.86819
4.51958
4.21069
3.93435
3.68437
3.45442
3.23897
3.03108
2.82511
2.61501
2.39261
2.14992
1.87997
1.57283
1.21849
0.806097
0.315959
5.70983
5.20694
4.76687
4.37892
4.03482
3.72779
3.45168
3.20028
2.96814
2.74852
2.53596
2.32459
2.10679
1.87528
1.6239
1.34435
1.02891
0.670252
0.255461
5.70692
5.17952
4.70772
4.2869
3.91162
3.57648
3.27601
3.00444
2.75656
2.52594
2.30728
2.09487
1.88147
1.66026
1.42549
1.16984
0.88688
0.571132
0.213494
5.7142
5.17751
4.68416
4.23681
3.83416
3.47309
3.14943
2.8582
2.59467
2.35278
2.12747
1.91315
1.70288
1.4901
1.26927
1.03364
0.777446
0.49618
0.182854
5.7241
5.18818
4.68226
4.21491
3.78921
3.40489
3.05956
2.74939
2.47037
2.21694
1.98434
1.76715
1.55864
1.35244
1.1431
0.924158
0.690221
0.437203
0.159338
5.73212
5.20124
4.68924
4.20789
3.76376
3.35945
2.99459
2.66677
2.37288
2.10804
1.86785
1.64711
1.43932
1.23822
1.0384
0.83355
0.618436
0.389122
0.14051
5.74214
5.21907
4.70481
4.21347
3.75439
3.33269
2.95008
2.60567
2.29744
2.02123
1.77313
1.5482
1.34012
1.14277
0.950708
0.7577
0.558535
0.34926
0.125104
5.7517
5.23783
4.72381
4.22544
3.75426
3.31757
2.91903
2.5593
2.2375
1.95032
1.69433
1.4649
1.25594
1.06139
0.875788
0.692905
0.507484
0.31545
0.112174
5.75763
5.25161
4.73901
4.2359
3.75519
3.30598
2.89364
2.52029
2.18623
1.88897
1.62565
1.39196
1.18202
0.98986
0.809963
0.636076
0.462853
0.286043
0.101038
5.76267
5.26269
4.7513
4.24442
3.75576
3.29577
2.87129
2.48579
2.14066
1.83424
1.56425
1.32668
1.11586
0.925895
0.751212
0.585495
0.423279
0.260106
0.0913065
5.76757
5.27256
4.76176
4.25124
3.75539
3.28569
2.85024
2.45374
2.09856
1.78386
1.50786
1.26688
1.05541
0.867638
0.69789
0.539774
0.387675
0.236905
0.0826823
5.77097
5.27962
4.76875
4.25451
3.75188
3.27328
2.82787
2.42143
2.05725
1.73522
1.45403
1.21028
0.998618
0.813245
0.648408
0.4976
0.355035
0.21578
0.0749086
5.77341
5.28443
4.77273
4.25449
3.7452
3.25814
2.80345
2.38789
2.01559
1.68707
1.40145
1.15557
0.9442
0.761525
0.60169
0.458056
0.324648
0.196263
0.0678008
5.77796
5.29185
4.77892
4.25613
3.73975
3.24397
2.77995
2.35537
1.97516
1.64043
1.35069
1.10295
0.892043
0.712153
0.557288
0.420667
0.296094
0.178063
0.0612448
5.78353
5.30146
4.78748
4.25987
3.73601
3.23117
2.7576
2.32392
1.93581
1.59498
1.30124
1.05174
0.841391
0.664293
0.514337
0.384607
0.268689
0.160733
0.055087
5.78778
5.30985
4.79517
4.2629
3.73159
3.21773
2.73466
2.292
1.89619
1.54946
1.25192
1.00084
0.791121
0.616809
0.471689
0.348763
0.241468
0.143624
0.0491137
5.79207
5.31822
4.80303
4.26627
3.72758
3.20468
2.7121
2.26045
1.85692
1.50426
1.20287
0.950094
0.740826
0.569034
0.428416
0.311988
0.213212
0.125762
0.0429827
5.79702
5.32764
4.81213
4.27098
3.72495
3.193
2.69082
2.23006
1.81859
1.45975
1.15416
0.899265
0.689954
0.520094
0.383296
0.272651
0.181909
0.105134
0.0357263
5.80227
5.33759
4.82181
4.27633
3.72304
3.18212
2.6704
2.20046
1.78088
1.41548
1.10517
0.847509
0.637405
0.468619
0.33462
0.228523
0.144488
0.0776242
0.0234431
5.81056
5.35831
4.85156
4.31175
3.7609
3.21947
2.70472
2.22974
1.80365
1.43088
1.11303
0.848316
0.632211
0.458841
0.321851
0.214337
0.13054
0.0660294
0.0175549
5.81968
5.38488
4.89464
4.36945
3.83038
3.29712
2.78651
2.31156
1.8817
1.50197
1.17482
0.899632
0.672997
0.490008
0.344904
0.230925
0.142015
0.0731976
0.0204114
5.82424
5.40069
4.92302
4.41055
3.88316
3.35944
2.85534
2.38336
1.95273
1.56872
1.23436
0.949989
0.713356
0.520716
0.367196
0.24641
0.152196
0.0791544
0.0225943
5.82428
5.40533
4.9358
4.43376
3.91764
3.40456
2.90922
2.44311
2.01485
1.62953
1.29041
0.998521
0.752719
0.550562
0.388392
0.260527
0.160927
0.0838815
0.0241622
5.82137
5.402
4.93726
4.44396
3.93886
3.43739
2.95266
2.49485
2.07164
1.6876
1.34588
1.04796
0.793595
0.581697
0.410154
0.274442
0.168996
0.0879046
0.0253659
5.81581
5.39278
4.93103
4.44574
3.95189
3.46302
2.99048
2.54298
2.12706
1.74653
1.40421
1.10166
0.839233
0.617073
0.434833
0.289715
0.177258
0.0916396
0.0263617
5.80881
5.38117
4.92205
4.4449
3.96283
3.48747
3.02837
2.59272
2.18585
1.81073
1.46964
1.16394
0.894128
0.66116
0.466365
0.309165
0.187201
0.095617
0.0272756
5.80338
5.37224
4.91633
4.44782
3.97807
3.51687
3.07204
2.64928
2.25281
1.88473
1.54675
1.23976
0.96395
0.720361
0.511318
0.338382
0.202281
0.100985
0.0281265
5.79829
5.3645
4.91277
4.45386
3.9974
3.55136
3.12191
2.7134
2.329
1.9701
1.63783
1.33261
1.05401
0.802366
0.579756
0.388536
0.232102
0.112908
0.0290238
5.79338
5.3581
4.9119
4.46394
4.02203
3.59237
3.1796
2.78681
2.41637
2.06903
1.7456
1.44621
1.16989
0.916097
0.685583
0.479412
0.300658
0.15409
0.0422363
5.78758
5.3491
4.90631
4.46692
4.03704
3.62128
3.22294
2.84411
2.48643
2.15023
1.83613
1.5442
1.27338
1.02274
0.791988
0.58017
0.387352
0.215594
0.0666584
5.7774
5.32747
4.87999
4.44098
4.01494
3.60515
3.2138
2.84213
2.49118
2.16085
1.85155
1.5633
1.29509
1.04615
0.816397
0.604772
0.410792
0.234885
0.0760661
5.76403
5.29765
4.84088
4.39759
3.97071
3.56226
3.17349
2.80489
2.45698
2.12928
1.82202
1.53518
1.26783
1.01946
0.790472
0.580412
0.389649
0.219542
0.0697568
5.7528
5.27274
4.80832
4.36156
3.93404
3.52676
3.14018
2.77422
2.42899
2.10373
1.79859
1.51356
1.24779
1.00097
0.773768
0.565971
0.378179
0.211939
0.0669759
5.74477
5.25433
4.78387
4.33425
3.90606
3.49954
3.11456
2.75057
2.40742
2.08412
1.78077
1.49736
1.23309
0.987756
0.76216
0.556213
0.370622
0.207054
0.0652746
5.73865
5.2403
4.76524
4.31343
3.8847
3.47874
3.09495
2.73246
2.3909
2.06914
1.76722
1.48514
1.22212
0.978002
0.753689
0.549156
0.365193
0.203566
0.0640804
5.73418
5.23008
4.75174
4.29841
3.86936
3.46383
3.0809
2.7195
2.37908
2.05844
1.75756
1.47646
1.21435
0.971109
0.747706
0.544163
0.361332
0.201067
0.063217
5.73053
5.22275
4.74268
4.28873
3.85974
3.45466
3.0724
2.71176
2.37212
2.05223
1.75206
1.47161
1.21011
0.96744
0.744605
0.541643
0.359432
0.199867
0.0628183
5.73054
5.22277
4.7427
4.28877
3.85978
3.4547
3.07244
2.7118
2.37216
2.05227
1.75209
1.47164
1.21014
0.967465
0.744625
0.541659
0.359444
0.199874
0.0628207
5.7342
5.23014
4.75183
4.29851
3.86947
3.46394
3.08102
2.71962
2.3792
2.05855
1.75767
1.47656
1.21444
0.971187
0.747772
0.544215
0.36137
0.201091
0.0632251
5.73869
5.2404
4.76537
4.31359
3.88488
3.47893
3.09514
2.73265
2.39109
2.06932
1.76739
1.4853
1.22226
0.978122
0.753789
0.549235
0.365249
0.2036
0.0640921
5.74482
5.25446
4.78405
4.33447
3.9063
3.49979
3.11481
2.75083
2.40766
2.08436
1.78099
1.49756
1.23327
0.98791
0.762288
0.556313
0.370693
0.207097
0.065289
5.75286
5.27289
4.80853
4.36182
3.93433
3.52707
3.1405
2.77453
2.42929
2.10402
1.79886
1.5138
1.24801
1.00116
0.773919
0.566088
0.378261
0.211988
0.0669919
5.7641
5.29782
4.84112
4.39789
3.97104
3.56261
3.17385
2.80525
2.45733
2.12961
1.82232
1.53545
1.26807
1.01966
0.790629
0.580528
0.389725
0.219584
0.0697686
5.77748
5.32766
4.88026
4.44131
4.01531
3.60554
3.2142
2.84253
2.49156
2.16121
1.85188
1.56359
1.29533
1.04633
0.816518
0.604837
0.410811
0.234878
0.076056
5.78767
5.34937
4.90675
4.4675
4.03773
3.62207
3.2238
2.84503
2.48738
2.15121
1.83711
1.54518
1.27434
1.02368
0.792903
0.581035
0.38812
0.216174
0.0669098
5.79349
5.35842
4.91242
4.46464
4.02288
3.59336
3.18069
2.78799
2.4176
2.0703
1.74689
1.4475
1.17117
0.917331
0.68674
0.480437
0.301478
0.154626
0.0424307
5.79838
5.36478
4.91322
4.45447
3.99814
3.55222
3.12287
2.71442
2.33007
1.97118
1.63891
1.33367
1.05501
0.803282
0.580547
0.389157
0.232517
0.113115
0.0290642
5.80346
5.37249
4.91675
4.44839
3.97878
3.51769
3.07294
2.65024
2.25379
1.88573
1.54772
1.24068
0.964797
0.721098
0.511914
0.338814
0.202548
0.101114
0.0281598
5.80888
5.3814
4.92244
4.44543
3.96349
3.48823
3.02922
2.59361
2.18676
1.81163
1.47051
1.16475
0.894847
0.661763
0.466832
0.309493
0.187403
0.0957195
0.0273047
5.81588
5.39299
4.93138
4.44624
3.95251
3.46373
2.99127
2.54381
2.1279
1.74735
1.40499
1.10237
0.83985
0.617577
0.435217
0.289983
0.177425
0.0917278
0.026388
5.82142
5.40218
4.93758
4.44441
3.93943
3.43805
2.95338
2.49561
2.07241
1.68834
1.34658
1.04859
0.794128
0.582127
0.410479
0.27467
0.169142
0.0879839
0.0253904
5.82433
5.40548
4.93608
4.43416
3.91815
3.40515
2.90988
2.4438
2.01555
1.6302
1.29103
0.999071
0.753183
0.550935
0.388675
0.260728
0.161059
0.0839555
0.0241862
5.82428
5.40083
4.92326
4.41091
3.88362
3.35997
2.85594
2.38398
1.95335
1.56932
1.23491
0.950473
0.713764
0.521044
0.367448
0.246593
0.152319
0.0792267
0.0226195
5.81971
5.385
4.89486
4.36976
3.83078
3.2976
2.78704
2.31212
1.88225
1.50249
1.1753
0.900059
0.673358
0.490301
0.345132
0.231096
0.142136
0.0732724
0.02044
5.81056
5.35833
4.85161
4.31183
3.76101
3.21961
2.70487
2.22989
1.80381
1.43103
1.11316
0.848425
0.632295
0.4589
0.321886
0.214351
0.13054
0.0660217
0.0175486
5.80225
5.33755
4.82175
4.27625
3.72295
3.18202
2.67029
2.20035
1.78077
1.41538
1.10507
0.84742
0.637323
0.468545
0.334553
0.228464
0.144439
0.0775887
0.0234267
5.79702
5.32763
4.81211
4.27096
3.72493
3.19298
2.69081
2.23004
1.81859
1.45975
1.15416
0.899273
0.689965
0.520107
0.383308
0.272663
0.181919
0.105141
0.0357281
5.79207
5.31821
4.80302
4.26625
3.72756
3.20467
2.71209
2.26045
1.85691
1.50427
1.20288
0.950103
0.740836
0.569044
0.428427
0.311997
0.213219
0.125765
0.0429838
5.78778
5.30984
4.79516
4.26289
3.73158
3.21772
2.73465
2.292
1.89619
1.54946
1.25193
1.00085
0.79113
0.616818
0.471696
0.348769
0.241473
0.143626
0.0491144
5.78353
5.30145
4.78747
4.25986
3.736
3.23117
2.75759
2.32392
1.93581
1.59498
1.30124
1.05175
0.841398
0.664299
0.514343
0.384611
0.268692
0.160735
0.0550875
5.77796
5.29184
4.77892
4.25613
3.73974
3.24396
2.77995
2.35538
1.97516
1.64044
1.3507
1.10295
0.892049
0.712158
0.557292
0.42067
0.296096
0.178065
0.0612451
5.77341
5.28443
4.77273
4.25449
3.7452
3.25814
2.80345
2.38789
2.01559
1.68707
1.40146
1.15558
0.944204
0.761529
0.601693
0.458058
0.32465
0.196264
0.0678009
5.77097
5.27962
4.76874
4.25451
3.75189
3.27328
2.82787
2.42143
2.05725
1.73522
1.45403
1.21028
0.998621
0.813248
0.64841
0.497601
0.355036
0.21578
0.0749087
5.76757
5.27256
4.76176
4.25125
3.75539
3.28569
2.85025
2.45374
2.09856
1.78386
1.50786
1.26688
1.05542
0.867639
0.697891
0.539774
0.387675
0.236904
0.0826822
5.76267
5.26269
4.7513
4.24442
3.75577
3.29578
2.87129
2.48579
2.14066
1.83424
1.56425
1.32668
1.11586
0.925896
0.751211
0.585494
0.423278
0.260105
0.0913064
5.75764
5.25161
4.73901
4.2359
3.75519
3.30598
2.89364
2.52029
2.18623
1.88897
1.62565
1.39196
1.18202
0.989859
0.809962
0.636075
0.462851
0.286042
0.101038
5.7517
5.23783
4.72381
4.22545
3.75426
3.31757
2.91903
2.5593
2.2375
1.95032
1.69433
1.4649
1.25594
1.06139
0.875786
0.692903
0.507482
0.315449
0.112174
5.74215
5.21907
4.70482
4.21348
3.75439
3.33269
2.95008
2.60567
2.29743
2.02123
1.77313
1.5482
1.34012
1.14277
0.950706
0.757698
0.558534
0.34926
0.125104
5.73212
5.20124
4.68924
4.20789
3.76376
3.35945
2.99459
2.66676
2.37288
2.10804
1.86785
1.64711
1.43931
1.23822
1.03839
0.833548
0.618435
0.389122
0.140511
5.72411
5.18819
4.68226
4.21491
3.78921
3.40489
3.05956
2.74939
2.47037
2.21694
1.98434
1.76714
1.55864
1.35244
1.1431
0.924156
0.69022
0.437203
0.159339
5.7142
5.17751
4.68416
4.23681
3.83415
3.47309
3.14943
2.8582
2.59467
2.35278
2.12747
1.91315
1.70288
1.4901
1.26927
1.03363
0.777446
0.496181
0.182855
5.70692
5.17952
4.70772
4.28689
3.91162
3.57648
3.276
3.00443
2.75656
2.52593
2.30728
2.09486
1.88147
1.66026
1.42549
1.16984
0.88688
0.571133
0.213495
5.70983
5.20693
4.76687
4.37891
4.03482
3.72778
3.45167
3.20028
2.96813
2.74851
2.53596
2.32458
2.10678
1.87528
1.6239
1.34435
1.02891
0.670253
0.255462
5.72645
5.26579
4.86818
4.51958
4.21068
3.93435
3.68437
3.45442
3.23896
3.03107
2.82511
2.615
2.3926
2.14992
1.87997
1.57283
1.21849
0.806098
0.31596
5.76037
5.36036
5.01563
4.71285
4.44366
4.20147
3.98053
3.77467
3.57846
3.38482
3.18795
2.98153
2.75665
2.50422
2.21588
1.879
1.47954
1.00021
0.409093
5.81071
5.48767
5.20557
4.95554
4.73164
4.52861
4.34151
4.16459
3.99272
3.8188
3.63692
3.4405
3.21965
2.96376
2.66229
2.29827
1.85077
1.2908
0.56458
5.87129
5.63717
5.42658
5.23696
5.06549
4.90856
4.76242
4.622
4.4828
4.33802
4.18191
4.00784
3.80495
3.56088
3.26208
2.88513
2.39785
1.75064
0.850959
5.9326
5.7934
5.66206
5.5412
5.43068
5.32862
5.23264
5.13889
5.04403
4.94232
4.82887
4.69778
4.53821
4.33682
4.07706
3.72752
3.23954
2.52933
1.43827
5.98441
5.9397
5.89395
5.85059
5.8105
5.7732
5.73788
5.70273
5.6664
5.62581
5.57852
5.52127
5.44673
5.34468
5.19923
4.97494
4.60572
3.95948
2.77148
)
;

boundaryField
{
    up
    {
        type            fixedValue;
        value           uniform 0;
    }
    low
    {
        type            fixedValue;
        value           uniform 6;
    }
    left
    {
        type            fixedValue;
        value           uniform 6;
    }
    right
    {
        type            fixedValue;
        value           uniform 6;
    }
    frontAndBackPlanes
    {
        type            empty;
    }
}


// ************************************************************************* //
