/*--------------------------------*- C++ -*----------------------------------*\
  =========                 |
  \\      /  F ield         | OpenFOAM: The Open Source CFD Toolbox
   \\    /   O peration     | Website:  https://openfoam.org
    \\  /    A nd           | Version:  7
     \\/     M anipulation  |
\*---------------------------------------------------------------------------*/
FoamFile
{
    version     2.0;
    format      ascii;
    class       volScalarField;
    location    "0.266";
    object      gradTx;
}
// * * * * * * * * * * * * * * * * * * * * * * * * * * * * * * * * * * * * * //

dimensions      [0 -1 0 1 0 0 0];

internalField   nonuniform List<scalar> 
1596
(
-0.285806
-1.43538
-2.57539
-3.61231
-4.54256
-5.36582
-6.11994
-6.82913
-7.52567
-8.272
-9.08449
-10.0382
-11.2227
-12.7708
-14.8413
-17.8394
-22.3939
-29.8652
-43.0658
0.0625391
-1.19577
-2.31723
-3.29323
-4.14902
-4.89111
-5.55348
-6.14811
-6.69898
-7.23814
-7.76784
-8.32779
-8.93095
-9.59749
-10.3085
-11.0309
-11.5864
-11.6134
-10.3473
0.347895
-0.979746
-2.06541
-2.97119
-3.74454
-4.40107
-4.97003
-5.45917
-5.88439
-6.26264
-6.59031
-6.88775
-7.14774
-7.36412
-7.50448
-7.51368
-7.24827
-6.45883
-4.65861
0.392912
-0.867447
-1.86179
-2.67404
-3.35503
-3.92423
-4.40449
-4.80196
-5.12668
-5.38713
-5.57929
-5.71266
-5.77703
-5.76116
-5.6392
-5.3669
-4.85157
-3.94275
-2.3496
0.114293
-0.910515
-1.74313
-2.43186
-3.00904
-3.48949
-3.88731
-4.20697
-4.45395
-4.63133
-4.73684
-4.77347
-4.73299
-4.60523
-4.37341
-4.00654
-3.4498
-2.61656
-1.33892
-0.465322
-1.12801
-1.73647
-2.27164
-2.73254
-3.12137
-3.44123
-3.69349
-3.87944
-3.9982
-4.04917
-4.0311
-3.93832
-3.76266
-3.49436
-3.11215
-2.58519
-1.86426
-0.853735
-1.23745
-1.50227
-1.85208
-2.21101
-2.54399
-2.83654
-3.07982
-3.27037
-3.40527
-3.48024
-3.49538
-3.44654
-3.32979
-3.1385
-2.86736
-2.50143
-2.02403
-1.40716
-0.596504
-2.04763
-1.96378
-2.06066
-2.23804
-2.43837
-2.63205
-2.79948
-2.93145
-3.02082
-3.06034
-3.04967
-2.98264
-2.85615
-2.66451
-2.40485
-2.06626
-1.64007
-1.11032
-0.44621
-2.88698
-2.55422
-2.42507
-2.41924
-2.4769
-2.56033
-2.64262
-2.709
-2.74838
-2.75075
-2.71426
-2.63123
-2.49839
-2.31028
-2.06497
-1.75389
-1.37249
-0.911391
-0.352725
-3.391
-2.965
-2.70131
-2.5635
-2.50799
-2.49924
-2.50875
-2.51852
-2.51495
-2.48618
-2.42878
-2.33425
-2.19895
-2.01762
-1.78869
-1.50526
-1.16508
-0.762687
-0.287681
-3.80068
-3.33408
-2.9889
-2.75317
-2.60226
-2.50892
-2.44788
-2.40068
-2.35269
-2.29111
-2.21103
-2.10347
-1.9642
-1.7879
-1.57279
-1.31297
-1.00711
-0.651923
-0.24133
-4.21643
-3.7448
-3.34858
-3.0359
-2.79936
-2.62268
-2.48711
-2.37642
-2.2767
-2.17512
-2.06569
-1.93915
-1.79052
-1.61416
-1.40774
-1.16568
-0.886767
-0.568627
-0.207377
-4.32559
-3.91667
-3.52928
-3.19201
-2.91255
-2.68555
-2.49985
-2.3433
-2.20431
-2.07127
-1.93816
-1.7961
-1.63991
-1.46394
-1.26555
-1.03954
-0.78465
-0.498998
-0.179882
-4.34711
-4.00714
-3.65227
-3.31573
-3.01511
-2.75459
-2.53054
-2.33584
-2.16215
-1.99995
-1.84392
-1.68596
-1.52095
-1.34339
-1.15038
-0.936954
-0.701624
-0.442677
-0.158006
-4.33153
-4.05431
-3.73993
-3.41861
-3.11176
-2.83039
-2.5774
-2.35092
-2.14639
-1.95692
-1.77849
-1.60412
-1.42901
-1.24791
-1.05775
-0.85371
-0.634011
-0.396866
-0.140358
-4.21692
-4.00703
-3.74194
-3.45045
-3.15467
-2.8694
-2.60232
-2.35613
-2.13006
-1.9201
-1.72398
-1.53616
-1.35247
-1.16813
-0.980102
-0.783784
-0.577201
-0.358477
-0.125687
-4.00038
-3.85423
-3.64306
-3.3921
-3.12208
-2.84914
-2.58371
-2.33187
-2.09608
-1.87511
-1.66858
-1.4726
-1.28388
-1.09828
-0.913004
-0.723795
-0.52867
-0.32581
-0.113308
-3.74808
-3.64245
-3.47854
-3.26973
-3.03222
-2.78116
-2.52803
-2.28103
-2.04503
-1.82118
-1.61089
-1.41186
-1.22177
-1.03721
-0.855624
-0.673144
-0.487923
-0.298404
-0.102934
-3.5363
-3.46352
-3.33602
-3.16154
-2.95185
-2.72041
-2.47905
-2.23738
-2.00227
-1.77688
-1.5642
-1.36334
-1.17281
-0.98971
-0.811558
-0.634568
-0.456876
-0.277283
-0.0947447
-3.17383
-3.14393
-3.05816
-2.92569
-2.75548
-2.55847
-2.34537
-2.12584
-1.90762
-1.69516
-1.4926
-1.30032
-1.11767
-0.942372
-0.772057
-0.6029
-0.432847
-0.261153
-0.0882234
-2.77523
-2.7792
-2.73105
-2.63831
-2.50792
-2.34848
-2.16916
-1.97891
-1.78557
-1.59417
-1.40947
-1.23272
-1.06395
-0.901431
-0.742833
-0.583919
-0.421596
-0.254554
-0.0849159
-2.36157
-2.38762
-2.37082
-2.31435
-2.22256
-2.10179
-1.95951
-1.80356
-1.64134
-1.47791
-1.31802
-1.16338
-1.01439
-0.86988
-0.727684
-0.583077
-0.430871
-0.26631
-0.0894202
-1.90497
-1.94226
-1.95103
-1.92905
-1.87724
-1.79912
-1.7001
-1.5864
-1.46446
-1.33873
-1.21325
-1.08964
-0.968253
-0.848503
-0.728994
-0.605458
-0.470924
-0.314549
-0.122337
-1.39145
-1.37211
-1.33082
-1.26834
-1.18944
-1.10056
-1.00908
-0.92122
-0.841812
-0.772792
-0.713376
-0.660735
-0.610853
-0.560028
-0.505238
-0.443
-0.36763
-0.267289
-0.11981
-0.930579
-1.03754
-1.15833
-1.27536
-1.37611
-1.45182
-1.49903
-1.51746
-1.51014
-1.48091
-1.43261
-1.36836
-1.28979
-1.20049
-1.10455
-1.00574
-0.903274
-0.789914
-0.645022
-0.315822
-0.368392
-0.438313
-0.515284
-0.591732
-0.662222
-0.724746
-0.778619
-0.825085
-0.865049
-0.896435
-0.917322
-0.922678
-0.910421
-0.881284
-0.841466
-0.796114
-0.751442
-0.708675
0.300201
0.23348
0.13953
0.0282503
-0.091252
-0.211728
-0.328973
-0.440851
-0.54735
-0.648693
-0.742059
-0.823659
-0.88568
-0.922195
-0.930852
-0.917658
-0.890178
-0.858189
-0.825943
0.91623
0.825389
0.699002
0.548547
0.384495
0.215447
0.0470267
-0.117942
-0.279061
-0.436767
-0.588766
-0.730497
-0.851959
-0.942553
-0.994542
-1.01093
-1.00045
-0.97679
-0.947935
1.47533
1.34781
1.18144
0.990057
0.784771
0.574606
0.365326
0.159349
-0.0436411
-0.245388
-0.445422
-0.640242
-0.819247
-0.96754
-1.06981
-1.1221
-1.13084
-1.11358
-1.08426
2.05855
1.88685
1.67616
1.44112
1.1934
0.942456
0.693985
0.449879
0.208958
-0.0321315
-0.27544
-0.520401
-0.758487
-0.972936
-1.14039
-1.24544
-1.28538
-1.27815
-1.24603
2.50397
2.2811
2.02565
1.75226
1.47261
1.19527
0.924553
0.66078
0.401281
0.140733
-0.125805
-0.402197
-0.685253
-0.961387
-1.20287
-1.38111
-1.47413
-1.48877
-1.45133
2.92667
2.6594
2.36043
2.05006
1.74077
1.4401
1.15093
0.872252
0.600388
0.328793
0.0504794
-0.242851
-0.555579
-0.883653
-1.20434
-1.48329
-1.67377
-1.75198
-1.73008
3.32477
2.99994
2.65427
2.30858
1.97388
1.65551
1.35444
1.06824
0.792742
0.521093
0.24593
-0.0432869
-0.357378
-0.70516
-1.08024
-1.46277
-1.79659
-2.01825
-2.06385
3.59368
3.18154
2.76466
2.36134
1.97928
1.62081
1.28467
0.967308
0.664264
0.369197
0.0754343
-0.226995
-0.550873
-0.913746
-1.32935
-1.81085
-2.3375
-2.86127
-3.28971
3.77279
3.32014
2.89514
2.5093
2.16267
1.85189
1.57156
1.31623
1.08079
0.860386
0.651371
0.44933
0.249249
0.0429125
-0.182145
-0.451276
-0.791419
-1.23412
-1.79496
3.91565
3.44536
3.03273
2.67318
2.35784
2.07893
1.82881
1.60155
1.39243
1.19749
1.01471
0.842587
0.680453
0.528646
0.388677
0.260008
0.140504
0.0202883
-0.119994
3.73281
3.1949
2.74219
2.35668
2.02398
1.7336
1.47659
1.24629
1.03762
0.846253
0.66997
0.507135
0.356849
0.219412
0.0967987
-0.00882916
-0.0937551
-0.154049
-0.187819
3.29863
2.80387
2.39511
2.05225
1.7603
1.50838
1.28773
1.09183
0.915969
0.756274
0.610696
0.477774
0.35647
0.246456
0.148141
0.0614722
-0.0133859
-0.0763085
-0.127988
2.75698
2.33774
1.99165
1.70287
1.45867
1.2494
1.06736
0.906807
0.763593
0.634359
0.517179
0.410626
0.313457
0.224931
0.144834
0.0726284
0.00806948
-0.0487574
-0.0982918
2.08593
1.76055
1.49508
1.27589
1.09223
0.935995
0.800953
0.682456
0.577228
0.482609
0.397004
0.319221
0.248151
0.18308
0.123731
0.069663
0.0207377
-0.0228075
-0.0611392
1.31826
1.10098
0.929048
0.789817
0.674592
0.577358
0.493785
0.420738
0.356052
0.297988
0.245477
0.197715
0.153935
0.11363
0.0765793
0.0424922
0.0112971
-0.0167712
-0.0417087
0.507438
0.420426
0.353932
0.300785
0.256931
0.219871
0.187935
0.15995
0.135116
0.112791
0.0925639
0.0741179
0.0571435
0.0414198
0.0268218
0.0132034
0.000494465
-0.0112472
-0.0220212
-0.507194
-0.419893
-0.353211
-0.299946
-0.256025
-0.218937
-0.187001
-0.15904
-0.134248
-0.111983
-0.0918295
-0.0734684
-0.0565889
-0.0409688
-0.0264809
-0.0129778
-0.000387604
0.0112351
0.0218921
-1.31803
-1.10051
-0.928424
-0.789095
-0.673818
-0.576566
-0.493004
-0.419989
-0.355354
-0.297357
-0.244924
-0.197252
-0.153571
-0.113373
-0.0764332
-0.0424617
-0.0113839
0.0165688
0.0413953
-2.08571
-1.76011
-1.49448
-1.27518
-1.09145
-0.935181
-0.800131
-0.68165
-0.576456
-0.481886
-0.396345
-0.318634
-0.247643
-0.182656
-0.123391
-0.0694062
-0.0205595
0.022914
0.0611825
-2.75682
-2.33745
-1.99126
-1.7024
-1.45816
-1.24888
-1.06685
-0.906319
-0.763149
-0.633973
-0.516863
-0.410388
-0.313301
-0.22486
-0.144847
-0.0727189
-0.00822952
0.0485374
0.0980222
-3.29854
-2.8037
-2.39486
-2.05194
-1.75995
-1.50802
-1.28736
-1.09149
-0.915663
-0.75602
-0.610508
-0.477662
-0.356439
-0.246508
-0.148271
-0.0616676
0.0131441
0.0760457
0.127735
-3.73283
-3.19489
-2.74212
-2.35657
-2.02382
-1.73343
-1.47643
-1.24616
-1.03753
-0.84624
-0.670045
-0.507316
-0.357151
-0.219847
-0.097365
0.00815435
0.0930318
0.153378
0.187317
-3.91568
-3.44507
-3.03203
-2.67201
-2.35619
-2.07682
-1.82627
-1.59862
-1.38915
-1.1939
-1.01084
-0.838465
-0.676096
-0.524067
-0.383913
-0.255186
-0.135934
-0.0166257
0.121663
-3.7735
-3.32202
-2.89823
-2.51359
-2.16812
-1.85844
-1.57915
-1.32478
-1.09027
-0.870758
-0.662645
-0.461571
-0.262607
-0.0576801
0.165516
0.43213
0.769106
1.20834
1.76631
-3.59342
-3.1808
-2.76336
-2.35945
-1.97681
-1.61779
-1.28114
-0.963348
-0.659935
-0.364572
-0.0705929
0.231964
0.555871
0.918689
1.33425
1.81599
2.34362
2.86966
3.30211
-3.32502
-3.00053
-2.65514
-2.30968
-1.97516
-1.65692
-1.35595
-1.06984
-0.794417
-0.522849
-0.247784
0.0413125
0.355281
0.703012
1.07825
1.46137
1.79627
2.01931
2.06589
-2.92683
-2.65977
-2.36098
-2.05075
-1.74156
-1.44097
-1.15187
-0.873238
-0.601425
-0.329884
-0.0516279
0.241659
0.554406
0.882646
1.20374
1.48337
1.67466
1.75356
1.73202
-2.50413
-2.28146
-2.0262
-1.75296
-1.47342
-1.19616
-0.925502
-0.661767
-0.402294
-0.141761
0.124785
0.401231
0.684435
0.960862
1.2028
1.3816
1.47512
1.49008
1.45273
-2.05869
-1.88721
-1.67671
-1.44183
-1.19423
-0.943369
-0.694952
-0.450871
-0.209951
0.0311658
0.27454
0.519628
0.757933
0.972707
1.14056
1.24602
1.28625
1.27918
1.24713
-1.47546
-1.34813
-1.18195
-0.990723
-0.785555
-0.57547
-0.366232
-0.160263
0.0427515
0.244559
0.444698
0.639685
0.818928
0.96752
1.07011
1.12267
1.13161
1.11445
1.0852
-0.916368
-0.825727
-0.699529
-0.549233
-0.385302
-0.216331
-0.0479421
0.117038
0.278208
0.436007
0.588144
0.730067
0.851768
0.942629
0.994873
1.01147
1.00113
0.977566
0.948785
-0.300317
-0.233796
-0.140035
-0.0289136
0.0904726
0.210881
0.328108
0.440016
0.546589
0.648049
0.741571
0.823368
0.885611
0.922354
0.931215
0.918186
0.890828
0.858938
0.826788
0.315555
0.36758
0.436924
0.513343
0.589315
0.659444
0.721745
0.775535
0.822054
0.862193
0.893849
0.915084
0.920823
0.908953
0.880172
0.840682
0.795648
0.751364
0.709186
0.930768
1.03826
1.15973
1.27751
1.379
1.45537
1.50312
1.52195
1.51486
1.48571
1.43735
1.37295
1.29415
1.20459
1.10839
1.00934
0.906657
0.793104
0.647997
1.39125
1.3714
1.32957
1.26659
1.18728
1.09811
1.00648
0.918578
0.839245
0.770389
0.711197
0.658815
0.609206
0.558651
0.504113
0.442108
0.366955
0.26683
0.119609
1.90509
1.94249
1.95139
1.92952
1.87778
1.7997
1.70068
1.58695
1.46494
1.33914
1.21358
1.08989
0.968428
0.848618
0.72906
0.605484
0.470919
0.314527
0.122322
2.3616
2.38766
2.37087
2.31441
2.22262
2.10186
1.95957
1.80361
1.64138
1.47793
1.31803
1.16338
1.01438
0.869857
0.727657
0.583047
0.430842
0.266289
0.0894144
2.77525
2.77923
2.73109
2.63836
2.50797
2.34853
2.1692
1.97894
1.78559
1.59418
1.40946
1.23271
1.06393
0.901409
0.742809
0.583896
0.421577
0.254542
0.0849129
3.17385
3.14395
3.0582
2.92572
2.75552
2.5585
2.3454
2.12585
1.90763
1.69516
1.49259
1.3003
1.11765
0.942351
0.772036
0.602882
0.432833
0.261145
0.0882212
3.53632
3.46355
3.33605
3.16157
2.95188
2.72044
2.47907
2.23739
2.00228
1.77688
1.56419
1.36332
1.17279
0.989691
0.811541
0.634553
0.456865
0.277277
0.094743
3.7481
3.64247
3.47856
3.26976
3.03225
2.78118
2.52805
2.28103
2.04502
1.82117
1.61087
1.41184
1.22176
1.03719
0.855608
0.673132
0.487914
0.298399
0.102933
4.00039
3.85424
3.64308
3.39211
3.1221
2.84915
2.58371
2.33187
2.09607
1.8751
1.66857
1.47258
1.28386
1.09827
0.91299
0.723783
0.528662
0.325806
0.113307
4.21694
4.00705
3.74196
3.45046
3.15468
2.86941
2.60232
2.35613
2.13005
1.92009
1.72397
1.53614
1.35246
1.16812
0.98009
0.783774
0.577194
0.358474
0.125686
4.33154
4.05432
3.73995
3.41861
3.11177
2.83039
2.5774
2.35091
2.14637
1.95691
1.77847
1.6041
1.429
1.24789
1.05774
0.8537
0.634004
0.396863
0.140358
4.34711
4.00715
3.65228
3.31574
3.01511
2.75459
2.53053
2.33583
2.16214
1.99994
1.8439
1.68595
1.52094
1.34338
1.15037
0.936946
0.701619
0.442675
0.158006
4.32561
3.91669
3.52929
3.19202
2.91256
2.68555
2.49985
2.3433
2.2043
2.07126
1.93815
1.79609
1.6399
1.46393
1.26555
1.03954
0.784648
0.498998
0.179883
4.21642
3.7448
3.34857
3.03589
2.79934
2.62266
2.48709
2.3764
2.27669
2.1751
2.06568
1.93913
1.79051
1.61415
1.40773
1.16567
0.886766
0.568628
0.207379
3.8007
3.3341
2.98891
2.75317
2.60226
2.50892
2.44788
2.40067
2.35268
2.2911
2.21103
2.10347
1.9642
1.78789
1.57279
1.31297
1.00711
0.651927
0.241332
3.39104
2.96502
2.70133
2.56351
2.508
2.49923
2.50874
2.51851
2.51495
2.48617
2.42877
2.33425
2.19895
2.01762
1.78869
1.50527
1.16509
0.762693
0.287683
2.88701
2.55424
2.42508
2.41925
2.4769
2.56033
2.64262
2.70899
2.74838
2.75074
2.71426
2.63123
2.49839
2.31029
2.06498
1.7539
1.3725
0.911397
0.352726
2.04765
1.96379
2.06066
2.23804
2.43837
2.63205
2.79948
2.93145
3.02082
3.06034
3.04967
2.98264
2.85616
2.66452
2.40486
2.06627
1.64008
1.11033
0.44621
1.23747
1.50228
1.85209
2.21101
2.54399
2.83654
3.07982
3.27037
3.40527
3.48024
3.49538
3.44654
3.32979
3.13851
2.86736
2.50144
2.02404
1.40716
0.596503
0.465336
1.12802
1.73647
2.27165
2.73255
3.12137
3.44123
3.69349
3.87944
3.9982
4.04917
4.03111
3.93833
3.76267
3.49437
3.11216
2.5852
1.86426
0.853733
-0.114286
0.910523
1.74314
2.43187
3.00904
3.48949
3.88731
4.20697
4.45395
4.63133
4.73684
4.77347
4.733
4.60524
4.37342
4.00655
3.4498
2.61655
1.33892
-0.392911
0.867452
1.86179
2.67405
3.35504
3.92423
4.40449
4.80197
5.12669
5.38713
5.57929
5.71267
5.77703
5.76116
5.6392
5.36689
4.85157
3.94274
2.3496
-0.347897
0.979747
2.06541
2.97119
3.74454
4.40107
4.97003
5.45917
5.88439
6.26264
6.59031
6.88775
7.14774
7.36412
7.50448
7.51367
7.24825
6.45882
4.65861
-0.0625397
1.19577
2.31723
3.29322
4.14902
4.89111
5.55348
6.14811
6.69898
7.23814
7.76784
8.32779
8.93094
9.59749
10.3085
11.0309
11.5864
11.6134
10.3473
0.285807
1.43538
2.57539
3.61231
4.54256
5.36582
6.11994
6.82913
7.52567
8.272
9.08449
10.0382
11.2227
12.7708
14.8413
17.8394
22.3939
29.8652
43.0658
)
;

boundaryField
{
    up
    {
        type            calculated;
        value           nonuniform List<scalar> 
84
(
-43.0658
-10.3473
-4.65861
-2.3496
-1.33892
-0.853735
-0.596504
-0.44621
-0.352725
-0.287681
-0.24133
-0.207377
-0.179882
-0.158006
-0.140358
-0.125687
-0.113308
-0.102934
-0.0947447
-0.0882234
-0.0849159
-0.0894202
-0.122337
-0.11981
-0.55334
-0.66556
-0.78421
-0.903373
-1.0344
-1.18793
-1.3782
-1.61935
-1.89295
-3.27016
-1.8613
-0.12373
-0.18772
-0.127827
-0.0981949
-0.0611099
-0.0417027
-0.0220293
0.0219002
0.0413896
0.0611536
0.0979261
0.127575
0.187218
0.125351
1.83176
3.28492
1.89476
1.62103
1.37951
1.189
1.03532
0.90422
0.785071
0.666349
0.556056
0.119609
0.122322
0.0894144
0.0849129
0.0882212
0.094743
0.102933
0.113307
0.125686
0.140358
0.158006
0.179883
0.207379
0.241332
0.287683
0.352726
0.44621
0.596503
0.853733
1.33892
2.3496
4.65861
10.3473
43.0658
)
;
    }
    low
    {
        type            calculated;
        value           nonuniform List<scalar> 
84
(
-0.257812
0.104515
0.416089
0.467506
0.161469
-0.4741
-1.31009
-2.17016
-3.02889
-3.50705
-3.90125
-4.2949
-4.35432
-4.34455
-4.30884
-4.1662
-3.92635
-3.66825
-3.44275
-3.05554
-2.64615
-2.23209
-1.78042
-1.28349
-0.847148
-0.285869
0.266073
0.830862
1.36455
1.94561
2.40863
2.84641
3.2678
3.56838
3.77347
3.94772
3.79911
3.37265
2.82473
2.1409
1.35514
0.522991
-0.522746
-1.35491
-2.14067
-2.82455
-3.37252
-3.79908
-3.94769
-3.77406
-3.56813
-3.268
-2.84655
-2.40878
-1.94576
-1.36468
-0.831006
-0.266191
0.285608
0.847334
1.28331
1.78053
2.23212
2.64618
3.05555
3.44277
3.66827
3.92637
4.16622
4.30884
4.34456
4.35433
4.29489
3.90126
3.50708
3.02892
2.17019
1.31011
0.474115
-0.161461
-0.467507
-0.416095
-0.104518
0.257813
)
;
    }
    left
    {
        type            calculated;
        value           nonuniform List<scalar> 
19
(
-0.253357
-1.37705
-2.53952
-3.61158
-4.58129
-5.44261
-6.23657
-6.99151
-7.73967
-8.56007
-9.46824
-10.5493
-11.9215
-13.7642
-16.2779
-20.0338
-25.9049
-35.7911
-37.3532
)
;
    }
    right
    {
        type            calculated;
        value           nonuniform List<scalar> 
19
(
0.253359
1.37705
2.53952
3.61158
4.58129
5.44261
6.23657
6.99151
7.73967
8.56007
9.46823
10.5493
11.9215
13.7642
16.2779
20.0338
25.9048
35.7911
37.3532
)
;
    }
    frontAndBackPlanes
    {
        type            empty;
    }
}


// ************************************************************************* //
