/*--------------------------------*- C++ -*----------------------------------*\
  =========                 |
  \\      /  F ield         | OpenFOAM: The Open Source CFD Toolbox
   \\    /   O peration     | Website:  https://openfoam.org
    \\  /    A nd           | Version:  7
     \\/     M anipulation  |
\*---------------------------------------------------------------------------*/
FoamFile
{
    version     2.0;
    format      ascii;
    class       volScalarField;
    location    "0.29";
    object      gradTx;
}
// * * * * * * * * * * * * * * * * * * * * * * * * * * * * * * * * * * * * * //

dimensions      [0 -1 0 1 0 0 0];

internalField   nonuniform List<scalar> 
1596
(
-0.155739
-0.782572
-1.40567
-1.97521
-2.49018
-2.95107
-3.37901
-3.78743
-4.19395
-4.63285
-5.11262
-5.67438
-6.36779
-7.26733
-8.46274
-10.1848
-12.793
-17.0651
-24.6091
0.0340894
-0.651996
-1.26454
-1.7998
-2.27231
-2.68607
-3.05999
-3.40063
-3.72102
-4.03853
-4.35374
-4.68806
-5.04784
-5.44342
-5.86299
-6.2868
-6.61243
-6.63321
-5.91238
0.189555
-0.534602
-1.12742
-1.62358
-2.04956
-2.41422
-2.73375
-3.01237
-3.25865
-3.48161
-3.6787
-3.86062
-4.02249
-4.15986
-4.25333
-4.27051
-4.12873
-3.68497
-2.66091
0.213921
-0.474113
-1.01724
-1.46195
-1.83642
-2.15154
-2.41995
-2.64497
-2.832
-2.98544
-3.10268
-3.1885
-3.23655
-3.23973
-3.18255
-3.03892
-2.75516
-2.24459
-1.34059
0.0616465
-0.498631
-0.953965
-1.33125
-1.64846
-1.91387
-2.1353
-2.31519
-2.45645
-2.56063
-2.62621
-2.65453
-2.64056
-2.57803
-2.45681
-2.25853
-1.95121
-1.48462
-0.76223
-0.255039
-0.618385
-0.952045
-1.24586
-1.49949
-1.71423
-1.89185
-2.03311
-2.13869
-2.20802
-2.24064
-2.2357
-2.18979
-2.09798
-1.95433
-1.74621
-1.45545
-1.05323
-0.484315
-0.676966
-0.823553
-1.01672
-1.21493
-1.39902
-1.56108
-1.6963
-1.80279
-1.87894
-1.92241
-1.93319
-1.90897
-1.84748
-1.74485
-1.59783
-1.39764
-1.1343
-0.791248
-0.33688
-1.1197
-1.07601
-1.13165
-1.23142
-1.34365
-1.45202
-1.54577
-1.61981
-1.67024
-1.6931
-1.68824
-1.65231
-1.58365
-1.47907
-1.33688
-1.15077
-0.91549
-0.621521
-0.250778
-1.57822
-1.39851
-1.33119
-1.33168
-1.36683
-1.41571
-1.46343
-1.50179
-1.52469
-1.52666
-1.50675
-1.46085
-1.3873
-1.28319
-1.1475
-0.975449
-0.764308
-0.508475
-0.197395
-1.85307
-1.6222
-1.48158
-1.4105
-1.38453
-1.38378
-1.39236
-1.40022
-1.3998
-1.38461
-1.35282
-1.29992
-1.22409
-1.12265
-0.994893
-0.837137
-0.648098
-0.424588
-0.160448
-2.07588
-1.82265
-1.63763
-1.51352
-1.43616
-1.39004
-1.36091
-1.33836
-1.31418
-1.28131
-1.23707
-1.1767
-1.09809
-0.998577
-0.877472
-0.731751
-0.560821
-0.362874
-0.134376
-2.30136
-2.04535
-1.83261
-1.66694
-1.54356
-1.45287
-1.38405
-1.32777
-1.27613
-1.22195
-1.16194
-1.09112
-1.00702
-0.906843
-0.789651
-0.652723
-0.495658
-0.317321
-0.115579
-2.35873
-2.13685
-1.92892
-1.75003
-1.60372
-1.48629
-1.39098
-1.31061
-1.2384
-1.16777
-1.09533
-1.01628
-0.92801
-0.827735
-0.714405
-0.585572
-0.440908
-0.279681
-0.100549
-2.36786
-2.18357
-1.99337
-1.81505
-1.6576
-1.52254
-1.40716
-1.30691
-1.21671
-1.13101
-1.04672
-0.959405
-0.866456
-0.76517
-0.654381
-0.531822
-0.397126
-0.249749
-0.0887974
-2.35647
-2.20641
-2.03834
-1.86848
-1.70801
-1.56218
-1.43183
-1.31517
-1.2091
-1.10942
-1.01365
-0.91791
-0.819707
-0.716463
-0.606932
-0.488966
-0.362105
-0.225846
-0.0794938
-2.29102
-2.1776
-2.03637
-1.88286
-1.72871
-1.58125
-1.44392
-1.31738
-1.2005
-1.09057
-0.985957
-0.8835
-0.780998
-0.676088
-0.567541
-0.453359
-0.333032
-0.206078
-0.0718714
-2.17031
-2.09145
-1.97947
-1.84801
-1.70803
-1.56765
-1.43179
-1.30293
-1.18164
-1.0666
-0.957174
-0.850969
-0.746207
-0.640831
-0.533715
-0.423067
-0.30843
-0.189425
-0.0655129
-2.03061
-1.97365
-1.88723
-1.77862
-1.65638
-1.52814
-1.39945
-1.27387
-1.15326
-1.03753
-0.926913
-0.819804
-0.714865
-0.610355
-0.505252
-0.397963
-0.288155
-0.175687
-0.0602604
-1.91338
-1.87425
-1.80761
-1.7177
-1.61073
-1.49346
-1.37161
-1.24956
-1.13018
-1.01443
-0.903319
-0.795951
-0.691346
-0.58796
-0.48473
-0.380066
-0.273654
-0.165656
-0.0562731
-1.71514
-1.69908
-1.65488
-1.58762
-1.50202
-1.40353
-1.29732
-1.18779
-1.07828
-0.970389
-0.865686
-0.763871
-0.664335
-0.565764
-0.467039
-0.366433
-0.263479
-0.158677
-0.0532757
-1.49817
-1.50038
-1.47643
-1.43055
-1.36643
-1.28835
-1.20066
-1.10743
-1.01204
-0.916387
-0.822304
-0.729897
-0.638831
-0.54799
-0.456123
-0.361088
-0.261648
-0.157912
-0.0523513
-1.27384
-1.28807
-1.28108
-1.25478
-1.21151
-1.15439
-1.08694
-1.01265
-0.934713
-0.855004
-0.775334
-0.695974
-0.616727
-0.53669
-0.454579
-0.367755
-0.273446
-0.169376
-0.0566345
-1.02701
-1.04752
-1.05444
-1.04679
-1.02509
-0.991023
-0.947081
-0.895974
-0.840402
-0.781937
-0.721949
-0.660606
-0.597618
-0.532353
-0.463885
-0.389694
-0.305637
-0.205193
-0.0799586
-0.750053
-0.740346
-0.720083
-0.68968
-0.651644
-0.609292
-0.566413
-0.526076
-0.490527
-0.460357
-0.434589
-0.411099
-0.387229
-0.360606
-0.329362
-0.291394
-0.24322
-0.177345
-0.0795253
-0.501877
-0.561097
-0.629629
-0.698436
-0.761016
-0.812628
-0.851094
-0.875657
-0.887055
-0.886331
-0.873836
-0.85018
-0.815438
-0.771167
-0.719543
-0.662784
-0.600455
-0.528015
-0.432288
-0.170812
-0.201082
-0.241792
-0.287544
-0.334387
-0.379469
-0.421723
-0.460663
-0.496677
-0.529771
-0.558048
-0.579576
-0.590712
-0.589687
-0.576661
-0.555322
-0.528959
-0.5016
-0.474251
0.161053
0.122492
0.0684143
0.0040751
-0.0657299
-0.137223
-0.208272
-0.277801
-0.345747
-0.411981
-0.474389
-0.530049
-0.573676
-0.601116
-0.610544
-0.605366
-0.590224
-0.57118
-0.551016
0.493411
0.44116
0.369063
0.283297
0.18943
0.0919603
-0.00628108
-0.103975
-0.201036
-0.297672
-0.392289
-0.481666
-0.55928
-0.618148
-0.653111
-0.665597
-0.660827
-0.647103
-0.629379
0.795858
0.723084
0.628743
0.520362
0.403919
0.284177
0.164028
0.0445095
-0.0748139
-0.195058
-0.315884
-0.434882
-0.545306
-0.637649
-0.702169
-0.735949
-0.742718
-0.732969
-0.715204
1.11257
1.0153
0.896448
0.764068
0.624474
0.482693
0.341579
0.201846
0.0624974
-0.0786212
-0.222805
-0.369564
-0.513565
-0.644302
-0.747235
-0.812431
-0.83795
-0.83436
-0.815137
1.35614
1.23033
1.08643
0.932591
0.775203
0.618878
0.465745
0.315677
0.166833
0.0158864
-0.140256
-0.303895
-0.473091
-0.639463
-0.786022
-0.894888
-0.952397
-0.962169
-0.939977
1.589
1.43822
1.26992
1.09542
0.921569
0.752472
0.589494
0.431798
0.277011
0.121106
-0.0402464
-0.212076
-0.39713
-0.592987
-0.785963
-0.954882
-1.07118
-1.1197
-1.10742
1.81031
1.62724
1.43272
1.23842
1.05042
0.871632
0.702386
0.541132
0.385251
0.230611
0.0726931
-0.0948703
-0.278732
-0.484355
-0.708206
-0.938244
-1.14058
-1.27616
-1.30542
1.96281
1.73073
1.49611
1.26925
1.05437
0.852686
0.66328
0.483987
0.312077
0.143772
-0.0249459
-0.200029
-0.389208
-0.60314
-0.850492
-1.1395
-1.45832
-1.77807
-2.0428
2.06758
1.81191
1.57197
1.35437
1.15917
0.984501
0.827252
0.68432
0.552762
0.429762
0.313221
0.200555
0.0888255
-0.026853
-0.154076
-0.308212
-0.506021
-0.767257
-1.10238
2.15356
1.88704
1.65348
1.45048
1.27307
1.11686
0.977439
0.851399
0.735987
0.628871
0.528876
0.435099
0.347192
0.265397
0.190646
0.122691
0.0602759
-0.00261608
-0.0777543
2.05998
1.75479
1.49824
1.28025
1.09262
0.929375
0.78533
0.656672
0.540469
0.434246
0.336771
0.247119
0.164853
0.0902151
0.0244091
-0.0312613
-0.0745855
-0.103317
-0.116371
1.82602
1.54391
1.31137
1.11693
0.951947
0.810153
0.686464
0.577147
0.479465
0.391205
0.311216
0.238652
0.172953
0.113941
0.0618294
0.0165428
-0.0218921
-0.0535444
-0.0789071
1.53039
1.2903
1.09283
0.928716
0.79054
0.672676
0.570649
0.481125
0.401707
0.330459
0.266278
0.208326
0.155892
0.108532
0.0660754
0.0281552
-0.00544059
-0.0347728
-0.060159
1.16047
0.973582
0.821773
0.697011
0.592978
0.504939
0.429256
0.36323
0.304953
0.252887
0.206106
0.163902
0.125627
0.0908477
0.0593583
0.0308629
0.00522974
-0.0174771
-0.0373923
0.734548
0.609678
0.511277
0.431959
0.366647
0.31183
0.264984
0.224285
0.188472
0.156537
0.127854
0.101945
0.0783587
0.0567865
0.0370713
0.0190206
0.00256191
-0.0122104
-0.0253144
0.28309
0.233251
0.1953
0.165102
0.140306
0.119456
0.10158
0.0859925
0.0722288
0.059917
0.0488168
0.0387422
0.0295133
0.020999
0.0131193
0.00578347
-0.00105769
-0.00738321
-0.0131984
-0.282954
-0.232956
-0.194904
-0.164644
-0.139814
-0.118951
-0.101078
-0.0855062
-0.0717682
-0.0594906
-0.0484317
-0.038404
-0.029227
-0.0207687
-0.0129482
-0.00567399
0.00110391
0.00736613
0.0131191
-0.734423
-0.609421
-0.510936
-0.431567
-0.366229
-0.311406
-0.264569
-0.223891
-0.188108
-0.156212
-0.127573
-0.101714
-0.0781831
-0.056669
-0.0370142
-0.0190256
-0.00262969
0.0120811
0.0251261
-1.16035
-0.97334
-0.821445
-0.696625
-0.592558
-0.504503
-0.428818
-0.362803
-0.304546
-0.252509
-0.205763
-0.163599
-0.125367
-0.0906322
-0.0591874
-0.030735
-0.00514192
0.0175291
0.0374134
-1.53031
-1.29014
-1.09262
-0.92847
-0.790274
-0.672405
-0.570384
-0.480878
-0.401487
-0.330273
-0.266132
-0.208224
-0.155837
-0.108524
-0.0661121
-0.0282327
0.00532769
0.0346305
0.0599937
-1.82598
-1.54382
-1.31125
-1.11678
-0.951772
-0.80997
-0.686284
-0.576981
-0.479321
-0.391093
-0.311142
-0.238622
-0.172971
-0.114006
-0.0619365
-0.0166846
0.021728
0.0533738
0.0787488
-2.05999
-1.75479
-1.49822
-1.2802
-1.09256
-0.929301
-0.785261
-0.656622
-0.540449
-0.434268
-0.336847
-0.247259
-0.165066
-0.0905075
-0.0247791
0.0308279
0.0741264
0.102895
0.116058
-2.15358
-1.88689
-1.6531
-1.44984
-1.27216
-1.11569
-0.976026
-0.849756
-0.734134
-0.626826
-0.526656
-0.432716
-0.344654
-0.26271
-0.187832
-0.119827
-0.0575472
0.00481021
0.0787527
-2.06798
-1.81295
-1.57369
-1.35677
-1.16222
-0.988186
-0.831542
-0.689189
-0.558191
-0.435747
-0.319776
-0.207727
-0.0967114
0.01807
0.144114
0.296664
0.492478
0.751519
1.08478
-1.96267
-1.73033
-1.4954
-1.26821
-1.053
-0.850998
-0.661299
-0.481743
-0.309605
-0.141111
0.027751
0.202926
0.392137
0.606047
0.853385
1.14254
1.46195
1.78307
2.05024
-1.81045
-1.62757
-1.43321
-1.23903
-1.05113
-0.872424
-0.70324
-0.542038
-0.386205
-0.23162
-0.0737682
0.0937123
0.277487
0.483065
0.707
0.937375
1.14036
1.27676
1.30661
-1.58909
-1.43843
-1.27023
-1.0958
-0.922013
-0.75296
-0.590017
-0.432353
-0.277598
-0.12173
0.0395806
0.211376
0.39643
0.592377
0.785587
0.954908
1.07169
1.12064
1.10857
-1.35623
-1.23053
-1.08673
-0.932978
-0.775652
-0.619373
-0.466273
-0.31623
-0.167405
-0.0164725
0.139666
0.30333
0.472605
0.639146
0.785975
0.895172
0.952985
0.962947
0.940813
-1.11265
-1.01549
-0.896749
-0.764456
-0.62493
-0.483197
-0.342115
-0.202399
-0.0630558
0.0780722
0.222287
0.369114
0.513239
0.644167
0.747339
0.812776
0.838476
0.834986
0.815805
-0.795929
-0.723264
-0.629023
-0.520727
-0.404349
-0.284651
-0.164528
-0.0450172
0.0743155
0.194588
0.31547
0.434561
0.545122
0.637642
0.702353
0.736299
0.743185
0.733502
0.715778
-0.493486
-0.441344
-0.369349
-0.283671
-0.189871
-0.0924441
0.00577711
0.103473
0.200558
0.297242
0.391935
0.48142
0.559173
0.618199
0.653316
0.665928
0.661248
0.647584
0.629909
-0.161116
-0.122663
-0.0686875
-0.00443474
0.0653061
0.13676
0.207796
0.277337
0.34532
0.411615
0.474109
0.529882
0.57364
0.601216
0.610769
0.605694
0.590631
0.571651
0.551552
0.170668
0.200643
0.241039
0.286485
0.333058
0.377926
0.420035
0.458905
0.494922
0.52809
0.556499
0.57821
0.589557
0.588752
0.575933
0.554794
0.528634
0.50153
0.474574
0.50198
0.561492
0.630396
0.699618
0.762619
0.814622
0.853421
0.87824
0.88981
0.889176
0.876696
0.852994
0.81816
0.773769
0.722017
0.665134
0.602689
0.530138
0.434277
0.749949
0.739963
0.719408
0.68873
0.650463
0.607941
0.564959
0.524586
0.489063
0.458969
0.433312
0.409959
0.386237
0.359764
0.328664
0.290832
0.24279
0.177049
0.0793935
1.02707
1.04766
1.05464
1.04705
1.02539
0.991352
0.947414
0.896292
0.84069
0.782185
0.722152
0.660764
0.597734
0.532432
0.463933
0.389715
0.305636
0.205179
0.0799483
1.27385
1.28809
1.28111
1.25481
1.21155
1.15443
1.08697
1.01269
0.934741
0.855025
0.775347
0.695978
0.616724
0.536681
0.454566
0.367738
0.273428
0.169363
0.0566305
1.49819
1.5004
1.47646
1.43058
1.36646
1.28838
1.20069
1.10746
1.01206
0.916398
0.822309
0.729896
0.638824
0.54798
0.45611
0.361075
0.261637
0.157905
0.0523494
1.71515
1.6991
1.6549
1.58764
1.50204
1.40355
1.29734
1.18781
1.07829
0.970393
0.865685
0.763866
0.664327
0.565754
0.467028
0.366423
0.263471
0.158673
0.0532744
1.91339
1.87427
1.80763
1.71772
1.61076
1.49348
1.37163
1.24957
1.13019
1.01443
0.903316
0.795945
0.691338
0.587951
0.484721
0.380058
0.273648
0.165653
0.0562721
2.03063
1.97367
1.88724
1.77863
1.65639
1.52816
1.39946
1.27388
1.15327
1.03753
0.926908
0.819796
0.714856
0.610346
0.505244
0.397956
0.28815
0.175684
0.0602596
2.17032
2.09146
1.97948
1.84802
1.70804
1.56766
1.4318
1.30293
1.18164
1.0666
0.957166
0.850961
0.746198
0.640823
0.533707
0.423061
0.308426
0.189423
0.0655123
2.29103
2.17762
2.03639
1.88288
1.72872
1.58126
1.44392
1.31738
1.2005
1.09056
0.98595
0.883492
0.78099
0.676081
0.567535
0.453354
0.333028
0.206076
0.0718711
2.35647
2.20642
2.03835
1.86848
1.70801
1.56218
1.43183
1.31516
1.2091
1.10942
1.01364
0.917902
0.8197
0.716456
0.606926
0.488962
0.362102
0.225845
0.0794937
2.36787
2.18358
1.99338
1.81506
1.65761
1.52254
1.40716
1.30691
1.21671
1.13101
1.04671
0.959398
0.866449
0.765164
0.654377
0.531819
0.397124
0.249749
0.0887975
2.35874
2.13686
1.92893
1.75004
1.60372
1.48629
1.39098
1.3106
1.23839
1.16776
1.09532
1.01628
0.928006
0.827731
0.714403
0.58557
0.440907
0.279681
0.10055
2.30136
2.04534
1.83261
1.66693
1.54355
1.45287
1.38404
1.32777
1.27612
1.22194
1.16193
1.09112
1.00702
0.906838
0.789648
0.652722
0.495658
0.317322
0.11558
2.0759
1.82266
1.63764
1.51353
1.43616
1.39004
1.36091
1.33835
1.31418
1.2813
1.23707
1.1767
1.09808
0.998576
0.877473
0.731753
0.560823
0.362876
0.134377
1.8531
1.62222
1.48159
1.4105
1.38453
1.38378
1.39236
1.40021
1.3998
1.38461
1.35282
1.29992
1.22409
1.12265
0.994895
0.83714
0.648102
0.424591
0.160449
1.57824
1.39852
1.3312
1.33169
1.36683
1.41571
1.46343
1.50179
1.52469
1.52666
1.50675
1.46085
1.3873
1.28319
1.14751
0.975454
0.764312
0.508477
0.197395
1.11971
1.07602
1.13166
1.23143
1.34365
1.45202
1.54577
1.61981
1.67024
1.6931
1.68824
1.65232
1.58365
1.47907
1.33688
1.15077
0.915494
0.621523
0.250778
0.676977
0.82356
1.01672
1.21493
1.39902
1.56108
1.6963
1.80279
1.87894
1.92241
1.93319
1.90897
1.84748
1.74485
1.59784
1.39765
1.1343
0.79125
0.336879
0.255047
0.618391
0.952049
1.24587
1.49949
1.71423
1.89185
2.03311
2.13869
2.20802
2.24064
2.2357
2.18979
2.09799
1.95433
1.74622
1.45545
1.05323
0.484314
-0.0616422
0.498635
0.953969
1.33125
1.64846
1.91387
2.1353
2.31519
2.45645
2.56063
2.62621
2.65453
2.64056
2.57803
2.45681
2.25853
1.95121
1.48462
0.762229
-0.213921
0.474116
1.01724
1.46195
1.83642
2.15154
2.41995
2.64498
2.832
2.98544
3.10268
3.1885
3.23655
3.23973
3.18255
3.03892
2.75516
2.24459
1.34059
-0.189556
0.534602
1.12742
1.62358
2.04956
2.41422
2.73375
3.01237
3.25865
3.48161
3.6787
3.86062
4.02249
4.15986
4.25333
4.2705
4.12873
3.68496
2.66091
-0.0340898
0.651997
1.26454
1.7998
2.2723
2.68607
3.05999
3.40063
3.72103
4.03853
4.35374
4.68806
5.04784
5.44342
5.86298
6.28679
6.61242
6.6332
5.91238
0.15574
0.782573
1.40567
1.97521
2.49018
2.95107
3.37901
3.78743
4.19395
4.63285
5.11262
5.67437
6.36778
7.26733
8.46273
10.1848
12.793
17.0651
24.6091
)
;

boundaryField
{
    up
    {
        type            calculated;
        value           nonuniform List<scalar> 
84
(
-24.6091
-5.91238
-2.66091
-1.34059
-0.76223
-0.484315
-0.33688
-0.250778
-0.197395
-0.160448
-0.134376
-0.115579
-0.100549
-0.0887974
-0.0794938
-0.0718714
-0.0655129
-0.0602604
-0.0562731
-0.0532757
-0.0523513
-0.0566345
-0.0799586
-0.0795253
-0.371454
-0.44644
-0.524631
-0.601675
-0.684648
-0.779961
-0.896067
-1.0411
-1.20322
-2.03529
-1.14465
-0.0801169
-0.116366
-0.0788385
-0.0601155
-0.0373805
-0.0253131
-0.013204
0.0131246
0.025125
0.0374018
0.0599505
0.0786805
0.116053
0.0810856
1.12648
2.04415
1.20427
1.0421
0.896851
0.780606
0.685213
0.602206
0.52518
0.446949
0.373275
0.0793935
0.0799483
0.0566305
0.0523494
0.0532744
0.0562721
0.0602596
0.0655123
0.0718711
0.0794937
0.0887975
0.10055
0.11558
0.134377
0.160449
0.197395
0.250778
0.336879
0.484314
0.762229
1.34059
2.66091
5.91238
24.6091
)
;
    }
    low
    {
        type            calculated;
        value           nonuniform List<scalar> 
84
(
-0.140546
0.0567757
0.226471
0.254364
0.0872556
-0.259809
-0.716462
-1.18633
-1.65532
-1.91591
-2.13006
-2.34318
-2.37314
-2.36496
-2.34238
-2.26157
-2.1282
-1.98542
-1.86087
-1.64949
-1.42701
-1.20278
-0.958925
-0.691203
-0.456512
-0.154542
0.142505
0.446907
0.735262
1.05038
1.30311
1.54384
1.77759
1.94733
2.06638
2.16978
2.09543
1.86619
1.56749
1.19076
0.754963
0.29172
-0.291584
-0.754834
-1.19063
-1.56738
-1.86613
-2.09542
-2.16977
-2.06671
-1.94719
-1.77771
-1.54392
-1.30319
-1.05046
-0.735335
-0.446986
-0.14257
0.154402
0.456614
0.691106
0.958982
1.20279
1.42703
1.6495
1.86089
1.98544
2.12821
2.26158
2.34238
2.36496
2.37314
2.34318
2.13007
1.91593
1.65534
1.18635
0.716474
0.259817
-0.0872512
-0.254364
-0.226474
-0.0567775
0.140546
)
;
    }
    left
    {
        type            calculated;
        value           nonuniform List<scalar> 
19
(
-0.138
-0.750598
-1.38584
-1.97453
-2.51123
-2.99337
-3.4439
-3.87856
-4.315
-4.79679
-5.33188
-5.96717
-6.7684
-7.83659
-9.2853
-11.4403
-14.8004
-20.452
-21.345
)
;
    }
    right
    {
        type            calculated;
        value           nonuniform List<scalar> 
19
(
0.138
0.7506
1.38584
1.97453
2.51123
2.99337
3.4439
3.87856
4.315
4.79679
5.33188
5.96717
6.7684
7.83658
9.2853
11.4403
14.8004
20.452
21.345
)
;
    }
    frontAndBackPlanes
    {
        type            empty;
    }
}


// ************************************************************************* //
