/*--------------------------------*- C++ -*----------------------------------*\
  =========                 |
  \\      /  F ield         | OpenFOAM: The Open Source CFD Toolbox
   \\    /   O peration     | Website:  https://openfoam.org
    \\  /    A nd           | Version:  7
     \\/     M anipulation  |
\*---------------------------------------------------------------------------*/
FoamFile
{
    version     2.0;
    format      ascii;
    class       volScalarField;
    location    "0.27";
    object      gradTy;
}
// * * * * * * * * * * * * * * * * * * * * * * * * * * * * * * * * * * * * * //

dimensions      [0 -1 0 1 0 0 0];

internalField   nonuniform List<scalar> 
1596
(
-0.0842518
-0.156755
-0.216735
-0.275143
-0.332216
-0.395345
-0.461695
-0.539784
-0.633196
-0.744571
-0.89704
-1.09091
-1.35836
-1.73771
-2.32486
-3.23814
-4.86662
-7.86825
-18.5874
-0.256807
-0.317412
-0.359781
-0.400128
-0.440454
-0.488837
-0.542875
-0.610287
-0.694375
-0.795876
-0.933929
-1.10668
-1.33555
-1.63798
-2.06305
-2.63589
-3.48619
-4.73524
-8.28023
-0.459935
-0.481266
-0.495669
-0.513752
-0.535236
-0.566966
-0.60606
-0.659162
-0.728628
-0.81388
-0.930485
-1.07448
-1.26057
-1.49675
-1.81271
-2.21256
-2.76665
-3.52617
-5.1571
-0.673284
-0.64117
-0.621929
-0.615204
-0.616528
-0.630314
-0.652903
-0.689599
-0.741815
-0.808119
-0.901081
-1.01562
-1.162
-1.34343
-1.57859
-1.86351
-2.23941
-2.72752
-3.56486
-0.870626
-0.788061
-0.735879
-0.704437
-0.685625
-0.681198
-0.686854
-0.706492
-0.740783
-0.787844
-0.857777
-0.94528
-1.05767
-1.1958
-1.37196
-1.57957
-1.84437
-2.17411
-2.6558
-1.02808
-0.913119
-0.835018
-0.781892
-0.744547
-0.722767
-0.712077
-0.715108
-0.732044
-0.760873
-0.809658
-0.873455
-0.957576
-1.06178
-1.19445
-1.34867
-1.54128
-1.77387
-2.07972
-1.13245
-1.00936
-0.916817
-0.847728
-0.795033
-0.757861
-0.73225
-0.71989
-0.720748
-0.73293
-0.762828
-0.806164
-0.866842
-0.944173
-1.04401
-1.16001
-1.30351
-1.47336
-1.68272
-1.18327
-1.07244
-0.978169
-0.900672
-0.83721
-0.787653
-0.749288
-0.723332
-0.70982
-0.707175
-0.720452
-0.746179
-0.787255
-0.842873
-0.917191
-1.00472
-1.11325
-1.2405
-1.39158
-1.19023
-1.10686
-1.0219
-0.943482
-0.87409
-0.815433
-0.76662
-0.728922
-0.702716
-0.686899
-0.685533
-0.695961
-0.720375
-0.758009
-0.811855
-0.877277
-0.959634
-1.05631
-1.16895
-1.1616
-1.10803
-1.0398
-0.967769
-0.898189
-0.834872
-0.77894
-0.732207
-0.69562
-0.668686
-0.65482
-0.652148
-0.662415
-0.685001
-0.722131
-0.769966
-0.83226
-0.906416
-0.992526
-1.12475
-1.09262
-1.0414
-0.979242
-0.913375
-0.848924
-0.788735
-0.735362
-0.69047
-0.654252
-0.629774
-0.615891
-0.614091
-0.623943
-0.647164
-0.680593
-0.726883
-0.783601
-0.85011
-1.07825
-1.06827
-1.03372
-0.982733
-0.922773
-0.859599
-0.797311
-0.739206
-0.687685
-0.643667
-0.610095
-0.586495
-0.574246
-0.573134
-0.584544
-0.605895
-0.63907
-0.681864
-0.733328
-1.02001
-1.02987
-1.01174
-0.972992
-0.920857
-0.86136
-0.799356
-0.738784
-0.682706
-0.632724
-0.591844
-0.5602
-0.53919
-0.528843
-0.530368
-0.541694
-0.564204
-0.595951
-0.635858
-0.967707
-0.98908
-0.984003
-0.95652
-0.912515
-0.857767
-0.797418
-0.735872
-0.676729
-0.622187
-0.575426
-0.53711
-0.508742
-0.490592
-0.483795
-0.486703
-0.500381
-0.523122
-0.55384
-0.918864
-0.949343
-0.954395
-0.9365
-0.900104
-0.850374
-0.792403
-0.730855
-0.669728
-0.611722
-0.560232
-0.51639
-0.481844
-0.457104
-0.443291
-0.439123
-0.445455
-0.460814
-0.48416
-0.870744
-0.909829
-0.923466
-0.91377
-0.884239
-0.839434
-0.78421
-0.723335
-0.661074
-0.600529
-0.545319
-0.496973
-0.457309
-0.427064
-0.407388
-0.397313
-0.397573
-0.406903
-0.424337
-0.826885
-0.871841
-0.892457
-0.889671
-0.866129
-0.825854
-0.773405
-0.713556
-0.650741
-0.588369
-0.530263
-0.478289
-0.434432
-0.399631
-0.375092
-0.360117
-0.355377
-0.359795
-0.372481
-0.78823
-0.837182
-0.86328
-0.866192
-0.847724
-0.811379
-0.761444
-0.702646
-0.639536
-0.575769
-0.515335
-0.460388
-0.413059
-0.37446
-0.345854
-0.32678
-0.317892
-0.318282
-0.327136
-0.749549
-0.80551
-0.837279
-0.845362
-0.831335
-0.798353
-0.750532
-0.692564
-0.629115
-0.564066
-0.501554
-0.443991
-0.393626
-0.351712
-0.319559
-0.296909
-0.28444
-0.281424
-0.287129
-0.709895
-0.773758
-0.811831
-0.825123
-0.815309
-0.785435
-0.739551
-0.682366
-0.618667
-0.552547
-0.488285
-0.428513
-0.375579
-0.330832
-0.295596
-0.269775
-0.25412
-0.248145
-0.25126
-0.675914
-0.744991
-0.788851
-0.807143
-0.80126
-0.774173
-0.729938
-0.673342
-0.609318
-0.54217
-0.476317
-0.414589
-0.35941
-0.312175
-0.27416
-0.245336
-0.226544
-0.217646
-0.218421
-0.645883
-0.719767
-0.7689
-0.791919
-0.789744
-0.765207
-0.722401
-0.66623
-0.601797
-0.533626
-0.466275
-0.402763
-0.345582
-0.296134
-0.255571
-0.223755
-0.201483
-0.189021
-0.187075
-0.618373
-0.697682
-0.752024
-0.779582
-0.780927
-0.758761
-0.717236
-0.661398
-0.596536
-0.527383
-0.458635
-0.39349
-0.334517
-0.283131
-0.240309
-0.205581
-0.179267
-0.161511
-0.15465
-0.594102
-0.678905
-0.738085
-0.769455
-0.773464
-0.752712
-0.71161
-0.655328
-0.589413
-0.51888
-0.448348
-0.381408
-0.320654
-0.267582
-0.22295
-0.185996
-0.15584
-0.130838
-0.109879
-0.574655
-0.66456
-0.729361
-0.766369
-0.775991
-0.760471
-0.724199
-0.672014
-0.609316
-0.541151
-0.471662
-0.404787
-0.343043
-0.288387
-0.241722
-0.202789
-0.170063
-0.14107
-0.111674
-0.561392
-0.654286
-0.722107
-0.762648
-0.776288
-0.765046
-0.73309
-0.684928
-0.625636
-0.560074
-0.491884
-0.425037
-0.362034
-0.305173
-0.255806
-0.214641
-0.180728
-0.152772
-0.128267
-0.561428
-0.654888
-0.723805
-0.76626
-0.782596
-0.774835
-0.746845
-0.702914
-0.647733
-0.585755
-0.520235
-0.45468
-0.391404
-0.332821
-0.280801
-0.236796
-0.200621
-0.171535
-0.14747
-0.576292
-0.667746
-0.735219
-0.777175
-0.794075
-0.78806
-0.762803
-0.722405
-0.671193
-0.613182
-0.55114
-0.487941
-0.425393
-0.365698
-0.311051
-0.263691
-0.224362
-0.192994
-0.167798
-0.604541
-0.692568
-0.756444
-0.795777
-0.811381
-0.805586
-0.781955
-0.744419
-0.696977
-0.64324
-0.585455
-0.525795
-0.46527
-0.405442
-0.348404
-0.297111
-0.25349
-0.218552
-0.190922
-0.645514
-0.727363
-0.78553
-0.820482
-0.833331
-0.826587
-0.803754
-0.768592
-0.724804
-0.675678
-0.623001
-0.568331
-0.511716
-0.453601
-0.395238
-0.339822
-0.290552
-0.250283
-0.218649
-0.698732
-0.771677
-0.822733
-0.852113
-0.861178
-0.852615
-0.829916
-0.796652
-0.756271
-0.711847
-0.66486
-0.616535
-0.566079
-0.512563
-0.455427
-0.396904
-0.340665
-0.292218
-0.253809
-0.756965
-0.822245
-0.865835
-0.888937
-0.89355
-0.882606
-0.859589
-0.827851
-0.790596
-0.750772
-0.709741
-0.668839
-0.626976
-0.582217
-0.531598
-0.474664
-0.412697
-0.352544
-0.301728
-0.823916
-0.880259
-0.915202
-0.931066
-0.930492
-0.91659
-0.892763
-0.862066
-0.827413
-0.791631
-0.756052
-0.722527
-0.690504
-0.658356
-0.621711
-0.577238
-0.519942
-0.451395
-0.374654
-0.902525
-0.947707
-0.972757
-0.980758
-0.974814
-0.958086
-0.933718
-0.904404
-0.87268
-0.841137
-0.811167
-0.785064
-0.763468
-0.746691
-0.732134
-0.717532
-0.695028
-0.659988
-0.607104
-0.990569
-1.02254
-1.03503
-1.03258
-1.01868
-0.996453
-0.968555
-0.937286
-0.904683
-0.872691
-0.842624
-0.816244
-0.794631
-0.779131
-0.770165
-0.769309
-0.774732
-0.784587
-0.794845
-1.09061
-1.1043
-1.10138
-1.08683
-1.06388
-1.03533
-1.00326
-0.969602
-0.935989
-0.903783
-0.874314
-0.848603
-0.827526
-0.811804
-0.802103
-0.799178
-0.803899
-0.8173
-0.840752
-1.20145
-1.19231
-1.17292
-1.14648
-1.11515
-1.08099
-1.04548
-1.01013
-0.976197
-0.94467
-0.916663
-0.892748
-0.873429
-0.858829
-0.84893
-0.843005
-0.840515
-0.840254
-0.841237
-1.30438
-1.27309
-1.23793
-1.20005
-1.16055
-1.12067
-1.08135
-1.04364
-1.0084
-0.976314
-0.948121
-0.92415
-0.904585
-0.889316
-0.878118
-0.870316
-0.865395
-0.862546
-0.861097
-1.38939
-1.34157
-1.2938
-1.24651
-1.20018
-1.15547
-1.1129
-1.07311
-1.03666
-1.00397
-0.975513
-0.951484
-0.931892
-0.91655
-0.90518
-0.897187
-0.89205
-0.889073
-0.887604
-1.45787
-1.39672
-1.33884
-1.28401
-1.23223
-1.18365
-1.13847
-1.09698
-1.05951
-1.02629
-0.997611
-0.973576
-0.954089
-0.93892
-0.927753
-0.920029
-0.9152
-0.912612
-0.911614
-1.50778
-1.43653
-1.37097
-1.31057
-1.25483
-1.2035
-1.15648
-1.1138
-1.07563
-1.04207
-1.01328
-0.989317
-0.970013
-0.95511
-0.944253
-0.936887
-0.932411
-0.930163
-0.929461
-1.53956
-1.45906
-1.38812
-1.32434
-1.2664
-1.21362
-1.16566
-1.12239
-1.08389
-1.05018
-1.02137
-0.997491
-0.978347
-0.963672
-0.953106
-0.946117
-0.942093
-0.940386
-0.940302
-1.53956
-1.45907
-1.38813
-1.32436
-1.26642
-1.21364
-1.16568
-1.12241
-1.08391
-1.0502
-1.02139
-0.997513
-0.97837
-0.963696
-0.953131
-0.946143
-0.94212
-0.940414
-0.94033
-1.5078
-1.43656
-1.37101
-1.31061
-1.25488
-1.20356
-1.15654
-1.11386
-1.07569
-1.04213
-1.01334
-0.989381
-0.97008
-0.95518
-0.944327
-0.936968
-0.932497
-0.930258
-0.929565
-1.45789
-1.39677
-1.3389
-1.28409
-1.23231
-1.18374
-1.13856
-1.09707
-1.0596
-1.02638
-0.997711
-0.97368
-0.954197
-0.939033
-0.927872
-0.920156
-0.915336
-0.912757
-0.911768
-1.38942
-1.34162
-1.29388
-1.2466
-1.20028
-1.15557
-1.11302
-1.07323
-1.03678
-1.00409
-0.975642
-0.951616
-0.932028
-0.91669
-0.905324
-0.897336
-0.892205
-0.889233
-0.887771
-1.3044
-1.27316
-1.23802
-1.20016
-1.16067
-1.1208
-1.08149
-1.04378
-1.00855
-0.976464
-0.948275
-0.924308
-0.904746
-0.88948
-0.878284
-0.870485
-0.865566
-0.862718
-0.861272
-1.20148
-1.19238
-1.17302
-1.14659
-1.11528
-1.08113
-1.04563
-1.01029
-0.976359
-0.944838
-0.916836
-0.892925
-0.873607
-0.859006
-0.849101
-0.843166
-0.84066
-0.84038
-0.841343
-1.09065
-1.10438
-1.1015
-1.08698
-1.06406
-1.03554
-1.00348
-0.969853
-0.936264
-0.904083
-0.874643
-0.848962
-0.827917
-0.812225
-0.80255
-0.799626
-0.804304
-0.817584
-0.840798
-0.990592
-1.02255
-1.03505
-1.0326
-1.0187
-0.996479
-0.968578
-0.937303
-0.904689
-0.872677
-0.842583
-0.816161
-0.794491
-0.778915
-0.769868
-0.768944
-0.774388
-0.784439
-0.795175
-0.902536
-0.947749
-0.97283
-0.980869
-0.974964
-0.958278
-0.933952
-0.90468
-0.872995
-0.841491
-0.81156
-0.785501
-0.763961
-0.74727
-0.73286
-0.718492
-0.696335
-0.661741
-0.609357
-0.82392
-0.880265
-0.915223
-0.931109
-0.930562
-0.916688
-0.89289
-0.862221
-0.827595
-0.791839
-0.756288
-0.722797
-0.690824
-0.658753
-0.622215
-0.577866
-0.520667
-0.45212
-0.375196
-0.756966
-0.822246
-0.865848
-0.888971
-0.893612
-0.882698
-0.859713
-0.828007
-0.790783
-0.75099
-0.709993
-0.669132
-0.627323
-0.582629
-0.532073
-0.475181
-0.413204
-0.352981
-0.302074
-0.698732
-0.771672
-0.822736
-0.852135
-0.861226
-0.852695
-0.830028
-0.796797
-0.756449
-0.712057
-0.665105
-0.61682
-0.566407
-0.512931
-0.45582
-0.397294
-0.341018
-0.292516
-0.254057
-0.645512
-0.727355
-0.785526
-0.820496
-0.833369
-0.826655
-0.803855
-0.768726
-0.724971
-0.675877
-0.623233
-0.568595
-0.512009
-0.453914
-0.395554
-0.340119
-0.290814
-0.250507
-0.218844
-0.604537
-0.692554
-0.756434
-0.795782
-0.811409
-0.805642
-0.782043
-0.744541
-0.697131
-0.643423
-0.585667
-0.526032
-0.465526
-0.405704
-0.348658
-0.297344
-0.253695
-0.218731
-0.191084
-0.576289
-0.667732
-0.735207
-0.777174
-0.794095
-0.788108
-0.762881
-0.722513
-0.671331
-0.613348
-0.55133
-0.488149
-0.425611
-0.365916
-0.311257
-0.263878
-0.224529
-0.193145
-0.167942
-0.561424
-0.654873
-0.723791
-0.766256
-0.782611
-0.774875
-0.746913
-0.70301
-0.647857
-0.585902
-0.520401
-0.45486
-0.391588
-0.333001
-0.28097
-0.23695
-0.200761
-0.171668
-0.147607
-0.561388
-0.65427
-0.722088
-0.762634
-0.776287
-0.765063
-0.733128
-0.684987
-0.625715
-0.560171
-0.491994
-0.425153
-0.362152
-0.305284
-0.255907
-0.214732
-0.180813
-0.152865
-0.128394
-0.574668
-0.664568
-0.729371
-0.766384
-0.776015
-0.760507
-0.724249
-0.672081
-0.609398
-0.541247
-0.47177
-0.404905
-0.343165
-0.288511
-0.241844
-0.202908
-0.170175
-0.141173
-0.111759
-0.594117
-0.678919
-0.738095
-0.769458
-0.773458
-0.752697
-0.711586
-0.655295
-0.589373
-0.518835
-0.4483
-0.381359
-0.320606
-0.267535
-0.222904
-0.18595
-0.155792
-0.130785
-0.109816
-0.618383
-0.697691
-0.752032
-0.779589
-0.780932
-0.758764
-0.717237
-0.661398
-0.596535
-0.527381
-0.458633
-0.393489
-0.334517
-0.283131
-0.240311
-0.205584
-0.179272
-0.161518
-0.154657
-0.645891
-0.719773
-0.768905
-0.791921
-0.789744
-0.765205
-0.722397
-0.666225
-0.601792
-0.53362
-0.46627
-0.402759
-0.34558
-0.296133
-0.255571
-0.223757
-0.201486
-0.189026
-0.187079
-0.67592
-0.744996
-0.788855
-0.807144
-0.801259
-0.77417
-0.729934
-0.673338
-0.609314
-0.542166
-0.476313
-0.414586
-0.359409
-0.312174
-0.274161
-0.245338
-0.226547
-0.217649
-0.218425
-0.7099
-0.773762
-0.811833
-0.825124
-0.815307
-0.785432
-0.739547
-0.682362
-0.618664
-0.552544
-0.488283
-0.428511
-0.375579
-0.330833
-0.295597
-0.269776
-0.254122
-0.248147
-0.251262
-0.749552
-0.805512
-0.837281
-0.845362
-0.831333
-0.798351
-0.750529
-0.692562
-0.629113
-0.564064
-0.501553
-0.44399
-0.393625
-0.351713
-0.31956
-0.29691
-0.284441
-0.281425
-0.28713
-0.788233
-0.837184
-0.86328
-0.866191
-0.847723
-0.811377
-0.761442
-0.702644
-0.639535
-0.575768
-0.515334
-0.460388
-0.413059
-0.37446
-0.345854
-0.326781
-0.317892
-0.318283
-0.327137
-0.826887
-0.871842
-0.892456
-0.88967
-0.866127
-0.825853
-0.773404
-0.713555
-0.65074
-0.588368
-0.530263
-0.478288
-0.434432
-0.399631
-0.375092
-0.360117
-0.355377
-0.359795
-0.37248
-0.870744
-0.909829
-0.923466
-0.913769
-0.884238
-0.839433
-0.784209
-0.723334
-0.661074
-0.600529
-0.545319
-0.496973
-0.457309
-0.427064
-0.407388
-0.397313
-0.397572
-0.406902
-0.424336
-0.918863
-0.949342
-0.954394
-0.936499
-0.900103
-0.850373
-0.792403
-0.730855
-0.669728
-0.611721
-0.560232
-0.51639
-0.481844
-0.457104
-0.443291
-0.439122
-0.445454
-0.460812
-0.484159
-0.967705
-0.989079
-0.984002
-0.956519
-0.912515
-0.857767
-0.797418
-0.735872
-0.676729
-0.622187
-0.575426
-0.537109
-0.508741
-0.490591
-0.483794
-0.486702
-0.500379
-0.52312
-0.553839
-1.02001
-1.02987
-1.01174
-0.972992
-0.920857
-0.861361
-0.799357
-0.738784
-0.682707
-0.632725
-0.591844
-0.5602
-0.53919
-0.528842
-0.530367
-0.541692
-0.564202
-0.595948
-0.635856
-1.07825
-1.06827
-1.03372
-0.982733
-0.922773
-0.8596
-0.797311
-0.739206
-0.687685
-0.643667
-0.610094
-0.586495
-0.574245
-0.573133
-0.584542
-0.605893
-0.639067
-0.681861
-0.733326
-1.12474
-1.09262
-1.0414
-0.979243
-0.913376
-0.848926
-0.788736
-0.735363
-0.69047
-0.654252
-0.629774
-0.615891
-0.61409
-0.623942
-0.647162
-0.680591
-0.726881
-0.783598
-0.850109
-1.1616
-1.10803
-1.0398
-0.967772
-0.898191
-0.834873
-0.778942
-0.732207
-0.695621
-0.668686
-0.65482
-0.652148
-0.662415
-0.684999
-0.72213
-0.769964
-0.832258
-0.906414
-0.992526
-1.19023
-1.10686
-1.02191
-0.943485
-0.874092
-0.815435
-0.766621
-0.728923
-0.702716
-0.686899
-0.685533
-0.695961
-0.720374
-0.758007
-0.811853
-0.877275
-0.959632
-1.0563
-1.16895
-1.18327
-1.07244
-0.978171
-0.900674
-0.837211
-0.787654
-0.749289
-0.723333
-0.709821
-0.707175
-0.720452
-0.746179
-0.787254
-0.842871
-0.917189
-1.00472
-1.11325
-1.24049
-1.39158
-1.13245
-1.00937
-0.91682
-0.84773
-0.795034
-0.757863
-0.732251
-0.719891
-0.720748
-0.73293
-0.762827
-0.806163
-0.866841
-0.944171
-1.04401
-1.16001
-1.30351
-1.47336
-1.68272
-1.02808
-0.913122
-0.835021
-0.781894
-0.744549
-0.722769
-0.712078
-0.715109
-0.732045
-0.760873
-0.809658
-0.873454
-0.957575
-1.06178
-1.19445
-1.34867
-1.54128
-1.77387
-2.07973
-0.870631
-0.788064
-0.735881
-0.704439
-0.685627
-0.6812
-0.686855
-0.706492
-0.740783
-0.787844
-0.857776
-0.945279
-1.05767
-1.1958
-1.37196
-1.57957
-1.84437
-2.17411
-2.6558
-0.673288
-0.641172
-0.62193
-0.615206
-0.616529
-0.630316
-0.652905
-0.6896
-0.741816
-0.808119
-0.90108
-1.01562
-1.162
-1.34343
-1.57859
-1.86351
-2.23941
-2.72752
-3.56486
-0.459938
-0.481267
-0.49567
-0.513753
-0.535237
-0.566967
-0.606061
-0.659163
-0.728629
-0.81388
-0.930485
-1.07448
-1.26057
-1.49675
-1.81271
-2.21256
-2.76665
-3.52618
-5.1571
-0.256808
-0.317413
-0.359781
-0.400129
-0.440454
-0.488838
-0.542875
-0.610287
-0.694375
-0.795876
-0.933929
-1.10668
-1.33555
-1.63798
-2.06305
-2.63589
-3.48619
-4.73524
-8.28023
-0.0842522
-0.156755
-0.216735
-0.275143
-0.332216
-0.395345
-0.461695
-0.539784
-0.633196
-0.744571
-0.897039
-1.09091
-1.35836
-1.73771
-2.32485
-3.23814
-4.86662
-7.86825
-18.5874
)
;

boundaryField
{
    up
    {
        type            calculated;
        value           nonuniform List<scalar> 
84
(
-16.8437
-9.12247
-5.59978
-3.82279
-2.82086
-2.19336
-1.76521
-1.45376
-1.21684
-1.03016
-0.879858
-0.756889
-0.654626
-0.568748
-0.495954
-0.433628
-0.379754
-0.332781
-0.291451
-0.254548
-0.220873
-0.188611
-0.153385
-0.0988074
-0.0958082
-0.121087
-0.140544
-0.160425
-0.182692
-0.209082
-0.241784
-0.283531
-0.346579
-0.604095
-0.819746
-0.856081
-0.840875
-0.860222
-0.886928
-0.911297
-0.929368
-0.94059
-0.940619
-0.929477
-0.911456
-0.887098
-0.8604
-0.840977
-0.85593
-0.820111
-0.606736
-0.347082
-0.283836
-0.242017
-0.20927
-0.182852
-0.160569
-0.140684
-0.121261
-0.0959203
-0.0987406
-0.153393
-0.188616
-0.220876
-0.254549
-0.291452
-0.332781
-0.379754
-0.433627
-0.495953
-0.568747
-0.654625
-0.756888
-0.879858
-1.03016
-1.21685
-1.45376
-1.76521
-2.19336
-2.82086
-3.82279
-5.59978
-9.12247
-16.8437
)
;
    }
    low
    {
        type            calculated;
        value           nonuniform List<scalar> 
84
(
-0.0903577
-0.268141
-0.484672
-0.715156
-0.92883
-1.0974
-1.20461
-1.25087
-1.24456
-1.19858
-1.15245
-1.09686
-1.02627
-0.967071
-0.914206
-0.860714
-0.812224
-0.772206
-0.730799
-0.684951
-0.646263
-0.612657
-0.580779
-0.552413
-0.52565
-0.509259
-0.509919
-0.529922
-0.5648
-0.614204
-0.6749
-0.738109
-0.810973
-0.896632
-0.990612
-1.09871
-1.22094
-1.33137
-1.42113
-1.49368
-1.54689
-1.58302
-1.58303
-1.5469
-1.49369
-1.42114
-1.33138
-1.22095
-1.09874
-0.990607
-0.896644
-0.810967
-0.738106
-0.674898
-0.614203
-0.564798
-0.529924
-0.509922
-0.509264
-0.525659
-0.552432
-0.580784
-0.612665
-0.646269
-0.684955
-0.730803
-0.772209
-0.812226
-0.860714
-0.914205
-0.967068
-1.02627
-1.09686
-1.15244
-1.19858
-1.24456
-1.25087
-1.20462
-1.0974
-0.928836
-0.715162
-0.484676
-0.268143
-0.0903584
)
;
    }
    left
    {
        type            calculated;
        value           nonuniform List<scalar> 
19
(
-0.0826264
-0.153765
-0.214852
-0.275097
-0.334433
-0.400031
-0.469232
-0.551005
-0.649094
-0.76749
-0.930456
-1.13942
-1.43094
-1.85092
-2.50695
-3.54412
-5.41539
-8.90565
-17.4707
)
;
    }
    right
    {
        type            calculated;
        value           nonuniform List<scalar> 
19
(
-0.0826269
-0.153765
-0.214852
-0.275097
-0.334433
-0.400031
-0.469232
-0.551005
-0.649094
-0.76749
-0.930455
-1.13942
-1.43094
-1.85092
-2.50695
-3.54412
-5.41539
-8.90565
-17.4707
)
;
    }
    frontAndBackPlanes
    {
        type            empty;
    }
}


// ************************************************************************* //
