/*--------------------------------*- C++ -*----------------------------------*\
  =========                 |
  \\      /  F ield         | OpenFOAM: The Open Source CFD Toolbox
   \\    /   O peration     | Website:  https://openfoam.org
    \\  /    A nd           | Version:  7
     \\/     M anipulation  |
\*---------------------------------------------------------------------------*/
FoamFile
{
    version     2.0;
    format      ascii;
    class       volScalarField;
    location    "0.19";
    object      gradTx;
}
// * * * * * * * * * * * * * * * * * * * * * * * * * * * * * * * * * * * * * //

dimensions      [0 -1 0 1 0 0 0];

internalField   nonuniform List<scalar> 
1596
(
-0.150925
-0.75686
-1.3525
-1.88416
-2.34623
-2.73595
-3.0714
-3.36443
-3.6319
-3.9057
-4.19599
-4.54131
-4.98593
-5.59214
-6.43191
-7.68175
-9.61142
-12.8023
-18.4564
0.0337983
-0.628201
-1.21462
-1.71728
-2.14651
-2.50385
-2.80585
-3.05855
-3.27481
-3.47177
-3.65285
-3.83969
-4.0417
-4.27185
-4.52581
-4.79293
-4.99882
-4.98945
-4.43609
0.18565
-0.509087
-1.07539
-1.5426
-1.93324
-2.25409
-2.51957
-2.73374
-2.90533
-3.04391
-3.1496
-3.23438
-3.29766
-3.34004
-3.35079
-3.30969
-3.15797
-2.79105
-2.00118
0.211315
-0.442102
-0.957288
-1.37505
-1.71998
-2.00114
-2.22983
-2.40928
-2.54508
-2.64227
-2.7002
-2.725
-2.71382
-2.66402
-2.56692
-2.40641
-2.14551
-1.72261
-1.01506
0.0680436
-0.455252
-0.881185
-1.23214
-1.52334
-1.7616
-1.95382
-2.10225
-2.20996
-2.27894
-2.30882
-2.30191
-2.25545
-2.16627
-2.0288
-1.83183
-1.55425
-1.1618
-0.585011
-0.230743
-0.559543
-0.863444
-1.13076
-1.3599
-1.55139
-1.70657
-1.82604
-1.91054
-1.95976
-1.97367
-1.95195
-1.89227
-1.79149
-1.6463
-1.44878
-1.18751
-0.843857
-0.379351
-0.627301
-0.746481
-0.911446
-1.08292
-1.24264
-1.38294
-1.49924
-1.58968
-1.65279
-1.68632
-1.69022
-1.66231
-1.60047
-1.50155
-1.36341
-1.18
-0.945304
-0.649124
-0.270349
-1.04155
-0.980345
-1.01128
-1.08469
-1.17199
-1.25839
-1.33422
-1.39483
-1.43661
-1.45575
-1.45174
-1.42111
-1.36168
-1.27015
-1.14484
-0.98065
-0.774294
-0.519982
-0.206115
-1.46956
-1.28215
-1.19491
-1.17016
-1.17954
-1.20503
-1.23384
-1.2588
-1.27453
-1.27582
-1.26134
-1.22668
-1.16928
-1.08551
-0.973566
-0.828686
-0.64866
-0.429718
-0.165099
-1.72652
-1.4941
-1.33777
-1.24305
-1.19088
-1.16521
-1.15309
-1.1462
-1.13811
-1.12289
-1.09842
-1.05986
-1.0043
-0.927947
-0.828779
-0.702297
-0.546676
-0.359153
-0.13548
-1.93712
-1.68666
-1.48928
-1.34299
-1.23896
-1.16614
-1.11386
-1.07411
-1.04034
-1.00639
-0.969526
-0.924712
-0.868719
-0.797579
-0.708918
-0.598323
-0.46389
-0.303175
-0.113133
-2.15351
-1.90251
-1.67981
-1.49316
-1.34267
-1.22345
-1.12879
-1.05236
-0.988448
-0.93119
-0.8775
-0.822317
-0.762063
-0.692553
-0.610985
-0.512874
-0.395967
-0.257731
-0.0954901
-2.21676
-1.99952
-1.78259
-1.5834
-1.4095
-1.26186
-1.13802
-1.03429
-0.946532
-0.869901
-0.801526
-0.736723
-0.671888
-0.602882
-0.526686
-0.438902
-0.337018
-0.218409
-0.0805044
-2.23771
-2.05689
-1.85764
-1.65904
-1.4733
-1.30633
-1.15978
-1.03295
-0.92378
-0.828843
-0.745884
-0.670812
-0.600178
-0.529982
-0.457075
-0.37715
-0.287459
-0.185251
-0.0679378
-2.24166
-2.09362
-1.91581
-1.72516
-1.53543
-1.35597
-1.19192
-1.0456
-0.917238
-0.805086
-0.707815
-0.622075
-0.544713
-0.471934
-0.400525
-0.32627
-0.246216
-0.157477
-0.0573855
-2.19577
-2.08304
-1.93126
-1.75626
-1.57175
-1.38894
-1.21546
-1.05627
-0.913812
-0.788116
-0.679012
-0.584044
-0.500523
-0.424969
-0.354226
-0.284216
-0.211872
-0.134219
-0.0485158
-2.09686
-2.01805
-1.8951
-1.74166
-1.57042
-1.39314
-1.21887
-1.05449
-0.904373
-0.770226
-0.653122
-0.551605
-0.463584
-0.386008
-0.315894
-0.249372
-0.183356
-0.114863
-0.041125
-1.97787
-1.92108
-1.82374
-1.69305
-1.53901
-1.37269
-1.20365
-1.03998
-0.887512
-0.749407
-0.627901
-0.522528
-0.431847
-0.353286
-0.284101
-0.220656
-0.159921
-0.0989632
-0.035052
-1.87829
-1.83908
-1.7612
-1.64872
-1.50919
-1.35263
-1.18873
-1.02638
-0.872589
-0.731699
-0.606939
-0.498696
-0.40608
-0.326915
-0.258632
-0.197754
-0.141269
-0.0863002
-0.0301936
-1.6965
-1.68106
-1.62646
-1.53731
-1.41939
-1.2812
-1.13175
-0.979947
-0.833376
-0.697207
-0.575466
-0.469355
-0.378589
-0.301487
-0.235777
-0.178214
-0.125872
-0.076013
-0.0262441
-1.49171
-1.49505
-1.46158
-1.39478
-1.29912
-1.18156
-1.0501
-0.913202
-0.778507
-0.651613
-0.537024
-0.436569
-0.350482
-0.277567
-0.215871
-0.162374
-0.114158
-0.068495
-0.0233209
-1.27522
-1.29046
-1.2744
-1.228
-1.15411
-1.05816
-0.946973
-0.828196
-0.709157
-0.595478
-0.491799
-0.400335
-0.32169
-0.255118
-0.199036
-0.150689
-0.107061
-0.0649975
-0.0221135
-1.03221
-1.05303
-1.05103
-1.02415
-0.973129
-0.901477
-0.814524
-0.718675
-0.620516
-0.525291
-0.437386
-0.359164
-0.29143
-0.233885
-0.185462
-0.143929
-0.106335
-0.0687495
-0.0263901
-0.755378
-0.744702
-0.717354
-0.673846
-0.617223
-0.551826
-0.482613
-0.414084
-0.350097
-0.293021
-0.243964
-0.202862
-0.168718
-0.140313
-0.116418
-0.0955703
-0.0757786
-0.0537386
-0.02393
-0.504818
-0.559081
-0.613832
-0.657858
-0.683769
-0.687688
-0.669786
-0.632994
-0.582554
-0.524136
-0.462724
-0.402534
-0.345874
-0.294626
-0.249915
-0.212228
-0.180549
-0.152422
-0.122423
-0.169989
-0.19345
-0.223121
-0.252856
-0.278059
-0.295562
-0.304301
-0.304443
-0.297725
-0.286239
-0.271381
-0.254708
-0.236201
-0.216355
-0.195905
-0.176665
-0.159664
-0.146046
-0.135467
0.165539
0.137061
0.0955487
0.0466307
-0.00421813
-0.052397
-0.0949137
-0.130175
-0.158245
-0.180005
-0.195914
-0.206682
-0.211526
-0.210148
-0.202865
-0.19204
-0.179877
-0.168998
-0.160187
0.499419
0.460518
0.403077
0.333303
0.257361
0.18079
0.107805
0.0410554
-0.0184872
-0.0709775
-0.116382
-0.154762
-0.184547
-0.204165
-0.212633
-0.211952
-0.205119
-0.1964
-0.187999
0.799479
0.743425
0.666559
0.576056
0.478265
0.378919
0.282487
0.191771
0.107963
0.0309862
-0.0391619
-0.102393
-0.156627
-0.198844
-0.225815
-0.2378
-0.23747
-0.230713
-0.221821
1.1079
1.03015
0.931061
0.818047
0.697681
0.575893
0.457223
0.344395
0.238537
0.13933
0.0463561
-0.0407992
-0.120319
-0.18832
-0.238952
-0.269196
-0.279235
-0.275596
-0.265454
1.33719
1.23487
1.11452
0.983267
0.847484
0.71244
0.58184
0.457553
0.340072
0.228443
0.121538
0.0179019
-0.0818533
-0.17432
-0.25179
-0.307053
-0.334435
-0.337552
-0.32525
1.54858
1.42552
1.28461
1.13574
0.985591
0.838802
0.698231
0.564938
0.438862
0.318516
0.202162
0.0871112
-0.0280825
-0.142504
-0.249306
-0.33901
-0.397936
-0.420594
-0.412066
1.74067
1.59045
1.42764
1.26225
1.10015
0.944755
0.797814
0.659492
0.529238
0.405236
0.285524
0.166697
0.045371
-0.081295
-0.210886
-0.337673
-0.443989
-0.511678
-0.52284
1.86
1.66887
1.47331
1.2821
1.09961
0.927801
0.767301
0.617547
0.47761
0.345584
0.219422
0.0956921
-0.0298809
-0.163103
-0.30784
-0.46807
-0.635876
-0.795883
-0.919062
1.92872
1.72123
1.52431
1.34319
1.17821
1.02817
0.891256
0.765498
0.649203
0.540679
0.438678
0.341628
0.247648
0.153797
0.0560713
-0.053771
-0.183391
-0.34144
-0.530622
1.97573
1.76272
1.57325
1.40495
1.25406
1.11743
0.992286
0.876501
0.768588
0.66729
0.57199
0.482294
0.397789
0.318391
0.244389
0.175215
0.10991
0.0452466
-0.0249554
1.86034
1.61777
1.41123
1.23265
1.07601
0.937103
0.812544
0.699767
0.596886
0.502217
0.414755
0.33378
0.258588
0.188966
0.125342
0.0682208
0.0187114
-0.0217308
-0.052457
1.62556
1.40672
1.22305
1.06613
0.929958
0.810253
0.703673
0.607695
0.52052
0.440608
0.367056
0.299239
0.236529
0.178637
0.125634
0.07746
0.0342242
-0.00375744
-0.0365966
1.34515
1.16284
1.00916
0.878131
0.764946
0.665946
0.578234
0.499589
0.428437
0.363432
0.303766
0.248858
0.198096
0.151125
0.107868
0.068143
0.0319396
-0.000489359
-0.0292054
1.00959
0.869715
0.752881
0.654113
0.56942
0.49576
0.430788
0.372722
0.320315
0.272509
0.228666
0.188318
0.150969
0.11632
0.084295
0.0547509
0.0277025
0.00339074
-0.0181853
0.634384
0.541197
0.465813
0.403322
0.350375
0.304667
0.264545
0.2288
0.196604
0.167267
0.140368
0.115597
0.092624
0.0712446
0.0513994
0.0329928
0.0160392
0.000715981
-0.0129419
0.243135
0.205303
0.175828
0.15174
0.131416
0.113882
0.0984985
0.0848126
0.0725191
0.0613602
0.0511708
0.0418213
0.033173
0.0251287
0.0176406
0.0106493
0.00413544
-0.00185525
-0.00731526
-0.243018
-0.205041
-0.175467
-0.151312
-0.130946
-0.11339
-0.0980001
-0.0843211
-0.0720453
-0.0609138
-0.0507598
-0.0414525
-0.0328523
-0.0248613
-0.0174305
-0.0104997
-0.00404826
0.00187974
0.00727815
-0.634274
-0.540964
-0.465494
-0.402946
-0.349965
-0.30424
-0.264116
-0.22838
-0.196204
-0.166896
-0.140033
-0.115304
-0.092379
-0.0710523
-0.0512635
-0.0329161
-0.0160234
-0.000760612
0.0128387
-1.00948
-0.869489
-0.752568
-0.653739
-0.569006
-0.495323
-0.430343
-0.372281
-0.319888
-0.272106
-0.228293
-0.187982
-0.150674
-0.116069
-0.0840904
-0.0545932
-0.0275908
-0.0033227
0.018213
-1.34507
-1.16267
-1.00894
-0.877868
-0.764657
-0.665642
-0.577927
-0.49929
-0.428155
-0.363173
-0.303537
-0.248664
-0.197941
-0.151011
-0.107796
-0.0681125
-0.031949
0.000442854
0.0291253
-1.62551
-1.40661
-1.2229
-1.06594
-0.929743
-0.810025
-0.70344
-0.607467
-0.520305
-0.440413
-0.366888
-0.299103
-0.236428
-0.178572
-0.125606
-0.0774655
-0.0342589
0.00370113
0.0365285
-1.86033
-1.61773
-1.41116
-1.23254
-1.07588
-0.93697
-0.812411
-0.699643
-0.59678
-0.502135
-0.414705
-0.333768
-0.258618
-0.189042
-0.125463
-0.0683822
-0.0188956
0.0215529
0.0523192
-1.97572
-1.76254
-1.57286
-1.40433
-1.25323
-1.1164
-0.991087
-0.875164
-0.767146
-0.665769
-0.570412
-0.480677
-0.396143
-0.316722
-0.242708
-0.17356
-0.108375
-0.0440339
0.0255123
-1.92906
-1.72213
-1.52579
-1.34523
-1.18077
-1.03119
-0.894668
-0.769241
-0.653219
-0.544924
-0.443122
-0.346269
-0.252516
-0.15897
-0.0616765
0.0475457
0.176373
0.333579
0.52216
-1.85985
-1.66847
-1.47263
-1.28115
-1.09841
-0.926391
-0.765715
-0.615828
-0.475797
-0.343715
-0.21753
-0.0938089
0.0317269
0.164894
0.309593
0.469883
0.637993
0.798722
0.92317
-1.74078
-1.59072
-1.42805
-1.26277
-1.10075
-0.945422
-0.798523
-0.660227
-0.529987
-0.405992
-0.286285
-0.167463
-0.0461366
0.0805572
0.210244
0.337254
0.44394
0.512087
0.52358
-1.54865
-1.42569
-1.28487
-1.13607
-0.985977
-0.839228
-0.698685
-0.565411
-0.439344
-0.319001
-0.202644
-0.0875783
0.0276528
0.142158
0.249115
0.339054
0.398251
0.421131
0.412712
-1.33727
-1.23504
-1.11479
-0.983612
-0.847887
-0.712884
-0.582309
-0.458032
-0.340548
-0.228904
-0.121971
-0.0182893
0.0815405
0.174124
0.251754
0.307204
0.334753
0.337972
0.325694
-1.10797
-1.03033
-0.931336
-0.818405
-0.698103
-0.576357
-0.457708
-0.344881
-0.239006
-0.139766
-0.0467442
0.0404794
0.120092
0.188214
0.238984
0.269361
0.279498
0.275911
0.265785
-0.799542
-0.743591
-0.666823
-0.576402
-0.478673
-0.379365
-0.282946
-0.192222
-0.108387
-0.0313647
0.0388442
0.102153
0.156481
0.198805
0.225884
0.237959
0.237688
0.230962
0.222083
-0.499489
-0.460695
-0.403356
-0.333667
-0.257786
-0.181247
-0.108268
-0.0414978
0.0180864
0.0706355
0.116112
0.154575
0.184451
0.204162
0.212713
0.212096
0.205305
0.196609
0.188221
-0.1656
-0.13723
-0.0958206
-0.0469865
0.00380593
0.0519594
0.0944815
0.129775
0.157897
0.179724
0.195709
0.206558
0.211482
0.210179
0.202958
0.192178
0.180045
0.169186
0.160393
0.169844
0.193013
0.222386
0.251857
0.27686
0.294248
0.302958
0.303149
0.296541
0.285207
0.270521
0.254026
0.235687
0.21599
0.195661
0.176518
0.159596
0.146058
0.135593
0.504917
0.559458
0.614546
0.658915
0.685134
0.689287
0.671531
0.634792
0.584319
0.525802
0.464247
0.403893
0.347064
0.295657
0.250807
0.213008
0.181242
0.15305
0.122993
0.755267
0.744313
0.716687
0.672938
0.616141
0.550646
0.481414
0.41293
0.349036
0.292086
0.243166
0.202202
0.168188
0.139898
0.116102
0.0953359
0.0756129
0.0536335
0.0238873
1.03227
1.05315
1.05121
1.02437
0.973381
0.901733
0.814764
0.718884
0.620686
0.52542
0.437477
0.359222
0.291463
0.233901
0.185466
0.143927
0.106329
0.0687442
0.0263884
1.27523
1.29048
1.27441
1.22801
1.15413
1.05817
0.946981
0.828198
0.709152
0.595468
0.491785
0.400318
0.321673
0.255103
0.199023
0.150678
0.107053
0.0649935
0.0221131
1.49172
1.49506
1.46159
1.39479
1.29913
1.18157
1.0501
0.9132
0.7785
0.651602
0.537011
0.436555
0.350469
0.277556
0.215862
0.162367
0.114154
0.068493
0.0233206
1.6965
1.68106
1.62647
1.53731
1.4194
1.28121
1.13175
0.979943
0.833368
0.697197
0.575455
0.469344
0.378579
0.301479
0.235771
0.17821
0.12587
0.0760118
0.0262438
1.8783
1.83909
1.76121
1.64873
1.5092
1.35264
1.18873
1.02638
0.872583
0.731691
0.60693
0.498687
0.406073
0.326909
0.258628
0.197751
0.141267
0.0862992
0.0301933
1.97788
1.92109
1.82375
1.69305
1.53901
1.37269
1.20365
1.03997
0.887506
0.7494
0.627894
0.522521
0.431841
0.353282
0.284098
0.220654
0.159919
0.0989619
0.0350516
2.09686
2.01806
1.8951
1.74166
1.57043
1.39314
1.21887
1.05448
0.904367
0.770219
0.653116
0.5516
0.463579
0.386004
0.315891
0.249369
0.183353
0.114862
0.0411244
2.19578
2.08305
1.93127
1.75626
1.57175
1.38894
1.21546
1.05626
0.913808
0.788111
0.679007
0.584039
0.500518
0.424965
0.354222
0.284212
0.211868
0.134217
0.0485151
2.24166
2.09362
1.91581
1.72516
1.53543
1.35597
1.19191
1.04559
0.917233
0.80508
0.70781
0.622069
0.544708
0.471928
0.400519
0.326264
0.246212
0.157475
0.0573849
2.23772
2.05689
1.85764
1.65904
1.4733
1.30633
1.15977
1.03294
0.923775
0.828837
0.745878
0.670806
0.600171
0.529975
0.457068
0.377144
0.287454
0.185248
0.0679375
2.21676
1.99953
1.7826
1.5834
1.4095
1.26186
1.13802
1.03429
0.946528
0.869897
0.801521
0.736717
0.671881
0.602874
0.526679
0.438895
0.337013
0.218407
0.0805045
2.1535
1.90251
1.67981
1.49316
1.34266
1.22345
1.12878
1.05236
0.988439
0.931182
0.877491
0.822307
0.762053
0.692544
0.610976
0.512867
0.395962
0.25773
0.0954907
1.93713
1.68667
1.48928
1.343
1.23896
1.16613
1.11386
1.07411
1.04034
1.00639
0.969518
0.924704
0.86871
0.797571
0.708912
0.598319
0.463888
0.303176
0.113134
1.72654
1.49411
1.33777
1.24305
1.19088
1.1652
1.15309
1.14619
1.13811
1.12288
1.09842
1.05985
1.00429
0.927941
0.828775
0.702296
0.546678
0.359156
0.135481
1.46957
1.28216
1.19492
1.17017
1.17954
1.20503
1.23383
1.2588
1.27452
1.27581
1.26133
1.22667
1.16927
1.08551
0.973567
0.828689
0.648665
0.429723
0.165101
1.04156
0.980349
1.01128
1.08469
1.17199
1.25839
1.33422
1.39482
1.43661
1.45574
1.45174
1.4211
1.36168
1.27016
1.14485
0.980656
0.7743
0.519987
0.206116
0.62731
0.746486
0.91145
1.08293
1.24265
1.38294
1.49924
1.58968
1.65279
1.68632
1.69022
1.66231
1.60048
1.50156
1.36342
1.18001
0.945312
0.649128
0.270349
0.230749
0.559548
0.86345
1.13076
1.3599
1.55139
1.70657
1.82604
1.91054
1.95976
1.97367
1.95195
1.89227
1.7915
1.64631
1.44879
1.18752
0.84386
0.37935
-0.06804
0.455257
0.88119
1.23215
1.52334
1.7616
1.95382
2.10225
2.20996
2.27895
2.30882
2.30192
2.25545
2.16628
2.02881
1.83184
1.55426
1.1618
0.585009
-0.211315
0.442106
0.957292
1.37505
1.71998
2.00114
2.22983
2.40928
2.54508
2.64227
2.7002
2.72501
2.71383
2.66403
2.56692
2.40641
2.14551
1.7226
1.01506
-0.185652
0.509088
1.07539
1.5426
1.93324
2.25409
2.51957
2.73374
2.90533
3.04391
3.1496
3.23438
3.29767
3.34004
3.35079
3.30968
3.15797
2.79104
2.00118
-0.0337984
0.628201
1.21462
1.71727
2.14651
2.50385
2.80586
3.05856
3.27481
3.47178
3.65286
3.8397
4.0417
4.27185
4.5258
4.79292
4.99881
4.98944
4.43609
0.150926
0.756861
1.3525
1.88416
2.34623
2.73595
3.0714
3.36443
3.63191
3.9057
4.19599
4.5413
4.98592
5.59213
6.4319
7.68174
9.61142
12.8023
18.4564
)
;

boundaryField
{
    up
    {
        type            calculated;
        value           nonuniform List<scalar> 
84
(
-18.4564
-4.43609
-2.00118
-1.01506
-0.585011
-0.379351
-0.270349
-0.206115
-0.165099
-0.13548
-0.113133
-0.0954901
-0.0805044
-0.0679378
-0.0573855
-0.0485158
-0.041125
-0.035052
-0.0301936
-0.0262441
-0.0233209
-0.0221135
-0.0263901
-0.02393
-0.104088
-0.12568
-0.149922
-0.176257
-0.207809
-0.248115
-0.302285
-0.376221
-0.466307
-0.902581
-0.546367
-0.0258735
-0.0522702
-0.0364607
-0.0291285
-0.0181567
-0.0129316
-0.0073151
0.00727801
0.0128286
0.0181847
0.029049
0.0363934
0.0521329
0.0264165
0.537716
0.907414
0.466976
0.376778
0.30269
0.248425
0.208059
0.176472
0.150125
0.125857
0.1046
0.0238873
0.0263884
0.0221131
0.0233206
0.0262438
0.0301933
0.0350516
0.0411244
0.0485151
0.0573849
0.0679375
0.0805045
0.0954907
0.113134
0.135481
0.165101
0.206116
0.270349
0.37935
0.585009
1.01506
2.00118
4.43609
18.4564
)
;
    }
    low
    {
        type            calculated;
        value           nonuniform List<scalar> 
84
(
-0.135928
0.0565745
0.22236
0.251135
0.0930262
-0.235355
-0.665186
-1.10507
-1.54296
-1.78687
-1.99024
-2.19655
-2.23572
-2.24201
-2.23682
-2.17728
-2.06655
-1.94444
-1.83728
-1.64134
-1.42944
-1.21123
-0.969342
-0.700046
-0.461431
-0.154304
0.147674
0.455109
0.74289
1.05175
1.29177
1.5122
1.71718
1.85301
1.93472
1.99696
1.8974
1.66491
1.38008
1.0373
0.652693
0.25078
-0.250663
-0.65258
-1.03718
-1.37999
-1.66484
-1.89737
-1.99693
-1.93501
-1.85287
-1.71727
-1.51227
-1.29184
-1.05182
-0.742956
-0.455183
-0.147736
0.154162
0.461528
0.699942
0.969393
1.21124
1.42945
1.64134
1.83728
1.94445
2.06655
2.17729
2.23682
2.24202
2.23573
2.19654
1.99025
1.78689
1.54297
1.10508
0.665196
0.235362
-0.0930227
-0.251136
-0.222364
-0.0565769
0.135928
)
;
    }
    left
    {
        type            calculated;
        value           nonuniform List<scalar> 
19
(
-0.134164
-0.72723
-1.33539
-1.88579
-2.36801
-2.77605
-3.12929
-3.4415
-3.72944
-4.03274
-4.36137
-4.75835
-5.28097
-6.0119
-7.04113
-8.61632
-11.1117
-15.3394
-16.0072
)
;
    }
    right
    {
        type            calculated;
        value           nonuniform List<scalar> 
19
(
0.134165
0.727233
1.33539
1.88579
2.36801
2.77605
3.12929
3.4415
3.72944
4.03274
4.36137
4.75834
5.28096
6.01189
7.04112
8.61631
11.1117
15.3394
16.0073
)
;
    }
    frontAndBackPlanes
    {
        type            empty;
    }
}


// ************************************************************************* //
