/*--------------------------------*- C++ -*----------------------------------*\
  =========                 |
  \\      /  F ield         | OpenFOAM: The Open Source CFD Toolbox
   \\    /   O peration     | Website:  https://openfoam.org
    \\  /    A nd           | Version:  7
     \\/     M anipulation  |
\*---------------------------------------------------------------------------*/
FoamFile
{
    version     2.0;
    format      ascii;
    class       volScalarField;
    location    "0.287";
    object      gradTz;
}
// * * * * * * * * * * * * * * * * * * * * * * * * * * * * * * * * * * * * * //

dimensions      [0 -1 0 1 0 0 0];

internalField   nonuniform List<scalar> 
1596
(
-1.12959e-15
-5.50097e-16
5.57896e-16
1.11736e-17
-1.0655e-15
0
-4.99154e-16
-4.92173e-16
-3.12734e-17
-2.58532e-16
-2.45893e-18
-2.56962e-16
1.12922e-15
-2.53895e-16
1.18689e-15
1.02379e-15
6.08844e-16
7.68621e-16
0
1.12968e-15
0
1.59814e-15
-1.04127e-17
-4.92067e-16
4.88054e-16
1.00256e-15
2.968e-17
4.75631e-16
-2.28929e-16
4.56597e-16
-7.15211e-18
-6.32999e-16
-3.95072e-16
-9.59715e-16
-9.35891e-16
-8.5118e-16
4.84312e-16
0
-5.5527e-16
0
-1.04542e-15
1.65454e-17
9.63633e-16
-2.6815e-16
1.93752e-17
-6.73342e-18
-6.94654e-18
-7.46822e-18
1.7496e-16
0
3.28397e-16
9.32365e-16
-9.18197e-17
7.37012e-17
1.73444e-16
2.70237e-16
0
8.70594e-16
-2.63642e-16
2.62679e-16
0
-2.53274e-16
-2.61293e-16
4.48866e-16
-3.94803e-16
0
0
-1.38331e-16
9.13055e-17
0
-2.75112e-16
-3.516e-16
2.42692e-16
-2.48117e-16
-1.27743e-17
0
1.51899e-16
4.07488e-16
-3.70336e-16
0
-1.10129e-16
-3.34519e-16
0
5.01887e-16
-5.01279e-17
-4.5375e-17
-4.06939e-17
2.62222e-16
3.21044e-16
3.29199e-17
9.77428e-18
-2.62431e-16
1.32403e-17
1.21431e-16
-5.20935e-17
-3.94458e-17
-5.59552e-16
5.35264e-16
-4.709e-16
-9.19486e-19
-4.20764e-16
1.18862e-17
-1.19257e-17
-3.3499e-16
0
-3.35243e-17
-3.09826e-16
-2.90122e-16
2.37069e-16
2.4314e-16
-3.32562e-18
-1.45733e-16
-1.23166e-16
9.40579e-17
3.29655e-16
-5.7083e-16
6.45151e-16
3.62789e-16
0
3.22626e-16
1.91178e-16
-9.22539e-17
4.25249e-16
-8.01691e-17
-3.37518e-16
3.14742e-18
-2.01147e-16
-2.38219e-16
-1.87251e-16
1.58641e-16
1.47015e-16
-1.95915e-18
-3.9308e-17
3.03709e-17
9.0565e-16
-1.07505e-15
0
0
-4.03064e-16
0
0
0
2.82708e-16
0
0
1.84211e-16
7.09362e-18
4.83575e-17
-1.38533e-16
0
7.37405e-17
2.85985e-17
0
-5.90412e-16
1.13828e-15
0
0
4.151e-16
0
-1.61083e-16
1.6092e-16
-2.87756e-16
1.20522e-16
-1.21404e-16
0
1.75419e-16
1.68193e-16
0
-9.71556e-17
-7.53574e-17
-2.49545e-17
1.40689e-15
-6.60881e-16
0
-4.80366e-16
4.7499e-16
0
3.59959e-16
0
0
0
1.12377e-16
-1.12916e-16
0
-1.35324e-16
-3.89552e-17
0
9.42381e-18
5.57099e-17
0
-3.57088e-16
0
0
4.81666e-16
-9.0277e-16
4.31106e-17
1.67726e-17
-1.50209e-16
1.58527e-17
5.1236e-18
-1.18541e-16
-1.92503e-16
0
1.45657e-16
-2.88393e-17
2.92721e-17
7.53697e-17
-4.36263e-17
-2.02085e-17
3.01349e-16
-2.96668e-17
2.89169e-16
9.99171e-16
-4.98228e-17
-4.23585e-16
0
0
0
2.44306e-16
9.90308e-17
3.58147e-16
-8.65289e-17
-1.43052e-16
-8.62486e-17
-4.6512e-17
2.06757e-17
-4.48613e-17
1.92519e-17
-3.30671e-16
3.23859e-16
-6.01127e-16
-9.87042e-16
9.18353e-16
3.69995e-16
-6.87624e-16
6.01051e-16
-5.24653e-16
1.36612e-16
1.06239e-16
-9.63562e-17
6.42336e-17
-5.72607e-17
1.66894e-16
0
-1.25427e-17
9.21409e-17
-1.36727e-17
-2.1283e-15
9.81335e-16
8.26864e-19
-2.21981e-16
2.61841e-17
3.59658e-16
-6.85296e-16
-2.8657e-16
2.47349e-16
-2.12331e-16
-1.82802e-16
0
-2.10133e-16
-6.27004e-17
-1.12975e-16
-6.72253e-17
5.29766e-18
-5.85857e-17
1.13178e-18
3.47852e-16
-3.11911e-16
6.92261e-19
-2.43555e-16
-6.15297e-16
5.81959e-16
2.1108e-18
2.79262e-16
-2.40826e-16
4.07905e-16
9.67542e-17
8.0528e-17
2.51235e-16
0
2.10166e-16
9.65907e-17
0
3.22311e-17
9.62067e-19
0
3.0259e-16
2.41703e-16
-5.00523e-16
5.96432e-16
-9.01373e-16
6.42998e-16
2.47723e-16
-3.3938e-17
-4.03348e-16
7.54776e-17
-7.51052e-17
-2.31134e-16
9.28675e-17
-4.59017e-17
-9.73265e-17
4.25172e-17
-2.63304e-17
1.01242e-17
-3.24059e-16
1.11098e-15
-8.26665e-16
4.56012e-16
0
0
-1.2866e-16
2.72731e-16
-1.98937e-16
3.75366e-16
0
0
1.56773e-16
-1.37645e-16
-9.89132e-17
3.11379e-17
-3.3061e-17
1.73243e-17
0
2.47324e-17
3.03033e-16
-2.47834e-16
-2.18683e-16
-3.58395e-16
-1.204e-16
1.6225e-16
0
-1.87499e-16
-1.54795e-16
1.39917e-16
-1.15576e-16
9.47456e-17
0
3.76165e-17
7.48743e-17
0
0
0
-2.36368e-17
4.91491e-16
1.91307e-16
-6.58847e-16
1.84269e-16
1.59471e-16
0
0
1.77548e-16
-9.23463e-17
-1.3533e-16
1.11783e-16
-9.16261e-17
0
-2.5075e-17
2.18013e-17
0
-1.82463e-17
-6.35402e-18
-2.61654e-16
7.67836e-16
-9.36833e-16
-3.80352e-16
1.98646e-16
-1.51429e-16
1.28661e-16
0
-9.01055e-17
7.60693e-17
0
0
3.65945e-17
-3.66367e-17
1.12021e-17
-1.45504e-17
2.63229e-17
3.01552e-18
4.71592e-18
1.3375e-16
-1.21334e-16
6.27332e-16
-4.05476e-16
-1.66955e-16
2.02808e-17
2.63714e-16
1.02163e-16
8.62174e-17
0
5.18247e-17
-4.81111e-17
3.87777e-17
-3.31922e-17
4.37029e-17
-7.56159e-17
-2.04909e-17
1.79146e-17
4.80885e-18
3.5932e-16
-3.63592e-16
0
3.42881e-16
-1.80054e-16
-1.37013e-16
9.74384e-17
-3.09936e-16
0
-5.36422e-18
-5.92635e-17
-4.35516e-17
6.45441e-17
-4.78106e-18
-4.22381e-17
3.14978e-17
0
1.15909e-17
-4.66936e-18
6.10498e-16
-1.08728e-16
4.67594e-16
-3.6659e-16
2.06371e-16
2.57672e-17
-2.3901e-16
-8.38566e-17
1.52024e-16
-6.09854e-18
-9.21762e-17
7.85583e-17
-3.46511e-17
-4.65357e-17
0
0
0
-1.17022e-17
4.36528e-19
-5.45163e-16
5.31519e-16
3.65199e-19
8.2751e-17
7.19565e-17
-1.76419e-16
2.09723e-16
-1.74707e-16
1.50599e-16
-5.12887e-17
9.7874e-17
3.54748e-17
-1.51992e-17
7.98922e-19
-5.70129e-18
-1.00252e-17
0
0
0
0
0
2.64678e-16
-1.26198e-16
-4.05611e-16
0
0
-5.06674e-17
-8.31334e-17
7.0355e-17
0
-4.47402e-17
3.52206e-17
-1.19163e-16
1.37482e-16
-4.55952e-17
4.86028e-17
5.35697e-18
0
-1.0565e-16
1.0695e-16
0
-8.76547e-17
8.90345e-17
1.49407e-16
0
5.11513e-17
6.94751e-17
-3.08634e-16
0
-4.92862e-17
3.8964e-17
2.84332e-17
-2.13765e-17
3.14992e-17
0
-1.17527e-17
0
-5.43234e-17
-5.43646e-17
3.22078e-18
9.0063e-17
-2.44177e-16
0
-6.41843e-17
0
1.86698e-16
7.65498e-17
0
1.95359e-16
-2.06944e-16
2.04392e-17
-4.76375e-17
1.27418e-17
6.03739e-17
2.31644e-17
-1.83443e-17
0
1.12575e-16
-9.97171e-17
1.23913e-16
1.50744e-16
0
1.30876e-16
-1.2424e-16
-9.9901e-17
1.5291e-16
-2.29839e-16
-1.14431e-16
0
0
2.61282e-17
0
0
7.61712e-18
0
-4.97925e-16
3.8199e-16
0
5.53047e-18
-8.82553e-17
-4.90543e-18
7.95732e-17
5.83223e-17
-7.19015e-17
-1.88155e-16
3.03421e-16
-8.19347e-17
0
-4.05854e-17
0
0
0
-2.93794e-17
2.34547e-17
-1.40513e-16
1.32356e-16
3.56832e-16
-3.49861e-16
1.08252e-16
5.78718e-18
-8.08623e-17
7.05575e-17
1.2148e-16
9.43471e-17
-1.86667e-16
0
1.00152e-16
1.53482e-17
-4.6454e-17
-1.03645e-16
8.56569e-17
-1.42009e-17
2.66985e-17
-4.74211e-16
6.89884e-16
-6.85088e-16
1.2169e-16
1.04522e-16
-9.99428e-17
8.45527e-17
-6.81677e-17
0
-5.90792e-17
9.6478e-17
4.19098e-17
6.82463e-17
8.82421e-17
-1.326e-16
-1.86275e-18
0
-1.07359e-17
3.58177e-18
-5.12751e-16
-1.53939e-16
-2.7266e-16
1.44451e-16
-2.39742e-16
2.10607e-16
-1.26134e-16
1.08246e-16
-7.05997e-18
-7.06682e-18
-1.0066e-16
5.90111e-17
-3.43963e-17
1.04228e-16
-1.1189e-16
1.45042e-17
1.20077e-17
0
-6.17545e-18
5.54396e-16
-1.65925e-16
0
0
-2.47034e-16
4.82037e-16
-1.13425e-16
-2.21632e-17
1.8382e-16
-4.70282e-18
0
0
-4.39718e-17
0
-9.69149e-17
2.36539e-16
-1.64602e-16
0
2.43203e-18
1.90079e-16
3.5682e-16
0
-1.53723e-16
-1.27097e-16
-1.13864e-16
-1.17824e-16
4.94582e-17
-1.38892e-16
-7.68807e-17
0
0
5.7526e-17
0
0
-1.30383e-16
2.14668e-16
0
0
1.30434e-15
-1.51538e-16
-7.95268e-16
-4.3823e-16
5.93995e-16
1.91271e-16
1.14245e-16
0
-4.26182e-17
4.17613e-17
1.03238e-16
-3.34243e-17
-5.04795e-17
7.84631e-17
-8.34607e-17
-2.60826e-17
0
0
0
1.04453e-16
-8.29597e-16
8.13758e-16
-7.8559e-17
-6.1282e-16
9.62351e-16
-4.8486e-16
0
0
2.64857e-16
-2.18125e-16
0
-6.69005e-17
1.1628e-16
-1.32673e-17
3.4153e-17
1.0466e-17
1.09592e-19
2.29372e-18
0
0
0
6.9068e-16
-4.6294e-16
4.92413e-16
-7.69089e-16
2.19915e-16
0
-8.03281e-17
1.29404e-16
-1.32259e-16
-2.62204e-17
-6.06014e-19
-1.81214e-17
-2.71828e-18
-1.44358e-17
-4.03637e-18
-2.21149e-18
8.75844e-16
-1.56517e-15
7.43434e-16
0
2.03166e-16
-2.76669e-16
2.80148e-16
-2.22284e-16
0
-1.09835e-16
1.54005e-16
0
0
-4.54228e-19
0
-1.85513e-17
1.27065e-17
2.37887e-18
3.52104e-18
8.47288e-16
0
-3.41283e-16
3.81268e-16
-2.41653e-16
5.2904e-16
-2.50728e-16
-1.98067e-16
2.00136e-16
-2.04616e-17
0
0
1.32472e-17
-2.25251e-17
-1.57884e-17
2.997e-17
-6.48833e-18
3.33546e-18
0
4.81137e-16
3.7862e-16
-1.15351e-17
-3.63294e-16
-3.69493e-17
-2.68033e-16
2.80287e-17
2.26313e-16
-1.17649e-17
2.08459e-17
0
0
-1.35709e-17
0
1.60027e-17
-1.7119e-17
0
2.1942e-18
-6.09093e-19
-2.55394e-16
-1.89879e-16
1.77775e-16
-2.04979e-17
-9.22764e-18
2.50519e-17
0
-6.66842e-18
1.00498e-16
-8.46356e-17
0
2.89412e-17
-5.63167e-18
-2.5603e-17
-2.34591e-18
-1.83105e-18
0
-1.7145e-18
0
1.04612e-16
-1.99279e-16
-2.98967e-18
8.61442e-17
7.94932e-17
-7.90089e-17
-5.64727e-17
6.39417e-17
-2.21169e-17
1.72899e-17
-1.69265e-17
1.74485e-17
0
4.48456e-20
-1.72715e-18
6.21444e-18
-2.12836e-20
0
0
1.04616e-16
-1.04224e-16
-8.56933e-17
7.58906e-17
1.40455e-16
-1.41285e-16
-2.82373e-17
2.83039e-17
-2.23036e-17
2.25379e-17
-1.6927e-17
3.19793e-17
-8.96895e-18
-6.48065e-18
-1.99443e-18
6.6012e-19
1.57868e-18
4.17734e-19
-3.13308e-19
0
-2.48711e-17
1.49335e-16
-1.61811e-16
1.40265e-16
-1.24294e-16
0
1.00255e-16
-8.96461e-17
0
3.37337e-17
-4.27329e-17
-2.44314e-17
2.56056e-17
4.72902e-18
0
0
-1.71473e-18
6.23294e-19
4.16442e-16
-7.68356e-16
7.87168e-16
-6.94185e-16
2.73466e-16
-2.34723e-16
2.22638e-16
2.6697e-17
-9.9882e-17
8.92715e-17
0
-6.54634e-17
5.95911e-17
-1.13889e-17
-4.63207e-18
7.32434e-18
5.38999e-18
1.66467e-18
-6.02244e-19
9.55572e-16
0
-3.85969e-16
2.99894e-16
3.65242e-17
-2.82988e-16
5.03316e-16
-4.48982e-16
1.76632e-16
-7.62595e-17
7.80583e-17
1.55202e-17
2.6869e-17
1.10929e-17
-9.26935e-18
-1.19535e-18
-1.16886e-17
0
1.20395e-18
7.69004e-16
-8.6561e-16
0
8.03195e-17
3.49484e-16
-3.4266e-16
5.90147e-17
5.26143e-17
2.30266e-17
4.09569e-17
0
0
-4.67654e-17
8.80314e-17
-3.22386e-17
-1.16084e-17
1.27092e-17
1.02105e-18
-2.29324e-18
6.6531e-17
7.60351e-16
-8.8602e-17
-6.10407e-16
5.35742e-16
6.4643e-17
-5.77566e-17
-5.13886e-17
1.71136e-16
-2.12316e-16
1.2944e-16
-1.32293e-16
2.10099e-17
-2.63874e-17
4.88136e-17
-3.24938e-17
0
0
2.37934e-18
0
1.91161e-16
-5.79518e-16
6.61933e-16
-5.42272e-16
5.4098e-16
0
1.91619e-16
-1.92497e-16
-1.46873e-16
2.18279e-16
0
9.20992e-17
-1.16359e-16
-1.72646e-17
0
-1.97063e-18
-4.00028e-18
-2.90292e-20
-1.80725e-15
8.64666e-16
0
-5.93882e-16
5.93823e-16
3.6961e-16
-2.43086e-16
1.01728e-16
0
-4.65599e-18
3.55206e-17
-3.33771e-17
-5.04105e-17
7.83435e-17
-8.33051e-17
0
1.85402e-17
-4.24511e-18
-2.4748e-18
1.11439e-15
-1.09849e-15
0
1.53739e-16
1.41032e-16
-1.29628e-16
0
-1.06612e-16
-9.32986e-17
0
-3.56871e-18
0
5.75484e-17
0
0
2.68377e-17
1.01366e-16
-1.30862e-16
0
1.64174e-19
1.66004e-16
-1.54454e-16
1.2846e-16
-6.51828e-16
2.5081e-16
0
2.21785e-17
6.30086e-17
0
-6.5983e-17
1.95988e-16
-2.05897e-16
3.54727e-17
0
-3.60614e-18
0
0
0
1.55935e-19
0
1.42754e-16
0
-2.26563e-16
2.30165e-16
0
8.52147e-17
-6.94245e-17
2.5421e-16
-1.23137e-16
4.56381e-17
-7.45072e-17
7.2188e-17
-1.12019e-16
-1.803e-17
0
-1.25474e-17
0
4.34651e-16
-7.34668e-16
0
-1.21823e-16
1.10591e-16
0
0
-1.56149e-16
0
-5.91202e-17
-9.65488e-17
-4.19457e-17
6.83112e-17
0
3.83464e-17
0
0
2.76216e-17
-3.07961e-17
0
6.39943e-16
-5.12775e-16
1.1278e-16
-1.02408e-16
-4.29446e-17
1.24537e-16
1.42297e-16
-1.77689e-16
5.74814e-17
3.26112e-18
-5.64887e-17
2.32583e-16
-7.25187e-17
-1.73565e-16
6.05894e-17
-1.62271e-17
9.67133e-18
-3.04885e-18
-1.02843e-15
3.81954e-16
0
0
4.41613e-17
-4.4907e-17
3.35526e-17
2.32706e-17
1.61327e-16
8.45708e-17
-8.45809e-17
-2.66372e-18
-4.98243e-17
4.06193e-17
0
2.11624e-17
1.48734e-17
8.2535e-18
2.75573e-18
0
3.33262e-16
-3.1375e-16
1.01219e-16
1.07088e-16
-2.07784e-17
-6.87624e-17
-5.98026e-17
-2.02474e-16
8.36675e-17
-5.36957e-17
7.1613e-17
4.65919e-17
-6.02986e-17
6.40033e-17
4.23842e-17
-5.45316e-17
-7.62333e-18
0
-5.81301e-17
-2.64101e-16
9.55472e-17
9.0086e-17
-3.16029e-16
2.27932e-16
1.17393e-16
-1.19994e-16
9.48075e-17
-7.94046e-17
0
0
-7.15539e-17
1.29503e-16
-5.77955e-17
5.59734e-17
-6.1065e-17
1.03269e-17
-1.836e-17
1.09543e-16
1.03252e-16
-9.51347e-17
7.68332e-17
-8.81455e-17
-1.38939e-16
0
0
0
0
0
0
3.6923e-17
-9.99026e-17
1.05658e-16
-3.54874e-17
4.36901e-17
2.09223e-17
-1.77773e-17
2.26143e-16
-3.93032e-16
4.92204e-16
-2.37846e-16
3.28026e-16
-2.4906e-16
4.68901e-16
-2.68288e-16
-1.50604e-16
1.54062e-16
0
4.4712e-17
-3.60718e-17
9.1412e-17
-2.94975e-17
-3.95438e-17
-8.60238e-17
6.37233e-18
1.51808e-17
3.51496e-16
1.02853e-16
0
-1.64984e-16
-1.33974e-16
3.09773e-16
3.45178e-17
-1.3072e-16
7.88114e-17
-5.80069e-17
0
-3.53946e-17
0
-3.02033e-17
2.48267e-17
-2.27506e-17
-7.57819e-18
5.43602e-18
0
4.91563e-16
-1.08727e-16
4.67393e-16
-3.66466e-16
-7.55271e-17
3.05932e-16
-1.83439e-16
8.54277e-18
7.16608e-18
-5.68788e-17
5.51923e-17
0
0
3.63912e-17
-1.37462e-17
9.13528e-18
2.73995e-17
-9.52929e-18
0
9.74529e-20
0
-1.02966e-16
6.16126e-16
-4.18378e-16
-4.59208e-16
2.52225e-16
-2.74528e-16
2.56447e-16
1.31142e-16
-1.01898e-16
4.21933e-17
-3.80583e-17
6.30632e-18
6.55326e-17
2.83561e-18
-2.5788e-17
2.55241e-17
-5.20209e-18
1.20103e-15
-3.84188e-16
1.94361e-16
-5.97218e-16
1.66954e-16
-2.68054e-16
1.42671e-16
0
0
-5.48505e-18
-7.30626e-18
-2.15038e-18
0
-5.65084e-17
-4.37035e-17
3.2547e-17
-2.40096e-18
4.08796e-18
1.0192e-17
0
-3.84385e-16
6.62063e-16
1.55168e-16
-5.50246e-16
1.51429e-16
-2.39095e-16
3.59007e-17
1.98662e-16
0
0
3.74837e-18
4.55166e-17
0
-4.19712e-17
-1.94813e-17
2.85555e-18
-1.04121e-17
-1.16968e-17
0
-2.44827e-16
4.86993e-17
4.47128e-16
3.45534e-16
-6.37999e-16
2.92684e-16
-2.12419e-16
1.12791e-16
-1.62465e-16
0
0
0
-7.42018e-17
2.10624e-17
-2.5198e-17
0
-1.58434e-18
7.96612e-18
-9.05537e-16
8.6111e-16
9.4126e-16
-1.14426e-15
5.49201e-16
-5.19068e-16
0
2.22904e-16
-3.07316e-16
1.81124e-16
-1.44612e-16
1.20487e-16
9.96521e-17
7.6741e-17
6.1224e-17
0
0
0
0
9.96208e-16
-5.81896e-16
0
0
-1.98953e-16
4.95351e-16
-3.18036e-16
-2.35099e-16
2.32449e-16
1.78778e-16
3.05161e-16
-1.25017e-16
5.3393e-17
4.13095e-17
3.09777e-17
2.51381e-17
4.09188e-17
-2.02017e-18
2.05773e-18
-1.01207e-15
9.35658e-16
5.09911e-16
-2.63786e-16
5.96431e-16
-3.8378e-16
-3.10999e-16
-2.67447e-16
0
-3.73317e-16
1.65255e-17
1.40797e-16
-1.12733e-16
-9.28676e-17
-3.44059e-17
-3.67936e-17
-2.9358e-17
0
0
-3.48155e-16
0
2.75754e-16
-4.93216e-19
0
0
3.20805e-16
2.75968e-16
0
2.01349e-16
0
-2.14037e-16
-6.03666e-17
1.07838e-16
0
6.98891e-17
-9.91263e-18
1.01122e-17
0
7.3809e-16
0
5.33905e-16
-9.97079e-16
8.98923e-16
7.42344e-16
-2.07009e-17
0
1.87937e-17
2.30938e-16
0
-2.37222e-16
2.69209e-16
-2.40272e-16
-5.25811e-17
-5.62757e-17
-1.64334e-17
-2.90914e-18
-1.01443e-17
-6.92262e-16
9.98818e-16
-2.86859e-16
-7.60416e-16
-4.46162e-16
-3.91627e-16
-6.86151e-16
-2.81772e-16
2.02321e-17
1.06438e-16
-1.06238e-16
3.44385e-16
-1.52369e-16
3.09256e-16
-5.79713e-17
0
6.51348e-17
-3.8086e-17
1.02914e-17
1.51792e-15
-3.03107e-17
-1.18321e-15
9.99177e-16
-9.06705e-16
8.01941e-16
-2.29492e-17
-3.13507e-16
2.77235e-16
1.12699e-16
-1.3639e-17
-2.79605e-16
8.19981e-17
8.42362e-17
-2.60349e-17
2.63319e-17
-6.74638e-17
-6.0827e-18
-1.53936e-17
7.45163e-16
3.19892e-16
5.69319e-16
-5.07289e-16
-4.27545e-16
2.00163e-17
-3.379e-16
8.20668e-16
2.51153e-17
3.8903e-16
2.29498e-16
-2.04188e-16
0
-1.45657e-16
0
0
9.13632e-17
4.05496e-17
1.79975e-17
7.02415e-16
0
5.62809e-16
5.04014e-16
-4.5376e-16
4.02904e-16
0
-3.22275e-16
-4.49767e-16
-3.971e-16
-2.31529e-16
2.06496e-16
0
0
0
0
-8.56225e-17
-6.23038e-17
0
-1.37641e-15
0
-2.49308e-17
-2.20116e-17
6.8924e-16
-3.96051e-16
-1.83299e-16
-1.83927e-16
4.54811e-16
0
1.20522e-16
-1.28555e-17
1.06758e-16
0
0
1.39977e-16
-1.03959e-17
7.47935e-17
-2.79225e-17
9.69989e-16
2.83881e-16
-2.8095e-16
-2.51729e-16
-8.87989e-16
6.16375e-16
7.5177e-16
-1.79916e-17
-3.0902e-16
3.03603e-16
6.41986e-17
-3.24202e-16
-2.67543e-16
-1.59632e-16
-1.6861e-16
-1.61323e-16
1.31912e-16
-6.24442e-18
2.85985e-17
-2.99213e-16
1.37361e-16
-6.6412e-16
1.15748e-16
-1.15327e-16
0
-3.72683e-16
-2.30844e-17
-3.45408e-16
2.61764e-17
3.37517e-16
2.5162e-16
-6.13113e-17
2.82534e-17
1.60477e-16
0
-2.73183e-16
-9.9475e-17
-2.07161e-18
6.05492e-16
-1.67221e-17
1.04387e-15
-5.00832e-16
9.19485e-19
1.34885e-17
4.06856e-16
-2.86426e-17
3.34989e-16
-3.13817e-16
-2.94897e-16
0
2.90121e-16
2.33437e-16
3.21166e-18
-4.66327e-18
1.47141e-16
1.01115e-16
0
-4.31014e-16
0
-1.07405e-16
4.76553e-16
6.21772e-18
1.10276e-16
-3.93424e-16
3.72882e-16
3.90703e-16
3.74038e-16
3.59015e-16
0
-2.81848e-16
0
1.47781e-17
-1.53484e-17
0
-1.45469e-18
7.13591e-17
2.96669e-16
1.40887e-17
-2.40646e-16
7.3958e-16
-2.38288e-16
0
0
-4.34686e-16
-3.78551e-16
-3.6236e-16
-6.53853e-16
-9.13053e-17
0
0
0
-2.99928e-17
3.17399e-17
2.0231e-16
-7.24437e-17
1.45437e-17
0
-5.13019e-16
-4.73264e-16
4.93361e-16
-4.89418e-16
-7.02691e-16
8.66587e-16
2.38524e-16
0
3.83756e-16
4.31454e-16
-9.31624e-17
5.04844e-16
-8.25962e-17
8.59625e-17
3.33192e-16
-1.92246e-16
0
-5.67388e-16
0
-5.44954e-16
5.34721e-16
0
9.72289e-16
4.58026e-16
-9.57948e-16
7.62147e-16
-5.17898e-18
-2.31273e-16
-4.17736e-16
0
5.71686e-16
-9.59714e-16
1.02949e-15
-1.31184e-15
0
0
5.6464e-16
-3.35473e-18
-8.2675e-18
-1.07538e-15
1.08385e-15
-5.24943e-16
5.22803e-16
5.15202e-16
-4.58493e-16
0
0
8.56262e-16
-8.71013e-16
-9.32756e-16
9.24183e-16
-8.99962e-16
9.731e-16
-1.52402e-15
0
)
;

boundaryField
{
    up
    {
        type            calculated;
        value           nonuniform List<scalar> 
84
(
0
0
0
0
-5.20935e-17
9.40579e-17
-3.9308e-17
2.85985e-17
-2.49545e-17
0
-2.02085e-17
1.92519e-17
-1.36727e-17
1.13178e-18
9.62067e-19
1.01242e-17
0
0
-6.35402e-18
4.71592e-18
4.80885e-18
-4.66936e-18
4.36528e-19
0
1.92341e-18
8.62405e-19
-1.75242e-17
0
2.34547e-17
2.77975e-17
3.58177e-18
-6.17545e-18
2.43203e-18
0
-1.19707e-18
2.37905e-18
-2.21106e-18
3.51736e-18
0
-6.08454e-19
0
0
-3.13522e-19
6.23294e-19
-6.02244e-19
1.20395e-18
-2.29324e-18
2.37934e-18
-2.90292e-20
-2.4748e-18
0
0
0
-3.07961e-17
-4.14853e-18
2.75573e-18
0
-1.836e-17
-1.77773e-17
1.32641e-17
0
0
-5.20209e-18
1.0192e-17
-1.16968e-17
7.96612e-18
0
2.05773e-18
0
0
-1.01443e-17
1.02914e-17
-1.53936e-17
1.79975e-17
0
-2.79225e-17
2.85985e-17
-2.07161e-18
0
7.13591e-17
-7.24437e-17
0
0
0
)
;
    }
    low
    {
        type            calculated;
        value           nonuniform List<scalar> 
84
(
-1.13031e-15
1.12968e-15
-5.53955e-16
8.71665e-16
1.52626e-16
-3.96611e-17
3.31467e-16
3.21057e-17
0
1.40889e-15
-3.57088e-16
3.00287e-16
-3.30671e-16
-2.12824e-15
3.47852e-16
0
-3.24059e-16
2.47324e-17
-2.36368e-17
-2.61654e-16
1.3375e-16
3.5932e-16
6.08426e-16
-5.45163e-16
0
-1.0565e-16
-5.43234e-17
0
-4.97925e-16
-1.40513e-16
-4.72826e-16
-5.11628e-16
5.53606e-16
1.90079e-16
1.30431e-15
1.04453e-16
0
8.75844e-16
8.48944e-16
4.82056e-16
-2.5589e-16
1.04612e-16
1.04616e-16
0
4.16442e-16
9.57228e-16
7.69004e-16
6.7592e-17
0
-1.80722e-15
1.11439e-15
1.64174e-19
1.55935e-19
4.34651e-16
0
-1.0263e-15
0
-5.81301e-17
1.09543e-16
2.2489e-16
3.49285e-16
4.89491e-16
9.74529e-20
1.19928e-15
0
0
-9.05537e-16
9.95281e-16
-1.01143e-15
-3.48155e-16
7.38027e-16
-6.92262e-16
1.52004e-15
7.467e-16
7.02415e-16
-1.37641e-15
9.68254e-16
-2.97402e-16
6.05492e-16
-4.30286e-16
2.96669e-16
1.58594e-17
-5.67388e-16
5.65001e-16
)
;
    }
    left
    {
        type            calculated;
        value           nonuniform List<scalar> 
19
(
-1.12959e-15
-5.50493e-16
5.57896e-16
1.11655e-17
-1.06577e-15
0
-4.99154e-16
-4.92173e-16
-3.28565e-17
-2.58532e-16
-2.45893e-18
-2.56962e-16
1.14069e-15
-2.53895e-16
1.18689e-15
1.02379e-15
6.08844e-16
8.92738e-16
0
)
;
    }
    right
    {
        type            calculated;
        value           nonuniform List<scalar> 
19
(
5.6464e-16
-2.95892e-18
-8.2675e-18
-1.07537e-15
1.08411e-15
-5.24943e-16
5.22803e-16
5.15202e-16
-4.5691e-16
0
0
8.64403e-16
-8.82483e-16
-9.32756e-16
9.24183e-16
-8.99962e-16
9.731e-16
-1.64814e-15
0
)
;
    }
    frontAndBackPlanes
    {
        type            empty;
    }
}


// ************************************************************************* //
