/*--------------------------------*- C++ -*----------------------------------*\
  =========                 |
  \\      /  F ield         | OpenFOAM: The Open Source CFD Toolbox
   \\    /   O peration     | Website:  https://openfoam.org
    \\  /    A nd           | Version:  7
     \\/     M anipulation  |
\*---------------------------------------------------------------------------*/
FoamFile
{
    version     2.0;
    format      ascii;
    class       volScalarField;
    location    "0.29";
    object      gradTx;
}
// * * * * * * * * * * * * * * * * * * * * * * * * * * * * * * * * * * * * * //

dimensions      [0 -1 0 1 0 0 0];

internalField   nonuniform List<scalar> 
1596
(
-0.0778693
-0.391286
-0.702835
-0.987604
-1.24509
-1.47554
-1.68951
-1.89372
-2.09697
-2.31643
-2.55631
-2.83719
-3.18389
-3.63367
-4.23137
-5.09242
-6.39651
-8.53255
-12.3046
0.0170447
-0.325998
-0.632269
-0.899899
-1.13615
-1.34304
-1.52999
-1.70032
-1.86051
-2.01926
-2.17687
-2.34403
-2.52392
-2.72171
-2.93149
-3.1434
-3.30621
-3.3166
-2.95619
0.0947776
-0.267301
-0.563708
-0.811789
-1.02478
-1.20711
-1.36688
-1.50619
-1.62932
-1.7408
-1.83935
-1.93031
-2.01124
-2.07993
-2.12667
-2.13525
-2.06437
-1.84248
-1.33046
0.106961
-0.237057
-0.50862
-0.730974
-0.918211
-1.07577
-1.20997
-1.32249
-1.416
-1.49272
-1.55134
-1.59425
-1.61828
-1.61987
-1.59128
-1.51946
-1.37758
-1.1223
-0.670294
0.0308233
-0.249315
-0.476983
-0.665623
-0.824228
-0.956936
-1.06765
-1.15759
-1.22822
-1.28031
-1.31311
-1.32727
-1.32028
-1.28902
-1.2284
-1.12927
-0.975605
-0.742308
-0.381115
-0.12752
-0.309193
-0.476022
-0.622932
-0.749743
-0.857114
-0.945925
-1.01656
-1.06934
-1.10401
-1.12032
-1.11785
-1.0949
-1.04899
-0.977163
-0.873106
-0.727724
-0.526616
-0.242158
-0.338483
-0.411777
-0.50836
-0.607464
-0.699508
-0.78054
-0.84815
-0.901397
-0.939472
-0.961203
-0.966597
-0.954486
-0.923739
-0.872425
-0.798917
-0.698822
-0.567149
-0.395624
-0.16844
-0.559848
-0.538006
-0.565826
-0.615712
-0.671825
-0.726012
-0.772885
-0.809906
-0.835119
-0.846549
-0.844119
-0.826157
-0.791824
-0.739534
-0.668439
-0.575383
-0.457745
-0.31076
-0.125389
-0.789109
-0.699255
-0.665596
-0.665842
-0.683415
-0.707857
-0.731716
-0.750896
-0.762346
-0.76333
-0.753377
-0.730426
-0.693648
-0.641593
-0.573751
-0.487725
-0.382154
-0.254237
-0.0986973
-0.926537
-0.811101
-0.740789
-0.705249
-0.692265
-0.69189
-0.696178
-0.700108
-0.6999
-0.692305
-0.676412
-0.649961
-0.612047
-0.561325
-0.497446
-0.418568
-0.324049
-0.212294
-0.0802238
-1.03794
-0.911325
-0.818816
-0.756761
-0.718078
-0.695021
-0.680456
-0.669178
-0.65709
-0.640654
-0.618537
-0.58835
-0.549043
-0.499288
-0.438736
-0.365876
-0.28041
-0.181437
-0.067188
-1.15068
-1.02267
-0.916305
-0.833469
-0.77178
-0.726437
-0.692025
-0.663887
-0.638067
-0.610976
-0.580969
-0.545562
-0.503512
-0.453421
-0.394825
-0.326362
-0.247829
-0.158661
-0.0577896
-1.17937
-1.06842
-0.964458
-0.875015
-0.801858
-0.743143
-0.695492
-0.655303
-0.619199
-0.583883
-0.547663
-0.508141
-0.464005
-0.413867
-0.357203
-0.292786
-0.220454
-0.13984
-0.0502746
-1.18393
-1.09178
-0.996687
-0.907525
-0.828801
-0.761271
-0.703581
-0.653456
-0.608357
-0.565507
-0.523358
-0.479702
-0.433228
-0.382585
-0.327191
-0.265911
-0.198563
-0.124875
-0.0443987
-1.17823
-1.1032
-1.01917
-0.934238
-0.854006
-0.781091
-0.715913
-0.657583
-0.604551
-0.554712
-0.506826
-0.458955
-0.409854
-0.358232
-0.303466
-0.244483
-0.181052
-0.112923
-0.0397469
-1.14551
-1.0888
-1.01819
-0.941432
-0.864354
-0.790626
-0.721961
-0.65869
-0.600252
-0.545283
-0.492979
-0.44175
-0.390499
-0.338044
-0.283771
-0.22668
-0.166516
-0.103039
-0.0359357
-1.08516
-1.04573
-0.989736
-0.924005
-0.854017
-0.783825
-0.715897
-0.651466
-0.590819
-0.533302
-0.478587
-0.425484
-0.373103
-0.320416
-0.266857
-0.211534
-0.154215
-0.0947127
-0.0327565
-1.01531
-0.986827
-0.943613
-0.889308
-0.828189
-0.764072
-0.699723
-0.636935
-0.576632
-0.518767
-0.463457
-0.409902
-0.357433
-0.305178
-0.252626
-0.198982
-0.144078
-0.0878434
-0.0301302
-0.956689
-0.937125
-0.903803
-0.85885
-0.805367
-0.74673
-0.685807
-0.624779
-0.56509
-0.507213
-0.451659
-0.397976
-0.345673
-0.29398
-0.242365
-0.190033
-0.136827
-0.0828282
-0.0281366
-0.857568
-0.84954
-0.827442
-0.793808
-0.751008
-0.701764
-0.648661
-0.593897
-0.539142
-0.485194
-0.432843
-0.381936
-0.332167
-0.282882
-0.233519
-0.183217
-0.13174
-0.0793386
-0.0266379
-0.749085
-0.750189
-0.738215
-0.715275
-0.683215
-0.644173
-0.600331
-0.553717
-0.506022
-0.458194
-0.411152
-0.364949
-0.319415
-0.273995
-0.228061
-0.180544
-0.130824
-0.078956
-0.0261757
-0.636919
-0.644036
-0.64054
-0.627389
-0.605754
-0.577196
-0.543468
-0.506326
-0.467356
-0.427502
-0.387667
-0.347987
-0.308363
-0.268345
-0.22729
-0.183877
-0.136723
-0.0846881
-0.0283173
-0.513503
-0.523762
-0.527222
-0.523395
-0.512543
-0.495512
-0.47354
-0.447987
-0.420201
-0.390968
-0.360974
-0.330303
-0.298809
-0.266177
-0.231943
-0.194847
-0.152818
-0.102596
-0.0399793
-0.375027
-0.370173
-0.360042
-0.34484
-0.325822
-0.304646
-0.283207
-0.263038
-0.245264
-0.230179
-0.217294
-0.205549
-0.193614
-0.180303
-0.164681
-0.145697
-0.12161
-0.0886727
-0.0397627
-0.250938
-0.280549
-0.314814
-0.349218
-0.380508
-0.406314
-0.425547
-0.437828
-0.443528
-0.443165
-0.436918
-0.42509
-0.407719
-0.385583
-0.359772
-0.331392
-0.300227
-0.264008
-0.216144
-0.0854061
-0.100541
-0.120896
-0.143772
-0.167193
-0.189735
-0.210861
-0.230332
-0.248338
-0.264885
-0.279024
-0.289788
-0.295356
-0.294844
-0.28833
-0.277661
-0.26448
-0.2508
-0.237125
0.0805266
0.0612458
0.0342071
0.00203755
-0.032865
-0.0686117
-0.104136
-0.1389
-0.172874
-0.205991
-0.237194
-0.265024
-0.286838
-0.300558
-0.305272
-0.302683
-0.295112
-0.28559
-0.275508
0.246705
0.22058
0.184531
0.141648
0.0947152
0.0459801
-0.00314054
-0.0519873
-0.100518
-0.148836
-0.196145
-0.240833
-0.27964
-0.309074
-0.326555
-0.332798
-0.330413
-0.323552
-0.31469
0.397929
0.361542
0.314372
0.260181
0.20196
0.142088
0.082014
0.0222548
-0.0374069
-0.0975288
-0.157942
-0.217441
-0.272653
-0.318824
-0.351085
-0.367974
-0.371359
-0.366484
-0.357602
0.556284
0.507649
0.448224
0.382034
0.312237
0.241346
0.170789
0.100923
0.0312487
-0.0393106
-0.111402
-0.184782
-0.256782
-0.322151
-0.373617
-0.406216
-0.418975
-0.41718
-0.407569
0.678069
0.615164
0.543215
0.466295
0.387601
0.309439
0.232872
0.157838
0.0834165
0.00794319
-0.0701279
-0.151948
-0.236545
-0.319731
-0.393011
-0.447444
-0.476198
-0.481084
-0.469988
0.794502
0.719111
0.634962
0.547708
0.460784
0.376236
0.294747
0.215899
0.138505
0.060553
-0.0201232
-0.106038
-0.198565
-0.296494
-0.392981
-0.477441
-0.535588
-0.559852
-0.553712
0.905155
0.813621
0.71636
0.619209
0.52521
0.435816
0.351193
0.270566
0.192625
0.115306
0.0363466
-0.0474351
-0.139366
-0.242177
-0.354103
-0.469122
-0.570292
-0.638078
-0.652712
0.981405
0.865363
0.748054
0.634624
0.527186
0.426343
0.33164
0.241994
0.156039
0.0718858
-0.012473
-0.100014
-0.194604
-0.30157
-0.425246
-0.569751
-0.729159
-0.889033
-1.0214
1.03379
0.905954
0.785985
0.677186
0.579586
0.49225
0.413626
0.34216
0.276381
0.214881
0.156611
0.100278
0.0444128
-0.0134265
-0.0770381
-0.154106
-0.25301
-0.383628
-0.551189
1.07678
0.943519
0.82674
0.72524
0.636534
0.55843
0.48872
0.4257
0.367993
0.314435
0.264438
0.217549
0.173596
0.132698
0.0953228
0.0613456
0.030138
-0.00130804
-0.0388771
1.02999
0.877396
0.74912
0.640127
0.546312
0.464688
0.392665
0.328336
0.270234
0.217123
0.168386
0.123559
0.0824264
0.0451076
0.0122045
-0.0156306
-0.0372927
-0.0516585
-0.0581854
0.913012
0.771955
0.655687
0.558466
0.475973
0.405077
0.343232
0.288574
0.239732
0.195603
0.155608
0.119326
0.0864766
0.0569706
0.0309147
0.00827139
-0.0109461
-0.0267722
-0.0394536
0.765196
0.645148
0.546414
0.464358
0.39527
0.336338
0.285325
0.240563
0.200854
0.16523
0.133139
0.104163
0.0779462
0.0542662
0.0330377
0.0140776
-0.00272029
-0.0173864
-0.0300795
0.580234
0.486791
0.410887
0.348505
0.296489
0.25247
0.214628
0.181615
0.152477
0.126444
0.103053
0.081951
0.0628136
0.0454239
0.0296792
0.0154314
0.00261487
-0.00873856
-0.0186961
0.367274
0.304839
0.255639
0.21598
0.183323
0.155915
0.132492
0.112142
0.0942359
0.0782685
0.0639268
0.0509723
0.0391794
0.0283933
0.0185357
0.00951028
0.00128096
-0.00610521
-0.0126572
0.141545
0.116626
0.0976501
0.082551
0.0701529
0.0597282
0.0507898
0.0429963
0.0361144
0.0299585
0.0244084
0.0193711
0.0147567
0.0104995
0.00655967
0.00289173
-0.000528847
-0.00369161
-0.0065992
-0.141477
-0.116478
-0.0974519
-0.0823219
-0.0699069
-0.0594757
-0.0505388
-0.0427531
-0.0358841
-0.0297453
-0.0242158
-0.019202
-0.0146135
-0.0103843
-0.00647409
-0.00283699
0.000551957
0.00368307
0.00655953
-0.367211
-0.304711
-0.255468
-0.215783
-0.183115
-0.155703
-0.132285
-0.111945
-0.0940541
-0.0781059
-0.0637867
-0.0508572
-0.0390916
-0.0283345
-0.0185071
-0.00951281
-0.00131484
0.00604054
0.0125631
-0.580174
-0.48667
-0.410723
-0.348313
-0.296279
-0.252251
-0.214409
-0.181401
-0.152273
-0.126254
-0.102881
-0.0817994
-0.0626835
-0.0453161
-0.0295937
-0.0153675
-0.00257096
0.00876457
0.0187067
-0.765154
-0.64507
-0.546308
-0.464235
-0.395137
-0.336202
-0.285192
-0.240439
-0.200743
-0.165136
-0.133066
-0.104112
-0.0779187
-0.0542622
-0.033056
-0.0141164
0.00266384
0.0173153
0.0299968
-0.912988
-0.771911
-0.655624
-0.558388
-0.475886
-0.404985
-0.343142
-0.28849
-0.239661
-0.195547
-0.155571
-0.119311
-0.0864854
-0.0570028
-0.0309682
-0.00834231
0.010864
0.0266869
0.0393744
-1.03
-0.877397
-0.749108
-0.640102
-0.546278
-0.464651
-0.392631
-0.328311
-0.270225
-0.217134
-0.168424
-0.123629
-0.0825328
-0.0452537
-0.0123896
0.015414
0.0370632
0.0514474
0.0580292
-1.07679
-0.943446
-0.826552
-0.724922
-0.636082
-0.557847
-0.488013
-0.424878
-0.367067
-0.313413
-0.263328
-0.216358
-0.172327
-0.131355
-0.0939161
-0.0599133
-0.0287736
0.0024051
0.0393764
-1.03399
-0.906475
-0.786846
-0.678384
-0.581112
-0.494093
-0.415771
-0.344595
-0.279096
-0.217874
-0.159888
-0.103863
-0.0483557
0.00903502
0.0720572
0.148332
0.246239
0.375759
0.542389
-0.981335
-0.865164
-0.747699
-0.634104
-0.5265
-0.425499
-0.330649
-0.240872
-0.154803
-0.0705555
0.0138755
0.101463
0.196069
0.303024
0.426692
0.571269
0.730973
0.891534
1.02512
-0.905225
-0.813786
-0.716604
-0.619516
-0.525567
-0.436212
-0.35162
-0.271019
-0.193103
-0.11581
-0.0368841
0.0468561
0.138743
0.241532
0.3535
0.468688
0.570179
0.63838
0.653307
-0.794547
-0.719215
-0.635115
-0.547901
-0.461006
-0.37648
-0.295008
-0.216176
-0.138799
-0.0608652
0.0197903
0.105688
0.198215
0.296188
0.392793
0.477454
0.535846
0.560319
0.554287
-0.678114
-0.615266
-0.543367
-0.466489
-0.387826
-0.309686
-0.233137
-0.158115
-0.0837026
-0.00823624
0.0698332
0.151665
0.236303
0.319573
0.392987
0.447586
0.476493
0.481474
0.470406
-0.556325
-0.507747
-0.448375
-0.382228
-0.312465
-0.241599
-0.171057
-0.1012
-0.0315279
0.0390361
0.111143
0.184557
0.25662
0.322084
0.37367
0.406388
0.419238
0.417493
0.407903
-0.397964
-0.361632
-0.314512
-0.260363
-0.202175
-0.142326
-0.082264
-0.0225086
0.0371578
0.0972942
0.157735
0.21728
0.272561
0.318821
0.351176
0.36815
0.371593
0.366751
0.357889
-0.246743
-0.220672
-0.184675
-0.141835
-0.0949354
-0.046222
0.00288856
0.0517364
0.100279
0.148621
0.195967
0.24071
0.279586
0.309099
0.326658
0.332964
0.330624
0.323792
0.314954
-0.0805582
-0.0613314
-0.0343437
-0.00221737
0.032653
0.0683802
0.103898
0.138669
0.17266
0.205808
0.237055
0.264941
0.28682
0.300608
0.305385
0.302847
0.295315
0.285826
0.275776
0.0853339
0.100322
0.120519
0.143242
0.166529
0.188963
0.210018
0.229453
0.247461
0.264045
0.27825
0.289105
0.294778
0.294376
0.287967
0.277397
0.264317
0.250765
0.237287
0.25099
0.280746
0.315198
0.349809
0.38131
0.407311
0.426711
0.43912
0.444905
0.444588
0.438348
0.426497
0.40908
0.386885
0.361008
0.332567
0.301344
0.265069
0.217138
0.374974
0.369981
0.359704
0.344365
0.325232
0.30397
0.28248
0.262293
0.244531
0.229484
0.216656
0.204979
0.193118
0.179882
0.164332
0.145416
0.121395
0.0885245
0.0396967
0.513536
0.523828
0.527322
0.523525
0.512695
0.495676
0.473707
0.448146
0.420345
0.391093
0.361076
0.330382
0.298867
0.266216
0.231967
0.194858
0.152818
0.10259
0.0399741
0.636927
0.644047
0.640554
0.627406
0.605773
0.577216
0.543487
0.506344
0.467371
0.427512
0.387673
0.347989
0.308362
0.268341
0.227283
0.183869
0.136714
0.0846814
0.0283152
0.749093
0.7502
0.738228
0.715289
0.683231
0.644188
0.600346
0.553729
0.506031
0.458199
0.411154
0.364948
0.319412
0.27399
0.228055
0.180538
0.130818
0.0789525
0.0261747
0.857574
0.849548
0.827452
0.79382
0.75102
0.701775
0.648671
0.593904
0.539147
0.485197
0.432843
0.381933
0.332163
0.282877
0.233514
0.183212
0.131736
0.0793364
0.0266372
0.956696
0.937134
0.903813
0.858861
0.805378
0.746739
0.685815
0.624785
0.565093
0.507214
0.451658
0.397972
0.345669
0.293975
0.242361
0.190029
0.136824
0.0828265
0.0281361
1.01531
0.986835
0.943621
0.889317
0.828197
0.764078
0.699728
0.636938
0.576633
0.518766
0.463454
0.409898
0.357428
0.305173
0.252622
0.198978
0.144075
0.087842
0.0301298
1.08516
1.04573
0.989741
0.924011
0.854022
0.783828
0.715899
0.651467
0.590818
0.533299
0.478583
0.42548
0.373099
0.320411
0.266854
0.211531
0.154213
0.0947115
0.0327562
1.14551
1.08881
1.01819
0.941438
0.864359
0.790629
0.721962
0.658689
0.60025
0.54528
0.492975
0.441746
0.390495
0.338041
0.283767
0.226677
0.166514
0.103038
0.0359355
1.17824
1.10321
1.01917
0.934241
0.854007
0.781091
0.715913
0.657581
0.604548
0.554708
0.506822
0.458951
0.40985
0.358228
0.303463
0.244481
0.181051
0.112922
0.0397468
1.18393
1.09179
0.996691
0.907528
0.828803
0.761271
0.70358
0.653454
0.608354
0.565503
0.523354
0.479699
0.433225
0.382582
0.327188
0.265909
0.198562
0.124874
0.0443988
1.17937
1.06843
0.964463
0.875018
0.80186
0.743144
0.695492
0.655302
0.619197
0.583881
0.54766
0.508139
0.464003
0.413866
0.357201
0.292785
0.220454
0.139841
0.0502749
1.15068
1.02267
0.916304
0.833467
0.771777
0.726433
0.692021
0.663883
0.638062
0.610972
0.580965
0.545559
0.50351
0.453419
0.394824
0.326361
0.247829
0.158661
0.0577899
1.03795
0.911332
0.81882
0.756763
0.718079
0.695021
0.680455
0.669177
0.657089
0.640652
0.618535
0.588348
0.549042
0.499288
0.438736
0.365876
0.280411
0.181438
0.0671885
0.926548
0.811109
0.740794
0.705251
0.692266
0.69189
0.696178
0.700107
0.699899
0.692304
0.676411
0.649961
0.612047
0.561325
0.497448
0.41857
0.324051
0.212295
0.0802243
0.789118
0.699261
0.6656
0.665844
0.683415
0.707857
0.731715
0.750896
0.762345
0.763329
0.753377
0.730427
0.693649
0.641594
0.573753
0.487727
0.382156
0.254239
0.0986977
0.559855
0.53801
0.565828
0.615713
0.671825
0.726012
0.772884
0.809906
0.835118
0.846549
0.844119
0.826158
0.791825
0.739536
0.668441
0.575385
0.457747
0.310761
0.125389
0.338489
0.41178
0.508362
0.607465
0.699509
0.78054
0.84815
0.901396
0.939472
0.961203
0.966597
0.954487
0.923741
0.872427
0.798919
0.698824
0.56715
0.395625
0.16844
0.127523
0.309195
0.476024
0.622933
0.749744
0.857114
0.945925
1.01656
1.06934
1.10401
1.12032
1.11785
1.0949
1.04899
0.977164
0.873108
0.727725
0.526616
0.242157
-0.0308211
0.249318
0.476984
0.665625
0.824229
0.956936
1.06765
1.15759
1.22822
1.28031
1.31311
1.32727
1.32028
1.28902
1.2284
1.12927
0.975605
0.742308
0.381115
-0.10696
0.237058
0.508622
0.730975
0.918212
1.07577
1.20997
1.32249
1.416
1.49272
1.55134
1.59425
1.61828
1.61987
1.59128
1.51946
1.37758
1.12229
0.670294
-0.0947782
0.267301
0.563708
0.811789
1.02478
1.20711
1.36688
1.50619
1.62932
1.7408
1.83935
1.93031
2.01124
2.07993
2.12666
2.13525
2.06436
1.84248
1.33045
-0.0170449
0.325998
0.632268
0.899898
1.13615
1.34304
1.52999
1.70032
1.86051
2.01926
2.17687
2.34403
2.52392
2.72171
2.93149
3.1434
3.30621
3.3166
2.95619
0.0778698
0.391286
0.702835
0.987604
1.24509
1.47554
1.68951
1.89372
2.09697
2.31643
2.55631
2.83719
3.18389
3.63366
4.23137
5.09242
6.39651
8.53255
12.3046
)
;

boundaryField
{
    up
    {
        type            calculated;
        value           nonuniform List<scalar> 
84
(
-12.3046
-2.95619
-1.33046
-0.670294
-0.381115
-0.242158
-0.16844
-0.125389
-0.0986973
-0.0802238
-0.067188
-0.0577896
-0.0502746
-0.0443987
-0.0397469
-0.0359357
-0.0327565
-0.0301302
-0.0281366
-0.0266379
-0.0261757
-0.0283173
-0.0399793
-0.0397627
-0.185727
-0.22322
-0.262316
-0.300838
-0.342324
-0.38998
-0.448033
-0.52055
-0.60161
-1.01764
-0.572325
-0.0400584
-0.0581832
-0.0394192
-0.0300578
-0.0186903
-0.0126566
-0.00660201
0.00656231
0.0125625
0.0187009
0.0299752
0.0393402
0.0580266
0.0405428
0.56324
1.02208
0.602134
0.52105
0.448425
0.390303
0.342607
0.301103
0.26259
0.223475
0.186637
0.0396967
0.0399741
0.0283152
0.0261747
0.0266372
0.0281361
0.0301298
0.0327562
0.0359355
0.0397468
0.0443988
0.0502749
0.0577899
0.0671885
0.0802243
0.0986977
0.125389
0.16844
0.242157
0.381115
0.670294
1.33045
2.95619
12.3046
)
;
    }
    low
    {
        type            calculated;
        value           nonuniform List<scalar> 
84
(
-0.070273
0.0283879
0.113236
0.127182
0.0436278
-0.129904
-0.358231
-0.593166
-0.82766
-0.957957
-1.06503
-1.17159
-1.18657
-1.18248
-1.17119
-1.13078
-1.0641
-0.992712
-0.930436
-0.824746
-0.713505
-0.601388
-0.479462
-0.345601
-0.228256
-0.0772711
0.0712526
0.223453
0.367631
0.52519
0.651554
0.771921
0.888797
0.973665
1.03319
1.08489
1.04772
0.933097
0.783743
0.59538
0.377482
0.14586
-0.145792
-0.377417
-0.595314
-0.783692
-0.933063
-1.04771
-1.08488
-1.03336
-0.973597
-0.888854
-0.771961
-0.651596
-0.525231
-0.367668
-0.223493
-0.0712848
0.0772009
0.228307
0.345553
0.479491
0.601397
0.713513
0.824752
0.930443
0.992718
1.0641
1.13079
1.17119
1.18248
1.18657
1.17159
1.06503
0.957966
0.827669
0.593174
0.358237
0.129909
-0.0436256
-0.127182
-0.113237
-0.0283887
0.0702732
)
;
    }
    left
    {
        type            calculated;
        value           nonuniform List<scalar> 
19
(
-0.0689998
-0.375299
-0.692918
-0.987264
-1.25561
-1.49668
-1.72195
-1.93928
-2.1575
-2.3984
-2.66594
-2.98359
-3.3842
-3.91829
-4.64265
-5.72014
-7.4002
-10.226
-10.6725
)
;
    }
    right
    {
        type            calculated;
        value           nonuniform List<scalar> 
19
(
0.0690002
0.3753
0.692918
0.987265
1.25561
1.49668
1.72195
1.93928
2.1575
2.3984
2.66594
2.98358
3.3842
3.91829
4.64265
5.72014
7.4002
10.226
10.6725
)
;
    }
    frontAndBackPlanes
    {
        type            empty;
    }
}


// ************************************************************************* //
