/*--------------------------------*- C++ -*----------------------------------*\
  =========                 |
  \\      /  F ield         | OpenFOAM: The Open Source CFD Toolbox
   \\    /   O peration     | Website:  https://openfoam.org
    \\  /    A nd           | Version:  7
     \\/     M anipulation  |
\*---------------------------------------------------------------------------*/
FoamFile
{
    version     2.0;
    format      ascii;
    class       volScalarField;
    location    "0.29";
    object      gradTy;
}
// * * * * * * * * * * * * * * * * * * * * * * * * * * * * * * * * * * * * * //

dimensions      [0 -1 0 1 0 0 0];

internalField   nonuniform List<scalar> 
1596
(
-0.162086
-0.30183
-0.417987
-0.53184
-0.644026
-0.769011
-0.901494
-1.05821
-1.24638
-1.47133
-1.77878
-2.16958
-2.70759
-3.46927
-4.64603
-6.47451
-9.73262
-15.7364
-37.1748
-0.494211
-0.611603
-0.694817
-0.775161
-0.856536
-0.954608
-1.06478
-1.20211
-1.37314
-1.57936
-1.85845
-2.20692
-2.66727
-3.27426
-4.12586
-5.27249
-6.97335
-9.4713
-16.5608
-0.885399
-0.927754
-0.958013
-0.996567
-1.04282
-1.10994
-1.19231
-1.3028
-1.446
-1.62075
-1.85756
-2.14875
-2.52336
-2.99743
-3.63011
-4.42993
-5.5375
-7.05554
-10.3161
-1.29655
-1.23646
-1.20265
-1.19427
-1.20256
-1.23591
-1.28715
-1.36644
-1.47647
-1.61436
-1.80463
-2.03734
-2.3327
-2.69713
-3.16786
-3.7373
-4.48778
-5.46218
-7.13473
-1.67717
-1.52017
-1.42339
-1.36798
-1.33807
-1.33687
-1.35588
-1.40252
-1.47795
-1.5784
-1.72345
-1.9027
-2.13048
-2.40852
-2.76122
-3.17585
-3.7037
-4.36075
-5.32125
-1.98117
-1.7618
-1.61532
-1.51846
-1.45319
-1.41885
-1.40659
-1.42132
-1.46322
-1.52823
-1.63189
-1.7645
-1.93635
-2.147
-2.41299
-2.72094
-3.10431
-3.56674
-4.17508
-2.18294
-1.94784
-1.77355
-1.64602
-1.5513
-1.48744
-1.44652
-1.4316
-1.44241
-1.47512
-1.54195
-1.63447
-1.7602
-1.91777
-2.11862
-2.35052
-2.63589
-2.97285
-3.38798
-2.28138
-2.06981
-1.8921
-1.74831
-1.63281
-1.54507
-1.47955
-1.43838
-1.42139
-1.42535
-1.45984
-1.51802
-1.60539
-1.72031
-1.87085
-2.04642
-2.2623
-2.51437
-2.81306
-2.29497
-2.13635
-1.97647
-1.83077
-1.70375
-1.59837
-1.51264
-1.44875
-1.40718
-1.38562
-1.39169
-1.42012
-1.47502
-1.55482
-1.66524
-1.79733
-1.96153
-2.15296
-2.37514
-2.23959
-2.13854
-2.01083
-1.8773
-1.74974
-1.63522
-1.53561
-1.45414
-1.39239
-1.34922
-1.331
-1.33397
-1.36137
-1.41188
-1.48972
-1.58745
-1.71233
-1.85943
-2.02912
-2.168
-2.10853
-2.01366
-1.89909
-1.77856
-1.66169
-1.5537
-1.45924
-1.38128
-1.32001
-1.28112
-1.26226
-1.26619
-1.29195
-1.34275
-1.41245
-1.50613
-1.61912
-1.75031
-2.07748
-2.061
-1.99841
-1.90541
-1.79623
-1.68172
-1.56954
-1.46578
-1.37483
-1.29828
-1.24161
-1.20378
-1.18733
-1.19174
-1.21958
-1.26582
-1.33402
-1.41992
-1.52173
-1.96405
-1.9861
-1.95537
-1.88607
-1.79199
-1.68452
-1.57277
-1.46407
-1.3641
-1.27577
-1.2047
-1.15104
-1.1174
-1.10376
-1.11234
-1.13911
-1.18665
-1.25116
-1.33058
-1.86188
-1.90639
-1.90108
-1.8537
-1.77542
-1.67715
-1.56854
-1.45783
-1.35172
-1.25428
-1.17152
-1.10461
-1.0564
-1.02736
-1.01963
-1.02997
-1.06036
-1.10745
-1.16912
-1.76628
-1.82853
-1.84303
-1.8144
-1.75103
-1.66258
-1.55861
-1.44782
-1.33769
-1.23326
-1.14098
-1.06296
-1.00236
-0.960165
-0.938526
-0.934921
-0.950965
-0.983735
-1.03117
-1.67205
-1.75099
-1.78228
-1.76976
-1.71994
-1.64123
-1.5427
-1.43322
-1.32076
-1.21115
-1.11127
-1.02404
-0.953009
-0.899638
-0.866201
-0.850804
-0.85487
-0.875872
-0.911879
-1.58608
-1.67633
-1.72127
-1.7224
-1.68449
-1.61487
-1.52193
-1.41452
-1.30092
-1.18752
-1.08163
-0.986831
-0.907064
-0.844238
-0.800803
-0.775434
-0.769484
-0.780794
-0.807572
-1.51024
-1.6081
-1.66374
-1.67618
-1.64847
-1.58684
-1.4991
-1.39392
-1.27975
-1.16344
-1.05264
-0.951511
-0.864327
-0.793397
-0.741367
-0.707432
-0.692981
-0.696212
-0.715468
-1.43454
-1.54566
-1.61229
-1.63498
-1.61628
-1.56164
-1.47843
-1.37515
-1.26043
-1.14152
-1.02632
-0.919549
-0.825737
-0.747539
-0.687776
-0.646122
-0.624109
-0.620335
-0.633319
-1.35721
-1.48319
-1.56191
-1.59487
-1.58473
-1.53661
-1.45765
-1.3563
-1.2413
-1.12026
-1.00136
-0.889745
-0.790182
-0.705566
-0.638836
-0.590069
-0.561074
-0.551013
-0.558738
-1.29102
-1.42663
-1.51639
-1.55917
-1.55703
-1.51485
-1.43966
-1.33993
-1.2246
-1.1016
-0.979375
-0.863434
-0.758736
-0.668308
-0.595072
-0.539309
-0.503154
-0.486618
-0.489432
-1.23267
-1.37712
-1.47687
-1.5289
-1.53431
-1.49763
-1.42584
-1.32749
-1.21174
-1.08689
-0.961578
-0.841696
-0.732354
-0.636628
-0.557238
-0.49429
-0.449943
-0.42523
-0.422061
-1.17945
-1.33391
-1.4435
-1.50439
-1.51696
-1.48544
-1.41677
-1.31969
-1.20356
-1.077
-0.948879
-0.825407
-0.711876
-0.611416
-0.526427
-0.456316
-0.402296
-0.365226
-0.350876
-1.13271
-1.29738
-1.41612
-1.48445
-1.5025
-1.47423
-1.40697
-1.30955
-1.19175
-1.0626
-0.930765
-0.803238
-0.685389
-0.580568
-0.490764
-0.414782
-0.351246
-0.297056
-0.250314
-1.09548
-1.26964
-1.39896
-1.47806
-1.50704
-1.48922
-1.43187
-1.34315
-1.23243
-1.10875
-0.979698
-0.852888
-0.733484
-0.625768
-0.53201
-0.452065
-0.383113
-0.320159
-0.25446
-1.07032
-1.25003
-1.38487
-1.47042
-1.50684
-1.49708
-1.44806
-1.36731
-1.26357
-1.14543
-1.0194
-0.893051
-0.771449
-0.659538
-0.560525
-0.476358
-0.405514
-0.34565
-0.291735
-1.07088
-1.2518
-1.3887
-1.47777
-1.51916
-1.51594
-1.47453
-1.40213
-1.30675
-1.19615
-1.07602
-0.952876
-0.831311
-0.716433
-0.612496
-0.522988
-0.448037
-0.386504
-0.33436
-1.10014
-1.27762
-1.41195
-1.50008
-1.54241
-1.54237
-1.50609
-1.44052
-1.35306
-1.25062
-1.1379
-1.02006
-0.900548
-0.783957
-0.675154
-0.579228
-0.498281
-0.432591
-0.378764
-1.15545
-1.32697
-1.45479
-1.53801
-1.57775
-1.57791
-1.54453
-1.48438
-1.4043
-1.31049
-1.20664
-1.09643
-0.981614
-0.865339
-0.752185
-0.648663
-0.559349
-0.486786
-0.428484
-1.23568
-1.39611
-1.51342
-1.58838
-1.62272
-1.62077
-1.5886
-1.53277
-1.45971
-1.37506
-1.28168
-1.18199
-1.07573
-0.963614
-0.848377
-0.736917
-0.63644
-0.553336
-0.487267
-1.34008
-1.4842
-1.58832
-1.65269
-1.6796
-1.6738
-1.64146
-1.58894
-1.52228
-1.44685
-1.36501
-1.27855
-1.18545
-1.08353
-0.971614
-0.854444
-0.74013
-0.640571
-0.560944
-1.45495
-1.58505
-1.67517
-1.72748
-1.74555
-1.73471
-1.70122
-1.65114
-1.5902
-1.52365
-1.45374
-1.38258
-1.3076
-1.2245
-1.12702
-1.01412
-0.888748
-0.765459
-0.660511
-1.58752
-1.70101
-1.77469
-1.81293
-1.82061
-1.80348
-1.76777
-1.71908
-1.66266
-1.60368
-1.54446
-1.48827
-1.43376
-1.37733
-1.30981
-1.22405
-1.10969
-0.969959
-0.811439
-1.74363
-1.836
-1.89062
-1.91341
-1.91021
-1.88697
-1.8495
-1.80279
-1.75147
-1.70033
-1.65193
-1.61056
-1.57743
-1.55307
-1.53215
-1.50985
-1.46993
-1.40253
-1.29657
-1.91919
-1.98621
-2.01642
-2.01861
-1.99942
-1.96478
-1.9196
-1.86815
-1.81413
-1.7611
-1.71149
-1.66856
-1.63443
-1.6118
-1.60165
-1.60727
-1.62524
-1.65185
-1.67905
-2.11927
-2.15088
-2.15102
-2.12939
-2.09217
-2.04471
-1.99078
-1.93401
-1.87731
-1.82312
-1.77393
-1.73151
-1.69756
-1.67348
-1.66067
-1.66067
-1.67556
-1.70757
-1.75987
-2.34145
-2.32838
-2.29617
-2.25106
-2.19717
-2.13839
-2.07736
-2.01684
-1.95904
-1.90568
-1.8588
-1.8193
-1.78812
-1.76541
-1.75114
-1.7438
-1.74247
-1.74474
-1.7488
-2.54886
-2.49197
-2.42845
-2.36054
-2.29024
-2.21978
-2.1508
-2.08509
-2.02413
-1.969
-1.92103
-1.88063
-1.84809
-1.82311
-1.80526
-1.79316
-1.78596
-1.78211
-1.78046
-2.72129
-2.6312
-2.54237
-2.4555
-2.37134
-2.29093
-2.21508
-2.14476
-2.08085
-2.02394
-1.97482
-1.93364
-1.90037
-1.87457
-1.85571
-1.84262
-1.83443
-1.82984
-1.82774
-2.86066
-2.74362
-2.63432
-2.53216
-2.43684
-2.34842
-2.267
-2.19289
-2.12652
-2.06809
-2.01803
-1.97635
-1.94279
-1.91687
-1.89796
-1.88502
-1.87709
-1.87299
-1.87158
-2.96238
-2.8248
-2.69994
-2.58643
-2.48301
-2.38886
-2.30351
-2.22675
-2.15867
-2.09924
-2.04862
-2.00675
-1.97324
-1.94754
-1.92898
-1.91652
-1.90908
-1.90548
-1.9045
-3.02678
-2.87066
-2.73495
-2.61459
-2.50667
-2.40949
-2.32212
-2.24403
-2.17512
-2.11523
-2.0644
-2.02253
-1.98918
-1.9638
-1.94569
-1.93387
-1.92724
-1.92465
-1.92486
-3.0268
-2.87068
-2.73498
-2.61463
-2.50671
-2.40953
-2.32216
-2.24407
-2.17516
-2.11527
-2.06444
-2.02258
-1.98923
-1.96384
-1.94574
-1.93392
-1.92729
-1.9247
-1.92491
-2.9624
-2.82486
-2.70002
-2.58652
-2.48311
-2.38897
-2.30362
-2.22686
-2.15878
-2.09935
-2.04874
-2.00687
-1.97336
-1.94768
-1.92912
-1.91667
-1.90924
-1.90565
-1.9047
-2.8607
-2.74371
-2.63444
-2.53231
-2.437
-2.34859
-2.26717
-2.19307
-2.1267
-2.06828
-2.01822
-1.97654
-1.943
-1.91708
-1.89818
-1.88526
-1.87734
-1.87326
-1.87186
-2.72134
-2.63132
-2.54253
-2.45568
-2.37154
-2.29114
-2.2153
-2.14498
-2.08108
-2.02418
-1.97506
-1.93389
-1.90063
-1.87483
-1.85597
-1.8429
-1.83471
-1.83013
-1.82804
-2.54892
-2.4921
-2.42863
-2.36076
-2.29047
-2.22003
-2.15106
-2.08536
-2.02441
-1.96929
-1.92132
-1.88093
-1.84839
-1.82341
-1.80556
-1.79347
-1.78627
-1.78242
-1.78077
-2.34151
-2.32853
-2.29636
-2.25129
-2.19743
-2.13867
-2.07765
-2.01714
-1.95935
-1.906
-1.85913
-1.81964
-1.78845
-1.76573
-1.75145
-1.74409
-1.74271
-1.74494
-1.74895
-2.11934
-2.15104
-2.15125
-2.12968
-2.09252
-2.04511
-1.99123
-1.9345
-1.87785
-1.82371
-1.77457
-1.73221
-1.69833
-1.6743
-1.66154
-1.66155
-1.67633
-1.70809
-1.75987
-1.91923
-1.98624
-2.01645
-2.01865
-1.99946
-1.96482
-1.91963
-1.86816
-1.81411
-1.76103
-1.71137
-1.66835
-1.63409
-1.61129
-1.60096
-1.60643
-1.62443
-1.65144
-1.67963
-1.74365
-1.83608
-1.89076
-1.91362
-1.91049
-1.88733
-1.84994
-1.80331
-1.75206
-1.701
-1.65268
-1.61139
-1.57838
-1.55421
-1.53359
-1.51179
-1.47261
-1.40615
-1.30125
-1.58753
-1.70103
-1.77473
-1.81301
-1.82073
-1.80366
-1.768
-1.71936
-1.663
-1.60406
-1.5449
-1.48878
-1.43438
-1.37811
-1.31082
-1.22532
-1.11118
-0.97145
-0.812551
-1.45495
-1.58505
-1.67519
-1.72754
-1.74566
-1.73487
-1.70144
-1.65143
-1.59055
-1.52406
-1.45422
-1.38314
-1.30828
-1.22532
-1.12798
-1.01517
-0.889785
-0.766356
-0.661223
-1.34008
-1.48419
-1.58832
-1.65273
-1.67969
-1.67394
-1.64167
-1.5892
-1.5226
-1.44725
-1.36548
-1.2791
-1.1861
-1.08427
-0.97241
-0.855239
-0.740854
-0.641186
-0.561457
-1.23568
-1.39609
-1.51342
-1.5884
-1.62279
-1.62089
-1.58878
-1.53302
-1.46002
-1.37543
-1.28212
-1.18251
-1.07631
-0.964243
-0.849017
-0.737524
-0.636978
-0.5538
-0.487673
-1.15545
-1.32695
-1.45477
-1.53801
-1.5778
-1.57801
-1.54469
-1.4846
-1.40458
-1.31084
-1.20705
-1.09689
-0.982121
-0.865866
-0.752702
-0.64914
-0.559772
-0.487159
-0.428826
-1.10014
-1.27759
-1.41193
-1.50008
-1.54245
-1.54245
-1.50623
-1.44072
-1.35332
-1.25094
-1.13827
-1.02046
-0.900981
-0.784395
-0.675573
-0.579612
-0.498627
-0.432907
-0.379071
-1.07087
-1.25177
-1.38867
-1.47776
-1.51918
-1.51601
-1.47465
-1.4023
-1.30698
-1.19643
-1.07634
-0.953229
-0.831678
-0.716797
-0.61284
-0.523305
-0.448329
-0.386786
-0.334657
-1.07031
-1.25
-1.38483
-1.47039
-1.50683
-1.49711
-1.44812
-1.36741
-1.26371
-1.14561
-1.01961
-0.893275
-0.771677
-0.659757
-0.560725
-0.47654
-0.405688
-0.345846
-0.292013
-1.0955
-1.26966
-1.39898
-1.47809
-1.50709
-1.48929
-1.43197
-1.34328
-1.2326
-1.10894
-0.97992
-0.853131
-0.733739
-0.62603
-0.532269
-0.452319
-0.383356
-0.320383
-0.254647
-1.13274
-1.29741
-1.41615
-1.48446
-1.50249
-1.4742
-1.40693
-1.30949
-1.19167
-1.06251
-0.930672
-0.803141
-0.685291
-0.58047
-0.490664
-0.41468
-0.351137
-0.296935
-0.250171
-1.17947
-1.33392
-1.44352
-1.5044
-1.51697
-1.48545
-1.41678
-1.31969
-1.20356
-1.077
-0.948875
-0.825404
-0.711875
-0.611416
-0.526428
-0.45632
-0.402304
-0.365238
-0.350891
-1.23269
-1.37713
-1.47688
-1.52891
-1.53431
-1.49763
-1.42583
-1.32748
-1.21173
-1.08688
-0.961568
-0.841687
-0.732348
-0.636624
-0.557237
-0.494292
-0.449949
-0.425238
-0.422071
-1.29103
-1.42665
-1.51639
-1.55917
-1.55703
-1.51485
-1.43966
-1.33992
-1.22459
-1.1016
-0.979368
-0.863428
-0.758732
-0.668306
-0.595072
-0.539312
-0.503159
-0.486624
-0.489438
-1.35722
-1.48319
-1.56191
-1.59487
-1.58473
-1.53661
-1.45765
-1.35629
-1.24129
-1.12025
-1.00136
-0.889741
-0.790179
-0.705565
-0.638837
-0.590071
-0.561078
-0.551017
-0.558741
-1.43455
-1.54567
-1.61229
-1.63498
-1.61628
-1.56164
-1.47842
-1.37515
-1.26043
-1.14151
-1.02632
-0.919546
-0.825736
-0.747539
-0.687777
-0.646124
-0.624111
-0.620337
-0.633321
-1.51025
-1.6081
-1.66374
-1.67618
-1.64847
-1.58684
-1.4991
-1.39391
-1.27974
-1.16344
-1.05263
-0.951509
-0.864326
-0.793397
-0.741368
-0.707433
-0.692983
-0.696213
-0.715469
-1.58609
-1.67633
-1.72127
-1.7224
-1.68449
-1.61486
-1.52193
-1.41452
-1.30092
-1.18752
-1.08162
-0.98683
-0.907064
-0.844238
-0.800804
-0.775434
-0.769484
-0.780794
-0.807571
-1.67205
-1.75099
-1.78228
-1.76976
-1.71994
-1.64123
-1.5427
-1.43322
-1.32076
-1.21115
-1.11127
-1.02404
-0.953009
-0.899638
-0.8662
-0.850804
-0.854868
-0.87587
-0.911878
-1.76628
-1.82853
-1.84303
-1.8144
-1.75103
-1.66258
-1.5586
-1.44781
-1.33769
-1.23326
-1.14098
-1.06296
-1.00236
-0.960164
-0.938525
-0.93492
-0.950963
-0.983732
-1.03117
-1.86188
-1.90638
-1.90108
-1.85369
-1.77542
-1.67715
-1.56854
-1.45783
-1.35172
-1.25428
-1.17152
-1.10461
-1.0564
-1.02736
-1.01963
-1.02997
-1.06035
-1.10745
-1.16911
-1.96404
-1.9861
-1.95537
-1.88607
-1.79199
-1.68452
-1.57277
-1.46407
-1.3641
-1.27577
-1.2047
-1.15104
-1.1174
-1.10376
-1.11234
-1.13911
-1.18665
-1.25116
-1.33057
-2.07748
-2.06099
-1.99841
-1.90541
-1.79623
-1.68172
-1.56954
-1.46578
-1.37483
-1.29828
-1.24161
-1.20378
-1.18732
-1.19174
-1.21958
-1.26582
-1.33401
-1.41991
-1.52173
-2.168
-2.10853
-2.01366
-1.89909
-1.77856
-1.66169
-1.5537
-1.45924
-1.38128
-1.32001
-1.28112
-1.26226
-1.26619
-1.29195
-1.34274
-1.41245
-1.50612
-1.61912
-1.7503
-2.23959
-2.13854
-2.01084
-1.8773
-1.74975
-1.63522
-1.53561
-1.45414
-1.39239
-1.34922
-1.331
-1.33397
-1.36137
-1.41188
-1.48972
-1.58745
-1.71232
-1.85943
-2.02912
-2.29498
-2.13635
-1.97648
-1.83078
-1.70375
-1.59837
-1.51264
-1.44875
-1.40718
-1.38562
-1.39169
-1.42012
-1.47502
-1.55482
-1.66523
-1.79732
-1.96153
-2.15296
-2.37514
-2.28138
-2.06982
-1.8921
-1.74831
-1.63282
-1.54507
-1.47955
-1.43838
-1.42139
-1.42535
-1.45984
-1.51802
-1.60538
-1.72031
-1.87085
-2.04642
-2.2623
-2.51437
-2.81306
-2.18295
-1.94784
-1.77355
-1.64602
-1.55131
-1.48744
-1.44652
-1.4316
-1.44241
-1.47512
-1.54195
-1.63447
-1.7602
-1.91776
-2.11862
-2.35052
-2.63589
-2.97285
-3.38798
-1.98118
-1.76181
-1.61533
-1.51846
-1.45319
-1.41885
-1.4066
-1.42132
-1.46322
-1.52823
-1.63189
-1.76449
-1.93635
-2.147
-2.41298
-2.72094
-3.10431
-3.56675
-4.17508
-1.67718
-1.52017
-1.42339
-1.36799
-1.33807
-1.33687
-1.35588
-1.40252
-1.47795
-1.5784
-1.72345
-1.9027
-2.13048
-2.40852
-2.76122
-3.17585
-3.7037
-4.36075
-5.32126
-1.29656
-1.23646
-1.20265
-1.19427
-1.20256
-1.23592
-1.28715
-1.36644
-1.47647
-1.61436
-1.80463
-2.03734
-2.33269
-2.69713
-3.16786
-3.7373
-4.48778
-5.46219
-7.13474
-0.885404
-0.927757
-0.958015
-0.996569
-1.04282
-1.10994
-1.19232
-1.3028
-1.446
-1.62075
-1.85756
-2.14875
-2.52336
-2.99743
-3.63011
-4.42993
-5.5375
-7.05554
-10.3161
-0.494213
-0.611604
-0.694818
-0.775161
-0.856538
-0.954609
-1.06478
-1.20211
-1.37314
-1.57936
-1.85845
-2.20692
-2.66727
-3.27426
-4.12586
-5.27249
-6.97335
-9.4713
-16.5608
-0.162087
-0.30183
-0.417987
-0.531841
-0.644026
-0.769011
-0.901494
-1.05821
-1.24638
-1.47133
-1.77878
-2.16957
-2.70759
-3.46927
-4.64602
-6.47451
-9.73262
-15.7364
-37.1748
)
;

boundaryField
{
    up
    {
        type            calculated;
        value           nonuniform List<scalar> 
84
(
-33.6873
-18.2448
-11.2006
-7.64925
-5.64969
-4.40047
-3.55104
-2.9356
-2.46931
-2.10306
-1.80881
-1.5682
-1.36779
-1.1989
-1.05496
-0.930842
-0.822631
-0.727354
-0.64261
-0.565984
-0.495005
-0.425705
-0.348213
-0.225262
-0.218597
-0.275878
-0.319316
-0.362968
-0.411062
-0.46721
-0.535908
-0.622696
-0.753165
-1.29228
-1.7335
-1.79317
-1.74873
-1.7791
-1.82664
-1.87111
-1.90443
-1.92553
-1.92558
-1.90463
-1.8714
-1.82694
-1.77941
-1.74887
-1.79276
-1.73414
-1.29778
-0.754196
-0.623322
-0.536392
-0.467604
-0.4114
-0.363276
-0.319621
-0.276262
-0.218849
-0.225113
-0.348229
-0.425714
-0.49501
-0.565988
-0.642613
-0.727355
-0.82263
-0.93084
-1.05496
-1.19889
-1.36779
-1.5682
-1.80881
-2.10306
-2.46931
-2.9356
-3.55104
-4.40047
-5.64969
-7.64925
-11.2006
-18.2448
-33.6873
)
;
    }
    low
    {
        type            calculated;
        value           nonuniform List<scalar> 
84
(
-0.17379
-0.515862
-0.932714
-1.37674
-1.78875
-2.11417
-2.32146
-2.41116
-2.39918
-2.31032
-2.22075
-2.11262
-1.97528
-1.85973
-1.75632
-1.65174
-1.55688
-1.47845
-1.39761
-1.30853
-1.23346
-1.16841
-1.10697
-1.05252
-1.00141
-0.970328
-0.972043
-1.01099
-1.07879
-1.17495
-1.29347
-1.41771
-1.56153
-1.73117
-1.91817
-2.13391
-2.37834
-2.6006
-2.78257
-2.93018
-3.03857
-3.11164
-3.11165
-3.03858
-2.9302
-2.7826
-2.60063
-2.37837
-2.13395
-1.91816
-1.73119
-1.56152
-1.41771
-1.29346
-1.17495
-1.07878
-1.011
-0.97205
-0.97034
-1.00143
-1.05256
-1.10698
-1.16843
-1.23347
-1.30854
-1.39761
-1.47846
-1.55688
-1.65174
-1.75632
-1.85972
-1.97527
-2.11261
-2.22074
-2.31032
-2.39918
-2.41116
-2.32147
-2.11418
-1.78877
-1.37675
-0.932722
-0.515866
-0.173792
)
;
    }
    left
    {
        type            calculated;
        value           nonuniform List<scalar> 
19
(
-0.158951
-0.296052
-0.414323
-0.531709
-0.648283
-0.778106
-0.916241
-1.08033
-1.27791
-1.51702
-1.84561
-2.26679
-2.85313
-3.6962
-5.01084
-7.08708
-10.8307
-17.8115
-34.9415
)
;
    }
    right
    {
        type            calculated;
        value           nonuniform List<scalar> 
19
(
-0.158952
-0.296052
-0.414323
-0.531709
-0.648283
-0.778107
-0.916242
-1.08033
-1.27791
-1.51701
-1.84561
-2.26678
-2.85313
-3.6962
-5.01083
-7.08708
-10.8307
-17.8115
-34.9415
)
;
    }
    frontAndBackPlanes
    {
        type            empty;
    }
}


// ************************************************************************* //
