/*--------------------------------*- C++ -*----------------------------------*\
  =========                 |
  \\      /  F ield         | OpenFOAM: The Open Source CFD Toolbox
   \\    /   O peration     | Website:  https://openfoam.org
    \\  /    A nd           | Version:  7
     \\/     M anipulation  |
\*---------------------------------------------------------------------------*/
FoamFile
{
    version     2.0;
    format      ascii;
    class       volScalarField;
    location    "0.21";
    object      gradTy;
}
// * * * * * * * * * * * * * * * * * * * * * * * * * * * * * * * * * * * * * //

dimensions      [0 -1 0 1 0 0 0];

internalField   nonuniform List<scalar> 
1596
(
-0.588029
-1.09076
-1.49982
-1.88882
-2.25701
-2.65276
-3.05431
-3.51659
-4.06039
-4.70075
-5.58347
-6.70736
-8.27133
-10.5084
-13.9985
-19.4527
-29.2081
-47.2109
-111.525
-1.78954
-2.20218
-2.47634
-2.72343
-2.95659
-3.23065
-3.52845
-3.90126
-4.36966
-4.93757
-5.72754
-6.72543
-8.06467
-9.85089
-12.3818
-15.8061
-20.9041
-28.4005
-49.6764
-3.19852
-3.33041
-3.39874
-3.47716
-3.56451
-3.70843
-3.88986
-4.15408
-4.51673
-4.97413
-5.62756
-6.45028
-7.53482
-8.9294
-10.8147
-13.2115
-16.5437
-21.1143
-30.9165
-4.67022
-4.42569
-4.25165
-4.14728
-4.08384
-4.09321
-4.15212
-4.29768
-4.54025
-4.87119
-5.37368
-6.0144
-6.85897
-7.92641
-9.33146
-11.0453
-13.3174
-16.2698
-21.3218
-6.02123
-5.42586
-5.01851
-4.73612
-4.52619
-4.40317
-4.34024
-4.36563
-4.48545
-4.68854
-5.04283
-5.514
-6.14979
-6.955
-8.00619
-9.25854
-10.869
-12.8785
-15.8061
-7.08787
-6.27126
-5.6836
-5.24831
-4.90679
-4.6607
-4.48278
-4.39312
-4.39509
-4.47693
-4.69379
-5.01395
-5.47288
-6.06893
-6.85537
-7.78557
-8.96357
-10.3933
-12.2716
-7.78368
-6.91566
-6.23035
-5.68519
-5.23723
-4.88437
-4.60345
-4.40856
-4.30202
-4.27303
-4.36606
-4.55397
-4.86344
-5.29035
-5.87293
-6.56843
-7.44827
-8.50041
-9.80117
-8.11126
-7.33153
-6.63783
-6.03726
-5.51687
-5.0801
-4.71284
-4.4263
-4.22356
-4.0961
-4.07967
-4.15258
-4.33512
-4.62265
-5.04324
-5.55995
-6.22298
-7.01445
-7.96271
-8.14227
-7.55253
-6.92598
-6.32227
-5.76389
-5.26699
-4.83024
-4.46551
-4.17844
-3.96385
-3.85085
-3.8233
-3.89681
-4.06716
-4.35527
-4.73006
-5.22714
-5.82739
-6.53882
-7.93671
-7.54969
-7.03946
-6.48257
-5.92614
-5.40059
-4.91832
-4.49507
-4.14053
-3.8537
-3.65924
-3.54627
-3.52727
-3.59898
-3.77737
-4.03698
-4.40348
-4.85886
-5.40226
-7.68247
-7.43804
-7.04354
-6.55566
-6.02706
-5.49674
-4.98866
-4.5237
-4.11641
-3.77053
-3.50812
-3.32313
-3.22608
-3.21484
-3.30182
-3.46639
-3.7271
-4.06779
-4.48373
-7.3698
-7.27098
-6.98766
-6.57565
-6.08836
-5.56879
-5.04912
-4.55534
-4.10697
-3.71259
-3.39323
-3.14719
-2.98388
-2.90238
-2.91254
-2.99777
-3.1714
-3.41934
-3.73534
-6.98346
-7.01416
-6.83882
-6.50825
-6.07388
-5.5804
-5.06483
-4.55757
-4.08249
-3.65273
-3.28946
-2.99478
-2.77779
-2.63882
-2.58604
-2.60626
-2.70919
-2.88282
-3.12052
-6.6424
-6.74585
-6.65443
-6.39687
-6.01564
-5.55391
-5.05057
-4.53927
-4.04742
-3.59207
-3.19526
-2.86225
-2.60235
-2.41702
-2.31328
-2.28065
-2.32626
-2.43991
-2.61518
-6.32818
-6.48895
-6.46106
-6.26376
-5.93035
-5.50045
-5.01278
-4.503
-4.00118
-3.52761
-3.10551
-2.74277
-2.44912
-2.22701
-2.08268
-2.00774
-2.00744
-2.07313
-2.19885
-6.02056
-6.23689
-6.26236
-6.1151
-5.82308
-5.42274
-4.95171
-4.44679
-3.93998
-3.45416
-3.01378
-2.62884
-2.3096
-2.0593
-1.88358
-1.77567
-1.73942
-1.76745
-1.85433
-5.74246
-5.9973
-6.06588
-5.95962
-5.702
-5.32708
-4.87137
-4.37238
-3.86356
-3.36981
-2.91671
-2.51591
-2.17812
-1.90714
-1.7081
-1.57538
-1.51175
-1.51084
-1.56769
-5.49929
-5.78144
-5.88385
-5.81038
-5.58022
-5.22537
-4.78174
-4.28747
-3.7773
-3.27783
-2.8156
-2.40355
-2.05268
-1.76706
-1.55128
-1.40047
-1.31651
-1.29375
-1.32765
-5.25381
-5.58628
-5.72524
-5.68141
-5.47394
-5.13418
-4.69842
-4.20581
-3.69261
-3.18718
-2.71692
-2.29591
-1.93521
-1.63898
-1.41108
-1.24705
-1.14796
-1.10873
-1.1251
-4.99856
-5.38967
-5.5713
-5.55839
-5.37225
-5.04526
-4.61509
-4.12252
-3.60561
-3.09458
-2.61773
-2.1901
-1.82273
-1.51954
-1.28354
-1.1103
-1.00021
-0.948703
-0.951916
-4.77929
-5.21154
-5.43356
-5.45104
-5.28458
-4.96781
-4.54043
-4.04545
-3.52314
-3.00577
-2.52259
-2.08954
-1.71748
-1.40987
-1.1686
-0.9888
-0.870113
-0.808643
-0.801481
-4.58365
-5.05503
-5.31495
-5.36184
-5.21404
-4.9058
-4.47917
-3.97973
-3.4504
-2.92568
-2.43588
-1.99785
-1.62222
-1.31186
-1.06724
-0.882409
-0.755721
-0.683927
-0.666653
-4.40139
-4.91659
-5.21475
-5.29065
-5.16088
-4.86023
-4.43314
-3.92804
-3.39066
-2.85791
-2.36119
-1.91831
-1.53973
-1.22775
-0.981331
-0.792646
-0.657369
-0.570923
-0.537499
-4.23748
-4.7965
-5.13052
-5.23112
-5.11455
-4.81615
-4.38401
-3.8692
-3.32078
-2.77848
-2.27362
-1.82604
-1.4456
-1.1342
-0.889008
-0.700563
-0.559282
-0.453635
-0.374745
-4.10348
-4.7032
-5.08015
-5.22107
-5.14121
-4.87317
-4.46535
-3.96757
-3.42929
-2.89178
-2.38492
-1.93147
-1.54131
-1.21878
-0.961813
-0.763121
-0.610522
-0.489549
-0.380437
-4.0093
-4.63371
-5.0368
-5.2075
-5.1595
-4.92253
-4.54272
-4.0675
-3.54486
-3.01606
-2.50954
-2.04968
-1.6473
-1.30897
-1.03486
-0.821705
-0.659203
-0.536866
-0.440294
-4.00473
-4.63283
-5.04554
-5.23299
-5.20732
-4.99658
-4.64358
-4.1933
-3.69117
-3.17667
-2.67702
-2.21573
-1.80388
-1.44966
-1.15618
-0.923889
-0.745604
-0.612944
-0.512738
-4.10013
-4.70992
-5.11132
-5.29683
-5.27833
-5.08291
-4.75036
-4.3229
-3.84278
-3.34681
-2.85994
-2.40356
-1.98742
-1.61989
-1.30642
-1.05176
-0.85295
-0.704548
-0.594151
-4.28422
-4.86289
-5.2357
-5.40314
-5.37864
-5.1888
-4.87078
-4.46375
-4.00648
-3.53271
-3.06434
-2.61993
-2.20624
-1.82981
-1.49665
-1.21584
-0.990158
-0.819317
-0.692434
-4.55082
-5.07747
-5.40598
-5.54281
-5.5025
-5.31113
-5.00348
-4.61547
-4.18227
-3.73454
-3.29092
-2.86712
-2.4658
-2.08929
-1.74072
-1.43163
-1.17132
-0.9686
-0.817068
-4.89469
-5.35009
-5.62476
-5.72312
-5.66048
-5.46239
-5.16163
-4.79081
-4.3816
-3.96192
-3.54762
-3.15251
-2.77537
-2.41273
-2.06017
-1.7262
-1.42329
-1.17366
-0.983139
-5.26357
-5.6577
-5.87758
-5.93401
-5.84567
-5.63817
-5.34245
-4.98773
-4.60236
-4.21189
-3.83014
-3.47094
-3.13136
-2.80347
-2.47203
-2.13422
-1.79244
-1.47686
-1.21879
-5.68189
-6.00794
-6.1669
-6.17656
-6.0589
-5.83929
-5.54652
-5.20621
-4.84322
-4.48089
-4.13142
-3.8105
-3.51724
-3.2451
-2.97198
-2.68213
-2.34886
-1.97957
-1.5865
-6.16835
-6.41384
-6.50579
-6.46627
-6.31923
-6.08912
-5.8016
-5.47851
-5.14092
-4.80943
-4.49534
-4.21575
-3.97509
-3.7759
-3.60398
-3.44821
-3.2671
-3.03863
-2.73567
-6.70558
-6.85942
-6.86839
-6.76354
-6.57067
-6.31316
-6.01261
-5.68749
-5.35489
-5.03085
-4.72575
-4.45327
-4.22012
-4.03409
-3.89591
-3.81279
-3.77123
-3.75997
-3.75486
-7.30984
-7.34063
-7.24858
-7.06691
-6.81922
-6.52631
-6.20537
-5.87214
-5.54056
-5.22265
-4.92866
-4.66772
-4.44562
-4.26708
-4.13487
-4.05269
-4.02189
-4.04608
-4.12871
-7.97446
-7.85631
-7.65825
-7.40148
-7.10236
-6.77668
-6.43757
-6.0978
-5.76873
-5.45983
-5.18008
-4.9358
-4.73086
-4.56684
-4.4433
-4.35624
-4.30045
-4.26832
-4.25198
-8.57975
-8.32266
-8.02661
-7.69999
-7.35234
-6.99441
-6.63589
-6.28647
-5.95511
-5.6491
-5.37531
-5.13839
-4.94037
-4.78138
-4.65982
-4.5715
-4.51133
-4.47326
-4.45096
-9.06782
-8.71193
-8.34061
-7.95851
-7.57174
-7.18762
-6.81326
-6.45584
-6.12238
-5.81843
-5.54929
-5.31848
-5.12696
-4.97419
-4.85817
-4.77476
-4.7189
-4.68491
-4.66661
-9.45576
-9.02276
-8.59266
-8.16722
-7.7499
-7.34535
-6.95858
-6.59481
-6.25953
-5.95699
-5.69141
-5.46549
-5.27951
-5.13248
-5.02215
-4.94429
-4.89382
-4.86515
-4.85218
-9.73731
-9.2465
-8.77222
-8.31499
-7.87578
-7.45688
-7.06152
-6.69342
-6.35699
-6.05559
-5.79269
-5.5705
-5.38883
-5.24641
-5.14073
-5.06744
-5.02125
-4.99648
-4.98691
-9.92038
-9.37414
-8.86806
-8.39133
-7.93989
-7.51341
-7.11374
-6.74362
-6.40684
-6.10626
-5.845
-5.62502
-5.44593
-5.30635
-5.20375
-5.13381
-5.09125
-5.07043
-5.06508
-9.92042
-9.37423
-8.86817
-8.39145
-7.94002
-7.51355
-7.11388
-6.74376
-6.40699
-6.10641
-5.84516
-5.62518
-5.4461
-5.30653
-5.20394
-5.13401
-5.09146
-5.07064
-5.0653
-9.73738
-9.24668
-8.77247
-8.31528
-7.8761
-7.45722
-7.06188
-6.6938
-6.35739
-6.05601
-5.79313
-5.57096
-5.38932
-5.24692
-5.14127
-5.06803
-5.02189
-4.99718
-4.98767
-9.45587
-9.02303
-8.59304
-8.16768
-7.75041
-7.34591
-6.95917
-6.59542
-6.26017
-5.95766
-5.69212
-5.46623
-5.28029
-5.13331
-5.02302
-4.94523
-4.89482
-4.86622
-4.85333
-9.06797
-8.71228
-8.3411
-7.9591
-7.57239
-7.18833
-6.81401
-6.45664
-6.12321
-5.8193
-5.5502
-5.31943
-5.12795
-4.97523
-4.85926
-4.7759
-4.7201
-4.68618
-4.66795
-8.57992
-8.32306
-8.02716
-7.70066
-7.35311
-6.99524
-6.63678
-6.28741
-5.9561
-5.65014
-5.3764
-5.13952
-4.94155
-4.78261
-4.6611
-4.57282
-4.51271
-4.4747
-4.45246
-7.97465
-7.85674
-7.65886
-7.40222
-7.1032
-6.77761
-6.43856
-6.09885
-5.76984
-5.461
-5.18129
-4.93707
-4.73216
-4.56818
-4.44465
-4.35758
-4.30178
-4.26961
-4.25324
-7.31005
-7.34113
-7.24933
-7.06788
-6.82037
-6.52764
-6.20686
-5.87378
-5.54235
-5.22459
-4.93076
-4.66998
-4.44806
-4.2697
-4.13766
-4.05553
-4.02458
-4.04826
-4.12985
-6.70571
-6.8595
-6.86851
-6.76373
-6.57092
-6.31347
-6.01297
-5.68788
-5.35528
-5.0312
-4.72601
-4.45336
-4.21998
-4.03362
-3.89511
-3.81174
-3.77038
-3.76021
-3.75756
-6.16841
-6.41413
-6.50633
-6.46709
-6.32037
-6.09059
-5.80339
-5.4806
-5.14328
-4.81203
-4.49817
-4.21879
-3.97839
-3.77958
-3.60831
-3.4536
-3.27407
-3.04766
-2.74702
-5.68191
-6.00799
-6.16708
-6.17694
-6.0595
-5.84013
-5.5476
-5.20752
-4.84473
-4.48256
-4.13324
-3.81247
-3.51943
-3.2476
-2.97492
-2.6856
-2.3527
-1.98334
-1.58934
-5.26357
-5.65771
-5.8777
-5.93432
-5.84621
-5.63897
-5.3435
-4.98902
-4.60386
-4.21357
-3.83198
-3.47295
-3.13357
-2.80592
-2.4747
-2.13702
-1.79511
-1.47914
-1.22057
-4.89468
-5.35005
-5.62481
-5.72334
-5.66093
-5.4631
-5.1626
-4.79201
-4.38301
-3.96351
-3.54936
-3.1544
-2.77739
-2.41486
-2.06234
-1.72829
-1.42514
-1.17519
-0.984377
-4.55079
-5.0774
-5.40598
-5.54297
-5.50288
-5.31176
-5.00436
-4.61658
-4.18358
-3.73601
-3.29252
-2.86882
-2.46757
-2.09108
-1.74244
-1.4332
-1.17266
-0.969719
-0.818004
-4.28418
-4.8628
-5.23565
-5.40323
-5.37894
-5.18934
-4.87157
-4.46476
-4.00767
-3.53405
-3.06578
-2.62143
-2.20776
-1.83129
-1.49802
-1.21705
-0.991186
-0.820182
-0.693182
-4.1001
-4.70982
-5.11125
-5.29688
-5.27858
-5.08338
-4.75106
-4.3238
-3.84385
-3.34801
-2.86121
-2.40486
-1.9887
-1.6211
-1.30752
-1.05271
-0.853762
-0.705248
-0.594784
-4.00468
-4.63272
-5.04546
-5.23302
-5.20753
-4.99699
-4.64419
-4.19409
-3.69211
-3.17771
-2.67812
-2.21683
-1.80495
-1.45065
-1.15706
-0.924656
-0.746267
-0.613538
-0.513313
-4.00926
-4.6336
-5.03669
-5.20746
-5.15959
-4.92277
-4.54312
-4.06804
-3.54551
-3.01679
-2.5103
-2.05044
-1.64802
-1.30963
-1.03543
-0.822197
-0.659633
-0.537287
-0.440804
-4.10356
-4.70324
-5.08021
-5.22117
-5.14138
-4.87342
-4.46568
-3.96798
-3.42977
-2.89232
-2.3855
-1.93207
-1.5419
-1.21935
-0.962357
-0.763631
-0.610989
-0.489961
-0.380757
-4.23756
-4.79658
-5.13057
-5.23111
-5.11448
-4.816
-4.3838
-3.86894
-3.32049
-2.77817
-2.27332
-1.82576
-1.44534
-1.13397
-0.888805
-0.700381
-0.559109
-0.453455
-0.37452
-4.40145
-4.91664
-5.21479
-5.29068
-5.1609
-4.86023
-4.43313
-3.92803
-3.39065
-2.8579
-2.36119
-1.91831
-1.53974
-1.22777
-0.981354
-0.792672
-0.6574
-0.570958
-0.53753
-4.58369
-5.05506
-5.31497
-5.36185
-5.21403
-4.90578
-4.47913
-3.9797
-3.45036
-2.92565
-2.43586
-1.99783
-1.62222
-1.31187
-1.06726
-0.882426
-0.755742
-0.683951
-0.666675
-4.77932
-5.21156
-5.43357
-5.45103
-5.28456
-4.96778
-4.54041
-4.04542
-3.52312
-3.00575
-2.52258
-2.08954
-1.71748
-1.40988
-1.16861
-0.988814
-0.870129
-0.80866
-0.801497
-4.99858
-5.38969
-5.57131
-5.55838
-5.37223
-5.04524
-4.61507
-4.1225
-3.60559
-3.09457
-2.61772
-2.1901
-1.82273
-1.51954
-1.28355
-1.11031
-1.00022
-0.948716
-0.951928
-5.25383
-5.58629
-5.72524
-5.6814
-5.47392
-5.13416
-4.6984
-4.2058
-3.6926
-3.18717
-2.71692
-2.29591
-1.93521
-1.63898
-1.41108
-1.24705
-1.14797
-1.10874
-1.12511
-5.4993
-5.78144
-5.88385
-5.81037
-5.5802
-5.22536
-4.78172
-4.28746
-3.77729
-3.27782
-2.8156
-2.40355
-2.05268
-1.76706
-1.55128
-1.40047
-1.31651
-1.29376
-1.32765
-5.74247
-5.9973
-6.06587
-5.95961
-5.70199
-5.32707
-4.87136
-4.37238
-3.86356
-3.3698
-2.91671
-2.5159
-2.17812
-1.90714
-1.7081
-1.57538
-1.51175
-1.51084
-1.56769
-6.02056
-6.23689
-6.26235
-6.1151
-5.82308
-5.42274
-4.95171
-4.44679
-3.93998
-3.45416
-3.01378
-2.62884
-2.3096
-2.0593
-1.88358
-1.77567
-1.73942
-1.76745
-1.85433
-6.32818
-6.48894
-6.46106
-6.26375
-5.93034
-5.50045
-5.01278
-4.503
-4.00118
-3.52761
-3.10551
-2.74276
-2.44912
-2.22701
-2.08268
-2.00774
-2.00743
-2.07312
-2.19884
-6.64239
-6.74583
-6.65442
-6.39687
-6.01564
-5.55391
-5.05057
-4.53928
-4.04742
-3.59207
-3.19526
-2.86225
-2.60235
-2.41702
-2.31328
-2.28065
-2.32625
-2.4399
-2.61517
-6.98344
-7.01415
-6.83881
-6.50825
-6.07389
-5.58041
-5.06484
-4.55757
-4.08249
-3.65273
-3.28946
-2.99477
-2.77779
-2.63882
-2.58604
-2.60625
-2.70917
-2.8828
-3.12051
-7.36977
-7.27096
-6.98765
-6.57566
-6.08837
-5.5688
-5.04912
-4.55535
-4.10696
-3.71259
-3.39323
-3.14718
-2.98388
-2.90237
-2.91253
-2.99776
-3.17138
-3.41931
-3.73533
-7.68244
-7.43803
-7.04355
-6.55567
-6.02707
-5.49675
-4.98866
-4.52371
-4.11642
-3.77053
-3.50812
-3.32313
-3.22608
-3.21483
-3.30181
-3.46638
-3.72708
-4.06776
-4.48372
-7.9367
-7.5497
-7.03948
-6.48258
-5.92616
-5.4006
-4.91832
-4.49508
-4.14053
-3.8537
-3.65924
-3.54627
-3.52727
-3.59897
-3.77736
-4.03696
-4.40346
-4.85883
-5.40225
-8.14227
-7.55255
-6.926
-6.32229
-5.7639
-5.267
-4.83025
-4.46551
-4.17844
-3.96385
-3.85085
-3.8233
-3.8968
-4.06716
-4.35525
-4.73004
-5.22712
-5.82737
-6.53882
-8.11128
-7.33155
-6.63785
-6.03728
-5.51688
-5.08011
-4.71285
-4.4263
-4.22357
-4.0961
-4.07967
-4.15258
-4.33512
-4.62264
-5.04323
-5.55994
-6.22296
-7.01444
-7.96272
-7.78371
-6.91569
-6.23037
-5.6852
-5.23725
-4.88438
-4.60346
-4.40856
-4.30203
-4.27303
-4.36606
-4.55396
-4.86344
-5.29034
-5.87292
-6.56842
-7.44826
-8.50041
-9.80119
-7.08791
-6.27128
-5.68362
-5.24833
-4.9068
-4.66071
-4.48279
-4.39313
-4.3951
-4.47693
-4.69379
-5.01395
-5.47287
-6.06891
-6.85535
-7.78556
-8.96357
-10.3933
-12.2717
-6.02127
-5.42588
-5.01853
-4.73613
-4.5262
-4.40318
-4.34025
-4.36564
-4.48546
-4.68854
-5.04283
-5.51399
-6.14978
-6.95498
-8.00618
-9.25854
-10.8691
-12.8785
-15.8061
-4.67025
-4.4257
-4.25166
-4.14729
-4.08385
-4.09323
-4.15214
-4.29769
-4.54025
-4.8712
-5.37368
-6.01439
-6.85896
-7.92639
-9.33145
-11.0453
-13.3174
-16.2698
-21.3218
-3.19854
-3.33042
-3.39874
-3.47717
-3.56452
-3.70844
-3.88987
-4.15409
-4.51674
-4.97413
-5.62756
-6.45027
-7.53481
-8.92939
-10.8147
-13.2114
-16.5437
-21.1143
-30.9165
-1.78955
-2.20218
-2.47634
-2.72344
-2.95659
-3.23065
-3.52845
-3.90127
-4.36967
-4.93757
-5.72754
-6.72542
-8.06466
-9.85087
-12.3818
-15.8061
-20.9041
-28.4005
-49.6764
-0.588032
-1.09076
-1.49982
-1.88882
-2.25701
-2.65276
-3.05431
-3.51659
-4.06039
-4.70075
-5.58347
-6.70735
-8.27132
-10.5084
-13.9985
-19.4527
-29.2081
-47.2109
-111.525
)
;

boundaryField
{
    up
    {
        type            calculated;
        value           nonuniform List<scalar> 
84
(
-101.065
-54.7365
-33.5849
-22.8872
-16.8182
-12.9773
-10.3199
-8.35756
-6.84446
-5.64181
-4.67116
-3.88102
-3.23329
-2.70144
-2.26397
-1.90285
-1.60327
-1.35323
-1.14297
-0.964039
-0.809262
-0.670411
-0.53139
-0.335714
-0.324422
-0.4125
-0.484264
-0.562251
-0.655144
-0.771863
-0.924375
-1.12827
-1.44508
-2.70228
-3.85473
-4.19176
-4.24303
-4.44165
-4.65985
-4.84838
-4.98502
-5.06558
-5.06581
-4.98581
-4.84958
-4.66123
-4.44318
-4.24429
-4.19201
-3.85766
-2.71548
-1.44774
-1.12984
-0.925525
-0.772753
-0.655867
-0.562871
-0.484839
-0.413165
-0.324828
-0.335466
-0.531415
-0.67043
-0.809276
-0.96405
-1.14298
-1.35323
-1.60327
-1.90285
-2.26397
-2.70143
-3.23328
-3.88102
-4.67116
-5.64182
-6.84448
-8.35759
-10.32
-12.9774
-16.8182
-22.8872
-33.5849
-54.7365
-101.065
)
;
    }
    low
    {
        type            calculated;
        value           nonuniform List<scalar> 
84
(
-0.631133
-1.87038
-3.37396
-4.96547
-6.42946
-7.5716
-8.28494
-8.57918
-8.51808
-8.1939
-7.87749
-7.50466
-7.03595
-6.64971
-6.30949
-5.96585
-5.65615
-5.40343
-5.1381
-4.83803
-4.58393
-4.36107
-4.14585
-3.9511
-3.76351
-3.64596
-3.64595
-3.77921
-4.01243
-4.34091
-4.73978
-5.14537
-5.60602
-6.1416
-6.71946
-7.37764
-8.11695
-8.76958
-9.28582
-9.69746
-9.99811
-10.2081
-10.2081
-9.99814
-9.69751
-9.2859
-8.76967
-8.11705
-7.37777
-6.71941
-6.14168
-5.60596
-5.14534
-4.73975
-4.34088
-4.0124
-3.77921
-3.64596
-3.64598
-3.76355
-3.95122
-4.14587
-4.36111
-4.58396
-4.83805
-5.13812
-5.40344
-5.65616
-5.96586
-6.30948
-6.64969
-7.03593
-7.50462
-7.87745
-8.19387
-8.51807
-8.57919
-8.28497
-7.57164
-6.4295
-4.96552
-3.37399
-1.8704
-0.631139
)
;
    }
    left
    {
        type            calculated;
        value           nonuniform List<scalar> 
19
(
-0.576843
-1.07041
-1.48751
-1.88944
-2.27305
-2.68499
-3.10431
-3.58874
-4.15976
-4.8408
-5.78452
-6.99635
-8.70217
-11.181
-15.0832
-21.2807
-32.4941
-53.4309
-104.823
)
;
    }
    right
    {
        type            calculated;
        value           nonuniform List<scalar> 
19
(
-0.576846
-1.07042
-1.48751
-1.88944
-2.27305
-2.68499
-3.10431
-3.58874
-4.15976
-4.8408
-5.78452
-6.99634
-8.70215
-11.1809
-15.0831
-21.2807
-32.4941
-53.4309
-104.823
)
;
    }
    frontAndBackPlanes
    {
        type            empty;
    }
}


// ************************************************************************* //
