/*--------------------------------*- C++ -*----------------------------------*\
  =========                 |
  \\      /  F ield         | OpenFOAM: The Open Source CFD Toolbox
   \\    /   O peration     | Website:  https://openfoam.org
    \\  /    A nd           | Version:  7
     \\/     M anipulation  |
\*---------------------------------------------------------------------------*/
FoamFile
{
    version     2.0;
    format      ascii;
    class       volScalarField;
    location    "0.479";
    object      gradTx;
}
// * * * * * * * * * * * * * * * * * * * * * * * * * * * * * * * * * * * * * //

dimensions      [0 -1 0 1 0 0 0];

internalField   nonuniform List<scalar> 
1596
(
-0.125828
-0.634626
-1.14723
-1.62808
-2.08014
-2.50619
-2.92501
-3.34807
-3.78945
-4.27778
-4.81788
-5.44417
-6.20036
-7.15578
-8.3967
-10.1517
-12.7804
-17.0625
-24.6094
0.0284866
-0.526717
-1.02762
-1.47528
-1.88443
-2.26
-2.61843
-2.96495
-3.30954
-3.66564
-4.03087
-4.42154
-4.83978
-5.29145
-5.76112
-6.22593
-6.58193
-6.62213
-5.91104
0.155246
-0.428807
-0.910579
-1.32154
-1.68534
-2.01032
-2.31026
-2.58825
-2.85047
-3.10307
-3.34126
-3.57183
-3.78677
-3.97795
-4.12261
-4.18507
-4.08037
-3.66378
-2.65673
0.175879
-0.376861
-0.81583
-1.18108
-1.49693
-1.77296
-2.01975
-2.23964
-2.43624
-2.61195
-2.76245
-2.88966
-2.98485
-3.03801
-3.03071
-2.93382
-2.69109
-2.21351
-1.33312
0.0537667
-0.393848
-0.76017
-1.06815
-1.33316
-1.56236
-1.76218
-1.93432
-2.08051
-2.20102
-2.29305
-2.35598
-2.38304
-2.36572
-2.29147
-2.13932
-1.87474
-1.44497
-0.751606
-0.200305
-0.487729
-0.755181
-0.994419
-1.20535
-1.38918
-1.5473
-1.68009
-1.78766
-1.86882
-1.92217
-1.94573
-1.93486
-1.88307
-1.78246
-1.61837
-1.37028
-1.00693
-0.470998
-0.537326
-0.649819
-0.80436
-0.96644
-1.12023
-1.25913
-1.37911
-1.4784
-1.55539
-1.60771
-1.63475
-1.63378
-1.60177
-1.53389
-1.42545
-1.26616
-1.04405
-0.740386
-0.321506
-0.888313
-0.848545
-0.893468
-0.977144
-1.07326
-1.16808
-1.25262
-1.32248
-1.37427
-1.40453
-1.41276
-1.39586
-1.35178
-1.27697
-1.16872
-1.01982
-0.82339
-0.568092
-0.233998
-1.24854
-1.10165
-1.04998
-1.05604
-1.09203
-1.14009
-1.18774
-1.22785
-1.25523
-1.26536
-1.25721
-1.22743
-1.17441
-1.09539
-0.988848
-0.849681
-0.673966
-0.454762
-0.179984
-1.45924
-1.27309
-1.1643
-1.11465
-1.10323
-1.11273
-1.12964
-1.14516
-1.15285
-1.14736
-1.12702
-1.08842
-1.03012
-0.949987
-0.847237
-0.718365
-0.561296
-0.37194
-0.142932
-1.62646
-1.42471
-1.28252
-1.19266
-1.14242
-1.11777
-1.1063
-1.09863
-1.08763
-1.06746
-1.03569
-0.988903
-0.925638
-0.844149
-0.744071
-0.623026
-0.480078
-0.312977
-0.117369
-1.7934
-1.59222
-1.43077
-1.31084
-1.22722
-1.17033
-1.13026
-1.09818
-1.06692
-1.03041
-0.985629
-0.929049
-0.859087
-0.774189
-0.67419
-0.557475
-0.423799
-0.272073
-0.0997781
-1.82702
-1.65433
-1.49837
-1.36998
-1.27061
-1.19526
-1.13702
-1.08846
-1.04305
-0.994935
-0.940851
-0.877359
-0.802833
-0.715941
-0.616724
-0.504201
-0.378644
-0.23979
-0.0862902
-1.82303
-1.68127
-1.54089
-1.41498
-1.30934
-1.22302
-1.15211
-1.091
-1.03417
-0.976286
-0.914089
-0.844276
-0.765236
-0.675822
-0.576256
-0.466074
-0.345963
-0.216274
-0.0764973
-1.80337
-1.68969
-1.56832
-1.45122
-1.34592
-1.25436
-1.17523
-1.10484
-1.0389
-0.972775
-0.903424
-0.827711
-0.74407
-0.651504
-0.550404
-0.440751
-0.323618
-0.199853
-0.0695563
-1.74291
-1.65847
-1.55928
-1.45679
-1.35889
-1.26917
-1.18817
-1.11388
-1.04322
-0.972349
-0.898578
-0.818977
-0.732039
-0.636898
-0.534121
-0.42412
-0.308418
-0.188372
-0.0645969
-1.6418
-1.58435
-1.5086
-1.42461
-1.33979
-1.25836
-1.18192
-1.10969
-1.03959
-0.968485
-0.894067
-0.81359
-0.725591
-0.629259
-0.525293
-0.414522
-0.299026
-0.180837
-0.061184
-1.52833
-1.48802
-1.43262
-1.36746
-1.2982
-1.22879
-1.16122
-1.09544
-1.0301
-0.962598
-0.890938
-0.812474
-0.725689
-0.629673
-0.525076
-0.413008
-0.296167
-0.177521
-0.0592801
-1.43378
-1.40778
-1.36872
-1.31966
-1.26455
-1.20669
-1.14817
-1.08943
-1.02967
-0.966748
-0.898902
-0.823513
-0.73888
-0.643765
-0.538429
-0.423852
-0.303129
-0.180368
-0.0593813
-1.28042
-1.27205
-1.2505
-1.21963
-1.1824
-1.14129
-1.09798
-1.05291
-1.00544
-0.953597
-0.895683
-0.829005
-0.751602
-0.66177
-0.559061
-0.443763
-0.318742
-0.18912
-0.0613261
-1.11554
-1.12144
-1.11586
-1.10221
-1.08283
-1.05952
-1.03345
-1.00484
-0.972967
-0.935854
-0.891657
-0.837509
-0.77114
-0.690328
-0.593659
-0.479988
-0.350521
-0.209833
-0.0672372
-0.94723
-0.963186
-0.971484
-0.973967
-0.972111
-0.967068
-0.959508
-0.949369
-0.935728
-0.916433
-0.889333
-0.851279
-0.79968
-0.73195
-0.64587
-0.538542
-0.407791
-0.253561
-0.0829867
-0.763838
-0.785941
-0.806075
-0.824066
-0.840198
-0.854809
-0.868023
-0.879386
-0.887705
-0.890493
-0.88501
-0.867674
-0.835469
-0.785736
-0.716201
-0.623228
-0.50127
-0.341692
-0.13386
-0.559209
-0.56051
-0.560795
-0.560099
-0.559632
-0.56089
-0.565424
-0.573991
-0.586288
-0.600415
-0.612954
-0.619332
-0.615225
-0.597038
-0.562214
-0.507925
-0.429334
-0.314732
-0.141014
-0.376431
-0.432263
-0.504119
-0.586828
-0.676439
-0.769411
-0.863044
-0.954555
-1.04096
-1.11851
-1.18204
-1.22635
-1.24691
-1.24183
-1.21133
-1.15657
-1.07622
-0.962638
-0.794664
-0.131333
-0.167189
-0.21742
-0.278414
-0.347398
-0.422169
-0.501549
-0.58438
-0.669438
-0.754387
-0.834305
-0.903436
-0.954769
-0.983781
-0.989329
-0.975441
-0.946975
-0.910013
-0.866984
0.115732
0.0711105
0.00904196
-0.066711
-0.152631
-0.245917
-0.344945
-0.448734
-0.556576
-0.666968
-0.77566
-0.876378
-0.960422
-1.02028
-1.05207
-1.05886
-1.04686
-1.02414
-0.995131
0.36591
0.308328
0.230478
0.137111
0.0324997
-0.07997
-0.198341
-0.321872
-0.45055
-0.584041
-0.719518
-0.851098
-0.969023
-1.06243
-1.12315
-1.15117
-1.15298
-1.13882
-1.11544
0.597564
0.521523
0.424043
0.311288
0.188114
0.058304
-0.0761679
-0.214987
-0.359064
-0.5096
-0.665886
-0.823781
-0.9739
-1.10269
-1.19645
-1.24929
-1.26541
-1.25717
-1.2355
0.845806
0.748418
0.629823
0.496984
0.355253
0.208786
0.0595043
-0.0926643
-0.249463
-0.413622
-0.586863
-0.768068
-0.950302
-1.11946
-1.25631
-1.34598
-1.38511
-1.38539
-1.3636
1.04461
0.921541
0.780119
0.627893
0.470593
0.312306
0.154475
-0.00360563
-0.164511
-0.332347
-0.511216
-0.703897
-0.908345
-1.11402
-1.29962
-1.44069
-1.51907
-1.53682
-1.51299
1.24253
1.096
0.932101
0.761329
0.589999
0.421914
0.257951
0.0968844
-0.0642973
-0.230403
-0.407047
-0.600535
-0.815038
-1.04824
-1.28423
-1.49553
-1.64592
-1.71328
-1.70444
1.43972
1.26315
1.07491
0.8862
0.7028
0.527579
0.360581
0.20008
0.0430147
-0.115316
-0.280579
-0.460593
-0.664311
-0.899522
-1.16409
-1.44355
-1.6971
-1.87343
-1.9196
1.58936
1.367
1.14109
0.921745
0.712985
0.51603
0.329663
0.151579
-0.0213137
-0.193171
-0.368725
-0.555001
-0.761749
-1.0027
-1.29082
-1.63822
-2.03436
-2.44511
-2.80177
1.70649
1.45825
1.22415
1.01139
0.820532
0.650369
0.498077
0.360977
0.236321
0.121458
0.0144251
-0.0874585
-0.187369
-0.291005
-0.408152
-0.558178
-0.764399
-1.05497
-1.44841
1.81319
1.55042
1.31981
1.12022
0.947402
0.797559
0.666408
0.550773
0.447909
0.355446
0.272318
0.197478
0.130778
0.0726217
0.0241325
-0.014784
-0.0456905
-0.0763813
-0.121878
1.76686
1.46473
1.21076
0.995975
0.812541
0.65476
0.517443
0.396932
0.290348
0.195294
0.110808
0.0359703
-0.0293595
-0.0847589
-0.128867
-0.160281
-0.176623
-0.175883
-0.157113
1.5925
1.30691
1.07283
0.87893
0.716413
0.578962
0.461343
0.359852
0.27174
0.194824
0.128073
0.0705585
0.0217898
-0.0185047
-0.0503623
-0.0742335
-0.0905756
-0.100268
-0.104361
1.35426
1.10653
0.905215
0.740229
0.603556
0.48924
0.392538
0.310026
0.239218
0.178142
0.125684
0.0808545
0.0428654
0.0110615
-0.0150782
-0.0363164
-0.0533237
-0.0667789
-0.0773793
1.03886
0.843636
0.687443
0.561205
0.457924
0.372455
0.300878
0.24035
0.188844
0.144748
0.107054
0.0748961
0.0475002
0.024227
0.0045728
-0.0120529
-0.0261065
-0.0379275
-0.0478779
0.662962
0.53224
0.430678
0.350179
0.285199
0.23193
0.187647
0.150408
0.118857
0.0919223
0.0688992
0.0491972
0.0322672
0.0176607
0.00502994
-0.0059925
-0.0156696
-0.0241329
-0.0315195
0.257073
0.205657
0.166974
0.136695
0.112316
0.0922693
0.0755026
0.0612841
0.0491098
0.038585
0.0294421
0.0214602
0.0144306
0.00818104
0.00257346
-0.0025346
-0.00725074
-0.0116236
-0.0156936
-0.25695
-0.205402
-0.166644
-0.136329
-0.111939
-0.0918988
-0.0751512
-0.0609604
-0.0488197
-0.0383321
-0.0292285
-0.0212869
-0.0142979
-0.00808878
-0.00252124
0.00254714
0.00722394
0.0115581
0.0155898
-0.662852
-0.532024
-0.430403
-0.349878
-0.284895
-0.23164
-0.187382
-0.150176
-0.118665
-0.0917733
-0.0687952
-0.0491388
-0.032254
-0.0176918
-0.00510377
0.00587747
0.0155151
0.023941
0.0312929
-1.03876
-0.843442
-0.687188
-0.560917
-0.457622
-0.372154
-0.300591
-0.240085
-0.188607
-0.144544
-0.106884
-0.0747603
-0.0473973
-0.0241539
-0.00452509
0.0120805
0.02612
0.0379326
0.0478799
-1.3542
-1.10643
-0.905078
-0.740077
-0.603404
-0.4891
-0.392421
-0.309939
-0.239169
-0.178135
-0.125721
-0.080936
-0.0429889
-0.011222
0.0148881
0.0361056
0.0531022
0.0665558
0.0771625
-1.59248
-1.30687
-1.07278
-0.878866
-0.716347
-0.578904
-0.461303
-0.35984
-0.271763
-0.194889
-0.128185
-0.0707204
-0.0220003
0.0182509
0.0500758
0.0739298
0.0902751
0.099994
0.104138
-1.7669
-1.46478
-1.2108
-0.996008
-0.812572
-0.654799
-0.517501
-0.397022
-0.290483
-0.195488
-0.111072
-0.0363162
0.0289225
0.0842263
0.128246
0.159595
0.175928
0.175266
0.156675
-1.81324
-1.55035
-1.31955
-1.11974
-0.94668
-0.796588
-0.665186
-0.549304
-0.446198
-0.353496
-0.270133
-0.19506
-0.128125
-0.069731
-0.021022
0.0180315
0.0488507
0.078962
0.123046
-1.70686
-1.45919
-1.22571
-1.01358
-0.823356
-0.653841
-0.502207
-0.365782
-0.241825
-0.1277
-0.0214617
0.0795354
0.178407
0.280747
0.396207
0.543984
0.747357
1.03472
1.42523
-1.58927
-1.36672
-1.14054
-0.9209
-0.711825
-0.514548
-0.327861
-0.149468
0.0237158
0.195838
0.371618
0.558065
0.764909
1.00588
1.29401
1.64158
2.03844
2.45084
2.81051
-1.43986
-1.26346
-1.07537
-0.886783
-0.703482
-0.528344
-0.361418
-0.200987
-0.0439962
0.114246
0.279395
0.459264
0.66282
0.897908
1.16251
1.4423
1.69659
1.8739
1.92075
-1.24263
-1.09621
-0.932395
-0.761696
-0.590422
-0.422384
-0.258461
-0.0974373
0.0636937
0.229735
0.406301
0.599709
0.814166
1.04742
1.28366
1.4954
1.64638
1.71423
1.70566
-1.04469
-0.92173
-0.780398
-0.628246
-0.471006
-0.312765
-0.154974
0.00307022
0.163937
0.331733
0.510567
0.703239
0.907744
1.11359
1.29948
1.44094
1.51968
1.53766
1.5139
-0.845884
-0.748594
-0.630087
-0.497325
-0.355656
-0.209238
-0.0599945
0.0921429
0.248917
0.41306
0.586305
0.767557
0.949908
1.11927
1.25639
1.34634
1.3857
1.38609
1.36436
-0.597629
-0.521677
-0.424281
-0.311598
-0.188482
-0.0587164
0.075723
0.214521
0.358587
0.509131
0.665452
0.823429
0.973687
1.10268
1.19665
1.24969
1.26596
1.25781
1.2362
-0.365974
-0.308479
-0.230712
-0.137418
-0.0328653
0.0795605
0.197903
0.32142
0.4501
0.583618
0.719154
0.850836
0.968908
1.06249
1.12339
1.15158
1.15351
1.13944
1.11614
-0.115784
-0.0712461
-0.00925787
0.0664248
0.152289
0.245534
0.344538
0.44832
0.556177
0.666611
0.775376
0.876205
0.960392
1.02041
1.05236
1.0593
1.04741
1.0248
0.995908
0.131226
0.166858
0.216839
0.277575
0.346306
0.420842
0.500019
0.582687
0.667634
0.752533
0.832465
0.90168
0.953154
0.982349
0.988103
0.974457
0.946292
0.909769
0.867443
0.376515
0.432573
0.50473
0.587799
0.677809
0.771196
0.86524
0.957141
1.0439
1.12176
1.18554
1.23004
1.25073
1.24572
1.21525
1.16049
1.08011
0.966437
0.798289
0.559141
0.560235
0.560295
0.559374
0.558698
0.559775
0.564168
0.572636
0.58488
0.599001
0.611573
0.61802
0.61401
0.595942
0.56125
0.507105
0.428671
0.314255
0.14079
0.763898
0.786053
0.806245
0.824291
0.840469
0.855114
0.868348
0.879718
0.888028
0.890796
0.885282
0.867908
0.835662
0.785886
0.716307
0.623289
0.501285
0.341672
0.133836
0.947256
0.963219
0.971525
0.974018
0.972168
0.967132
0.959576
0.949437
0.935794
0.916494
0.889387
0.851323
0.799713
0.73197
0.645876
0.538535
0.407772
0.253539
0.0829768
1.11556
1.12147
1.1159
1.10226
1.08289
1.05958
1.03351
1.0049
0.973022
0.935903
0.8917
0.837543
0.771164
0.690341
0.593663
0.479982
0.350511
0.209824
0.067234
1.28045
1.27208
1.25054
1.21968
1.18245
1.14134
1.09803
1.05296
1.00548
0.953638
0.895717
0.829032
0.75162
0.661781
0.559064
0.443761
0.318737
0.189117
0.0613249
1.4338
1.40781
1.36875
1.31971
1.2646
1.20674
1.14821
1.08948
1.02971
0.966783
0.898931
0.823535
0.738895
0.643774
0.538433
0.423852
0.303128
0.180367
0.059381
1.52835
1.48805
1.43265
1.36749
1.29824
1.22883
1.16126
1.09548
1.03013
0.962626
0.890961
0.812492
0.725701
0.62968
0.52508
0.41301
0.296167
0.177521
0.0592803
1.64182
1.58437
1.50863
1.42464
1.33983
1.25839
1.18195
1.10972
1.03962
0.968508
0.894086
0.813605
0.725602
0.629267
0.525298
0.414525
0.299027
0.180838
0.0611844
1.74292
1.65849
1.5593
1.45681
1.35892
1.2692
1.18819
1.1139
1.04325
0.972369
0.898595
0.81899
0.732049
0.636905
0.534126
0.424124
0.30842
0.188374
0.0645975
1.80339
1.68971
1.56834
1.45124
1.34594
1.25438
1.17525
1.10486
1.03892
0.97279
0.903437
0.827722
0.744078
0.65151
0.55041
0.440755
0.323621
0.199855
0.0695571
1.82304
1.68128
1.5409
1.415
1.30936
1.22304
1.15212
1.09101
1.03419
0.976299
0.9141
0.844285
0.765244
0.675829
0.576262
0.466079
0.345967
0.216277
0.0764981
1.82703
1.65435
1.49838
1.37
1.27063
1.19527
1.13703
1.08847
1.04306
0.994947
0.940862
0.877369
0.802842
0.715948
0.61673
0.504206
0.378648
0.239793
0.0862911
1.79341
1.59223
1.43078
1.31085
1.22722
1.17034
1.13027
1.09818
1.06693
1.03042
0.985632
0.929053
0.85909
0.774192
0.674193
0.557478
0.423801
0.272075
0.0997787
1.62648
1.42473
1.28254
1.19267
1.14243
1.11778
1.10631
1.09864
1.08764
1.06746
1.0357
0.988907
0.925642
0.844153
0.744075
0.623029
0.48008
0.312979
0.11737
1.45926
1.27311
1.16432
1.11466
1.10324
1.11273
1.12965
1.14517
1.15285
1.14737
1.12702
1.08842
1.03013
0.949989
0.847239
0.718367
0.561298
0.371941
0.142932
1.24856
1.10166
1.04999
1.05605
1.09203
1.1401
1.18774
1.22785
1.25524
1.26536
1.25721
1.22744
1.17442
1.09539
0.988849
0.849682
0.673967
0.454763
0.179984
0.888327
0.848555
0.893474
0.977148
1.07326
1.16808
1.25262
1.32248
1.37426
1.40452
1.41275
1.39586
1.35178
1.27696
1.16871
1.01982
0.823389
0.568091
0.233998
0.537337
0.649827
0.804365
0.966443
1.12023
1.25913
1.37911
1.4784
1.55539
1.60771
1.63474
1.63378
1.60176
1.53389
1.42545
1.26616
1.04405
0.740386
0.321505
0.200313
0.487735
0.755184
0.99442
1.20535
1.38917
1.54729
1.68009
1.78766
1.86881
1.92216
1.94573
1.93486
1.88307
1.78246
1.61837
1.37028
1.00693
0.470998
-0.0537614
0.393851
0.760172
1.06815
1.33316
1.56236
1.76218
1.93431
2.08051
2.20101
2.29304
2.35598
2.38303
2.36572
2.29147
2.13932
1.87474
1.44496
0.751605
-0.175877
0.376862
0.815831
1.18108
1.49692
1.77295
2.01975
2.23964
2.43624
2.61195
2.76245
2.88966
2.98485
3.038
3.0307
2.93381
2.69109
2.2135
1.33312
-0.155245
0.428807
0.910578
1.32154
1.68534
2.01032
2.31026
2.58825
2.85046
3.10307
3.34125
3.57183
3.78677
3.97794
4.12261
4.18507
4.08037
3.66378
2.65673
-0.0284866
0.526715
1.02762
1.47528
1.88443
2.26
2.61843
2.96495
3.30954
3.66564
4.03087
4.42154
4.83978
5.29145
5.76112
6.22593
6.58192
6.62213
5.91104
0.125827
0.634622
1.14722
1.62808
2.08013
2.50619
2.92501
3.34807
3.78945
4.27778
4.81788
5.44417
6.20036
7.15579
8.3967
10.1517
12.7804
17.0625
24.6094
)
;

boundaryField
{
    up
    {
        type            calculated;
        value           nonuniform List<scalar> 
84
(
-24.6094
-5.91104
-2.65673
-1.33312
-0.751606
-0.470998
-0.321506
-0.233998
-0.179984
-0.142932
-0.117369
-0.0997781
-0.0862902
-0.0764973
-0.0695563
-0.0645969
-0.061184
-0.0592801
-0.0593813
-0.0613261
-0.0672372
-0.0829867
-0.13386
-0.141014
-0.68694
-0.823125
-0.957187
-1.07865
-1.19753
-1.32203
-1.46247
-1.62766
-1.80067
-2.81529
-1.51153
-0.125292
-0.15736
-0.104403
-0.0773892
-0.0478874
-0.0315271
-0.0157027
0.0155989
0.0313005
0.0478896
0.0771723
0.104179
0.15692
0.126421
1.48746
2.82584
1.80164
1.62871
1.46333
1.32278
1.19824
1.07937
0.957997
0.823921
0.690288
0.14079
0.133836
0.0829768
0.067234
0.0613249
0.059381
0.0592803
0.0611844
0.0645975
0.0695571
0.0764981
0.0862911
0.0997787
0.11737
0.142932
0.179984
0.233998
0.321505
0.470998
0.751605
1.33312
2.65673
5.91104
24.6094
)
;
    }
    low
    {
        type            calculated;
        value           nonuniform List<scalar> 
84
(
-0.113853
0.0458897
0.18376
0.207271
0.0736762
-0.204008
-0.567831
-0.939301
-1.30647
-1.50468
-1.66394
-1.82005
-1.83161
-1.81383
-1.78541
-1.71333
-1.60306
-1.48786
-1.38843
-1.22615
-1.05812
-0.890805
-0.710466
-0.513421
-0.341369
-0.118764
0.101307
0.329185
0.548556
0.793677
0.997819
1.2004
1.40639
1.56962
1.69869
1.82072
1.79244
1.62418
1.385
1.06486
0.680886
0.26475
-0.264626
-0.680772
-1.06475
-1.38492
-1.62414
-1.79245
-1.82073
-1.699
-1.56954
-1.40651
-1.20049
-0.997901
-0.793753
-0.548621
-0.329252
-0.101359
0.118659
0.341451
0.513358
0.71052
0.890831
1.05814
1.22617
1.38845
1.48788
1.60307
1.71335
1.78542
1.81384
1.83163
1.82005
1.66395
1.5047
1.30649
0.939316
0.567843
0.204017
-0.0736705
-0.207268
-0.183759
-0.045889
0.113852
)
;
    }
    left
    {
        type            calculated;
        value           nonuniform List<scalar> 
19
(
-0.11138
-0.608434
-1.13072
-1.62734
-2.09811
-2.54355
-2.98433
-3.43404
-3.90688
-4.44011
-5.03783
-5.74015
-6.60611
-7.73124
-9.22558
-11.4127
-14.7918
-20.4518
-21.3462
)
;
    }
    right
    {
        type            calculated;
        value           nonuniform List<scalar> 
19
(
0.111379
0.60843
1.13071
1.62734
2.0981
2.54355
2.98433
3.43404
3.90688
4.44011
5.03783
5.74015
6.60611
7.73124
9.22558
11.4127
14.7918
20.4518
21.3462
)
;
    }
    frontAndBackPlanes
    {
        type            empty;
    }
}


// ************************************************************************* //
