/*--------------------------------*- C++ -*----------------------------------*\
  =========                 |
  \\      /  F ield         | OpenFOAM: The Open Source CFD Toolbox
   \\    /   O peration     | Website:  https://openfoam.org
    \\  /    A nd           | Version:  7
     \\/     M anipulation  |
\*---------------------------------------------------------------------------*/
FoamFile
{
    version     2.0;
    format      ascii;
    class       volScalarField;
    location    "0.05";
    object      gradTx;
}
// * * * * * * * * * * * * * * * * * * * * * * * * * * * * * * * * * * * * * //

dimensions      [0 -1 0 1 0 0 0];

internalField   nonuniform List<scalar> 
1596
(
-0.428464
-2.1408
-3.7295
-4.98556
-5.88189
-6.44158
-6.75913
-6.90452
-6.93928
-6.92727
-6.8715
-6.81914
-6.82131
-6.96136
-7.34518
-8.20156
-9.83994
-12.861
-18.4535
0.143611
-1.64292
-3.16138
-4.33618
-5.18041
-5.7211
-6.03969
-6.19197
-6.23674
-6.22111
-6.15247
-6.05954
-5.94508
-5.82305
-5.69781
-5.58672
-5.45122
-5.17873
-4.46598
0.626432
-1.07564
-2.43222
-3.46429
-4.20942
-4.69835
-4.99578
-5.14734
-5.20275
-5.19908
-5.14678
-5.06444
-4.94154
-4.76844
-4.52557
-4.19634
-3.73929
-3.08696
-2.07233
0.748786
-0.627956
-1.71227
-2.54264
-3.15191
-3.56481
-3.82566
-3.96902
-4.03315
-4.04633
-4.02152
-3.97145
-3.88518
-3.74647
-3.52925
-3.20326
-2.7285
-2.06215
-1.11638
0.4306
-0.436373
-1.16545
-1.7506
-2.19757
-2.51548
-2.7265
-2.85217
-2.91814
-2.94399
-2.94319
-2.92476
-2.88154
-2.79862
-2.65202
-2.40768
-2.02684
-1.47326
-0.694448
-0.235706
-0.547285
-0.890957
-1.20914
-1.47687
-1.68412
-1.83232
-1.92883
-1.98643
-2.01589
-2.02852
-2.0304
-2.01821
-1.98119
-1.90115
-1.74674
-1.4823
-1.07185
-0.474183
-1.07206
-0.914941
-0.899631
-0.953535
-1.03536
-1.12029
-1.19369
-1.24934
-1.28783
-1.31121
-1.32623
-1.33596
-1.33931
-1.32959
-1.2949
-1.21023
-1.04571
-0.766614
-0.334613
-1.89796
-1.42005
-1.11658
-0.935923
-0.840627
-0.800729
-0.792471
-0.798874
-0.810058
-0.819992
-0.829486
-0.838304
-0.845634
-0.847568
-0.837172
-0.796753
-0.703708
-0.527815
-0.233561
-2.71816
-2.06585
-1.54472
-1.15446
-0.882419
-0.706555
-0.602293
-0.545848
-0.518692
-0.506914
-0.504292
-0.506432
-0.510939
-0.514828
-0.51415
-0.49749
-0.449327
-0.346087
-0.157338
-3.20261
-2.53403
-1.91501
-1.39676
-0.999011
-0.716328
-0.530707
-0.417417
-0.353429
-0.319499
-0.303653
-0.297787
-0.297333
-0.299081
-0.300399
-0.294338
-0.271155
-0.214391
-0.100706
-3.60953
-2.95643
-2.29093
-1.68586
-1.18793
-0.81144
-0.549199
-0.379422
-0.277199
-0.219377
-0.189048
-0.174484
-0.168555
-0.166984
-0.167233
-0.164979
-0.154442
-0.125136
-0.0608387
-4.04659
-3.41871
-2.72228
-2.04455
-1.45354
-0.983801
-0.641334
-0.410049
-0.264908
-0.179555
-0.1325
-0.108148
-0.0964078
-0.0912993
-0.0895556
-0.0879854
-0.0831141
-0.0687218
-0.0345215
-4.22186
-3.67186
-2.99699
-2.29842
-1.6596
-1.13176
-0.733466
-0.456137
-0.277078
-0.169004
-0.107782
-0.075067
-0.0584686
-0.0504894
-0.0469868
-0.0450859
-0.0424593
-0.0355516
-0.01837
-4.336
-3.85655
-3.21287
-2.5086
-1.83823
-1.267
-0.824483
-0.509389
-0.301812
-0.174248
-0.10076
-0.0608141
-0.040127
-0.0298631
-0.0250241
-0.0226311
-0.0207978
-0.0174176
-0.00918747
-4.43561
-4.01193
-3.39508
-2.68798
-1.99272
-1.38611
-0.907093
-0.560675
-0.329411
-0.185646
-0.102015
-0.056142
-0.0321825
-0.0201766
-0.0143932
-0.0115987
-0.0099999
-0.00818197
-0.00434281
-4.45406
-4.0917
-3.50629
-2.80483
-2.09642
-1.46736
-0.964094
-0.596633
-0.349478
-0.194912
-0.104605
-0.0548934
-0.0288647
-0.0158016
-0.00948383
-0.00646592
-0.0049389
-0.00378817
-0.00196989
-4.37498
-4.07652
-3.52937
-2.84374
-2.13552
-1.49884
-0.985705
-0.609519
-0.355962
-0.19725
-0.104558
-0.0535797
-0.0269354
-0.0136002
-0.00716996
-0.00412767
-0.00266847
-0.00181579
-0.000885155
-4.25522
-4.0011
-3.48861
-2.82198
-2.12151
-1.48737
-0.975415
-0.600638
-0.348853
-0.191919
-0.100739
-0.0508614
-0.0249455
-0.0120581
-0.00588728
-0.00299736
-0.00164971
-0.000959514
-0.000415941
-4.17414
-3.95551
-3.4625
-2.80146
-2.09966
-1.46384
-0.952855
-0.581617
-0.334515
-0.182055
-0.0944193
-0.046998
-0.0226275
-0.0106437
-0.00497172
-0.00235006
-0.00115286
-0.000580234
-0.000217693
-3.90453
-3.75397
-3.3086
-2.6798
-2.00144
-1.38569
-0.893531
-0.539402
-0.306493
-0.164664
-0.0842531
-0.0413377
-0.019584
-0.00903218
-0.00410577
-0.00186077
-0.000853475
-0.000389724
-0.000129676
-3.55295
-3.46648
-3.07769
-2.49437
-1.85412
-1.27236
-0.810862
-0.482835
-0.270298
-0.142972
-0.0719983
-0.0347562
-0.0161917
-0.00733364
-0.0032642
-0.00143926
-0.000634665
-0.000273957
-8.46603e-05
-3.13604
-3.09989
-2.77168
-2.24737
-1.6618
-1.12938
-0.710482
-0.416695
-0.229446
-0.119279
-0.0590156
-0.0279874
-0.0128075
-0.0056962
-0.00248731
-0.00107342
-0.000461341
-0.000193013
-5.74755e-05
-2.61064
-2.61092
-2.35265
-1.91152
-1.40886
-0.95018
-0.591261
-0.342189
-0.185642
-0.0949926
-0.0462382
-0.0215695
-0.00970876
-0.00424714
-0.00182392
-0.000774081
-0.000327728
-0.000136319
-4.16807e-05
-1.95091
-1.89736
-1.66418
-1.31724
-0.94705
-0.623958
-0.379816
-0.215189
-0.114289
-0.0572056
-0.027192
-0.0123569
-0.00540029
-0.00228405
-0.000943577
-0.000383741
-0.000156984
-6.62954e-05
-2.3518e-05
-1.31101
-1.39343
-1.33199
-1.13708
-0.872156
-0.607337
-0.388205
-0.230035
-0.127632
-0.0668465
-0.0333367
-0.0159793
-0.00741052
-0.00335008
-0.00148911
-0.000658475
-0.000297206
-0.000147027
-8.75006e-05
-0.433253
-0.45605
-0.454055
-0.416314
-0.348348
-0.266249
-0.186886
-0.121254
-0.0733604
-0.0417083
-0.0224671
-0.0115927
-0.00576933
-0.00279254
-0.00132453
-0.000621878
-0.000295963
-0.000155726
-0.000105075
0.458636
0.433927
0.346912
0.229346
0.119143
0.0397062
-0.00457031
-0.0217189
-0.0233029
-0.0184736
-0.0125121
-0.00769752
-0.00442355
-0.00242613
-0.00128584
-0.000665204
-0.00034145
-0.000188946
-0.000131001
1.32632
1.28574
1.11525
0.861683
0.593312
0.364405
0.199398
0.0963656
0.0400342
0.0131071
0.0021759
-0.00134377
-0.00190607
-0.00155801
-0.00106458
-0.000660493
-0.000380928
-0.000221992
-0.000153968
2.06476
1.98916
1.74683
1.39256
1.00821
0.66475
0.400737
0.221549
0.112501
0.0522979
0.022073
0.00814545
0.00231065
0.000130418
-0.000509037
-0.000560797
-0.000412299
-0.000259146
-0.000170866
2.76311
2.62819
2.30931
1.86687
1.38847
0.952256
0.604693
0.356986
0.196811
0.101624
0.0493392
0.022424
0.00936734
0.00334317
0.000752092
-0.000226315
-0.000421756
-0.000322408
-0.00018807
3.21035
3.02013
2.65457
2.17109
1.65173
1.17088
0.776165
0.483001
0.283565
0.157737
0.0836717
0.042398
0.0204195
0.0090618
0.00338254
0.000667612
-0.000350962
-0.000486696
-0.000266104
3.56549
3.33053
2.92646
2.41465
1.87127
1.36402
0.938152
0.610977
0.378622
0.224302
0.127947
0.070567
0.0376265
0.0190569
0.00871506
0.0029489
0.000110558
-0.000851917
-0.000695168
3.83628
3.54707
3.11084
2.58533
2.0368
1.52296
1.08371
0.736147
0.479581
0.301027
0.183401
0.109061
0.063491
0.0358653
0.0191194
0.0086023
0.00229923
-0.00092774
-0.00149597
3.9292
3.57155
3.10146
2.57035
2.0326
1.53394
1.10614
0.763137
0.504953
0.321057
0.196844
0.116504
0.0662815
0.0353408
0.016196
0.00352085
-0.00515715
-0.0110857
-0.0140622
3.91114
3.5353
3.08379
2.59465
2.10496
1.64641
1.24266
0.906078
0.639692
0.438317
0.292585
0.190987
0.122153
0.0763657
0.046064
0.0252045
0.00985595
-0.00273252
-0.013864
3.85423
3.4726
3.04314
2.58876
2.13544
1.7077
1.32497
0.998591
0.732786
0.524856
0.368255
0.254199
0.173103
0.116484
0.0773572
0.0500385
0.0304094
0.0154689
0.00299565
3.51362
3.08926
2.65384
2.22045
1.80694
1.42989
1.10119
0.826362
0.605722
0.434716
0.306527
0.213208
0.146529
0.0994595
0.0663255
0.0426127
0.0251038
0.0116804
0.000894617
2.99116
2.62013
2.24644
1.87997
1.53383
1.21994
0.946596
0.717421
0.532296
0.387486
0.277647
0.19654
0.137613
0.0952077
0.0647031
0.04234
0.0253927
0.0120522
0.00105661
2.42436
2.12234
1.81774
1.52092
1.24242
0.991029
0.772544
0.589249
0.440735
0.323935
0.234692
0.168172
0.119281
0.0836025
0.0575135
0.0380221
0.0229536
0.0108712
0.000764139
1.79191
1.56397
1.33717
1.11852
0.914837
0.731732
0.572801
0.439336
0.330878
0.245166
0.179264
0.129753
0.0930137
0.0658974
0.0458132
0.0305946
0.0186661
0.00899414
0.000844681
1.11452
0.963786
0.819911
0.684223
0.559309
0.447723
0.351159
0.270134
0.204235
0.15204
0.111773
0.0813826
0.0586979
0.041829
0.0292208
0.0195632
0.0119056
0.00563044
0.000299799
0.424059
0.361721
0.305212
0.253138
0.205795
0.16387
0.12785
0.0978289
0.0735681
0.054472
0.0398289
0.0288413
0.0206847
0.0146479
0.0101498
0.00670541
0.00396369
0.00169697
-0.000253588
-0.423857
-0.361254
-0.304573
-0.252409
-0.205045
-0.163148
-0.127192
-0.0972541
-0.073083
-0.0540744
-0.0395105
-0.0285909
-0.0204911
-0.0145006
-0.0100404
-0.0066275
-0.00391288
-0.00167038
0.000257445
-1.11432
-0.963364
-0.819343
-0.683581
-0.558653
-0.447098
-0.350594
-0.269645
-0.203827
-0.151709
-0.111511
-0.081179
-0.0585424
-0.0417125
-0.0291361
-0.0195049
-0.0118701
-0.00561541
-0.000304004
-1.79171
-1.56355
-1.33661
-1.11789
-0.914196
-0.731126
-0.572259
-0.438872
-0.330495
-0.24486
-0.179025
-0.12957
-0.0928754
-0.0657943
-0.0457376
-0.0305406
-0.0186297
-0.00897225
-0.000835398
-2.42419
-2.12201
-1.81732
-1.52046
-1.24196
-0.990615
-0.772191
-0.588963
-0.440513
-0.323769
-0.234572
-0.168087
-0.119222
-0.0835621
-0.0574868
-0.0380056
-0.0229449
-0.0108687
-0.000766609
-2.99103
-2.61988
-2.24612
-1.87962
-1.5335
-1.21966
-0.946375
-0.717263
-0.532193
-0.387425
-0.277617
-0.196529
-0.137613
-0.0952135
-0.0647111
-0.0423483
-0.0254002
-0.0120578
-0.00105892
-3.51356
-3.08911
-2.65364
-2.22025
-1.80677
-1.42978
-1.10114
-0.826376
-0.605776
-0.434792
-0.30661
-0.213286
-0.146597
-0.0995152
-0.0663692
-0.0426455
-0.0251266
-0.0116935
-0.000898605
-3.85414
-3.47216
-3.04238
-2.58777
-2.13435
-1.70663
-1.324
-0.997775
-0.732132
-0.524353
-0.367879
-0.253924
-0.172903
-0.116337
-0.0772455
-0.0499493
-0.0303349
-0.01541
-0.00296418
-3.9117
-3.53686
-3.08631
-2.59794
-2.10873
-1.65033
-1.24644
-0.909478
-0.642586
-0.440663
-0.29441
-0.192362
-0.123164
-0.077101
-0.0466015
-0.0256105
-0.0101782
0.00246961
0.013668
-3.92886
-3.57077
-3.10041
-2.56923
-2.03156
-1.53304
-1.10539
-0.762522
-0.504439
-0.320624
-0.196475
-0.116191
-0.0660178
-0.0351197
-0.0160095
-0.0033591
0.00531144
0.0112654
0.0143168
-3.83645
-3.54755
-3.11165
-2.58645
-2.03812
-1.52433
-1.085
-0.737253
-0.480464
-0.301691
-0.183879
-0.109396
-0.0637225
-0.0360246
-0.0192273
-0.00866811
-0.00232744
0.000928794
0.00151146
-3.56558
-3.33082
-2.92703
-2.4155
-1.87231
-1.3651
-0.939153
-0.611811
-0.379264
-0.224765
-0.128268
-0.0707858
-0.0377755
-0.0191591
-0.00878364
-0.00298767
-0.000121411
0.000856043
0.000686872
-3.21045
-3.02045
-2.65518
-2.17198
-1.65278
-1.17194
-0.777094
-0.483739
-0.284106
-0.158109
-0.0839169
-0.0425575
-0.0205239
-0.00913088
-0.00342699
-0.000691475
0.00034484
0.000489269
0.000257439
-2.76323
-2.62855
-2.30998
-1.86779
-1.38951
-0.95325
-0.605525
-0.357612
-0.197244
-0.101905
-0.0495141
-0.0225313
-0.0094332
-0.00338362
-0.000775659
0.000215358
0.000419774
0.000323815
0.000182829
-2.06488
-1.98954
-1.74751
-1.39344
-1.00915
-0.665601
-0.40141
-0.222027
-0.112812
-0.0524875
-0.0221837
-0.00820849
-0.00234613
-0.000149763
0.000499749
0.00055804
0.000413001
0.000260228
0.000168322
-1.32647
-1.28619
-1.11598
-0.862553
-0.594164
-0.365117
-0.19992
-0.0967093
-0.0402414
-0.0132235
-0.00223782
0.00131227
0.00189089
0.00155164
0.00106312
0.000661573
0.000382649
0.000222995
0.000153053
-0.458786
-0.43439
-0.347613
-0.23012
-0.119834
-0.040231
0.00422148
0.0215117
0.0231914
0.0184191
0.0124879
0.00768841
0.00442142
0.0024271
0.00128805
0.000667589
0.000343256
0.000189853
0.000130919
0.432877
0.454997
0.452603
0.414847
0.347138
0.265395
0.186354
0.120955
0.0732074
0.0416368
0.0224368
0.0115818
0.00576668
0.00279313
0.00132609
0.000623384
0.000296965
0.000156189
0.000105198
1.3112
1.39412
1.33307
1.13829
0.873254
0.608188
0.388787
0.230395
0.127839
0.0669588
0.0333955
0.0160097
0.00742624
0.00335834
0.00149353
0.000660846
0.00029843
0.000147639
8.77837e-05
1.9506
1.89641
1.66285
1.31586
0.945855
0.623058
0.379207
0.214812
0.114072
0.0570889
0.0271326
0.0123281
0.00538703
0.00227821
0.000941096
0.000382703
0.000156525
6.60767e-05
2.34441e-05
2.61076
2.61116
2.35294
1.9118
1.40908
0.950333
0.591358
0.342246
0.185673
0.0950087
0.0462463
0.0215734
0.00971057
0.00424796
0.00182428
0.000774224
0.000327775
0.000136334
4.16932e-05
3.13604
3.09988
2.77166
2.24734
1.66178
1.12936
0.710476
0.416696
0.229451
0.119285
0.0590197
0.02799
0.012809
0.00569699
0.00248769
0.00107359
0.000461423
0.000193054
5.74862e-05
3.55295
3.46649
3.07768
2.49435
1.85409
1.27235
0.810854
0.482834
0.270301
0.142976
0.0720016
0.0347584
0.016193
0.00733435
0.00326455
0.00143943
0.000634768
0.000274024
8.467e-05
3.90453
3.75398
3.3086
2.67979
2.00142
1.38567
0.893521
0.539398
0.306493
0.164666
0.0842557
0.0413397
0.0195853
0.00903296
0.00410621
0.00186105
0.000853698
0.000389902
0.000129713
4.17415
3.95553
3.46251
2.80146
2.09965
1.46383
0.952846
0.581611
0.334513
0.182056
0.0944211
0.0469998
0.0226289
0.0106447
0.00497234
0.00235055
0.00115338
0.00058069
0.000217799
4.25522
4.00112
3.48863
2.82199
2.12151
1.48737
0.975405
0.60063
0.348849
0.191919
0.10074
0.0508632
0.0249471
0.0120592
0.00588819
0.00299833
0.00165091
0.000960594
0.000416187
4.37498
4.07653
3.52938
2.84374
2.13552
1.49883
0.985695
0.609511
0.355959
0.197249
0.10456
0.0535818
0.0269372
0.0136016
0.00717144
0.00412968
0.00267114
0.00181814
0.000885636
4.45405
4.09172
3.50631
2.80484
2.09643
1.46736
0.964087
0.596627
0.349476
0.194912
0.104607
0.0548952
0.0288664
0.0158033
0.00948642
0.00647007
0.0049444
0.00379272
0.00197064
4.4356
4.01194
3.3951
2.68799
1.99273
1.38611
0.907088
0.56067
0.329408
0.185645
0.102015
0.0561431
0.032184
0.0201792
0.0143981
0.0116069
0.0100101
0.00818962
0.0043436
4.336
3.85656
3.21289
2.50862
1.83825
1.267
0.824484
0.509388
0.301811
0.174247
0.10076
0.060815
0.0401291
0.029868
0.0250337
0.0226457
0.0208142
0.017428
0.00918743
4.22186
3.67187
2.99701
2.29844
1.65962
1.13177
0.733473
0.45614
0.277079
0.169005
0.107782
0.0750682
0.0584726
0.0504987
0.0470032
0.045108
0.0424804
0.0355617
0.0183674
4.04657
3.4187
2.72229
2.04456
1.45355
0.983811
0.64134
0.410052
0.264908
0.179554
0.132499
0.10815
0.0964155
0.0913148
0.0895789
0.0880112
0.0831325
0.0687241
0.0345145
3.60955
2.95645
2.29096
1.68589
1.18795
0.811458
0.549211
0.379428
0.277202
0.219378
0.189049
0.17449
0.168568
0.167005
0.167258
0.164997
0.154443
0.125121
0.0608269
3.20265
2.53406
1.91503
1.39678
0.999025
0.716341
0.530717
0.417423
0.353432
0.319501
0.303658
0.297797
0.297349
0.2991
0.300409
0.294328
0.271121
0.214351
0.100693
2.71819
2.06587
1.54473
1.15447
0.882426
0.706563
0.602298
0.545851
0.518693
0.506916
0.504296
0.50644
0.510949
0.514828
0.514127
0.497435
0.449252
0.34603
0.157333
1.89799
1.42007
1.11658
0.935924
0.840628
0.80073
0.792469
0.79887
0.810054
0.81999
0.829487
0.838303
0.845623
0.847534
0.837102
0.796653
0.703609
0.527765
0.233573
1.07209
0.914954
0.899637
0.953538
1.03536
1.12029
1.19368
1.24933
1.28782
1.3112
1.32622
1.33594
1.33926
1.32952
1.29479
1.21012
1.04563
0.766606
0.334646
0.235723
0.547303
0.890973
1.20915
1.47687
1.68411
1.8323
1.92881
1.98641
2.01587
2.0285
2.03035
2.01814
1.9811
1.90105
1.74667
1.4823
1.07191
0.474228
-0.430593
0.436399
1.16548
1.75062
2.19757
2.51547
2.72648
2.85215
2.91812
2.94397
2.94315
2.9247
2.88147
2.79854
2.65197
2.4077
2.02693
1.47337
0.694481
-0.748789
0.627984
1.7123
2.54265
3.15191
3.5648
3.82565
3.969
4.03313
4.0463
4.02148
3.9714
3.88513
3.74645
3.52929
3.20337
2.72866
2.06225
1.11637
-0.626439
1.07565
2.43222
3.46429
4.20941
4.69833
4.99576
5.14732
5.20274
5.19906
5.14676
5.06443
4.94155
4.7685
4.52569
4.19649
3.73941
3.08698
2.07228
-0.143608
1.64291
3.16134
4.33614
5.18038
5.72108
6.03969
6.19197
6.23674
6.22111
6.15248
6.05958
5.94515
5.82316
5.69792
5.58679
5.4512
5.17865
4.46593
0.428475
2.14079
3.72946
4.98553
5.88187
6.44156
6.75913
6.90452
6.93929
6.92729
6.87153
6.81918
6.82136
6.96139
7.34515
8.20146
9.83981
12.861
18.4535
)
;

boundaryField
{
    up
    {
        type            calculated;
        value           nonuniform List<scalar> 
84
(
-18.4535
-4.46598
-2.07233
-1.11638
-0.694448
-0.474183
-0.334613
-0.233561
-0.157338
-0.100706
-0.0608387
-0.0345215
-0.01837
-0.00918747
-0.00434281
-0.00196989
-0.000885155
-0.000415941
-0.000217693
-0.000129676
-8.46603e-05
-5.74755e-05
-4.16807e-05
-2.3518e-05
-6.59824e-05
-8.80167e-05
-0.000114079
-0.000137017
-0.000147688
-0.000131506
-7.64117e-05
-3.76209e-07
0.000385305
-0.0116817
-0.013138
0.00307483
0.00100893
0.00114232
0.000826178
0.000879569
0.00032028
-0.000244412
0.000248339
-0.000324297
-0.000870197
-0.000828341
-0.00114431
-0.00101262
-0.00304361
0.0129634
0.0119811
-0.000378911
-3.05343e-05
5.2703e-05
0.000118914
0.000142127
0.000135036
0.000113682
8.815e-05
6.61654e-05
2.34441e-05
4.16932e-05
5.74862e-05
8.467e-05
0.000129713
0.000217799
0.000416187
0.000885636
0.00197064
0.0043436
0.00918743
0.0183674
0.0345145
0.0608269
0.100693
0.157333
0.233573
0.334646
0.474228
0.694481
1.11637
2.07228
4.46593
18.4535
)
;
    }
    low
    {
        type            calculated;
        value           nonuniform List<scalar> 
84
(
-0.38163
0.218195
0.738397
0.861042
0.495601
-0.246793
-1.15694
-2.03317
-2.87233
-3.33523
-3.73755
-4.1689
-4.31132
-4.40987
-4.50387
-4.50554
-4.41017
-4.29031
-4.19892
-3.89648
-3.52146
-3.08813
-2.54696
-1.88268
-1.24502
-0.406752
0.42763
1.2534
1.98241
2.70016
3.18174
3.56016
3.85672
3.97657
3.97556
3.93936
3.61789
3.08878
2.50529
1.85312
1.15372
0.440025
-0.439822
-1.15352
-1.8529
-2.5051
-3.08862
-3.6178
-3.93924
-3.97602
-3.97621
-3.85682
-3.56021
-3.18182
-2.70026
-1.98252
-1.25356
-0.427779
0.40638
1.2452
1.88239
2.54706
3.08813
3.52146
3.89647
4.19891
4.29031
4.41016
4.50553
4.50385
4.40985
4.31131
4.16887
3.73757
3.33527
2.87236
2.03319
1.15696
0.246811
-0.495592
-0.86105
-0.738422
-0.218216
0.381634
)
;
    }
    left
    {
        type            calculated;
        value           nonuniform List<scalar> 
19
(
-0.39576
-2.10188
-3.75154
-5.07438
-6.02614
-6.62251
-6.96301
-7.12452
-7.16817
-7.1699
-7.12984
-7.09747
-7.14215
-7.3724
-7.91728
-9.08319
-11.2887
-15.3618
-15.9897
)
;
    }
    right
    {
        type            calculated;
        value           nonuniform List<scalar> 
19
(
0.395774
2.10189
3.75152
5.07436
6.02611
6.6225
6.96301
7.12453
7.16819
7.16992
7.12987
7.0975
7.14216
7.37238
7.91718
9.08301
11.2885
15.3617
15.9898
)
;
    }
    frontAndBackPlanes
    {
        type            empty;
    }
}


// ************************************************************************* //
