/*--------------------------------*- C++ -*----------------------------------*\
  =========                 |
  \\      /  F ield         | OpenFOAM: The Open Source CFD Toolbox
   \\    /   O peration     | Website:  https://openfoam.org
    \\  /    A nd           | Version:  7
     \\/     M anipulation  |
\*---------------------------------------------------------------------------*/
FoamFile
{
    version     2.0;
    format      ascii;
    class       volScalarField;
    location    "0.12";
    object      gradTy;
}
// * * * * * * * * * * * * * * * * * * * * * * * * * * * * * * * * * * * * * //

dimensions      [0 -1 0 1 0 0 0];

internalField   nonuniform List<scalar> 
1596
(
-0.145778
-0.268506
-0.364674
-0.451047
-0.526423
-0.601483
-0.670206
-0.744146
-0.826372
-0.918685
-1.04901
-1.21495
-1.45272
-1.80279
-2.36468
-3.25775
-4.87369
-7.86944
-18.5878
-0.440795
-0.536672
-0.592463
-0.634822
-0.667122
-0.702645
-0.737411
-0.782757
-0.842268
-0.915772
-1.02744
-1.17282
-1.3767
-1.65743
-2.06692
-2.62914
-3.47584
-4.7262
-8.27594
-0.779674
-0.801999
-0.800731
-0.793919
-0.782589
-0.779047
-0.779732
-0.795033
-0.827933
-0.876956
-0.962428
-1.07784
-1.24077
-1.45958
-1.76644
-2.16318
-2.72212
-3.49143
-5.13534
-1.12259
-1.05122
-0.98646
-0.929505
-0.875956
-0.834971
-0.802772
-0.788151
-0.7933
-0.815899
-0.872693
-0.956174
-1.07899
-1.24444
-1.47363
-1.75989
-2.14661
-2.65166
-3.51015
-1.42364
-1.26984
-1.14736
-1.04448
-0.952536
-0.877153
-0.814464
-0.771433
-0.749605
-0.746257
-0.774888
-0.827977
-0.914688
-1.03581
-1.20602
-1.4161
-1.69429
-2.04513
-2.55386
-1.6467
-1.44569
-1.2817
-1.14197
-1.01778
-0.912403
-0.822583
-0.753654
-0.706817
-0.679345
-0.681837
-0.707413
-0.762618
-0.847032
-0.971279
-1.12615
-1.33122
-1.58548
-1.92074
-1.77792
-1.57101
-1.38745
-1.2235
-1.07512
-0.945325
-0.832477
-0.740846
-0.671667
-0.622569
-0.601639
-0.602975
-0.631062
-0.684892
-0.772241
-0.884938
-1.03712
-1.2258
-1.46316
-1.82518
-1.6431
-1.46142
-1.2874
-1.1242
-0.976597
-0.845527
-0.734983
-0.646655
-0.578841
-0.53757
-0.518048
-0.523112
-0.551443
-0.608632
-0.687832
-0.799399
-0.94007
-1.11452
-1.81033
-1.673
-1.5096
-1.33778
-1.16828
-1.00898
-0.864028
-0.737975
-0.633364
-0.549426
-0.490651
-0.453337
-0.439021
-0.446187
-0.478631
-0.530741
-0.609992
-0.713473
-0.842865
-1.74991
-1.65682
-1.52096
-1.36204
-1.19538
-1.03192
-0.878951
-0.742238
-0.62545
-0.528938
-0.456212
-0.404577
-0.374625
-0.364714
-0.377178
-0.407449
-0.460771
-0.534789
-0.630027
-1.68591
-1.62124
-1.51064
-1.3682
-1.20945
-1.04695
-0.890388
-0.746886
-0.621352
-0.515317
-0.431791
-0.368968
-0.3268
-0.303554
-0.30037
-0.313458
-0.346245
-0.396833
-0.46526
-1.61562
-1.57863
-1.49052
-1.36455
-1.21561
-1.05685
-0.89948
-0.751886
-0.620144
-0.506923
-0.415105
-0.343639
-0.292077
-0.258626
-0.24347
-0.243348
-0.26022
-0.292485
-0.339922
-1.53468
-1.52144
-1.45392
-1.34433
-1.2067
-1.05434
-0.899218
-0.750725
-0.615885
-0.49835
-0.401137
-0.323801
-0.26571
-0.225042
-0.201271
-0.191488
-0.196527
-0.214962
-0.24641
-1.46765
-1.46574
-1.4127
-1.3164
-1.18893
-1.04329
-0.8916
-0.743963
-0.608077
-0.488344
-0.388016
-0.30709
-0.244864
-0.199503
-0.169958
-0.153526
-0.150195
-0.158599
-0.178221
-1.40932
-1.41586
-1.37242
-1.28567
-1.16611
-1.02623
-0.878048
-0.732063
-0.596418
-0.476023
-0.374349
-0.291672
-0.227264
-0.179261
-0.146237
-0.125592
-0.116696
-0.118182
-0.129413
-1.35426
-1.3697
-1.33361
-1.25354
-1.13958
-1.00409
-0.858919
-0.714873
-0.580322
-0.460466
-0.358905
-0.276035
-0.211084
-0.162137
-0.127482
-0.104562
-0.0923086
-0.0893258
-0.0948854
-1.3067
-1.32814
-1.29732
-1.22153
-1.1109
-0.978071
-0.835001
-0.692723
-0.559722
-0.441286
-0.34101
-0.259248
-0.195123
-0.146621
-0.111806
-0.0881144
-0.0741824
-0.0685794
-0.0705136
-1.26716
-1.29301
-1.26572
-1.19212
-1.08267
-0.950612
-0.808328
-0.667165
-0.535684
-0.419123
-0.320908
-0.241204
-0.178936
-0.131933
-0.0980479
-0.0746908
-0.0602893
-0.0533868
-0.0531526
-1.22658
-1.26333
-1.24077
-1.16856
-1.05866
-0.925507
-0.78238
-0.641159
-0.510567
-0.395738
-0.299802
-0.222613
-0.162788
-0.11793
-0.0856731
-0.063369
-0.0492931
-0.0419679
-0.0405405
-1.18261
-1.23362
-1.21807
-1.14778
-1.03685
-0.90152
-0.756453
-0.614349
-0.484215
-0.371072
-0.277655
-0.203397
-0.146515
-0.104321
-0.0742143
-0.0534728
-0.0402602
-0.0330912
-0.0311085
-1.14524
-1.20754
-1.19927
-1.1311
-1.01864
-0.880124
-0.732014
-0.588102
-0.457831
-0.346127
-0.255248
-0.184117
-0.130461
-0.0912379
-0.0635926
-0.0447145
-0.0326789
-0.0260053
-0.0238518
-1.11118
-1.18526
-1.18458
-1.1188
-1.00466
-0.862349
-0.710359
-0.563816
-0.432767
-0.322104
-0.233571
-0.165529
-0.115145
-0.0789819
-0.0539085
-0.0370109
-0.0262809
-0.0202467
-0.0181112
-1.07766
-1.16536
-1.17323
-1.11048
-0.994919
-0.84866
-0.692339
-0.542581
-0.410186
-0.300102
-0.213567
-0.148373
-0.101095
-0.0678851
-0.0453262
-0.030387
-0.0209586
-0.0155364
-0.0133938
-1.04553
-1.14708
-1.16369
-1.10396
-0.986886
-0.836376
-0.675408
-0.52207
-0.388026
-0.278358
-0.193674
-0.131305
-0.0871566
-0.0569616
-0.0369998
-0.0241474
-0.0161401
-0.0113366
-0.00865913
-1.0177
-1.1327
-1.16155
-1.11091
-0.999508
-0.851238
-0.69012
-0.535005
-0.398527
-0.286521
-0.199696
-0.135717
-0.0903373
-0.0592835
-0.0387238
-0.0255268
-0.0172516
-0.0121318
-0.00874942
-0.99661
-1.12098
-1.15991
-1.11928
-1.01638
-0.87383
-0.715346
-0.559992
-0.421182
-0.305755
-0.215058
-0.147453
-0.0989396
-0.0653664
-0.0428828
-0.028356
-0.0192241
-0.0136826
-0.0103231
-0.993915
-1.12022
-1.16409
-1.13052
-1.03507
-0.898747
-0.744066
-0.58976
-0.449541
-0.331017
-0.236316
-0.164521
-0.11207
-0.0750756
-0.0498096
-0.0331982
-0.0226235
-0.0161917
-0.0123642
-1.0121
-1.13268
-1.17511
-1.14411
-1.05371
-0.923024
-0.772825
-0.620848
-0.480553
-0.359958
-0.261812
-0.18594
-0.129282
-0.0883194
-0.0595541
-0.0401182
-0.027445
-0.0196185
-0.0149374
-1.04816
-1.15841
-1.1944
-1.16214
-1.07449
-0.948588
-0.803172
-0.654486
-0.515284
-0.393645
-0.292729
-0.213063
-0.152087
-0.106682
-0.0736297
-0.0504098
-0.0346746
-0.0246635
-0.0185477
-1.10017
-1.1945
-1.2202
-1.18398
-1.09746
-0.975722
-0.835352
-0.690828
-0.553874
-0.432345
-0.329593
-0.246778
-0.181782
-0.131844
-0.0939353
-0.0659311
-0.0458669
-0.0324796
-0.0240146
-1.16644
-1.24067
-1.25424
-1.21259
-1.12606
-1.00779
-0.872311
-0.732275
-0.598229
-0.477621
-0.373823
-0.288568
-0.220137
-0.166038
-0.123196
-0.0896626
-0.063766
-0.0451802
-0.032794
-1.23429
-1.29201
-1.29422
-1.24701
-1.1601
-1.04501
-0.914421
-0.7792
-0.64868
-0.529793
-0.425819
-0.339049
-0.268203
-0.211098
-0.164372
-0.125772
-0.0931226
-0.0668955
-0.0477005
-1.30944
-1.35046
-1.34091
-1.28762
-1.19978
-1.08747
-0.961639
-0.831452
-0.704998
-0.588606
-0.485333
-0.398014
-0.325945
-0.26756
-0.219373
-0.178673
-0.141396
-0.106861
-0.0746306
-1.39615
-1.41913
-1.39739
-1.33786
-1.24906
-1.13971
-1.01902
-0.894566
-0.773157
-0.660393
-0.559108
-0.472454
-0.400476
-0.342717
-0.296544
-0.259849
-0.227393
-0.196508
-0.163927
-1.4901
-1.49379
-1.45687
-1.38764
-1.29428
-1.1845
-1.06592
-0.944835
-0.826876
-0.716684
-0.616924
-0.530414
-0.457688
-0.399045
-0.353356
-0.320126
-0.296173
-0.279203
-0.265452
-1.59504
-1.57339
-1.5172
-1.43484
-1.33357
-1.22008
-1.10062
-0.980543
-0.864574
-0.75649
-0.658899
-0.574026
-0.502499
-0.444539
-0.399552
-0.367027
-0.345446
-0.333956
-0.331265
-1.71062
-1.6593
-1.58287
-1.48699
-1.37717
-1.25888
-1.13726
-1.01689
-0.901861
-0.795399
-0.699943
-0.617339
-0.548118
-0.492301
-0.449185
-0.41763
-0.395739
-0.381713
-0.373379
-1.81286
-1.73551
-1.64123
-1.53319
-1.41547
-1.29248
-1.16852
-1.0475
-0.93299
-0.827754
-0.733959
-0.653198
-0.58584
-0.531768
-0.490228
-0.459994
-0.439208
-0.426115
-0.418631
-1.89195
-1.79767
-1.69054
-1.57331
-1.44944
-1.32273
-1.19692
-1.0754
-0.961338
-0.857152
-0.764804
-0.685677
-0.62003
-0.567657
-0.527787
-0.49913
-0.479867
-0.468213
-0.46209
-1.95364
-1.84675
-1.72993
-1.60568
-1.4771
-1.34751
-1.22025
-1.09834
-0.984639
-0.881297
-0.790128
-0.712355
-0.648152
-0.597242
-0.558843
-0.531601
-0.513727
-0.503407
-0.498568
-1.99834
-1.88208
-1.75796
-1.62855
-1.49656
-1.36495
-1.23668
-1.11453
-1.00111
-0.898403
-0.808116
-0.731358
-0.668248
-0.618452
-0.581177
-0.555012
-0.538175
-0.528814
-0.524843
-2.02891
-1.90261
-1.77289
-1.64016
-1.50622
-1.37353
-1.24479
-1.12257
-1.00938
-0.907078
-0.817325
-0.741168
-0.678698
-0.629559
-0.592959
-0.567472
-0.551332
-0.542678
-0.539422
-2.02892
-1.90263
-1.77291
-1.64019
-1.50625
-1.37356
-1.24482
-1.1226
-1.00941
-0.907112
-0.817358
-0.741202
-0.678733
-0.629595
-0.592996
-0.56751
-0.551372
-0.54272
-0.539467
-1.99835
-1.88211
-1.75801
-1.62861
-1.49663
-1.36502
-1.23677
-1.11462
-1.0012
-0.898498
-0.808214
-0.731458
-0.668349
-0.618556
-0.581285
-0.555126
-0.538297
-0.528946
-0.524986
-1.95366
-1.8468
-1.73001
-1.60578
-1.47721
-1.34764
-1.22039
-1.09849
-0.984789
-0.88145
-0.790285
-0.712514
-0.648315
-0.597409
-0.559016
-0.531782
-0.513919
-0.503612
-0.498788
-1.89197
-1.79773
-1.69064
-1.57343
-1.44959
-1.3229
-1.1971
-1.07559
-0.961533
-0.857353
-0.765008
-0.685884
-0.62024
-0.56787
-0.528007
-0.499357
-0.480105
-0.468465
-0.462358
-1.81289
-1.73559
-1.64134
-1.53334
-1.41565
-1.29267
-1.16873
-1.04773
-0.933227
-0.827996
-0.734206
-0.653446
-0.58609
-0.532021
-0.490485
-0.460258
-0.439482
-0.426402
-0.418935
-1.71065
-1.65938
-1.58299
-1.48715
-1.37736
-1.2591
-1.1375
-1.01714
-0.902129
-0.795673
-0.70022
-0.617616
-0.548396
-0.492577
-0.449462
-0.417909
-0.396022
-0.382002
-0.373677
-1.59508
-1.57349
-1.51736
-1.43506
-1.33383
-1.22039
-1.10097
-0.980911
-0.864961
-0.756888
-0.659304
-0.574433
-0.502908
-0.44495
-0.399967
-0.367441
-0.34585
-0.33433
-0.331579
-1.49012
-1.49381
-1.45692
-1.38772
-1.2944
-1.18467
-1.06614
-0.945081
-0.827144
-0.71696
-0.617195
-0.530667
-0.457913
-0.399231
-0.353507
-0.320252
-0.296316
-0.279446
-0.265914
-1.39616
-1.4192
-1.39755
-1.3381
-1.2494
-1.14014
-1.01953
-0.895138
-0.77377
-0.661024
-0.55974
-0.473071
-0.401071
-0.343296
-0.297123
-0.260461
-0.228081
-0.197321
-0.164898
-1.30944
-1.35048
-1.34098
-1.28777
-1.2
-1.08777
-0.962004
-0.831864
-0.705437
-0.589051
-0.485767
-0.398425
-0.32633
-0.267924
-0.219729
-0.179032
-0.141757
-0.107197
-0.0748851
-1.23428
-1.29202
-1.29427
-1.24714
-1.16031
-1.0453
-0.914775
-0.779597
-0.649096
-0.530208
-0.426215
-0.339416
-0.268538
-0.211406
-0.16466
-0.126041
-0.0933645
-0.0670922
-0.0478402
-1.16643
-1.24067
-1.25428
-1.21271
-1.12625
-1.00806
-0.87264
-0.732641
-0.598609
-0.477992
-0.374169
-0.288881
-0.220415
-0.166283
-0.123413
-0.0898508
-0.0639224
-0.0453004
-0.0328765
-1.10016
-1.19449
-1.22023
-1.18408
-1.09763
-0.97597
-0.835656
-0.691163
-0.554216
-0.432672
-0.329891
-0.247039
-0.182007
-0.132034
-0.0940951
-0.0660619
-0.0459696
-0.0325559
-0.0240666
-1.04815
-1.15839
-1.19442
-1.16222
-1.07465
-0.948813
-0.803447
-0.654787
-0.515586
-0.393928
-0.29298
-0.213278
-0.152266
-0.106829
-0.0737472
-0.0505016
-0.0347439
-0.024714
-0.0185825
-1.01209
-1.13266
-1.17512
-1.14418
-1.05385
-0.923224
-0.773069
-0.621111
-0.480814
-0.360197
-0.26202
-0.186114
-0.129423
-0.0884312
-0.0596408
-0.0401836
-0.0274932
-0.0196535
-0.0149625
-0.9939
-1.1202
-1.1641
-1.13058
-1.03519
-0.898922
-0.744278
-0.589985
-0.44976
-0.331215
-0.236486
-0.16466
-0.11218
-0.0751614
-0.0498745
-0.0332462
-0.0226585
-0.0162177
-0.0123845
-0.996594
-1.12095
-1.15991
-1.11932
-1.01647
-0.873961
-0.715504
-0.56016
-0.421344
-0.3059
-0.215181
-0.147552
-0.099018
-0.0654262
-0.0429271
-0.0283883
-0.0192475
-0.0137006
-0.0103397
-1.01771
-1.13271
-1.16157
-1.11094
-0.999554
-0.851298
-0.69019
-0.535079
-0.398599
-0.286588
-0.199755
-0.135768
-0.0903802
-0.0593186
-0.0387519
-0.0255492
-0.0172694
-0.0121457
-0.00875793
-1.04555
-1.14709
-1.16369
-1.10395
-0.986853
-0.836329
-0.675352
-0.522012
-0.387971
-0.27831
-0.193634
-0.131273
-0.0871321
-0.0569435
-0.0369866
-0.0241379
-0.016133
-0.0113307
-0.0086515
-1.07767
-1.16536
-1.17324
-1.11048
-0.994917
-0.848657
-0.692336
-0.542581
-0.410188
-0.300105
-0.21357
-0.148377
-0.101099
-0.067888
-0.0453283
-0.0303886
-0.0209598
-0.0155374
-0.0133939
-1.11119
-1.18526
-1.18458
-1.1188
-1.00465
-0.862342
-0.710353
-0.563813
-0.432766
-0.322105
-0.233572
-0.165531
-0.115146
-0.0789833
-0.0539097
-0.0370119
-0.0262818
-0.0202475
-0.0181117
-1.14524
-1.20754
-1.19927
-1.1311
-1.01863
-0.880119
-0.73201
-0.5881
-0.45783
-0.346127
-0.255248
-0.184118
-0.130462
-0.0912386
-0.0635933
-0.0447153
-0.0326799
-0.0260065
-0.0238528
-1.18261
-1.23362
-1.21807
-1.14778
-1.03685
-0.901517
-0.756451
-0.614348
-0.484215
-0.371072
-0.277655
-0.203397
-0.146515
-0.104321
-0.0742147
-0.0534735
-0.0402615
-0.033093
-0.0311103
-1.22658
-1.26333
-1.24077
-1.16856
-1.05866
-0.925505
-0.782379
-0.641159
-0.510567
-0.395738
-0.299801
-0.222612
-0.162787
-0.117929
-0.0856733
-0.0633699
-0.049295
-0.0419706
-0.0405431
-1.26716
-1.29301
-1.26572
-1.19212
-1.08267
-0.950612
-0.808328
-0.667165
-0.535684
-0.419122
-0.320906
-0.241203
-0.178935
-0.131932
-0.098048
-0.074692
-0.0602919
-0.0533905
-0.0531561
-1.3067
-1.32814
-1.29732
-1.22152
-1.1109
-0.978072
-0.835002
-0.692723
-0.559721
-0.441284
-0.341008
-0.259246
-0.195121
-0.14662
-0.111806
-0.0881161
-0.0741859
-0.0685841
-0.0705178
-1.35426
-1.3697
-1.33361
-1.25354
-1.13958
-1.00409
-0.85892
-0.714873
-0.580321
-0.460464
-0.358902
-0.276033
-0.211082
-0.162136
-0.127483
-0.104564
-0.0923129
-0.0893313
-0.0948899
-1.40931
-1.41586
-1.37241
-1.28567
-1.16611
-1.02624
-0.878049
-0.732063
-0.596416
-0.476021
-0.374345
-0.291669
-0.227261
-0.17926
-0.146237
-0.125595
-0.116701
-0.118187
-0.129417
-1.46764
-1.46574
-1.4127
-1.3164
-1.18893
-1.04329
-0.891602
-0.743962
-0.608074
-0.48834
-0.388012
-0.307086
-0.244862
-0.199502
-0.169959
-0.153529
-0.150199
-0.158603
-0.178223
-1.53468
-1.52144
-1.45392
-1.34433
-1.2067
-1.05434
-0.899219
-0.750724
-0.615882
-0.498346
-0.401133
-0.323798
-0.265708
-0.225042
-0.201273
-0.191491
-0.19653
-0.214964
-0.246409
-1.61561
-1.57863
-1.49052
-1.36455
-1.21561
-1.05685
-0.899479
-0.751884
-0.62014
-0.506918
-0.415101
-0.343635
-0.292075
-0.258626
-0.243472
-0.24335
-0.26022
-0.292482
-0.339917
-1.6859
-1.62124
-1.51064
-1.36821
-1.20946
-1.04695
-0.890387
-0.746883
-0.621348
-0.515313
-0.431787
-0.368966
-0.326799
-0.303555
-0.300372
-0.313458
-0.346241
-0.396825
-0.465252
-1.7499
-1.65682
-1.52097
-1.36205
-1.19538
-1.03192
-0.87895
-0.742235
-0.625447
-0.528934
-0.45621
-0.404576
-0.374626
-0.364715
-0.377178
-0.407447
-0.460763
-0.534776
-0.630017
-1.81033
-1.67301
-1.50961
-1.33778
-1.16828
-1.00898
-0.864026
-0.737973
-0.633361
-0.549424
-0.490651
-0.453337
-0.439022
-0.446188
-0.47863
-0.530735
-0.609981
-0.713457
-0.842856
-1.82518
-1.64311
-1.46142
-1.2874
-1.1242
-0.976596
-0.845525
-0.734982
-0.646654
-0.578841
-0.537572
-0.51805
-0.523114
-0.551444
-0.608629
-0.687823
-0.799385
-0.940054
-1.11452
-1.77793
-1.57102
-1.38746
-1.2235
-1.07512
-0.945324
-0.832477
-0.740846
-0.671668
-0.622571
-0.601642
-0.602978
-0.631065
-0.684892
-0.772236
-0.884928
-1.03711
-1.22578
-1.46316
-1.6467
-1.44569
-1.2817
-1.14197
-1.01778
-0.912404
-0.822585
-0.753657
-0.70682
-0.679349
-0.681842
-0.707417
-0.76262
-0.84703
-0.971273
-1.12614
-1.33122
-1.58547
-1.92075
-1.42365
-1.26985
-1.14736
-1.04448
-0.952539
-0.877156
-0.814467
-0.771437
-0.74961
-0.746263
-0.774893
-0.82798
-0.914689
-1.0358
-1.20602
-1.41609
-1.69429
-2.04514
-2.55387
-1.1226
-1.05122
-0.986461
-0.929507
-0.87596
-0.834975
-0.802777
-0.788157
-0.793306
-0.815905
-0.872699
-0.956177
-1.07899
-1.24443
-1.47363
-1.75988
-2.14661
-2.65167
-3.51015
-0.779677
-0.801997
-0.800731
-0.79392
-0.782591
-0.779051
-0.779737
-0.795039
-0.827939
-0.876962
-0.962433
-1.07784
-1.24077
-1.45957
-1.76643
-2.16317
-2.72212
-3.49144
-5.13535
-0.440796
-0.536669
-0.592461
-0.634822
-0.667123
-0.702647
-0.737414
-0.782761
-0.842273
-0.915777
-1.02744
-1.17282
-1.3767
-1.65743
-2.06691
-2.62914
-3.47584
-4.72621
-8.27594
-0.145779
-0.268505
-0.364673
-0.451045
-0.526422
-0.601482
-0.670207
-0.744148
-0.826375
-0.918688
-1.04901
-1.21495
-1.45272
-1.80279
-2.36467
-3.25775
-4.87369
-7.86944
-18.5878
)
;

boundaryField
{
    up
    {
        type            calculated;
        value           nonuniform List<scalar> 
84
(
-16.8456
-9.12354
-5.58776
-3.78154
-2.7346
-2.05039
-1.56019
-1.18836
-0.898759
-0.671781
-0.49561
-0.361271
-0.260938
-0.18771
-0.135334
-0.0983879
-0.0724445
-0.0541028
-0.040902
-0.0311384
-0.0237072
-0.0178727
-0.0129786
-0.00760594
-0.00729076
-0.00942778
-0.0113425
-0.0136568
-0.0168321
-0.021585
-0.0290929
-0.0411697
-0.0633626
-0.157509
-0.268191
-0.333001
-0.370423
-0.416141
-0.460221
-0.497288
-0.523965
-0.538905
-0.538951
-0.524114
-0.497515
-0.460497
-0.416454
-0.370726
-0.333259
-0.268685
-0.158622
-0.0636053
-0.0412858
-0.0291609
-0.0216279
-0.0168611
-0.0136782
-0.0113605
-0.00944712
-0.00730012
-0.00759668
-0.0129778
-0.0178729
-0.0237081
-0.0311399
-0.0409043
-0.0541058
-0.072448
-0.0983914
-0.135336
-0.18771
-0.260936
-0.361265
-0.495603
-0.671775
-0.898758
-1.18836
-1.5602
-2.05041
-2.73461
-3.78155
-5.58776
-9.12353
-16.8456
)
;
    }
    low
    {
        type            calculated;
        value           nonuniform List<scalar> 
84
(
-0.156685
-0.461536
-0.823882
-1.1955
-1.52232
-1.76101
-1.89372
-1.9311
-1.89431
-1.80743
-1.73066
-1.64862
-1.55121
-1.47582
-1.41307
-1.35097
-1.29696
-1.25564
-1.21038
-1.15545
-1.10906
-1.06741
-1.02465
-0.983774
-0.941509
-0.913554
-0.911664
-0.939617
-0.988627
-1.05666
-1.1371
-1.21422
-1.29943
-1.39724
-1.49999
-1.61632
-1.74733
-1.85865
-1.94252
-2.00814
-2.05604
-2.09175
-2.09176
-2.05605
-2.00815
-1.94253
-1.85866
-1.74735
-1.61634
-1.49998
-1.39725
-1.29941
-1.21421
-1.13709
-1.05665
-0.988615
-0.939611
-0.911659
-0.913553
-0.941513
-0.983798
-1.02465
-1.06742
-1.10906
-1.15545
-1.21039
-1.25564
-1.29696
-1.35097
-1.41307
-1.47581
-1.55121
-1.64862
-1.73065
-1.80742
-1.8943
-1.9311
-1.89372
-1.76102
-1.52232
-1.19551
-0.823889
-0.461541
-0.156687
)
;
    }
    left
    {
        type            calculated;
        value           nonuniform List<scalar> 
19
(
-0.143195
-0.264047
-0.362558
-0.452363
-0.531509
-0.61016
-0.682309
-0.76003
-0.846362
-0.944652
-1.084
-1.26297
-1.52268
-1.91155
-2.54105
-3.55771
-5.41722
-8.90332
-17.4697
)
;
    }
    right
    {
        type            calculated;
        value           nonuniform List<scalar> 
19
(
-0.143196
-0.264047
-0.362557
-0.452362
-0.531508
-0.61016
-0.682309
-0.760031
-0.846364
-0.944654
-1.084
-1.26297
-1.52268
-1.91154
-2.54104
-3.5577
-5.41722
-8.90332
-17.4697
)
;
    }
    frontAndBackPlanes
    {
        type            empty;
    }
}


// ************************************************************************* //
