/*--------------------------------*- C++ -*----------------------------------*\
  =========                 |
  \\      /  F ield         | OpenFOAM: The Open Source CFD Toolbox
   \\    /   O peration     | Website:  https://openfoam.org
    \\  /    A nd           | Version:  7
     \\/     M anipulation  |
\*---------------------------------------------------------------------------*/
FoamFile
{
    version     2.0;
    format      ascii;
    class       volScalarField;
    location    "0.095";
    object      gradTz;
}
// * * * * * * * * * * * * * * * * * * * * * * * * * * * * * * * * * * * * * //

dimensions      [0 -1 0 1 0 0 0];

internalField   nonuniform List<scalar> 
1596
(
-4.83967e-16
-2.30556e-16
2.39519e-16
9.95698e-18
-4.42874e-16
0
-1.98792e-16
-1.96155e-16
-2.0009e-17
-1.0705e-16
-5.27455e-19
-1.0773e-16
4.83954e-16
-1.07996e-16
5.01421e-16
4.35155e-16
2.59526e-16
3.29756e-16
0
4.78111e-16
0
6.40894e-16
-7.98796e-18
-1.83613e-16
1.81024e-16
3.91429e-16
1.94503e-17
1.81923e-16
-8.91312e-17
1.78952e-16
-1.49877e-18
-2.49836e-16
-1.57919e-16
-4.04659e-16
-3.9743e-16
-3.63324e-16
2.08192e-16
0
-2.27083e-16
0
-4.02454e-16
1.25049e-17
3.41628e-16
-1.08823e-16
1.449e-17
-2.21491e-18
-1.71374e-18
-1.45201e-18
5.66438e-17
0
1.2941e-16
3.61432e-16
-3.60381e-17
3.03089e-17
7.05499e-17
1.14888e-16
0
3.66354e-16
-9.97366e-17
9.93724e-17
0
-9.18791e-17
-9.83221e-17
1.47923e-16
-1.1488e-16
0
0
-5.9435e-17
2.97586e-17
0
-1.03443e-16
-1.25616e-16
9.01611e-17
-1.01323e-16
-5.15634e-18
0
6.50996e-17
1.56081e-16
-1.26626e-16
0
-3.2868e-17
-1.02621e-16
0
1.44218e-16
-1.3593e-17
-1.23582e-17
-2.51102e-17
7.01385e-17
9.18097e-17
1.07951e-17
1.32484e-17
-9.73882e-17
4.807e-18
4.5751e-17
-2.07316e-17
-1.69053e-17
-2.12233e-16
1.86343e-16
-1.46665e-16
-5.97855e-19
-1.09159e-16
2.92491e-18
-2.93462e-18
-7.41378e-17
0
-2.01166e-17
-8.40526e-17
-8.25083e-17
6.13071e-17
7.74472e-17
-1.01866e-18
-4.66165e-17
-4.64046e-17
3.63127e-17
1.41281e-16
-2.14871e-16
2.17617e-16
1.10944e-16
0
8.5304e-17
4.43667e-17
-2.05576e-17
9.27566e-17
-1.63802e-17
-7.47216e-17
3.82386e-19
-4.04117e-17
-6.14989e-17
-4.37669e-17
4.03356e-17
4.70269e-17
-6.50257e-19
-1.46649e-17
2.34715e-17
3.46769e-16
-3.66654e-16
0
0
-9.62545e-17
0
0
0
4.65918e-17
0
0
3.81249e-17
6.9128e-19
1.70265e-17
-3.59209e-17
0
1.91052e-17
8.37748e-18
0
-2.13703e-16
4.00724e-16
0
0
9.91288e-17
0
-2.83216e-17
2.82929e-17
-4.74237e-17
1.77321e-17
-1.78618e-17
0
2.5281e-17
3.23745e-17
0
-1.84953e-17
-1.94826e-17
-7.45378e-18
5.82912e-16
-2.63521e-16
0
-1.39814e-16
1.3825e-16
0
7.36576e-17
0
0
0
1.4214e-17
-1.42822e-17
0
-1.99481e-17
-5.15917e-18
0
5.14548e-18
9.57163e-18
0
-1.48177e-16
0
0
1.41681e-16
-2.4973e-16
2.44274e-17
1.00167e-17
-2.44617e-17
5.57632e-18
1.92523e-18
-1.46145e-17
-1.94505e-17
0
1.37695e-17
-3.26133e-18
3.31028e-18
1.14924e-17
-7.79228e-18
-3.21735e-18
1.04889e-16
-2.18705e-17
1.01807e-16
3.06577e-16
-3.07521e-17
-1.10118e-16
0
0
0
3.10952e-17
1.00424e-17
3.35346e-17
-7.92148e-18
-1.35232e-17
-6.48461e-18
-4.28491e-18
1.9901e-18
-4.63481e-18
2.99557e-18
-1.27658e-16
1.25989e-16
-2.22313e-16
-3.03923e-16
2.66437e-16
8.36102e-17
-1.44339e-16
1.06552e-16
-7.78298e-17
2.06782e-17
1.1897e-17
-9.47935e-18
3.99739e-18
-4.03986e-18
1.26273e-17
0
-1.02501e-18
8.22772e-18
-1.26071e-18
-8.84149e-16
3.88953e-16
2.31477e-19
-6.23903e-17
1.65665e-17
8.16105e-17
-1.49146e-16
-4.9944e-17
3.56743e-17
-2.50977e-17
-1.76667e-17
0
-1.50334e-17
-4.13e-18
-6.11544e-18
-3.4725e-18
2.6294e-19
-4.07504e-18
3.85949e-19
1.44426e-16
-1.20039e-16
-7.42621e-20
-7.72847e-17
-1.65198e-16
1.49128e-16
8.29988e-19
4.86704e-17
-3.47337e-17
4.77987e-17
1.01286e-17
7.008e-18
1.62456e-17
0
1.03878e-17
4.56786e-18
0
1.88543e-18
2.49467e-19
0
1.16451e-16
7.59468e-17
-1.67116e-16
1.59355e-16
-2.19501e-16
1.38761e-16
3.90971e-17
-1.1386e-17
-4.95728e-17
6.34638e-18
-6.31507e-18
-1.39554e-17
4.43797e-18
-2.28116e-18
-4.0927e-18
1.4566e-18
-9.20111e-19
5.19638e-19
-1.34141e-16
4.07114e-16
-3.0801e-16
1.41276e-16
0
0
-2.20653e-17
5.08027e-17
-2.50652e-17
4.43655e-17
0
0
8.82874e-18
-6.76112e-18
-3.57033e-18
1.11753e-18
-1.15996e-18
6.38693e-19
0
1.95747e-17
1.25631e-16
-8.59454e-17
-6.87402e-17
-9.03331e-17
-1.52505e-17
3.72913e-17
0
-2.27732e-17
-1.3954e-17
1.16128e-17
-7.53696e-18
4.84328e-18
0
1.48168e-18
2.16981e-18
0
0
0
-1.9169e-17
1.67196e-16
4.67518e-17
-2.09232e-16
4.80114e-17
3.65114e-17
0
0
2.05603e-17
-1.11516e-17
-1.12321e-17
7.28961e-18
-4.68382e-18
0
-7.12834e-19
4.85972e-19
0
-3.50996e-19
-1.24692e-19
-9.87014e-17
2.90328e-16
-3.26781e-16
-1.06022e-16
5.85709e-17
-3.2461e-17
2.28857e-17
0
-1.04995e-17
7.52393e-18
0
0
1.48379e-18
-1.4855e-18
2.83159e-19
-4.72656e-19
4.69244e-19
1.03826e-19
9.55163e-20
5.51533e-17
-4.54736e-17
2.02155e-16
-1.276e-16
-4.11995e-17
8.82186e-18
4.99039e-17
1.39334e-17
1.00464e-17
0
3.19892e-18
-2.89007e-18
1.80151e-18
-1.21237e-18
1.00388e-18
-1.48189e-18
-3.57416e-19
2.89591e-19
6.51325e-20
1.39203e-16
-1.45408e-16
0
9.13573e-17
-5.10985e-17
-2.82462e-17
1.22894e-17
-4.50586e-17
0
-6.94011e-19
-4.29642e-18
-2.19557e-18
2.30544e-18
-3.17734e-19
-9.70237e-19
5.77486e-19
0
1.35922e-19
-6.32431e-20
2.59692e-16
-4.05015e-17
1.45425e-16
-1.12412e-16
4.34482e-17
-5.83076e-18
-4.21717e-17
-9.27144e-18
1.50945e-17
-1.04027e-18
-4.72627e-18
3.48154e-18
-1.30029e-18
-1.1322e-18
0
0
0
-1.36767e-19
4.64835e-21
-2.16403e-16
2.06776e-16
6.50675e-20
2.30653e-17
1.68345e-17
-3.11915e-17
3.20351e-17
-2.08597e-17
1.43624e-17
-3.01996e-18
5.47849e-18
1.29186e-18
-4.43407e-19
2.59329e-20
-6.47192e-20
-1.26972e-19
0
0
0
0
0
7.84451e-17
-5.17207e-17
-1.02256e-16
0
0
-5.86071e-18
-7.24524e-18
4.66038e-18
0
-1.62927e-18
9.57911e-19
-2.25966e-18
2.43032e-18
-5.4508e-19
5.76097e-19
5.17879e-20
0
-4.17274e-17
4.22409e-17
0
-2.50154e-17
2.43017e-17
3.21076e-17
0
5.91668e-18
4.41323e-18
-2.28891e-17
0
-1.92788e-18
1.14366e-18
5.93311e-19
-3.45732e-19
4.2156e-19
0
-1.16492e-19
0
-2.15156e-17
-1.94555e-17
1.14754e-18
2.57027e-17
-5.87117e-17
0
-1.03517e-17
0
1.77879e-17
5.33645e-18
0
7.56484e-18
-6.56479e-18
9.06087e-19
-5.84686e-19
4.23114e-19
8.01666e-19
2.35564e-19
-1.86779e-19
0
4.25197e-17
-3.14779e-17
3.8102e-17
3.67844e-17
0
2.03368e-17
-1.77052e-17
-9.81525e-18
1.06574e-17
-1.55744e-17
-5.24396e-18
0
0
4.96914e-19
0
0
9.1184e-20
0
-1.97988e-16
1.53975e-16
0
3.94244e-18
-2.02269e-17
-9.54722e-19
1.43647e-17
6.69901e-18
-1.06951e-17
-1.69299e-17
2.00905e-17
-5.68202e-18
0
-1.40553e-18
0
0
0
-3.57597e-19
2.87321e-19
-5.82537e-17
5.03526e-17
1.18202e-16
-1.1067e-16
3.02132e-17
2.85824e-18
-1.45211e-17
1.02872e-17
1.41738e-17
8.34315e-18
-1.61113e-17
0
4.3931e-18
-4.41632e-19
-1.60538e-18
-2.39134e-18
1.85336e-18
-1.78544e-19
3.90085e-19
-2.05359e-16
2.54743e-16
-2.47694e-16
3.80085e-17
2.735e-17
-2.4278e-17
1.85812e-17
-1.15852e-17
0
-7.00511e-18
8.1036e-18
3.38503e-18
4.55527e-18
3.90233e-18
-5.49769e-18
-3.35987e-19
0
-1.89017e-19
6.52899e-20
-2.21909e-16
-5.90696e-17
-9.11275e-17
5.1155e-17
-6.70435e-17
5.03835e-17
-2.79951e-17
1.91094e-17
-2.4935e-18
-2.29807e-18
-9.78385e-18
6.48476e-18
-1.68023e-18
5.95656e-18
-6.39443e-18
2.89438e-19
5.14587e-19
0
-1.26748e-19
2.39932e-16
-6.44483e-17
0
0
-6.88092e-17
1.28211e-16
-2.73024e-17
-4.01715e-18
2.94619e-17
-9.91304e-19
0
0
-3.61113e-18
0
-6.16925e-18
1.35009e-17
-8.88189e-18
0
6.08931e-20
7.91998e-17
1.39036e-16
0
-5.12813e-17
-3.47589e-17
-2.52746e-17
-2.88468e-17
9.78843e-18
-2.5323e-17
-1.12543e-17
0
0
6.75343e-18
0
0
-9.46876e-18
1.59988e-17
0
0
5.44295e-16
-7.82552e-17
-3.00533e-16
-1.40111e-16
1.92073e-16
5.30015e-17
2.79705e-17
0
-8.11904e-18
6.68643e-18
1.66729e-17
-5.04807e-18
-5.92618e-18
8.68336e-18
-9.23643e-18
-2.26489e-18
0
0
0
4.35797e-17
-3.17704e-16
3.09283e-16
-2.69947e-17
-1.86224e-16
2.79068e-16
-1.33651e-16
0
0
4.94205e-17
-3.89229e-17
0
-8.97957e-18
1.61618e-17
-1.40083e-18
4.2287e-18
1.19614e-18
2.03375e-20
2.38447e-19
0
0
0
2.30896e-16
-1.56155e-16
1.38969e-16
-2.11174e-16
5.6733e-17
0
-1.63354e-17
2.31529e-17
-2.36636e-17
-3.95753e-18
2.18626e-19
-2.37473e-18
-2.6393e-19
-1.87426e-18
-5.45541e-19
-2.85473e-19
3.576e-16
-6.21135e-16
2.86282e-16
0
6.2774e-17
-8.64213e-17
7.47235e-17
-5.8949e-17
0
-2.24841e-17
3.16885e-17
0
0
2.03115e-19
0
-2.76108e-18
1.85239e-18
2.57466e-19
4.66864e-19
3.63677e-16
0
-1.24179e-16
1.38282e-16
-7.60824e-17
1.61806e-16
-7.36292e-17
-4.96575e-17
5.01761e-17
-4.61367e-18
0
0
2.46015e-18
-3.7534e-18
-2.57733e-18
4.7992e-18
-1.03073e-18
4.91542e-19
0
2.05942e-16
1.46948e-16
-1.23298e-17
-1.32624e-16
-1.21752e-17
-8.00405e-17
1.31632e-17
6.25641e-17
-2.92113e-18
4.7003e-18
0
0
-2.52026e-18
0
2.76936e-18
-2.96256e-18
0
3.69212e-19
-1.00596e-19
-1.09194e-16
-7.38703e-17
6.93035e-17
-7.27451e-18
-3.07956e-18
7.77381e-18
0
-1.80066e-18
2.44334e-17
-2.05588e-17
0
5.82878e-18
-1.3598e-18
-4.92004e-18
-4.30251e-19
-3.28133e-19
0
-2.9019e-19
0
4.28689e-17
-7.97265e-17
8.16885e-19
3.16947e-17
2.58299e-17
-2.5479e-17
-1.5897e-17
1.79204e-17
-5.40932e-18
4.28171e-18
-3.64781e-18
3.76032e-18
0
8.56455e-21
-3.16351e-19
1.13146e-18
-3.79683e-21
0
0
4.28704e-17
-4.27098e-17
-3.15253e-17
2.80437e-17
4.54759e-17
-4.57443e-17
-7.94892e-18
7.96988e-18
-5.4566e-18
5.51317e-18
-3.64806e-18
6.72896e-18
-1.88766e-18
-1.26524e-18
-3.65506e-19
1.26178e-19
2.84221e-19
7.40184e-20
-5.54029e-20
0
-9.92009e-18
5.46272e-17
-5.95504e-17
4.52575e-17
-4.03212e-17
0
2.60953e-17
-2.34764e-17
0
7.18092e-18
-9.02134e-18
-4.69555e-18
4.92123e-18
8.43827e-19
0
0
-2.90313e-19
1.04936e-19
1.70387e-16
-3.06663e-16
2.97112e-16
-2.46413e-16
9.4342e-17
-6.98396e-17
6.67432e-17
7.01656e-18
-2.39022e-17
2.12556e-17
0
-1.27708e-17
1.16664e-17
-2.01593e-18
-8.26528e-19
1.21192e-18
8.73889e-19
2.81838e-19
-1.01392e-19
4.08978e-16
0
-1.40979e-16
1.09796e-16
1.20359e-17
-8.35302e-17
1.4259e-16
-1.17565e-16
4.46294e-17
-1.63754e-17
1.67616e-17
3.05318e-18
4.7307e-18
1.96354e-18
-1.47792e-18
-2.36329e-19
-1.87431e-18
0
1.75044e-19
3.12908e-16
-3.52271e-16
0
2.8124e-17
1.09866e-16
-1.06017e-16
1.60824e-17
1.31252e-17
5.44259e-18
8.5459e-18
0
0
-8.08113e-18
1.42953e-17
-5.0614e-18
-1.6933e-18
1.85388e-18
1.42794e-19
-3.27002e-19
4.62588e-17
3.10007e-16
-3.27438e-17
-2.03329e-16
1.7927e-16
1.91856e-17
-1.57396e-17
-1.28194e-17
3.66761e-17
-4.52762e-17
2.31688e-17
-2.36796e-17
2.93414e-18
-4.33263e-18
6.55813e-18
-4.42719e-18
0
0
2.62418e-19
0
7.52559e-17
-2.04996e-16
2.35512e-16
-1.63864e-16
1.63474e-16
0
4.33408e-17
-4.35394e-17
-2.70435e-17
3.89695e-17
0
1.27906e-17
-1.61834e-17
-2.26405e-18
0
-2.13231e-19
-3.46549e-19
-5.06515e-20
-7.53909e-16
3.48707e-16
0
-1.9207e-16
1.92051e-16
9.94544e-17
-6.48e-17
2.21327e-17
0
-7.89553e-19
4.25975e-18
-5.04483e-18
-5.92351e-18
8.67916e-18
-9.22882e-18
0
1.47983e-18
-1.68191e-19
-2.19134e-19
4.54535e-16
-4.38295e-16
0
5.0219e-17
4.15021e-17
-3.54974e-17
0
-2.31952e-17
-1.64106e-17
0
-1.80212e-18
0
6.76225e-18
0
0
1.85948e-18
6.56244e-18
-8.75918e-18
0
-4.11371e-20
6.44829e-17
-5.46162e-17
3.65994e-17
-1.90125e-16
6.8573e-17
0
4.02216e-18
1.09587e-17
0
-8.7007e-18
1.92089e-17
-2.01801e-17
2.49223e-18
0
-6.13139e-19
0
0
0
-1.83498e-20
0
5.0479e-17
0
-5.95024e-17
6.04483e-17
0
1.46214e-17
-9.66369e-18
3.13628e-17
-1.43384e-17
3.69012e-18
-4.97951e-18
3.71361e-18
-6.41223e-18
-9.24091e-19
0
-2.99701e-19
0
1.71139e-16
-2.90819e-16
0
-3.72771e-17
2.94355e-17
0
0
-2.57352e-17
0
-7.01543e-18
-8.11712e-18
-3.39156e-18
4.56541e-18
0
1.33183e-18
0
0
5.88702e-19
-5.79437e-19
0
2.34776e-16
-1.86116e-16
3.45101e-17
-2.72575e-17
-8.78694e-18
2.34625e-17
2.16218e-17
-2.04215e-17
6.37939e-18
1.26115e-18
-3.05195e-18
1.17591e-17
-3.48983e-18
-5.60459e-18
1.65801e-18
-2.76269e-19
1.70704e-19
-3.59182e-20
-4.25349e-16
1.5413e-16
0
0
1.03645e-17
-1.05395e-17
4.56462e-18
1.14965e-18
1.71021e-17
6.59236e-18
-5.91355e-18
-6.5974e-19
-1.85717e-18
1.40894e-18
0
3.68243e-19
2.53221e-19
9.89227e-20
3.24649e-20
0
1.23961e-16
-1.05802e-16
3.19554e-17
2.58179e-17
-4.71987e-18
-1.16714e-17
-8.10355e-18
-2.07402e-17
6.28248e-18
-2.10295e-18
4.06249e-18
1.73668e-18
-1.4195e-18
1.50671e-18
5.73374e-19
-8.33754e-19
-9.13697e-20
0
-2.50085e-17
-1.0066e-16
3.1985e-17
2.57123e-17
-7.31159e-17
4.83806e-17
1.66283e-17
-1.69967e-17
9.31987e-18
-5.96238e-18
0
0
-1.95193e-18
3.18317e-18
-1.2061e-18
7.44019e-19
-8.21981e-19
1.05499e-19
-1.87053e-19
4.53201e-17
3.88314e-17
-3.13019e-17
1.78793e-17
-2.47464e-17
-2.66282e-17
0
0
0
0
0
0
1.01804e-18
-1.93e-18
2.04119e-18
-4.32949e-19
5.5323e-19
2.05581e-19
-1.71198e-19
9.69186e-17
-1.3805e-16
1.70771e-16
-5.91064e-17
8.41435e-17
-4.17834e-17
7.11279e-17
-3.45117e-17
-1.15609e-17
1.18262e-17
0
1.6284e-18
-9.94576e-19
1.68148e-18
-8.03938e-19
-6.69721e-19
-9.62637e-19
8.53398e-20
1.4107e-19
1.52481e-16
3.83128e-17
0
-4.61207e-17
-2.82343e-17
5.90623e-17
1.483e-18
-1.58252e-17
8.10313e-18
-4.05608e-18
0
-1.28906e-18
0
-6.47683e-19
4.43396e-19
-3.13407e-19
-9.37865e-20
5.02133e-20
0
2.10668e-16
-4.05008e-17
1.45598e-16
-1.12747e-16
-1.81237e-17
5.53866e-17
-3.28161e-17
2.51046e-18
1.60698e-18
-4.18202e-18
3.611e-18
0
0
9.12183e-19
-1.90915e-19
9.0917e-20
3.34668e-19
-1.11926e-19
0
1.82956e-20
0
-3.39768e-17
1.70054e-16
-1.10451e-16
-8.86573e-17
4.7581e-17
-3.35125e-17
2.90171e-17
1.06306e-17
-6.21341e-18
2.07818e-18
-1.61775e-18
3.84843e-19
1.55015e-18
-3.2121e-20
-3.57015e-19
3.26791e-19
-6.98888e-20
4.95193e-16
-1.53897e-16
5.64258e-17
-1.83146e-16
4.11994e-17
-5.29869e-17
3.05097e-17
0
0
-7.97715e-19
-1.36593e-18
-3.62345e-19
0
-1.67055e-18
-1.00389e-18
5.9672e-19
-3.79301e-20
9.95311e-20
1.52511e-19
0
-1.4515e-16
2.15282e-16
3.03649e-17
-1.5018e-16
3.2461e-17
-3.99174e-17
1.2195e-17
2.70246e-17
0
0
3.65777e-19
2.38199e-18
0
-1.27083e-18
-4.57111e-19
7.36143e-20
-1.5635e-19
-2.10688e-19
0
-8.39235e-17
3.48715e-17
1.45642e-16
8.38496e-17
-1.45941e-16
6.11727e-17
-3.0443e-17
1.74103e-17
-1.70174e-17
0
0
0
-2.99463e-18
3.99004e-19
-7.16364e-19
0
-3.32197e-20
1.58506e-19
-3.6534e-16
3.38218e-16
3.08191e-16
-3.69809e-16
1.41219e-16
-1.27985e-16
0
3.33227e-17
-4.25951e-17
2.12319e-17
-1.26345e-17
8.33459e-18
5.46183e-18
3.09711e-18
1.99268e-18
0
0
0
0
4.22205e-16
-2.22703e-16
0
0
-5.49869e-17
1.1181e-16
-7.02358e-17
-3.63052e-17
3.58959e-17
1.95961e-17
2.72171e-17
-8.64794e-18
3.16276e-18
1.79094e-18
1.11187e-18
9.11847e-19
1.40207e-18
-6.36455e-20
6.48287e-20
-4.1997e-16
3.69412e-16
1.7025e-16
-9.23008e-17
1.58776e-16
-1.00093e-16
-6.42191e-17
-4.62583e-17
0
-4.12868e-17
3.91382e-18
1.07005e-17
-6.58466e-18
-4.43817e-18
-1.40891e-18
-1.185e-18
-9.54669e-19
0
0
-1.44447e-16
0
9.72744e-17
1.5924e-19
0
0
6.6244e-17
4.7732e-17
0
2.33836e-17
0
-1.59522e-17
-3.73775e-18
6.28928e-18
0
3.62483e-18
-4.76368e-19
4.8596e-19
0
3.16324e-16
0
1.79604e-16
-3.18317e-16
2.61183e-16
1.74693e-16
-1.11474e-17
0
5.63093e-18
3.06618e-17
0
-1.93874e-17
1.86218e-17
-1.53935e-17
-3.14243e-18
-2.81675e-18
-9.5637e-19
-2.01806e-19
-1.00332e-18
-2.77853e-16
3.95789e-16
-1.01253e-16
-2.40616e-16
-1.25053e-16
-9.52574e-17
-1.4203e-16
-4.53255e-17
7.30885e-18
1.19195e-17
-1.18971e-17
3.02357e-17
-1.25683e-17
2.23511e-17
-4.09031e-18
0
5.88288e-18
-3.93729e-18
9.48374e-19
6.50536e-16
-2.15421e-17
-4.25772e-16
3.06579e-16
-2.53513e-16
1.94886e-16
-1.13166e-17
-5.46749e-17
4.11176e-17
1.30996e-17
-3.05362e-18
-2.64913e-17
6.47391e-18
9.51934e-18
-2.31624e-18
2.34266e-18
-6.09323e-18
-2.14984e-18
-2.52487e-18
3.19355e-16
1.22969e-16
1.99342e-16
-1.57444e-16
-1.09944e-16
1.31681e-17
-6.43028e-17
1.50778e-16
8.26392e-18
5.32252e-17
2.81228e-17
-2.35861e-17
0
-1.37701e-17
0
0
1.37217e-17
5.3926e-18
2.86769e-18
2.90566e-16
0
1.93881e-16
1.56428e-16
-1.22832e-16
9.5604e-17
0
-5.67927e-17
-7.19443e-17
-5.54243e-17
-2.83717e-17
2.38528e-17
0
0
0
0
-1.29481e-17
-1.33492e-17
0
-5.68644e-16
0
-1.8858e-17
-1.72404e-17
1.89976e-16
-8.82337e-17
-3.67e-17
-3.73967e-17
7.52664e-17
0
1.77322e-17
-1.75896e-18
1.99458e-17
0
0
2.95462e-17
-2.28738e-18
1.60877e-17
-8.17939e-18
3.94053e-16
1.02058e-16
-1.01005e-16
-8.07304e-17
-2.41199e-16
1.50938e-16
1.63583e-16
-8.90917e-18
-5.4008e-17
5.73956e-17
1.11741e-17
-6.14951e-17
-4.59048e-17
-3.60294e-17
-3.96763e-17
-3.42447e-17
3.65312e-17
-1.65278e-18
8.37742e-18
-1.17553e-16
4.93011e-17
-2.29649e-16
3.38214e-17
-3.36983e-17
0
-8.3108e-17
-1.29601e-17
-7.64434e-17
1.48442e-17
7.4721e-17
4.89383e-17
-1.35839e-17
-2.75043e-18
3.72223e-17
0
-8.20395e-17
-3.41877e-17
-6.87577e-19
2.49197e-16
-6.04201e-18
3.61002e-16
-1.60493e-16
5.97853e-19
3.74824e-18
1.079e-16
-1.76468e-17
7.41375e-17
-6.89414e-17
-6.57634e-17
0
8.2507e-17
6.02631e-17
9.83733e-19
-1.45586e-18
4.70758e-17
3.47284e-17
0
-1.74804e-16
0
-3.07069e-17
1.55835e-16
4.05362e-18
3.29119e-17
-1.04338e-16
9.58406e-17
1.13622e-16
1.10172e-16
1.08349e-16
0
-8.0154e-17
0
5.1033e-18
-5.30023e-18
0
-5.75264e-19
2.96166e-17
1.27644e-16
1.20598e-17
-8.1722e-17
2.60232e-16
-8.06978e-17
0
0
-1.42435e-16
-1.10088e-16
-1.06732e-16
-2.10681e-16
-2.97583e-17
0
0
0
-1.17427e-17
1.24267e-17
8.43632e-17
-3.00916e-17
1.28587e-17
0
-1.93179e-16
-1.62924e-16
1.79519e-16
-1.79874e-16
-2.52031e-16
2.92204e-16
9.17738e-17
0
1.30851e-16
1.65442e-16
-3.56027e-17
2.00117e-16
-3.3236e-17
3.45906e-17
1.40216e-16
-8.01781e-17
0
-2.41339e-16
0
-2.24273e-16
2.17099e-16
0
3.64635e-16
1.66427e-16
-3.65892e-16
3.08069e-16
-1.05099e-18
-9.00437e-17
-1.60182e-16
0
2.46132e-16
-4.04658e-16
4.37001e-16
-5.57581e-16
0
0
2.41845e-16
-3.09014e-18
-7.48687e-18
-4.477e-16
4.58081e-16
-2.17328e-16
2.16442e-16
2.13551e-16
-1.75379e-16
0
0
3.68796e-16
-3.75149e-16
-3.8984e-16
3.89677e-16
-3.82173e-16
4.15514e-16
-6.53136e-16
0
)
;

boundaryField
{
    up
    {
        type            calculated;
        value           nonuniform List<scalar> 
84
(
0
0
0
0
-2.07316e-17
3.63127e-17
-1.46649e-17
8.37748e-18
-7.45378e-18
0
-3.21735e-18
2.99557e-18
-1.26071e-18
3.85949e-19
2.49467e-19
5.19638e-19
0
0
-1.24692e-19
9.55163e-20
6.51325e-20
-6.32431e-20
4.64835e-21
0
2.27387e-20
1.50933e-20
-1.69359e-19
0
2.87321e-19
4.4078e-19
6.52899e-20
-1.26748e-19
6.08931e-20
0
-2.68175e-21
2.38152e-19
-2.79142e-19
4.6146e-19
0
-9.90384e-20
0
0
-5.51971e-20
1.04936e-19
-1.01392e-19
1.75044e-19
-3.27002e-19
2.62418e-19
-5.06515e-20
-2.19134e-19
0
0
0
-5.79437e-19
-8.70208e-20
3.24649e-20
0
-1.87053e-19
-1.71198e-19
1.18371e-19
0
0
-6.98888e-20
1.52511e-19
-2.10688e-19
1.58506e-19
0
6.48287e-20
0
0
-1.00332e-18
9.48374e-19
-2.52487e-18
2.86769e-18
0
-8.17939e-18
8.37742e-18
-6.87577e-19
0
2.96166e-17
-3.00916e-17
0
0
0
)
;
    }
    low
    {
        type            calculated;
        value           nonuniform List<scalar> 
84
(
-4.84663e-16
4.78111e-16
-2.2582e-16
3.67343e-16
6.57445e-17
-1.70885e-17
1.42761e-16
2.48409e-17
0
5.84487e-16
-1.48177e-16
1.03884e-16
-1.27658e-16
-8.84493e-16
1.44426e-16
0
-1.34141e-16
1.95747e-17
-1.9169e-17
-9.87014e-17
5.51533e-17
1.39203e-16
2.58337e-16
-2.16403e-16
0
-4.17274e-17
-2.15156e-17
0
-1.97988e-16
-5.82537e-17
-2.04616e-16
-2.2143e-16
2.39744e-16
7.91998e-17
5.4467e-16
4.35797e-17
0
3.576e-16
3.65021e-16
2.06646e-16
-1.09559e-16
4.28689e-17
4.28704e-17
0
1.70387e-16
4.10322e-16
3.12908e-16
4.73309e-17
0
-7.54283e-16
4.54535e-16
-4.11371e-20
-1.83498e-20
1.71139e-16
0
-4.23805e-16
0
-2.50085e-17
4.53201e-17
9.59647e-17
1.50921e-16
2.09313e-16
1.82956e-20
4.94278e-16
0
0
-3.6534e-16
4.22052e-16
-4.20002e-16
-1.44447e-16
3.16668e-16
-2.77853e-16
6.52547e-16
3.20633e-16
2.90566e-16
-5.68644e-16
3.92684e-16
-1.16073e-16
2.49197e-16
-1.74159e-16
1.27644e-16
1.41219e-17
-2.41339e-16
2.42193e-16
)
;
    }
    left
    {
        type            calculated;
        value           nonuniform List<scalar> 
19
(
-4.83967e-16
-2.30841e-16
2.39519e-16
1.00966e-17
-4.4325e-16
0
-1.98792e-16
-1.96155e-16
-2.09906e-17
-1.0705e-16
-5.27455e-19
-1.0773e-16
4.88667e-16
-1.07996e-16
5.01421e-16
4.35155e-16
2.59526e-16
3.82661e-16
0
)
;
    }
    right
    {
        type            calculated;
        value           nonuniform List<scalar> 
19
(
2.41845e-16
-2.80512e-18
-7.48687e-18
-4.4784e-16
4.58457e-16
-2.17328e-16
2.16442e-16
2.13551e-16
-1.74397e-16
0
0
3.7231e-16
-3.79862e-16
-3.8984e-16
3.89677e-16
-3.82173e-16
4.15514e-16
-7.06042e-16
0
)
;
    }
    frontAndBackPlanes
    {
        type            empty;
    }
}


// ************************************************************************* //
