/*--------------------------------*- C++ -*----------------------------------*\
  =========                 |
  \\      /  F ield         | OpenFOAM: The Open Source CFD Toolbox
   \\    /   O peration     | Website:  https://openfoam.org
    \\  /    A nd           | Version:  7
     \\/     M anipulation  |
\*---------------------------------------------------------------------------*/
FoamFile
{
    version     2.0;
    format      ascii;
    class       volScalarField;
    location    "0.006";
    object      T;
}
// * * * * * * * * * * * * * * * * * * * * * * * * * * * * * * * * * * * * * //

dimensions      [0 0 0 1 0 0 0];

internalField   nonuniform List<scalar> 
1596
(
4.37283
3.54214
3.23782
3.14561
3.11332
3.09589
3.08422
3.07562
3.07304
3.07383
3.08466
3.10677
3.13918
3.18338
3.24363
3.29883
3.301
3.08584
2.3104
3.41256
1.75057
1.20256
1.05432
1.01254
0.995742
0.986161
0.979977
0.978694
0.98054
0.990515
1.00969
1.03825
1.07837
1.13849
1.21561
1.30646
1.33098
1.02699
3.04239
1.09974
0.472223
0.30976
0.270753
0.259963
0.255654
0.253447
0.253298
0.25442
0.258775
0.266821
0.27879
0.295576
0.3214
0.357549
0.411989
0.468681
0.408302
2.97191
0.946331
0.281484
0.108516
0.0690608
0.0603372
0.0580978
0.0573543
0.057364
0.0577581
0.0590948
0.0615141
0.0651072
0.070079
0.0777335
0.0887237
0.107848
0.137446
0.141571
3.01133
0.954769
0.254561
0.0667675
0.0234246
0.0143066
0.012422
0.0120038
0.0119706
0.0120616
0.012387
0.0129782
0.0138596
0.0150539
0.0168511
0.0193398
0.024131
0.034244
0.0429374
3.09376
1.0179
0.274074
0.0655538
0.0156936
0.0050162
0.00288168
0.00246683
0.0023995
0.00240521
0.00247013
0.00259469
0.00278364
0.00303392
0.00339309
0.00382812
0.00470734
0.00733334
0.0115117
3.19369
1.10524
0.310476
0.0755708
0.0168068
0.00375784
0.0010936
0.000580328
0.000486928
0.000472245
0.000481004
0.000503977
0.000540726
0.000588729
0.000653209
0.000709738
0.000812258
0.00135012
0.00275609
3.29392
1.20225
0.355036
0.0900711
0.0204361
0.00431518
0.00091245
0.00024313
0.000118251
9.56957e-05
9.34125e-05
9.66669e-05
0.000103189
0.000111854
0.000122775
0.00012705
0.00012599
0.000210143
0.00059354
3.39039
1.30483
0.406346
0.108292
0.0256246
0.00554676
0.00112813
0.000228614
5.62046e-05
2.44799e-05
1.90424e-05
1.86383e-05
1.95694e-05
2.10269e-05
2.28314e-05
2.25917e-05
1.81743e-05
2.62998e-05
0.000115476
3.4541
1.38185
0.449003
0.124901
0.0307993
0.00692091
0.00144441
0.000286182
5.64316e-05
1.29897e-05
5.11599e-06
3.78708e-06
3.70668e-06
3.90083e-06
4.18994e-06
4.03936e-06
2.61025e-06
2.22486e-06
2.03502e-05
3.48871
1.42985
0.477943
0.137017
0.0348358
0.00806755
0.00173201
0.000350359
6.80346e-05
1.31399e-05
2.90838e-06
1.05576e-06
7.44443e-07
7.18685e-07
7.54339e-07
7.23332e-07
4.11949e-07
-2.74772e-09
3.24685e-06
3.51957
1.4704
0.502482
0.147433
0.0383664
0.0090906
0.00199537
0.000412071
8.12343e-05
1.54833e-05
2.9618e-06
6.38342e-07
2.16042e-07
1.42736e-07
1.35023e-07
1.28859e-07
7.52682e-08
-4.68452e-08
4.69947e-07
3.52667
1.48403
0.51291
0.152613
0.0403295
0.00970822
0.00216496
0.000454093
9.08423e-05
1.74967e-05
3.30645e-06
6.30645e-07
1.3401e-07
4.26073e-08
2.6333e-08
2.29229e-08
1.50093e-08
-1.11185e-08
6.1903e-08
3.50585
1.4649
0.505007
0.150522
0.0399747
0.0096914
0.00217937
0.000461258
9.31344e-05
1.80972e-05
3.43869e-06
6.47233e-07
1.23713e-07
2.61346e-08
7.95692e-09
4.51388e-09
3.06142e-09
-1.65541e-09
7.44405e-09
3.47338
1.42796
0.485701
0.143387
0.0378559
0.00915126
0.00205655
0.000435625
8.81102e-05
1.71573e-05
3.26597e-06
6.14024e-07
1.15334e-07
2.21451e-08
4.70357e-09
1.3905e-09
6.91244e-10
-1.40405e-10
8.2829e-10
3.4284
1.37573
0.457604
0.13256
0.0344626
0.00822939
0.00183158
0.000384984
7.73712e-05
1.49824e-05
2.83706e-06
5.30426e-07
9.88049e-08
1.85474e-08
3.60287e-09
7.72996e-10
2.27029e-10
2.16333e-11
9.02054e-11
3.36287
1.30275
0.419253
0.118007
0.0299392
0.00700286
0.00153132
0.000316972
6.28369e-05
1.20163e-05
2.24851e-06
4.15537e-07
7.64852e-08
1.41515e-08
2.67542e-09
5.25617e-10
1.16185e-10
2.31079e-11
1.23256e-11
3.28351
1.21635
0.374624
0.101343
0.0248381
0.00563949
0.00120187
0.000243212
4.72419e-05
8.86592e-06
1.62979e-06
2.9607e-07
5.35834e-08
9.74539e-09
1.80684e-09
3.43783e-10
6.91665e-11
1.43688e-11
3.35353e-12
3.20854
1.13529
0.333307
0.0860823
0.0202113
0.00441435
0.000908716
0.000178262
3.36615e-05
6.15449e-06
1.10381e-06
1.95824e-07
3.46321e-08
6.15678e-09
1.11547e-09
2.0689e-10
3.99686e-11
8.07683e-12
1.52875e-12
3.1192
1.04711
0.291488
0.0715092
0.0159911
0.0033372
0.000658744
0.00012435
2.2666e-05
4.011e-06
6.97665e-07
1.20217e-07
2.06725e-08
3.5761e-09
6.30695e-10
1.13846e-10
2.1334e-11
4.18007e-12
7.51834e-13
3.00917
0.947418
0.247613
0.0572678
0.0121254
0.0024052
0.000452892
8.1831e-05
1.43227e-05
2.44095e-06
4.09902e-07
6.83288e-08
1.13853e-08
1.9108e-09
3.27234e-10
5.73894e-11
1.04449e-11
1.98695e-12
3.48162e-13
2.89366
0.847243
0.205742
0.0444135
0.00882912
0.00165342
0.000295343
5.08334e-05
8.5061e-06
1.39049e-06
2.24611e-07
3.61053e-08
5.8136e-09
9.44519e-10
1.56794e-10
2.66837e-11
4.71553e-12
8.7142e-13
1.49179e-13
2.77997
0.7525
0.168081
0.0334677
0.00617582
0.0010813
0.000181812
2.96307e-05
4.7183e-06
7.37142e-07
1.14216e-07
1.76663e-08
2.74463e-09
4.3125e-10
6.93711e-11
1.14591e-11
1.96834e-12
3.5406e-13
5.94213e-14
2.67749
0.666425
0.134631
0.0241099
0.00401287
0.000638986
9.87454e-05
1.49463e-05
2.23069e-06
3.29055e-07
4.84286e-08
7.1471e-09
1.06321e-09
1.60419e-10
2.48538e-11
3.96592e-12
6.61662e-13
1.16552e-13
1.91565e-14
2.64441
0.634455
0.121912
0.0205681
0.00321539
0.000483484
7.1511e-05
1.05564e-05
1.56801e-06
2.34507e-07
3.55165e-08
5.45312e-09
8.50025e-10
1.34978e-10
2.20896e-11
3.74274e-12
6.70657e-13
1.2933e-13
2.1309e-14
2.67021
0.647556
0.124815
0.0208399
0.00316944
0.000455857
6.38482e-05
8.95086e-06
1.28661e-06
1.92341e-07
3.02393e-08
4.99532e-09
8.6291e-10
1.55509e-10
2.9503e-11
5.94292e-12
1.30295e-12
3.16551e-13
6.7176e-14
2.73515
0.691516
0.139007
0.024031
0.00372472
0.000531698
7.12192e-05
9.13965e-06
1.1589e-06
1.52135e-07
2.21469e-08
3.75709e-09
7.41858e-10
1.6436e-10
3.98585e-11
1.04889e-11
3.02848e-12
9.59526e-13
2.61188e-13
2.83964
0.772417
0.168494
0.0316656
0.00531282
0.00081091
0.000113373
1.45239e-05
1.69686e-06
1.79908e-07
1.80701e-08
2.18028e-09
4.7956e-10
1.62578e-10
5.99116e-11
2.21885e-11
8.41431e-12
3.30412e-12
1.05764e-12
2.97294
0.885714
0.213772
0.0446215
0.00832204
0.00141031
0.000218273
3.07443e-05
3.87967e-06
4.20612e-07
3.54222e-08
1.64991e-09
6.94629e-11
1.41546e-10
1.04428e-10
5.47927e-11
2.59735e-11
1.20402e-11
4.36323e-12
3.11345
1.01759
0.271713
0.0629259
0.0130388
0.00245891
0.000424801
6.71707e-05
9.61246e-06
1.20297e-06
1.20488e-07
6.50635e-09
-6.03826e-10
-5.80523e-11
1.49833e-10
1.24316e-10
7.40766e-11
4.07193e-11
1.68967e-11
3.24173
1.15353
0.338287
0.0863487
0.019763
0.00412777
0.000793292
0.000140585
2.28361e-05
3.31993e-06
4.06718e-07
3.28984e-08
-1.49055e-09
-1.2475e-09
-1.47714e-10
1.38e-10
1.4611e-10
1.07568e-10
5.49905e-11
3.37277
1.30317
0.418089
0.117095
0.0294744
0.00679405
0.0014491
0.000287503
5.30087e-05
8.95372e-06
1.33697e-06
1.54154e-07
3.92313e-09
-5.39087e-09
-2.39496e-09
-6.73594e-10
-7.16166e-11
1.11254e-10
1.14097e-10
3.49395
1.45583
0.507671
0.155207
0.0428215
0.0108781
0.0025763
0.000573583
0.000120523
2.37802e-05
4.34701e-06
6.96117e-07
7.74e-08
-5.98371e-09
-8.83848e-09
-4.63504e-09
-2.01085e-09
-7.24789e-10
-1.01929e-10
3.59869
1.60358
0.604002
0.200848
0.0606855
0.0170191
0.00449468
0.00113071
0.000273478
6.38839e-05
1.45112e-05
3.19873e-06
6.74535e-07
1.29606e-07
1.87891e-08
-1.00232e-09
-2.93813e-09
-2.00673e-09
-7.60925e-10
3.68242
1.73597
0.699077
0.250444
0.0820816
0.0251434
0.00730783
0.00204097
0.000553932
0.000147251
3.88093e-05
1.02307e-05
2.71856e-06
7.33362e-07
2.02926e-07
5.73444e-08
1.63083e-08
4.17751e-09
4.09666e-10
3.72929
1.81661
0.760894
0.284843
0.0979456
0.0316056
0.00971735
0.00288389
0.000835867
0.000238566
6.79192e-05
1.94756e-05
5.67602e-06
1.69732e-06
5.28269e-07
1.71859e-07
5.86845e-08
2.0032e-08
4.55568e-09
3.74215
1.84419
0.784109
0.298797
0.10488
0.0346554
0.0109469
0.00334971
0.00100494
0.000298063
8.85815e-05
2.66404e-05
8.18289e-06
2.59205e-06
8.59307e-07
2.99325e-07
1.09851e-07
4.02682e-08
9.84245e-09
3.75082
1.86557
0.803975
0.311716
0.111715
0.0378146
0.0122739
0.00387053
0.00120011
0.000368894
0.000113953
3.57299e-05
1.14774e-05
3.8142e-06
1.33091e-06
4.89335e-07
1.89738e-07
7.32511e-08
1.88041e-08
3.76184
1.88759
0.823441
0.324146
0.118265
0.0408588
0.0135685
0.00438782
0.00139838
0.000442784
0.00014123
4.58349e-05
1.52767e-05
5.28054e-06
1.92131e-06
7.38052e-07
2.99064e-07
1.20251e-07
3.20562e-08
3.76979
1.90391
0.838161
0.333733
0.123424
0.04331
0.0146359
0.00482516
0.00157056
0.000508788
0.000166338
5.54366e-05
1.90097e-05
6.77294e-06
2.54476e-06
1.01081e-06
4.23435e-07
1.75472e-07
4.80742e-08
3.77437
1.91376
0.84734
0.339878
0.126813
0.0449594
0.015371
0.00513342
0.00169482
0.00055759
0.000185371
6.29062e-05
2.19929e-05
7.99932e-06
3.07207e-06
1.24832e-06
5.34764e-07
2.26061e-07
6.30236e-08
3.77211
1.91407
0.849242
0.341738
0.128045
0.045629
0.015693
0.00527639
0.00175511
0.000582173
0.000195277
6.69095e-05
2.36357e-05
8.69206e-06
3.37726e-06
1.38899e-06
6.02091e-07
2.57182e-07
7.23506e-08
3.77216
1.91414
0.8493
0.341771
0.128061
0.045636
0.0156959
0.00527749
0.00175552
0.000582326
0.000195333
6.69307e-05
2.36438e-05
8.69527e-06
3.37859e-06
1.38957e-06
6.0236e-07
2.57305e-07
7.23888e-08
3.7745
1.91398
0.847507
0.339974
0.12686
0.0449796
0.0153792
0.00513659
0.001696
0.000558027
0.000185532
6.29659e-05
2.20156e-05
8.00821e-06
3.07573e-06
1.24991e-06
5.35492e-07
2.26392e-07
6.31252e-08
3.77
1.90425
0.838426
0.333885
0.123497
0.0433415
0.0146485
0.00482995
0.00157233
0.00050943
0.00016657
5.55213e-05
1.90413e-05
6.78505e-06
2.54964e-06
1.01289e-06
4.24369e-07
1.75889e-07
4.82e-08
3.76212
1.88805
0.823796
0.324346
0.11836
0.0408993
0.0135845
0.00439381
0.00140056
0.000443554
0.000141501
4.59311e-05
1.53114e-05
5.29344e-06
1.92634e-06
7.40121e-07
2.99962e-07
1.2064e-07
3.21702e-08
3.75118
1.86614
0.80441
0.311958
0.111828
0.0378619
0.0122923
0.00387728
0.0012025
0.000369717
0.000114233
3.58255e-05
1.15105e-05
3.82598e-06
1.33531e-06
4.91067e-07
1.9046e-07
7.35526e-08
1.88894e-08
3.74257
1.84487
0.784614
0.299072
0.105006
0.0347067
0.0109661
0.0033565
0.00100723
0.000298811
8.88224e-05
2.67183e-05
8.20862e-06
2.60088e-06
8.62517e-07
3.00569e-07
1.10367e-07
4.04847e-08
9.90516e-09
3.7298
1.81741
0.761467
0.285146
0.0980793
0.0316576
0.00973579
0.00288998
0.000837786
0.000239156
6.81022e-05
1.95343e-05
5.69582e-06
1.70444e-06
5.31019e-07
1.72992e-07
5.9181e-08
2.02546e-08
4.62744e-09
3.68312
1.73713
0.699942
0.25091
0.0822875
0.0252226
0.00733536
0.00204987
0.000556688
0.000148089
3.90649e-05
1.03105e-05
2.74418e-06
7.41866e-07
2.05855e-07
5.83841e-08
1.66864e-08
4.31161e-09
4.41682e-10
3.59954
1.6048
0.604833
0.201257
0.0608521
0.0170784
0.0045138
0.0011365
0.00027517
6.43692e-05
1.46485e-05
3.23635e-06
6.83944e-07
1.31343e-07
1.86589e-08
-1.44351e-09
-3.32127e-09
-2.26807e-09
-8.71539e-10
3.49475
1.45689
0.50833
0.155503
0.0429303
0.0109129
0.00258632
0.000576272
0.000121204
2.39391e-05
4.37786e-06
6.98564e-07
7.51689e-08
-8.0236e-09
-1.01269e-08
-5.37391e-09
-2.42383e-09
-9.47776e-10
-1.84586e-10
3.37357
1.30413
0.418633
0.117318
0.0295487
0.00681546
0.00145465
0.000288833
5.33008e-05
9.00868e-06
1.34342e-06
1.52931e-07
2.55728e-09
-6.11668e-09
-2.71342e-09
-7.99376e-10
-1.12976e-10
1.1107e-10
1.2722e-10
3.24251
1.15437
0.338722
0.0865104
0.0198118
0.00414046
0.000796265
0.000141222
2.29583e-05
3.33894e-06
4.0826e-07
3.25798e-08
-1.60734e-09
-1.1858e-09
-4.64085e-11
2.23686e-10
2.08703e-10
1.54841e-10
8.2545e-11
3.11421
1.01832
0.272053
0.0630398
0.0130697
0.00246621
0.000426352
6.74701e-05
9.66264e-06
1.20935e-06
1.20901e-07
6.58116e-09
-4.3735e-10
1.03732e-10
2.65533e-10
1.9721e-10
1.18494e-10
6.93019e-11
3.19847e-11
2.97364
0.886316
0.214024
0.0446972
0.00834057
0.00141429
0.000219044
3.08775e-05
3.8984e-06
4.22236e-07
3.54363e-08
1.73924e-09
1.98147e-10
2.40002e-10
1.65472e-10
8.95896e-11
4.54931e-11
2.35986e-11
1.01471e-11
2.84026
0.772893
0.168672
0.0317136
0.00532343
0.000812979
0.000113734
1.45762e-05
1.70177e-06
1.79722e-07
1.79317e-08
2.22013e-09
5.44823e-10
2.07767e-10
8.54403e-11
3.56468e-11
1.54588e-11
7.19633e-12
2.91031e-12
2.73567
0.691879
0.13913
0.0240611
0.00373082
0.000532774
7.13775e-05
9.15512e-06
1.15832e-06
1.51436e-07
2.19975e-08
3.77188e-09
7.7231e-10
1.83559e-10
4.9713e-11
1.52657e-11
5.3503e-12
2.15452e-12
7.98848e-13
2.67062
0.647829
0.124902
0.02086
0.00317324
0.000456432
6.39036e-05
8.94787e-06
1.28349e-06
1.91435e-07
3.00795e-08
4.9911e-09
8.74964e-10
1.63088e-10
3.31123e-11
7.55678e-12
2.03026e-12
6.64825e-13
2.14494e-13
2.64451
0.634507
0.121923
0.02057
0.00321541
0.000483334
7.14365e-05
1.05322e-05
1.56184e-06
2.33188e-07
3.52802e-08
5.42136e-09
8.49269e-10
1.36715e-10
2.31134e-11
4.21315e-12
8.78325e-13
2.25326e-13
6.08215e-14
2.67736
0.66632
0.13459
0.0240982
0.00400999
0.000638278
9.85695e-05
1.49037e-05
2.22094e-06
3.26958e-07
4.80036e-08
7.06554e-09
1.04842e-09
1.57938e-10
2.45011e-11
3.94367e-12
6.75299e-13
1.27393e-13
2.47055e-14
2.77998
0.752509
0.168086
0.0334696
0.0061764
0.00108139
0.000181794
2.96133e-05
4.71116e-06
7.34955e-07
1.13648e-07
1.75329e-08
2.71544e-09
4.25156e-10
6.81312e-11
1.12116e-11
1.91962e-12
3.44793e-13
5.80174e-14
2.89366
0.847245
0.205742
0.0444138
0.00882954
0.00165358
0.000295359
5.08226e-05
8.49907e-06
1.38788e-06
2.23849e-07
3.59107e-08
5.76806e-09
9.34434e-10
1.54622e-10
2.62221e-11
4.61682e-12
8.49886e-13
1.4493e-13
3.00917
0.947417
0.247611
0.0572674
0.0121258
0.00240543
0.000452948
8.18313e-05
1.43176e-05
2.43842e-06
4.09057e-07
6.8094e-08
1.13268e-08
1.89717e-09
3.24164e-10
5.67101e-11
1.02936e-11
1.95208e-12
3.40768e-13
3.1192
1.04711
0.291486
0.0715084
0.0159913
0.00333746
0.000658837
0.000124368
2.26667e-05
4.00992e-06
6.9713e-07
1.20039e-07
2.06232e-08
3.56367e-09
6.2772e-10
1.1315e-10
2.11676e-11
4.13572e-12
7.40576e-13
3.20854
1.13529
0.333307
0.0860815
0.0202111
0.00441453
0.000908835
0.000178307
3.3674e-05
6.15733e-06
1.10435e-06
1.95914e-07
3.46444e-08
6.15792e-09
1.11542e-09
2.06797e-10
3.98923e-11
8.02215e-12
1.51118e-12
3.28351
1.21635
0.374624
0.101341
0.0248376
0.00563966
0.00120207
0.000243315
4.72794e-05
8.87709e-06
1.63274e-06
2.9679e-07
5.375e-08
9.78281e-09
1.81503e-09
3.45334e-10
6.9137e-11
1.41651e-11
3.35921e-12
3.36287
1.30275
0.419252
0.118005
0.0299384
0.00700312
0.00153167
0.000317164
6.29115e-05
1.20401e-05
2.25525e-06
4.17289e-07
7.69157e-08
1.42531e-08
2.69779e-09
5.28474e-10
1.1389e-10
2.1797e-11
1.31257e-11
3.42841
1.37573
0.457604
0.132557
0.0344615
0.00822958
0.00183198
0.000385227
7.74734e-05
1.50173e-05
2.84747e-06
5.33263e-07
9.95315e-08
1.87229e-08
3.63515e-09
7.62537e-10
2.03014e-10
1.57973e-11
1.01237e-10
3.47338
1.42797
0.485703
0.143385
0.0378549
0.00915129
0.00205689
0.000435859
8.8217e-05
1.71959e-05
3.278e-06
6.17436e-07
1.16242e-07
2.23581e-08
4.69019e-09
1.25856e-09
5.15336e-10
-1.46695e-10
9.34807e-10
3.50585
1.4649
0.50501
0.150521
0.0399741
0.00969145
0.00217963
0.000461442
9.322e-05
1.81288e-05
3.44878e-06
6.50203e-07
1.24556e-07
2.62684e-08
7.59205e-09
3.59421e-09
1.95975e-09
-1.47422e-09
8.27598e-09
3.52668
1.48403
0.512912
0.152614
0.0403296
0.00970826
0.002165
0.000454128
9.08605e-05
1.75042e-05
3.30922e-06
6.31785e-07
1.34571e-07
4.23545e-08
2.40677e-08
1.75432e-08
8.90016e-09
-8.83486e-09
6.73925e-08
3.51957
1.4704
0.502486
0.147436
0.0383675
0.0090905
0.00199508
0.000411893
8.11582e-05
1.5457e-05
2.9545e-06
6.37606e-07
2.17009e-07
1.41126e-07
1.23585e-07
1.0116e-07
4.5473e-08
-2.88076e-08
5.00977e-07
3.48871
1.42985
0.477948
0.137022
0.0348375
0.00806755
0.00173162
0.000350087
6.79097e-05
1.30952e-05
2.89712e-06
1.05768e-06
7.49521e-07
7.11566e-07
7.02902e-07
5.97929e-07
2.86137e-07
1.08119e-07
3.39727e-06
3.4541
1.38186
0.449009
0.124905
0.0308011
0.00692091
0.001444
0.000285888
5.62961e-05
1.29446e-05
5.11253e-06
3.80386e-06
3.72545e-06
3.86905e-06
3.98393e-06
3.54751e-06
2.16268e-06
2.78248e-06
2.09698e-05
3.3904
1.30483
0.406352
0.108296
0.0256258
0.00554642
0.0011276
0.000228302
5.60792e-05
2.44538e-05
1.90672e-05
1.86949e-05
1.9615e-05
2.0893e-05
2.21157e-05
2.09679e-05
1.68981e-05
2.86063e-05
0.0001176
3.29392
1.20225
0.35504
0.0900738
0.0204365
0.00431469
0.000912024
0.000242928
0.000118199
9.57245e-05
9.34972e-05
9.67951e-05
0.000103245
0.000111368
0.000120689
0.000122701
0.000123326
0.000217851
0.000599383
3.19369
1.10525
0.310479
0.0755715
0.0168065
0.00375756
0.00109346
0.000580306
0.000486974
0.000472342
0.000481155
0.000504153
0.00054063
0.000587308
0.000648378
0.000700969
0.000809285
0.00136995
0.00276801
3.09376
1.0179
0.274075
0.0655532
0.0156932
0.0050161
0.00288171
0.00246688
0.00239957
0.0024053
0.00247022
0.00259468
0.00278294
0.00303089
0.00338532
0.00381746
0.00471027
0.00736776
0.0115259
3.01133
0.954771
0.25456
0.0667665
0.0234241
0.0143064
0.0124219
0.0120037
0.0119705
0.0120614
0.0123866
0.0129775
0.0138579
0.0150503
0.0168464
0.0193414
0.0241495
0.0342653
0.0429334
2.97191
0.946331
0.281482
0.108514
0.0690598
0.0603364
0.058097
0.0573535
0.0573632
0.0577572
0.0590935
0.0615125
0.0651054
0.07008
0.077746
0.0887572
0.107873
0.13738
0.141523
3.04238
1.09974
0.472218
0.309756
0.27075
0.25996
0.255651
0.253444
0.253295
0.254418
0.258773
0.26682
0.27879
0.295585
0.321429
0.357593
0.411979
0.468527
0.408243
3.41256
1.75056
1.20255
1.05431
1.01253
0.995737
0.986157
0.979973
0.978691
0.980537
0.990513
1.00969
1.03825
1.07837
1.13849
1.21559
1.30641
1.331
1.02702
4.37283
3.54214
3.23782
3.14561
3.11331
3.09589
3.08422
3.07562
3.07304
3.07383
3.08466
3.10677
3.13918
3.18338
3.24361
3.2988
3.30099
3.08593
2.31043
)
;

boundaryField
{
    up
    {
        type            fixedValue;
        value           uniform 0;
    }
    low
    {
        type            fixedValue;
        value           uniform 5;
    }
    left
    {
        type            fixedValue;
        value           uniform 5;
    }
    right
    {
        type            fixedValue;
        value           uniform 5;
    }
    frontAndBackPlanes
    {
        type            empty;
    }
}


// ************************************************************************* //
