/*--------------------------------*- C++ -*----------------------------------*\
  =========                 |
  \\      /  F ield         | OpenFOAM: The Open Source CFD Toolbox
   \\    /   O peration     | Website:  https://openfoam.org
    \\  /    A nd           | Version:  7
     \\/     M anipulation  |
\*---------------------------------------------------------------------------*/
FoamFile
{
    version     2.0;
    format      ascii;
    class       volScalarField;
    location    "0.49";
    object      gradTy;
}
// * * * * * * * * * * * * * * * * * * * * * * * * * * * * * * * * * * * * * //

dimensions      [0 -1 0 1 0 0 0];

internalField   nonuniform List<scalar> 
1596
(
-0.06524
-0.122217
-0.1711
-0.220987
-0.272562
-0.332255
-0.398274
-0.478221
-0.57579
-0.693736
-0.853589
-1.05629
-1.33268
-1.72046
-2.31457
-3.23321
-4.8649
-7.86797
-18.5873
-0.199157
-0.248528
-0.286661
-0.326325
-0.369163
-0.421733
-0.482231
-0.557209
-0.64976
-0.760692
-0.907387
-1.08866
-1.3249
-1.63334
-2.06246
-2.63789
-3.48891
-4.73749
-8.28122
-0.356739
-0.377318
-0.396463
-0.42211
-0.453775
-0.496709
-0.548457
-0.614365
-0.696432
-0.7941
-0.921111
-1.07422
-1.26718
-1.50805
-1.82602
-2.22614
-2.77842
-3.53505
-5.16245
-0.521813
-0.502529
-0.497916
-0.506964
-0.525663
-0.55709
-0.597984
-0.65235
-0.721168
-0.802999
-0.908552
-1.03349
-1.18716
-1.37291
-1.60898
-1.8926
-2.26462
-2.7475
-3.57883
-0.673626
-0.61667
-0.588383
-0.58028
-0.585351
-0.60438
-0.633483
-0.675329
-0.730116
-0.795937
-0.881019
-0.980791
-1.10165
-1.24463
-1.42153
-1.62713
-1.88671
-2.20939
-2.68285
-0.793413
-0.712622
-0.66562
-0.642137
-0.634247
-0.641034
-0.658413
-0.687875
-0.729093
-0.780005
-0.846806
-0.92523
-1.01965
-1.13001
-1.26411
-1.41648
-1.60337
-1.82782
-2.12384
-0.870982
-0.784955
-0.727686
-0.692752
-0.673893
-0.669577
-0.676079
-0.694015
-0.722781
-0.76039
-0.811384
-0.872075
-0.945417
-1.03085
-1.13357
-1.24867
-1.3868
-1.54826
-1.74694
-0.906248
-0.830511
-0.772448
-0.731499
-0.704832
-0.691429
-0.688528
-0.696266
-0.714017
-0.740033
-0.777553
-0.823568
-0.880019
-0.946161
-1.02542
-1.11369
-1.21796
-1.33737
-1.47775
-0.90708
-0.853086
-0.802508
-0.761082
-0.730124
-0.710015
-0.699403
-0.698393
-0.706561
-0.72252
-0.748551
-0.782307
-0.825016
-0.875891
-0.937137
-1.00539
-1.08517
-1.17517
-1.27776
-0.880297
-0.849535
-0.811898
-0.775377
-0.744279
-0.720631
-0.704648
-0.69681
-0.697102
-0.704592
-0.720964
-0.744476
-0.775916
-0.814554
-0.861797
-0.91491
-0.976809
-1.04607
-1.12342
-0.847193
-0.833142
-0.808628
-0.779664
-0.751387
-0.726863
-0.707647
-0.694776
-0.68876
-0.689191
-0.697437
-0.712307
-0.734347
-0.762929
-0.798945
-0.840159
-0.888408
-0.94227
-1.00169
-0.806857
-0.809818
-0.798123
-0.777743
-0.754014
-0.730508
-0.709741
-0.693311
-0.682277
-0.676777
-0.678081
-0.6855
-0.699485
-0.719553
-0.746278
-0.777821
-0.815298
-0.857357
-0.90357
-0.757928
-0.775854
-0.776627
-0.76557
-0.747811
-0.727113
-0.70655
-0.688203
-0.673625
-0.663463
-0.659071
-0.660217
-0.667401
-0.680326
-0.699426
-0.723193
-0.752306
-0.785496
-0.822123
-0.713881
-0.740347
-0.751018
-0.748605
-0.737148
-0.720179
-0.700939
-0.681841
-0.664827
-0.650981
-0.641851
-0.637604
-0.638888
-0.645619
-0.658223
-0.675458
-0.697765
-0.723952
-0.75328
-0.672895
-0.705925
-0.724241
-0.729262
-0.723831
-0.710938
-0.693698
-0.674669
-0.656058
-0.639302
-0.626177
-0.617213
-0.613263
-0.614486
-0.621392
-0.63299
-0.64961
-0.670143
-0.693815
-0.632997
-0.672006
-0.696707
-0.708126
-0.708251
-0.699498
-0.684675
-0.666334
-0.646816
-0.627814
-0.61133
-0.598213
-0.589558
-0.585794
-0.587595
-0.594221
-0.606005
-0.621923
-0.641188
-0.596844
-0.639654
-0.669458
-0.686312
-0.691422
-0.686658
-0.674433
-0.657182
-0.637274
-0.616557
-0.59723
-0.580406
-0.567435
-0.559026
-0.556093
-0.558167
-0.565689
-0.577733
-0.593508
-0.565138
-0.610261
-0.643988
-0.665387
-0.674891
-0.673821
-0.664186
-0.648225
-0.628251
-0.606192
-0.584384
-0.564156
-0.547093
-0.534182
-0.526624
-0.52427
-0.527786
-0.536395
-0.549316
-0.534105
-0.583553
-0.621234
-0.646768
-0.66028
-0.662655
-0.655541
-0.640945
-0.621082
-0.597901
-0.573822
-0.550338
-0.529229
-0.511733
-0.49936
-0.49233
-0.491684
-0.496921
-0.507346
-0.503084
-0.557348
-0.599299
-0.628919
-0.646278
-0.652005
-0.647444
-0.63438
-0.614891
-0.590893
-0.564847
-0.538347
-0.513317
-0.491179
-0.473722
-0.461547
-0.456256
-0.457877
-0.466011
-0.47686
-0.534
-0.579813
-0.613358
-0.634409
-0.643375
-0.641337
-0.629878
-0.610921
-0.586312
-0.558516
-0.529173
-0.500296
-0.473396
-0.450427
-0.432256
-0.421157
-0.418086
-0.423559
-0.454182
-0.513959
-0.563284
-0.600577
-0.625214
-0.637358
-0.637851
-0.628084
-0.609817
-0.584793
-0.555451
-0.523446
-0.490838
-0.459141
-0.430292
-0.405103
-0.386288
-0.376027
-0.377133
-0.434018
-0.497
-0.549868
-0.590829
-0.61898
-0.634268
-0.637323
-0.629361
-0.611965
-0.586743
-0.556075
-0.521612
-0.485467
-0.449141
-0.414407
-0.381536
-0.352769
-0.330492
-0.321605
-0.41687
-0.483362
-0.539685
-0.583892
-0.614961
-0.632642
-0.637504
-0.630557
-0.613244
-0.587092
-0.554184
-0.51643
-0.476
-0.434556
-0.393682
-0.353188
-0.313385
-0.273365
-0.233562
-0.403805
-0.47373
-0.533977
-0.582403
-0.618085
-0.640614
-0.650566
-0.648645
-0.636014
-0.614048
-0.58413
-0.548309
-0.508524
-0.466889
-0.424995
-0.383193
-0.340434
-0.293887
-0.237716
-0.395757
-0.467884
-0.530036
-0.580506
-0.618489
-0.643602
-0.656415
-0.657506
-0.647802
-0.628441
-0.600168
-0.564864
-0.52432
-0.481001
-0.437101
-0.394469
-0.353133
-0.312519
-0.270131
-0.398035
-0.471392
-0.534743
-0.586612
-0.626279
-0.653589
-0.669106
-0.673481
-0.667482
-0.651909
-0.627112
-0.59427
-0.55479
-0.511106
-0.466008
-0.422221
-0.380929
-0.34236
-0.30486
-0.411998
-0.485481
-0.548843
-0.600835
-0.640888
-0.66915
-0.686284
-0.693108
-0.690351
-0.67857
-0.65773
-0.628206
-0.590675
-0.547112
-0.5006
-0.454723
-0.411955
-0.373389
-0.33787
-0.437011
-0.510154
-0.572403
-0.623263
-0.662466
-0.690511
-0.708246
-0.716709
-0.716696
-0.708668
-0.692284
-0.667139
-0.63288
-0.590478
-0.542702
-0.49383
-0.447876
-0.407299
-0.371587
-0.473096
-0.544216
-0.603966
-0.652435
-0.689629
-0.716399
-0.733834
-0.743214
-0.745483
-0.741171
-0.729806
-0.71042
-0.681516
-0.642485
-0.594776
-0.542644
-0.491653
-0.446583
-0.408341
-0.520507
-0.587616
-0.643741
-0.688763
-0.722965
-0.747556
-0.763903
-0.773512
-0.777522
-0.776696
-0.770669
-0.758363
-0.737402
-0.705359
-0.661112
-0.607219
-0.549578
-0.49624
-0.451655
-0.574395
-0.638136
-0.689979
-0.730599
-0.760887
-0.782473
-0.796997
-0.80614
-0.811227
-0.813347
-0.81249
-0.808088
-0.797702
-0.777731
-0.743854
-0.694676
-0.63246
-0.566466
-0.508086
-0.638035
-0.696953
-0.743043
-0.777965
-0.80327
-0.820954
-0.83285
-0.840693
-0.845901
-0.849849
-0.852953
-0.855659
-0.856602
-0.852893
-0.838632
-0.808521
-0.756183
-0.682926
-0.593183
-0.714257
-0.765883
-0.804522
-0.832634
-0.852335
-0.865882
-0.875125
-0.88175
-0.887129
-0.892736
-0.899409
-0.90849
-0.920437
-0.935217
-0.949755
-0.960669
-0.95837
-0.935948
-0.886411
-0.801994
-0.843869
-0.872238
-0.890935
-0.902536
-0.909396
-0.913071
-0.915029
-0.916324
-0.917927
-0.92069
-0.925497
-0.933348
-0.945541
-0.962934
-0.987471
-1.01811
-1.0529
-1.08793
-0.90373
-0.930856
-0.946111
-0.95388
-0.956649
-0.956567
-0.95476
-0.952457
-0.950416
-0.949151
-0.949556
-0.951826
-0.956678
-0.964604
-0.976511
-0.993119
-1.01629
-1.04754
-1.08952
-1.01818
-1.02536
-1.02581
-1.02248
-1.01698
-1.01081
-1.00462
-0.999238
-0.995122
-0.992489
-0.991985
-0.993416
-0.997048
-1.00269
-1.01033
-1.01894
-1.02845
-1.03757
-1.04577
-1.12818
-1.11432
-1.09947
-1.08469
-1.07055
-1.05775
-1.04645
-1.03701
-1.02955
-1.02401
-1.02065
-1.0191
-1.0193
-1.02087
-1.02359
-1.0267
-1.03014
-1.03329
-1.03603
-1.22271
-1.19161
-1.16357
-1.13868
-1.11684
-1.09806
-1.08211
-1.06894
-1.05836
-1.05013
-1.04421
-1.04021
-1.03792
-1.03696
-1.03711
-1.03781
-1.039
-1.04028
-1.04151
-1.30049
-1.25473
-1.21557
-1.18221
-1.15394
-1.13019
-1.11038
-1.09409
-1.08093
-1.0705
-1.06259
-1.0568
-1.05284
-1.05036
-1.04911
-1.04868
-1.04892
-1.04953
-1.05034
-1.35758
-1.30046
-1.25271
-1.21298
-1.17997
-1.15261
-1.13002
-1.11152
-1.09656
-1.08464
-1.07543
-1.06854
-1.06362
-1.06035
-1.05842
-1.0575
-1.05735
-1.05766
-1.05822
-1.39277
-1.32602
-1.2725
-1.22898
-1.19334
-1.16407
-1.14003
-1.1204
-1.10452
-1.09187
-1.08203
-1.07463
-1.06931
-1.06575
-1.06365
-1.06272
-1.06269
-1.06328
-1.06425
-1.39278
-1.32604
-1.27251
-1.229
-1.19336
-1.16409
-1.14005
-1.12041
-1.10454
-1.09188
-1.08204
-1.07465
-1.06932
-1.06576
-1.06366
-1.06273
-1.0627
-1.06329
-1.06426
-1.35759
-1.30049
-1.25275
-1.21303
-1.18002
-1.15266
-1.13007
-1.11157
-1.0966
-1.08469
-1.07548
-1.06858
-1.06367
-1.06039
-1.05846
-1.05755
-1.05739
-1.05771
-1.05827
-1.30051
-1.25478
-1.21563
-1.18229
-1.15402
-1.13027
-1.11046
-1.09416
-1.081
-1.07058
-1.06267
-1.05687
-1.05291
-1.05043
-1.04917
-1.04874
-1.04899
-1.0496
-1.05041
-1.22274
-1.19168
-1.16365
-1.13877
-1.11693
-1.09816
-1.08221
-1.06904
-1.05846
-1.05022
-1.0443
-1.0403
-1.038
-1.03703
-1.03717
-1.03787
-1.03905
-1.04032
-1.04155
-1.12821
-1.11439
-1.09956
-1.08479
-1.07067
-1.05787
-1.04657
-1.03713
-1.02966
-1.02412
-1.02075
-1.0192
-1.01939
-1.02095
-1.02366
-1.02675
-1.03017
-1.03331
-1.03603
-1.01822
-1.02544
-1.02591
-1.02259
-1.01711
-1.01095
-1.00475
-0.999374
-0.995256
-0.992621
-0.992111
-0.993532
-0.997149
-1.00277
-1.01038
-1.01895
-1.02841
-1.03748
-1.04564
-0.903769
-0.930937
-0.946227
-0.954024
-0.956817
-0.956756
-0.954969
-0.952686
-0.950665
-0.949421
-0.94985
-0.952145
-0.957022
-0.964969
-0.976885
-0.993466
-1.01654
-1.0476
-1.08922
-0.802022
-0.84389
-0.872258
-0.890952
-0.902547
-0.909397
-0.913054
-0.914989
-0.916253
-0.917815
-0.920524
-0.925257
-0.933011
-0.945077
-0.962325
-0.986725
-1.01733
-1.0523
-1.0879
-0.714272
-0.76592
-0.804579
-0.832713
-0.852438
-0.86601
-0.875278
-0.881929
-0.887334
-0.892969
-0.899675
-0.908798
-0.920808
-0.935697
-0.950425
-0.961655
-0.959829
-0.938017
-0.889175
-0.638046
-0.696963
-0.743059
-0.77799
-0.803306
-0.821002
-0.83291
-0.840766
-0.845986
-0.84995
-0.853075
-0.855817
-0.856822
-0.853216
-0.839103
-0.809173
-0.756982
-0.683744
-0.593772
-0.574404
-0.638141
-0.689989
-0.730618
-0.760919
-0.782519
-0.797059
-0.806218
-0.811324
-0.813469
-0.812646
-0.808294
-0.79798
-0.778104
-0.744326
-0.69522
-0.633008
-0.566941
-0.508461
-0.520514
-0.587617
-0.643744
-0.688774
-0.722987
-0.747593
-0.763956
-0.773584
-0.777618
-0.776821
-0.770832
-0.758578
-0.73768
-0.705703
-0.661505
-0.607626
-0.549955
-0.496563
-0.45193
-0.473102
-0.544215
-0.603965
-0.65244
-0.689645
-0.716429
-0.733881
-0.743281
-0.745575
-0.741294
-0.729966
-0.710627
-0.68177
-0.64278
-0.595091
-0.542952
-0.491933
-0.446832
-0.408569
-0.437015
-0.51015
-0.572397
-0.623262
-0.662475
-0.690533
-0.708285
-0.71677
-0.716782
-0.708784
-0.692435
-0.667327
-0.633103
-0.590725
-0.542955
-0.494072
-0.4481
-0.407508
-0.371791
-0.412002
-0.485477
-0.548836
-0.600831
-0.640892
-0.669168
-0.686319
-0.693163
-0.69043
-0.678676
-0.657867
-0.628373
-0.590865
-0.547316
-0.500804
-0.45492
-0.412144
-0.373576
-0.338067
-0.398039
-0.471388
-0.534735
-0.586607
-0.62628
-0.653603
-0.669135
-0.673529
-0.667552
-0.652004
-0.627233
-0.594413
-0.554949
-0.511274
-0.466176
-0.422386
-0.381095
-0.342537
-0.305068
-0.39576
-0.467879
-0.530025
-0.580494
-0.618479
-0.643598
-0.656421
-0.657524
-0.647834
-0.628488
-0.600229
-0.564934
-0.524395
-0.481076
-0.437171
-0.394538
-0.353213
-0.312637
-0.270339
-0.403823
-0.473745
-0.533993
-0.582424
-0.618113
-0.640653
-0.650618
-0.648713
-0.636101
-0.614154
-0.584253
-0.548449
-0.508676
-0.467052
-0.425164
-0.383367
-0.340609
-0.294056
-0.237868
-0.416888
-0.48338
-0.539702
-0.583907
-0.614972
-0.632647
-0.637503
-0.630548
-0.613227
-0.587065
-0.554147
-0.516383
-0.475944
-0.43449
-0.393605
-0.353098
-0.313282
-0.273247
-0.233431
-0.434032
-0.497014
-0.549882
-0.590844
-0.618994
-0.63428
-0.637333
-0.629369
-0.61197
-0.586744
-0.556074
-0.521608
-0.485461
-0.449133
-0.414398
-0.381527
-0.352762
-0.330492
-0.321612
-0.454194
-0.51397
-0.563295
-0.600587
-0.625223
-0.637365
-0.637855
-0.628086
-0.609815
-0.584789
-0.555445
-0.523438
-0.490829
-0.459131
-0.430283
-0.405094
-0.386283
-0.376026
-0.377135
-0.47687
-0.53401
-0.579823
-0.613367
-0.634416
-0.64338
-0.64134
-0.629879
-0.61092
-0.586309
-0.558511
-0.529167
-0.500289
-0.473388
-0.45042
-0.43225
-0.421153
-0.418084
-0.423558
-0.503093
-0.557357
-0.599307
-0.628926
-0.646283
-0.65201
-0.647446
-0.634381
-0.61489
-0.590891
-0.564843
-0.538342
-0.513311
-0.491173
-0.473718
-0.461543
-0.456253
-0.457874
-0.466009
-0.534113
-0.583561
-0.62124
-0.646774
-0.660285
-0.662659
-0.655543
-0.640945
-0.621082
-0.597899
-0.573819
-0.550334
-0.529226
-0.511729
-0.499357
-0.492327
-0.491681
-0.496919
-0.507344
-0.565144
-0.610267
-0.643994
-0.665391
-0.674894
-0.673824
-0.664188
-0.648225
-0.628251
-0.60619
-0.584382
-0.564153
-0.547091
-0.534179
-0.526622
-0.524268
-0.527784
-0.536393
-0.549314
-0.596849
-0.639659
-0.669462
-0.686316
-0.691425
-0.68666
-0.674434
-0.657183
-0.637274
-0.616556
-0.597229
-0.580404
-0.567434
-0.559024
-0.556091
-0.558165
-0.565687
-0.577731
-0.593505
-0.633002
-0.67201
-0.696711
-0.708128
-0.708253
-0.6995
-0.684677
-0.666334
-0.646816
-0.627813
-0.611329
-0.598212
-0.589557
-0.585792
-0.587594
-0.59422
-0.606004
-0.621921
-0.641187
-0.672898
-0.705928
-0.724243
-0.729264
-0.723832
-0.710939
-0.693698
-0.674669
-0.656058
-0.639302
-0.626177
-0.617212
-0.613262
-0.614486
-0.621391
-0.632989
-0.649609
-0.670141
-0.693814
-0.713883
-0.740348
-0.751019
-0.748606
-0.737149
-0.72018
-0.70094
-0.681841
-0.664827
-0.650981
-0.641851
-0.637604
-0.638888
-0.645619
-0.658222
-0.675458
-0.697765
-0.723951
-0.753279
-0.75793
-0.775855
-0.776628
-0.765571
-0.747812
-0.727114
-0.706551
-0.688203
-0.673625
-0.663463
-0.659071
-0.660217
-0.667401
-0.680326
-0.699426
-0.723193
-0.752306
-0.785496
-0.822123
-0.806857
-0.809818
-0.798123
-0.777743
-0.754014
-0.730508
-0.70974
-0.69331
-0.682277
-0.676777
-0.67808
-0.685499
-0.699484
-0.719553
-0.746278
-0.777821
-0.815298
-0.857357
-0.90357
-0.847194
-0.833142
-0.808629
-0.779665
-0.751387
-0.726863
-0.707647
-0.694776
-0.68876
-0.689191
-0.697437
-0.712307
-0.734347
-0.762929
-0.798945
-0.840159
-0.888409
-0.94227
-1.00169
-0.880298
-0.849536
-0.811899
-0.775377
-0.744279
-0.720631
-0.704648
-0.69681
-0.697101
-0.704592
-0.720964
-0.744476
-0.775916
-0.814553
-0.861797
-0.91491
-0.976809
-1.04607
-1.12342
-0.907081
-0.853087
-0.802509
-0.761083
-0.730125
-0.710015
-0.699403
-0.698393
-0.706561
-0.722519
-0.748551
-0.782307
-0.825015
-0.875891
-0.937137
-1.00539
-1.08517
-1.17517
-1.27777
-0.90625
-0.830513
-0.772449
-0.731499
-0.704833
-0.691429
-0.688528
-0.696266
-0.714017
-0.740032
-0.777552
-0.823567
-0.880019
-0.94616
-1.02542
-1.11369
-1.21796
-1.33737
-1.47776
-0.870985
-0.784957
-0.727687
-0.692752
-0.673894
-0.669577
-0.676079
-0.694015
-0.722781
-0.76039
-0.811384
-0.872074
-0.945416
-1.03085
-1.13357
-1.24867
-1.3868
-1.54826
-1.74694
-0.793415
-0.712624
-0.665622
-0.642138
-0.634248
-0.641035
-0.658413
-0.687876
-0.729092
-0.780005
-0.846806
-0.925229
-1.01965
-1.13001
-1.26411
-1.41648
-1.60337
-1.82782
-2.12384
-0.673629
-0.616672
-0.588384
-0.580281
-0.585352
-0.604381
-0.633483
-0.67533
-0.730116
-0.795937
-0.881019
-0.98079
-1.10165
-1.24463
-1.42153
-1.62713
-1.8867
-2.20939
-2.68285
-0.521814
-0.502531
-0.497917
-0.506965
-0.525664
-0.557091
-0.597985
-0.65235
-0.721168
-0.802999
-0.908552
-1.03349
-1.18716
-1.37291
-1.60898
-1.8926
-2.26462
-2.7475
-3.57883
-0.35674
-0.377319
-0.396464
-0.422111
-0.453775
-0.49671
-0.548457
-0.614366
-0.696433
-0.7941
-0.921111
-1.07422
-1.26718
-1.50805
-1.82602
-2.22614
-2.77842
-3.53505
-5.16245
-0.199157
-0.248528
-0.286662
-0.326325
-0.369163
-0.421733
-0.482232
-0.55721
-0.64976
-0.760692
-0.907387
-1.08866
-1.3249
-1.63334
-2.06246
-2.63789
-3.48891
-4.73749
-8.28122
-0.0652396
-0.122216
-0.1711
-0.220986
-0.272562
-0.332255
-0.398274
-0.478221
-0.57579
-0.693736
-0.853589
-1.05629
-1.33268
-1.72046
-2.31457
-3.23321
-4.8649
-7.86797
-18.5873
)
;

boundaryField
{
    up
    {
        type            calculated;
        value           nonuniform List<scalar> 
84
(
-16.8433
-9.12211
-5.60254
-3.83296
-2.8431
-2.232
-1.82367
-1.53425
-1.32036
-1.15639
-1.02757
-0.924123
-0.838774
-0.766916
-0.705108
-0.650665
-0.601563
-0.55625
-0.513381
-0.471374
-0.428338
-0.380828
-0.319817
-0.210835
-0.20545
-0.257467
-0.293935
-0.327308
-0.360711
-0.396453
-0.437219
-0.486132
-0.559156
-0.890489
-1.12904
-1.11383
-1.04772
-1.03649
-1.04166
-1.05055
-1.05845
-1.06481
-1.06482
-1.05851
-1.05062
-1.0417
-1.03648
-1.04757
-1.11325
-1.12902
-0.893777
-0.559693
-0.486458
-0.43748
-0.396677
-0.360915
-0.32751
-0.294154
-0.257773
-0.205667
-0.210704
-0.319829
-0.38083
-0.428337
-0.471372
-0.513379
-0.556247
-0.601561
-0.650663
-0.705107
-0.766915
-0.838774
-0.924123
-1.02757
-1.15639
-1.32037
-1.53426
-1.82367
-2.232
-2.8431
-3.83296
-5.60254
-9.12211
-16.8433
)
;
    }
    low
    {
        type            calculated;
        value           nonuniform List<scalar> 
84
(
-0.0698172
-0.207386
-0.374849
-0.552658
-0.716611
-0.844561
-0.923957
-0.955384
-0.945772
-0.90552
-0.865144
-0.81782
-0.759584
-0.710396
-0.666507
-0.622812
-0.583471
-0.550986
-0.518264
-0.483121
-0.453841
-0.428903
-0.405877
-0.385971
-0.3678
-0.357496
-0.359946
-0.377089
-0.406235
-0.447792
-0.500026
-0.557062
-0.624791
-0.706258
-0.798613
-0.90701
-1.03133
-1.14842
-1.24795
-1.33018
-1.3909
-1.43039
-1.4304
-1.3909
-1.3302
-1.24797
-1.14843
-1.03135
-0.907034
-0.798615
-0.706274
-0.624792
-0.557067
-0.50003
-0.447797
-0.406239
-0.377096
-0.359954
-0.357506
-0.367813
-0.385991
-0.405887
-0.428915
-0.453852
-0.48313
-0.518272
-0.550993
-0.583476
-0.622817
-0.66651
-0.710398
-0.759586
-0.817821
-0.865144
-0.905521
-0.945774
-0.955387
-0.92396
-0.844563
-0.716613
-0.55266
-0.374849
-0.207386
-0.0698166
)
;
    }
    left
    {
        type            calculated;
        value           nonuniform List<scalar> 
19
(
-0.0639727
-0.119867
-0.169586
-0.220917
-0.274373
-0.33626
-0.405001
-0.488638
-0.591075
-0.716351
-0.887113
-1.10544
-1.40641
-1.8352
-2.49842
-3.5409
-5.41507
-8.90627
-17.4709
)
;
    }
    right
    {
        type            calculated;
        value           nonuniform List<scalar> 
19
(
-0.0639723
-0.119866
-0.169585
-0.220917
-0.274373
-0.33626
-0.405001
-0.488638
-0.591075
-0.716352
-0.887114
-1.10544
-1.40641
-1.8352
-2.49842
-3.5409
-5.41507
-8.90627
-17.4709
)
;
    }
    frontAndBackPlanes
    {
        type            empty;
    }
}


// ************************************************************************* //
