/*--------------------------------*- C++ -*----------------------------------*\
  =========                 |
  \\      /  F ield         | OpenFOAM: The Open Source CFD Toolbox
   \\    /   O peration     | Website:  https://openfoam.org
    \\  /    A nd           | Version:  7
     \\/     M anipulation  |
\*---------------------------------------------------------------------------*/
FoamFile
{
    version     2.0;
    format      ascii;
    class       volScalarField;
    location    "0.11";
    object      gradTx;
}
// * * * * * * * * * * * * * * * * * * * * * * * * * * * * * * * * * * * * * //

dimensions      [0 -1 0 1 0 0 0];

internalField   nonuniform List<scalar> 
1596
(
-0.0746903
-0.374264
-0.664555
-0.915441
-1.12157
-1.28039
-1.40056
-1.48825
-1.55219
-1.60717
-1.65843
-1.72311
-1.81987
-1.97353
-2.21159
-2.59609
-3.21807
-4.27057
-6.15181
0.0187838
-0.304977
-0.589065
-0.826386
-1.01983
-1.16927
-1.28272
-1.36385
-1.41977
-1.45918
-1.48486
-1.50702
-1.53092
-1.56363
-1.6064
-1.6588
-1.69838
-1.67543
-1.48034
0.0965594
-0.235343
-0.504768
-0.722938
-0.898808
-1.03496
-1.13837
-1.21181
-1.26047
-1.28972
-1.30085
-1.29984
-1.28749
-1.26549
-1.23194
-1.1825
-1.10002
-0.952264
-0.671712
0.1125
-0.188202
-0.425623
-0.615903
-0.768886
-0.888239
-0.979359
-1.04447
-1.08714
-1.11056
-1.11545
-1.10499
-1.07847
-1.03548
-0.973844
-0.889541
-0.772127
-0.603747
-0.34604
0.0474499
-0.179534
-0.365957
-0.518887
-0.643686
-0.742887
-0.819677
-0.875595
-0.912818
-0.932926
-0.936472
-0.924737
-0.896539
-0.850553
-0.784791
-0.695824
-0.577635
-0.42089
-0.204949
-0.0892144
-0.216265
-0.337493
-0.445036
-0.536854
-0.612592
-0.672816
-0.718055
-0.749194
-0.766562
-0.770583
-0.761219
-0.737141
-0.696541
-0.637572
-0.556996
-0.451126
-0.314899
-0.137428
-0.267868
-0.294573
-0.345769
-0.403309
-0.458598
-0.507878
-0.549153
-0.581672
-0.605118
-0.618795
-0.622867
-0.616397
-0.597975
-0.565521
-0.517207
-0.449765
-0.360501
-0.246169
-0.100777
-0.451107
-0.397101
-0.384366
-0.392875
-0.410952
-0.432323
-0.453043
-0.471084
-0.48508
-0.493509
-0.49613
-0.491419
-0.477876
-0.453295
-0.415821
-0.362136
-0.289872
-0.196372
-0.0778548
-0.637891
-0.53168
-0.465587
-0.427132
-0.406441
-0.396819
-0.393525
-0.393599
-0.394854
-0.395091
-0.393496
-0.388112
-0.377254
-0.358624
-0.33029
-0.288939
-0.232202
-0.157459
-0.0616899
-0.748695
-0.627589
-0.532595
-0.46229
-0.41204
-0.376963
-0.352896
-0.336669
-0.325748
-0.317595
-0.310921
-0.303557
-0.293681
-0.27902
-0.257641
-0.226408
-0.182973
-0.124715
-0.0488723
-0.84048
-0.715942
-0.605295
-0.512544
-0.438145
-0.380201
-0.336169
-0.303415
-0.279495
-0.261792
-0.248631
-0.237701
-0.22702
-0.214333
-0.197697
-0.174208
-0.141562
-0.0971591
-0.038324
-0.936951
-0.815405
-0.695832
-0.585956
-0.490323
-0.410358
-0.345786
-0.29517
-0.256595
-0.22759
-0.206206
-0.189973
-0.176686
-0.164021
-0.149977
-0.131856
-0.107425
-0.0741754
-0.0295039
-0.9697
-0.865115
-0.750033
-0.635686
-0.529702
-0.436388
-0.357718
-0.293797
-0.243613
-0.205175
-0.17656
-0.155307
-0.139101
-0.125608
-0.112809
-0.0982433
-0.0798246
-0.0552584
-0.0221414
-0.986427
-0.898992
-0.792849
-0.679405
-0.568096
-0.465598
-0.37595
-0.300916
-0.240563
-0.193541
-0.158128
-0.131927
-0.112549
-0.0976246
-0.0851008
-0.0726936
-0.0584629
-0.0403547
-0.0162305
-0.997783
-0.925221
-0.828901
-0.718973
-0.605409
-0.496574
-0.398271
-0.31388
-0.244616
-0.189854
-0.148181
-0.117296
-0.0947514
-0.0781143
-0.0652654
-0.0540272
-0.0425729
-0.0290705
-0.0116599
-0.988664
-0.932085
-0.847342
-0.743969
-0.631908
-0.520552
-0.417039
-0.326179
-0.2503
-0.189538
-0.142882
-0.108182
-0.0829819
-0.0647997
-0.0514524
-0.0408235
-0.031172
-0.0208542
-0.00826922
-0.956328
-0.915543
-0.843805
-0.749635
-0.642579
-0.532515
-0.427491
-0.333451
-0.253718
-0.189156
-0.139206
-0.101922
-0.0748967
-0.0556365
-0.0419208
-0.0316753
-0.0232266
-0.0150811
-0.00585644
-0.914338
-0.884275
-0.824386
-0.740138
-0.639934
-0.533602
-0.429716
-0.335053
-0.253748
-0.187311
-0.135608
-0.096915
-0.0689068
-0.0491049
-0.0352743
-0.0253753
-0.017788
-0.0111334
-0.00419944
-0.880176
-0.858618
-0.80754
-0.730907
-0.636122
-0.532835
-0.430004
-0.335042
-0.252735
-0.185098
-0.132317
-0.0928214
-0.0643208
-0.0443249
-0.030569
-0.0210213
-0.014092
-0.00847902
-0.00309087
-0.806047
-0.796995
-0.757802
-0.692364
-0.607254
-0.511592
-0.414327
-0.323184
-0.243408
-0.177449
-0.125818
-0.08717
-0.0593424
-0.0399279
-0.0267131
-0.0177282
-0.0114448
-0.00664429
-0.00234277
-0.717832
-0.719015
-0.691205
-0.637345
-0.563169
-0.477087
-0.38775
-0.302876
-0.227923
-0.165623
-0.116738
-0.0801521
-0.0538722
-0.0356307
-0.0233223
-0.0150816
-0.00946633
-0.00534486
-0.0018317
-0.620536
-0.628333
-0.610285
-0.567705
-0.505219
-0.43028
-0.350941
-0.274578
-0.206587
-0.149807
-0.10516
-0.0717563
-0.0478122
-0.0312634
-0.0201783
-0.0128473
-0.00794578
-0.00443188
-0.00149543
-0.506886
-0.517862
-0.508214
-0.477359
-0.428389
-0.367324
-0.301151
-0.236462
-0.178281
-0.129372
-0.0907579
-0.0618196
-0.0410686
-0.0267473
-0.017195
-0.0109392
-0.00682594
-0.00392078
-0.00142652
-0.373267
-0.368984
-0.350643
-0.319349
-0.278509
-0.232694
-0.18645
-0.143477
-0.106294
-0.0759867
-0.0526361
-0.0355006
-0.0234234
-0.0152108
-0.00981035
-0.00634272
-0.00412357
-0.00256768
-0.00108852
-0.249709
-0.274338
-0.291811
-0.295959
-0.284705
-0.25959
-0.224755
-0.185282
-0.146044
-0.110545
-0.0807763
-0.0573624
-0.0397909
-0.0271528
-0.0184079
-0.0125942
-0.00886684
-0.00653319
-0.0049111
-0.0833664
-0.0923663
-0.102201
-0.109576
-0.112298
-0.109425
-0.101353
-0.0893366
-0.075264
-0.0609093
-0.0476118
-0.0362765
-0.027062
-0.0198846
-0.0144822
-0.0106154
-0.00799008
-0.00638388
-0.0055164
0.0838301
0.0743953
0.0580787
0.0378262
0.016979
-0.00149898
-0.0156285
-0.0246018
-0.0288155
-0.0293425
-0.0274267
-0.0243322
-0.0207706
-0.0172231
-0.0139346
-0.0111509
-0.00897507
-0.00750908
-0.00666661
0.248886
0.236232
0.21197
0.179195
0.141999
0.10466
0.0708077
0.0427767
0.0214119
0.00634894
-0.00341163
-0.00926563
-0.0122673
-0.0132697
-0.0128587
-0.0116704
-0.0101961
-0.00893695
-0.00807904
0.394582
0.375215
0.341905
0.298069
0.248008
0.196467
0.147789
0.105079
0.0699555
0.0426097
0.0223635
0.00788924
-0.00196636
-0.00817492
-0.0113892
-0.0124036
-0.0119542
-0.0109759
-0.0100439
0.540249
0.511132
0.466923
0.41122
0.348585
0.28406
0.222325
0.16683
0.119598
0.0811496
0.0510432
0.0280186
0.0108747
-0.00138498
-0.00928312
-0.0134973
-0.0147078
-0.0141986
-0.0130847
0.643257
0.60355
0.550107
0.486316
0.416551
0.345421
0.277189
0.215006
0.160867
0.115398
0.0783673
0.0486521
0.0251003
0.00676526
-0.00659313
-0.0152279
-0.0192024
-0.019684
-0.0182227
0.733356
0.68487
0.622574
0.551209
0.475272
0.398944
0.325961
0.259023
0.199911
0.149201
0.106757
0.0715119
0.0422614
0.0179171
-0.00168867
-0.0164678
-0.0253915
-0.0286187
-0.0274544
0.810197
0.750131
0.678732
0.600835
0.520518
0.441218
0.365927
0.296721
0.235035
0.181295
0.135418
0.0964098
0.0630038
0.0338065
0.00832104
-0.0136909
-0.0303751
-0.0401414
-0.0413907
0.850496
0.773655
0.689678
0.603011
0.51705
0.434403
0.357267
0.287064
0.224769
0.170535
0.124103
0.0844593
0.0502139
0.0195879
-0.00869554
-0.0360265
-0.0615126
-0.0834119
-0.0979454
0.866058
0.783603
0.700355
0.6191
0.541197
0.467496
0.398764
0.335511
0.278199
0.226967
0.181805
0.142334
0.107836
0.0772759
0.0494911
0.022571
-0.00489453
-0.0342844
-0.0657271
0.871211
0.787235
0.7075
0.631772
0.559743
0.491445
0.427169
0.367269
0.31219
0.262166
0.217343
0.177683
0.142789
0.112196
0.0854211
0.0617276
0.0404065
0.0205372
0.000851118
0.807218
0.711918
0.626473
0.548654
0.477317
0.411974
0.352419
0.298516
0.250206
0.207243
0.169354
0.136186
0.107133
0.081645
0.0592825
0.0396118
0.0223837
0.0075808
-0.00491516
0.695667
0.611358
0.536657
0.469382
0.40834
0.352886
0.302636
0.257301
0.216701
0.180536
0.148535
0.120383
0.0955783
0.0736754
0.0543135
0.0371126
0.0218034
0.00829695
-0.00356332
0.569007
0.499906
0.438202
0.382721
0.332637
0.287395
0.246598
0.209923
0.177148
0.147962
0.12211
0.0993085
0.0791373
0.06123
0.0452994
0.0310395
0.0182437
0.00686148
-0.00321659
0.423241
0.370791
0.324341
0.28293
0.245816
0.212475
0.182524
0.155659
0.131669
0.110291
0.0913226
0.0745434
0.0596438
0.0463574
0.0344852
0.0238126
0.014205
0.00564614
-0.00193084
0.2643
0.229414
0.199609
0.173594
0.150572
0.130049
0.111702
0.0952919
0.0806595
0.0676224
0.0560457
0.045786
0.0366496
0.0284716
0.0211323
0.0145025
0.0085059
0.00314271
-0.00161756
0.100836
0.0864403
0.0746657
0.0645731
0.0557133
0.0478553
0.0408644
0.0346469
0.029139
0.0242676
0.0199748
0.0161981
0.0128571
0.00988101
0.00721559
0.00480436
0.00261095
0.000628557
-0.00115651
-0.100788
-0.0863294
-0.0745107
-0.0643887
-0.0555114
-0.0476457
-0.0406547
-0.0344435
-0.0289465
-0.0240895
-0.0198137
-0.0160556
-0.0127342
-0.00977863
-0.00713415
-0.00474419
-0.00257221
-0.000611014
0.00115338
-0.264254
-0.229314
-0.19947
-0.17343
-0.150393
-0.129864
-0.111518
-0.0951144
-0.0804926
-0.0674694
-0.0559086
-0.0456663
-0.0365483
-0.0283893
-0.0210696
-0.0144597
-0.00848313
-0.00313974
0.00160135
-0.423193
-0.370692
-0.324204
-0.282766
-0.245636
-0.212288
-0.182337
-0.155478
-0.131499
-0.110134
-0.0911811
-0.0744186
-0.0595364
-0.0462674
-0.0344125
-0.0237567
-0.0141654
-0.00562187
0.00194083
-0.568968
-0.49983
-0.438099
-0.382599
-0.332504
-0.287258
-0.246463
-0.209795
-0.177029
-0.147855
-0.122016
-0.0992284
-0.0790714
-0.0611781
-0.0452612
-0.0310145
-0.0182312
-0.0068607
0.00320657
-0.695638
-0.611302
-0.536579
-0.469288
-0.408236
-0.35278
-0.302531
-0.257202
-0.21661
-0.180456
-0.148467
-0.120327
-0.0955342
-0.0736426
-0.0542911
-0.0370998
-0.0217988
-0.00829906
0.00355659
-0.807209
-0.71189
-0.626427
-0.548595
-0.47725
-0.411907
-0.352355
-0.29846
-0.25016
-0.207208
-0.16933
-0.136173
-0.107129
-0.0816497
-0.0592949
-0.0396301
-0.0224052
-0.00760113
0.00490014
-0.871198
-0.787142
-0.707316
-0.631501
-0.559398
-0.491044
-0.426734
-0.36682
-0.311745
-0.261737
-0.216939
-0.177309
-0.142443
-0.111877
-0.0851249
-0.0614542
-0.0401635
-0.0203489
-0.00076203
-0.866196
-0.783977
-0.700966
-0.619928
-0.542205
-0.468641
-0.399999
-0.336789
-0.279481
-0.228219
-0.183005
-0.143472
-0.108911
-0.0783019
-0.0504886
-0.0235709
0.00386717
0.0332263
0.0646839
-0.850423
-0.773469
-0.689383
-0.602627
-0.5166
-0.433913
-0.356757
-0.286555
-0.224273
-0.170062
-0.123659
-0.0840452
-0.0498303
-0.0192327
0.00902986
0.0363569
0.061878
0.0838794
0.0986045
-0.810241
-0.750241
-0.678901
-0.601056
-0.520779
-0.441507
-0.366229
-0.297023
-0.235326
-0.181564
-0.135661
-0.0966248
-0.0631899
-0.0339622
-0.00844057
0.0136208
0.0303701
0.0402095
0.0415145
-0.733382
-0.684937
-0.622683
-0.551356
-0.47545
-0.399145
-0.326174
-0.259237
-0.200115
-0.149387
-0.106921
-0.0716507
-0.0423739
-0.0180006
0.00163994
0.0164621
0.0254322
0.0286939
0.0275404
-0.643285
-0.603622
-0.550223
-0.486473
-0.41674
-0.345631
-0.277407
-0.215218
-0.161063
-0.11557
-0.0785129
-0.0487695
-0.0251897
-0.00682579
0.00656346
0.0152309
0.0192349
0.019734
0.0182715
-0.540278
-0.511209
-0.467048
-0.411387
-0.348785
-0.284278
-0.222546
-0.167038
-0.119784
-0.0813069
-0.0511702
-0.0281162
-0.0109448
0.00134099
0.00926417
0.0135013
0.0147296
0.0142296
0.0131141
-0.394609
-0.375291
-0.34203
-0.298236
-0.248204
-0.196676
-0.147993
-0.105266
-0.0701164
-0.0427404
-0.0224644
-0.007963
0.0019165
0.00814627
0.0113791
0.0124087
0.0119697
0.0109962
0.0100629
-0.248919
-0.236318
-0.212106
-0.179373
-0.142201
-0.104868
-0.0710029
-0.0429473
-0.0215514
-0.00645623
0.00333354
0.00921226
0.0122342
0.0132532
0.0128554
0.0116768
0.0102084
0.00895167
0.0080928
-0.0838594
-0.0744799
-0.058215
-0.0380001
-0.0171707
0.00130998
0.0154588
0.0244615
0.0287078
0.0292654
0.0273752
0.0243007
0.0207543
0.0172182
0.0139378
0.0111593
0.00898629
0.00752124
0.00667817
0.0832944
0.0921532
0.101859
0.109143
0.111826
0.108965
0.100943
0.0889986
0.0750027
0.0607188
0.0474797
0.0361895
0.027008
0.0198537
0.0144665
0.0106093
0.00798948
0.00638685
0.00552335
0.249754
0.274507
0.292114
0.296373
0.285189
0.260097
0.22524
0.185713
0.146404
0.110831
0.0809937
0.0575226
0.0399063
0.0272353
0.0184672
0.0126379
0.00890032
0.00656018
0.00493334
0.37321
0.368793
0.350331
0.318954
0.278077
0.232269
0.186065
0.14315
0.106031
0.075785
0.0524873
0.0353946
0.0233502
0.0151619
0.0097787
0.00632295
0.00411179
0.00256133
0.00108634
0.506913
0.517915
0.50829
0.477448
0.428478
0.367404
0.301216
0.23651
0.178313
0.129391
0.0907677
0.0618238
0.0410698
0.0267473
0.0171946
0.0109389
0.00682586
0.0039209
0.00142678
0.620538
0.628335
0.610286
0.567705
0.505217
0.430276
0.350936
0.274571
0.206581
0.149801
0.105156
0.0717529
0.04781
0.0312624
0.0201781
0.0128476
0.00794631
0.00443242
0.00149573
0.717833
0.719017
0.691207
0.637345
0.563168
0.477083
0.387745
0.302871
0.227918
0.165619
0.116735
0.0801503
0.0538715
0.0356308
0.023323
0.0150825
0.00946732
0.00534561
0.00183196
0.806047
0.796997
0.757803
0.692364
0.607253
0.511589
0.414322
0.32318
0.243404
0.177446
0.125816
0.087169
0.0593424
0.0399287
0.0267144
0.0177297
0.0114462
0.00664525
0.00234306
0.880178
0.858621
0.807544
0.730909
0.636122
0.532834
0.430001
0.335039
0.252732
0.185096
0.132316
0.0928211
0.0643214
0.0443263
0.0305708
0.0210233
0.0140938
0.00848019
0.0030912
0.914339
0.884278
0.82439
0.74014
0.639935
0.533601
0.429714
0.335051
0.253745
0.187309
0.135607
0.0969152
0.0689079
0.0491067
0.0352767
0.0253777
0.0177901
0.0111347
0.00419975
0.956329
0.915545
0.843807
0.749637
0.64258
0.532515
0.427489
0.333449
0.253716
0.189155
0.139206
0.101922
0.0748984
0.055639
0.0419236
0.0316781
0.0232288
0.0150823
0.00585665
0.988665
0.932088
0.847345
0.743972
0.63191
0.520552
0.417039
0.326178
0.2503
0.189537
0.142882
0.108183
0.0829842
0.0648026
0.0514554
0.0408261
0.0311738
0.020855
0.0082692
0.997783
0.925223
0.828904
0.718975
0.60541
0.496575
0.39827
0.313879
0.244615
0.189854
0.148182
0.117298
0.0947539
0.0781171
0.0652679
0.0540289
0.0425735
0.0290702
0.0116595
0.986429
0.898995
0.792852
0.679408
0.568098
0.465599
0.375951
0.300916
0.240563
0.193542
0.158129
0.131929
0.112551
0.0976265
0.0851018
0.0726933
0.0584615
0.040353
0.0162297
0.969703
0.865118
0.750038
0.63569
0.529705
0.43639
0.357719
0.293798
0.243615
0.205176
0.176561
0.155308
0.139103
0.125608
0.112808
0.0982402
0.0798207
0.0552551
0.0221404
0.936949
0.815404
0.695832
0.585956
0.490322
0.410357
0.345785
0.29517
0.256595
0.22759
0.206206
0.189973
0.176684
0.164017
0.149971
0.13185
0.107419
0.0741711
0.029503
0.840485
0.715948
0.605298
0.512546
0.438146
0.380203
0.33617
0.303416
0.279496
0.261792
0.24863
0.237698
0.227015
0.214325
0.197688
0.174198
0.141554
0.0971547
0.0383237
0.748704
0.627595
0.532598
0.462291
0.41204
0.376964
0.352896
0.33667
0.325748
0.317593
0.310917
0.303551
0.293672
0.27901
0.257629
0.226397
0.182966
0.124712
0.0488729
0.637897
0.531684
0.465588
0.427133
0.406442
0.39682
0.393526
0.393599
0.394852
0.395087
0.393489
0.388102
0.377242
0.358611
0.330278
0.28893
0.232197
0.157459
0.0616913
0.451112
0.397103
0.384367
0.392876
0.410953
0.432324
0.453043
0.471083
0.485076
0.493502
0.496121
0.491407
0.477864
0.453283
0.415812
0.362132
0.289872
0.196375
0.0778568
0.267872
0.294575
0.345772
0.403313
0.458601
0.50788
0.549153
0.581669
0.605113
0.618787
0.622857
0.616386
0.597965
0.565514
0.517204
0.449767
0.360506
0.246174
0.100779
0.0892172
0.216268
0.337497
0.445041
0.536857
0.612593
0.672814
0.718051
0.749188
0.766554
0.770574
0.761211
0.737136
0.69654
0.637576
0.557004
0.451136
0.314905
0.137429
-0.0474483
0.179538
0.365962
0.518891
0.643688
0.742887
0.819675
0.875591
0.912812
0.93292
0.936467
0.924734
0.89654
0.850558
0.784801
0.695835
0.577645
0.420894
0.204949
-0.1125
0.188206
0.425626
0.615905
0.768887
0.888238
0.979356
1.04446
1.08714
1.11056
1.11545
1.10499
1.07847
1.03549
0.973857
0.889553
0.772133
0.603748
0.346037
-0.0965598
0.235344
0.504767
0.722936
0.898806
1.03496
1.13837
1.21181
1.26047
1.28972
1.30086
1.29985
1.2875
1.2655
1.23195
1.18251
1.10002
0.952261
0.671709
-0.0187835
0.304976
0.589062
0.826381
1.01983
1.16927
1.28272
1.36385
1.41978
1.45919
1.48487
1.50703
1.53093
1.56364
1.6064
1.65879
1.69837
1.67542
1.48034
0.0746913
0.374263
0.664551
0.915436
1.12156
1.28038
1.40056
1.48826
1.5522
1.60718
1.65844
1.72311
1.81987
1.97353
2.21158
2.59608
3.21806
4.27057
6.15181
)
;

boundaryField
{
    up
    {
        type            calculated;
        value           nonuniform List<scalar> 
84
(
-6.15181
-1.48034
-0.671712
-0.34604
-0.204949
-0.137428
-0.100777
-0.0778548
-0.0616899
-0.0488723
-0.038324
-0.0295039
-0.0221414
-0.0162305
-0.0116599
-0.00826922
-0.00585644
-0.00419944
-0.00309087
-0.00234277
-0.0018317
-0.00149543
-0.00142652
-0.00108852
-0.00406966
-0.00496765
-0.00603548
-0.00727681
-0.00894132
-0.0114681
-0.0156617
-0.0227629
-0.0330736
-0.0927353
-0.0663277
0.000819146
-0.00481766
-0.00350035
-0.003179
-0.00191405
-0.00160968
-0.00115397
0.00115086
0.00159357
0.00192413
0.00316922
0.00349394
0.004803
-0.000731695
0.0652871
0.0935013
0.0331889
0.0228296
0.0156981
0.0114896
0.00895536
0.00728747
0.00604519
0.00497601
0.00408839
0.00108634
0.00142678
0.00149573
0.00183196
0.00234306
0.0030912
0.00419975
0.00585665
0.0082692
0.0116595
0.0162297
0.0221404
0.029503
0.0383237
0.0488729
0.0616913
0.0778568
0.100779
0.137429
0.204949
0.346037
0.671709
1.48034
6.15181
)
;
    }
    low
    {
        type            calculated;
        value           nonuniform List<scalar> 
84
(
-0.067094
0.0304665
0.115032
0.132111
0.0594749
-0.0913811
-0.285239
-0.479609
-0.670382
-0.775444
-0.864664
-0.95785
-0.981389
-0.99302
-1.00159
-0.987368
-0.95029
-0.907145
-0.869535
-0.788171
-0.695534
-0.596086
-0.481439
-0.349907
-0.230607
-0.0763084
0.0757612
0.229175
0.370198
0.51742
0.626483
0.721426
0.804448
0.851999
0.872875
0.884103
0.826062
0.714492
0.585142
0.435718
0.272406
0.104182
-0.104134
-0.272359
-0.435667
-0.585099
-0.714458
-0.826045
-0.884082
-0.872991
-0.851927
-0.804481
-0.721447
-0.626509
-0.517449
-0.370226
-0.229208
-0.0757909
0.076238
0.230651
0.349853
0.481461
0.596087
0.695535
0.78817
0.869536
0.907147
0.950291
0.98737
1.00159
0.993022
0.981392
0.957847
0.864667
0.775451
0.670387
0.479613
0.285243
0.0913841
-0.0594733
-0.132111
-0.115035
-0.0304682
0.0670944
)
;
    }
    left
    {
        type            calculated;
        value           nonuniform List<scalar> 
19
(
-0.0670068
-0.36147
-0.659054
-0.919832
-1.13576
-1.30255
-1.4293
-1.52303
-1.59234
-1.65516
-1.71675
-1.79577
-1.91593
-2.10926
-2.40948
-2.90246
-3.71405
-5.11376
-5.33451
)
;
    }
    right
    {
        type            calculated;
        value           nonuniform List<scalar> 
19
(
0.0670078
0.361471
0.659052
0.919829
1.13575
1.30255
1.4293
1.52303
1.59234
1.65517
1.71676
1.79577
1.91593
2.10926
2.40946
2.90244
3.71405
5.11376
5.33452
)
;
    }
    frontAndBackPlanes
    {
        type            empty;
    }
}


// ************************************************************************* //
