/*--------------------------------*- C++ -*----------------------------------*\
  =========                 |
  \\      /  F ield         | OpenFOAM: The Open Source CFD Toolbox
   \\    /   O peration     | Website:  https://openfoam.org
    \\  /    A nd           | Version:  7
     \\/     M anipulation  |
\*---------------------------------------------------------------------------*/
FoamFile
{
    version     2.0;
    format      ascii;
    class       volScalarField;
    location    "0.316";
    object      gradTz;
}
// * * * * * * * * * * * * * * * * * * * * * * * * * * * * * * * * * * * * * //

dimensions      [0 -1 0 1 0 0 0];

internalField   nonuniform List<scalar> 
1596
(
-1.12961e-15
-5.50606e-16
5.57846e-16
1.06659e-17
-1.06688e-15
0
-5.00677e-16
-4.93658e-16
-3.06276e-17
-2.58904e-16
-2.51531e-18
-2.57186e-16
1.12922e-15
-2.53963e-16
1.1875e-15
1.02408e-15
6.08952e-16
7.68597e-16
0
1.13028e-15
0
1.60255e-15
-1.00532e-17
-4.94808e-16
4.90931e-16
1.00642e-15
2.90032e-17
4.77834e-16
-2.29808e-16
4.58218e-16
-7.31865e-18
-6.35001e-16
-3.96101e-16
-9.60274e-16
-9.36186e-16
-8.51292e-16
4.84262e-16
0
-5.564e-16
0
-1.05006e-15
1.59782e-17
9.71074e-16
-2.68651e-16
1.86247e-17
-6.80895e-18
-7.09212e-18
-7.67026e-18
1.76872e-16
0
3.29457e-16
9.359e-16
-9.21185e-17
7.3808e-17
1.73762e-16
2.70307e-16
0
8.71305e-16
-2.65055e-16
2.64087e-16
0
-2.54983e-16
-2.6252e-16
4.53589e-16
-4.00845e-16
0
0
-1.38088e-16
9.2277e-17
0
-2.76475e-16
-3.54e-16
2.43971e-16
-2.48538e-16
-1.28011e-17
0
1.51899e-16
4.09681e-16
-3.74079e-16
0
-1.11748e-16
-3.38999e-16
0
5.09807e-16
-5.10292e-17
-4.61761e-17
-3.95039e-17
2.67007e-16
3.26052e-16
3.3253e-17
8.72248e-18
-2.63824e-16
1.3321e-17
1.21998e-16
-5.22289e-17
-3.94458e-17
-5.62762e-16
5.40253e-16
-4.77669e-16
-8.94217e-19
-4.29565e-16
1.21479e-17
-1.21882e-17
-3.43671e-16
0
-3.23704e-17
-3.15315e-16
-2.9471e-16
2.41669e-16
2.45877e-16
-3.36779e-18
-1.47335e-16
-1.23741e-16
9.44114e-17
3.29655e-16
-5.74751e-16
6.52779e-16
3.68207e-16
0
3.29108e-16
1.95993e-16
-9.4693e-17
4.36506e-16
-8.2484e-17
-3.46149e-16
3.28662e-18
-2.07013e-16
-2.42857e-16
-1.91607e-16
1.61809e-16
1.48632e-16
-1.97774e-18
-3.95046e-17
2.89427e-17
9.11149e-16
-1.08768e-15
0
0
-4.13743e-16
0
0
0
2.93407e-16
0
0
1.89376e-16
7.44376e-18
4.84357e-17
-1.41188e-16
0
7.51588e-17
2.90103e-17
0
-5.96009e-16
1.15048e-15
0
0
4.26098e-16
0
-1.67082e-16
1.66913e-16
-2.98646e-16
1.25527e-16
-1.26445e-16
0
1.82768e-16
1.73365e-16
0
-1.0019e-16
-7.68129e-17
-2.5293e-17
1.4099e-15
-6.63841e-16
0
-4.90232e-16
4.84745e-16
0
3.7269e-16
0
0
0
1.17796e-16
-1.18361e-16
0
-1.40878e-16
-4.07055e-17
0
8.95668e-18
5.76756e-17
0
-3.57849e-16
0
0
4.91759e-16
-9.24305e-16
4.19603e-17
1.65362e-17
-1.56862e-16
1.59515e-17
4.73863e-18
-1.24745e-16
-2.03807e-16
0
1.54237e-16
-3.03102e-17
3.07652e-17
7.83703e-17
-4.50948e-17
-2.09825e-17
3.0516e-16
-2.82093e-17
2.92694e-16
1.0188e-15
-4.80955e-17
-4.3531e-16
0
0
0
2.57275e-16
1.05036e-16
3.80492e-16
-9.19569e-17
-1.51477e-16
-9.21144e-17
-4.92608e-17
2.18596e-17
-4.73268e-17
2.00085e-17
-3.32904e-16
3.25946e-16
-6.06733e-16
-1.00651e-15
9.39568e-16
3.83022e-16
-7.14151e-16
6.28496e-16
-5.52156e-16
1.43636e-16
1.12784e-16
-1.02284e-16
6.93868e-17
-6.13533e-17
1.78255e-16
0
-1.33417e-17
9.77547e-17
-1.44864e-17
-2.13268e-15
9.86327e-16
8.50398e-19
-2.27538e-16
2.52489e-17
3.72618e-16
-7.11508e-16
-3.00522e-16
2.61369e-16
-2.25984e-16
-1.9581e-16
0
-2.26375e-16
-6.76481e-17
-1.22455e-16
-7.28645e-17
5.74711e-18
-6.27468e-17
1.06032e-18
3.48568e-16
-3.1403e-16
7.28576e-19
-2.4804e-16
-6.32454e-16
5.99675e-16
1.85929e-18
2.92859e-16
-2.54477e-16
4.34774e-16
1.0322e-16
8.66755e-17
2.7246e-16
0
2.28932e-16
1.05156e-16
0
3.47296e-17
9.04401e-19
0
3.04645e-16
2.4625e-16
-5.08228e-16
6.13272e-16
-9.31471e-16
6.68475e-16
2.61419e-16
-3.39201e-17
-4.29898e-16
8.15894e-17
-8.11868e-17
-2.52172e-16
1.02109e-16
-5.00413e-17
-1.06655e-16
4.69142e-17
-2.89818e-17
1.0965e-17
-3.24737e-16
1.12163e-15
-8.33794e-16
4.64797e-16
0
0
-1.35349e-16
2.8574e-16
-2.12238e-16
4.01662e-16
0
0
1.71843e-16
-1.51378e-16
-1.09843e-16
3.45087e-17
-3.64423e-17
1.90087e-17
0
2.33857e-17
3.03657e-16
-2.50975e-16
-2.22812e-16
-3.6949e-16
-1.27636e-16
1.68085e-16
0
-2.00524e-16
-1.67443e-16
1.52118e-16
-1.26824e-16
1.04831e-16
0
4.16496e-17
8.39508e-17
0
0
0
-2.2318e-17
4.97863e-16
1.96844e-16
-6.70258e-16
1.89412e-16
1.65191e-16
0
0
1.90335e-16
-9.88498e-17
-1.47131e-16
1.22662e-16
-1.0138e-16
0
-2.82361e-17
2.49418e-17
0
-2.07078e-17
-7.18985e-18
-2.63507e-16
7.73298e-16
-9.47613e-16
-3.89455e-16
2.02702e-16
-1.57125e-16
1.34796e-16
0
-9.64293e-17
8.21119e-17
0
0
4.09557e-17
-4.10029e-17
1.27068e-17
-1.61819e-17
3.01313e-17
3.26072e-18
5.32442e-18
1.34026e-16
-1.22199e-16
6.37038e-16
-4.12236e-16
-1.71793e-16
1.97719e-17
2.75137e-16
1.0831e-16
9.22683e-17
0
5.70939e-17
-5.31144e-17
4.32423e-17
-3.73303e-17
4.99099e-17
-8.65909e-17
-2.34495e-17
2.05314e-17
5.54682e-18
3.61239e-16
-3.64921e-16
0
3.51352e-16
-1.83824e-16
-1.42276e-16
1.0345e-16
-3.27425e-16
0
-5.5392e-18
-6.47152e-17
-4.83515e-17
7.2647e-17
-5.1919e-18
-4.82371e-17
3.6189e-17
0
1.34808e-17
-5.38591e-18
6.10736e-16
-1.09496e-16
4.7516e-16
-3.72794e-16
2.13754e-16
2.94769e-17
-2.49627e-16
-8.95524e-17
1.63234e-16
-6.20317e-18
-1.0185e-16
8.74711e-17
-3.88385e-17
-5.30231e-17
0
0
0
-1.3612e-17
5.09405e-19
-5.4729e-16
5.3413e-16
3.49823e-19
8.44593e-17
7.40902e-17
-1.84009e-16
2.20243e-16
-1.85549e-16
1.61414e-16
-5.61952e-17
1.07554e-16
3.95809e-17
-1.7078e-17
9.2455e-19
-6.609e-18
-1.16375e-17
0
0
0
0
0
2.69354e-16
-1.26054e-16
-4.15833e-16
0
0
-5.37162e-17
-8.93743e-17
7.63634e-17
0
-4.99187e-17
3.97615e-17
-1.36183e-16
1.57582e-16
-5.29539e-17
5.6505e-17
6.2657e-18
0
-1.06076e-16
1.07382e-16
0
-8.93191e-17
9.08076e-17
1.54197e-16
0
5.42292e-17
7.54625e-17
-3.33203e-16
0
-5.45172e-17
4.3584e-17
3.23265e-17
-2.45372e-17
3.63523e-17
0
-1.37205e-17
0
-5.45347e-17
-5.48289e-17
3.24945e-18
9.17731e-17
-2.50679e-16
0
-6.70026e-17
0
1.99191e-16
8.27522e-17
0
2.15984e-16
-2.30667e-16
2.2283e-17
-5.48065e-17
1.38959e-17
6.95075e-17
2.69778e-17
-2.13587e-17
0
1.13264e-16
-1.01162e-16
1.25864e-16
1.54641e-16
0
1.36842e-16
-1.30348e-16
-1.064e-16
1.65021e-16
-2.48264e-16
-1.25467e-16
0
0
2.9628e-17
0
0
8.77136e-18
0
-4.99785e-16
3.83158e-16
0
5.26588e-18
-9.07476e-17
-5.08158e-18
8.26764e-17
6.16825e-17
-7.51422e-17
-2.01003e-16
3.27898e-16
-8.82554e-17
0
-4.48775e-17
0
0
0
-3.37839e-17
2.69563e-17
-1.40751e-16
1.33133e-16
3.61291e-16
-3.54962e-16
1.10408e-16
5.67609e-18
-8.40326e-17
7.39386e-17
1.28412e-16
1.00782e-16
-1.99547e-16
0
1.0976e-16
1.79705e-17
-5.13576e-17
-1.16211e-16
9.62425e-17
-1.6257e-17
3.04154e-17
-4.73954e-16
6.9503e-16
-6.9088e-16
1.23554e-16
1.06979e-16
-1.02632e-16
8.71585e-17
-7.09942e-17
0
-6.23801e-17
1.03218e-16
4.48789e-17
7.35926e-17
9.66185e-17
-1.45572e-16
-1.7156e-18
0
-1.21426e-17
4.04044e-18
-5.12483e-16
-1.548e-16
-2.76011e-16
1.45827e-16
-2.44621e-16
2.16348e-16
-1.29985e-16
1.12576e-16
-6.9853e-18
-7.0068e-18
-1.07039e-16
6.24101e-17
-3.74447e-17
1.13003e-16
-1.2131e-16
1.62129e-17
1.31602e-17
0
-6.93882e-18
5.54106e-16
-1.66766e-16
0
0
-2.52127e-16
4.92928e-16
-1.16477e-16
-2.30178e-17
1.91821e-16
-4.87703e-18
0
0
-4.70279e-17
0
-1.04605e-16
2.564e-16
-1.78808e-16
0
2.71142e-18
1.90363e-16
3.58574e-16
0
-1.55617e-16
-1.29792e-16
-1.172e-16
-1.20852e-16
5.11669e-17
-1.44144e-16
-8.04053e-17
0
0
6.06172e-17
0
0
-1.39944e-16
2.30213e-16
0
0
1.30619e-15
-1.4984e-16
-8.00367e-16
-4.4444e-16
6.02125e-16
1.95174e-16
1.17181e-16
0
-4.41191e-17
4.35888e-17
1.07456e-16
-3.48863e-17
-5.31921e-17
8.27857e-17
-8.80586e-17
-2.77952e-17
0
0
0
1.04601e-16
-8.34316e-16
8.18686e-16
-7.93887e-17
-6.22652e-16
9.79702e-16
-4.94599e-16
0
0
2.74081e-16
-2.26102e-16
0
-7.00019e-17
1.21474e-16
-1.4004e-17
3.58081e-17
1.1009e-17
1.11872e-19
2.42215e-18
0
0
0
6.98703e-16
-4.68132e-16
5.0151e-16
-7.84098e-16
2.24727e-16
0
-8.27623e-17
1.33867e-16
-1.3682e-16
-2.72968e-17
-7.46567e-19
-1.89525e-17
-2.88287e-18
-1.50859e-17
-4.20706e-18
-2.31039e-18
8.77932e-16
-1.57101e-15
7.47232e-16
0
2.06053e-16
-2.80508e-16
2.85708e-16
-2.26721e-16
0
-1.12941e-16
1.58378e-16
0
0
-5.67306e-19
0
-1.92543e-17
1.32007e-17
2.50458e-18
3.67361e-18
8.47224e-16
0
-3.43782e-16
3.84104e-16
-2.44805e-16
5.36496e-16
-2.54628e-16
-2.0221e-16
2.04322e-16
-2.09469e-17
0
0
1.36336e-17
-2.3288e-17
-1.63165e-17
3.09972e-17
-6.71054e-18
3.46134e-18
0
4.81164e-16
3.80285e-16
-1.07305e-17
-3.65815e-16
-3.73582e-17
-2.71881e-16
2.7872e-17
2.3015e-16
-1.20002e-17
2.13403e-17
0
0
-1.39667e-17
0
1.64865e-17
-1.76366e-17
0
2.26129e-18
-6.28306e-19
-2.55422e-16
-1.9067e-16
1.78498e-16
-2.066e-17
-9.31975e-18
2.53708e-17
0
-6.7818e-18
1.0254e-16
-8.63551e-17
0
2.96746e-17
-5.74588e-18
-2.62817e-17
-2.41006e-18
-1.88211e-18
0
-1.76639e-18
0
1.04815e-16
-1.99867e-16
-3.20874e-18
8.66862e-17
8.03559e-17
-7.98872e-17
-5.73524e-17
6.49475e-17
-2.25536e-17
1.76241e-17
-1.73182e-17
1.78524e-17
0
4.60163e-20
-1.77319e-18
6.38414e-18
-2.18726e-20
0
0
1.04819e-16
-1.04426e-16
-8.62328e-17
7.63548e-17
1.41996e-16
-1.42834e-16
-2.86771e-17
2.87445e-17
-2.27438e-17
2.29828e-17
-1.73188e-17
3.27389e-17
-9.18185e-18
-6.64646e-18
-2.0484e-18
6.77332e-19
1.62204e-18
4.29359e-19
-3.22041e-19
0
-2.49501e-17
1.50322e-16
-1.62846e-16
1.41847e-16
-1.25668e-16
0
1.02087e-16
-9.12637e-17
0
3.45405e-17
-4.37681e-17
-2.50788e-17
2.62842e-17
4.86561e-18
0
0
-1.76659e-18
6.42275e-19
4.17321e-16
-7.70817e-16
7.91548e-16
-6.99764e-16
2.75953e-16
-2.38112e-16
2.25796e-16
2.72035e-17
-1.02019e-16
9.11986e-17
0
-6.72538e-17
6.12023e-17
-1.17356e-17
-4.76586e-18
7.56072e-18
5.56714e-18
1.71503e-18
-6.20584e-19
9.55637e-16
0
-3.88728e-16
3.01991e-16
3.69283e-17
-2.87328e-16
5.11775e-16
-4.57728e-16
1.80267e-16
-7.82196e-17
8.00646e-17
1.59485e-17
2.77362e-17
1.14306e-17
-9.59514e-18
-1.22243e-18
-1.20815e-17
0
1.25013e-18
7.70964e-16
-8.67813e-16
0
8.10481e-17
3.54265e-16
-3.47565e-16
6.01598e-17
5.38038e-17
2.35645e-17
4.21321e-17
0
0
-4.82904e-17
9.11608e-17
-3.34251e-17
-1.20594e-17
1.32031e-17
1.06234e-18
-2.38362e-18
6.43751e-17
7.6227e-16
-8.92468e-17
-6.17579e-16
5.41951e-16
6.56879e-17
-5.88773e-17
-5.25504e-17
1.7601e-16
-2.18372e-16
1.33901e-16
-1.36853e-16
2.19205e-17
-2.73378e-17
5.09728e-17
-3.39006e-17
0
0
2.50553e-18
0
1.91988e-16
-5.84977e-16
6.67984e-16
-5.51112e-16
5.498e-16
0
1.96937e-16
-1.97839e-16
-1.5204e-16
2.26256e-16
0
9.6232e-17
-1.21552e-16
-1.80556e-17
0
-2.07734e-18
-4.26034e-18
-5.98337e-21
-1.80984e-15
8.67422e-16
0
-6.02005e-16
6.01945e-16
3.77618e-16
-2.48435e-16
1.04827e-16
0
-4.84001e-18
3.74246e-17
-3.48359e-17
-5.31173e-17
8.26553e-17
-8.789e-17
0
1.98263e-17
-4.63907e-18
-2.63394e-18
1.1173e-15
-1.10259e-15
0
1.55792e-16
1.43581e-16
-1.32353e-16
0
-1.0986e-16
-9.69763e-17
0
-3.31896e-18
0
6.06385e-17
0
0
2.88746e-17
1.09315e-16
-1.40951e-16
0
1.75608e-19
1.66846e-16
-1.55938e-16
1.30966e-16
-6.6394e-16
2.56183e-16
0
2.30331e-17
6.55124e-17
0
-6.93129e-17
2.08179e-16
-2.18704e-16
3.81582e-17
0
-3.62179e-18
0
0
0
1.63246e-19
0
1.44126e-16
0
-2.31822e-16
2.35507e-16
0
8.87176e-17
-7.28573e-17
2.68017e-16
-1.30082e-16
4.88693e-17
-8.03402e-17
7.85318e-17
-1.21443e-16
-1.96293e-17
0
-1.40331e-17
0
4.36521e-16
-7.37633e-16
0
-1.23787e-16
1.13065e-16
0
0
-1.62837e-16
0
-6.24214e-17
-1.0329e-16
-4.49154e-17
7.36591e-17
0
4.23691e-17
0
0
3.10054e-17
-3.47231e-17
0
6.44862e-16
-5.16974e-16
1.14599e-16
-1.04699e-16
-4.43986e-17
1.29185e-16
1.48875e-16
-1.87942e-16
6.0881e-17
2.94396e-18
-6.1422e-17
2.53648e-16
-7.91845e-17
-1.92345e-16
6.75278e-17
-1.84003e-17
1.09378e-17
-3.50734e-18
-1.03029e-15
3.83108e-16
0
0
4.5389e-17
-4.61555e-17
3.52315e-17
2.50642e-17
1.71161e-16
9.08115e-17
-9.12838e-17
-2.44498e-18
-5.50053e-17
4.49126e-17
0
2.40196e-17
1.68652e-17
9.5036e-18
3.17014e-18
0
3.35556e-16
-3.17354e-16
1.02685e-16
1.0992e-16
-2.13844e-17
-7.16208e-17
-6.28569e-17
-2.15239e-16
9.00581e-17
-5.91348e-17
7.79292e-17
5.14368e-17
-6.77674e-17
7.19309e-17
4.86235e-17
-6.22347e-17
-8.77798e-18
0
-5.81159e-17
-2.65607e-16
9.6666e-17
9.17961e-17
-3.2501e-16
2.35299e-16
1.23259e-16
-1.2599e-16
1.00972e-16
-8.54696e-17
0
0
-8.01724e-17
1.4572e-16
-6.54131e-17
6.4438e-17
-7.02221e-17
1.20162e-17
-2.13759e-17
1.09735e-16
1.03905e-16
-9.63373e-17
7.90025e-17
-8.99057e-17
-1.44085e-16
0
0
0
0
0
0
4.15282e-17
-1.13763e-16
1.20317e-16
-4.10908e-17
5.0562e-17
2.44363e-17
-2.0789e-17
2.26143e-16
-3.96858e-16
4.97272e-16
-2.43988e-16
3.36048e-16
-2.60096e-16
4.91923e-16
-2.83457e-16
-1.62694e-16
1.66429e-16
0
4.98866e-17
-4.05709e-17
1.04629e-16
-3.30983e-17
-4.53281e-17
-1.00215e-16
7.36419e-18
1.77925e-17
3.51271e-16
1.03579e-16
0
-1.6841e-16
-1.38583e-16
3.21932e-16
3.74709e-17
-1.38823e-16
8.42387e-17
-6.31566e-17
0
-3.94909e-17
0
-3.45222e-17
2.85535e-17
-2.63922e-17
-8.82166e-18
6.37162e-18
0
4.91558e-16
-1.09495e-16
4.74957e-16
-3.72659e-16
-7.77467e-17
3.19175e-16
-1.91328e-16
8.53307e-18
7.18809e-18
-6.21199e-17
6.03904e-17
0
0
4.14136e-17
-1.59211e-17
1.06809e-17
3.18747e-17
-1.10794e-17
0
9.41392e-20
0
-1.04342e-16
6.30244e-16
-4.29021e-16
-4.78237e-16
2.63136e-16
-2.92312e-16
2.74106e-16
1.42411e-16
-1.12196e-16
4.68759e-17
-4.25352e-17
6.86427e-18
7.47907e-17
3.47391e-18
-2.98913e-17
2.95759e-17
-6.00361e-18
1.20362e-15
-3.85598e-16
1.98355e-16
-6.07927e-16
1.71792e-16
-2.79407e-16
1.48038e-16
0
0
-5.66493e-18
-7.49057e-18
-2.20001e-18
0
-6.40215e-17
-4.99104e-17
3.73944e-17
-2.76119e-18
4.56166e-18
1.16996e-17
0
-3.87113e-16
6.72212e-16
1.61279e-16
-5.64113e-16
1.57124e-16
-2.51536e-16
3.55682e-17
2.11178e-16
0
0
4.01831e-18
5.04811e-17
0
-4.72679e-17
-2.21334e-17
3.24135e-18
-1.19543e-17
-1.32989e-17
0
-2.47998e-16
4.62952e-17
4.54306e-16
3.56593e-16
-6.60909e-16
3.0461e-16
-2.25397e-16
1.19226e-16
-1.74901e-16
0
0
0
-8.26704e-17
2.41831e-17
-2.83745e-17
0
-1.78831e-18
9.00949e-18
-9.08834e-16
8.65638e-16
9.56267e-16
-1.16331e-15
5.65509e-16
-5.35802e-16
0
2.36088e-16
-3.26761e-16
1.94189e-16
-1.56668e-16
1.3163e-16
1.09666e-16
8.54994e-17
6.85659e-17
0
0
0
0
9.96887e-16
-5.85913e-16
0
0
-2.04156e-16
5.13864e-16
-3.30328e-16
-2.48543e-16
2.45742e-16
1.9193e-16
3.29991e-16
-1.36579e-16
5.80736e-17
4.53862e-17
3.43311e-17
2.76282e-17
4.51505e-17
-2.23316e-18
2.27467e-18
-1.01419e-15
9.40479e-16
5.17761e-16
-2.67082e-16
6.13368e-16
-3.95136e-16
-3.23957e-16
-2.80894e-16
0
-3.99489e-16
1.66921e-17
1.52386e-16
-1.23364e-16
-1.02109e-16
-3.78104e-17
-4.07369e-17
-3.24538e-17
0
0
-3.48873e-16
0
2.79122e-16
-5.53506e-19
0
0
3.34172e-16
2.89843e-16
0
2.14936e-16
0
-2.31638e-16
-6.52145e-17
1.16889e-16
0
7.57617e-17
-1.07631e-17
1.09798e-17
0
7.3809e-16
0
5.41952e-16
-1.0152e-15
9.1978e-16
7.67598e-16
-2.02742e-17
0
1.87292e-17
2.44535e-16
0
-2.5446e-16
2.90542e-16
-2.59351e-16
-5.67992e-17
-6.11026e-17
-1.77141e-17
-3.1136e-18
-1.0716e-17
-6.9524e-16
1.00392e-15
-2.90349e-16
-7.74268e-16
-4.57302e-16
-4.04208e-16
-7.12896e-16
-2.95684e-16
1.99729e-17
1.12996e-16
-1.12784e-16
3.67834e-16
-1.62581e-16
3.31355e-16
-6.21147e-17
0
6.90465e-17
-4.01776e-17
1.09054e-17
1.51792e-15
-2.89338e-17
-1.19596e-15
1.01881e-15
-9.28695e-16
8.26646e-16
-2.22982e-17
-3.27017e-16
2.90685e-16
1.19146e-16
-1.40786e-17
-2.97373e-16
8.77654e-17
8.83967e-17
-2.76102e-17
2.79251e-17
-7.15154e-17
-5.91657e-18
-1.59638e-17
7.45163e-16
3.22092e-16
5.76289e-16
-5.16394e-16
-4.39122e-16
1.94907e-17
-3.51077e-16
8.53654e-16
2.46455e-17
4.07932e-16
2.41163e-16
-2.1479e-16
0
-1.54236e-16
0
0
9.50528e-17
4.23843e-17
1.86867e-17
7.03979e-16
0
5.69679e-16
5.13061e-16
-4.64228e-16
4.1488e-16
0
-3.35339e-16
-4.68837e-16
-4.15797e-16
-2.43297e-16
2.17219e-16
0
0
0
0
-8.90582e-17
-6.3966e-17
0
-1.37951e-15
0
-2.39322e-17
-2.11431e-17
7.0421e-16
-4.07497e-16
-1.8906e-16
-1.89614e-16
4.72565e-16
0
1.25527e-16
-1.34686e-17
1.10116e-16
0
0
1.43784e-16
-1.06608e-17
7.6776e-17
-2.83246e-17
9.72996e-16
2.86524e-16
-2.83566e-16
-2.55592e-16
-9.07025e-16
6.32014e-16
7.73461e-16
-1.71154e-17
-3.2025e-16
3.13312e-16
6.64267e-17
-3.34402e-16
-2.7697e-16
-1.63551e-16
-1.7249e-16
-1.65673e-16
1.34104e-16
-6.35864e-18
2.90103e-17
-3.00656e-16
1.38576e-16
-6.70913e-16
1.17744e-16
-1.17316e-16
0
-3.82835e-16
-2.20602e-17
-3.54359e-16
2.50806e-17
3.46148e-16
2.59289e-16
-6.28619e-17
3.04244e-17
1.64259e-16
0
-2.76886e-16
-1.00289e-16
-2.09126e-18
6.0671e-16
-1.68562e-17
1.05419e-15
-5.07107e-16
8.94216e-19
1.37316e-17
4.14652e-16
-2.74787e-17
3.4367e-16
-3.21975e-16
-3.02358e-16
0
2.94709e-16
2.37982e-16
3.25238e-18
-4.71897e-18
1.48757e-16
1.01946e-16
0
-4.32187e-16
0
-1.0936e-16
4.82161e-16
6.05475e-18
1.11897e-16
-4.00962e-16
3.80401e-16
3.96668e-16
3.79544e-16
3.63938e-16
0
-2.86304e-16
0
1.48972e-17
-1.54721e-17
0
-1.45882e-18
7.14366e-17
2.96604e-16
1.34487e-17
-2.43034e-16
7.4558e-16
-2.40581e-16
0
0
-4.39345e-16
-3.84331e-16
-3.67694e-16
-6.6123e-16
-9.22769e-17
0
0
0
-3.00904e-17
3.18432e-17
2.02498e-16
-7.25201e-17
1.3846e-17
0
-5.15753e-16
-4.77452e-16
4.96644e-16
-4.92479e-16
-7.07758e-16
8.74904e-16
2.39564e-16
0
3.87211e-16
4.3333e-16
-9.35662e-17
5.06325e-16
-8.27841e-17
8.61581e-17
3.33399e-16
-1.92424e-16
0
-5.67569e-16
0
-5.45874e-16
5.35921e-16
0
9.77587e-16
4.61095e-16
-9.62446e-16
7.6395e-16
-5.30993e-18
-2.32161e-16
-4.19553e-16
0
5.71554e-16
-9.60273e-16
1.02983e-15
-1.31221e-15
0
0
5.64656e-16
-3.19316e-18
-7.8723e-18
-1.07669e-15
1.08448e-15
-5.25703e-16
5.2356e-16
5.15919e-16
-4.60593e-16
0
0
8.56097e-16
-8.70845e-16
-9.33622e-16
9.24721e-16
-9.00246e-16
9.73217e-16
-1.52403e-15
0
)
;

boundaryField
{
    up
    {
        type            calculated;
        value           nonuniform List<scalar> 
84
(
0
0
0
0
-5.22289e-17
9.44114e-17
-3.95046e-17
2.90103e-17
-2.5293e-17
0
-2.09825e-17
2.00085e-17
-1.44864e-17
1.06032e-18
9.04401e-19
1.0965e-17
0
0
-7.18985e-18
5.32442e-18
5.54682e-18
-5.38591e-18
5.09405e-19
0
2.23263e-18
9.72426e-19
-2.04535e-17
0
2.69563e-17
3.15742e-17
4.04044e-18
-6.93882e-18
2.71142e-18
0
-1.33253e-18
2.51638e-18
-2.31221e-18
3.67124e-18
0
-6.27937e-19
0
0
-3.22293e-19
6.42275e-19
-6.20584e-19
1.25013e-18
-2.38362e-18
2.50553e-18
-5.98337e-21
-2.63394e-18
0
0
0
-3.47231e-17
-4.66681e-18
3.17014e-18
0
-2.13759e-17
-2.0789e-17
1.55677e-17
0
0
-6.00361e-18
1.16996e-17
-1.32989e-17
9.00949e-18
0
2.27467e-18
0
0
-1.0716e-17
1.09054e-17
-1.59638e-17
1.86867e-17
0
-2.83246e-17
2.90103e-17
-2.09126e-18
0
7.14366e-17
-7.25201e-17
0
0
0
)
;
    }
    low
    {
        type            calculated;
        value           nonuniform List<scalar> 
84
(
-1.13029e-15
1.13028e-15
-5.55158e-16
8.72317e-16
1.52587e-16
-3.96496e-17
3.31371e-16
3.05847e-17
0
1.41178e-15
-3.57849e-16
3.04181e-16
-3.32904e-16
-2.13259e-15
3.48568e-16
0
-3.24737e-16
2.33857e-17
-2.2318e-17
-2.63507e-16
1.34026e-16
3.61239e-16
6.08764e-16
-5.4729e-16
0
-1.06076e-16
-5.45347e-17
0
-4.99785e-16
-1.40751e-16
-4.72609e-16
-5.11378e-16
5.53313e-16
1.90363e-16
1.30612e-15
1.04601e-16
0
8.77932e-16
8.48807e-16
4.8205e-16
-2.55902e-16
1.04815e-16
1.04819e-16
0
4.17321e-16
9.57219e-16
7.70964e-16
6.53624e-17
0
-1.80978e-15
1.1173e-15
1.75608e-19
1.63246e-19
4.36521e-16
0
-1.02826e-15
0
-5.81159e-17
1.09735e-16
2.24957e-16
3.49173e-16
4.89586e-16
9.41392e-20
1.20194e-15
0
0
-9.08834e-16
9.95968e-16
-1.01354e-15
-3.48873e-16
7.37993e-16
-6.9524e-16
1.51988e-15
7.46599e-16
7.03979e-16
-1.37951e-15
9.71354e-16
-2.9894e-16
6.0671e-16
-4.31499e-16
2.96604e-16
1.50878e-17
-5.67569e-16
5.64998e-16
)
;
    }
    left
    {
        type            calculated;
        value           nonuniform List<scalar> 
19
(
-1.12961e-15
-5.50985e-16
5.57846e-16
1.06555e-17
-1.06713e-15
0
-5.00677e-16
-4.93658e-16
-3.21959e-17
-2.58904e-16
-2.51531e-18
-2.57186e-16
1.14073e-15
-2.53963e-16
1.1875e-15
1.02408e-15
6.08952e-16
8.92737e-16
0
)
;
    }
    right
    {
        type            calculated;
        value           nonuniform List<scalar> 
19
(
5.64656e-16
-2.81466e-18
-7.8723e-18
-1.07668e-15
1.08474e-15
-5.25703e-16
5.2356e-16
5.15919e-16
-4.59025e-16
0
0
8.64259e-16
-8.82352e-16
-9.33622e-16
9.24721e-16
-9.00246e-16
9.73217e-16
-1.64817e-15
0
)
;
    }
    frontAndBackPlanes
    {
        type            empty;
    }
}


// ************************************************************************* //
