/*--------------------------------*- C++ -*----------------------------------*\
  =========                 |
  \\      /  F ield         | OpenFOAM: The Open Source CFD Toolbox
   \\    /   O peration     | Website:  https://openfoam.org
    \\  /    A nd           | Version:  7
     \\/     M anipulation  |
\*---------------------------------------------------------------------------*/
FoamFile
{
    version     2.0;
    format      ascii;
    class       volScalarField;
    location    "0.1";
    object      gradTy;
}
// * * * * * * * * * * * * * * * * * * * * * * * * * * * * * * * * * * * * * //

dimensions      [0 -1 0 1 0 0 0];

internalField   nonuniform List<scalar> 
1596
(
-1.08562
-1.98616
-2.66896
-3.25602
-3.74211
-4.20982
-4.62022
-5.05517
-5.5312
-6.05252
-6.79445
-7.72701
-9.0737
-11.0815
-14.3619
-19.6388
-29.2782
-47.2219
-111.529
-3.25938
-3.9279
-4.26775
-4.48348
-4.61475
-4.7684
-4.92096
-5.14847
-5.46622
-5.86116
-6.48285
-7.29085
-8.4403
-10.0461
-12.4352
-15.7551
-20.8111
-28.3145
-49.6318
-5.69863
-5.79345
-5.67412
-5.48981
-5.27204
-5.12323
-5.02418
-5.04068
-5.18097
-5.42085
-5.88188
-6.51213
-7.42156
-8.66519
-10.4523
-12.7976
-16.1509
-20.7957
-30.7044
-8.0841
-7.48383
-6.87751
-6.30237
-5.75916
-5.32964
-4.99506
-4.80766
-4.7686
-4.84675
-5.1365
-5.5804
-6.25542
-7.18508
-8.51125
-10.1994
-12.5273
-15.5996
-20.8166
-10.0874
-8.90888
-7.88194
-6.96546
-6.13821
-5.45942
-4.91254
-4.53623
-4.32674
-4.24971
-4.37453
-4.64389
-5.10961
-5.77833
-6.75027
-7.97751
-9.64698
-11.7895
-14.9123
-11.4877
-10.006
-8.69576
-7.51983
-6.46415
-5.575
-4.84357
-4.2981
-3.93293
-3.71378
-3.688
-3.80204
-4.08781
-4.54228
-5.23692
-6.12493
-7.33943
-8.8835
-10.9518
-12.2381
-10.7467
-9.31956
-7.98517
-6.76619
-5.71117
-4.82601
-4.13401
-3.63095
-3.28546
-3.1266
-3.10629
-3.24052
-3.52009
-3.99455
-4.62307
-5.50246
-6.62794
-8.0824
-12.4338
-11.1337
-9.74017
-8.3514
-7.03926
-5.86748
-4.8628
-4.04986
-3.42924
-2.97491
-2.70189
-2.56814
-2.57716
-2.71541
-3.01486
-3.44121
-4.06417
-4.87843
-5.92512
-12.2451
-11.2563
-10.0032
-8.64386
-7.29811
-6.05252
-4.9579
-4.04618
-3.32571
-2.77755
-2.40713
-2.17824
-2.08488
-2.11024
-2.27193
-2.54108
-2.96576
-3.5416
-4.292
-11.7873
-11.0937
-10.0355
-8.77513
-7.45754
-6.19004
-5.04563
-4.06736
-3.27314
-2.65244
-2.2055
-1.90155
-1.72811
-1.66609
-1.72189
-1.87071
-2.14366
-2.53702
-3.0654
-11.336
-10.8236
-9.93641
-8.79354
-7.53594
-6.28054
-5.11625
-4.09741
-3.25168
-2.57715
-2.0722
-1.71099
-1.47698
-1.3496
-1.32676
-1.38634
-1.5462
-1.80219
-2.16308
-10.8646
-10.5261
-9.78562
-8.75463
-7.56606
-6.33944
-5.17311
-4.13118
-3.25011
-2.53595
-1.98756
-1.58324
-1.30417
-1.12885
-1.04895
-1.04401
-1.12179
-1.27713
-1.51424
-10.3373
-10.1463
-9.53699
-8.61354
-7.50124
-6.31973
-5.17132
-4.12733
-3.23101
-2.49507
-1.92023
-1.48821
-1.17938
-0.97185
-0.853125
-0.803755
-0.824385
-0.908723
-1.0576
-9.91265
-9.78582
-9.26372
-8.42361
-7.37735
-6.24179
-5.11928
-4.08547
-3.18791
-2.44401
-1.85655
-1.40972
-1.08383
-0.856949
-0.713892
-0.635845
-0.61859
-0.654828
-0.742931
-9.55282
-9.47057
-9.00082
-8.21608
-7.21857
-6.12165
-5.02565
-4.00807
-3.11851
-2.377
-1.78783
-1.33667
-1.004
-0.767943
-0.611675
-0.516802
-0.475961
-0.481128
-0.529045
-9.2199
-9.18524
-8.75079
-7.99958
-7.03347
-5.96521
-4.89305
-3.89471
-3.01984
-2.28917
-1.70747
-1.26091
-0.930059
-0.693089
-0.532212
-0.429382
-0.375348
-0.361681
-0.384186
-8.94146
-8.93423
-8.5186
-7.78196
-6.83028
-5.77911
-4.72581
-3.74737
-2.89184
-2.17881
-1.61229
-1.17792
-0.85608
-0.624881
-0.466018
-0.361801
-0.30197
-0.277983
-0.285213
-8.72065
-8.72938
-8.31792
-7.57863
-6.62496
-5.57803
-4.53629
-3.5756
-2.74125
-2.05019
-1.50428
-1.08775
-0.780294
-0.559819
-0.407733
-0.30674
-0.24614
-0.217504
-0.216108
-8.49514
-8.56534
-8.16387
-7.41273
-6.44315
-5.3869
-4.34665
-3.39776
-2.58239
-1.91381
-1.39053
-0.994603
-0.704473
-0.497603
-0.355152
-0.260206
-0.201951
-0.172199
-0.166313
-8.24786
-8.40539
-8.02824
-7.26546
-6.27298
-5.1989
-4.15349
-3.2127
-2.41536
-1.77028
-1.27169
-0.898799
-0.628391
-0.437307
-0.306504
-0.219483
-0.16555
-0.136876
-0.129042
-8.04524
-8.27258
-7.92063
-7.14418
-6.12231
-5.02241
-3.96516
-3.02818
-2.24697
-1.62522
-1.15209
-0.803409
-0.55395
-0.379777
-0.261656
-0.183521
-0.134937
-0.108521
-0.10018
-7.86222
-8.16715
-7.843
-7.05259
-5.99753
-4.86598
-3.79121
-2.85359
-2.08557
-1.48556
-1.03709
-0.71232
-0.483719
-0.326477
-0.221146
-0.152068
-0.109097
-0.0853152
-0.0771058
-7.67632
-8.07716
-7.79038
-6.99019
-5.90202
-4.73596
-3.63958
-2.69715
-1.93873
-1.3576
-0.931607
-0.629078
-0.420073
-0.278828
-0.185661
-0.125244
-0.0876251
-0.0661534
-0.0578209
-7.48985
-7.99301
-7.75014
-6.94382
-5.82369
-4.62151
-3.50103
-2.5507
-1.79911
-1.23488
-0.829607
-0.548308
-0.358269
-0.232723
-0.151647
-0.10012
-0.0681181
-0.0487807
-0.0378993
-7.32148
-7.93186
-7.77072
-7.00999
-5.90616
-4.69951
-3.5659
-2.60001
-1.83492
-1.26101
-0.848567
-0.562737
-0.369419
-0.241557
-0.158679
-0.10598
-0.0729129
-0.0522553
-0.0381604
-7.18702
-7.88048
-7.80136
-7.10903
-6.04936
-4.8595
-3.72102
-2.73634
-1.94653
-1.34808
-0.913662
-0.610197
-0.403258
-0.265234
-0.174913
-0.117162
-0.0808679
-0.0586599
-0.0446949
-7.16433
-7.88105
-7.85113
-7.21692
-6.20521
-5.04222
-3.90778
-2.90932
-2.09532
-1.46926
-1.00829
-0.681915
-0.456292
-0.303623
-0.202159
-0.136336
-0.0944866
-0.0688155
-0.0533728
-7.27121
-7.94852
-7.92499
-7.32741
-6.3595
-5.22934
-4.10822
-3.10387
-2.27017
-1.61754
-1.1284
-0.776104
-0.528141
-0.357037
-0.240768
-0.163631
-0.113581
-0.0825408
-0.0639765
-7.48738
-8.08855
-8.038
-7.4572
-6.52648
-5.43156
-4.33034
-3.32681
-2.47787
-1.80022
-1.28184
-0.900864
-0.626836
-0.433062
-0.297438
-0.2045
-0.142181
-0.102537
-0.0783066
-7.80069
-8.28695
-8.18474
-7.60658
-6.7078
-5.64968
-4.57403
-3.57805
-2.71945
-2.02004
-1.47319
-1.06246
-0.759995
-0.540237
-0.380928
-0.26702
-0.186807
-0.133478
-0.0995696
-8.20146
-8.54775
-8.38339
-7.79933
-6.92667
-5.90328
-4.85464
-3.86952
-3.0047
-2.28589
-1.71129
-1.27027
-0.937984
-0.690269
-0.504151
-0.364392
-0.259194
-0.184258
-0.133742
-8.60319
-8.84162
-8.62374
-8.03345
-7.18456
-6.19494
-5.17477
-4.20379
-3.33659
-2.6016
-2.00121
-1.53085
-1.16937
-0.894617
-0.682381
-0.515785
-0.380003
-0.272621
-0.192822
-9.049
-9.18374
-8.91123
-8.31033
-7.48062
-6.52253
-5.53177
-4.57852
-3.71376
-2.9673
-2.34466
-1.84744
-1.45899
-1.1609
-0.928628
-0.743497
-0.582451
-0.437714
-0.30253
-9.57092
-9.59685
-9.26676
-8.65183
-7.83877
-6.9125
-5.9544
-5.02473
-4.16956
-3.41843
-2.77954
-2.25949
-1.84724
-1.53049
-1.28859
-1.10544
-0.952925
-0.81583
-0.677338
-10.1397
-10.05
-9.64013
-8.98532
-8.16411
-7.24993
-6.31068
-5.39778
-4.55126
-3.79768
-3.14717
-2.60741
-2.17185
-1.83293
-1.57709
-1.39509
-1.26714
-1.1799
-1.11536
-10.7831
-10.5357
-10.0133
-9.28878
-8.43122
-7.50442
-6.56507
-5.65771
-4.81687
-4.06511
-3.41366
-2.86871
-2.42568
-2.07786
-1.81501
-1.6283
-1.50511
-1.43754
-1.41656
-11.5027
-11.0679
-10.4216
-9.61791
-8.71262
-7.75993
-6.80824
-5.89657
-5.05545
-4.3045
-3.65478
-3.1113
-2.66989
-2.32369
-2.06268
-1.8756
-1.74834
-1.66859
-1.62272
-12.1402
-11.5421
-10.7864
-9.91046
-8.95975
-7.98054
-7.01504
-6.0975
-5.25503
-4.50482
-3.85686
-3.31544
-2.8762
-2.5322
-2.27366
-2.0891
-1.96466
-1.88806
-1.84584
-12.6316
-11.9295
-11.0959
-10.1653
-9.1788
-8.178
-7.20089
-6.27818
-5.43446
-4.68496
-4.03893
-3.49996
-3.06361
-2.7229
-2.46834
-2.28829
-2.1691
-2.0983
-2.06228
-13.0159
-12.2364
-11.3437
-10.3708
-9.35624
-8.33831
-7.35181
-6.42491
-5.58024
-4.83154
-4.18749
-3.65113
-3.21791
-2.8808
-2.63049
-2.45513
-2.34128
-2.27622
-2.24627
-13.2957
-12.458
-11.52
-10.5155
-9.48026
-8.44997
-7.45687
-6.5272
-5.68218
-4.93447
-4.29236
-3.75844
-3.3281
-2.99421
-2.7476
-2.57617
-2.46658
-2.40585
-2.38014
-13.49
-12.5873
-11.6135
-10.5881
-9.54088
-8.50403
-7.50786
-6.57731
-5.73273
-4.98617
-4.34568
-3.81362
-3.38531
-3.05364
-2.8095
-2.64078
-2.53419
-2.47673
-2.45447
-13.4901
-12.5875
-11.6136
-10.5883
-9.54108
-8.50424
-7.50808
-6.57753
-5.73295
-4.98639
-4.34589
-3.81382
-3.38551
-3.05384
-2.8097
-2.64098
-2.5344
-2.47695
-2.4547
-13.2958
-12.4582
-11.5203
-10.5159
-9.48077
-8.45053
-7.45747
-6.52782
-5.68281
-4.93509
-4.29297
-3.75904
-3.32869
-2.99479
-2.74818
-2.57678
-2.46721
-2.40652
-2.38086
-13.016
-12.2368
-11.3442
-10.3715
-9.35706
-8.33922
-7.35278
-6.42591
-5.58125
-4.83255
-4.18848
-3.6521
-3.21886
-2.88172
-2.63142
-2.45607
-2.34225
-2.27726
-2.24737
-12.6317
-11.93
-11.0967
-10.1662
-9.17986
-8.17919
-7.20216
-6.2795
-5.4358
-4.68629
-4.04022
-3.50122
-3.06482
-2.72409
-2.46951
-2.28946
-2.1703
-2.09954
-2.0636
-12.1404
-11.5426
-10.7872
-9.91153
-8.96103
-7.98198
-7.01659
-6.09911
-5.25666
-4.50642
-3.85842
-3.31694
-2.87763
-2.53358
-2.27499
-2.09044
-1.96602
-1.88948
-1.84734
-11.503
-11.0685
-10.4225
-9.61912
-8.71409
-7.76159
-6.81002
-5.89842
-5.05731
-4.30631
-3.65651
-3.11293
-2.67142
-2.32514
-2.06408
-1.877
-1.74976
-1.67007
-1.62427
-10.7833
-10.5364
-10.0144
-9.29037
-8.43317
-7.50667
-6.56752
-5.66024
-4.81941
-4.06759
-3.41604
-2.87097
-2.42782
-2.07992
-1.81704
-1.63032
-1.50708
-1.43939
-1.41816
-10.1399
-10.0501
-9.64058
-8.98614
-8.16535
-7.25155
-6.31259
-5.39987
-4.55339
-3.79974
-3.14907
-2.6091
-2.1733
-1.83413
-1.57808
-1.39594
-1.26803
-1.18113
-1.11743
-9.57104
-9.59747
-9.26801
-8.65379
-7.84143
-6.91578
-5.95812
-5.02869
-4.17356
-3.42232
-2.78323
-2.26291
-1.8504
-1.53344
-1.29143
-1.10833
-0.956046
-0.819341
-0.681341
-9.04903
-9.18399
-8.91196
-8.31164
-7.48252
-6.52493
-5.53451
-4.58141
-3.71662
-2.97002
-2.34715
-1.84967
-1.46099
-1.16271
-0.930326
-0.745138
-0.58403
-0.439109
-0.303456
-8.60319
-8.84181
-8.62439
-8.03468
-7.18638
-6.19724
-5.17737
-4.20649
-3.33922
-2.60405
-2.0034
-1.53279
-1.17107
-0.896115
-0.683697
-0.516928
-0.380962
-0.273376
-0.193333
-8.20142
-8.54787
-8.38394
-7.80045
-6.92835
-5.90541
-4.85703
-3.87196
-3.00704
-2.28802
-1.71316
-1.27187
-0.93935
-0.691422
-0.505103
-0.365142
-0.259757
-0.184694
-0.134108
-7.80063
-8.28701
-8.18519
-7.60759
-6.70935
-5.65164
-4.57621
-3.58024
-2.72151
-2.02187
-1.47475
-1.06375
-0.76105
-0.541089
-0.381601
-0.267527
-0.187173
-0.133758
-0.0998296
-7.4873
-8.08854
-8.03835
-7.45808
-6.52788
-5.43333
-4.33228
-3.32873
-2.47965
-1.80176
-1.28311
-0.901884
-0.627633
-0.433677
-0.297906
-0.204852
-0.142439
-0.102734
-0.0784767
-7.27114
-7.94848
-7.92527
-7.32819
-6.36075
-5.23091
-4.10991
-3.10553
-2.27166
-1.61881
-1.12942
-0.776894
-0.528736
-0.357479
-0.241098
-0.16388
-0.113769
-0.0826811
-0.0640901
-7.16425
-7.88098
-7.85136
-7.2176
-6.2063
-5.04357
-3.90923
-2.91071
-2.09655
-1.47029
-1.00909
-0.682521
-0.456738
-0.303948
-0.2024
-0.13652
-0.0946277
-0.0689199
-0.053454
-7.18692
-7.88039
-7.80152
-7.10955
-6.0502
-4.86054
-3.72213
-2.73739
-1.94744
-1.34882
-0.914229
-0.610616
-0.40356
-0.265452
-0.175074
-0.117285
-0.080967
-0.0587389
-0.04475
-7.32157
-7.93191
-7.77086
-7.01022
-5.9065
-4.69993
-3.56635
-2.60045
-1.8353
-1.26133
-0.848817
-0.562932
-0.369572
-0.241681
-0.158783
-0.106069
-0.0729889
-0.0523159
-0.0381883
-7.48991
-7.99304
-7.75009
-6.94365
-5.82343
-4.6212
-3.50071
-2.5504
-1.79883
-1.23463
-0.829398
-0.548142
-0.358144
-0.232636
-0.15159
-0.100083
-0.0680897
-0.0487525
-0.0378676
-7.67634
-8.07717
-7.7904
-6.99019
-5.90203
-4.73598
-3.63962
-2.69718
-1.93875
-1.35761
-0.931609
-0.629077
-0.420073
-0.278831
-0.185666
-0.125252
-0.0876321
-0.0661548
-0.0578184
-7.86222
-8.16715
-7.843
-7.05258
-5.99753
-4.86598
-3.79121
-2.85359
-2.08558
-1.48555
-1.03709
-0.712316
-0.483717
-0.326476
-0.221146
-0.152069
-0.109099
-0.0853141
-0.0771006
-8.04524
-8.27257
-7.92062
-7.14418
-6.12231
-5.02241
-3.96516
-3.02818
-2.24697
-1.62522
-1.15209
-0.803409
-0.553948
-0.379775
-0.261653
-0.183518
-0.134935
-0.108518
-0.100176
-8.24785
-8.40538
-8.02824
-7.26546
-6.27299
-5.1989
-4.15349
-3.2127
-2.41537
-1.77029
-1.27169
-0.898799
-0.628389
-0.437304
-0.3065
-0.219479
-0.165545
-0.136872
-0.129038
-8.49512
-8.56533
-8.16386
-7.41274
-6.44316
-5.3869
-4.34665
-3.39776
-2.5824
-1.91382
-1.39053
-0.994603
-0.704469
-0.497598
-0.355148
-0.260201
-0.201945
-0.172195
-0.166311
-8.72062
-8.72937
-8.31791
-7.57865
-6.62497
-5.57804
-4.5363
-3.57561
-2.74126
-2.0502
-1.50428
-1.08775
-0.78029
-0.559816
-0.407731
-0.306736
-0.246133
-0.2175
-0.216106
-8.94143
-8.93422
-8.5186
-7.78197
-6.83029
-5.77912
-4.72582
-3.74738
-2.89185
-2.17881
-1.61229
-1.17792
-0.856078
-0.62488
-0.466018
-0.361798
-0.301961
-0.277976
-0.28521
-9.21987
-9.18523
-8.75078
-7.99959
-7.03349
-5.96522
-4.89306
-3.89473
-3.01986
-2.28918
-1.70748
-1.26091
-0.930062
-0.693094
-0.532217
-0.42938
-0.375337
-0.361672
-0.384179
-9.55279
-9.47055
-9.00081
-8.21608
-7.21858
-6.12166
-5.02566
-4.00808
-3.11853
-2.37701
-1.78784
-1.33667
-1.00401
-0.767955
-0.611684
-0.5168
-0.475948
-0.481112
-0.52903
-9.91262
-9.7858
-9.26371
-8.42361
-7.37735
-6.2418
-5.11929
-4.08548
-3.18792
-2.44402
-1.85656
-1.40973
-1.08385
-0.856969
-0.713903
-0.635842
-0.618574
-0.654806
-0.742906
-10.3373
-10.1463
-9.53699
-8.61353
-7.50124
-6.31973
-5.17133
-4.12734
-3.23102
-2.49509
-1.92026
-1.48825
-1.17942
-0.971876
-0.853134
-0.803749
-0.824368
-0.908696
-1.05756
-10.8646
-10.5261
-9.7856
-8.75461
-7.56604
-6.33943
-5.17312
-4.13119
-3.25012
-2.53597
-1.9876
-1.58329
-1.30422
-1.12887
-1.04896
-1.044
-1.12178
-1.2771
-1.5142
-11.3359
-10.8236
-9.93641
-8.79352
-7.53592
-6.28053
-5.11624
-4.09741
-3.2517
-2.57718
-2.07225
-1.71105
-1.47703
-1.34962
-1.32675
-1.38633
-1.5462
-1.80217
-2.16303
-11.7872
-11.0937
-10.0355
-8.77512
-7.45753
-6.19003
-5.04562
-4.06736
-3.27315
-2.65248
-2.20555
-1.9016
-1.72815
-1.6661
-1.72187
-1.8707
-2.14368
-2.53701
-3.06536
-12.245
-11.2563
-10.0032
-8.64385
-7.29811
-6.05251
-4.95789
-4.04618
-3.32572
-2.77758
-2.40718
-2.17829
-2.0849
-2.11023
-2.2719
-2.54107
-2.9658
-3.5416
-4.29196
-12.4338
-11.1337
-9.74016
-8.35139
-7.03926
-5.86748
-4.8628
-4.04985
-3.42925
-2.97494
-2.70192
-2.56817
-2.57717
-2.71539
-3.01482
-3.44121
-4.06421
-4.87844
-5.92508
-12.2381
-10.7467
-9.31954
-7.98516
-6.7662
-5.71118
-4.82601
-4.13401
-3.63096
-3.28548
-3.12663
-3.1063
-3.24051
-3.52006
-3.99452
-4.62306
-5.50248
-6.62794
-8.08235
-11.4877
-10.006
-8.69574
-7.51982
-6.46415
-5.57501
-4.84358
-4.29811
-3.93294
-3.7138
-3.68801
-3.80204
-4.08781
-4.54227
-5.23691
-6.12491
-7.33939
-8.88346
-10.9518
-10.0874
-8.90889
-7.88194
-6.96544
-6.13821
-5.45942
-4.91254
-4.53623
-4.32675
-4.24972
-4.37453
-4.6439
-5.10962
-5.77836
-6.75029
-7.97747
-9.64688
-11.7894
-14.9122
-8.08412
-7.48385
-6.87752
-6.30237
-5.75915
-5.32962
-4.99505
-4.80765
-4.7686
-4.84675
-5.1365
-5.58041
-6.25545
-7.18514
-8.51131
-10.1994
-12.5272
-15.5996
-20.8165
-5.69864
-5.79346
-5.67413
-5.48982
-5.27204
-5.12322
-5.02416
-5.04067
-5.18096
-5.42084
-5.88188
-6.51213
-7.4216
-8.66525
-10.4523
-12.7976
-16.1508
-20.7957
-30.7044
-3.2594
-3.9279
-4.26775
-4.48348
-4.61475
-4.76839
-4.92096
-5.14847
-5.46622
-5.86116
-6.48285
-7.29086
-8.44032
-10.0461
-12.4352
-15.7551
-20.811
-28.3145
-49.6319
-1.08563
-1.98617
-2.66896
-3.25602
-3.7421
-4.20982
-4.62022
-5.05517
-5.53119
-6.05252
-6.79445
-7.72702
-9.07372
-11.0816
-14.3619
-19.6388
-29.2783
-47.2218
-111.529
)
;

boundaryField
{
    up
    {
        type            calculated;
        value           nonuniform List<scalar> 
84
(
-101.087
-54.7362
-33.452
-22.4866
-16.0368
-11.7591
-8.67812
-6.36529
-4.61158
-3.29223
-2.31891
-1.61766
-1.12408
-0.784093
-0.55353
-0.398097
-0.29264
-0.21968
-0.167663
-0.129182
-0.0997063
-0.0763074
-0.0562941
-0.0335633
-0.0317865
-0.0408433
-0.0494144
-0.0590079
-0.071457
-0.0895199
-0.117897
-0.164424
-0.254662
-0.651127
-1.1264
-1.42121
-1.60709
-1.83238
-2.05178
-2.2386
-2.37447
-2.45054
-2.45078
-2.37522
-2.23975
-2.05314
-1.83392
-1.60868
-1.42259
-1.12856
-0.655654
-0.255459
-0.164799
-0.118236
-0.0897964
-0.0716362
-0.0591228
-0.0494973
-0.0408993
-0.031804
-0.0335287
-0.0562913
-0.0763009
-0.0997009
-0.129178
-0.16766
-0.219678
-0.292636
-0.398088
-0.553513
-0.784065
-1.12404
-1.61762
-2.31886
-3.2922
-4.61155
-6.36526
-8.67808
-11.759
-16.0367
-22.4865
-33.4519
-54.7361
-101.087
)
;
    }
    low
    {
        type            calculated;
        value           nonuniform List<scalar> 
84
(
-1.16834
-3.41847
-6.03182
-8.62314
-10.8029
-12.301
-13.0483
-13.1662
-12.824
-12.1882
-11.6548
-11.1091
-10.4753
-9.99853
-9.61259
-9.23532
-8.91648
-8.68705
-8.4322
-8.11101
-7.84683
-7.61021
-7.35701
-7.1052
-6.8287
-6.63869
-6.61835
-6.7953
-7.10586
-7.53442
-8.03586
-8.50113
-9.01397
-9.60877
-10.2343
-10.9516
-11.7722
-12.4676
-12.9885
-13.3972
-13.6972
-13.9252
-13.9252
-13.6972
-13.3972
-12.9886
-12.4677
-11.7723
-10.9517
-10.2342
-9.6089
-9.01388
-8.50106
-8.03577
-7.53432
-7.10575
-6.79524
-6.61833
-6.6387
-6.82874
-7.10535
-7.35698
-7.61022
-7.84682
-8.11098
-8.43216
-8.68701
-8.91643
-9.23528
-9.61255
-9.9985
-10.4753
-11.1091
-11.6548
-12.1882
-12.824
-13.1662
-13.0483
-12.301
-10.8029
-8.62317
-6.03185
-3.4185
-1.16835
)
;
    }
    left
    {
        type            calculated;
        value           nonuniform List<scalar> 
19
(
-1.06798
-1.95788
-2.661
-3.27557
-3.79005
-4.28342
-4.71655
-5.17525
-5.67542
-6.23088
-7.02372
-8.02828
-9.49832
-11.7296
-15.4069
-21.4201
-32.5215
-53.4126
-104.81
)
;
    }
    right
    {
        type            calculated;
        value           nonuniform List<scalar> 
19
(
-1.06799
-1.95789
-2.66101
-3.27557
-3.79005
-4.28342
-4.71655
-5.17525
-5.67542
-6.23088
-7.02372
-8.02829
-9.49834
-11.7296
-15.4069
-21.4202
-32.5216
-53.4127
-104.81
)
;
    }
    frontAndBackPlanes
    {
        type            empty;
    }
}


// ************************************************************************* //
