/*--------------------------------*- C++ -*----------------------------------*\
  =========                 |
  \\      /  F ield         | OpenFOAM: The Open Source CFD Toolbox
   \\    /   O peration     | Website:  https://openfoam.org
    \\  /    A nd           | Version:  7
     \\/     M anipulation  |
\*---------------------------------------------------------------------------*/
FoamFile
{
    version     2.0;
    format      ascii;
    class       volScalarField;
    location    "0.18";
    object      gradTx;
}
// * * * * * * * * * * * * * * * * * * * * * * * * * * * * * * * * * * * * * //

dimensions      [0 -1 0 1 0 0 0];

internalField   nonuniform List<scalar> 
1596
(
-0.156533
-0.784868
-1.4017
-1.95063
-2.42523
-2.82222
-3.16011
-3.45105
-3.71251
-3.97738
-4.25639
-4.58931
-5.02151
-5.61633
-6.44653
-7.68925
-9.61436
-12.8029
-18.4563
0.0353154
-0.65072
-1.25789
-1.7771
-2.21859
-2.58362
-2.88918
-3.1415
-3.35398
-3.54443
-3.71671
-3.89334
-4.0844
-4.30372
-4.54765
-4.80629
-5.00567
-4.992
-4.43641
0.193169
-0.525722
-1.11148
-1.59393
-1.996
-2.32446
-2.59413
-2.80923
-2.9789
-3.11315
-3.21241
-3.28925
-3.34351
-3.37634
-3.37759
-3.32769
-3.16845
-2.79577
-2.00215
0.220289
-0.454195
-0.986037
-1.41687
-1.77178
-2.05994
-2.29297
-2.47423
-2.60958
-2.70432
-2.75802
-2.77715
-2.75908
-2.7015
-2.59612
-2.42734
-2.15873
-1.72925
-1.01672
0.0726418
-0.46542
-0.903659
-1.26463
-1.56372
-1.80785
-2.00406
-2.15469
-2.26298
-2.33103
-2.35858
-2.34812
-2.29691
-2.20195
-2.05787
-1.85378
-1.56899
-1.16979
-0.587265
-0.235448
-0.571037
-0.881848
-1.15539
-1.38979
-1.58548
-1.74379
-1.86534
-1.95095
-2.00029
-2.01338
-1.98992
-1.92749
-1.82295
-1.67302
-1.4699
-1.20245
-0.852469
-0.381999
-0.64393
-0.76237
-0.928652
-1.10221
-1.26415
-1.40652
-1.52461
-1.61652
-1.68072
-1.71491
-1.71902
-1.69076
-1.62788
-1.52704
-1.38602
-1.19872
-0.95922
-0.6576
-0.273145
-1.07008
-1.00253
-1.02989
-1.1014
-1.18777
-1.27387
-1.34982
-1.41082
-1.45323
-1.47307
-1.4698
-1.43976
-1.38056
-1.28866
-1.16218
-0.995794
-0.786182
-0.527642
-0.208816
-1.50997
-1.31299
-1.21834
-1.18798
-1.19319
-1.21567
-1.24246
-1.26627
-1.28161
-1.28312
-1.26938
-1.23575
-1.17943
-1.09647
-0.984804
-0.839334
-0.657661
-0.435935
-0.167463
-1.77384
-1.5313
-1.36566
-1.26291
-1.20411
-1.17319
-1.15714
-1.14756
-1.13795
-1.12223
-1.09816
-1.06068
-1.00663
-0.931872
-0.834053
-0.708292
-0.552468
-0.363596
-0.137347
-1.99034
-1.73001
-1.52244
-1.36648
-1.25385
-1.17374
-1.11565
-1.07158
-1.03498
-0.999567
-0.962482
-0.918495
-0.864095
-0.794986
-0.708438
-0.599622
-0.466265
-0.305603
-0.114373
-2.21328
-1.95299
-1.71971
-1.52221
-1.36141
-1.233
-1.13062
-1.04814
-0.979908
-0.92002
-0.865261
-0.810389
-0.751543
-0.684214
-0.605231
-0.509694
-0.394938
-0.258044
-0.0960229
-2.27949
-2.05434
-1.82736
-1.61709
-1.43207
-1.27404
-1.14113
-1.02998
-0.936641
-0.856304
-0.786004
-0.720897
-0.65711
-0.590193
-0.516768
-0.432033
-0.33306
-0.216812
-0.0803557
-2.30275
-2.11533
-1.90681
-1.69729
-1.50001
-1.32181
-1.1651
-1.02969
-0.913817
-0.814172
-0.728452
-0.652432
-0.582407
-0.514079
-0.443947
-0.367327
-0.281065
-0.182001
-0.0671678
-2.30896
-2.15542
-1.96913
-1.76787
-1.56641
-1.37514
-1.20006
-1.04418
-0.908128
-0.790367
-0.689567
-0.602264
-0.525059
-0.453863
-0.385122
-0.314263
-0.23795
-0.152905
-0.0560931
-2.26417
-2.14711
-1.98776
-1.80268
-1.60653
-1.41163
-1.22656
-1.05707
-0.90615
-0.774107
-0.660826
-0.563758
-0.479974
-0.405705
-0.337456
-0.270812
-0.202341
-0.128708
-0.0468306
-2.16477
-2.08286
-1.95338
-1.79061
-1.60813
-1.41879
-1.23267
-1.05754
-0.898423
-0.75738
-0.635597
-0.531545
-0.442904
-0.366333
-0.298515
-0.235251
-0.173112
-0.108782
-0.0391812
-2.04447
-1.98546
-1.88258
-1.7434
-1.57869
-1.40058
-1.21968
-1.04505
-0.88325
-0.737875
-0.611328
-0.503091
-0.411506
-0.333712
-0.26663
-0.206306
-0.14938
-0.0926049
-0.0329657
-1.94391
-1.90315
-1.82045
-1.70012
-1.55036
-1.38223
-1.20648
-1.03304
-0.869688
-0.721273
-0.591225
-0.479896
-0.38618
-0.307606
-0.241274
-0.183396
-0.130642
-0.0798342
-0.0280424
-1.75789
-1.74197
-1.68361
-1.58761
-1.46034
-1.31123
-1.15034
-0.987662
-0.831587
-0.687841
-0.5607
-0.451358
-0.359329
-0.282646
-0.218717
-0.164005
-0.115292
-0.0695449
-0.0240844
-1.54738
-1.55109
-1.51487
-1.4423
-1.3383
-1.21069
-1.06848
-0.921173
-0.777263
-0.642928
-0.522966
-0.419222
-0.331753
-0.259092
-0.19899
-0.148169
-0.103471
-0.0619176
-0.0211326
-1.32403
-1.34017
-1.32219
-1.27104
-1.1899
-1.08494
-0.963917
-0.835457
-0.707726
-0.586937
-0.478048
-0.383319
-0.303207
-0.236717
-0.181996
-0.136079
-0.0958011
-0.0578836
-0.0197173
-1.0725
-1.09441
-1.09119
-1.0606
-1.00359
-0.924241
-0.828688
-0.724205
-0.618159
-0.516362
-0.423537
-0.342131
-0.272844
-0.215163
-0.167779
-0.128287
-0.0936748
-0.060103
-0.0229967
-0.785226
-0.774339
-0.745262
-0.698578
-0.637608
-0.567103
-0.492457
-0.418583
-0.349679
-0.288357
-0.235899
-0.19232
-0.156629
-0.127559
-0.103801
-0.0838279
-0.0656732
-0.0462472
-0.0205477
-0.524772
-0.580747
-0.635996
-0.678618
-0.700957
-0.69931
-0.674393
-0.629895
-0.571879
-0.506712
-0.439909
-0.375954
-0.317188
-0.265313
-0.221163
-0.184907
-0.155343
-0.13005
-0.104043
-0.176538
-0.200316
-0.230109
-0.259453
-0.283515
-0.299015
-0.304903
-0.30149
-0.290774
-0.275157
-0.256406
-0.236406
-0.215404
-0.19402
-0.172968
-0.153853
-0.137492
-0.124788
-0.11528
0.172478
0.143932
0.101932
0.0523535
0.000981114
-0.0472807
-0.0891962
-0.123043
-0.148901
-0.167796
-0.180483
-0.188042
-0.190088
-0.18664
-0.178176
-0.166963
-0.155023
-0.144711
-0.13666
0.519523
0.480578
0.422205
0.350838
0.272993
0.194623
0.120358
0.0531697
-0.00579017
-0.0566618
-0.0995927
-0.134997
-0.161773
-0.178833
-0.18556
-0.184026
-0.177097
-0.168755
-0.161012
0.830918
0.774567
0.696288
0.603474
0.50282
0.400501
0.301467
0.208942
0.124426
0.0479899
-0.0204175
-0.0809762
-0.132065
-0.171255
-0.195882
-0.206501
-0.205768
-0.199278
-0.191048
1.15021
1.07162
0.970429
0.854276
0.730091
0.604264
0.481855
0.366055
0.258374
0.158733
0.066787
-0.0180319
-0.0942852
-0.158702
-0.20617
-0.234257
-0.243374
-0.239824
-0.230388
1.38653
1.28283
1.15995
1.02516
0.885183
0.74569
0.610866
0.483022
0.363043
0.250267
0.143738
0.041999
-0.0545441
-0.14297
-0.216349
-0.268324
-0.293863
-0.296652
-0.285128
1.60336
1.47856
1.33469
1.18192
1.02725
0.875701
0.730556
0.593278
0.46417
0.342042
0.225385
0.111628
-0.000678788
-0.110854
-0.212647
-0.297502
-0.352843
-0.373918
-0.365758
1.79925
1.64675
1.48059
1.31102
1.14423
0.983953
0.832298
0.689763
0.556115
0.429794
0.309067
0.190701
0.0714645
-0.0514192
-0.175719
-0.296259
-0.39654
-0.459898
-0.469962
1.9192
1.72507
1.52571
1.33016
1.14306
0.966657
0.801887
0.648457
0.505684
0.371854
0.245082
0.122072
-0.00129587
-0.130608
-0.269508
-0.421814
-0.579933
-0.72946
-0.843205
1.98638
1.77597
1.5756
1.39061
1.2215
1.06719
0.926036
0.796227
0.67623
0.56448
0.459822
0.360758
0.26545
0.171032
0.0736823
-0.0344557
-0.160496
-0.312406
-0.492398
2.03083
1.81515
1.62256
1.45069
1.29585
1.15501
1.02555
0.905497
0.793522
0.68849
0.58986
0.497292
0.410344
0.328876
0.253083
0.182307
0.115544
0.0496957
-0.0211019
1.90876
1.66329
1.45363
1.27167
1.11151
0.969053
0.841032
0.724991
0.619138
0.521842
0.432111
0.349216
0.272387
0.201328
0.13636
0.0778797
0.0268731
-0.0152859
-0.0480046
1.66517
1.44433
1.25829
1.0987
0.959692
0.837084
0.72765
0.628951
0.539255
0.457062
0.381472
0.311855
0.247536
0.188175
0.133792
0.0842855
0.0397351
0.000463212
-0.0336355
1.37597
1.19243
1.03704
0.903972
0.788562
0.687265
0.597283
0.516462
0.443281
0.376418
0.315074
0.258663
0.206544
0.158333
0.113929
0.0731275
0.0359081
0.00253186
-0.0270588
1.03155
0.89097
0.772986
0.672789
0.58651
0.511198
0.444583
0.384931
0.331035
0.281856
0.236761
0.195283
0.156911
0.121329
0.0884469
0.0581104
0.0303273
0.00534336
-0.0168418
0.647664
0.554034
0.477954
0.414603
0.360701
0.313998
0.272885
0.236182
0.203085
0.172915
0.145256
0.119797
0.0962011
0.0742553
0.0538937
0.035014
0.0176268
0.0019116
-0.0120973
0.248075
0.209983
0.180189
0.155738
0.135026
0.117101
0.101335
0.0872899
0.0746664
0.0632106
0.0527584
0.0431792
0.0343302
0.0261102
0.0184678
0.0113402
0.00470608
-0.00138893
-0.00693823
-0.247956
-0.209715
-0.179818
-0.155298
-0.134543
-0.116594
-0.100822
-0.086783
-0.0741778
-0.06275
-0.0523342
-0.0427983
-0.0339987
-0.0258332
-0.0182494
-0.0111836
-0.00461328
0.00141772
0.00690416
-0.647552
-0.553795
-0.477627
-0.414216
-0.360277
-0.313557
-0.27244
-0.235747
-0.202671
-0.172529
-0.144907
-0.119491
-0.0959442
-0.0740521
-0.0537479
-0.0349284
-0.0176032
-0.00194963
0.0119996
-1.03144
-0.890737
-0.772664
-0.672404
-0.586083
-0.510747
-0.444123
-0.384476
-0.330595
-0.281439
-0.236376
-0.194937
-0.156607
-0.12107
-0.0882355
-0.0579472
-0.0302116
-0.00527274
0.0168706
-1.37588
-1.19227
-1.03682
-0.903699
-0.788261
-0.686949
-0.596964
-0.51615
-0.442985
-0.376147
-0.314833
-0.258458
-0.206378
-0.158208
-0.113847
-0.0730881
-0.0359095
-0.00257142
0.0269844
-1.66511
-1.44421
-1.25813
-1.09851
-0.959467
-0.836844
-0.727406
-0.628711
-0.539029
-0.456857
-0.381293
-0.311708
-0.247424
-0.1881
-0.133753
-0.0842813
-0.0397608
-0.000511764
0.0335735
-1.90875
-1.66325
-1.45355
-1.27156
-1.11138
-0.968911
-0.840889
-0.724858
-0.619022
-0.521752
-0.432052
-0.349194
-0.272406
-0.20139
-0.136466
-0.0780241
-0.0270399
0.0151238
0.0478784
-2.03082
-1.81497
-1.62216
-1.45005
-1.295
-1.15396
-1.02433
-0.90415
-0.792079
-0.686979
-0.588305
-0.495711
-0.408747
-0.327267
-0.251472
-0.180729
-0.114087
-0.0485471
0.0216303
-1.98673
-1.77689
-1.57711
-1.3927
-1.2241
-1.07025
-0.929476
-0.799983
-0.680237
-0.568686
-0.464195
-0.36529
-0.270165
-0.176003
-0.0790256
0.0285653
0.153901
0.305065
0.484547
-1.91905
-1.72466
-1.52502
-1.32919
-1.14184
-0.965231
-0.800295
-0.646741
-0.503887
-0.370014
-0.243232
-0.12024
0.00308265
0.132334
0.271194
0.423551
0.581954
0.73216
0.847098
-1.79937
-1.64703
-1.48101
-1.31155
-1.14485
-0.984634
-0.833021
-0.69051
-0.556872
-0.430553
-0.309824
-0.191456
-0.0722094
0.0507099
0.175109
0.295865
0.3965
0.460292
0.470671
-1.60343
-1.47873
-1.33496
-1.18226
-1.02765
-0.876139
-0.731024
-0.593762
-0.464662
-0.342533
-0.225867
-0.11209
0.000258874
0.110519
0.212463
0.297543
0.353141
0.374425
0.366366
-1.38661
-1.28301
-1.16022
-1.02552
-0.885598
-0.746148
-0.611349
-0.483513
-0.363529
-0.250733
-0.144173
-0.0423838
0.0542355
0.142776
0.216309
0.268461
0.294159
0.297045
0.285541
-1.15028
-1.0718
-0.970711
-0.854645
-0.730526
-0.604743
-0.482354
-0.366553
-0.258852
-0.159175
-0.0671765
0.0177129
0.094059
0.158592
0.206193
0.234406
0.243617
0.240115
0.230692
-0.830983
-0.774738
-0.696561
-0.603832
-0.503242
-0.400962
-0.30194
-0.209405
-0.124858
-0.0483726
0.0200984
0.0807353
0.131917
0.171209
0.195938
0.206643
0.205967
0.199505
0.191286
-0.519595
-0.480761
-0.422494
-0.351215
-0.273433
-0.195096
-0.120834
-0.0536215
0.00538393
0.0563178
0.0993228
0.13481
0.161675
0.178824
0.185629
0.184155
0.177264
0.168943
0.161211
-0.172541
-0.144109
-0.102215
-0.0527229
-0.00140795
0.0468297
0.0887537
0.122637
0.148551
0.167516
0.18028
0.187919
0.190043
0.186665
0.178258
0.167087
0.155174
0.144879
0.136843
0.176387
0.199862
0.229349
0.258424
0.282291
0.297684
0.303557
0.300209
0.289618
0.274164
0.255591
0.235769
0.214933
0.193692
0.172755
0.153728
0.137438
0.124802
0.115391
0.524874
0.581136
0.636729
0.679698
0.702338
0.700916
0.676126
0.63166
0.573589
0.508304
0.441343
0.377214
0.318274
0.266239
0.221952
0.185587
0.155941
0.130587
0.104528
0.78511
0.773934
0.74457
0.697643
0.6365
0.565905
0.49125
0.417433
0.348633
0.287445
0.23513
0.191692
0.15613
0.127173
0.10351
0.0836156
0.0655251
0.0461546
0.0205106
1.07256
1.09454
1.09138
1.06083
1.00384
0.924497
0.828925
0.724409
0.618322
0.516483
0.423619
0.342182
0.272871
0.215175
0.167781
0.128284
0.0936696
0.0600985
0.0229956
1.32404
1.34018
1.32221
1.27105
1.18991
1.08495
0.963922
0.835456
0.707719
0.586925
0.478032
0.383302
0.303189
0.236702
0.181983
0.13607
0.0957947
0.0578805
0.0197171
1.54739
1.5511
1.51488
1.44231
1.33831
1.21069
1.06848
0.921169
0.777255
0.642916
0.522952
0.419208
0.33174
0.259082
0.198982
0.148163
0.103468
0.0619163
0.0211324
1.7579
1.74197
1.68362
1.58762
1.46035
1.31123
1.15034
0.987656
0.831578
0.68783
0.560689
0.451348
0.35932
0.282639
0.218713
0.164003
0.11529
0.0695443
0.0240842
1.94392
1.90316
1.82046
1.70013
1.55037
1.38223
1.20648
1.03303
0.869681
0.721264
0.591217
0.479888
0.386174
0.307601
0.241271
0.183394
0.130641
0.0798337
0.0280422
2.04448
1.98547
1.88259
1.74341
1.5787
1.40058
1.21968
1.04504
0.883244
0.737868
0.611321
0.503085
0.411502
0.333709
0.266628
0.206305
0.149379
0.092604
0.0329653
2.16477
2.08287
1.95338
1.79062
1.60814
1.41879
1.23267
1.05754
0.898418
0.757374
0.635592
0.531541
0.4429
0.36633
0.298512
0.235248
0.17311
0.10878
0.0391807
2.26417
2.14712
1.98777
1.80268
1.60654
1.41163
1.22656
1.05707
0.906146
0.774102
0.660821
0.563754
0.479971
0.405702
0.337453
0.270809
0.202338
0.128706
0.04683
2.30896
2.15542
1.96914
1.76788
1.56641
1.37514
1.20006
1.04417
0.908123
0.790362
0.689562
0.602259
0.525054
0.453857
0.385116
0.314258
0.237945
0.152902
0.0560924
2.30275
2.11534
1.90682
1.69729
1.50001
1.32181
1.1651
1.02969
0.913813
0.814167
0.728447
0.652426
0.582401
0.514072
0.44394
0.36732
0.28106
0.181997
0.0671673
2.2795
2.05435
1.82737
1.6171
1.43208
1.27404
1.14113
1.02997
0.936638
0.8563
0.785998
0.72089
0.657103
0.590185
0.51676
0.432025
0.333054
0.216809
0.0803557
2.21328
1.95298
1.7197
1.5222
1.36141
1.23299
1.13061
1.04814
0.9799
0.920012
0.865252
0.810379
0.751532
0.684203
0.605222
0.509686
0.394933
0.258042
0.0960234
1.99035
1.73002
1.52244
1.36649
1.25385
1.17374
1.11565
1.07158
1.03497
0.99956
0.962473
0.918486
0.864085
0.794976
0.708429
0.599616
0.466262
0.305603
0.114375
1.77386
1.53132
1.36567
1.26292
1.20411
1.17318
1.15714
1.14755
1.13794
1.12222
1.09815
1.06067
1.00662
0.931864
0.834048
0.70829
0.552468
0.363599
0.137349
1.50998
1.313
1.21835
1.18798
1.19318
1.21567
1.24246
1.26627
1.2816
1.28312
1.26937
1.23574
1.17942
1.09647
0.984803
0.839336
0.657665
0.435939
0.167465
1.07009
1.00253
1.0299
1.1014
1.18777
1.27387
1.34981
1.41082
1.45322
1.47307
1.4698
1.43975
1.38056
1.28866
1.16218
0.9958
0.786189
0.527647
0.208817
0.64394
0.762375
0.928656
1.10221
1.26415
1.40652
1.52461
1.61651
1.68071
1.71491
1.71902
1.69076
1.62788
1.52704
1.38603
1.19873
0.959229
0.657605
0.273146
0.235455
0.571043
0.881853
1.15539
1.38979
1.58548
1.74379
1.86534
1.95094
2.00029
2.01338
1.98992
1.9275
1.82296
1.67303
1.46991
1.20246
0.852473
0.381998
-0.0726382
0.465426
0.903666
1.26463
1.56372
1.80785
2.00406
2.15469
2.26297
2.33103
2.35858
2.34812
2.29692
2.20196
2.05788
1.85379
1.56899
1.16979
0.587262
-0.220289
0.454199
0.986042
1.41688
1.77178
2.05994
2.29297
2.47423
2.60958
2.70433
2.75803
2.77716
2.75909
2.7015
2.59613
2.42735
2.15873
1.72924
1.01672
-0.193171
0.525723
1.11148
1.59393
1.99599
2.32446
2.59413
2.80923
2.9789
3.11315
3.21242
3.28926
3.34352
3.37635
3.37759
3.32769
3.16845
2.79576
2.00214
-0.0353154
0.650719
1.25789
1.7771
2.21858
2.58362
2.88918
3.1415
3.35398
3.54443
3.71672
3.89334
4.08441
4.30372
4.54764
4.80628
5.00566
4.99199
4.43641
0.156535
0.784869
1.4017
1.95063
2.42523
2.82222
3.16011
3.45105
3.71251
3.97738
4.25639
4.58931
5.0215
5.61632
6.44652
7.68924
9.61435
12.8029
18.4563
)
;

boundaryField
{
    up
    {
        type            calculated;
        value           nonuniform List<scalar> 
84
(
-18.4563
-4.43641
-2.00215
-1.01672
-0.587265
-0.381999
-0.273145
-0.208816
-0.167463
-0.137347
-0.114373
-0.0960229
-0.0803557
-0.0671678
-0.0560931
-0.0468306
-0.0391812
-0.0329657
-0.0280424
-0.0240844
-0.0211326
-0.0197173
-0.0229967
-0.0205477
-0.0882963
-0.106691
-0.12754
-0.150462
-0.178309
-0.21443
-0.263746
-0.332087
-0.416515
-0.825979
-0.506272
-0.0219156
-0.0477981
-0.0334903
-0.0269766
-0.0168105
-0.0120856
-0.00693739
0.00690333
0.0119881
0.0168396
0.0269029
0.0334291
0.0476726
0.0224311
0.498259
0.830553
0.417158
0.332611
0.264121
0.214713
0.178534
0.150654
0.127719
0.106846
0.0887305
0.0205106
0.0229956
0.0197171
0.0211324
0.0240842
0.0280422
0.0329653
0.0391807
0.04683
0.0560924
0.0671673
0.0803557
0.0960234
0.114375
0.137349
0.167465
0.208817
0.273146
0.381998
0.587262
1.01672
2.00214
4.43641
18.4563
)
;
    }
    low
    {
        type            calculated;
        value           nonuniform List<scalar> 
84
(
-0.140945
0.0590259
0.231327
0.26161
0.0985208
-0.240217
-0.683032
-1.13553
-1.58552
-1.83597
-2.04515
-2.25796
-2.29968
-2.30814
-2.30521
-2.24654
-2.13506
-2.01155
-1.90312
-1.70229
-1.48417
-1.25876
-1.0081
-0.728367
-0.480052
-0.160346
0.154034
0.473836
0.772728
1.09274
1.34039
1.56675
1.77604
1.913
1.99348
2.05347
1.94744
1.70595
1.41202
1.06006
0.666459
0.255912
-0.255793
-0.666344
-1.05994
-1.41192
-1.70587
-1.94741
-2.05343
-1.99377
-1.91285
-1.77613
-1.56681
-1.34046
-1.09282
-0.772796
-0.473912
-0.154099
0.160199
0.480152
0.728259
1.00815
1.25877
1.48418
1.7023
1.90312
2.01156
2.13506
2.24655
2.30521
2.30815
2.29969
2.25795
2.04516
1.83598
1.58553
1.13554
0.683042
0.240224
-0.0985172
-0.261611
-0.23133
-0.0590285
0.140945
)
;
    }
    left
    {
        type            calculated;
        value           nonuniform List<scalar> 
19
(
-0.139237
-0.754409
-1.38438
-1.95282
-2.44824
-2.86398
-3.21979
-3.52982
-3.81141
-4.10531
-4.42213
-4.80608
-5.31576
-6.03495
-7.05449
-8.62264
-11.1137
-15.3395
-16.007
)
;
    }
    right
    {
        type            calculated;
        value           nonuniform List<scalar> 
19
(
0.139239
0.754412
1.38438
1.95282
2.44824
2.86398
3.21979
3.52983
3.81141
4.10532
4.42212
4.80607
5.31575
6.03494
7.05447
8.62263
11.1137
15.3395
16.007
)
;
    }
    frontAndBackPlanes
    {
        type            empty;
    }
}


// ************************************************************************* //
