/*--------------------------------*- C++ -*----------------------------------*\
  =========                 |
  \\      /  F ield         | OpenFOAM: The Open Source CFD Toolbox
   \\    /   O peration     | Website:  https://openfoam.org
    \\  /    A nd           | Version:  7
     \\/     M anipulation  |
\*---------------------------------------------------------------------------*/
FoamFile
{
    version     2.0;
    format      ascii;
    class       volScalarField;
    location    "0.18";
    object      gradTy;
}
// * * * * * * * * * * * * * * * * * * * * * * * * * * * * * * * * * * * * * //

dimensions      [0 -1 0 1 0 0 0];

internalField   nonuniform List<scalar> 
1596
(
-0.325696
-0.603043
-0.826465
-1.03577
-1.22976
-1.4342
-1.6364
-1.86535
-2.13114
-2.44092
-2.87024
-3.41722
-4.18355
-5.28692
-7.01907
-9.736
-14.6075
-23.606
-55.7628
-0.989865
-1.2148
-1.35943
-1.48478
-1.59789
-1.72869
-1.86761
-2.04217
-2.26291
-2.5315
-2.91208
-3.39634
-4.05285
-4.93484
-6.19252
-7.89952
-10.4469
-14.1958
-24.8362
-1.76565
-1.83282
-1.85987
-1.88733
-1.91493
-1.96907
-2.03968
-2.15142
-2.31263
-2.52123
-2.83074
-3.22655
-3.75658
-4.44502
-5.38336
-6.58055
-8.24951
-10.5399
-15.4476
-2.57113
-2.42919
-2.31977
-2.24292
-2.1838
-2.16051
-2.16112
-2.20611
-2.30131
-2.44224
-2.67316
-2.97627
-3.38584
-3.91134
-4.61125
-5.46945
-6.61162
-8.09685
-10.6338
-3.30437
-2.96984
-2.73076
-2.55389
-2.41202
-2.314
-2.24636
-2.22494
-2.25351
-2.32637
-2.47989
-2.6959
-2.99955
-3.39315
-3.91615
-4.54435
-5.3574
-6.37369
-7.85179
-3.87638
-3.42271
-3.08498
-2.82359
-2.60863
-2.44233
-2.31129
-2.22708
-2.19218
-2.20065
-2.28212
-2.41993
-2.63285
-2.92001
-3.30919
-3.77547
-4.37213
-5.09934
-6.0546
-4.24252
-3.76368
-3.37401
-3.05309
-2.7801
-2.5555
-2.36847
-2.22746
-2.13451
-2.08429
-2.10071
-2.1696
-2.30512
-2.50515
-2.78993
-3.13672
-3.58256
-4.11999
-4.78636
-4.40758
-3.97929
-3.58701
-3.23723
-2.92571
-2.65615
-2.42289
-2.23297
-2.08898
-1.9869
-1.94588
-1.95472
-2.02411
-2.15168
-2.35246
-2.60689
-2.94141
-3.34602
-3.83432
-4.41344
-4.08951
-3.73543
-3.38556
-3.05469
-2.75357
-2.48364
-2.25244
-2.06407
-1.91637
-1.82488
-1.78135
-1.79388
-1.86028
-1.99178
-2.17207
-2.42014
-2.72577
-3.09259
-4.29451
-4.08005
-3.78996
-3.46688
-3.13852
-2.82326
-2.53005
-2.26864
-2.04538
-1.86046
-1.72692
-1.63933
-1.60395
-1.61902
-1.69303
-1.8127
-1.99185
-2.22115
-2.50007
-4.15301
-4.01398
-3.78634
-3.5013
-3.18906
-2.87251
-2.56672
-2.28433
-2.03435
-1.81956
-1.65154
-1.52739
-1.45218
-1.42459
-1.45104
-1.52084
-1.64394
-1.81223
-2.02342
-3.98361
-3.92074
-3.75202
-3.50782
-3.21834
-2.90846
-2.59758
-2.30112
-2.03076
-1.79192
-1.5956
-1.44109
-1.33274
-1.26971
-1.25681
-1.28547
-1.36268
-1.48155
-1.63915
-3.77761
-3.78192
-3.66966
-3.46851
-3.20739
-2.91202
-2.60424
-2.30188
-2.01895
-1.76328
-1.54591
-1.36803
-1.23368
-1.14249
-1.09812
-1.09369
-1.13408
-1.21352
-1.32894
-3.59848
-3.63932
-3.56999
-3.40657
-3.17314
-2.89467
-2.59392
-2.29049
-2.00024
-1.73304
-1.50036
-1.30492
-1.15069
-1.03772
-0.968794
-0.93833
-0.9496
-0.997739
-1.0798
-3.43555
-3.50495
-3.46733
-3.33415
-3.12482
-2.86262
-2.5702
-2.26831
-1.97421
-1.6994
-1.45593
-1.2477
-1.07878
-0.949509
-0.862012
-0.811623
-0.800403
-0.824198
-0.880263
-3.27721
-3.37485
-3.36352
-3.25474
-3.06548
-2.81767
-2.53353
-2.23456
-1.93901
-1.65968
-1.40918
-1.19232
-1.01325
-0.872511
-0.771677
-0.70671
-0.67874
-0.684141
-0.720382
-3.13531
-3.25261
-3.26229
-3.17286
-2.99945
-2.76323
-2.48613
-2.19021
-1.89453
-1.61284
-1.35826
-1.13621
-0.950867
-0.80283
-0.693175
-0.61823
-0.578386
-0.570377
-0.591858
-3.01232
-3.14388
-3.16989
-3.09534
-2.93371
-2.70571
-2.43338
-2.13942
-1.84364
-1.5606
-1.30379
-1.07901
-0.89037
-0.738353
-0.623513
-0.542332
-0.49456
-0.477155
-0.487902
-2.8875
-3.04673
-3.09108
-3.02982
-2.87717
-2.65423
-2.38387
-2.08971
-1.79253
-1.50775
-1.24913
-1.02279
-0.832591
-0.678773
-0.561291
-0.476583
-0.423807
-0.400019
-0.403079
-2.75639
-2.94873
-3.01542
-2.9685
-2.82409
-2.60471
-2.33467
-2.03899
-1.73965
-1.45303
-1.19318
-0.966402
-0.776233
-0.622514
-0.504523
-0.418479
-0.362982
-0.335138
-0.332873
-2.64374
-2.8602
-2.94855
-2.91602
-2.77905
-2.56166
-2.29012
-1.99124
-1.68851
-1.39939
-1.13825
-0.911521
-0.722325
-0.56997
-0.452943
-0.367049
-0.310305
-0.279858
-0.273841
-2.54261
-2.78254
-2.89171
-2.87344
-2.74354
-2.5272
-2.25285
-1.94938
-1.64206
-1.34961
-1.08679
-0.860134
-0.67232
-0.522042
-0.406891
-0.322021
-0.264694
-0.232042
-0.222842
-2.44722
-2.71348
-2.84409
-2.84031
-2.71747
-2.50181
-2.22395
-1.91504
-1.6023
-1.30587
-1.0409
-0.814117
-0.627731
-0.47984
-0.367111
-0.283807
-0.225992
-0.190123
-0.176183
-2.36021
-2.65277
-2.80378
-2.81259
-2.69474
-2.47743
-2.19411
-1.87803
-1.55863
-1.25767
-0.990152
-0.763476
-0.579127
-0.434643
-0.325647
-0.245616
-0.188578
-0.148536
-0.120914
-2.28811
-2.60526
-2.78137
-2.81262
-2.71377
-2.51062
-2.2371
-1.9263
-1.6085
-1.30671
-1.03573
-0.804563
-0.614768
-0.464884
-0.350765
-0.266631
-0.20547
-0.160234
-0.122622
-2.23651
-2.56906
-2.76178
-2.81143
-2.73133
-2.54519
-2.28556
-1.98435
-1.67154
-1.37072
-1.09665
-0.859687
-0.662176
-0.503763
-0.381219
-0.290193
-0.224154
-0.177221
-0.142669
-2.23279
-2.56773
-2.76698
-2.82752
-2.76119
-2.59004
-2.34437
-2.05459
-1.74948
-1.45226
-1.17769
-0.936443
-0.731517
-0.563605
-0.430829
-0.330349
-0.256694
-0.204613
-0.16759
-2.28265
-2.60638
-2.7996
-2.86033
-2.79966
-2.6383
-2.40422
-2.12582
-1.83013
-1.53925
-1.26727
-1.02461
-0.814268
-0.637512
-0.493713
-0.381941
-0.298343
-0.238723
-0.196646
-2.37957
-2.68404
-2.861
-2.91274
-2.85065
-2.69429
-2.46938
-2.20201
-1.91699
-1.63489
-1.36858
-1.12777
-0.914745
-0.730589
-0.575312
-0.450068
-0.353359
-0.283051
-0.233131
-2.51973
-2.79293
-2.94474
-2.98059
-2.91192
-2.75712
-2.53976
-2.28338
-2.01039
-1.7396
-1.48236
-1.2475
-1.03604
-0.847887
-0.682355
-0.54206
-0.428338
-0.342859
-0.281299
-2.69979
-2.93117
-3.05273
-3.06856
-2.98992
-2.83413
-2.62279
-2.37689
-2.11641
-1.85844
-1.61283
-1.38781
-1.18304
-0.996553
-0.825002
-0.670318
-0.535432
-0.427787
-0.34803
-2.89055
-3.0862
-3.17755
-3.1719
-3.0818
-2.92384
-2.71785
-2.48226
-2.23474
-1.99073
-1.75886
-1.54739
-1.35542
-1.17946
-1.01206
-0.851029
-0.69552
-0.556773
-0.446098
-3.10519
-3.26213
-3.3206
-3.29133
-3.18813
-3.02681
-2.82533
-2.59959
-2.36487
-2.13508
-1.9177
-1.72173
-1.54715
-1.39123
-1.24382
-1.09776
-0.94038
-0.774178
-0.603149
-3.35363
-3.46602
-3.48902
-3.43526
-3.31915
-3.15538
-2.95968
-2.74539
-2.52533
-2.31165
-2.11103
-1.93292
-1.77955
-1.65211
-1.54374
-1.44927
-1.34959
-1.23509
-1.09348
-3.62592
-3.68865
-3.66808
-3.58141
-3.44366
-3.26862
-3.06945
-2.85736
-2.64282
-2.43542
-2.24127
-2.06809
-1.91921
-1.79817
-1.70465
-1.64123
-1.60036
-1.57623
-1.55685
-3.93072
-3.92761
-3.85392
-3.72779
-3.56282
-3.37123
-3.16359
-2.94945
-2.73745
-2.53499
-2.34801
-2.18199
-2.03992
-1.92409
-1.83534
-1.77498
-1.74233
-1.73818
-1.76266
-4.26502
-4.18339
-4.05432
-3.88945
-3.69846
-3.49079
-3.27477
-3.05831
-2.84859
-2.65163
-2.47276
-2.31605
-2.18364
-2.07645
-1.99404
-1.93432
-1.89397
-1.86889
-1.85447
-4.56617
-4.41281
-4.23347
-4.03316
-3.81797
-3.59473
-3.36991
-3.1498
-2.94029
-2.74625
-2.57198
-2.42066
-2.29359
-2.191
-2.11189
-2.054
-2.01404
-1.98849
-1.97336
-4.80552
-4.6026
-4.38551
-4.15758
-3.92322
-3.68758
-3.45576
-3.23277
-3.02348
-2.83181
-2.66131
-2.51454
-2.39225
-2.2943
-2.21951
-2.16551
-2.12908
-2.10676
-2.09466
-4.99432
-4.75339
-4.50725
-4.258
-4.00886
-3.76366
-3.52645
-3.30122
-3.09207
-2.9022
-2.73465
-2.59148
-2.47312
-2.37915
-2.30827
-2.258
-2.22513
-2.20621
-2.1974
-5.13107
-4.86182
-4.59391
-4.32908
-4.06939
-3.81751
-3.57659
-3.34988
-3.14091
-2.95239
-2.78698
-2.64647
-2.53104
-2.44009
-2.37223
-2.32484
-2.29464
-2.27815
-2.27146
-5.22126
-4.924
-4.64016
-4.36568
-4.10006
-3.84466
-3.60191
-3.37457
-3.16583
-2.97814
-2.81399
-2.675
-2.56125
-2.47209
-2.40609
-2.36064
-2.33247
-2.31811
-2.31363
-5.22129
-4.92405
-4.64021
-4.36575
-4.10012
-3.84473
-3.60198
-3.37465
-3.1659
-2.97822
-2.81407
-2.67509
-2.56135
-2.47219
-2.40619
-2.36074
-2.33259
-2.31823
-2.31375
-5.1311
-4.86191
-4.59403
-4.32924
-4.06956
-3.81769
-3.57679
-3.35009
-3.14113
-2.95262
-2.78722
-2.64672
-2.5313
-2.44037
-2.37252
-2.32516
-2.29499
-2.27853
-2.27187
-4.99438
-4.75354
-4.50744
-4.25824
-4.00913
-3.76396
-3.52676
-3.30155
-3.09242
-2.90257
-2.73503
-2.59189
-2.47355
-2.3796
-2.30875
-2.25851
-2.22567
-2.2068
-2.19803
-4.8056
-4.60278
-4.38576
-4.15788
-3.92357
-3.68796
-3.45617
-3.2332
-3.02393
-2.83228
-2.66181
-2.51506
-2.39279
-2.29487
-2.22011
-2.16614
-2.12975
-2.10747
-2.09541
-4.56625
-4.41302
-4.23376
-4.03351
-3.81838
-3.59517
-3.37039
-3.15031
-2.94084
-2.74682
-2.57257
-2.42129
-2.29424
-2.19167
-2.1126
-2.05473
-2.01481
-1.9893
-1.97421
-4.26512
-4.18361
-4.05464
-3.88984
-3.69891
-3.49129
-3.27531
-3.05889
-2.8492
-2.65228
-2.47343
-2.31675
-2.18436
-2.07719
-1.99479
-1.93508
-1.89474
-1.86967
-1.85525
-3.93083
-3.92787
-3.85431
-3.7283
-3.56344
-3.37194
-3.16439
-2.95033
-2.7384
-2.53601
-2.3491
-2.18316
-2.04116
-1.92541
-1.83674
-1.77641
-1.74371
-1.73936
-1.76343
-3.62599
-3.6887
-3.66815
-3.58153
-3.44384
-3.26885
-3.06973
-2.85768
-2.64315
-2.43576
-2.24158
-2.06834
-1.91936
-1.79819
-1.70454
-1.64102
-1.60027
-1.57663
-1.55832
-3.35366
-3.46618
-3.48932
-3.43574
-3.31982
-3.15624
-2.96072
-2.74659
-2.52668
-2.31312
-2.1126
-1.93456
-1.78128
-1.65398
-1.54585
-1.45178
-1.35274
-1.23907
-1.0984
-3.10519
-3.26216
-3.32071
-3.29156
-3.18851
-3.02733
-2.826
-2.60038
-2.36577
-2.13606
-1.91874
-1.72282
-1.5483
-1.39248
-1.24522
-1.09935
-0.942096
-0.775839
-0.604407
-2.89054
-3.0862
-3.17763
-3.1721
-3.08214
-2.92434
-2.7185
-2.48304
-2.23562
-1.9917
-1.75988
-1.54846
-1.35654
-1.18064
-1.0133
-0.852291
-0.696707
-0.557773
-0.446869
-2.69978
-2.93115
-3.05277
-3.06871
-2.99021
-2.83458
-2.62339
-2.37761
-2.11724
-1.85933
-1.61377
-1.38878
-1.18404
-0.997563
-0.825995
-0.671248
-0.536244
-0.428449
-0.348551
-2.51972
-2.79289
-2.94475
-2.98071
-2.91217
-2.75752
-2.54031
-2.28405
-2.01115
-1.74042
-1.48321
-1.24837
-1.0369
-0.84872
-0.683133
-0.54275
-0.428918
-0.343329
-0.28168
-2.37955
-2.68399
-2.86098
-2.91282
-2.85086
-2.69464
-2.46988
-2.20262
-1.91768
-1.63563
-1.36934
-1.12852
-0.915471
-0.731268
-0.575921
-0.45059
-0.353792
-0.283404
-0.233425
-2.28263
-2.60632
-2.79957
-2.86039
-2.79984
-2.63861
-2.40466
-2.12637
-1.83074
-1.5399
-1.26793
-1.02526
-0.814872
-0.63806
-0.494192
-0.382344
-0.298676
-0.239
-0.196887
-2.23276
-2.56767
-2.76694
-2.82757
-2.76134
-2.59031
-2.34475
-2.05506
-1.75002
-1.45282
-1.17825
-0.936983
-0.732015
-0.564048
-0.43121
-0.330668
-0.256961
-0.204842
-0.167802
-2.23648
-2.569
-2.76173
-2.81144
-2.73142
-2.54536
-2.28582
-1.98469
-1.67192
-1.37112
-1.09705
-0.860067
-0.662521
-0.504065
-0.381473
-0.290404
-0.224331
-0.177384
-0.142852
-2.28815
-2.60528
-2.7814
-2.81267
-2.71387
-2.51075
-2.23728
-1.92652
-1.60874
-1.30697
-1.036
-0.804823
-0.615017
-0.465118
-0.350979
-0.266825
-0.205643
-0.160383
-0.122732
-2.36025
-2.65281
-2.8038
-2.81258
-2.69469
-2.47734
-2.19399
-1.87788
-1.55848
-1.25751
-0.990002
-0.763342
-0.579011
-0.434546
-0.325566
-0.245548
-0.188518
-0.148477
-0.120837
-2.44725
-2.71351
-2.84411
-2.84032
-2.71748
-2.5018
-2.22395
-1.91503
-1.6023
-1.30587
-1.0409
-0.814122
-0.62774
-0.479851
-0.367122
-0.28382
-0.226005
-0.190137
-0.176193
-2.54263
-2.78255
-2.89171
-2.87344
-2.74353
-2.52719
-2.25284
-1.94936
-1.64204
-1.3496
-1.08678
-0.860132
-0.672322
-0.522046
-0.406897
-0.32203
-0.264703
-0.232051
-0.22285
-2.64376
-2.86021
-2.94855
-2.91602
-2.77904
-2.56165
-2.29011
-1.99123
-1.6885
-1.39939
-1.13825
-0.91152
-0.722327
-0.569973
-0.452948
-0.367056
-0.310312
-0.279866
-0.273848
-2.7564
-2.94873
-3.01542
-2.96849
-2.82408
-2.60469
-2.33466
-2.03898
-1.73965
-1.45303
-1.19318
-0.966401
-0.776234
-0.622516
-0.504527
-0.418484
-0.362988
-0.335144
-0.332879
-2.88751
-3.04674
-3.09108
-3.02981
-2.87716
-2.65423
-2.38386
-2.08971
-1.79252
-1.50775
-1.24913
-1.02279
-0.832591
-0.678774
-0.561294
-0.476587
-0.423812
-0.400025
-0.403085
-3.01233
-3.14388
-3.16989
-3.09533
-2.9337
-2.7057
-2.43338
-2.13942
-1.84363
-1.5606
-1.30378
-1.07901
-0.890369
-0.738354
-0.623515
-0.542335
-0.494565
-0.47716
-0.487906
-3.13532
-3.25261
-3.26229
-3.17285
-2.99944
-2.76323
-2.48612
-2.19021
-1.89453
-1.61284
-1.35826
-1.13621
-0.950865
-0.80283
-0.693176
-0.618233
-0.57839
-0.570381
-0.591861
-3.27721
-3.37485
-3.36352
-3.25474
-3.06548
-2.81767
-2.53353
-2.23456
-1.93901
-1.65968
-1.40918
-1.19232
-1.01325
-0.87251
-0.771678
-0.706713
-0.678743
-0.684143
-0.720383
-3.43554
-3.50494
-3.46732
-3.33415
-3.12482
-2.86262
-2.5702
-2.26831
-1.97421
-1.6994
-1.45593
-1.2477
-1.07878
-0.949508
-0.862013
-0.811624
-0.800404
-0.824197
-0.880261
-3.59847
-3.63932
-3.56999
-3.40657
-3.17314
-2.89467
-2.59392
-2.29049
-2.00024
-1.73304
-1.50036
-1.30491
-1.15069
-1.03771
-0.968794
-0.93833
-0.949598
-0.997734
-1.0798
-3.7776
-3.78192
-3.66966
-3.46852
-3.2074
-2.91203
-2.60424
-2.30188
-2.01895
-1.76328
-1.54591
-1.36803
-1.23368
-1.14249
-1.09812
-1.09369
-1.13408
-1.21351
-1.32893
-3.9836
-3.92073
-3.75202
-3.50783
-3.21835
-2.90847
-2.59758
-2.30111
-2.03076
-1.79192
-1.59559
-1.44109
-1.33274
-1.26971
-1.25681
-1.28546
-1.36267
-1.48154
-1.63914
-4.153
-4.01397
-3.78635
-3.50131
-3.18907
-2.87251
-2.56672
-2.28434
-2.03435
-1.81955
-1.65154
-1.52739
-1.45218
-1.42459
-1.45104
-1.52083
-1.64392
-1.81221
-2.02341
-4.2945
-4.08005
-3.78997
-3.46689
-3.13852
-2.82327
-2.53005
-2.26864
-2.04538
-1.86046
-1.72692
-1.63933
-1.60395
-1.61902
-1.69302
-1.81269
-1.99183
-2.22113
-2.50007
-4.41344
-4.08952
-3.73545
-3.38556
-3.0547
-2.75358
-2.48364
-2.25244
-2.06407
-1.91637
-1.82488
-1.78135
-1.79387
-1.86027
-1.99177
-2.17206
-2.42012
-2.72575
-3.09259
-4.40759
-3.9793
-3.58702
-3.23724
-2.92572
-2.65615
-2.42289
-2.23297
-2.08899
-1.9869
-1.94588
-1.95472
-2.02411
-2.15167
-2.35245
-2.60688
-2.9414
-3.34601
-3.83432
-4.24254
-3.76369
-3.37402
-3.05309
-2.78011
-2.55551
-2.36848
-2.22746
-2.13451
-2.0843
-2.10071
-2.1696
-2.30511
-2.50514
-2.78992
-3.1367
-3.58255
-4.11999
-4.78638
-3.8764
-3.42272
-3.08499
-2.8236
-2.60864
-2.44233
-2.31129
-2.22709
-2.19218
-2.20066
-2.28213
-2.41993
-2.63285
-2.92
-3.30918
-3.77546
-4.37213
-5.09934
-6.05462
-3.30438
-2.96985
-2.73077
-2.5539
-2.41202
-2.31401
-2.24637
-2.22495
-2.25352
-2.32638
-2.47989
-2.6959
-2.99954
-3.39315
-3.91614
-4.54435
-5.3574
-6.3737
-7.8518
-2.57115
-2.4292
-2.31978
-2.24293
-2.1838
-2.16052
-2.16112
-2.20612
-2.30132
-2.44225
-2.67316
-2.97627
-3.38584
-3.91133
-4.61124
-5.46944
-6.61162
-8.09686
-10.6338
-1.76566
-1.83282
-1.85988
-1.88734
-1.91494
-1.96908
-2.03969
-2.15143
-2.31263
-2.52124
-2.83074
-3.22655
-3.75657
-4.44501
-5.38335
-6.58055
-8.24951
-10.5399
-15.4476
-0.98987
-1.21479
-1.35943
-1.48478
-1.59789
-1.72869
-1.86761
-2.04217
-2.26292
-2.5315
-2.91208
-3.39634
-4.05284
-4.93483
-6.19251
-7.89952
-10.4469
-14.1958
-24.8362
-0.325699
-0.603043
-0.826464
-1.03577
-1.22976
-1.4342
-1.6364
-1.86535
-2.13114
-2.44093
-2.87024
-3.41722
-4.18355
-5.28691
-7.01906
-9.736
-14.6075
-23.606
-55.7628
)
;

boundaryField
{
    up
    {
        type            calculated;
        value           nonuniform List<scalar> 
84
(
-50.5333
-27.3689
-16.7868
-11.4234
-8.36619
-6.41626
-5.05417
-4.03897
-3.25093
-2.62338
-2.11868
-1.7118
-1.38372
-1.12035
-0.909682
-0.741288
-0.606365
-0.49767
-0.409375
-0.336702
-0.275921
-0.223459
-0.173614
-0.107944
-0.104055
-0.132875
-0.15719
-0.184616
-0.218604
-0.263102
-0.323648
-0.407702
-0.542203
-1.07383
-1.59258
-1.7856
-1.84819
-1.96758
-2.09049
-2.1949
-2.27005
-2.31343
-2.31355
-2.27048
-2.19555
-2.09126
-1.96845
-1.84897
-1.78601
-1.59417
-1.07953
-0.543385
-0.408377
-0.324124
-0.263459
-0.218884
-0.184848
-0.157399
-0.133107
-0.10419
-0.107857
-0.173621
-0.223466
-0.275927
-0.336708
-0.409379
-0.497674
-0.606367
-0.741288
-0.909679
-1.12035
-1.38372
-1.71179
-2.11868
-2.62338
-3.25094
-4.03899
-5.05419
-6.41628
-8.36621
-11.4234
-16.7868
-27.3688
-50.5333
)
;
    }
    low
    {
        type            calculated;
        value           nonuniform List<scalar> 
84
(
-0.349715
-1.03512
-1.86346
-2.735
-3.52988
-4.14233
-4.5168
-4.66251
-4.61766
-4.43436
-4.25975
-4.05867
-3.8091
-3.60647
-3.43024
-3.25289
-3.0941
-2.966
-2.83011
-2.67392
-2.54148
-2.42457
-2.31011
-2.20525
-2.10265
-2.03748
-2.03622
-2.10749
-2.23233
-2.4075
-2.61867
-2.83017
-3.06831
-3.34364
-3.63792
-3.97159
-4.34551
-4.6712
-4.92464
-5.12516
-5.27135
-5.37538
-5.3754
-5.27137
-5.12519
-4.92467
-4.67124
-4.34556
-3.97166
-3.6379
-3.34368
-3.06828
-2.83015
-2.61865
-2.40748
-2.23231
-2.10748
-2.03622
-2.03749
-2.10267
-2.20532
-2.31012
-2.42459
-2.54149
-2.67393
-2.83012
-2.96601
-3.09411
-3.2529
-3.43024
-3.60647
-3.80909
-4.05865
-4.25973
-4.43435
-4.61764
-4.66251
-4.51681
-4.14235
-3.52991
-2.73502
-1.86347
-1.03513
-0.349719
)
;
    }
    left
    {
        type            calculated;
        value           nonuniform List<scalar> 
19
(
-0.319584
-0.592034
-0.820065
-1.03661
-1.23906
-1.45215
-1.66353
-1.90358
-2.18266
-2.51223
-2.97127
-3.56116
-4.39736
-5.62069
-7.55834
-10.6469
-16.2478
-26.7143
-52.411
)
;
    }
    right
    {
        type            calculated;
        value           nonuniform List<scalar> 
19
(
-0.319587
-0.592036
-0.820065
-1.03661
-1.23906
-1.45215
-1.66353
-1.90358
-2.18267
-2.51223
-2.97126
-3.56116
-4.39735
-5.62068
-7.55832
-10.6469
-16.2478
-26.7143
-52.411
)
;
    }
    frontAndBackPlanes
    {
        type            empty;
    }
}


// ************************************************************************* //
