/*--------------------------------*- C++ -*----------------------------------*\
  =========                 |
  \\      /  F ield         | OpenFOAM: The Open Source CFD Toolbox
   \\    /   O peration     | Website:  https://openfoam.org
    \\  /    A nd           | Version:  7
     \\/     M anipulation  |
\*---------------------------------------------------------------------------*/
FoamFile
{
    version     2.0;
    format      ascii;
    class       volScalarField;
    location    "0.28";
    object      gradTx;
}
// * * * * * * * * * * * * * * * * * * * * * * * * * * * * * * * * * * * * * //

dimensions      [0 -1 0 1 0 0 0];

internalField   nonuniform List<scalar> 
1596
(
-0.03968
-0.199344
-0.357902
-0.502543
-0.632912
-0.749068
-0.856342
-0.958131
-1.05892
-1.16742
-1.28584
-1.42463
-1.59636
-1.81979
-2.11744
-2.5471
-3.1986
-4.26634
-6.15227
0.00868187
-0.166082
-0.322
-0.458022
-0.57777
-0.682218
-0.776143
-0.861214
-0.940756
-1.0192
-1.09677
-1.17894
-1.2674
-1.36485
-1.46844
-1.57332
-1.65392
-1.6586
-1.47813
0.0482919
-0.136151
-0.287072
-0.413222
-0.521284
-0.61348
-0.693907
-0.763643
-0.824881
-0.879945
-0.928242
-0.972542
-1.0117
-1.04469
-1.06675
-1.06988
-1.03347
-0.921807
-0.66534
0.0545129
-0.120682
-0.258944
-0.372041
-0.467105
-0.546881
-0.614572
-0.671029
-0.717631
-0.755528
-0.784096
-0.804597
-0.815493
-0.815077
-0.799548
-0.762462
-0.69047
-0.56197
-0.335346
0.015755
-0.126839
-0.242706
-0.338642
-0.419192
-0.486447
-0.542382
-0.587621
-0.622913
-0.648668
-0.664529
-0.670867
-0.66646
-0.649785
-0.618363
-0.567671
-0.489775
-0.372188
-0.190838
-0.0648582
-0.157242
-0.242066
-0.316721
-0.381099
-0.435523
-0.480436
-0.51603
-0.542481
-0.559655
-0.56745
-0.565666
-0.55347
-0.529657
-0.492777
-0.439725
-0.366008
-0.264492
-0.121425
-0.172259
-0.209411
-0.258396
-0.30865
-0.355298
-0.396327
-0.430509
-0.457365
-0.476485
-0.487275
-0.489742
-0.483302
-0.467391
-0.441054
-0.403499
-0.352557
-0.285778
-0.199078
-0.0846111
-0.28496
-0.273655
-0.287568
-0.312694
-0.340992
-0.368326
-0.391959
-0.410604
-0.423267
-0.42894
-0.427584
-0.418346
-0.400797
-0.374139
-0.337956
-0.29068
-0.231029
-0.156663
-0.0631089
-0.401704
-0.35577
-0.338328
-0.3381
-0.346692
-0.358811
-0.370682
-0.380232
-0.385914
-0.386333
-0.381246
-0.369594
-0.350946
-0.324555
-0.290161
-0.246557
-0.193078
-0.128347
-0.0497617
-0.471741
-0.412799
-0.376673
-0.358172
-0.351136
-0.350548
-0.352396
-0.354143
-0.353878
-0.349948
-0.341886
-0.328528
-0.309396
-0.283789
-0.251515
-0.211629
-0.163813
-0.107278
-0.040506
-0.52858
-0.463956
-0.416512
-0.384462
-0.364269
-0.352049
-0.344215
-0.33815
-0.331789
-0.323336
-0.312114
-0.296893
-0.277117
-0.252085
-0.221596
-0.184859
-0.141714
-0.0917028
-0.0339503
-0.586164
-0.520829
-0.466306
-0.423623
-0.391637
-0.367972
-0.34993
-0.335185
-0.321753
-0.307823
-0.292562
-0.274692
-0.253561
-0.228425
-0.199018
-0.164612
-0.125081
-0.0801215
-0.0291946
-0.601008
-0.544371
-0.491069
-0.444996
-0.407117
-0.376568
-0.351693
-0.330716
-0.311959
-0.293769
-0.275294
-0.255308
-0.233121
-0.207995
-0.179626
-0.14735
-0.111048
-0.0705071
-0.0253727
-0.603602
-0.55654
-0.507753
-0.461804
-0.421044
-0.385936
-0.35586
-0.329725
-0.30629
-0.284178
-0.262618
-0.240487
-0.217098
-0.191733
-0.164054
-0.133439
-0.0997486
-0.0628074
-0.0223632
-0.600995
-0.562651
-0.519493
-0.475679
-0.434109
-0.396193
-0.362218
-0.331807
-0.304232
-0.278468
-0.253911
-0.22958
-0.20483
-0.178973
-0.151648
-0.12226
-0.0906385
-0.0566099
-0.0199618
-0.584617
-0.555615
-0.519296
-0.479637
-0.439644
-0.401259
-0.365432
-0.332413
-0.301987
-0.273514
-0.246623
-0.22052
-0.194638
-0.168349
-0.141298
-0.112922
-0.0830325
-0.0514532
-0.0179815
-0.554123
-0.533945
-0.505092
-0.471054
-0.434657
-0.398035
-0.362522
-0.328832
-0.297188
-0.267322
-0.239114
-0.211984
-0.185478
-0.159052
-0.132376
-0.104941
-0.0765645
-0.0470872
-0.0163206
-0.518738
-0.504158
-0.481836
-0.453631
-0.421748
-0.388196
-0.354458
-0.321536
-0.289982
-0.259846
-0.231245
-0.203806
-0.177198
-0.150963
-0.124806
-0.0982643
-0.0711841
-0.043455
-0.0149387
-0.489039
-0.479009
-0.461732
-0.438291
-0.410286
-0.379496
-0.347455
-0.315363
-0.284041
-0.253812
-0.224999
-0.197417
-0.170834
-0.144855
-0.119179
-0.0933508
-0.0672175
-0.040734
-0.01387
-0.438581
-0.434459
-0.422932
-0.405283
-0.382735
-0.356726
-0.328642
-0.29969
-0.270811
-0.242497
-0.215221
-0.188961
-0.163588
-0.138779
-0.11423
-0.0894646
-0.0642948
-0.0387517
-0.0130437
-0.383254
-0.383805
-0.377461
-0.365287
-0.348231
-0.327426
-0.304045
-0.279207
-0.253863
-0.228585
-0.203919
-0.179955
-0.156645
-0.133726
-0.110878
-0.0875392
-0.0633469
-0.038241
-0.0127101
-0.325966
-0.329581
-0.327569
-0.320399
-0.308672
-0.293216
-0.274981
-0.254939
-0.233985
-0.212692
-0.191603
-0.170855
-0.150447
-0.130176
-0.109731
-0.0884454
-0.0656086
-0.0406067
-0.013601
-0.262855
-0.268053
-0.269586
-0.267181
-0.260967
-0.2514
-0.239157
-0.224999
-0.209696
-0.193739
-0.177563
-0.161288
-0.144893
-0.128252
-0.111149
-0.0929646
-0.0726801
-0.0486996
-0.0189632
-0.191977
-0.189408
-0.184
-0.175862
-0.165641
-0.154203
-0.142538
-0.131459
-0.121582
-0.113106
-0.105839
-0.0993027
-0.0928696
-0.0859729
-0.0781607
-0.0689191
-0.0574021
-0.041811
-0.0187466
-0.128428
-0.143412
-0.160585
-0.177588
-0.192728
-0.204795
-0.21326
-0.217994
-0.219275
-0.21748
-0.212823
-0.205576
-0.195846
-0.184076
-0.17083
-0.156659
-0.141455
-0.124126
-0.101521
-0.0436573
-0.0511935
-0.0612847
-0.072533
-0.0839139
-0.0946897
-0.104586
-0.113491
-0.121534
-0.128768
-0.134788
-0.139197
-0.141159
-0.140293
-0.136665
-0.131183
-0.124635
-0.117981
-0.11144
0.0413039
0.0317139
0.0182454
0.00225139
-0.0150292
-0.0326169
-0.049953
-0.066755
-0.0830137
-0.0987227
-0.113403
-0.126402
-0.136477
-0.142669
-0.144569
-0.143033
-0.139187
-0.134502
-0.129637
0.126339
0.113317
0.0952922
0.0738478
0.050416
0.0261608
0.00182658
-0.0222292
-0.0459725
-0.06946
-0.0923217
-0.113814
-0.132385
-0.146382
-0.154589
-0.157393
-0.156074
-0.152661
-0.148354
0.203637
0.18544
0.161795
0.134621
0.105449
0.0755059
0.0455538
0.0158838
-0.013589
-0.0431327
-0.0726701
-0.101639
-0.128421
-0.150738
-0.166253
-0.174302
-0.175812
-0.173361
-0.169019
0.284452
0.260058
0.230206
0.196939
0.161871
0.126294
0.0909592
0.0560798
0.0214367
-0.0134861
-0.0490004
-0.0850001
-0.120197
-0.152055
-0.177059
-0.192836
-0.198941
-0.197986
-0.193263
0.346429
0.31483
0.278664
0.239988
0.200426
0.161159
0.122751
0.0851966
0.0480672
0.0105577
-0.0280788
-0.0684082
-0.109956
-0.150687
-0.186467
-0.212978
-0.226916
-0.229214
-0.22374
0.405504
0.367623
0.325311
0.281422
0.237697
0.195181
0.15424
0.114689
0.0759602
0.0370742
-0.00301834
-0.0455462
-0.0911706
-0.139295
-0.186567
-0.227844
-0.25617
-0.267914
-0.264814
0.461441
0.41543
0.366516
0.31764
0.270341
0.225358
0.182794
0.142278
0.103175
0.0644743
0.0250751
-0.0165795
-0.0621052
-0.112824
-0.167839
-0.224207
-0.273634
-0.306633
-0.313623
0.499678
0.441328
0.382332
0.325278
0.271239
0.220528
0.172933
0.127926
0.0848412
0.0427483
0.000663109
-0.0428774
-0.0897629
-0.142594
-0.203453
-0.274327
-0.35225
-0.430141
-0.494327
0.525628
0.461425
0.401167
0.3465
0.297435
0.253499
0.213916
0.177906
0.144737
0.113707
0.0842919
0.055852
0.0276593
-0.00148822
-0.033442
-0.0719556
-0.121081
-0.185583
-0.267916
0.546688
0.47985
0.421256
0.37028
0.32567
0.286323
0.251138
0.219264
0.190019
0.162825
0.13739
0.113492
0.0910418
0.0700939
0.0508754
0.0333187
0.0171137
0.000793832
-0.0185118
0.522208
0.44571
0.381376
0.326668
0.279531
0.238468
0.202192
0.169747
0.140404
0.113544
0.088854
0.0661026
0.045173
0.026119
0.00923448
-0.00516094
-0.0165226
-0.0242884
-0.0281869
0.462316
0.391743
0.333521
0.284779
0.243364
0.207715
0.176566
0.148986
0.124292
0.101934
0.0816201
0.0631404
0.0463518
0.0312094
0.0177688
0.0060163
-0.00403414
-0.0123853
-0.0191502
0.387033
0.327076
0.277693
0.236588
0.20192
0.172294
0.146598
0.124003
0.103913
0.0858451
0.069524
0.0547424
0.041323
0.0291571
0.0182071
0.00838798
-0.000345908
-0.00799835
-0.0146419
0.293215
0.2466
0.208669
0.17744
0.15135
0.129224
0.110162
0.0934931
0.0787428
0.0655289
0.0536213
0.0428458
0.0330421
0.0241045
0.0159867
0.00861938
0.0019751
-0.00392271
-0.0091036
0.185479
0.154339
0.129762
0.109914
0.0935387
0.079765
0.0679667
0.0576911
0.0486253
0.0405188
0.0332163
0.0266006
0.0205601
0.0150198
0.00994354
0.00528611
0.00103267
-0.00278906
-0.00618148
0.0714475
0.0590023
0.0495126
0.0419482
0.035725
0.0304817
0.0259769
0.0220409
0.0185581
0.0154362
0.0126156
0.0100503
0.00769569
0.00551955
0.00350279
0.0016235
-0.000129642
-0.00175014
-0.00323874
-0.0714132
-0.0589276
-0.049412
-0.0418316
-0.0355994
-0.0303526
-0.0258482
-0.0219159
-0.0184395
-0.0153261
-0.0125158
-0.00996241
-0.00762101
-0.00545919
-0.0034576
-0.00159416
0.000142696
0.0017469
0.00321946
-0.185447
-0.154274
-0.129675
-0.109814
-0.0934318
-0.0796562
-0.0678598
-0.0575892
-0.0485309
-0.0404339
-0.0331427
-0.0265395
-0.0205129
-0.0149874
-0.0099266
-0.0052851
-0.00104779
0.0027581
0.00613532
-0.293185
-0.246538
-0.208586
-0.177342
-0.151242
-0.129112
-0.11005
-0.0933829
-0.0786376
-0.0654308
-0.0535321
-0.0427667
-0.032974
-0.0240479
-0.0159416
-0.00858549
-0.00195172
0.00393662
0.00910924
-0.387012
-0.327036
-0.277639
-0.236524
-0.201851
-0.172223
-0.146529
-0.123938
-0.103854
-0.0857951
-0.069484
-0.0547135
-0.0413058
-0.0291518
-0.0182133
-0.00840472
0.000319855
0.00796446
0.0146017
-0.462304
-0.39172
-0.333488
-0.284738
-0.243318
-0.207667
-0.176518
-0.148941
-0.124253
-0.101903
-0.0815983
-0.0631295
-0.0463526
-0.0312219
-0.0177922
-0.00604868
0.00399574
0.0123447
0.019112
-0.522211
-0.445709
-0.381368
-0.326654
-0.279512
-0.238448
-0.202172
-0.169732
-0.140396
-0.113546
-0.0888696
-0.0661338
-0.0452221
-0.0261877
-0.00932225
0.00505746
0.0164125
0.0241868
0.0281114
-0.546691
-0.479812
-0.421159
-0.370118
-0.32544
-0.286027
-0.25078
-0.21885
-0.189553
-0.162313
-0.136835
-0.112899
-0.0904118
-0.069429
-0.050181
-0.0326133
-0.016443
-0.000255287
0.018757
-0.525728
-0.461689
-0.401602
-0.347105
-0.298205
-0.254426
-0.214992
-0.179125
-0.146093
-0.115197
-0.0859194
-0.0576273
-0.0296057
-0.000673306
0.0309973
0.0691292
0.117775
0.181749
0.263639
-0.499643
-0.441226
-0.382151
-0.325014
-0.270892
-0.220101
-0.172434
-0.127363
-0.0842229
-0.0420848
3.45019e-05
0.0435962
0.090488
0.143312
0.204167
0.275076
0.353144
0.431371
0.49615
-0.461476
-0.415513
-0.366639
-0.317795
-0.27052
-0.225557
-0.183009
-0.142505
-0.103414
-0.0647258
-0.0253423
0.016293
0.0617987
0.112508
0.167545
0.223997
0.273582
0.306785
0.313919
-0.405526
-0.367676
-0.325388
-0.281519
-0.237809
-0.195304
-0.154372
-0.114828
-0.0761074
-0.0372301
0.00285292
0.0453731
0.0909987
0.139146
0.186476
0.227853
0.256299
0.268144
0.265098
-0.346452
-0.314882
-0.278741
-0.240086
-0.20054
-0.161284
-0.122884
-0.0853359
-0.0482109
-0.0107042
0.0279322
0.0682683
0.109836
0.15061
0.186456
0.213049
0.227061
0.229405
0.223946
-0.284473
-0.260108
-0.230282
-0.197037
-0.161987
-0.126422
-0.0910948
-0.0562194
-0.0215771
0.0133487
0.0488714
0.0848886
0.120116
0.152022
0.177084
0.192921
0.19907
0.198139
0.193427
-0.203655
-0.185485
-0.161866
-0.134714
-0.105558
-0.0756263
-0.0456805
-0.0160121
0.0134635
0.0430151
0.0725668
0.101559
0.128376
0.150736
0.166298
0.174388
0.175926
0.173491
0.169158
-0.126358
-0.113364
-0.0953653
-0.0739431
-0.0505281
-0.0262838
-0.00195443
0.0221023
0.045852
0.0693521
0.0922331
0.113752
0.132358
0.146394
0.154639
0.157474
0.156176
0.152778
0.148482
-0.04132
-0.0317576
-0.0183151
-0.0023432
0.0149211
0.0324991
0.0498322
0.0666377
0.0829061
0.098631
0.113334
0.12636
0.136468
0.142693
0.144624
0.143112
0.139286
0.134616
0.129766
0.0436204
0.0510814
0.0610924
0.0722632
0.0835764
0.0942995
0.104161
0.113051
0.121098
0.128352
0.134408
0.138864
0.14088
0.140069
0.136493
0.131059
0.12456
0.117966
0.111518
0.128454
0.143513
0.16078
0.177888
0.193134
0.205297
0.213844
0.218638
0.219958
0.218181
0.213523
0.20626
0.196504
0.184701
0.17142
0.157217
0.141983
0.124626
0.101989
0.191951
0.18931
0.183828
0.17562
0.165341
0.15386
0.14217
0.131085
0.121216
0.11276
0.105523
0.0990219
0.0926266
0.0857679
0.0779918
0.068784
0.057299
0.0417404
0.0187154
0.262871
0.268086
0.269637
0.267247
0.261044
0.251483
0.23924
0.225078
0.209767
0.1938
0.177612
0.161326
0.144921
0.128271
0.11116
0.0929693
0.0726798
0.0486963
0.0189608
0.325971
0.329586
0.327576
0.320408
0.308682
0.293226
0.27499
0.254947
0.233992
0.212697
0.191605
0.170856
0.150446
0.130174
0.109727
0.0884411
0.0656043
0.0406035
0.0136001
0.383258
0.38381
0.377467
0.365294
0.348239
0.327433
0.304052
0.279212
0.253867
0.228587
0.203919
0.179954
0.156643
0.133723
0.110875
0.0875359
0.0633441
0.0382392
0.0127096
0.438584
0.434463
0.422937
0.405288
0.38274
0.356731
0.328647
0.299693
0.270813
0.242498
0.21522
0.188959
0.163586
0.138776
0.114227
0.089462
0.0642929
0.0387505
0.0130433
0.489042
0.479013
0.461737
0.438296
0.410291
0.379501
0.347459
0.315365
0.284042
0.253812
0.224998
0.197415
0.170832
0.144852
0.119176
0.0933488
0.067216
0.0407331
0.0138698
0.518741
0.504161
0.48184
0.453635
0.421752
0.388199
0.35446
0.321537
0.289982
0.259845
0.231243
0.203804
0.177195
0.150961
0.124804
0.0982626
0.0711828
0.0434543
0.0149385
0.554125
0.533947
0.505095
0.471056
0.434659
0.398036
0.362523
0.328832
0.297187
0.26732
0.239112
0.211982
0.185475
0.159049
0.132374
0.104939
0.0765634
0.0470866
0.0163204
0.584619
0.555617
0.519299
0.47964
0.439646
0.40126
0.365433
0.332413
0.301986
0.273513
0.246621
0.220518
0.194636
0.168347
0.141296
0.11292
0.0830316
0.0514527
0.0179814
0.600996
0.562652
0.519495
0.475681
0.43411
0.396193
0.362217
0.331806
0.304231
0.278466
0.253909
0.229578
0.204828
0.178971
0.151646
0.122258
0.0906377
0.0566095
0.0199617
0.603604
0.556542
0.507755
0.461806
0.421045
0.385936
0.355859
0.329723
0.306289
0.284176
0.262616
0.240485
0.217096
0.191732
0.164053
0.133438
0.099748
0.0628072
0.0223633
0.60101
0.544373
0.491071
0.444998
0.407118
0.376568
0.351693
0.330715
0.311958
0.293768
0.275292
0.255306
0.233119
0.207994
0.179626
0.14735
0.111048
0.0705072
0.0253729
0.586163
0.520828
0.466305
0.423622
0.391635
0.36797
0.349928
0.335183
0.321751
0.307821
0.29256
0.27469
0.253559
0.228424
0.199017
0.164611
0.125081
0.0801217
0.0291948
0.528583
0.463959
0.416514
0.384463
0.364269
0.352049
0.344215
0.33815
0.331788
0.323335
0.312114
0.296892
0.277116
0.252085
0.221596
0.184859
0.141714
0.0917033
0.0339506
0.471746
0.412802
0.376675
0.358173
0.351136
0.350548
0.352396
0.354143
0.353878
0.349948
0.341886
0.328527
0.309396
0.283789
0.251515
0.21163
0.163814
0.107278
0.0405063
0.401708
0.355773
0.33833
0.338101
0.346692
0.35881
0.370681
0.380232
0.385913
0.386333
0.381246
0.369595
0.350946
0.324556
0.290162
0.246559
0.193079
0.128348
0.0497619
0.284964
0.273657
0.287569
0.312694
0.340992
0.368325
0.391958
0.410604
0.423266
0.42894
0.427584
0.418346
0.400798
0.37414
0.337957
0.290681
0.23103
0.156664
0.063109
0.172262
0.209412
0.258397
0.308651
0.355298
0.396327
0.430509
0.457365
0.476485
0.487275
0.489743
0.483302
0.467392
0.441055
0.4035
0.352558
0.285778
0.199079
0.084611
0.0648601
0.157244
0.242067
0.316722
0.381099
0.435523
0.480436
0.51603
0.542482
0.559656
0.56745
0.565666
0.553471
0.529658
0.492778
0.439726
0.366008
0.264492
0.121425
-0.0157539
0.12684
0.242707
0.338643
0.419193
0.486447
0.542382
0.587621
0.622913
0.648669
0.66453
0.670868
0.666461
0.649785
0.618364
0.567672
0.489774
0.372188
0.190838
-0.0545127
0.120683
0.258945
0.372041
0.467105
0.546882
0.614572
0.671029
0.717632
0.755528
0.784096
0.804597
0.815493
0.815077
0.799548
0.762461
0.69047
0.561969
0.335346
-0.0482922
0.136151
0.287072
0.413222
0.521284
0.61348
0.693907
0.763643
0.824881
0.879945
0.928242
0.972542
1.0117
1.04469
1.06675
1.06988
1.03346
0.921806
0.66534
-0.00868196
0.166082
0.322
0.458022
0.57777
0.682218
0.776143
0.861215
0.940756
1.0192
1.09677
1.17894
1.2674
1.36485
1.46844
1.57332
1.65392
1.6586
1.47813
0.0396802
0.199344
0.357902
0.502543
0.632912
0.749068
0.856342
0.958131
1.05892
1.16742
1.28584
1.42463
1.59636
1.81979
2.11744
2.5471
3.19859
4.26634
6.15227
)
;

boundaryField
{
    up
    {
        type            calculated;
        value           nonuniform List<scalar> 
84
(
-6.15227
-1.47813
-0.66534
-0.335346
-0.190838
-0.121425
-0.0846111
-0.0631089
-0.0497617
-0.040506
-0.0339503
-0.0291946
-0.0253727
-0.0223632
-0.0199618
-0.0179815
-0.0163206
-0.0149387
-0.01387
-0.0130437
-0.0127101
-0.013601
-0.0189632
-0.0187466
-0.087179
-0.10481
-0.123296
-0.14165
-0.161582
-0.184661
-0.212968
-0.24853
-0.288518
-0.49207
-0.278044
-0.0190796
-0.0281805
-0.0191307
-0.0146298
-0.00910016
-0.00618095
-0.00324005
0.00322076
0.00613483
0.00910586
0.0145897
0.0190926
0.0281049
0.0193176
0.273631
0.494244
0.288779
0.248777
0.213161
0.184819
0.161719
0.141778
0.123427
0.104931
0.0876066
0.0187154
0.0189608
0.0136001
0.0127096
0.0130433
0.0138698
0.0149385
0.0163204
0.0179814
0.0199617
0.0223633
0.0253729
0.0291948
0.0339506
0.0405063
0.0497619
0.063109
0.084611
0.121425
0.190838
0.335346
0.66534
1.47813
6.15227
)
;
    }
    low
    {
        type            calculated;
        value           nonuniform List<scalar> 
84
(
-0.0358028
0.0144816
0.0577235
0.0648393
0.0222909
-0.066075
-0.182333
-0.301958
-0.42138
-0.487801
-0.542456
-0.596923
-0.60481
-0.603019
-0.597581
-0.577295
-0.54357
-0.507391
-0.47581
-0.421969
-0.3652
-0.307905
-0.245524
-0.176981
-0.116856
-0.0395056
0.036572
0.114487
0.188218
0.268672
0.333027
0.394144
0.453277
0.49591
0.525484
0.550951
0.531312
0.472568
0.396466
0.300898
0.190648
0.0736302
-0.0735956
-0.190615
-0.300865
-0.396441
-0.472551
-0.531308
-0.550947
-0.525569
-0.495875
-0.453305
-0.394163
-0.333048
-0.268693
-0.188237
-0.114507
-0.0365885
0.0394696
0.116882
0.176956
0.245539
0.307909
0.365204
0.421971
0.475813
0.507394
0.543571
0.577297
0.597582
0.60302
0.604812
0.596922
0.542458
0.487806
0.421384
0.301962
0.182337
0.0660771
-0.0222898
-0.0648394
-0.0577242
-0.0144821
0.0358029
)
;
    }
    left
    {
        type            calculated;
        value           nonuniform List<scalar> 
19
(
-0.0351658
-0.191215
-0.352876
-0.502396
-0.638278
-0.759795
-0.872733
-0.981072
-1.0893
-1.20847
-1.34066
-1.49776
-1.69639
-1.96195
-2.32292
-2.86081
-3.70033
-5.11301
-5.33622
)
;
    }
    right
    {
        type            calculated;
        value           nonuniform List<scalar> 
19
(
0.0351661
0.191216
0.352876
0.502396
0.638278
0.759795
0.872733
0.981072
1.0893
1.20847
1.34066
1.49776
1.69639
1.96194
2.32292
2.86081
3.70033
5.11301
5.33622
)
;
    }
    frontAndBackPlanes
    {
        type            empty;
    }
}


// ************************************************************************* //
