/*--------------------------------*- C++ -*----------------------------------*\
  =========                 |
  \\      /  F ield         | OpenFOAM: The Open Source CFD Toolbox
   \\    /   O peration     | Website:  https://openfoam.org
    \\  /    A nd           | Version:  7
     \\/     M anipulation  |
\*---------------------------------------------------------------------------*/
FoamFile
{
    version     2.0;
    format      ascii;
    class       volScalarField;
    location    "0.262";
    object      gradTx;
}
// * * * * * * * * * * * * * * * * * * * * * * * * * * * * * * * * * * * * * //

dimensions      [0 -1 0 1 0 0 0];

internalField   nonuniform List<scalar> 
1596
(
-0.28828
-1.44768
-2.59695
-3.64141
-4.57711
-5.40352
-6.15865
-6.86683
-7.56062
-8.3029
-9.11033
-10.0585
-11.2376
-12.7808
-14.8473
-17.8424
-22.395
-29.8654
-43.0657
0.0630926
-1.20595
-2.33664
-3.31998
-4.18119
-4.92666
-5.59056
-6.18494
-6.73401
-7.27012
-7.79575
-8.35101
-8.94923
-9.61096
-10.3176
-11.0364
-11.5891
-11.6145
-10.3474
0.350949
-0.987883
-2.0825
-2.99526
-3.77381
-4.43379
-5.00459
-5.49406
-5.91824
-6.29431
-6.61881
-6.91238
-7.16805
-7.37996
-7.51598
-7.52127
-7.2526
-6.46075
-4.65899
0.396435
-0.874282
-1.87672
-2.69526
-3.38101
-3.95351
-4.43576
-4.83396
-5.15826
-5.41725
-5.60705
-5.73736
-5.7981
-5.77828
-5.65226
-5.37606
-4.85723
-3.94553
-2.35028
0.115597
-0.917266
-1.75641
-2.45036
-3.0316
-3.51501
-3.91476
-4.23537
-4.48236
-4.6589
-4.76278
-4.79709
-4.75371
-4.62261
-4.38719
-4.01665
-3.45639
-2.62003
-1.33987
-0.468676
-1.13611
-1.74897
-2.28793
-2.75193
-3.14314
-3.46467
-3.71791
-3.90415
-4.02251
-4.07245
-4.05274
-3.95777
-3.77943
-3.50807
-3.12259
-2.5923
-1.8682
-0.854896
-1.24696
-1.51308
-1.86489
-2.22591
-2.5608
-2.85494
-3.09944
-3.29079
-3.42605
-3.50091
-3.51547
-3.46556
-3.34726
-3.15394
-2.88035
-2.51163
-2.03123
-1.41133
-0.597804
-2.06356
-1.97813
-2.07472
-2.25245
-2.45339
-2.64773
-2.81575
-2.94816
-3.03778
-3.07729
-3.06633
-2.99868
-2.87118
-2.67811
-2.4166
-2.07576
-1.647
-1.11448
-0.44757
-2.90957
-2.57328
-2.44186
-2.43462
-2.49142
-2.57435
-2.65635
-2.72256
-2.76184
-2.76408
-2.7274
-2.64401
-2.51058
-2.32157
-2.07499
-1.76222
-1.37877
-0.915299
-0.354058
-3.4177
-2.98753
-2.72045
-2.57999
-2.52247
-2.5122
-2.5206
-2.5296
-2.52551
-2.49638
-2.43875
-2.344
-2.20839
-2.02655
-1.79683
-1.51225
-1.17051
-0.766185
-0.288925
-3.83091
-3.35992
-3.01066
-2.77136
-2.61743
-2.52162
-2.4586
-2.4099
-2.36085
-2.29855
-2.21806
-2.11027
-1.97085
-1.79434
-1.57887
-1.31837
-1.01148
-0.65485
-0.24242
-4.25045
-3.77445
-3.37372
-3.05671
-2.81621
-2.63607
-2.49759
-2.38456
-2.28308
-2.18026
-2.07008
-1.94316
-1.79442
-1.61805
-1.4116
-1.16931
-0.889883
-0.570836
-0.208251
-4.36119
-3.94846
-3.55667
-3.21482
-2.93091
-2.6998
-2.51048
-2.35091
-2.20953
-2.07473
-1.94049
-1.79784
-1.64147
-1.46558
-1.26739
-1.04151
-0.786534
-0.500465
-0.180518
-4.38373
-4.04056
-3.68158
-3.34043
-3.03505
-2.76994
-2.54168
-2.34333
-2.16665
-2.00218
-1.8446
-1.68576
-1.52044
-1.34297
-1.15032
-0.937303
-0.702281
-0.443381
-0.158384
-4.369
-4.0891
-3.77096
-3.44511
-3.13335
-2.84703
-2.58934
-2.35863
-2.15054
-1.95828
-1.77787
-1.6023
-1.42668
-1.24564
-1.05593
-0.852537
-0.633487
-0.396819
-0.140475
-4.25445
-4.04247
-3.77405
-3.47827
-3.1776
-2.8872
-2.61507
-2.36423
-2.13412
-1.9209
-1.72238
-1.53304
-1.34864
-1.16428
-0.976747
-0.781249
-0.575602
-0.357734
-0.125554
-4.03703
-3.88939
-3.67541
-3.42053
-3.14582
-2.86774
-2.5971
-2.34033
-2.10014
-1.87553
-1.66624
-1.46843
-1.27879
-1.09307
-0.90831
-0.720059
-0.526115
-0.324441
-0.11295
-3.7834
-3.6767
-3.51044
-3.29814
-3.0562
-2.80013
-2.54178
-2.28968
-2.04904
-1.82124
-1.60789
-1.40677
-1.21556
-1.03077
-0.849702
-0.668302
-0.484486
-0.296462
-0.10237
-3.5705
-3.49696
-3.36745
-3.18977
-2.97588
-2.73953
-2.49292
-2.24603
-2.00607
-1.77647
-1.56046
-1.35726
-1.16542
-0.981983
-0.804355
-0.628568
-0.452523
-0.274757
-0.0939788
-3.20528
-3.17508
-3.08777
-2.95256
-2.77855
-2.57693
-2.35876
-2.13406
-1.91095
-1.69415
-1.48808
-1.29326
-1.10912
-0.933366
-0.763545
-0.595687
-0.427515
-0.258006
-0.0872529
-2.80329
-2.80732
-2.75805
-2.66301
-2.52924
-2.36557
-2.18146
-1.9862
-1.78801
-1.59224
-1.40392
-1.22448
-1.05405
-0.89094
-0.732768
-0.575207
-0.414999
-0.250573
-0.0836772
-2.38583
-2.41214
-2.39454
-2.33615
-2.2414
-2.11679
-1.97004
-1.80933
-1.6424
-1.47464
-1.31108
-1.15364
-1.00285
-0.857576
-0.715678
-0.572389
-0.422456
-0.260989
-0.0876966
-1.92474
-1.96234
-1.97054
-1.94702
-1.89268
-1.81118
-1.70812
-1.59
-1.46359
-1.33366
-1.20453
-1.07805
-0.954723
-0.834032
-0.714606
-0.592189
-0.459853
-0.306844
-0.119294
-1.40595
-1.38625
-1.34395
-1.27983
-1.19874
-1.10723
-1.01282
-0.921878
-0.839409
-0.767505
-0.705547
-0.650857
-0.59953
-0.547939
-0.493101
-0.431563
-0.357708
-0.259916
-0.116493
-0.94021
-1.04783
-1.16883
-1.28529
-1.38447
-1.45754
-1.50112
-1.51515
-1.50297
-1.4688
-1.41587
-1.34767
-1.26607
-1.1748
-1.07799
-0.979348
-0.878068
-0.767035
-0.626019
-0.318946
-0.371491
-0.441238
-0.517726
-0.593258
-0.662317
-0.722865
-0.774248
-0.817814
-0.854628
-0.88284
-0.900791
-0.903684
-0.889618
-0.859398
-0.819172
-0.773974
-0.72987
-0.687986
0.303571
0.236946
0.143051
0.0319138
-0.087223
-0.206987
-0.323081
-0.433315
-0.537692
-0.636513
-0.727117
-0.805954
-0.865469
-0.899979
-0.907278
-0.893379
-0.865744
-0.834002
-0.802291
0.925939
0.835171
0.70867
0.558039
0.393888
0.22496
0.0570102
-0.107033
-0.266716
-0.422486
-0.572138
-0.711308
-0.830252
-0.918666
-0.969048
-0.984495
-0.973652
-0.950072
-0.921608
1.49053
1.36295
1.19627
1.00446
0.798746
0.588295
0.379011
0.173433
-0.0286632
-0.228977
-0.42706
-0.619541
-0.796044
-0.941989
-1.04239
-1.09348
-1.10169
-1.08442
-1.05543
2.07909
1.90709
1.69582
1.46004
1.21154
0.959892
0.710953
0.466739
0.226184
-0.0139824
-0.25577
-0.498665
-0.734294
-0.946195
-1.1114
-1.21485
-1.25396
-1.24659
-1.21476
2.52805
2.30464
2.04844
1.77417
1.49358
1.21537
0.94397
0.679805
0.42032
0.160291
-0.105135
-0.379793
-0.660538
-0.933987
-1.17279
-1.34883
-1.44051
-1.45473
-1.41757
2.95355
2.6856
2.38573
2.07433
1.76395
1.46224
1.17217
0.892825
0.620629
0.349134
0.0714627
-0.220591
-0.531339
-0.85677
-1.17439
-1.45034
-1.63848
-1.71551
-1.69357
3.35365
3.02795
2.68122
2.33437
1.99847
1.67894
1.3768
1.08972
0.813587
0.54164
0.266614
-0.02192
-0.334639
-0.680231
-1.05228
-1.43117
-1.76133
-1.9802
-2.02482
3.62294
3.20964
2.79151
2.38692
2.00361
1.64398
1.30684
0.988692
0.685133
0.389881
0.0963307
-0.205407
-0.527981
-0.888744
-1.30118
-1.77825
-2.29923
-2.81654
-3.23874
3.80129
3.34762
2.92158
2.53469
2.18702
1.87517
1.59377
1.33736
1.10087
0.879439
0.669446
0.466494
0.26559
0.0585822
-0.166849
-0.43578
-0.774726
-1.21469
-1.77081
3.94279
3.4717
3.05826
2.6978
2.38144
2.1014
1.85004
1.62145
1.41094
1.21457
1.03032
0.856727
0.693095
0.539748
0.398176
0.267817
0.146549
0.024605
-0.117145
3.75646
3.21776
2.76425
2.3779
2.04429
1.75295
1.49494
1.26362
1.05392
0.861513
0.68417
0.520255
0.368839
0.230203
0.106291
-0.000760433
-0.087265
-0.149298
-0.184971
3.31774
2.82269
2.41349
2.07006
1.77743
1.52474
1.30324
1.10645
0.929641
0.768963
0.622355
0.48836
0.365926
0.254723
0.155161
0.0671978
-0.00898242
-0.0732146
-0.126163
2.77162
2.35246
2.0062
1.71704
1.47233
1.26244
1.07971
0.918398
0.774379
0.644298
0.526228
0.418748
0.320614
0.23109
0.149976
0.076749
0.0111845
-0.0465994
-0.097023
2.0962
1.77105
1.50555
1.28614
1.10213
0.945451
0.809894
0.690828
0.584987
0.489718
0.403431
0.324941
0.253141
0.187327
0.127231
0.0724274
0.0227913
-0.0214185
-0.0603573
1.32438
1.10728
0.935355
0.796007
0.680579
0.583077
0.499189
0.425791
0.360726
0.30226
0.249326
0.201128
0.156902
0.116146
0.0786462
0.0441213
0.0125078
-0.0159476
-0.0412352
0.509688
0.422695
0.35617
0.302953
0.259003
0.221828
0.189765
0.161644
0.136669
0.1142
0.0938269
0.0752342
0.0581131
0.0422441
0.0275044
0.0137497
0.000912606
-0.0109457
-0.0218231
-0.509443
-0.422159
-0.355444
-0.302109
-0.25809
-0.220885
-0.18882
-0.160723
-0.135791
-0.113382
-0.0930819
-0.0745745
-0.0575491
-0.0417846
-0.0271562
-0.0135181
-0.000801158
0.0109368
0.0216958
-1.32415
-1.10681
-0.934726
-0.795279
-0.679797
-0.582276
-0.498398
-0.425032
-0.360017
-0.301617
-0.248763
-0.200655
-0.156528
-0.115879
-0.078492
-0.0440838
-0.012589
0.0157495
0.0409247
-2.09598
-1.77061
-1.50494
-1.28542
-1.10134
-0.944628
-0.809063
-0.690012
-0.584204
-0.488985
-0.402761
-0.324344
-0.252624
-0.186894
-0.126885
-0.0721649
-0.0226089
0.0215277
0.0604017
-2.77147
-2.35216
-2.0058
-1.71657
-1.47181
-1.26191
-1.07918
-0.9179
-0.773925
-0.643901
-0.5259
-0.418499
-0.320448
-0.23101
-0.14998
-0.0768315
-0.011338
0.0463846
0.096757
-3.31765
-2.82251
-2.41324
-2.06975
-1.77708
-1.52437
-1.30287
-1.1061
-0.929325
-0.768699
-0.622157
-0.488237
-0.365884
-0.254764
-0.15528
-0.067384
0.00874854
0.0729581
0.125914
-3.75648
-3.21774
-2.76417
-2.37778
-2.04413
-1.75277
-1.49478
-1.26348
-1.05383
-0.86149
-0.684235
-0.520425
-0.36913
-0.230625
-0.106843
0.000100188
0.0865558
0.148639
0.184478
-3.94281
-3.47141
-3.05754
-2.69661
-2.37978
-2.09928
-1.84749
-1.61851
-1.40766
-1.21098
-1.02646
-0.852616
-0.688754
-0.535193
-0.393443
-0.263032
-0.142016
-0.0209753
0.118799
-3.80201
-3.3495
-2.92468
-2.539
-2.19249
-1.88174
-1.60136
-1.34592
-1.11034
-0.889793
-0.680685
-0.478678
-0.278867
-0.0732397
0.150366
0.416827
0.752664
1.18923
1.74255
-3.62268
-3.20889
-2.7902
-2.38501
-2.00112
-1.64095
-1.30331
-0.984726
-0.680804
-0.385263
-0.0915027
0.210356
0.532954
0.893659
1.30606
1.78336
2.3053
2.82486
3.25103
-3.3539
-3.02853
-2.68209
-2.33547
-1.99975
-1.68035
-1.37832
-1.09132
-0.815264
-0.543394
-0.268463
0.0199546
0.332555
0.678102
1.05032
1.42979
1.76102
1.98126
2.02686
-2.9537
-2.68597
-2.38628
-2.07502
-1.76474
-1.46311
-1.17311
-0.893814
-0.621667
-0.350224
-0.0726086
0.219405
0.530174
0.855773
1.1738
1.45042
1.63937
1.71708
1.69549
-2.5282
-2.305
-2.04899
-1.77487
-1.4944
-1.21627
-0.944923
-0.680796
-0.421336
-0.161319
0.104117
0.378832
0.659726
0.933467
1.17272
1.34931
1.44149
1.45603
1.41896
-2.07924
-1.90745
-1.69637
-1.46075
-1.21237
-0.960811
-0.711925
-0.467736
-0.22718
0.0130154
0.25487
0.497894
0.733743
0.945968
1.11157
1.21542
1.25483
1.24761
1.21586
-1.49066
-1.36327
-1.19679
-1.00513
-0.799536
-0.589165
-0.379924
-0.174352
0.0277702
0.228146
0.426336
0.618985
0.795725
0.941967
1.04268
1.09404
1.10245
1.08528
1.05635
-0.926078
-0.835512
-0.709201
-0.558732
-0.394702
-0.22585
-0.0579318
0.106123
0.265859
0.421724
0.571517
0.710878
0.83006
0.918739
0.969374
0.985026
0.974325
0.950837
0.922444
-0.303688
-0.237265
-0.143561
-0.0325834
0.0864366
0.206133
0.32221
0.432476
0.536928
0.635868
0.72663
0.805663
0.865399
0.900134
0.907636
0.893898
0.866384
0.834737
0.80312
0.318675
0.370672
0.439836
0.515769
0.590825
0.659525
0.719856
0.771163
0.81479
0.851788
0.880277
0.898579
0.901859
0.888179
0.858313
0.818411
0.773525
0.729798
0.688487
0.940401
1.04856
1.17024
1.28745
1.38737
1.4611
1.50522
1.51963
1.50766
1.47356
1.42056
1.3522
1.27036
1.17883
1.08174
0.982856
0.881361
0.770135
0.628908
1.40575
1.38553
1.34268
1.27807
1.19657
1.10477
1.0102
0.919231
0.836842
0.765108
0.703379
0.648951
0.5979
0.54658
0.491993
0.430687
0.357047
0.259468
0.116298
1.92486
1.96258
1.97091
1.9475
1.89323
1.81176
1.7087
1.59055
1.46408
1.33407
1.20486
1.07829
0.954893
0.834142
0.714668
0.592213
0.459847
0.306823
0.11928
2.38586
2.41217
2.39458
2.33621
2.24146
2.11685
1.9701
1.80938
1.64243
1.47466
1.31108
1.15363
1.00283
0.857553
0.71565
0.572358
0.422427
0.260968
0.0876911
2.80331
2.80735
2.75809
2.66306
2.52929
2.36562
2.1815
1.98623
1.78803
1.59225
1.40391
1.22447
1.05403
0.890917
0.732744
0.575184
0.41498
0.250562
0.0836742
3.2053
3.1751
3.0878
2.95259
2.77858
2.57696
2.35879
2.13408
1.91095
1.69415
1.48807
1.29325
1.1091
0.933345
0.763525
0.595669
0.427502
0.257998
0.0872507
3.57053
3.49699
3.36748
3.18981
2.97591
2.73956
2.49294
2.24604
2.00607
1.77647
1.56045
1.35725
1.1654
0.981964
0.804338
0.628554
0.452513
0.274751
0.093977
3.78342
3.67672
3.51047
3.29816
3.05623
2.80015
2.54179
2.28968
2.04903
1.82123
1.60788
1.40675
1.21554
1.03075
0.849687
0.668289
0.484477
0.296457
0.102369
4.03704
3.88941
3.67543
3.42055
3.14583
2.86775
2.59711
2.34032
2.10013
1.87551
1.66623
1.46842
1.27877
1.09305
0.908296
0.720047
0.526107
0.324436
0.112949
4.25447
4.04249
3.77407
3.47829
3.17761
2.8872
2.61508
2.36423
2.13411
1.92089
1.72237
1.53302
1.34862
1.16426
0.976734
0.781239
0.575595
0.35773
0.125554
4.36901
4.08911
3.77097
3.44512
3.13336
2.84703
2.58933
2.35862
2.15053
1.95827
1.77785
1.60228
1.42667
1.24563
1.05592
0.852528
0.63348
0.396816
0.140474
4.38374
4.04057
3.68159
3.34044
3.03506
2.76994
2.54167
2.34332
2.16664
2.00217
1.84458
1.68575
1.52042
1.34296
1.15031
0.937296
0.702276
0.443379
0.158385
4.3612
3.94848
3.55669
3.21483
2.93091
2.6998
2.51048
2.3509
2.20952
2.07472
1.94048
1.79783
1.64146
1.46557
1.26738
1.04151
0.786532
0.500465
0.180519
4.25044
3.77444
3.37372
3.0567
2.8162
2.63606
2.49757
2.38454
2.28306
2.18024
2.07006
1.94314
1.79441
1.61804
1.41159
1.16931
0.889882
0.570837
0.208253
3.83093
3.35994
3.01068
2.77137
2.61743
2.52161
2.4586
2.4099
2.36084
2.29854
2.21805
2.11026
1.97085
1.79434
1.57887
1.31837
1.01148
0.654854
0.242422
3.41774
2.98756
2.72046
2.58
2.52247
2.5122
2.5206
2.52959
2.5255
2.49637
2.43874
2.34399
2.20839
2.02655
1.79683
1.51225
1.17052
0.766191
0.288927
2.9096
2.5733
2.44187
2.43462
2.49142
2.57435
2.65635
2.72256
2.76184
2.76408
2.7274
2.64401
2.51059
2.32157
2.075
1.76223
1.37878
0.915305
0.35406
2.06358
1.97815
2.07473
2.25246
2.45339
2.64773
2.81574
2.94816
3.03778
3.07729
3.06633
2.99868
2.87119
2.67811
2.41661
2.07577
1.64701
1.11449
0.447571
1.24698
1.51309
1.86489
2.22591
2.5608
2.85494
3.09944
3.29079
3.42605
3.50091
3.51547
3.46556
3.34726
3.15395
2.88036
2.51164
2.03124
1.41133
0.597803
0.46869
1.13612
1.74898
2.28793
2.75193
3.14314
3.46467
3.71791
3.90415
4.02251
4.07245
4.05275
3.95778
3.77944
3.50808
3.12259
2.5923
1.8682
0.854894
-0.115589
0.917274
1.75642
2.45037
3.03161
3.51501
3.91476
4.23537
4.48236
4.65891
4.76278
4.79709
4.75372
4.62262
4.38719
4.01665
3.45639
2.62002
1.33987
-0.396434
0.874288
1.87672
2.69527
3.38102
3.95351
4.43576
4.83396
5.15826
5.41726
5.60706
5.73736
5.79811
5.77828
5.65226
5.37605
4.85722
3.94552
2.35027
-0.350951
0.987885
2.0825
2.99526
3.77381
4.43379
5.00459
5.49406
5.91825
6.29432
6.61881
6.91238
7.16805
7.37996
7.51598
7.52126
7.25259
6.46074
4.65899
-0.0630932
1.20595
2.33664
3.31998
4.18119
4.92666
5.59056
6.18494
6.73401
7.27012
7.79575
8.35101
8.94923
9.61095
10.3176
11.0364
11.5891
11.6145
10.3474
0.288281
1.44768
2.59695
3.64141
4.57711
5.40352
6.15865
6.86683
7.56062
8.3029
9.11032
10.0585
11.2376
12.7808
14.8473
17.8424
22.395
29.8654
43.0657
)
;

boundaryField
{
    up
    {
        type            calculated;
        value           nonuniform List<scalar> 
84
(
-43.0657
-10.3474
-4.65899
-2.35028
-1.33987
-0.854896
-0.597804
-0.44757
-0.354058
-0.288925
-0.24242
-0.208251
-0.180518
-0.158384
-0.140475
-0.125554
-0.11295
-0.10237
-0.0939788
-0.0872529
-0.0836772
-0.0876966
-0.119294
-0.116493
-0.53687
-0.645844
-0.761354
-0.877764
-1.00624
-1.15733
-1.34515
-1.58385
-1.85541
-3.21812
-1.83579
-0.12081
-0.184856
-0.125995
-0.0969224
-0.0603264
-0.0412284
-0.0218309
0.0217036
0.0409183
0.0603712
0.0966572
0.125747
0.184362
0.122417
1.80666
3.23273
1.85721
1.58552
1.34644
1.15838
1.00715
0.878596
0.762197
0.646615
0.539506
0.116298
0.11928
0.0876911
0.0836742
0.0872507
0.093977
0.102369
0.112949
0.125554
0.140474
0.158385
0.180519
0.208253
0.242422
0.288927
0.35406
0.447571
0.597803
0.854894
1.33987
2.35027
4.65899
10.3474
43.0657
)
;
    }
    low
    {
        type            calculated;
        value           nonuniform List<scalar> 
84
(
-0.260025
0.105491
0.419808
0.471734
0.163206
-0.477532
-1.32024
-2.18716
-3.05273
-3.53483
-3.9325
-4.32986
-4.39055
-4.38165
-4.34668
-4.20392
-3.96299
-3.70348
-3.47669
-3.08641
-2.67342
-2.25544
-1.79923
-1.2971
-0.856045
-0.288723
0.269137
0.839842
1.37889
1.9654
2.43225
2.87307
3.29673
3.59798
3.80248
3.97554
3.82355
3.39245
2.8399
2.15154
1.36148
0.525325
-0.525079
-1.36125
-2.1513
-2.83972
-3.39232
-3.82352
-3.9755
-3.80308
-3.59772
-3.29693
-2.87321
-2.4324
-1.96555
-1.37902
-0.839988
-0.269256
0.288459
0.856233
1.29691
1.79934
2.25547
2.67345
3.08642
3.47672
3.7035
3.963
4.20393
4.34669
4.38166
4.39056
4.32984
3.93251
3.53486
3.05276
2.18718
1.32026
0.477548
-0.163198
-0.471735
-0.419814
-0.105494
0.260025
)
;
    }
    left
    {
        type            calculated;
        value           nonuniform List<scalar> 
19
(
-0.255572
-1.38891
-2.56088
-3.64078
-4.61621
-5.48085
-6.27588
-7.02977
-7.77504
-8.5912
-9.4941
-10.5694
-11.936
-13.7737
-16.2833
-20.0363
-25.9056
-35.7912
-37.3531
)
;
    }
    right
    {
        type            calculated;
        value           nonuniform List<scalar> 
19
(
0.255574
1.38892
2.56089
3.64078
4.61621
5.48085
6.27588
7.02977
7.77504
8.5912
9.49409
10.5694
11.936
13.7736
16.2833
20.0363
25.9056
35.7912
37.3531
)
;
    }
    frontAndBackPlanes
    {
        type            empty;
    }
}


// ************************************************************************* //
