/*--------------------------------*- C++ -*----------------------------------*\
  =========                 |
  \\      /  F ield         | OpenFOAM: The Open Source CFD Toolbox
   \\    /   O peration     | Website:  https://openfoam.org
    \\  /    A nd           | Version:  7
     \\/     M anipulation  |
\*---------------------------------------------------------------------------*/
FoamFile
{
    version     2.0;
    format      ascii;
    class       volScalarField;
    location    "0.05";
    object      T;
}
// * * * * * * * * * * * * * * * * * * * * * * * * * * * * * * * * * * * * * //

dimensions      [0 0 0 1 0 0 0];

internalField   nonuniform List<scalar> 
1596
(
5.94445
5.78927
5.64198
5.52144
5.43299
5.37342
5.33639
5.31391
5.30131
5.29264
5.28586
5.27735
5.25723
5.21145
5.11856
4.93622
4.59408
3.95988
2.77302
5.76685
5.298
4.89034
4.5683
4.33474
4.17758
4.07908
4.02008
3.98745
3.96869
3.95813
3.94918
3.92754
3.87347
3.75976
3.53985
3.15153
2.50328
1.43806
5.57672
4.82335
4.19847
3.71517
3.36728
3.13346
2.98649
2.89908
2.85141
2.82672
2.81663
2.81341
2.80362
2.76912
2.68527
2.51086
2.1945
1.67049
0.840028
5.41873
4.43833
3.64433
3.03652
2.59976
2.30542
2.11928
2.00838
1.94778
1.91757
1.90713
1.90813
1.90934
1.89655
1.85039
1.73778
1.51746
1.13907
0.534344
5.31945
4.18282
3.26614
2.56406
2.05708
1.7127
1.49256
1.36
1.28622
1.24883
1.23505
1.23582
1.24191
1.24287
1.22486
1.16319
1.02604
0.773673
0.35455
5.28095
4.0569
3.05821
2.28559
1.72135
1.33316
1.08128
0.92706
0.838926
0.79237
0.772466
0.769148
0.774279
0.780184
0.777508
0.749056
0.67158
0.514282
0.236769
5.2869
4.0316
2.98454
2.1603
1.54855
1.12074
0.838263
0.661985
0.558496
0.50149
0.473964
0.464574
0.465428
0.470429
0.473303
0.462723
0.422751
0.330668
0.155296
5.31592
4.0679
2.99864
2.13861
1.48794
1.02451
0.71287
0.514649
0.395498
0.327656
0.292231
0.276486
0.272145
0.27371
0.276674
0.273807
0.254829
0.204025
0.0984829
5.35524
4.13678
3.06335
2.1798
1.49761
1.00247
0.663435
0.443895
0.309297
0.230785
0.187828
0.16631
0.15722
0.155007
0.155933
0.155301
0.146779
0.120203
0.0597971
5.38851
4.20602
3.13994
2.24385
1.53874
1.01793
0.65542
0.416982
0.268473
0.180359
0.130837
0.104592
0.091796
0.0865282
0.0852227
0.0845539
0.0806667
0.0673634
0.0345272
5.40897
4.25727
3.20375
2.30402
1.58494
1.04591
0.665508
0.412037
0.252205
0.156222
0.101429
0.071593
0.0561656
0.048788
0.0457805
0.0444582
0.0423573
0.0358486
0.0188736
5.42763
4.30004
3.2576
2.35701
1.62873
1.07648
0.68247
0.417268
0.248485
0.146272
0.0873925
0.0549145
0.0377026
0.0289936
0.0249015
0.0229767
0.0214506
0.0181921
0.00977007
5.44056
4.32951
3.29468
2.39398
1.66004
1.09928
0.696329
0.42332
0.248565
0.142225
0.0807008
0.0465921
0.0283587
0.0189466
0.0142944
0.0120161
0.0106573
0.00888354
0.00480809
5.44223
4.33687
3.30566
2.40572
1.67015
1.10637
0.700027
0.423989
0.246931
0.139053
0.0766027
0.0419756
0.0234517
0.0138508
0.00903158
0.00663705
0.00535627
0.00425221
0.00227133
5.43923
4.32914
3.29556
2.39502
1.65998
1.09728
0.692197
0.417397
0.241444
0.134486
0.0727543
0.0386493
0.0204788
0.0110952
0.00638506
0.00404599
0.00285297
0.00206652
0.00105319
5.43355
4.31053
3.26827
2.36462
1.63102
1.07253
0.6727
0.402975
0.231265
0.127522
0.0680387
0.0354094
0.0181593
0.00932359
0.00492178
0.00275455
0.00167957
0.00106961
0.000498176
5.42227
4.27815
3.22176
2.31312
1.58235
1.03154
0.641138
0.380411
0.216082
0.117794
0.062016
0.0317405
0.0159101
0.00789457
0.00394799
0.00202989
0.00109897
0.000612216
0.000252414
5.40688
4.23385
3.15815
2.24279
1.51619
0.976271
0.599143
0.35092
0.196698
0.105752
0.0548598
0.0276213
0.0135796
0.00657202
0.00317237
0.00154587
0.000772268
0.000387024
0.000141644
5.39558
4.18983
3.08934
2.16383
1.44073
0.912979
0.551214
0.317558
0.17506
0.0925442
0.0471874
0.0233344
0.0112515
0.00532633
0.00250223
0.0011756
0.000557625
0.000260418
8.72804e-05
5.38634
4.14584
3.01617
2.07754
1.35744
0.843185
0.498773
0.281518
0.152062
0.0787751
0.0393637
0.0190732
0.00900674
0.00417081
0.00191235
0.000873055
0.00039946
0.000178281
5.66019e-05
5.3743
4.0962
2.93467
1.98181
1.26571
0.76722
0.442606
0.243657
0.128428
0.0649591
0.0317111
0.0150169
0.00693179
0.00313715
0.00140471
0.000625157
0.000278001
0.000120218
3.6973e-05
5.36431
4.0474
2.85155
1.88293
1.1709
0.689304
0.385786
0.206053
0.105454
0.0518482
0.0246335
0.0113657
0.00511633
0.0022595
0.000987486
0.000428782
0.000185878
7.83665e-05
2.36201e-05
5.35963
4.00674
2.77548
1.78912
1.07977
0.614391
0.331602
0.170699
0.084256
0.0400139
0.0183991
0.00823263
0.00360086
0.00154766
0.000659117
0.000279044
0.000117901
4.8439e-05
1.43388e-05
5.36071
3.97881
2.71411
1.7088
0.999615
0.547772
0.283372
0.139424
0.0657156
0.0298227
0.01313
0.00564034
0.0023758
0.000986392
0.000406896
0.000166983
6.80586e-05
2.64093e-05
6.92161e-06
5.37777
4.00019
2.72479
1.7063
0.988687
0.534505
0.271867
0.131219
0.0606289
0.0270035
0.011705
0.00497491
0.00208648
0.00086879
0.000362142
0.000151011
6.2283e-05
2.36111e-05
5.23391e-06
5.40387
4.05989
2.79586
1.7703
1.03633
0.564955
0.288975
0.139807
0.0645367
0.0286453
0.0123577
0.00523155
0.00219295
0.000918395
0.0003886
0.000166575
7.15952e-05
2.8589e-05
6.78001e-06
5.42189
4.11495
2.87328
1.84982
1.10277
0.612259
0.318489
0.156227
0.0727827
0.0324155
0.013937
0.00584003
0.00240938
0.000990218
0.000412281
0.000176035
7.71193e-05
3.21538e-05
8.14193e-06
5.43157
4.16226
2.95264
1.94157
1.18717
0.677871
0.363068
0.183259
0.0876202
0.0398571
0.0173685
0.00729631
0.00297378
0.00118496
0.00046877
0.000188178
7.90716e-05
3.31905e-05
8.88213e-06
5.43791
4.20684
3.03572
2.04489
1.28856
0.761891
0.424057
0.222925
0.111093
0.0526275
0.0238056
0.010312
0.00428101
0.0016991
0.000643438
0.000232912
8.43198e-05
3.17876e-05
8.52599e-06
5.44183
4.24974
3.12111
2.15609
1.40283
0.861471
0.500483
0.275777
0.144548
0.0722218
0.0345169
0.0158039
0.00691881
0.00287084
0.00110856
0.000383598
0.000115891
3.1604e-05
6.65965e-06
5.44639
4.29536
3.21102
2.27471
1.52812
0.974948
0.591793
0.342482
0.18946
0.100389
0.0511218
0.0250613
0.0118055
0.00529453
0.00221107
0.000814468
0.000241461
4.84248e-05
3.60955e-06
5.45871
4.35226
3.31202
2.40466
1.66637
1.10339
0.699148
0.424723
0.247992
0.139472
0.0758278
0.0399478
0.0203815
0.0100017
0.00463326
0.00192712
0.000652024
0.000139387
2.12279e-06
5.47357
4.41222
3.4157
2.53851
1.81168
1.2428
0.820561
0.522376
0.321449
0.191637
0.111114
0.0628551
0.0347209
0.0186607
0.00963595
0.00460195
0.00187787
0.000529786
1.52228e-05
5.4891
4.4721
3.51882
2.67334
1.96163
1.39151
0.955454
0.636106
0.41166
0.25957
0.160113
0.0969824
0.0578121
0.0339017
0.0194471
0.0106671
0.00533067
0.0021577
0.000412266
5.5018
4.52228
3.60662
2.7908
2.09608
1.52937
1.08529
0.75018
0.506265
0.334277
0.216766
0.138558
0.0875267
0.0546974
0.033743
0.0202457
0.0113943
0.00546001
0.00142663
5.50355
4.54106
3.6471
2.85124
2.17058
1.61039
1.16566
0.824383
0.570902
0.387922
0.259576
0.171649
0.112441
0.0730411
0.0469793
0.029536
0.0175852
0.00907788
0.00268716
5.49703
4.53706
3.65314
2.86927
2.19901
1.64582
1.20422
0.862624
0.606311
0.41897
0.285665
0.192829
0.129121
0.0858
0.0564291
0.036207
0.0219247
0.0114655
0.00343557
5.49301
4.53616
3.66076
2.88677
2.2251
1.6778
1.23895
0.89726
0.638702
0.447743
0.310204
0.213075
0.14534
0.0984219
0.0659394
0.0430384
0.0264489
0.0140033
0.00425273
5.49257
4.53985
3.67138
2.90486
2.24954
1.7065
1.26955
0.927563
0.667049
0.473046
0.331957
0.231204
0.160026
0.109982
0.0747439
0.0494226
0.030708
0.0164058
0.00503238
5.49247
4.543
3.67973
2.91881
2.26829
1.72857
1.29317
0.951122
0.68927
0.493068
0.349347
0.245852
0.172018
0.119516
0.0820682
0.0547701
0.0342922
0.0184336
0.00569346
5.4919
4.54395
3.68394
2.92684
2.27976
1.74253
1.30848
0.966658
0.70414
0.50664
0.361273
0.256006
0.180412
0.126244
0.0872714
0.0585852
0.0368533
0.0198813
0.00616508
5.48909
4.54059
3.68229
2.92764
2.28295
1.74762
1.31481
0.973556
0.711056
0.513163
0.367147
0.261103
0.184691
0.129716
0.0899832
0.0605896
0.0382075
0.020651
0.00641784
5.4891
4.54063
3.68234
2.92771
2.28302
1.74769
1.31487
0.973611
0.711104
0.513202
0.367179
0.261129
0.184711
0.129732
0.0899951
0.0605984
0.0382136
0.0206546
0.00641909
5.49195
4.54407
3.68411
2.92704
2.27997
1.74274
1.30867
0.966826
0.704283
0.506759
0.36137
0.256083
0.180473
0.126291
0.0873071
0.0586115
0.0368715
0.0198921
0.00616882
5.49254
4.54319
3.68
2.91913
2.26863
1.7289
1.29348
0.95139
0.689499
0.493258
0.3495
0.245973
0.172113
0.119588
0.0821232
0.0548103
0.0343197
0.0184498
0.00569907
5.49267
4.54012
3.67176
2.9053
2.24999
1.70695
1.26996
0.927922
0.667353
0.473295
0.332156
0.231361
0.160147
0.110074
0.0748128
0.0494726
0.0307419
0.0164258
0.00503923
5.49314
4.53649
3.66123
2.88732
2.22567
1.67835
1.23946
0.897703
0.639073
0.448043
0.310441
0.213258
0.14548
0.0985263
0.0660164
0.0430936
0.026486
0.014025
0.00426011
5.49718
4.53745
3.6537
2.86992
2.19969
1.64648
1.20482
0.863137
0.606734
0.419307
0.285925
0.193026
0.129268
0.0859078
0.0565071
0.0362617
0.0219609
0.0114862
0.00344246
5.50373
4.54151
3.64775
2.852
2.17137
1.61116
1.16635
0.824965
0.571374
0.38829
0.259854
0.171856
0.112591
0.0731496
0.0470563
0.0295893
0.0176202
0.00909801
0.00269413
5.50202
4.52294
3.60762
2.79201
2.09737
1.53063
1.08642
0.751144
0.507043
0.334879
0.217217
0.138887
0.0877617
0.054864
0.0338607
0.0203289
0.0114522
0.00549662
0.00144063
5.48938
4.47288
3.51998
2.67472
1.96308
1.39288
0.956661
0.637104
0.412442
0.260158
0.160541
0.0972867
0.0580257
0.0340509
0.0195515
0.0107397
0.00537918
0.00218595
0.000421636
5.47382
4.41292
3.41674
2.53974
1.81294
1.24396
0.821545
0.523156
0.322032
0.192054
0.111402
0.0630501
0.0348512
0.0187476
0.00969383
0.00463927
0.00189929
0.000538636
1.61272e-05
5.45894
4.35294
3.31303
2.40584
1.66755
1.10445
0.700006
0.425374
0.248456
0.139788
0.0760342
0.0400797
0.0204646
0.0100538
0.00466551
0.00194578
0.000660645
0.000140955
1.02975e-06
5.4466
4.29601
3.21199
2.27582
1.5292
0.975882
0.592526
0.343013
0.189821
0.100621
0.0512647
0.0251469
0.0118557
0.00532343
0.00222705
0.000822186
0.000243784
4.76809e-05
2.47993e-06
5.44202
4.25036
3.12202
2.15712
1.4038
0.862285
0.501095
0.2762
0.14482
0.0723871
0.0346126
0.0158572
0.00694737
0.00288547
0.00111533
0.000385838
0.000115707
3.05144e-05
5.93039e-06
5.43809
4.20741
3.03656
2.04582
1.28942
0.762579
0.424554
0.223252
0.111293
0.0527418
0.0238675
0.0103437
0.00429631
0.00170579
0.000645692
0.00023298
8.35407e-05
3.09753e-05
8.1441e-06
5.43173
4.16277
2.95339
1.94238
1.18789
0.678432
0.363457
0.183504
0.0877622
0.0399339
0.0174074
0.00731462
0.00298163
0.00118774
0.000469236
0.000187722
7.84398e-05
3.27405e-05
8.71861e-06
5.42202
4.11539
2.87392
1.85049
1.10335
0.6127
0.318784
0.156406
0.0728822
0.0324668
0.0139616
0.00585087
0.0024136
0.00099147
0.000412332
0.000175712
7.68044e-05
3.19788e-05
8.09462e-06
5.40398
4.06025
2.79637
1.77083
1.03679
0.565292
0.289195
0.139937
0.0646074
0.0286809
0.0123744
0.00523879
0.00219579
0.000919327
0.00038879
0.000166537
7.15419e-05
2.85757e-05
6.78532e-06
5.37779
4.00027
2.72492
1.70643
0.988804
0.534592
0.271924
0.131251
0.060646
0.0270116
0.0117085
0.00497615
0.0020868
0.000868786
0.000362057
0.000150939
6.22458e-05
2.35962e-05
5.22269e-06
5.36067
3.97872
2.71399
1.70868
0.999502
0.547684
0.283309
0.139381
0.065689
0.0298069
0.013121
0.00563539
0.00237318
0.000985043
0.000406219
0.000166652
6.79033e-05
2.63366e-05
6.88968e-06
5.35963
4.00673
2.77547
1.78912
1.07978
0.614398
0.331606
0.1707
0.0842554
0.0400126
0.0183978
0.00823159
0.00360014
0.00154722
0.000658856
0.000278899
0.000117825
4.83993e-05
1.43207e-05
5.36431
4.0474
2.85154
1.88293
1.17091
0.689308
0.38579
0.206054
0.105455
0.0518479
0.024633
0.0113652
0.00511596
0.00225924
0.00098732
0.000428683
0.000185823
7.83368e-05
2.3606e-05
5.3743
4.0962
2.93466
1.98181
1.26571
0.767222
0.442608
0.243659
0.128429
0.0649596
0.0317112
0.0150168
0.00693166
0.00313702
0.00140461
0.00062509
0.000277962
0.000120196
3.69598e-05
5.38634
4.14584
3.01617
2.07754
1.35744
0.843185
0.498774
0.281519
0.152064
0.0787761
0.0393643
0.0190735
0.00900684
0.00417082
0.00191232
0.000873028
0.000399449
0.00017828
5.65921e-05
5.39558
4.18983
3.08934
2.16383
1.44072
0.912978
0.551214
0.317559
0.175061
0.0925454
0.0471883
0.023335
0.0112518
0.00532648
0.00250229
0.00117564
0.000557676
0.000260469
8.72825e-05
5.40688
4.23385
3.15816
2.24279
1.51618
0.976269
0.599142
0.350921
0.196699
0.105753
0.0548608
0.027622
0.0135801
0.00657232
0.00317255
0.00154602
0.000772461
0.000387205
0.000141677
5.42227
4.27815
3.22177
2.31312
1.58235
1.03153
0.641136
0.380411
0.216083
0.117796
0.0620172
0.0317416
0.0159109
0.00789507
0.00394837
0.0020303
0.00109949
0.000612697
0.000252513
5.43355
4.31054
3.26827
2.36462
1.63102
1.07253
0.672698
0.402974
0.231265
0.127523
0.0680403
0.0354108
0.0181603
0.00932434
0.00492249
0.00275548
0.0016808
0.00107072
0.000498395
5.43923
4.32915
3.29556
2.39502
1.65997
1.09728
0.692193
0.417396
0.241444
0.134488
0.072756
0.0386508
0.02048
0.0110962
0.00638639
0.004048
0.00285564
0.00206879
0.00105357
5.44223
4.33688
3.30567
2.40572
1.67015
1.10637
0.700024
0.423988
0.246932
0.139054
0.0766045
0.0419772
0.0234532
0.0138525
0.0090342
0.00664119
0.00536149
0.00425627
0.0022718
5.44057
4.32952
3.29469
2.39398
1.66004
1.09928
0.696326
0.423319
0.248566
0.142227
0.0807026
0.0465939
0.0283606
0.0189496
0.0142995
0.0120238
0.0106663
0.00888977
0.0048083
5.42763
4.30005
3.2576
2.35701
1.62873
1.07648
0.682469
0.417268
0.248486
0.146274
0.0873942
0.0549164
0.0377056
0.028999
0.0249107
0.0229895
0.0214639
0.0181997
0.00976923
5.40898
4.25728
3.20376
2.30402
1.58494
1.04591
0.665509
0.412038
0.252207
0.156223
0.101431
0.0715958
0.0561707
0.0487974
0.0457951
0.044476
0.042373
0.035855
0.0188705
5.38852
4.20602
3.13995
2.24386
1.53875
1.01793
0.655421
0.416983
0.268475
0.180361
0.130839
0.104597
0.0918046
0.0865424
0.0852419
0.0845734
0.0806793
0.0673638
0.0345211
5.35525
4.13678
3.06335
2.1798
1.49761
1.00247
0.663437
0.443896
0.309299
0.230787
0.187831
0.166317
0.157233
0.155024
0.155952
0.155314
0.14678
0.120192
0.0597885
5.31592
4.0679
2.99864
2.13861
1.48794
1.02451
0.712872
0.514651
0.395499
0.327658
0.292236
0.276495
0.272158
0.273725
0.276684
0.273804
0.25481
0.204002
0.0984747
5.2869
4.0316
2.98453
2.16029
1.54855
1.12074
0.838263
0.661985
0.558496
0.501492
0.473968
0.464582
0.465437
0.470433
0.473294
0.462696
0.422711
0.330638
0.155293
5.28095
4.05689
3.05821
2.28559
1.72135
1.33316
1.08127
0.927058
0.838925
0.792371
0.772468
0.76915
0.774277
0.780171
0.777476
0.749007
0.67153
0.514256
0.236775
5.31945
4.18281
3.26613
2.56406
2.05708
1.7127
1.49255
1.36
1.28622
1.24883
1.23504
1.23582
1.2419
1.24284
1.22481
1.16313
1.026
0.773665
0.354566
5.41873
4.43833
3.64434
3.03652
2.59976
2.30541
2.11927
2.00838
1.94777
1.91756
1.90712
1.90811
1.90931
1.8965
1.85034
1.73774
1.51745
1.13909
0.534364
5.57672
4.82335
4.19848
3.71517
3.36728
3.13346
2.98648
2.89907
2.85141
2.82671
2.81662
2.81339
2.80359
2.76908
2.68524
2.51085
2.19452
1.67053
0.840042
5.76685
5.298
4.89035
4.56831
4.33474
4.17757
4.07908
4.02007
3.98745
3.96868
3.95811
3.94916
3.92752
3.87345
3.75975
3.53987
3.15157
2.5033
1.43806
5.94445
5.78927
5.64198
5.52144
5.433
5.37342
5.33639
5.31391
5.30131
5.29264
5.28586
5.27735
5.25723
5.21146
5.11857
4.93624
4.59409
3.95988
2.77301
)
;

boundaryField
{
    up
    {
        type            fixedValue;
        value           uniform 0;
    }
    low
    {
        type            fixedValue;
        value           uniform 6;
    }
    left
    {
        type            fixedValue;
        value           uniform 6;
    }
    right
    {
        type            fixedValue;
        value           uniform 6;
    }
    frontAndBackPlanes
    {
        type            empty;
    }
}


// ************************************************************************* //
