/*--------------------------------*- C++ -*----------------------------------*\
  =========                 |
  \\      /  F ield         | OpenFOAM: The Open Source CFD Toolbox
   \\    /   O peration     | Website:  https://openfoam.org
    \\  /    A nd           | Version:  7
     \\/     M anipulation  |
\*---------------------------------------------------------------------------*/
FoamFile
{
    version     2.0;
    format      ascii;
    class       volScalarField;
    location    "0.399";
    object      gradTz;
}
// * * * * * * * * * * * * * * * * * * * * * * * * * * * * * * * * * * * * * //

dimensions      [0 -1 0 1 0 0 0];

internalField   nonuniform List<scalar> 
1596
(
-1.61377e-16
-7.87983e-17
7.96779e-17
1.38416e-18
-1.52788e-16
0
-7.19399e-17
-7.09254e-17
-4.20148e-18
-3.70868e-17
-3.74701e-19
-3.68006e-17
1.61318e-16
-3.62984e-17
1.69803e-16
1.46373e-16
8.70214e-17
1.09793e-16
0
1.61637e-16
0
2.30153e-16
-1.33859e-18
-7.14386e-17
7.09241e-17
1.44825e-16
3.96038e-18
6.8859e-17
-3.30661e-17
6.58946e-17
-1.09076e-18
-9.12486e-17
-5.68595e-17
-1.37329e-16
-1.33818e-16
-1.21643e-16
6.9167e-17
0
-7.98006e-17
0
-1.51294e-16
2.12823e-18
1.4078e-16
-3.85093e-17
2.45046e-18
-9.95176e-19
-1.05455e-18
-1.15217e-18
2.57851e-17
0
4.73482e-17
1.34642e-16
-1.32392e-17
1.05721e-17
2.49072e-17
3.86338e-17
0
1.24671e-16
-3.82597e-17
3.812e-17
0
-3.68979e-17
-3.78316e-17
6.60957e-17
-5.89298e-17
0
0
-1.9652e-17
1.34454e-17
0
-3.98602e-17
-5.12133e-17
3.51934e-17
-3.56165e-17
-1.83582e-18
0
2.16999e-17
5.91523e-17
-5.45022e-17
0
-1.64161e-17
-4.96701e-17
0
7.50143e-17
-7.53975e-18
-6.81701e-18
-5.30462e-18
3.94538e-17
4.79417e-17
4.84001e-18
9.58855e-19
-3.80601e-17
1.92451e-18
1.75787e-17
-7.49698e-18
-5.63511e-18
-8.13084e-17
7.8594e-17
-7.01733e-17
-1.20841e-19
-6.38623e-17
1.80872e-18
-1.81473e-18
-5.15283e-17
0
-4.2859e-18
-4.65462e-17
-4.33501e-17
3.57817e-17
3.58626e-17
-4.92489e-19
-2.14786e-17
-1.78299e-17
1.3581e-17
4.70936e-17
-8.32532e-17
9.54674e-17
5.41459e-17
0
4.88514e-17
2.93663e-17
-1.42189e-17
6.5514e-17
-1.24341e-17
-5.18468e-17
5.09467e-19
-3.12049e-17
-3.59619e-17
-2.85694e-17
2.39809e-17
2.16677e-17
-2.87513e-19
-5.69564e-18
3.71364e-18
1.31775e-16
-1.5908e-16
0
0
-6.22127e-17
0
0
0
4.49754e-17
0
0
2.84883e-17
1.16321e-18
6.92654e-18
-2.08936e-17
0
1.11236e-17
4.25562e-18
0
-8.68071e-17
1.6796e-16
0
0
6.40704e-17
0
-2.56074e-17
2.55815e-17
-4.57785e-17
1.93626e-17
-1.95042e-17
0
2.81951e-17
2.62049e-17
0
-1.51563e-17
-1.13701e-17
-3.70458e-18
2.02323e-16
-9.57287e-17
0
-7.29751e-17
7.21584e-17
0
5.70294e-17
0
0
0
1.83987e-17
-1.84869e-17
0
-2.16994e-17
-6.31355e-18
0
1.1361e-18
8.78912e-18
0
-5.13547e-17
0
0
7.32962e-17
-1.3853e-16
5.65974e-18
2.32124e-18
-2.43913e-17
2.31529e-18
5.33607e-19
-1.96546e-17
-3.24605e-17
0
2.45439e-17
-4.75256e-18
4.82389e-18
1.20413e-17
-6.85151e-18
-3.21494e-18
4.47638e-17
-3.58106e-18
4.28942e-17
1.51539e-16
-6.35196e-18
-6.57525e-17
0
0
0
4.06252e-17
1.67998e-17
6.10136e-17
-1.47511e-17
-2.41049e-17
-1.48984e-17
-7.83743e-18
3.46598e-18
-7.47246e-18
3.07133e-18
-4.8245e-17
4.72076e-17
-8.83959e-17
-1.49758e-16
1.40751e-16
5.87122e-17
-1.10151e-16
9.81845e-17
-8.72818e-17
2.26686e-17
1.81047e-17
-1.63845e-17
1.14888e-17
-9.98846e-18
2.88373e-17
0
-2.13978e-18
1.5602e-17
-2.30598e-18
-3.06019e-16
1.42442e-16
1.3075e-19
-3.42213e-17
3.32764e-18
5.72402e-17
-1.09768e-16
-4.72679e-17
4.16972e-17
-3.65265e-17
-3.20111e-17
0
-3.73207e-17
-1.11767e-17
-2.03887e-17
-1.21225e-17
9.57877e-19
-1.01977e-17
1.25983e-19
5.00155e-17
-4.55125e-17
1.14746e-19
-3.68213e-17
-9.5681e-17
9.11779e-17
1.61356e-19
4.60626e-17
-4.05978e-17
7.05082e-17
1.67419e-17
1.43018e-17
4.55295e-17
0
3.84952e-17
1.76486e-17
0
5.70961e-18
1.06949e-19
0
4.41524e-17
3.65853e-17
-7.49851e-17
9.28518e-17
-1.4246e-16
1.03461e-16
4.1657e-17
-4.82988e-18
-6.97745e-17
1.35884e-17
-1.35213e-17
-4.26693e-17
1.75217e-17
-8.43098e-18
-1.81381e-17
8.08046e-18
-4.9657e-18
1.82042e-18
-4.65959e-17
1.63496e-16
-1.21298e-16
6.9108e-17
0
0
-2.14477e-17
4.49189e-17
-3.45485e-17
6.57616e-17
0
0
2.93514e-17
-2.59981e-17
-1.91966e-17
6.00388e-18
-6.26431e-18
3.23622e-18
0
2.93056e-18
4.35695e-17
-3.68155e-17
-3.31095e-17
-5.62368e-17
-2.05163e-17
2.58346e-17
0
-3.28093e-17
-2.7982e-17
2.56726e-17
-2.17679e-17
1.82594e-17
0
7.2401e-18
1.4942e-17
0
0
0
-2.78922e-18
7.30528e-17
2.98134e-17
-9.92402e-17
2.86417e-17
2.53821e-17
0
0
3.12904e-17
-1.62087e-17
-2.4831e-17
2.10535e-17
-1.76582e-17
0
-5.07109e-18
4.61858e-18
0
-3.76654e-18
-1.29987e-18
-3.81978e-17
1.1211e-16
-1.38621e-16
-5.84196e-17
3.01873e-17
-2.42067e-17
2.1173e-17
0
-1.57932e-17
1.36767e-17
0
0
7.29115e-18
-7.29955e-18
2.31488e-18
-2.83348e-18
5.57551e-18
5.35827e-19
9.58375e-19
1.92277e-17
-1.77134e-17
9.39259e-17
-6.09258e-17
-2.60125e-17
2.64666e-18
4.28366e-17
1.74055e-17
1.51118e-17
0
9.87956e-18
-9.22902e-18
7.65202e-18
-6.70747e-18
9.21356e-18
-1.605e-17
-4.33598e-18
3.80551e-18
1.04027e-18
5.21714e-17
-5.2522e-17
0
5.27483e-17
-2.73867e-17
-2.19422e-17
1.66584e-17
-5.22424e-17
0
-8.33627e-19
-1.10076e-17
-8.48519e-18
1.30714e-17
-8.72914e-19
-8.90475e-18
6.74963e-18
0
2.56807e-18
-1.01009e-18
8.7317e-17
-1.58669e-17
7.01227e-17
-5.50981e-17
3.27765e-17
5.37147e-18
-3.89099e-17
-1.45805e-17
2.68595e-17
-9.04023e-19
-1.76922e-17
1.5419e-17
-6.93014e-18
-9.74725e-18
0
0
0
-2.59363e-18
9.76254e-20
-7.88039e-17
7.70659e-17
4.32848e-20
1.25694e-17
1.12239e-17
-2.85909e-17
3.468e-17
-2.98645e-17
2.64341e-17
-9.59982e-18
1.84808e-17
6.99122e-18
-3.05437e-18
1.76305e-19
-1.25064e-18
-2.20952e-18
0
0
0
0
0
3.98505e-17
-1.79501e-17
-6.24247e-17
0
0
-8.60532e-18
-1.47174e-17
1.27948e-17
0
-8.81721e-18
7.17736e-18
-2.51282e-17
2.92351e-17
-1.00593e-17
1.07554e-17
1.20543e-18
0
-1.52771e-17
1.54651e-17
0
-1.32451e-17
1.34863e-17
2.34462e-17
0
8.6875e-18
1.26586e-17
-5.52443e-17
0
-9.45702e-18
7.71995e-18
5.90635e-18
-4.56235e-18
6.82368e-18
0
-2.63018e-18
0
-7.85154e-18
-7.96631e-18
4.72486e-19
1.3609e-17
-3.77173e-17
0
-1.04091e-17
0
3.2267e-17
1.37477e-17
0
3.74161e-17
-4.05795e-17
3.75077e-18
-1.02183e-17
2.33048e-18
1.29821e-17
5.14757e-18
-4.07331e-18
0
1.63788e-17
-1.48693e-17
1.85454e-17
2.32274e-17
0
2.13222e-17
-2.04392e-17
-1.71728e-17
2.72985e-17
-4.11336e-17
-2.13826e-17
0
0
5.37846e-18
0
0
1.63779e-18
0
-7.19313e-17
5.50721e-17
0
6.73441e-19
-1.36883e-17
-7.77567e-19
1.27209e-17
9.8203e-18
-1.16825e-17
-3.26028e-17
5.43528e-17
-1.45311e-17
0
-7.76313e-18
0
0
0
-6.29091e-18
5.01416e-18
-2.01752e-17
1.92415e-17
5.28931e-17
-5.21757e-17
1.63935e-17
7.78674e-19
-1.29343e-17
1.15621e-17
2.04123e-17
1.63354e-17
-3.23848e-17
0
1.86667e-17
3.43016e-18
-8.8802e-18
-2.06298e-17
1.71518e-17
-3.00059e-18
5.5631e-18
-6.76342e-17
1.00761e-16
-1.00354e-16
1.81842e-17
1.59884e-17
-1.54375e-17
1.32058e-17
-1.09655e-17
0
-9.88653e-18
1.67746e-17
7.30282e-18
1.21332e-17
1.6397e-17
-2.48308e-17
-1.82691e-19
0
-2.1908e-18
7.25246e-19
-7.31356e-17
-2.23596e-17
-4.03864e-17
2.12237e-17
-3.63436e-17
3.25569e-17
-1.96799e-17
1.73425e-17
-9.68647e-19
-9.74676e-19
-1.71872e-17
9.91594e-18
-6.28455e-18
1.88188e-17
-2.02021e-17
2.85858e-18
2.23697e-18
0
-1.23629e-18
7.90756e-17
-2.40623e-17
0
0
-3.74685e-17
7.35242e-17
-1.75139e-17
-3.53505e-18
2.9726e-17
-7.4942e-19
0
0
-7.63153e-18
0
-1.72694e-17
4.26758e-17
-2.98837e-17
0
4.75943e-19
2.72749e-17
5.17208e-17
0
-2.27656e-17
-1.93053e-17
-1.76948e-17
-1.8124e-17
7.79885e-18
-2.21002e-17
-1.25052e-17
0
0
9.55883e-18
0
0
-2.28549e-17
3.7537e-17
0
0
1.8712e-16
-2.09296e-17
-1.15772e-16
-6.52383e-17
8.83063e-17
2.89841e-17
1.75735e-17
0
-6.72992e-18
6.75696e-18
1.65544e-17
-5.40296e-18
-8.38795e-18
1.30825e-17
-1.39158e-17
-4.47741e-18
0
0
0
1.49846e-17
-1.20507e-16
1.18333e-16
-1.1572e-17
-9.16972e-17
1.44809e-16
-7.33826e-17
0
0
4.17588e-17
-3.45578e-17
0
-1.0886e-17
1.88314e-17
-2.21393e-18
5.58831e-18
1.72887e-18
1.65216e-20
3.83244e-19
0
0
0
1.02036e-16
-6.83129e-17
7.41642e-17
-1.16171e-16
3.34382e-17
0
-1.25011e-17
2.03697e-17
-2.08191e-17
-4.2035e-18
-1.50126e-19
-2.94359e-18
-4.60025e-19
-2.33885e-18
-6.48813e-19
-3.57951e-19
1.25992e-16
-2.26031e-16
1.07789e-16
0
3.02255e-17
-4.11243e-17
4.23412e-17
-3.3605e-17
0
-1.69864e-17
2.38278e-17
0
0
-1.15727e-19
0
-2.94513e-18
2.02296e-18
3.93874e-19
5.67664e-19
1.21014e-16
0
-4.97891e-17
5.56403e-17
-3.58265e-17
7.86619e-17
-3.74317e-17
-3.00102e-17
3.03236e-17
-3.12336e-18
0
0
2.05212e-18
-3.53624e-18
-2.47493e-18
4.70901e-18
-1.01931e-18
5.29229e-19
0
6.87452e-17
5.47735e-17
-1.31748e-18
-5.29364e-17
-5.44714e-18
-3.98713e-17
3.93972e-18
3.3907e-17
-1.77717e-18
3.18201e-18
0
0
-2.10226e-18
0
2.48533e-18
-2.65871e-18
0
3.41042e-19
-9.49351e-20
-3.64963e-17
-2.74491e-17
2.5692e-17
-2.99475e-18
-1.35584e-18
3.70935e-18
0
-9.98904e-19
1.51918e-17
-1.27937e-17
0
4.43433e-18
-8.51183e-19
-3.9351e-18
-3.61324e-19
-2.82431e-19
0
-2.66245e-19
0
1.50275e-17
-2.87081e-17
-5.16437e-19
1.25273e-17
1.17079e-17
-1.16451e-17
-8.42603e-18
9.54451e-18
-3.33752e-18
2.60612e-18
-2.57771e-18
2.65721e-18
0
6.88362e-21
-2.65453e-19
9.5698e-19
-3.28056e-21
0
0
1.5028e-17
-1.49717e-17
-1.24619e-17
1.10307e-17
2.0693e-17
-2.08151e-17
-4.21314e-18
4.22298e-18
-3.36561e-18
3.401e-18
-2.57778e-18
4.87801e-18
-1.36803e-18
-9.93377e-19
-3.06914e-19
1.01317e-19
2.43196e-19
6.44143e-20
-4.83178e-20
0
-3.58546e-18
2.17373e-17
-2.35391e-17
2.06845e-17
-1.83178e-17
0
1.5071e-17
-1.34675e-17
0
5.14892e-18
-6.52813e-18
-3.75495e-18
3.93543e-18
7.31632e-19
0
0
-2.66268e-19
9.68425e-20
5.98538e-17
-1.10778e-16
1.14254e-16
-1.01463e-16
4.00886e-17
-3.49235e-17
3.31025e-17
4.02277e-18
-1.51471e-17
1.35452e-17
0
-1.00894e-17
9.17576e-18
-1.77032e-18
-7.16633e-19
1.14417e-18
8.43365e-19
2.58495e-19
-9.35718e-20
1.36537e-16
0
-5.62803e-17
4.37084e-17
5.38442e-18
-4.22219e-17
7.54015e-17
-6.77589e-17
2.67369e-17
-1.17061e-17
1.19823e-17
2.39405e-18
4.19996e-18
1.72432e-18
-1.46026e-18
-1.81585e-19
-1.83291e-18
0
1.91362e-19
1.10676e-16
-1.24579e-16
0
1.17769e-17
5.19201e-17
-5.09971e-17
8.90986e-18
8.01444e-18
3.51314e-18
6.34396e-18
0
0
-7.31599e-18
1.38877e-17
-5.10372e-18
-1.84795e-18
2.0232e-18
1.63263e-19
-3.65602e-19
8.59832e-18
1.09427e-16
-1.29289e-17
-9.02106e-17
7.91412e-17
9.67183e-18
-8.71992e-18
-7.82772e-18
2.64997e-17
-3.28782e-17
2.0374e-17
-2.08232e-17
3.38894e-18
-4.16925e-18
7.89209e-18
-5.23931e-18
0
0
3.9428e-19
0
2.76582e-17
-8.50935e-17
9.71162e-17
-8.12013e-17
8.10079e-17
0
2.9627e-17
-2.97628e-17
-2.3178e-17
3.45797e-17
0
1.49243e-17
-1.88422e-17
-2.80409e-18
0
-3.27575e-19
-6.85364e-19
6.7503e-21
-2.5928e-16
1.24694e-16
0
-8.82874e-17
8.82785e-17
5.62082e-17
-3.70006e-17
1.58574e-17
0
-7.43987e-19
5.90227e-18
-5.3948e-18
-8.3755e-18
1.30606e-17
-1.38878e-17
0
3.21511e-18
-7.83462e-19
-4.23211e-19
1.60436e-16
-1.58673e-16
0
2.28387e-17
2.12364e-17
-1.96792e-17
0
-1.66187e-17
-1.49137e-17
0
-3.90707e-19
0
9.56144e-18
0
0
4.73785e-18
1.80156e-17
-2.31754e-17
0
2.85865e-20
2.40737e-17
-2.26994e-17
1.94251e-17
-9.83006e-17
3.81313e-17
0
3.53724e-18
1.00801e-17
0
-1.08715e-17
3.33441e-17
-3.50299e-17
6.26016e-18
0
-5.11831e-19
0
0
0
2.55892e-20
0
2.098e-17
0
-3.46267e-17
3.51771e-17
0
1.36945e-17
-1.14139e-17
4.23552e-17
-2.06318e-17
7.95152e-18
-1.32444e-17
1.31617e-17
-2.0222e-17
-3.29464e-18
0
-2.47849e-18
0
6.28945e-17
-1.06224e-16
0
-1.82479e-17
1.68655e-17
0
0
-2.52184e-17
0
-9.89249e-18
-1.67851e-17
-7.30818e-18
1.2143e-17
0
7.31567e-18
0
0
5.51383e-18
-6.22734e-18
0
9.35322e-17
-7.50569e-17
1.68934e-17
-1.56176e-17
-6.76637e-18
1.98151e-17
2.32056e-17
-2.9907e-17
9.71141e-18
3.03364e-19
-1.02894e-17
4.27445e-17
-1.33747e-17
-3.34039e-17
1.18528e-17
-3.33667e-18
1.97315e-18
-6.53525e-19
-1.47718e-16
5.50604e-17
0
0
6.84147e-18
-6.957e-18
5.53442e-18
4.12627e-18
2.74026e-17
1.48719e-17
-1.51014e-17
-2.60084e-19
-9.49192e-18
7.7684e-18
0
4.36535e-18
3.0583e-18
1.77431e-18
5.90694e-19
0
4.85965e-17
-4.63765e-17
1.5093e-17
1.65305e-17
-3.23219e-18
-1.10749e-17
-9.8891e-18
-3.46062e-17
1.4829e-17
-1.01623e-17
1.30981e-17
8.87611e-18
-1.20952e-17
1.28383e-17
9.01733e-18
-1.14288e-17
-1.63884e-18
0
-8.29815e-18
-3.8378e-17
1.41325e-17
1.36122e-17
-4.90664e-17
3.57868e-17
1.93672e-17
-1.97963e-17
1.6296e-17
-1.40735e-17
0
0
-1.42394e-17
2.60887e-17
-1.18378e-17
1.20341e-17
-1.3086e-17
2.28874e-18
-4.0762e-18
1.57316e-17
1.50321e-17
-1.41126e-17
1.19261e-17
-1.336e-17
-2.21138e-17
0
0
0
0
0
0
7.43799e-18
-2.08384e-17
2.20389e-17
-7.75948e-18
9.5405e-18
4.68824e-18
-3.99786e-18
3.23062e-17
-5.78085e-17
7.25149e-17
-3.6671e-17
5.03765e-17
-4.04895e-17
7.72579e-17
-4.51311e-17
-2.70296e-17
2.76501e-17
0
8.81128e-18
-7.26653e-18
1.93617e-17
-5.8994e-18
-8.40788e-18
-1.91457e-17
1.38621e-18
3.43612e-18
5.01165e-17
1.50095e-17
0
-2.50726e-17
-2.11821e-17
4.96614e-17
6.27823e-18
-2.23448e-17
1.37257e-17
-1.06661e-17
0
-6.97513e-18
0
-6.37948e-18
5.33534e-18
-5.0076e-18
-1.68418e-18
1.23062e-18
0
7.02209e-17
-1.58667e-17
7.00957e-17
-5.50791e-17
-1.17767e-17
4.96467e-17
-2.97328e-17
1.2096e-18
1.01731e-18
-1.0571e-17
1.03016e-17
0
0
7.59609e-18
-3.01189e-18
2.05404e-18
6.07662e-18
-2.10922e-18
0
1.20525e-20
0
-1.53141e-17
9.42856e-17
-6.45092e-17
-7.41698e-17
4.09635e-17
-4.73537e-17
4.47373e-17
2.39651e-17
-1.93871e-17
8.23427e-18
-7.55531e-18
1.15849e-18
1.37918e-17
7.21447e-19
-5.66251e-18
5.59588e-18
-1.12709e-18
1.72713e-16
-5.55023e-17
2.95396e-17
-9.00704e-17
2.60123e-17
-4.34448e-17
2.28079e-17
0
0
-8.55646e-19
-1.12124e-18
-3.27473e-19
0
-1.16549e-17
-9.21357e-18
6.97438e-18
-5.15331e-19
8.02061e-19
2.17434e-18
0
-5.61194e-17
9.90988e-17
2.49244e-17
-8.48376e-17
2.42065e-17
-3.98486e-17
4.93701e-18
3.41462e-17
0
0
6.60413e-19
8.84265e-18
0
-8.4979e-18
-4.04249e-18
5.91566e-19
-2.22263e-18
-2.42676e-18
0
-3.63934e-17
5.8689e-18
6.7098e-17
5.43634e-17
-1.01552e-16
4.72459e-17
-3.63276e-17
1.90732e-17
-2.898e-17
0
0
0
-1.45717e-17
4.50676e-18
-5.09593e-18
0
-3.21816e-19
1.62732e-18
-1.30831e-16
1.25037e-16
1.41214e-16
-1.72034e-16
8.58518e-17
-8.17573e-17
0
3.79153e-17
-5.28736e-17
3.19384e-17
-2.62485e-17
2.23885e-17
1.88919e-17
1.50704e-17
1.21895e-17
0
0
0
0
1.42617e-16
-8.49281e-17
0
0
-3.07824e-17
7.92047e-17
-5.10421e-17
-3.97626e-17
3.93143e-17
3.16209e-17
5.50705e-17
-2.32302e-17
9.75263e-18
7.76611e-18
5.97299e-18
4.72042e-18
7.77669e-18
-3.85802e-19
3.92975e-19
-1.45532e-16
1.3583e-16
7.63916e-17
-3.91705e-17
9.28966e-17
-5.99858e-17
-5.03289e-17
-4.43401e-17
0
-6.53177e-17
2.41415e-18
2.54103e-17
-2.10045e-17
-1.75217e-17
-6.46822e-18
-7.06467e-18
-5.60915e-18
0
0
-5.00587e-17
0
4.09142e-17
-9.93981e-20
0
0
5.19159e-17
4.57527e-17
0
3.49751e-17
0
-3.86063e-17
-1.07979e-17
1.94825e-17
0
1.26091e-17
-1.79597e-18
1.83213e-18
0
1.05441e-16
0
7.99039e-17
-1.50631e-16
1.37832e-16
1.17453e-16
-2.78243e-18
0
2.63302e-18
3.91359e-17
0
-4.16229e-17
4.80688e-17
-4.28781e-17
-9.39733e-18
-1.02017e-17
-2.91524e-18
-5.05257e-19
-1.69595e-18
-1.00237e-16
1.44986e-16
-4.25537e-17
-1.1486e-16
-6.87611e-17
-6.16195e-17
-1.10037e-16
-4.64952e-17
2.7515e-18
1.81388e-17
-1.81047e-17
5.96515e-17
-2.62806e-17
5.39625e-17
-1.01124e-17
0
1.10028e-17
-6.34322e-18
1.73645e-18
2.16845e-16
-3.71312e-18
-1.74745e-16
1.5154e-16
-1.39364e-16
1.25597e-16
-2.96932e-18
-5.07761e-17
4.55554e-17
1.89552e-17
-2.15047e-18
-4.78117e-17
1.42785e-17
1.38169e-17
-4.4043e-18
4.45454e-18
-1.13962e-17
-7.86872e-19
-2.4403e-18
1.06452e-16
4.66854e-17
8.44498e-17
-7.65071e-17
-6.62139e-17
2.65339e-18
-5.40928e-17
1.31808e-16
3.33324e-18
6.38543e-17
3.78682e-17
-3.37738e-17
0
-2.45439e-17
0
0
1.46195e-17
6.57622e-18
2.86315e-18
1.01041e-16
0
8.34319e-17
7.60132e-17
-6.94152e-17
6.28434e-17
0
-5.17791e-17
-7.25766e-17
-6.48907e-17
-3.82033e-17
3.41557e-17
0
0
0
0
-1.36911e-17
-9.59658e-18
0
-1.98005e-16
0
-3.14133e-18
-2.7845e-18
1.05006e-16
-6.15376e-17
-2.86642e-17
-2.87212e-17
7.26447e-17
0
1.93625e-17
-2.10617e-18
1.66647e-17
0
0
2.15924e-17
-1.59588e-18
1.15147e-17
-4.15503e-18
1.39891e-16
4.17071e-17
-4.12766e-17
-3.76579e-17
-1.35115e-16
9.48295e-17
1.1674e-16
-2.15271e-18
-4.89767e-17
4.74997e-17
1.01176e-17
-5.06281e-17
-4.22166e-17
-2.44438e-17
-2.57073e-17
-2.48691e-17
1.97528e-17
-9.39451e-19
4.25562e-18
-4.33755e-17
2.0148e-17
-9.77971e-17
1.73933e-17
-1.733e-17
0
-5.75938e-17
-2.82795e-18
-5.31308e-17
3.24541e-18
5.18467e-17
3.9184e-17
-9.40868e-18
4.95842e-18
2.45053e-17
0
-4.0556e-17
-1.45448e-17
-3.04017e-19
8.70215e-17
-2.44634e-18
1.53541e-16
-7.42169e-17
1.20841e-19
2.03027e-18
6.14141e-17
-3.57439e-18
5.15281e-17
-4.82719e-17
-4.52655e-17
0
4.335e-17
3.524e-17
4.75613e-19
-6.8915e-19
2.16856e-17
1.47857e-17
0
-6.20765e-17
0
-1.61858e-17
7.04661e-17
8.20854e-19
1.6438e-17
-5.93865e-17
5.64357e-17
5.83056e-17
5.57269e-17
5.33321e-17
0
-4.21138e-17
0
2.16005e-18
-2.2434e-18
0
-2.09492e-19
1.02255e-17
4.23537e-17
1.74292e-18
-3.53907e-17
1.08177e-16
-3.50056e-17
0
0
-6.4039e-17
-5.64922e-17
-5.3987e-17
-9.64658e-17
-1.34454e-17
0
0
0
-4.32447e-18
4.57637e-18
2.89778e-17
-1.038e-17
1.78292e-18
0
-7.44355e-17
-6.93663e-17
7.18549e-17
-7.11935e-17
-1.02492e-16
1.27259e-16
3.45037e-17
0
5.62507e-17
6.24072e-17
-1.34743e-17
7.27261e-17
-1.1876e-17
1.236e-17
4.76827e-17
-2.75359e-17
0
-8.11312e-17
0
-7.82354e-17
7.68901e-17
0
1.41105e-16
6.67074e-17
-1.38713e-16
1.09622e-16
-7.94848e-19
-3.34047e-17
-6.0423e-17
0
8.16147e-17
-1.37329e-16
1.47207e-16
-1.87554e-16
0
0
8.06696e-17
-4.1161e-19
-1.01526e-18
-1.54173e-16
1.551e-16
-7.53077e-17
7.50007e-17
7.38967e-17
-6.63667e-17
0
0
1.22256e-16
-1.24362e-16
-1.33604e-16
1.32245e-16
-1.28681e-16
1.39062e-16
-2.17718e-16
0
)
;

boundaryField
{
    up
    {
        type            calculated;
        value           nonuniform List<scalar> 
84
(
0
0
0
0
-7.49698e-18
1.3581e-17
-5.69564e-18
4.25562e-18
-3.70458e-18
0
-3.21494e-18
3.07133e-18
-2.30598e-18
1.25983e-19
1.06949e-19
1.82042e-18
0
0
-1.29987e-18
9.58375e-19
1.04027e-18
-1.01009e-18
9.76254e-20
0
4.23636e-19
1.74262e-19
-3.91833e-18
0
5.01416e-18
5.74315e-18
7.25246e-19
-1.23629e-18
4.75943e-19
0
-2.32443e-19
3.99421e-19
-3.58913e-19
5.6773e-19
0
-9.49612e-20
0
0
-4.83637e-20
9.68425e-20
-9.35718e-20
1.91362e-19
-3.65602e-19
3.9428e-19
6.7503e-21
-4.23211e-19
0
0
0
-6.22734e-18
-8.33654e-19
5.90694e-19
0
-4.0762e-18
-3.99786e-18
3.01401e-18
0
0
-1.12709e-18
2.17434e-18
-2.42676e-18
1.62732e-18
0
3.92975e-19
0
0
-1.69595e-18
1.73645e-18
-2.4403e-18
2.86315e-18
0
-4.15503e-18
4.25562e-18
-3.04017e-19
0
1.02255e-17
-1.038e-17
0
0
0
)
;
    }
    low
    {
        type            calculated;
        value           nonuniform List<scalar> 
84
(
-1.61464e-16
1.61637e-16
-7.96442e-17
1.24799e-16
2.17868e-17
-5.66086e-18
4.73099e-17
3.91986e-18
0
2.02554e-16
-5.13547e-17
4.46504e-17
-4.8245e-17
-3.05995e-16
5.00155e-17
0
-4.65959e-17
2.93056e-18
-2.78922e-18
-3.81978e-17
1.92277e-17
5.21714e-17
8.70665e-17
-7.88039e-17
0
-1.52771e-17
-7.85154e-18
0
-7.19313e-17
-2.01752e-17
-6.74535e-17
-7.29832e-17
7.89613e-17
2.72749e-17
1.87098e-16
1.49846e-17
0
1.25992e-16
1.21221e-16
6.88625e-17
-3.65607e-17
1.50275e-17
1.5028e-17
0
5.98538e-17
1.36743e-16
1.10676e-16
8.71854e-18
0
-2.59258e-16
1.60436e-16
2.85865e-20
2.55892e-20
6.28945e-17
0
-1.47456e-16
0
-8.29815e-18
1.57316e-17
3.21566e-17
4.98509e-17
6.99704e-17
1.20525e-20
1.72496e-16
0
0
-1.30831e-16
1.42491e-16
-1.45439e-16
-5.00587e-17
1.05418e-16
-1.00237e-16
2.17072e-16
1.06624e-16
1.01041e-16
-1.98005e-16
1.39685e-16
-4.31592e-17
8.70215e-17
-6.19896e-17
4.23537e-17
1.93931e-18
-8.11312e-17
8.07132e-17
)
;
    }
    left
    {
        type            calculated;
        value           nonuniform List<scalar> 
19
(
-1.61377e-16
-7.88473e-17
7.96779e-17
1.38258e-18
-1.52822e-16
0
-7.19399e-17
-7.09254e-17
-4.4221e-18
-3.70868e-17
-3.74701e-19
-3.68006e-17
1.62972e-16
-3.62984e-17
1.69803e-16
1.46373e-16
8.70214e-17
1.27534e-16
0
)
;
    }
    right
    {
        type            calculated;
        value           nonuniform List<scalar> 
19
(
8.06696e-17
-3.62579e-19
-1.01526e-18
-1.54171e-16
1.55133e-16
-7.53077e-17
7.50007e-17
7.38967e-17
-6.61461e-17
0
0
1.23428e-16
-1.26016e-16
-1.33604e-16
1.32245e-16
-1.28681e-16
1.39062e-16
-2.35459e-16
0
)
;
    }
    frontAndBackPlanes
    {
        type            empty;
    }
}


// ************************************************************************* //
