/*--------------------------------*- C++ -*----------------------------------*\
  =========                 |
  \\      /  F ield         | OpenFOAM: The Open Source CFD Toolbox
   \\    /   O peration     | Website:  https://openfoam.org
    \\  /    A nd           | Version:  7
     \\/     M anipulation  |
\*---------------------------------------------------------------------------*/
FoamFile
{
    version     2.0;
    format      ascii;
    class       volScalarField;
    location    "0.373";
    object      gradTy;
}
// * * * * * * * * * * * * * * * * * * * * * * * * * * * * * * * * * * * * * //

dimensions      [0 -1 0 1 0 0 0];

internalField   nonuniform List<scalar> 
1596
(
-0.359484
-0.671429
-0.934992
-1.19892
-1.46592
-1.76986
-2.10004
-2.49612
-2.97643
-3.55462
-4.34109
-5.3395
-6.7063
-8.63106
-11.59
-16.1743
-24.3274
-39.3403
-92.9369
-1.09692
-1.36329
-1.56091
-1.75984
-1.96904
-2.22404
-2.51485
-2.8763
-3.32424
-3.86261
-4.58132
-5.47327
-6.64211
-8.17431
-10.3132
-13.1861
-17.44
-23.6837
-41.4044
-1.96583
-2.06979
-2.15651
-2.27069
-2.41044
-2.60492
-2.84113
-3.14813
-3.53652
-4.00347
-4.62082
-5.37103
-6.32439
-7.52105
-9.10772
-11.108
-13.8725
-17.6605
-25.8033
-2.87892
-2.75918
-2.70926
-2.72567
-2.78766
-2.91311
-3.08498
-3.32565
-3.64075
-4.02306
-4.52934
-5.1365
-5.89274
-6.81452
-7.99368
-9.41424
-11.281
-13.7042
-17.8709
-3.72338
-3.39149
-3.20602
-3.12274
-3.10463
-3.15745
-3.26098
-3.43081
-3.66871
-3.96512
-4.3645
-4.84253
-5.43274
-6.13985
-7.02361
-8.05545
-9.36247
-10.9879
-13.3691
-4.39621
-3.92811
-3.63511
-3.46291
-3.36941
-3.35141
-3.3876
-3.48759
-3.65058
-3.86627
-4.16902
-4.53607
-4.99092
-5.53277
-6.20152
-6.96716
-7.91188
-9.04829
-10.5452
-4.84027
-4.33882
-3.98565
-3.74711
-3.59008
-3.50815
-3.48205
-3.51689
-3.61062
-3.75337
-3.9713
-4.24464
-4.58985
-5.00373
-5.51327
-6.09121
-6.79192
-7.61419
-8.62619
-5.05309
-4.60506
-4.24495
-3.97095
-3.76859
-3.63442
-3.55442
-3.53138
-3.5633
-3.64162
-3.78606
-3.98042
-4.23617
-4.54929
-4.93809
-5.3793
-5.90919
-6.52077
-7.24182
-5.07603
-4.74639
-4.42607
-4.14788
-3.92011
-3.74712
-3.62266
-3.54952
-3.52701
-3.54858
-3.62921
-3.75626
-3.9377
-4.16948
-4.46395
-4.8016
-5.20655
-5.66959
-6.20117
-4.94478
-4.74354
-4.49446
-4.24283
-4.01347
-3.81983
-3.66435
-3.55205
-3.48457
-3.45798
-3.48427
-3.55415
-3.67347
-3.83864
-4.05814
-4.31587
-4.62791
-4.98463
-5.38839
-4.77681
-4.66865
-4.4925
-4.28264
-4.06845
-3.86919
-3.69475
-3.5533
-3.44953
-3.38244
-3.36248
-3.38348
-3.45015
-3.55959
-3.71781
-3.91147
-4.15128
-4.42785
-4.73963
-4.56638
-4.55419
-4.44994
-4.28792
-4.09873
-3.90446
-3.72045
-3.55804
-3.42509
-3.32368
-3.26382
-3.24225
-3.26323
-3.32479
-3.43141
-3.57207
-3.75384
-3.96791
-4.21092
-4.3052
-4.37864
-4.34521
-4.2358
-4.08005
-3.90117
-3.71775
-3.54388
-3.39024
-3.26188
-3.16924
-3.11171
-3.09384
-3.11476
-3.1783
-3.27542
-3.41097
-3.57684
-3.76877
-4.06908
-4.1924
-4.21572
-4.15533
-4.03498
-3.87669
-3.70018
-3.52145
-3.35349
-3.20389
-3.08407
-2.99579
-2.94433
-2.93004
-2.95666
-3.01686
-3.11419
-3.24125
-3.39343
-3.84791
-4.01033
-4.07795
-4.05991
-3.97343
-3.83762
-3.67176
-3.49277
-3.31527
-3.14898
-3.00648
-2.89166
-2.81079
-2.76555
-2.75998
-2.78831
-2.85342
-2.94864
-3.06934
-3.63062
-3.82918
-3.93425
-3.95283
-3.89759
-3.78458
-3.63163
-3.45583
-3.27273
-3.0937
-2.93246
-2.79481
-2.68815
-2.61552
-2.58163
-2.58219
-2.61989
-2.68879
-2.78438
-3.43251
-3.65495
-3.7903
-3.84011
-3.81282
-3.7216
-3.58243
-3.41198
-3.22621
-3.03761
-2.86093
-2.70356
-2.5741
-2.47695
-2.41774
-2.39363
-2.40757
-2.45436
-2.52963
-3.25782
-3.49561
-3.65453
-3.73045
-3.7276
-3.65627
-3.53057
-3.36635
-3.17961
-2.9836
-2.79383
-2.61907
-2.469
-2.3493
-2.26667
-2.21982
-2.21234
-2.23992
-2.29842
-3.08505
-3.34986
-3.53256
-3.63218
-3.65136
-3.59818
-3.48513
-3.32715
-3.1401
-2.93777
-2.73622
-2.54537
-2.37581
-2.23439
-2.12889
-2.05964
-2.03142
-2.04116
-2.08518
-2.91055
-3.20524
-3.41362
-3.53666
-3.57687
-3.54108
-3.44056
-3.28941
-3.10324
-2.89614
-2.68458
-2.47935
-2.29179
-2.12962
-2.00155
-1.90947
-1.85998
-1.8521
-1.88332
-2.76194
-3.07511
-3.30662
-3.45197
-3.51204
-3.49265
-3.40404
-3.2597
-3.07489
-2.86389
-2.64348
-2.4251
-2.2206
-2.03822
-1.88715
-1.77032
-1.69643
-1.66799
-1.68589
-2.63214
-2.96203
-3.21436
-3.3807
-3.4597
-3.45596
-3.37886
-3.24133
-3.05832
-2.84419
-2.6159
-2.38543
-2.16503
-1.96312
-1.78869
-1.64439
-1.54012
-1.48275
-1.48173
-2.51528
-2.86466
-3.13754
-3.32402
-3.42115
-3.43247
-3.36663
-3.23607
-3.05546
-2.83906
-2.60392
-2.36245
-2.12736
-1.90718
-1.7102
-1.53694
-1.39491
-1.29134
-1.25078
-2.41429
-2.78414
-3.07642
-3.28011
-3.39165
-3.41365
-3.3549
-3.2273
-3.04543
-2.82382
-2.57843
-2.32336
-2.07162
-1.83256
-1.61355
-1.41329
-1.23119
-1.0612
-0.901911
-2.33546
-2.72473
-3.03913
-3.26623
-3.40278
-3.45022
-3.41724
-3.31404
-3.15386
-2.95062
-2.71706
-2.46828
-2.21638
-1.97306
-1.74611
-1.53702
-1.34008
-1.1421
-0.917355
-2.28421
-2.68511
-3.01029
-3.24976
-3.40071
-3.46439
-3.4491
-3.36395
-3.22072
-3.03208
-2.8076
-2.56171
-2.30588
-2.05344
-1.81488
-1.59816
-1.40195
-1.22221
-1.04634
-2.29033
-2.69548
-3.02573
-3.2725
-3.43331
-3.5103
-3.51124
-3.44511
-3.32238
-3.15375
-2.94659
-2.71205
-2.45988
-2.20339
-1.95584
-1.72938
-1.52775
-1.3505
-1.18853
-2.3608
-2.76214
-3.08915
-3.33475
-3.49731
-3.58027
-3.59147
-3.54014
-3.43594
-3.28786
-3.10101
-2.88261
-2.63896
-2.3814
-2.12462
-1.88492
-1.67185
-1.48899
-1.32936
-2.49085
-2.88441
-3.2008
-3.43743
-3.59439
-3.6767
-3.69275
-3.65222
-3.5644
-3.43717
-3.27357
-3.07687
-2.84846
-2.59516
-2.33036
-2.07388
-1.84226
-1.64547
-1.47934
-2.67924
-3.05476
-3.35234
-3.57286
-3.71789
-3.79404
-3.81048
-3.77744
-3.70419
-3.59819
-3.46112
-3.29317
-3.09014
-2.85165
-2.58525
-2.31107
-2.0529
-1.83149
-1.649
-2.92579
-3.27206
-3.54478
-3.74373
-3.8719
-3.93747
-3.95057
-3.92193
-3.86099
-3.77557
-3.66704
-3.5345
-3.36923
-3.16241
-2.90999
-2.62493
-2.33295
-2.07006
-1.85445
-3.20189
-3.52324
-3.76842
-3.94156
-4.0488
-4.10019
-4.10683
-4.07968
-4.02841
-3.96161
-3.88155
-3.78899
-3.67433
-3.523
-3.31628
-3.04958
-2.73281
-2.40831
-2.12597
-3.5246
-3.81416
-4.02505
-4.16659
-4.24825
-4.28165
-4.27842
-4.24925
-4.20361
-4.15082
-4.09441
-4.03921
-3.9799
-3.90455
-3.78664
-3.60384
-3.32714
-2.96421
-2.53496
-3.90821
-4.15415
-4.32318
-4.42857
-4.48245
-4.49743
-4.48481
-4.45452
-4.41526
-4.37625
-4.34249
-4.32241
-4.31857
-4.3315
-4.34671
-4.34959
-4.29547
-4.15446
-3.89499
-4.34524
-4.53609
-4.64957
-4.70593
-4.7195
-4.70317
-4.66645
-4.61794
-4.56448
-4.51254
-4.46705
-4.43403
-4.41859
-4.42737
-4.46384
-4.53722
-4.64071
-4.76485
-4.88974
-4.84818
-4.95899
-5.00288
-5.00258
-4.9717
-4.92191
-4.86033
-4.79418
-4.72865
-4.66772
-4.61651
-4.57749
-4.55452
-4.55052
-4.56963
-4.61569
-4.69622
-4.81809
-4.99219
-5.41075
-5.41697
-5.38411
-5.32717
-5.25504
-5.17597
-5.0945
-5.01587
-4.94361
-4.88011
-4.82932
-4.79164
-4.76882
-4.76052
-4.7667
-4.78292
-4.80797
-4.83575
-4.86279
-5.9447
-5.84422
-5.73446
-5.62068
-5.50655
-5.39629
-5.292
-5.19654
-5.11169
-5.0384
-4.97871
-4.93204
-4.89848
-4.87667
-4.86554
-4.86148
-4.86343
-4.86807
-4.87383
-6.39719
-6.21231
-6.03807
-5.8754
-5.72468
-5.58697
-5.46235
-5.35155
-5.25495
-5.1724
-5.10454
-5.0504
-5.00931
-4.97976
-4.96052
-4.94887
-4.94364
-4.94239
-4.94357
-6.76675
-6.51151
-6.28389
-6.08095
-5.90018
-5.73992
-5.59851
-5.47499
-5.36861
-5.27841
-5.2041
-5.14455
-5.09864
-5.06484
-5.04179
-5.02723
-5.01974
-5.01723
-5.01807
-7.03741
-6.728
-6.45945
-6.22635
-6.02355
-5.84704
-5.69365
-5.56114
-5.44795
-5.35256
-5.2741
-5.21136
-5.16291
-5.12722
-5.10273
-5.08739
-5.07937
-5.07662
-5.07727
-7.20616
-6.84958
-6.55305
-6.30192
-6.08691
-5.90174
-5.74216
-5.60507
-5.48846
-5.39055
-5.31014
-5.24602
-5.19666
-5.16055
-5.13611
-5.12147
-5.11473
-5.11391
-5.11703
-7.2062
-6.84966
-6.55314
-6.30202
-6.087
-5.90184
-5.74226
-5.60516
-5.48855
-5.39064
-5.31024
-5.24612
-5.19675
-5.16064
-5.1362
-5.12156
-5.11482
-5.114
-5.11712
-7.03747
-6.72815
-6.45966
-6.22658
-6.02379
-5.84728
-5.69391
-5.56139
-5.4482
-5.35282
-5.27436
-5.21161
-5.16316
-5.12748
-5.103
-5.08767
-5.07968
-5.07696
-5.07764
-6.76686
-6.51175
-6.28421
-6.08131
-5.90057
-5.74032
-5.59892
-5.4754
-5.36902
-5.27882
-5.20451
-5.14496
-5.09905
-5.06526
-5.04222
-5.02767
-5.02021
-5.01772
-5.01859
-6.39733
-6.21261
-6.03847
-5.87586
-5.72518
-5.58749
-5.46287
-5.35208
-5.25548
-5.17292
-5.10506
-5.05091
-5.00981
-4.98026
-4.96101
-4.94934
-4.94411
-4.94285
-4.94402
-5.94486
-5.84456
-5.73491
-5.6212
-5.50712
-5.39688
-5.29262
-5.19716
-5.11232
-5.03904
-4.97934
-4.93265
-4.89908
-4.87724
-4.86607
-4.86197
-4.86388
-4.86848
-4.8742
-5.41092
-5.41733
-5.38459
-5.32773
-5.25567
-5.17663
-5.09519
-5.01658
-4.94433
-4.88083
-4.83004
-4.79234
-4.76948
-4.76111
-4.7672
-4.78329
-4.80817
-4.83577
-4.86262
-4.84836
-4.95939
-5.00345
-5.0033
-4.97254
-4.92287
-4.86139
-4.79536
-4.72993
-4.66912
-4.61805
-4.57917
-4.55634
-4.55247
-4.57167
-4.61767
-4.69784
-4.81887
-4.99141
-4.34536
-4.53618
-4.64966
-4.70602
-4.71957
-4.7032
-4.66642
-4.61783
-4.56425
-4.51214
-4.46644
-4.43311
-4.41727
-4.42552
-4.46141
-4.53425
-4.6377
-4.76283
-4.8904
-3.90828
-4.15433
-4.32348
-4.42901
-4.48304
-4.49818
-4.48571
-4.45557
-4.41647
-4.37763
-4.34405
-4.32419
-4.32067
-4.33412
-4.35021
-4.35454
-4.30257
-4.16433
-3.90799
-3.52464
-3.81419
-4.02513
-4.16674
-4.24848
-4.28197
-4.27883
-4.24975
-4.2042
-4.15152
-4.09523
-4.04021
-3.98121
-3.90633
-3.7891
-3.60712
-3.33107
-2.96821
-2.5379
-3.20191
-3.52325
-3.76846
-3.94167
-4.049
-4.10049
-4.10724
-4.0802
-4.02905
-3.96239
-3.88251
-3.79019
-3.67587
-3.52497
-3.31869
-3.05231
-2.73554
-2.41068
-2.12786
-2.9258
-3.27205
-3.54479
-3.74379
-3.87205
-3.93772
-3.95093
-3.92241
-3.86161
-3.77634
-3.66801
-3.53571
-3.37074
-3.16421
-2.912
-2.62698
-2.33485
-2.07169
-1.85582
-2.67925
-3.05473
-3.35232
-3.57289
-3.718
-3.79425
-3.8108
-3.77789
-3.70477
-3.59894
-3.46205
-3.29432
-3.09151
-2.8532
-2.58687
-2.31264
-2.05432
-1.83273
-1.65012
-2.49085
-2.88437
-3.20075
-3.43742
-3.59445
-3.67686
-3.69302
-3.65262
-3.56495
-3.43787
-3.27444
-3.07792
-2.84967
-2.59646
-2.33167
-2.07511
-1.84338
-1.64649
-1.48031
-2.3608
-2.76209
-3.0891
-3.33473
-3.49735
-3.58039
-3.59171
-3.5405
-3.43644
-3.28851
-3.10181
-2.88354
-2.63999
-2.38248
-2.12568
-1.88593
-1.67278
-1.48988
-1.33026
-2.29033
-2.69543
-3.02567
-3.27246
-3.43333
-3.5104
-3.51144
-3.44543
-3.32283
-3.15432
-2.94729
-2.71286
-2.46075
-2.20428
-1.95672
-1.73022
-1.52855
-1.35132
-1.18945
-2.28421
-2.68506
-3.01021
-3.24968
-3.40067
-3.4644
-3.44917
-3.3641
-3.22097
-3.03242
-2.80801
-2.56217
-2.30636
-2.05392
-1.81532
-1.59858
-1.40239
-1.22276
-1.04723
-2.33554
-2.72478
-3.03919
-3.26632
-3.4029
-3.4504
-3.41749
-3.31437
-3.15428
-2.95113
-2.71766
-2.46895
-2.2171
-1.97381
-1.74687
-1.53779
-1.34084
-1.14282
-0.91798
-2.41437
-2.78422
-3.07649
-3.28016
-3.39167
-3.41363
-3.35485
-3.2272
-3.0453
-2.82364
-2.57822
-2.32312
-2.07136
-1.83228
-1.61324
-1.41294
-1.2308
-1.06076
-0.901403
-2.51534
-2.86471
-3.1376
-3.32407
-3.4212
-3.43251
-3.36665
-3.23609
-3.05547
-2.83906
-2.60391
-2.36244
-2.12734
-1.90717
-1.71019
-1.53693
-1.39491
-1.29136
-1.25082
-2.63219
-2.96207
-3.2144
-3.38073
-3.45972
-3.45597
-3.37886
-3.24132
-3.0583
-2.84416
-2.61587
-2.3854
-2.165
-1.9631
-1.78867
-1.64438
-1.54012
-1.48276
-1.48175
-2.76198
-3.07514
-3.30665
-3.45199
-3.51205
-3.49265
-3.40404
-3.25969
-3.07487
-2.86387
-2.64346
-2.42507
-2.22058
-2.0382
-1.88714
-1.77031
-1.69644
-1.66799
-1.6859
-2.91059
-3.20527
-3.41364
-3.53667
-3.57688
-3.54108
-3.44055
-3.2894
-3.10323
-2.89612
-2.68456
-2.47934
-2.29178
-2.12961
-2.00154
-1.90947
-1.85998
-1.8521
-1.88333
-3.08508
-3.34988
-3.53258
-3.63219
-3.65137
-3.59818
-3.48512
-3.32714
-3.14009
-2.93776
-2.73621
-2.54536
-2.3758
-2.23439
-2.12889
-2.05964
-2.03142
-2.04116
-2.08518
-3.25784
-3.49563
-3.65455
-3.73045
-3.7276
-3.65627
-3.53057
-3.36634
-3.1796
-2.98359
-2.79382
-2.61907
-2.469
-2.3493
-2.26667
-2.21982
-2.21234
-2.23992
-2.29842
-3.43253
-3.65496
-3.7903
-3.84012
-3.81282
-3.7216
-3.58243
-3.41197
-3.2262
-3.0376
-2.86092
-2.70355
-2.5741
-2.47695
-2.41774
-2.39363
-2.40757
-2.45435
-2.52963
-3.63063
-3.82919
-3.93425
-3.95284
-3.89759
-3.78457
-3.63163
-3.45582
-3.27273
-3.0937
-2.93246
-2.7948
-2.68815
-2.61551
-2.58163
-2.58219
-2.61988
-2.68879
-2.78437
-3.84791
-4.01034
-4.07796
-4.05991
-3.97343
-3.83762
-3.67176
-3.49277
-3.31527
-3.14898
-3.00647
-2.89165
-2.81079
-2.76554
-2.75998
-2.78831
-2.85341
-2.94864
-3.06934
-4.06908
-4.1924
-4.21572
-4.15533
-4.03498
-3.87669
-3.70018
-3.52145
-3.35349
-3.20388
-3.08407
-2.99579
-2.94433
-2.93004
-2.95666
-3.01686
-3.11418
-3.24125
-3.39342
-4.3052
-4.37864
-4.34522
-4.23581
-4.08005
-3.90117
-3.71775
-3.54388
-3.39024
-3.26188
-3.16924
-3.11171
-3.09384
-3.11476
-3.17829
-3.27541
-3.41096
-3.57684
-3.76876
-4.56638
-4.55419
-4.44994
-4.28792
-4.09873
-3.90446
-3.72045
-3.55804
-3.42508
-3.32368
-3.26382
-3.24224
-3.26322
-3.32479
-3.43141
-3.57207
-3.75383
-3.9679
-4.21092
-4.77681
-4.66866
-4.49251
-4.28265
-4.06846
-3.86919
-3.69475
-3.5533
-3.44953
-3.38244
-3.36247
-3.38348
-3.45015
-3.55959
-3.7178
-3.91146
-4.15128
-4.42784
-4.73962
-4.94478
-4.74355
-4.49447
-4.24284
-4.01347
-3.81983
-3.66435
-3.55205
-3.48457
-3.45798
-3.48427
-3.55414
-3.67347
-3.83863
-4.05813
-4.31586
-4.6279
-4.98462
-5.38839
-5.07604
-4.7464
-4.42608
-4.14789
-3.92012
-3.74712
-3.62266
-3.54953
-3.52701
-3.54858
-3.62921
-3.75625
-3.9377
-4.16948
-4.46394
-4.8016
-5.20654
-5.66959
-6.20117
-5.05311
-4.60507
-4.24496
-3.97095
-3.76859
-3.63442
-3.55443
-3.53139
-3.5633
-3.64162
-3.78606
-3.98042
-4.23617
-4.54928
-4.93809
-5.3793
-5.90919
-6.52077
-7.24182
-4.84029
-4.33883
-3.98566
-3.74711
-3.59008
-3.50816
-3.48205
-3.51689
-3.61062
-3.75337
-3.9713
-4.24463
-4.58985
-5.00372
-5.51326
-6.09121
-6.79192
-7.61419
-8.62619
-4.39623
-3.92812
-3.63512
-3.46291
-3.36942
-3.35141
-3.38761
-3.48759
-3.65058
-3.86627
-4.16902
-4.53606
-4.99091
-5.53276
-6.20152
-6.96716
-7.91188
-9.04829
-10.5452
-3.7234
-3.3915
-3.20603
-3.12274
-3.10463
-3.15746
-3.26098
-3.43081
-3.66871
-3.96512
-4.3645
-4.84253
-5.43273
-6.13985
-7.02361
-8.05545
-9.36247
-10.9879
-13.3691
-2.87894
-2.75919
-2.70927
-2.72568
-2.78767
-2.91311
-3.08499
-3.32566
-3.64075
-4.02306
-4.52933
-5.1365
-5.89274
-6.81451
-7.99368
-9.41424
-11.281
-13.7042
-17.8709
-1.96585
-2.0698
-2.15651
-2.2707
-2.41044
-2.60492
-2.84113
-3.14813
-3.53653
-4.00347
-4.62082
-5.37103
-6.32438
-7.52105
-9.10772
-11.108
-13.8725
-17.6605
-25.8033
-1.09693
-1.36329
-1.56091
-1.75984
-1.96904
-2.22404
-2.51485
-2.8763
-3.32424
-3.86261
-4.58132
-5.47327
-6.64211
-8.17431
-10.3132
-13.1861
-17.44
-23.6837
-41.4044
-0.359485
-0.67143
-0.934993
-1.19892
-1.46592
-1.76986
-2.10004
-2.49612
-2.97643
-3.55462
-4.34109
-5.3395
-6.7063
-8.63105
-11.59
-16.1743
-24.3274
-39.3403
-92.9369
)
;

boundaryField
{
    up
    {
        type            calculated;
        value           nonuniform List<scalar> 
84
(
-84.2171
-45.6111
-28.0081
-19.1479
-14.1785
-11.0954
-9.0199
-7.53453
-6.42403
-5.56236
-4.87707
-4.32046
-3.8574
-3.46555
-3.12832
-2.83289
-2.56971
-2.33163
-2.11275
-1.90646
-1.70528
-1.49579
-1.243
-0.813187
-0.790854
-0.994099
-1.14151
-1.28215
-1.4292
-1.59293
-1.78565
-2.022
-2.37458
-3.90015
-5.0636
-5.09655
-4.86801
-4.87354
-4.94276
-5.01815
-5.07788
-5.11937
-5.11946
-5.07827
-5.01868
-4.94322
-4.8739
-4.86778
-5.09452
-5.0644
-3.91552
-2.37729
-2.02365
-1.78695
-1.59402
-1.43016
-1.28307
-1.14246
-0.99537
-0.791719
-0.812666
-1.24305
-1.49582
-1.70529
-1.90647
-2.11275
-2.33164
-2.56971
-2.83289
-3.12832
-3.46555
-3.8574
-4.32046
-4.87707
-5.56236
-6.42404
-7.53453
-9.01991
-11.0954
-14.1785
-19.1479
-28.0081
-45.6111
-84.2171
)
;
    }
    low
    {
        type            calculated;
        value           nonuniform List<scalar> 
84
(
-0.385095
-1.14364
-2.06832
-3.05317
-3.96627
-4.68589
-5.14168
-5.33469
-5.30061
-5.09486
-4.88661
-4.63689
-4.32282
-4.0571
-3.8188
-3.5791
-3.36201
-3.18215
-2.99892
-2.79992
-2.63304
-2.48967
-2.35594
-2.23894
-2.13077
-2.06691
-2.07494
-2.16507
-2.32047
-2.54169
-2.81725
-3.11246
-3.45896
-3.87207
-4.33456
-4.87326
-5.48777
-6.05776
-6.53464
-6.92564
-7.2137
-7.40394
-7.40397
-7.21374
-6.9257
-6.53472
-6.05784
-5.48787
-4.87336
-4.33455
-3.87214
-3.45894
-3.11246
-2.81726
-2.54169
-2.32047
-2.16509
-2.07497
-2.06694
-2.13082
-2.23904
-2.35597
-2.48972
-2.63308
-2.79995
-2.99895
-3.18217
-3.36202
-3.57912
-3.8188
-4.0571
-4.32282
-4.63688
-4.8866
-5.09486
-5.30061
-5.3347
-5.1417
-4.68591
-3.9663
-3.05319
-2.06834
-1.14365
-0.385097
)
;
    }
    left
    {
        type            calculated;
        value           nonuniform List<scalar> 
19
(
-0.352507
-0.658503
-0.926679
-1.19848
-1.47551
-1.79087
-2.13486
-2.54937
-3.0537
-3.66802
-4.50837
-5.58405
-7.07295
-9.20212
-12.5063
-17.7098
-27.0759
-44.5304
-87.3543
)
;
    }
    right
    {
        type            calculated;
        value           nonuniform List<scalar> 
19
(
-0.352509
-0.658505
-0.92668
-1.19848
-1.47551
-1.79087
-2.13486
-2.54937
-3.05369
-3.66802
-4.50837
-5.58404
-7.07294
-9.20212
-12.5063
-17.7098
-27.0759
-44.5304
-87.3543
)
;
    }
    frontAndBackPlanes
    {
        type            empty;
    }
}


// ************************************************************************* //
