/*--------------------------------*- C++ -*----------------------------------*\
  =========                 |
  \\      /  F ield         | OpenFOAM: The Open Source CFD Toolbox
   \\    /   O peration     | Website:  https://openfoam.org
    \\  /    A nd           | Version:  7
     \\/     M anipulation  |
\*---------------------------------------------------------------------------*/
FoamFile
{
    version     2.0;
    format      ascii;
    class       volScalarField;
    location    "0.5";
    object      gradTy;
}
// * * * * * * * * * * * * * * * * * * * * * * * * * * * * * * * * * * * * * //

dimensions      [0 -1 0 1 0 0 0];

internalField   nonuniform List<scalar> 
1596
(
-0.389168
-0.729179
-1.02118
-1.31954
-1.6284
-1.98622
-2.38236
-2.86232
-3.44827
-4.15674
-5.11673
-6.33392
-7.99328
-10.3209
-13.8863
-19.3988
-29.1892
-47.2078
-111.524
-1.18801
-1.48291
-1.71127
-1.94925
-2.20666
-2.52265
-2.88647
-3.33727
-3.89359
-4.56028
-5.44145
-6.53006
-7.9483
-9.79959
-12.3747
-15.8276
-20.9338
-28.4252
-49.6874
-2.12789
-2.25133
-2.36687
-2.52177
-2.71308
-2.97211
-3.28415
-3.68115
-4.17504
-4.76249
-5.52574
-6.44543
-7.60391
-9.04959
-10.9576
-13.3583
-16.6718
-21.2112
-30.9752
-3.11218
-2.99815
-2.9724
-3.02875
-3.14316
-3.33394
-3.58156
-3.90989
-4.32476
-4.81755
-5.45231
-6.20311
-7.12586
-8.24079
-9.65727
-11.3588
-13.5905
-16.4871
-21.4744
-4.01695
-3.6786
-3.51203
-3.46646
-3.49996
-3.61709
-3.79462
-4.04841
-4.37958
-4.77671
-5.28894
-5.88894
-6.61498
-7.47333
-8.53474
-9.76807
-11.3249
-13.2601
-16.1
-4.73025
-4.25016
-3.97233
-3.83535
-3.79184
-3.83621
-3.94402
-4.12406
-4.37432
-4.68243
-5.08533
-5.55753
-6.1252
-6.78797
-7.59261
-8.50653
-9.62712
-10.9728
-12.7478
-5.19139
-4.68048
-4.34173
-4.13672
-4.02805
-4.00641
-4.04954
-4.16097
-4.33702
-4.56577
-4.87424
-5.24039
-5.68185
-6.19528
-6.81178
-7.50218
-8.33023
-9.29793
-10.4887
-5.40007
-4.95083
-4.60758
-4.36691
-4.21188
-4.13624
-4.12346
-4.17422
-4.28468
-4.44434
-4.6724
-4.9509
-5.29136
-5.68934
-6.16531
-6.69485
-7.31981
-8.03525
-8.87618
-5.40341
-5.08397
-4.78551
-4.54216
-4.3617
-4.24624
-4.18766
-4.18642
-4.23987
-4.33968
-4.49927
-4.70465
-4.96305
-5.26978
-5.63797
-6.04761
-6.52577
-7.06484
-7.67904
-5.24227
-5.06134
-4.84008
-4.62604
-4.44485
-4.30841
-4.21794
-4.17613
-4.18276
-4.23221
-4.33431
-4.47867
-4.66988
-4.90357
-5.18808
-5.50719
-5.87829
-6.293
-6.75585
-5.04363
-4.96224
-4.81919
-4.65023
-4.48591
-4.34436
-4.23473
-4.16305
-4.13222
-4.13973
-4.19351
-4.28645
-4.42168
-4.59544
-4.81296
-5.06099
-5.35045
-5.67299
-6.02836
-4.80212
-4.82197
-4.75524
-4.63743
-4.50025
-4.36484
-4.24607
-4.15331
-4.09272
-4.06502
-4.07756
-4.12623
-4.21355
-4.33663
-4.49877
-4.68911
-4.91424
-5.16618
-5.44249
-4.5097
-4.61848
-4.6259
-4.56357
-4.46196
-4.34331
-4.22583
-4.12174
-4.04014
-3.98479
-3.96352
-3.97493
-4.02184
-4.10244
-4.21922
-4.36325
-4.5385
-4.7375
-4.95649
-4.24658
-4.40601
-4.47223
-4.46131
-4.39721
-4.3008
-4.19126
-4.08277
-3.98676
-3.90955
-3.86017
-3.83954
-3.8514
-3.8952
-3.97335
-4.07852
-4.21325
-4.3705
-4.54591
-4.00191
-4.20019
-4.31178
-4.34504
-4.31679
-4.24467
-4.14709
-4.03909
-3.93364
-3.83918
-3.76608
-3.71742
-3.69817
-3.70922
-3.75351
-3.82515
-3.92605
-4.04965
-4.19136
-3.76391
-3.99755
-4.147
-4.21825
-4.22304
-4.17559
-4.09244
-3.98859
-3.87781
-3.77003
-3.67697
-3.60361
-3.55636
-3.53771
-3.55163
-3.5937
-3.66585
-3.76201
-3.87752
-3.54837
-3.80443
-3.98408
-4.0876
-4.12203
-4.09834
-4.0307
-3.93341
-3.82035
-3.70239
-3.59241
-3.49695
-3.42395
-3.3776
-3.36328
-3.37824
-3.42504
-3.49819
-3.59298
-3.35943
-3.62906
-3.83193
-3.96241
-4.02298
-4.02131
-3.96915
-3.87959
-3.7662
-3.64026
-3.51549
-3.39968
-3.3022
-3.2289
-3.18692
-3.1754
-3.19832
-3.25105
-3.32892
-3.17465
-3.46983
-3.69609
-3.85112
-3.93554
-3.95442
-3.91734
-3.836
-3.72333
-3.59073
-3.4524
-3.31708
-3.19533
-3.09449
-3.02358
-2.98399
-2.98198
-3.01459
-3.07767
-2.99007
-3.31373
-3.56527
-3.74456
-3.85188
-3.89078
-3.86899
-3.79687
-3.68651
-3.54906
-3.39896
-3.24554
-3.10018
-2.97136
-2.8698
-2.79916
-2.76918
-2.7801
-2.82958
-2.83412
-3.17475
-3.44918
-3.6518
-3.78113
-3.83939
-3.83274
-3.77031
-3.66322
-3.52216
-3.36158
-3.19106
-3.02249
-2.86487
-2.72993
-2.62297
-2.55783
-2.54042
-2.57396
-2.69936
-3.05557
-3.35085
-3.57577
-3.72651
-3.80381
-3.81239
-3.76019
-3.65733
-3.51385
-3.34401
-3.15744
-2.96632
-2.77962
-2.60899
-2.45937
-2.34735
-2.2863
-2.29345
-2.57963
-2.95487
-3.2712
-3.518
-3.68976
-3.78593
-3.80995
-3.76869
-3.67117
-3.52657
-3.3488
-3.1474
-2.93485
-2.72004
-2.51361
-2.31722
-2.14459
-2.0104
-1.95681
-2.47793
-2.87405
-3.21099
-3.4772
-3.66646
-3.77705
-3.81202
-3.77696
-3.68003
-3.52987
-3.33858
-3.11722
-2.87863
-2.63263
-2.38872
-2.14576
-1.90577
-1.66342
-1.42159
-2.40059
-2.81719
-3.17753
-3.46889
-3.68569
-3.82526
-3.89069
-3.88579
-3.81702
-3.69211
-3.51895
-3.30943
-3.07495
-2.82807
-2.57829
-2.3277
-2.07001
-1.78815
-1.44687
-2.35316
-2.78297
-3.15469
-3.45819
-3.68859
-3.84341
-3.92574
-3.93863
-3.88718
-3.77772
-3.6143
-3.4078
-3.16875
-2.91182
-2.65013
-2.39485
-2.14623
-1.90089
-1.64387
-2.36726
-2.80463
-3.18364
-3.49555
-3.73596
-3.9038
-4.00213
-4.03449
-4.00507
-3.91819
-3.77556
-3.58385
-3.35126
-3.09229
-2.82365
-2.56177
-2.31387
-2.08144
-1.85459
-2.45104
-2.88952
-3.26886
-3.58165
-3.82442
-3.99789
-4.10576
-4.1526
-4.14241
-4.07811
-3.95912
-3.78728
-3.56643
-3.30827
-3.0313
-2.7571
-2.5007
-2.26875
-2.05442
-2.60082
-3.0377
-3.41076
-3.71702
-3.9548
-4.12695
-4.23828
-4.29476
-4.3008
-4.25881
-4.16642
-4.02081
-3.81962
-3.56849
-3.28404
-2.99201
-2.71671
-2.47303
-2.258
-2.81683
-3.24215
-3.60068
-3.89291
-4.11879
-4.28328
-4.39268
-4.45443
-4.47391
-4.45398
-4.39154
-4.28042
-4.1114
-3.8806
-3.59667
-3.28516
-2.97974
-2.7093
-2.47941
-3.10068
-3.50261
-3.83987
-4.11175
-4.31982
-4.47122
-4.57394
-4.63683
-4.66647
-4.66719
-4.63659
-4.56789
-4.44661
-4.25792
-3.99495
-3.67301
-3.32774
-3.0077
-2.7399
-3.42362
-3.80591
-4.11793
-4.36367
-4.54837
-4.68169
-4.77328
-4.83309
-4.86886
-4.88694
-4.88713
-4.86576
-4.80802
-4.69205
-4.4917
-4.19839
-3.82579
-3.42971
-3.07899
-3.80523
-4.15913
-4.43703
-4.6488
-4.80365
-4.91346
-4.98905
-5.04073
-5.07686
-5.10553
-5.12916
-5.15025
-5.16051
-5.14242
-5.06037
-4.88225
-4.56956
-4.13003
-3.59043
-4.26248
-4.57314
-4.80666
-4.97772
-5.09893
-5.18376
-5.24316
-5.28718
-5.32392
-5.36213
-5.40679
-5.46584
-5.54201
-5.63507
-5.72651
-5.79586
-5.78533
-5.65311
-5.35699
-4.78915
-5.04173
-5.21391
-5.32861
-5.40121
-5.44576
-5.4715
-5.48715
-5.49895
-5.51262
-5.53324
-5.56601
-5.61693
-5.69377
-5.80175
-5.95256
-6.14005
-6.35251
-6.56651
-5.40009
-5.56461
-5.65837
-5.70763
-5.72725
-5.73005
-5.72271
-5.71254
-5.70399
-5.70007
-5.7061
-5.72315
-5.75551
-5.80611
-5.8804
-5.9827
-6.12426
-6.3143
-6.56881
-6.08759
-6.13277
-6.13785
-6.12057
-6.0906
-6.05679
-6.02296
-5.9941
-5.97284
-5.9604
-5.96061
-5.97221
-5.99678
-6.03313
-6.08119
-6.13476
-6.19337
-6.24942
-6.29967
-6.74884
-6.66783
-6.58117
-6.49513
-6.41321
-6.33943
-6.27476
-6.2213
-6.17966
-6.14945
-6.13211
-6.1254
-6.12891
-6.14033
-6.15837
-6.17836
-6.20003
-6.21974
-6.23676
-7.31759
-7.133
-6.96701
-6.82019
-6.69186
-6.58207
-6.48933
-6.41319
-6.35258
-6.30591
-6.27291
-6.25116
-6.23934
-6.23524
-6.23744
-6.2427
-6.25061
-6.2588
-6.26656
-7.78568
-7.51294
-7.28004
-7.08229
-6.91523
-6.77543
-6.65929
-6.56425
-6.48791
-6.42784
-6.38264
-6.34989
-6.32782
-6.31434
-6.30792
-6.30616
-6.3082
-6.31222
-6.31732
-8.12932
-7.78817
-7.50364
-7.2675
-7.07187
-6.9103
-6.77737
-6.66892
-6.58161
-6.51243
-6.45925
-6.41971
-6.39175
-6.37334
-6.36275
-6.35793
-6.35746
-6.35961
-6.36311
-8.34104
-7.94204
-7.62274
-7.36381
-7.15237
-6.9792
-6.83753
-6.72219
-6.62932
-6.55563
-6.49859
-6.45593
-6.42547
-6.40527
-6.39358
-6.38865
-6.38888
-6.39269
-6.39864
-8.34109
-7.94213
-7.62284
-7.36393
-7.15248
-6.97931
-6.83764
-6.7223
-6.62943
-6.55573
-6.49868
-6.45603
-6.42556
-6.40535
-6.39366
-6.38873
-6.38895
-6.39276
-6.3987
-8.12941
-7.78836
-7.50389
-7.26778
-7.07216
-6.91059
-6.77767
-6.6692
-6.58188
-6.5127
-6.4595
-6.41996
-6.39199
-6.37357
-6.36298
-6.35817
-6.35771
-6.35989
-6.36342
-7.78582
-7.51324
-7.28043
-7.08273
-6.91569
-6.7759
-6.65976
-6.56471
-6.48836
-6.42828
-6.38306
-6.35029
-6.3282
-6.31471
-6.30829
-6.30653
-6.30856
-6.3126
-6.31771
-7.31778
-7.13338
-6.9675
-6.82075
-6.69246
-6.58267
-6.48994
-6.41379
-6.35316
-6.30646
-6.27344
-6.25165
-6.2398
-6.23566
-6.23781
-6.24303
-6.25089
-6.25904
-6.26676
-6.74905
-6.66825
-6.58172
-6.49577
-6.4139
-6.34014
-6.27548
-6.22202
-6.18036
-6.15013
-6.13275
-6.126
-6.12944
-6.14079
-6.15875
-6.17864
-6.20021
-6.21981
-6.23674
-6.08782
-6.13322
-6.13844
-6.12126
-6.09135
-6.05758
-6.02377
-5.99492
-5.97364
-5.96118
-5.96135
-5.9729
-5.99738
-6.03359
-6.08146
-6.1348
-6.19312
-6.24886
-6.2988
-5.40033
-5.56509
-5.65906
-5.7085
-5.72826
-5.73119
-5.72397
-5.71391
-5.70548
-5.70169
-5.70786
-5.72506
-5.75757
-5.80829
-5.88264
-5.98476
-6.12577
-6.31461
-6.56694
-4.78931
-5.04186
-5.21403
-5.32872
-5.40128
-5.44576
-5.47139
-5.4869
-5.49851
-5.51193
-5.53223
-5.56455
-5.61488
-5.69095
-5.79805
-5.94803
-6.1353
-6.34888
-6.56624
-4.26258
-4.57336
-4.807
-4.9782
-5.09955
-5.18452
-5.24407
-5.28824
-5.32514
-5.36351
-5.40837
-5.46766
-5.54422
-5.63793
-5.73052
-5.80177
-5.7941
-5.66557
-5.37364
-3.80529
-4.15919
-4.43713
-4.64895
-4.80387
-4.91374
-4.98941
-5.04116
-5.07736
-5.10612
-5.12987
-5.15118
-5.16181
-5.14434
-5.06319
-4.88616
-4.57436
-4.13495
-3.59397
-3.42367
-3.80594
-4.11799
-4.36379
-4.54856
-4.68196
-4.77365
-4.83355
-4.86944
-4.88766
-4.88805
-4.86698
-4.80968
-4.69427
-4.49453
-4.20166
-3.82909
-3.43256
-3.08124
-3.10073
-3.50262
-3.83989
-4.11181
-4.31995
-4.47144
-4.57426
-4.63725
-4.66703
-4.66793
-4.63756
-4.56917
-4.44826
-4.25997
-3.99731
-3.67545
-3.32999
-3.00964
-2.74155
-2.81686
-3.24214
-3.60067
-3.89294
-4.11888
-4.28345
-4.39295
-4.45482
-4.47445
-4.4547
-4.39249
-4.28165
-4.11292
-3.88236
-3.59855
-3.287
-2.98142
-2.71079
-2.48078
-2.60084
-3.03768
-3.41073
-3.71702
-3.95486
-4.12708
-4.23851
-4.29511
-4.30131
-4.2595
-4.16731
-4.02193
-3.82095
-3.56996
-3.28555
-2.99346
-2.71805
-2.47428
-2.25923
-2.45107
-2.88949
-3.26882
-3.58163
-3.82445
-3.99799
-4.10596
-4.15292
-4.14288
-4.07874
-3.95993
-3.78827
-3.56756
-3.30948
-3.03252
-2.75828
-2.50183
-2.26987
-2.05561
-2.36728
-2.8046
-3.1836
-3.49551
-3.73597
-3.90388
-4.0023
-4.03478
-4.00549
-3.91876
-3.77628
-3.5847
-3.35222
-3.09329
-2.82465
-2.56275
-2.31487
-2.08251
-1.85585
-2.35318
-2.78294
-3.15463
-3.45812
-3.68853
-3.84339
-3.92577
-3.93874
-3.88737
-3.778
-3.61466
-3.40822
-3.16919
-2.91225
-2.65054
-2.39526
-2.1467
-1.9016
-1.64513
-2.4007
-2.81728
-3.17763
-3.46902
-3.68586
-3.82549
-3.89101
-3.8862
-3.81754
-3.69275
-3.51969
-3.31027
-3.07587
-2.82906
-2.57931
-2.32875
-2.07106
-1.78918
-1.44779
-2.47804
-2.87416
-3.2111
-3.47729
-3.66652
-3.77709
-3.81201
-3.77691
-3.67992
-3.52971
-3.33836
-3.11695
-2.87829
-2.63223
-2.38825
-2.14522
-1.90514
-1.6627
-1.42079
-2.57972
-2.95495
-3.27129
-3.51809
-3.68984
-3.78601
-3.81001
-3.76874
-3.67119
-3.52658
-3.34879
-3.14737
-2.93481
-2.71999
-2.51355
-2.31716
-2.14454
-2.01039
-1.95685
-2.69943
-3.05564
-3.35091
-3.57583
-3.72656
-3.80385
-3.81242
-3.7602
-3.65732
-3.51383
-3.34398
-3.1574
-2.96626
-2.77955
-2.60893
-2.45932
-2.34732
-2.28628
-2.29345
-2.83419
-3.17481
-3.44924
-3.65185
-3.78117
-3.83942
-3.83276
-3.77032
-3.66321
-3.52214
-3.36155
-3.19102
-3.02245
-2.86482
-2.72989
-2.62294
-2.55781
-2.54041
-2.57396
-2.99013
-3.31378
-3.56532
-3.7446
-3.85191
-3.8908
-3.869
-3.79687
-3.6865
-3.54904
-3.39894
-3.24551
-3.10015
-2.97132
-2.86976
-2.79914
-2.76916
-2.78009
-2.82956
-3.1747
-3.46988
-3.69613
-3.85116
-3.93557
-3.95444
-3.91735
-3.836
-3.72333
-3.59072
-3.45238
-3.31706
-3.19531
-3.09446
-3.02356
-2.98397
-2.98196
-3.01457
-3.07766
-3.35948
-3.6291
-3.83197
-3.96244
-4.02301
-4.02132
-3.96916
-3.87959
-3.7662
-3.64025
-3.51547
-3.39966
-3.30219
-3.22888
-3.18691
-3.17539
-3.19831
-3.25103
-3.32891
-3.5484
-3.80446
-3.98411
-4.08762
-4.12205
-4.09835
-4.03071
-3.93341
-3.82035
-3.70238
-3.5924
-3.49693
-3.42394
-3.37759
-3.36327
-3.37822
-3.42503
-3.49818
-3.59296
-3.76393
-3.99758
-4.14702
-4.21826
-4.22306
-4.1756
-4.09245
-3.9886
-3.87781
-3.77003
-3.67697
-3.6036
-3.55635
-3.53771
-3.55162
-3.59369
-3.66584
-3.762
-3.87751
-4.00192
-4.20021
-4.3118
-4.34505
-4.3168
-4.24468
-4.14709
-4.03909
-3.93364
-3.83918
-3.76608
-3.71742
-3.69817
-3.70922
-3.7535
-3.82515
-3.92605
-4.04964
-4.19135
-4.24659
-4.40602
-4.47224
-4.46132
-4.39722
-4.3008
-4.19126
-4.08277
-3.98676
-3.90955
-3.86017
-3.83954
-3.8514
-3.8952
-3.97335
-4.07852
-4.21324
-4.37049
-4.54591
-4.50971
-4.61849
-4.62591
-4.56358
-4.46196
-4.34331
-4.22584
-4.12174
-4.04015
-3.98479
-3.96353
-3.97493
-4.02184
-4.10244
-4.21922
-4.36325
-4.5385
-4.7375
-4.95649
-4.80213
-4.82197
-4.75524
-4.63743
-4.50025
-4.36483
-4.24607
-4.15331
-4.09272
-4.06502
-4.07756
-4.12622
-4.21355
-4.33663
-4.49877
-4.68911
-4.91424
-5.16619
-5.44249
-5.04363
-4.96225
-4.8192
-4.65024
-4.48592
-4.34436
-4.23473
-4.16305
-4.13222
-4.13972
-4.19351
-4.28645
-4.42168
-4.59544
-4.81296
-5.06099
-5.35046
-5.67299
-6.02837
-5.24228
-5.06134
-4.84008
-4.62604
-4.44485
-4.30841
-4.21794
-4.17613
-4.18276
-4.23221
-4.33431
-4.47866
-4.66987
-4.90356
-5.18808
-5.50719
-5.87829
-6.29301
-6.75586
-5.40342
-5.08398
-4.78552
-4.54216
-4.3617
-4.24625
-4.18766
-4.18642
-4.23987
-4.33967
-4.49927
-4.70465
-4.96305
-5.26978
-5.63796
-6.0476
-6.52578
-7.06485
-7.67905
-5.40008
-4.95084
-4.60759
-4.36692
-4.21188
-4.13624
-4.12346
-4.17422
-4.28467
-4.44434
-4.6724
-4.95089
-5.29135
-5.68933
-6.16531
-6.69485
-7.31981
-8.03526
-8.87619
-5.19141
-4.68049
-4.34173
-4.13672
-4.02805
-4.00641
-4.04954
-4.16097
-4.33702
-4.56577
-4.87423
-5.24038
-5.68184
-6.19528
-6.81178
-7.50218
-8.33022
-9.29793
-10.4887
-4.73026
-4.25017
-3.97234
-3.83536
-3.79185
-3.83622
-3.94402
-4.12406
-4.37432
-4.68243
-5.08533
-5.55753
-6.12519
-6.78797
-7.59261
-8.50652
-9.62712
-10.9728
-12.7478
-4.01696
-3.67861
-3.51204
-3.46647
-3.49996
-3.61709
-3.79462
-4.04841
-4.37958
-4.77671
-5.28894
-5.88894
-6.61497
-7.47333
-8.53473
-9.76806
-11.3249
-13.2601
-16.1
-3.11219
-2.99816
-2.97241
-3.02875
-3.14317
-3.33394
-3.58156
-3.90989
-4.32476
-4.81756
-5.45231
-6.20311
-7.12586
-8.24079
-9.65726
-11.3588
-13.5905
-16.4871
-21.4744
-2.1279
-2.25133
-2.36687
-2.52177
-2.71308
-2.97211
-3.28416
-3.68115
-4.17505
-4.76249
-5.52574
-6.44543
-7.60391
-9.04959
-10.9576
-13.3583
-16.6718
-21.2112
-30.9752
-1.18801
-1.48291
-1.71127
-1.94925
-2.20666
-2.52266
-2.88647
-3.33727
-3.89359
-4.56028
-5.44145
-6.53006
-7.9483
-9.79959
-12.3747
-15.8276
-20.9338
-28.4252
-49.6874
-0.389166
-0.729177
-1.02118
-1.31954
-1.6284
-1.98622
-2.38236
-2.86232
-3.44827
-4.15674
-5.11673
-6.33393
-7.99328
-10.3209
-13.8863
-19.3988
-29.1892
-47.2078
-111.524
)
;

boundaryField
{
    up
    {
        type            calculated;
        value           nonuniform List<scalar> 
84
(
-101.06
-54.7326
-33.6155
-22.9988
-17.0609
-13.3961
-10.9484
-9.21445
-7.93392
-6.95302
-6.18303
-5.56526
-5.05594
-4.62737
-4.25886
-3.93422
-3.64126
-3.37058
-3.11404
-2.862
-2.60297
-2.31595
-1.94601
-1.28333
-1.25062
-1.56705
-1.7885
-1.99066
-2.19248
-2.4079
-2.65311
-2.94692
-3.38564
-5.38264
-6.81548
-6.71595
-6.31168
-6.23969
-6.26756
-6.31861
-6.36456
-6.40201
-6.40206
-6.36488
-6.31901
-6.26776
-6.23964
-6.31073
-6.71236
-6.81534
-5.40245
-3.38887
-2.94888
-2.65468
-2.40925
-2.19371
-1.99188
-1.78982
-1.5689
-1.25193
-1.28253
-1.94607
-2.31596
-2.60296
-2.86199
-3.11402
-3.37057
-3.64125
-3.93421
-4.25885
-4.62737
-5.05594
-5.56526
-6.18304
-6.95303
-7.93393
-9.21446
-10.9484
-13.3961
-17.0609
-22.9988
-33.6155
-54.7326
-101.06
)
;
    }
    low
    {
        type            calculated;
        value           nonuniform List<scalar> 
84
(
-0.416447
-1.237
-2.23571
-3.29583
-4.27285
-5.03467
-5.50656
-5.69223
-5.63324
-5.39179
-5.14981
-4.86671
-4.51894
-4.22528
-3.96339
-3.70288
-3.46845
-3.27495
-3.08018
-2.87115
-2.69708
-2.5489
-2.41218
-2.29407
-2.18635
-2.12546
-2.1405
-2.24309
-2.41733
-2.66577
-2.97822
-3.3198
-3.72571
-4.21421
-4.76841
-5.41916
-6.16574
-6.86946
-7.46828
-7.96316
-8.3286
-8.56611
-8.56615
-8.32865
-7.96324
-7.46839
-6.86958
-6.16587
-5.41931
-4.76843
-4.21431
-3.72572
-3.31983
-2.97825
-2.6658
-2.41736
-2.24313
-2.14055
-2.12552
-2.18643
-2.29419
-2.41224
-2.54898
-2.69714
-2.8712
-3.08023
-3.27499
-3.46848
-3.70291
-3.96341
-4.22529
-4.51895
-4.86672
-5.14981
-5.3918
-5.63325
-5.69224
-5.50658
-5.03469
-4.27286
-3.29584
-2.23571
-1.237
-0.416444
)
;
    }
    left
    {
        type            calculated;
        value           nonuniform List<scalar> 
19
(
-0.381612
-0.715165
-1.01215
-1.31914
-1.63923
-2.01019
-2.42265
-2.92475
-3.53993
-4.29242
-5.31791
-6.62893
-8.43582
-11.0095
-14.9896
-21.2451
-32.4904
-53.4377
-104.826
)
;
    }
    right
    {
        type            calculated;
        value           nonuniform List<scalar> 
19
(
-0.381609
-0.715162
-1.01215
-1.31913
-1.63923
-2.01019
-2.42265
-2.92475
-3.53993
-4.29242
-5.31791
-6.62893
-8.43582
-11.0095
-14.9896
-21.2451
-32.4904
-53.4377
-104.826
)
;
    }
    frontAndBackPlanes
    {
        type            empty;
    }
}


// ************************************************************************* //
