/*--------------------------------*- C++ -*----------------------------------*\
  =========                 |
  \\      /  F ield         | OpenFOAM: The Open Source CFD Toolbox
   \\    /   O peration     | Website:  https://openfoam.org
    \\  /    A nd           | Version:  7
     \\/     M anipulation  |
\*---------------------------------------------------------------------------*/
FoamFile
{
    version     2.0;
    format      ascii;
    class       volScalarField;
    location    "0.18";
    object      T;
}
// * * * * * * * * * * * * * * * * * * * * * * * * * * * * * * * * * * * * * //

dimensions      [0 0 0 1 0 0 0];

internalField   nonuniform List<scalar> 
1596
(
0.996716
0.987331
0.977829
0.969021
0.96117
0.954238
0.948101
0.942423
0.936945
0.931062
0.924298
0.915996
0.904795
0.888876
0.865505
0.828721
0.767517
0.659932
0.461932
0.985837
0.956693
0.929517
0.905077
0.883521
0.864602
0.847914
0.83273
0.818387
0.803727
0.787745
0.769203
0.745986
0.715587
0.675012
0.618846
0.538913
0.421302
0.239723
0.973057
0.924208
0.880783
0.842558
0.809185
0.780101
0.754635
0.731812
0.710716
0.689944
0.668263
0.644222
0.615605
0.579954
0.534659
0.475521
0.397013
0.290846
0.141728
0.960584
0.893471
0.835505
0.785224
0.74168
0.703984
0.671234
0.642305
0.616132
0.591223
0.566269
0.539774
0.509622
0.473586
0.429468
0.374056
0.303594
0.21313
0.0937538
0.950417
0.867729
0.797157
0.736386
0.684007
0.638882
0.599942
0.565973
0.535834
0.508019
0.481212
0.453931
0.424203
0.390017
0.349487
0.300053
0.239019
0.163274
0.0674602
0.943787
0.84909
0.76801
0.698164
0.637994
0.586263
0.54182
0.503422
0.469904
0.43978
0.411752
0.384376
0.355805
0.324199
0.287871
0.244672
0.192505
0.129238
0.0514411
0.940773
0.837986
0.748624
0.671047
0.603947
0.546183
0.496635
0.454093
0.417403
0.385127
0.356001
0.328616
0.301234
0.272139
0.239774
0.202238
0.157772
0.104747
0.0407713
0.94053
0.833332
0.737951
0.654004
0.58079
0.517475
0.463088
0.416521
0.376679
0.342185
0.31182
0.284214
0.257719
0.230712
0.20172
0.169003
0.130994
0.0863166
0.0331346
0.942263
0.833715
0.734414
0.64543
0.566911
0.498501
0.439504
0.388978
0.345933
0.309076
0.277236
0.24909
0.223061
0.197603
0.171301
0.142527
0.109827
0.0719522
0.0273664
0.944409
0.836437
0.735015
0.642357
0.559469
0.486571
0.423331
0.369039
0.32285
0.283574
0.250106
0.221166
0.195244
0.170857
0.146637
0.121039
0.0926855
0.0603957
0.0228091
0.946058
0.839377
0.737096
0.641991
0.555736
0.479102
0.412154
0.354456
0.30534
0.263739
0.228622
0.19876
0.172703
0.149025
0.126399
0.103349
0.0785597
0.0508917
0.0190954
0.948008
0.843001
0.740524
0.643748
0.554851
0.475079
0.404884
0.344111
0.292289
0.248482
0.21174
0.180886
0.154521
0.131268
0.109833
0.0888019
0.0669078
0.0430449
0.0160398
0.949772
0.846541
0.744232
0.646311
0.555343
0.472968
0.399988
0.33652
0.282286
0.236484
0.198243
0.166434
0.139704
0.11671
0.0961913
0.0767792
0.0572518
0.0365314
0.0135066
0.950739
0.848844
0.746802
0.64811
0.55557
0.471128
0.395878
0.33018
0.273935
0.226465
0.186973
0.15437
0.127338
0.104564
0.0848093
0.0667461
0.0491909
0.0310932
0.0113948
0.951472
0.850402
0.748441
0.649063
0.555214
0.469063
0.391941
0.324412
0.266529
0.21772
0.177247
0.14405
0.116834
0.0943048
0.075237
0.058336
0.0424506
0.0265551
0.00963767
0.95214
0.851553
0.7494
0.649241
0.554154
0.466489
0.387768
0.318723
0.259526
0.209688
0.168506
0.134936
0.10769
0.0854772
0.0670787
0.0512227
0.0367837
0.0227588
0.00817615
0.952485
0.852013
0.749404
0.648324
0.551997
0.462944
0.382846
0.312568
0.252373
0.201821
0.160226
0.126533
0.0994455
0.077667
0.0599723
0.0451052
0.0319606
0.0195556
0.00695429
0.952629
0.851936
0.748611
0.646433
0.548797
0.458395
0.377059
0.305764
0.244833
0.193848
0.152111
0.118536
0.091801
0.0705865
0.0536539
0.0397548
0.0278001
0.0168247
0.00592502
0.953227
0.852373
0.748147
0.644638
0.54549
0.453611
0.370997
0.298727
0.237168
0.185904
0.144193
0.1109
0.0846537
0.064098
0.04797
0.0350212
0.0241729
0.0144748
0.00505151
0.95407
0.853285
0.748124
0.643122
0.542275
0.448766
0.364786
0.29153
0.229398
0.177953
0.136395
0.103512
0.0778651
0.0580478
0.0427623
0.0307543
0.0209519
0.0124177
0.00429905
0.954682
0.854021
0.747975
0.641452
0.538837
0.443636
0.358266
0.284049
0.221416
0.169898
0.128614
0.0962588
0.0713129
0.0523041
0.0378942
0.0268208
0.0180209
0.010571
0.00363599
0.955358
0.854882
0.748012
0.639979
0.53556
0.438613
0.351809
0.276615
0.213494
0.161942
0.120986
0.0892126
0.0650104
0.0468327
0.0332942
0.0231245
0.0152763
0.00885123
0.00303003
0.956238
0.856134
0.748548
0.639054
0.53283
0.434101
0.345815
0.269596
0.20595
0.154336
0.113685
0.0824741
0.0589917
0.0416102
0.0288912
0.0195541
0.0125779
0.0071196
0.00241409
0.957246
0.85771
0.749548
0.638699
0.530739
0.430262
0.340494
0.263225
0.199006
0.147264
0.106843
0.0761096
0.05326
0.0365837
0.0245832
0.0159584
0.00971581
0.00510189
0.00153268
0.958979
0.861834
0.755179
0.645028
0.537085
0.436114
0.345518
0.267248
0.201985
0.149248
0.107949
0.0764935
0.0530946
0.0360377
0.0238067
0.015073
0.00883109
0.00435207
0.00114103
0.960951
0.867455
0.764035
0.656456
0.550242
0.450075
0.359407
0.280321
0.213688
0.159244
0.116097
0.0828396
0.0578191
0.0394072
0.0261172
0.0165997
0.00979212
0.00489591
0.00133652
0.961994
0.87105
0.770344
0.665294
0.561119
0.46229
0.37217
0.292864
0.225354
0.169548
0.124742
0.089727
0.0630227
0.0431336
0.0286503
0.0182317
0.0107745
0.00541453
0.00150314
0.962121
0.872519
0.773891
0.671232
0.56935
0.472375
0.383445
0.304574
0.236766
0.180037
0.133848
0.0971857
0.0687693
0.047284
0.0314554
0.0199981
0.011794
0.0059183
0.00164758
0.961681
0.872545
0.775524
0.675163
0.575782
0.48108
0.393874
0.315994
0.248388
0.191129
0.143807
0.10559
0.0754046
0.052152
0.0347545
0.0220473
0.0129406
0.00645852
0.0017904
0.960754
0.871572
0.775948
0.67791
0.581241
0.489155
0.404098
0.327657
0.260674
0.203231
0.155012
0.115338
0.0833253
0.0581028
0.0388395
0.0245725
0.0143187
0.00708278
0.00194703
0.959612
0.870327
0.776144
0.680542
0.586766
0.497545
0.41493
0.340246
0.274203
0.21686
0.16796
0.126943
0.0930737
0.0656777
0.0441852
0.0279123
0.0161071
0.00785484
0.00213172
0.958891
0.869848
0.777283
0.684237
0.593464
0.507231
0.427212
0.354473
0.289585
0.232568
0.183205
0.141012
0.105347
0.0756594
0.0515844
0.0327312
0.0187118
0.00891031
0.00234871
0.958322
0.869786
0.77906
0.688754
0.60115
0.518076
0.440852
0.370294
0.306842
0.250471
0.200989
0.157972
0.12082
0.0890198
0.0622775
0.0403693
0.0232573
0.0108415
0.00260992
0.957863
0.870123
0.781501
0.69416
0.609922
0.530197
0.455979
0.387859
0.326155
0.270806
0.221649
0.178323
0.140267
0.106961
0.0780598
0.0532743
0.0326061
0.0162787
0.0042999
0.957283
0.87005
0.783136
0.69832
0.617015
0.540274
0.468806
0.403004
0.34308
0.288929
0.240413
0.197228
0.158871
0.124848
0.094757
0.0681362
0.0447037
0.0244562
0.00740093
0.955885
0.867586
0.780846
0.697062
0.617294
0.542303
0.472567
0.408314
0.349647
0.296399
0.248419
0.205419
0.166933
0.132519
0.101832
0.0744203
0.0499553
0.0282621
0.00904714
0.953908
0.86358
0.776107
0.692452
0.613348
0.539304
0.470605
0.407333
0.349492
0.296848
0.249221
0.206327
0.167718
0.133
0.101909
0.0740862
0.0493288
0.0276019
0.00870845
0.952362
0.860486
0.772496
0.689002
0.610473
0.537218
0.469367
0.406888
0.34971
0.297548
0.25021
0.207419
0.168748
0.133844
0.1025
0.0744102
0.0494277
0.0275718
0.00867512
0.951388
0.858474
0.770135
0.686771
0.608672
0.536
0.468773
0.406873
0.350172
0.298352
0.25121
0.208478
0.169747
0.134689
0.103139
0.0748277
0.0496429
0.0276459
0.00869237
0.950686
0.857027
0.768441
0.685179
0.607397
0.535154
0.468381
0.406898
0.350542
0.298965
0.251961
0.209268
0.170488
0.135315
0.103612
0.0751339
0.0497979
0.0276973
0.00870538
0.95017
0.85595
0.767177
0.683981
0.606418
0.534468
0.468006
0.406811
0.35069
0.299281
0.252374
0.209713
0.170906
0.135661
0.10386
0.0752777
0.0498499
0.0276948
0.00869988
0.949657
0.855018
0.76614
0.683009
0.605601
0.533845
0.467583
0.406571
0.350603
0.29931
0.25248
0.209859
0.17106
0.135797
0.103964
0.0753408
0.0498753
0.0276969
0.00870041
0.949659
0.855022
0.766145
0.683016
0.605608
0.533853
0.467592
0.406579
0.350611
0.299318
0.252488
0.209866
0.171066
0.135802
0.103968
0.0753443
0.0498778
0.0276984
0.00870092
0.950175
0.855962
0.767194
0.684001
0.60644
0.534492
0.468031
0.406836
0.350714
0.299304
0.252397
0.209734
0.170925
0.135677
0.103874
0.0752886
0.0498579
0.0276997
0.00870157
0.950694
0.857045
0.768467
0.685211
0.607434
0.535192
0.468421
0.406939
0.350581
0.299003
0.251997
0.209301
0.170518
0.135341
0.103634
0.075151
0.0498102
0.0277047
0.00870794
0.951398
0.858499
0.77017
0.686815
0.608721
0.536052
0.468827
0.406927
0.350225
0.298403
0.251258
0.208522
0.169786
0.134723
0.103168
0.0748501
0.049659
0.0276557
0.0086957
0.952374
0.860516
0.77254
0.689056
0.610533
0.537282
0.469433
0.406955
0.349775
0.297611
0.250269
0.207472
0.168796
0.133885
0.102534
0.0744374
0.0494471
0.0275834
0.00867908
0.953922
0.863614
0.776157
0.692514
0.613418
0.539379
0.470682
0.407411
0.349568
0.29692
0.249289
0.206389
0.167773
0.133047
0.101947
0.0741158
0.0493495
0.0276139
0.00871235
0.9559
0.867624
0.780902
0.697132
0.617373
0.542388
0.472655
0.408402
0.349733
0.29648
0.248494
0.205486
0.166991
0.132567
0.10187
0.0744472
0.049972
0.0282704
0.00904932
0.957301
0.870106
0.783225
0.698437
0.617154
0.54043
0.468973
0.403179
0.343257
0.289105
0.240584
0.197393
0.159027
0.124995
0.0948937
0.0682598
0.0448089
0.0245327
0.00743297
0.957886
0.870189
0.781607
0.694301
0.61009
0.530387
0.456184
0.388073
0.326372
0.271021
0.221858
0.178524
0.140456
0.107136
0.0782172
0.0534089
0.0327106
0.0163455
0.00432362
0.958341
0.869843
0.779152
0.688877
0.601299
0.518244
0.441031
0.37048
0.307028
0.250652
0.201161
0.158132
0.120966
0.0891476
0.062384
0.0404505
0.0233106
0.0108678
0.00261521
0.958908
0.869901
0.77737
0.684354
0.593606
0.50739
0.427382
0.354646
0.289756
0.232733
0.183358
0.141151
0.105468
0.0757611
0.051664
0.0327875
0.018746
0.00892652
0.00235273
0.959627
0.870376
0.776226
0.680652
0.586899
0.497694
0.415089
0.340407
0.27436
0.217008
0.168096
0.127063
0.0931751
0.0657593
0.0442464
0.0279541
0.0161321
0.00786705
0.00213498
0.960768
0.871616
0.776023
0.678012
0.581365
0.489295
0.404245
0.327805
0.260817
0.203364
0.155131
0.11544
0.0834103
0.0581694
0.0388882
0.0246053
0.0143384
0.00709267
0.00194977
0.961692
0.872585
0.775592
0.675257
0.575897
0.481208
0.394009
0.316129
0.248517
0.191247
0.143911
0.105678
0.0754761
0.0522069
0.0347941
0.0220739
0.0129568
0.00646684
0.00179279
0.962131
0.872553
0.773951
0.671317
0.569453
0.472491
0.383566
0.304695
0.23688
0.180141
0.133938
0.097261
0.0688295
0.0473298
0.0314883
0.0200204
0.0118077
0.00592556
0.00164977
0.962002
0.87108
0.770397
0.665368
0.561211
0.462393
0.372277
0.29297
0.225454
0.169638
0.12482
0.0897912
0.0630736
0.0431722
0.0286782
0.0182508
0.0107866
0.00542119
0.00150527
0.960958
0.867481
0.764081
0.656521
0.550321
0.450164
0.3595
0.280413
0.213774
0.159322
0.116164
0.0828945
0.0578627
0.0394404
0.0261415
0.0166167
0.00980325
0.00490231
0.00133877
0.95898
0.861839
0.75519
0.645045
0.537108
0.43614
0.345545
0.267276
0.202012
0.149273
0.10797
0.0765112
0.0531084
0.0360479
0.0238135
0.015077
0.00883291
0.00435235
0.00114069
0.957243
0.857703
0.749537
0.638685
0.530722
0.430244
0.340476
0.263209
0.198992
0.147252
0.106832
0.0761011
0.0532531
0.0365781
0.0245785
0.0159545
0.00971257
0.00509941
0.00153141
0.956237
0.856133
0.748546
0.639052
0.532828
0.4341
0.345814
0.269596
0.205951
0.154338
0.113687
0.0824766
0.0589942
0.0416124
0.028893
0.0195555
0.0125789
0.00712012
0.00241418
0.955358
0.854881
0.748011
0.639978
0.535559
0.438612
0.351809
0.276616
0.213495
0.161944
0.120988
0.0892145
0.0650123
0.0468343
0.0332955
0.0231255
0.015277
0.00885159
0.00303012
0.954682
0.85402
0.747974
0.641451
0.538836
0.443636
0.358267
0.28405
0.221417
0.169899
0.128616
0.0962604
0.0713143
0.0523054
0.0378952
0.0268216
0.0180215
0.0105713
0.00363607
0.95407
0.853285
0.748123
0.643121
0.542274
0.448766
0.364787
0.291531
0.229399
0.177954
0.136397
0.103513
0.0778662
0.0580488
0.0427631
0.0307549
0.0209524
0.0124179
0.00429912
0.953227
0.852373
0.748146
0.644638
0.54549
0.453611
0.370997
0.298728
0.237169
0.185905
0.144194
0.110901
0.0846546
0.0640988
0.0479707
0.0350218
0.0241733
0.0144751
0.00505158
0.952629
0.851936
0.748611
0.646433
0.548797
0.458395
0.37706
0.305765
0.244833
0.193849
0.152112
0.118537
0.0918018
0.0705871
0.0536545
0.0397553
0.0278005
0.0168249
0.00592507
0.952485
0.852013
0.749404
0.648324
0.551998
0.462944
0.382847
0.312569
0.252374
0.201822
0.160226
0.126533
0.0994461
0.0776676
0.0599729
0.0451056
0.0319609
0.0195558
0.00695433
0.95214
0.851553
0.7494
0.649242
0.554154
0.46649
0.387769
0.318723
0.259527
0.209688
0.168507
0.134937
0.10769
0.0854777
0.0670792
0.051223
0.036784
0.0227589
0.00817617
0.951472
0.850402
0.748441
0.649064
0.555215
0.469064
0.391941
0.324412
0.266529
0.217721
0.177247
0.14405
0.116834
0.0943052
0.0752373
0.0583362
0.0424506
0.0265551
0.00963766
0.950739
0.848845
0.746803
0.648111
0.555571
0.471128
0.395878
0.330181
0.273935
0.226466
0.186973
0.15437
0.127338
0.104565
0.0848094
0.0667461
0.0491908
0.0310931
0.0113948
0.949772
0.846541
0.744232
0.646312
0.555344
0.472969
0.399988
0.336521
0.282286
0.236484
0.198243
0.166434
0.139704
0.11671
0.0961911
0.076779
0.0572515
0.0365311
0.0135065
0.948008
0.843002
0.740524
0.643749
0.554852
0.475079
0.404884
0.344111
0.292288
0.248482
0.21174
0.180885
0.154521
0.131267
0.109833
0.0888014
0.0669073
0.0430446
0.0160398
0.946059
0.839378
0.737097
0.641991
0.555736
0.479102
0.412154
0.354456
0.30534
0.263738
0.228622
0.198759
0.172703
0.149025
0.126398
0.103349
0.0785591
0.0508914
0.0190954
0.944409
0.836437
0.735016
0.642357
0.559469
0.486571
0.42333
0.369039
0.322849
0.283573
0.250105
0.221165
0.195243
0.170856
0.146636
0.121038
0.0926848
0.0603955
0.0228092
0.942263
0.833715
0.734413
0.64543
0.56691
0.4985
0.439503
0.388977
0.345932
0.309074
0.277235
0.249089
0.223059
0.197602
0.1713
0.142526
0.109827
0.0719521
0.0273666
0.94053
0.833332
0.73795
0.654003
0.580789
0.517474
0.463087
0.41652
0.376678
0.342184
0.311819
0.284213
0.257717
0.230711
0.201718
0.169003
0.130994
0.0863166
0.0331348
0.940773
0.837986
0.748624
0.671046
0.603946
0.546182
0.496634
0.454091
0.417402
0.385126
0.355999
0.328614
0.301233
0.272138
0.239773
0.202237
0.157772
0.104748
0.0407715
0.943787
0.849089
0.768009
0.698164
0.637993
0.586262
0.541818
0.503421
0.469903
0.439778
0.411751
0.384374
0.355804
0.324197
0.287871
0.244672
0.192505
0.129238
0.0514413
0.950416
0.867729
0.797156
0.736386
0.684007
0.638881
0.599941
0.565971
0.535832
0.508018
0.48121
0.453929
0.424202
0.390016
0.349487
0.300053
0.239019
0.163275
0.0674603
0.960584
0.89347
0.835504
0.785223
0.741679
0.703983
0.671233
0.642304
0.616131
0.591222
0.566268
0.539772
0.509622
0.473585
0.429468
0.374057
0.303595
0.213131
0.0937538
0.973057
0.924207
0.880783
0.842557
0.809185
0.780101
0.754634
0.731812
0.710715
0.689943
0.668263
0.644222
0.615604
0.579954
0.534659
0.475521
0.397013
0.290846
0.141728
0.985836
0.956693
0.929517
0.905076
0.883521
0.864601
0.847913
0.83273
0.818387
0.803726
0.787744
0.769202
0.745986
0.715587
0.675012
0.618846
0.538913
0.421302
0.239723
0.996716
0.98733
0.977829
0.969021
0.96117
0.954237
0.948101
0.942422
0.936945
0.931062
0.924298
0.915996
0.904795
0.888876
0.865506
0.828721
0.767517
0.659931
0.461932
)
;

boundaryField
{
    up
    {
        type            fixedValue;
        value           uniform 0;
    }
    low
    {
        type            fixedValue;
        value           uniform 1;
    }
    left
    {
        type            fixedValue;
        value           uniform 1;
    }
    right
    {
        type            fixedValue;
        value           uniform 1;
    }
    frontAndBackPlanes
    {
        type            empty;
    }
}


// ************************************************************************* //
