/*--------------------------------*- C++ -*----------------------------------*\
  =========                 |
  \\      /  F ield         | OpenFOAM: The Open Source CFD Toolbox
   \\    /   O peration     | Website:  https://openfoam.org
    \\  /    A nd           | Version:  7
     \\/     M anipulation  |
\*---------------------------------------------------------------------------*/
FoamFile
{
    version     2.0;
    format      ascii;
    class       volScalarField;
    location    "0.3";
    object      gradTx;
}
// * * * * * * * * * * * * * * * * * * * * * * * * * * * * * * * * * * * * * //

dimensions      [0 -1 0 1 0 0 0];

internalField   nonuniform List<scalar> 
1596
(
-0.0382454
-0.192222
-0.345426
-0.485729
-0.612974
-0.727343
-0.834069
-0.936472
-1.03888
-1.14974
-1.27109
-1.41305
-1.58789
-1.81412
-2.11407
-2.5454
-3.19795
-4.26621
-6.15228
0.00837783
-0.160142
-0.310703
-0.44248
-0.559112
-0.661629
-0.754703
-0.839954
-0.920572
-1.00081
-1.08076
-1.16565
-1.25696
-1.35719
-1.46328
-1.57022
-1.65236
-1.65803
-1.47806
0.0465606
-0.131318
-0.277001
-0.399087
-0.504134
-0.594353
-0.673737
-0.743325
-0.805207
-0.861583
-0.911765
-0.958343
-1.00003
-1.03562
-1.06019
-1.06556
-1.03101
-0.920724
-0.665125
0.0525375
-0.116497
-0.249969
-0.35936
-0.451638
-0.529498
-0.596059
-0.652139
-0.699047
-0.737849
-0.767857
-0.790207
-0.803263
-0.805186
-0.792035
-0.757216
-0.687247
-0.560394
-0.334965
0.0151147
-0.122579
-0.234505
-0.327314
-0.405453
-0.470972
-0.525798
-0.570531
-0.605879
-0.632208
-0.649116
-0.6569
-0.654271
-0.639617
-0.610352
-0.561828
-0.485986
-0.370203
-0.1903
-0.0627071
-0.152064
-0.23414
-0.306461
-0.368953
-0.421948
-0.465885
-0.50095
-0.527304
-0.544801
-0.553313
-0.552609
-0.541819
-0.519684
-0.48468
-0.433612
-0.361877
-0.262216
-0.12076
-0.166387
-0.202519
-0.250131
-0.299004
-0.344427
-0.384457
-0.41791
-0.444323
-0.463297
-0.47425
-0.477183
-0.471511
-0.456663
-0.431664
-0.395675
-0.346475
-0.281525
-0.196638
-0.0838587
-0.275166
-0.264562
-0.278432
-0.303174
-0.330982
-0.357838
-0.381084
-0.399472
-0.412036
-0.417807
-0.416747
-0.408034
-0.391254
-0.365616
-0.330688
-0.28488
-0.226852
-0.154184
-0.0623099
-0.387797
-0.343777
-0.327483
-0.3279
-0.33684
-0.349136
-0.361108
-0.370733
-0.376504
-0.377079
-0.372228
-0.360946
-0.342832
-0.317177
-0.283731
-0.241298
-0.189184
-0.125963
-0.0489626
-0.455251
-0.398652
-0.364368
-0.347247
-0.341231
-0.341392
-0.343796
-0.345955
-0.346003
-0.34234
-0.334522
-0.321448
-0.302688
-0.277594
-0.246005
-0.207019
-0.160311
-0.105072
-0.0397401
-0.50987
-0.447775
-0.402604
-0.372499
-0.35392
-0.343008
-0.336218
-0.330963
-0.325212
-0.317219
-0.306329
-0.291381
-0.271875
-0.24718
-0.217145
-0.181042
-0.138733
-0.0897677
-0.0332535
-0.565084
-0.502317
-0.450363
-0.410098
-0.380289
-0.358513
-0.342063
-0.328608
-0.316177
-0.302993
-0.288242
-0.270716
-0.249821
-0.224897
-0.195744
-0.161719
-0.122743
-0.0785476
-0.028603
-0.578953
-0.524569
-0.473802
-0.430317
-0.394923
-0.366649
-0.343776
-0.324484
-0.307078
-0.289915
-0.272153
-0.252621
-0.230692
-0.205711
-0.177454
-0.145355
-0.109361
-0.0693176
-0.0249016
-0.580945
-0.535795
-0.489392
-0.446068
-0.407984
-0.375444
-0.347721
-0.323637
-0.301898
-0.28111
-0.260492
-0.238962
-0.21589
-0.190641
-0.162966
-0.132348
-0.0987359
-0.0620288
-0.022027
-0.577879
-0.541141
-0.50018
-0.458955
-0.420173
-0.38505
-0.353729
-0.325705
-0.300161
-0.276022
-0.252654
-0.229097
-0.204752
-0.179013
-0.15161
-0.122064
-0.0903061
-0.0562551
-0.0197693
-0.561546
-0.533801
-0.499432
-0.462236
-0.425034
-0.389565
-0.356603
-0.326237
-0.298129
-0.271558
-0.246095
-0.220945
-0.195575
-0.169428
-0.142242
-0.113575
-0.0833543
-0.0515122
-0.0179322
-0.531685
-0.512408
-0.485208
-0.453427
-0.419725
-0.386031
-0.353491
-0.322632
-0.293527
-0.265793
-0.239228
-0.213223
-0.187339
-0.161091
-0.13424
-0.106396
-0.0775085
-0.0475416
-0.0164094
-0.497212
-0.483295
-0.462354
-0.436176
-0.406837
-0.376154
-0.34542
-0.315436
-0.286581
-0.258765
-0.231992
-0.205837
-0.179961
-0.153948
-0.12758
-0.100518
-0.0727466
-0.0442996
-0.0151624
-0.468287
-0.458743
-0.442657
-0.421076
-0.395503
-0.367544
-0.338542
-0.309489
-0.281014
-0.253277
-0.226469
-0.200325
-0.174585
-0.148874
-0.122956
-0.0964889
-0.0694643
-0.0420049
-0.0142366
-0.419585
-0.41568
-0.405081
-0.389039
-0.368704
-0.345366
-0.320235
-0.29431
-0.26833
-0.242608
-0.217464
-0.192772
-0.168353
-0.143875
-0.119077
-0.0935712
-0.0673074
-0.0405013
-0.013565
-0.366376
-0.366939
-0.361291
-0.35048
-0.335405
-0.317078
-0.296514
-0.274634
-0.252185
-0.229549
-0.207107
-0.184822
-0.162573
-0.140067
-0.116992
-0.09284
-0.06735
-0.0406349
-0.013438
-0.311432
-0.314949
-0.313456
-0.307441
-0.297475
-0.284296
-0.268713
-0.25152
-0.233413
-0.214772
-0.195964
-0.176986
-0.157746
-0.13799
-0.117388
-0.0952818
-0.0709962
-0.0440054
-0.0146897
-0.251046
-0.256123
-0.258048
-0.256603
-0.25192
-0.244393
-0.234589
-0.223113
-0.21055
-0.197203
-0.183328
-0.168889
-0.153765
-0.137764
-0.120637
-0.101741
-0.0800227
-0.0538175
-0.0209848
-0.183345
-0.181065
-0.176334
-0.169252
-0.160426
-0.150651
-0.140835
-0.131699
-0.123756
-0.117103
-0.111447
-0.106206
-0.100679
-0.0942474
-0.08643
-0.0766879
-0.0641273
-0.0468001
-0.0209878
-0.122709
-0.137358
-0.154466
-0.171866
-0.187994
-0.201692
-0.212399
-0.219876
-0.224219
-0.225582
-0.223932
-0.219308
-0.211642
-0.201268
-0.188707
-0.174512
-0.158571
-0.139705
-0.114479
-0.0418154
-0.0494231
-0.0596969
-0.0713312
-0.0833724
-0.0951297
-0.106342
-0.11688
-0.126808
-0.136081
-0.144158
-0.150475
-0.15405
-0.154382
-0.151487
-0.146297
-0.139667
-0.13265
-0.125525
0.0392898
0.0295923
0.0160098
-0.000181202
-0.0178178
-0.0359872
-0.0541785
-0.072134
-0.0898312
-0.107212
-0.123702
-0.138499
-0.150205
-0.157707
-0.160505
-0.159446
-0.15572
-0.150888
-0.145678
0.120565
0.107456
0.0894155
0.067954
0.0444264
0.0199215
-0.00488444
-0.0296856
-0.0544714
-0.079288
-0.10371
-0.126875
-0.147078
-0.162485
-0.171738
-0.175166
-0.174098
-0.170652
-0.166105
0.194605
0.176407
0.152861
0.125816
0.096733
0.06677
0.0366173
0.00650594
-0.0236933
-0.0542679
-0.0851265
-0.115628
-0.144024
-0.167845
-0.184564
-0.193389
-0.195259
-0.192839
-0.188306
0.272256
0.248002
0.218404
0.185444
0.150674
0.115317
0.0800543
0.0450352
0.00998366
-0.0256585
-0.0622257
-0.0995811
-0.13635
-0.169821
-0.196249
-0.213046
-0.21969
-0.218853
-0.213973
0.332139
0.300814
0.265001
0.226719
0.187543
0.148601
0.1104
0.0728831
0.0355647
-0.00241103
-0.0418416
-0.0833116
-0.126327
-0.168738
-0.206193
-0.234078
-0.248876
-0.251462
-0.245849
0.389557
0.352024
0.310154
0.266748
0.223502
0.181422
0.140827
0.10149
0.0627951
0.0237109
-0.0168753
-0.0602481
-0.107119
-0.156876
-0.206038
-0.249167
-0.27895
-0.291454
-0.288419
0.444316
0.398766
0.350382
0.302063
0.255316
0.210856
0.16875
0.128597
0.0897252
0.0510836
0.0115138
-0.0306076
-0.0769896
-0.129041
-0.185894
-0.244476
-0.296153
-0.330893
-0.338527
0.48234
0.424614
0.36626
0.309838
0.256392
0.206215
0.159065
0.114389
0.0714913
0.0294141
-0.0128645
-0.0568566
-0.104536
-0.158628
-0.22138
-0.294923
-0.376302
-0.458169
-0.526251
0.508765
0.445098
0.38535
0.331178
0.282601
0.23916
0.200077
0.164581
0.131934
0.101432
0.072549
0.0446347
0.0169478
-0.0117507
-0.0434049
-0.0819406
-0.13168
-0.197729
-0.282853
0.530673
0.464219
0.406001
0.355441
0.311305
0.272507
0.237939
0.20675
0.178248
0.151846
0.127249
0.104227
0.0826972
0.0627238
0.0445459
0.0281066
0.0130869
-0.00205293
-0.0203231
0.508293
0.432167
0.368193
0.313873
0.26716
0.226563
0.190783
0.158866
0.130078
0.1038
0.0797291
0.0576336
0.0374121
0.0191308
0.0030965
-0.0103595
-0.0206777
-0.0272978
-0.0299491
0.451117
0.380612
0.322541
0.274035
0.232929
0.197653
0.16693
0.139825
0.115651
0.0938564
0.0741543
0.0563325
0.0402537
0.0258732
0.0132415
0.00233472
-0.00684819
-0.0143388
-0.0202703
0.378491
0.318388
0.269019
0.228048
0.193606
0.164278
0.138938
0.116749
0.0971097
0.0795344
0.0637472
0.0495362
0.0367235
0.025195
0.0149026
0.00574863
-0.0023279
-0.00935324
-0.0154136
0.287253
0.240418
0.202433
0.171267
0.145326
0.123416
0.10462
0.0882602
0.0738568
0.0610234
0.0495271
0.039188
0.0298427
0.0213796
0.0137424
0.00685227
0.000670852
-0.00479317
-0.00957747
0.181937
0.150637
0.126008
0.106188
0.0898979
0.0762534
0.0646188
0.0545352
0.0456853
0.0378157
0.0307683
0.0244219
0.0186623
0.0134098
0.00862222
0.00424844
0.00026711
-0.00330226
-0.00646627
0.0701505
0.0576734
0.0481845
0.0406462
0.0344675
0.0292821
0.0248448
0.0209836
0.0175811
0.014544
0.0118117
0.00933711
0.00707498
0.00499187
0.00306689
0.00127652
-0.000392474
-0.0019361
-0.00335629
-0.0701167
-0.0576005
-0.0480869
-0.0405336
-0.0343469
-0.0291587
-0.0247224
-0.0208653
-0.0174693
-0.0144408
-0.0117187
-0.00925576
-0.00700636
-0.00493695
-0.0030264
-0.00125103
0.000402596
0.00193086
0.00333592
-0.181906
-0.150574
-0.125924
-0.106092
-0.0897958
-0.0761502
-0.0645181
-0.0544399
-0.0455978
-0.0377378
-0.0307017
-0.0243677
-0.0186215
-0.0133833
-0.00861051
-0.00425186
-0.000285794
0.00326864
0.00641835
-0.287223
-0.240359
-0.202353
-0.171173
-0.145223
-0.123309
-0.104513
-0.0881565
-0.0737583
-0.0609322
-0.0494446
-0.0391154
-0.0297806
-0.0213283
-0.0137019
-0.00682216
-0.000650276
0.0048053
0.00958239
-0.378471
-0.31835
-0.268968
-0.227988
-0.193542
-0.164213
-0.138875
-0.11669
-0.0970578
-0.0794911
-0.0637141
-0.0495142
-0.0367131
-0.0251961
-0.0149147
-0.00577052
0.00229759
0.00931609
0.0153712
-0.451105
-0.380591
-0.322511
-0.273998
-0.232888
-0.19761
-0.166887
-0.139786
-0.115618
-0.0938316
-0.0741393
-0.0563286
-0.0402616
-0.0258927
-0.0132716
-0.00237316
0.0068046
0.0142942
0.0202294
-0.508297
-0.432168
-0.368188
-0.313862
-0.267145
-0.226546
-0.190768
-0.158856
-0.130076
-0.103809
-0.0797514
-0.0576722
-0.0374693
-0.0192082
-0.00319359
0.0102465
0.0205584
0.0271884
0.0298685
-0.530677
-0.464184
-0.40591
-0.355285
-0.311083
-0.272219
-0.237589
-0.206343
-0.177787
-0.151336
-0.126693
-0.103629
-0.0820585
-0.062046
-0.0438345
-0.0273806
-0.0123941
0.00261072
0.0205768
-0.508863
-0.445356
-0.385777
-0.331772
-0.283359
-0.240076
-0.201146
-0.165796
-0.133293
-0.102934
-0.074198
-0.0464438
-0.0189427
0.00952287
0.0408716
0.0789968
0.12822
0.193699
0.278337
-0.482306
-0.424517
-0.366086
-0.309582
-0.256054
-0.205797
-0.158573
-0.11383
-0.0708738
-0.0287476
0.0135689
0.0575859
0.105275
0.159362
0.222111
0.295692
0.377221
0.459439
0.528141
-0.444351
-0.398848
-0.350503
-0.302216
-0.255494
-0.211053
-0.168962
-0.128823
-0.0899638
-0.0513363
-0.0117842
0.0303152
0.0766739
0.128712
0.185585
0.244252
0.296092
0.331043
0.338826
-0.389579
-0.352076
-0.31023
-0.266844
-0.223612
-0.181543
-0.140957
-0.101629
-0.0629417
-0.0238673
0.0167077
0.0600709
0.106941
0.15672
0.205941
0.249172
0.279079
0.29169
0.28871
-0.332161
-0.300864
-0.265077
-0.226815
-0.187654
-0.148724
-0.110531
-0.0730205
-0.0357073
0.00226442
0.0416935
0.0831688
0.126204
0.168657
0.20618
0.23415
0.249025
0.251659
0.246061
-0.272276
-0.248051
-0.218478
-0.18554
-0.150786
-0.115441
-0.0801869
-0.0451724
-0.0101226
0.0255213
0.0620958
0.0994678
0.136267
0.169786
0.196275
0.213133
0.219824
0.219012
0.214143
-0.194623
-0.176451
-0.15293
-0.125906
-0.0968388
-0.0668869
-0.0367408
-0.0066316
0.0235695
0.0541509
0.085023
0.115548
0.143978
0.167843
0.184611
0.193478
0.195378
0.192975
0.188453
-0.120584
-0.107501
-0.0894859
-0.0680458
-0.0445347
-0.0200406
0.00476015
0.0295615
0.0543528
0.0791808
0.103622
0.126814
0.147051
0.162498
0.171791
0.175251
0.174206
0.170776
0.166241
-0.0393053
-0.0296342
-0.0160767
9.30518e-05
0.0177138
0.0358734
0.0540611
0.0720192
0.089725
0.107121
0.123633
0.138457
0.150196
0.157733
0.160563
0.15953
0.155825
0.15101
0.145817
0.0417801
0.0493158
0.0595124
0.0710712
0.0830451
0.0947482
0.105923
0.116441
0.126367
0.135656
0.143764
0.150125
0.153752
0.154139
0.151296
0.146157
0.13958
0.132629
0.125609
0.122735
0.137455
0.154654
0.172157
0.188391
0.202187
0.212979
0.220523
0.224913
0.226302
0.224661
0.22003
0.212345
0.201943
0.189353
0.175129
0.15916
0.140266
0.115005
0.183319
0.180971
0.176168
0.169019
0.160135
0.150318
0.140475
0.131329
0.12339
0.116755
0.111125
0.105917
0.100426
0.0940318
0.0862503
0.0765426
0.0640152
0.0467226
0.0209531
0.251062
0.256155
0.258098
0.256668
0.251996
0.244475
0.234673
0.223193
0.210623
0.197267
0.18338
0.16893
0.153796
0.137785
0.12065
0.101747
0.0800229
0.053814
0.020982
0.311436
0.314954
0.313464
0.30745
0.297485
0.284306
0.268723
0.251529
0.233421
0.214778
0.195968
0.176988
0.157746
0.137988
0.117385
0.0952777
0.0709918
0.0440019
0.0146886
0.36638
0.366944
0.361297
0.350487
0.335413
0.317086
0.296522
0.27464
0.25219
0.229553
0.207109
0.184822
0.162572
0.140064
0.116989
0.0928368
0.0673472
0.0406331
0.0134375
0.419588
0.415684
0.405087
0.389045
0.36871
0.345372
0.32024
0.294314
0.268333
0.242609
0.217464
0.192771
0.168351
0.143873
0.119075
0.0935687
0.0673055
0.0405002
0.0135646
0.46829
0.458748
0.442663
0.421082
0.395509
0.367549
0.338546
0.309492
0.281016
0.253278
0.226469
0.200323
0.174583
0.148872
0.122954
0.096487
0.0694628
0.0420041
0.0142363
0.497215
0.483299
0.462358
0.436181
0.406841
0.376157
0.345422
0.315438
0.286582
0.258764
0.231991
0.205835
0.179959
0.153946
0.127578
0.100517
0.0727454
0.0442989
0.0151622
0.531687
0.51241
0.485211
0.45343
0.419728
0.386033
0.353492
0.322633
0.293526
0.265792
0.239226
0.213221
0.187337
0.161089
0.134238
0.106395
0.0775075
0.0475411
0.0164093
0.561548
0.533804
0.499435
0.462239
0.425037
0.389567
0.356604
0.326237
0.298128
0.271557
0.246094
0.220944
0.195573
0.169426
0.14224
0.113573
0.0833534
0.0515117
0.0179322
0.57788
0.541143
0.500182
0.458957
0.420174
0.385051
0.353729
0.325704
0.300159
0.27602
0.252652
0.229095
0.204751
0.179011
0.151609
0.122063
0.0903054
0.0562548
0.0197692
0.580947
0.535797
0.489394
0.446069
0.407985
0.375444
0.347721
0.323636
0.301897
0.281108
0.26049
0.23896
0.215888
0.19064
0.162965
0.132347
0.0987354
0.0620287
0.0220271
0.578955
0.524571
0.473804
0.430319
0.394925
0.366649
0.343776
0.324484
0.307077
0.289914
0.272152
0.25262
0.230691
0.20571
0.177454
0.145355
0.109361
0.0693177
0.0249017
0.565083
0.502317
0.450363
0.410097
0.380287
0.358512
0.342061
0.328606
0.316175
0.302991
0.288241
0.270714
0.24982
0.224896
0.195744
0.161719
0.122743
0.0785477
0.0286031
0.509873
0.447778
0.402606
0.3725
0.35392
0.343008
0.336218
0.330963
0.325211
0.317218
0.306329
0.29138
0.271875
0.24718
0.217145
0.181042
0.138733
0.0897681
0.0332538
0.455256
0.398656
0.364371
0.347248
0.341232
0.341392
0.343795
0.345955
0.346002
0.342339
0.334521
0.321448
0.302688
0.277594
0.246006
0.20702
0.160312
0.105072
0.0397404
0.387802
0.34378
0.327484
0.327901
0.33684
0.349136
0.361108
0.370733
0.376504
0.377079
0.372228
0.360946
0.342832
0.317178
0.283732
0.241299
0.189185
0.125964
0.0489627
0.275169
0.264563
0.278433
0.303174
0.330982
0.357838
0.381084
0.399472
0.412036
0.417807
0.416747
0.408034
0.391254
0.365617
0.330688
0.284881
0.226853
0.154184
0.0623099
0.16639
0.202521
0.250132
0.299005
0.344427
0.384457
0.41791
0.444323
0.463297
0.47425
0.477183
0.471511
0.456664
0.431665
0.395676
0.346476
0.281526
0.196639
0.0838587
0.062709
0.152065
0.234141
0.306462
0.368953
0.421949
0.465885
0.50095
0.527304
0.544801
0.553313
0.552609
0.541819
0.519685
0.484681
0.433613
0.361877
0.262216
0.12076
-0.0151136
0.12258
0.234506
0.327315
0.405453
0.470972
0.525798
0.570531
0.605879
0.632208
0.649116
0.6569
0.654272
0.639617
0.610352
0.561828
0.485985
0.370203
0.1903
-0.0525373
0.116498
0.249969
0.35936
0.451638
0.529498
0.596059
0.652139
0.699047
0.737849
0.767857
0.790208
0.803263
0.805186
0.792035
0.757216
0.687246
0.560393
0.334965
-0.0465609
0.131318
0.277001
0.399087
0.504134
0.594353
0.673737
0.743325
0.805207
0.861583
0.911765
0.958343
1.00002
1.03562
1.06019
1.06556
1.03101
0.920723
0.665125
-0.00837793
0.160142
0.310703
0.44248
0.559112
0.661629
0.754703
0.839955
0.920573
1.00081
1.08076
1.16565
1.25696
1.35718
1.46327
1.57021
1.65236
1.65803
1.47806
0.0382455
0.192223
0.345427
0.485729
0.612974
0.727343
0.834069
0.936472
1.03888
1.14974
1.27109
1.41305
1.58789
1.81412
2.11407
2.5454
3.19794
4.26621
6.15228
)
;

boundaryField
{
    up
    {
        type            calculated;
        value           nonuniform List<scalar> 
84
(
-6.15228
-1.47806
-0.665125
-0.334965
-0.1903
-0.12076
-0.0838587
-0.0623099
-0.0489626
-0.0397401
-0.0332535
-0.028603
-0.0249016
-0.022027
-0.0197693
-0.0179322
-0.0164094
-0.0151624
-0.0142366
-0.013565
-0.013438
-0.0146897
-0.0209848
-0.0209878
-0.0984262
-0.118262
-0.138841
-0.158972
-0.180481
-0.205004
-0.234686
-0.271567
-0.312566
-0.524742
-0.293841
-0.0209354
-0.029953
-0.0202554
-0.0154039
-0.009575
-0.00646616
-0.00335778
0.0033374
0.00641828
0.00957998
0.0153615
0.0202145
0.0298722
0.0211815
0.289176
0.526999
0.312828
0.27182
0.234885
0.205169
0.180626
0.159109
0.138983
0.118396
0.0989083
0.0209531
0.020982
0.0146886
0.0134375
0.0135646
0.0142363
0.0151622
0.0164093
0.0179322
0.0197692
0.0220271
0.0249017
0.0286031
0.0332538
0.0397404
0.0489627
0.0623099
0.0838587
0.12076
0.1903
0.334965
0.665125
1.47806
6.15228
)
;
    }
    low
    {
        type            calculated;
        value           nonuniform List<scalar> 
84
(
-0.0345204
0.0139304
0.0556013
0.0624472
0.0213922
-0.0638765
-0.176072
-0.291505
-0.406692
-0.470626
-0.523096
-0.575249
-0.582362
-0.580086
-0.57426
-0.554151
-0.521188
-0.48597
-0.455266
-0.403372
-0.348841
-0.29395
-0.23432
-0.168901
-0.111585
-0.037827
0.0347417
0.109151
0.179709
0.256928
0.319017
0.378332
0.436124
0.478376
0.508318
0.534533
0.516933
0.460964
0.387617
0.294724
0.186981
0.0722848
-0.0722508
-0.186949
-0.294692
-0.387592
-0.460948
-0.51693
-0.53453
-0.508401
-0.478343
-0.436152
-0.378352
-0.319038
-0.256949
-0.179727
-0.109171
-0.0347575
0.0377927
0.11161
0.168877
0.234334
0.293955
0.348845
0.403375
0.45527
0.485973
0.52119
0.554153
0.57426
0.580087
0.582364
0.575247
0.523098
0.470631
0.406696
0.291509
0.176075
0.0638786
-0.0213911
-0.0624472
-0.0556019
-0.0139308
0.0345205
)
;
    }
    left
    {
        type            calculated;
        value           nonuniform List<scalar> 
19
(
-0.0338845
-0.184355
-0.340532
-0.485542
-0.618145
-0.737781
-0.850138
-0.959112
-1.06904
-1.19067
-1.32591
-1.48631
-1.68817
-1.95658
-2.31987
-2.85939
-3.69989
-5.113
-5.33628
)
;
    }
    right
    {
        type            calculated;
        value           nonuniform List<scalar> 
19
(
0.0338847
0.184355
0.340532
0.485542
0.618145
0.737781
0.850139
0.959112
1.06904
1.19067
1.32591
1.48631
1.68816
1.95658
2.31986
2.85939
3.69989
5.113
5.33628
)
;
    }
    frontAndBackPlanes
    {
        type            empty;
    }
}


// ************************************************************************* //
