/*--------------------------------*- C++ -*----------------------------------*\
  =========                 |
  \\      /  F ield         | OpenFOAM: The Open Source CFD Toolbox
   \\    /   O peration     | Website:  https://openfoam.org
    \\  /    A nd           | Version:  7
     \\/     M anipulation  |
\*---------------------------------------------------------------------------*/
FoamFile
{
    version     2.0;
    format      ascii;
    class       volScalarField;
    location    "0.252";
    object      gradTz;
}
// * * * * * * * * * * * * * * * * * * * * * * * * * * * * * * * * * * * * * //

dimensions      [0 -1 0 1 0 0 0];

internalField   nonuniform List<scalar> 
1596
(
-9.682e-16
-4.7083e-16
4.78262e-16
1.02588e-17
-9.11439e-16
0
-4.25793e-16
-4.19857e-16
-2.76826e-17
-2.21095e-16
-2.03176e-18
-2.19948e-16
9.67907e-16
-2.1753e-16
1.0165e-15
8.77132e-16
5.21716e-16
6.58852e-16
0
9.67484e-16
0
1.36394e-15
-9.41084e-18
-4.18091e-16
4.14475e-16
8.54149e-16
2.63564e-17
4.04706e-16
-1.95031e-16
3.89165e-16
-5.90578e-18
-5.39836e-16
-3.37223e-16
-8.21843e-16
-8.01784e-16
-7.29427e-16
4.15194e-16
0
-4.74446e-16
0
-8.89866e-16
1.49459e-17
8.16035e-16
-2.29145e-16
1.7597e-17
-5.67524e-18
-5.76337e-18
-6.13365e-18
1.47384e-16
0
2.80036e-16
7.9434e-16
-7.82933e-17
6.30253e-17
1.48227e-16
2.31533e-16
0
7.4528e-16
-2.24106e-16
2.23287e-16
0
-2.14808e-16
-2.22289e-16
3.78418e-16
-3.3034e-16
0
0
-1.18864e-16
7.69493e-17
0
-2.33951e-16
-2.981e-16
2.06274e-16
-2.12091e-16
-1.09123e-17
0
1.30199e-16
3.46417e-16
-3.12532e-16
0
-9.22538e-17
-2.80771e-16
0
4.19626e-16
-4.17689e-17
-3.78231e-17
-3.64236e-17
2.18356e-16
2.68448e-16
2.77653e-17
9.78674e-18
-2.23036e-16
1.12386e-17
1.03307e-16
-4.4465e-17
-3.38107e-17
-4.75421e-16
4.5226e-16
-3.9482e-16
-8.21918e-19
-3.49146e-16
9.84321e-18
-9.87588e-18
-2.75704e-16
0
-3.01942e-17
-2.58214e-16
-2.4251e-16
1.97043e-16
2.047e-16
-2.79351e-18
-1.22741e-16
-1.04783e-16
8.01358e-17
2.82562e-16
-4.84261e-16
5.43169e-16
3.03899e-16
0
2.68052e-16
1.57585e-16
-7.58885e-17
3.49687e-16
-6.5677e-17
-2.77876e-16
2.51784e-18
-1.64664e-16
-1.97979e-16
-1.54695e-16
1.31736e-16
1.23822e-16
-1.65399e-18
-3.34232e-17
2.78492e-17
7.6924e-16
-9.05325e-16
0
0
-3.31791e-16
0
0
0
2.28472e-16
0
0
1.51065e-16
5.62643e-18
4.1289e-17
-1.15183e-16
0
6.13045e-17
2.3957e-17
0
-4.98991e-16
9.60203e-16
0
0
3.41698e-16
0
-1.30373e-16
1.30242e-16
-2.32551e-16
9.6828e-17
-9.75362e-17
0
1.40809e-16
1.37338e-16
0
-7.92712e-17
-6.26405e-17
-2.09317e-17
1.20215e-15
-5.62774e-16
0
-3.99318e-16
3.94849e-16
0
2.92509e-16
0
0
0
8.93917e-17
-8.98202e-17
0
-1.08768e-16
-3.11233e-17
0
8.64232e-18
4.517e-17
0
-3.05136e-16
0
0
4.00261e-16
-7.46904e-16
3.84121e-17
1.47623e-17
-1.20397e-16
1.3479e-17
4.77869e-18
-9.37873e-17
-1.50783e-16
0
1.13975e-16
-2.28283e-17
2.31709e-17
6.06858e-17
-3.54607e-17
-1.6309e-17
2.53594e-16
-2.72226e-17
2.43511e-16
8.32156e-16
-4.48557e-17
-3.48541e-16
0
0
0
1.93172e-16
7.73846e-17
2.79032e-16
-6.737e-17
-1.11936e-16
-6.65759e-17
-3.6372e-17
1.62116e-17
-3.52969e-17
1.55134e-17
-2.80684e-16
2.7503e-16
-5.08335e-16
-8.22039e-16
7.61076e-16
3.0111e-16
-5.56756e-16
4.81427e-16
-4.15865e-16
1.08459e-16
8.29996e-17
-7.51931e-17
4.8756e-17
-4.39852e-17
1.28823e-16
0
-9.73986e-18
7.18531e-17
-1.06841e-17
-1.81886e-15
8.34998e-16
6.84824e-19
-1.83458e-16
2.36129e-17
2.92438e-16
-5.5542e-16
-2.28673e-16
1.94999e-16
-1.65448e-16
-1.40925e-16
0
-1.60279e-16
-4.76896e-17
-8.52391e-17
-5.06992e-17
3.99001e-18
-4.50075e-17
1.04432e-18
2.97274e-16
-2.64738e-16
5.45848e-19
-2.03263e-16
-5.0647e-16
4.77239e-16
2.03674e-18
2.22842e-16
-1.89857e-16
3.17209e-16
7.50567e-17
6.16151e-17
1.89741e-16
0
1.57386e-16
7.23572e-17
0
2.45247e-17
8.79093e-19
0
2.56826e-16
2.016e-16
-4.19562e-16
4.90712e-16
-7.36045e-16
5.20265e-16
1.95866e-16
-2.90564e-17
-3.13871e-16
5.74051e-17
-5.71218e-17
-1.73044e-16
6.86489e-17
-3.43389e-17
-7.21901e-17
3.11877e-17
-1.9382e-17
7.64156e-18
-2.76916e-16
9.39094e-16
-6.99755e-16
3.80068e-16
0
0
-1.02251e-16
2.18115e-16
-1.54675e-16
2.90501e-16
0
0
1.16557e-16
-1.01743e-16
-7.19532e-17
2.27124e-17
-2.42904e-17
1.2813e-17
0
2.28726e-17
2.58965e-16
-2.08546e-16
-1.82386e-16
-2.93675e-16
-9.4501e-17
1.31988e-16
0
-1.4527e-16
-1.17768e-16
1.05624e-16
-8.59489e-17
6.94977e-17
0
2.74967e-17
5.36496e-17
0
0
0
-2.19076e-17
4.13322e-16
1.57124e-16
-5.506e-16
1.51621e-16
1.29734e-16
0
0
1.37062e-16
-7.14664e-17
-1.02162e-16
8.31282e-17
-6.72095e-17
0
-1.78571e-17
1.5152e-17
0
-1.28144e-17
-4.4818e-18
-2.21938e-16
6.51277e-16
-7.89489e-16
-3.14755e-16
1.65216e-16
-1.22825e-16
1.02843e-16
0
-6.97224e-17
5.80912e-17
0
0
2.63691e-17
-2.63994e-17
7.88911e-18
-1.0553e-17
1.8253e-17
2.27073e-18
3.3375e-18
1.14291e-16
-1.02901e-16
5.25543e-16
-3.39079e-16
-1.37097e-16
1.79314e-17
2.12074e-16
8.01691e-17
6.67139e-17
0
3.8317e-17
-3.54584e-17
2.81184e-17
-2.37341e-17
3.0464e-17
-5.24403e-17
-1.42119e-17
1.23927e-17
3.29221e-18
3.05542e-16
-3.09952e-16
0
2.8331e-16
-1.49583e-16
-1.10967e-16
7.62552e-17
-2.44507e-16
0
-4.34652e-18
-4.44136e-17
-3.17998e-17
4.60935e-17
-3.6106e-18
-2.9443e-17
2.17305e-17
0
7.83307e-18
-3.19671e-18
5.22979e-16
-9.22117e-17
3.91203e-16
-3.06363e-16
1.6772e-16
1.76127e-17
-1.91785e-16
-6.50222e-17
1.16898e-16
-5.05217e-18
-6.77477e-17
5.70548e-17
-2.49001e-17
-3.25589e-17
0
0
0
-7.90674e-18
2.9339e-19
-4.64548e-16
4.52234e-16
3.26022e-19
6.87575e-17
5.90002e-17
-1.4181e-16
1.66813e-16
-1.36558e-16
1.16026e-16
-3.81805e-17
7.25347e-17
2.56459e-17
-1.08607e-17
5.48824e-19
-3.87144e-18
-6.79674e-18
0
0
0
0
0
2.20895e-16
-1.08294e-16
-3.34703e-16
0
0
-3.96828e-17
-6.37332e-17
5.31021e-17
0
-3.23442e-17
2.49873e-17
-8.28551e-17
9.51439e-17
-3.08786e-17
3.28643e-17
3.58596e-18
0
-9.0005e-17
9.11128e-17
0
-7.29998e-17
7.40318e-17
1.22008e-16
0
4.00617e-17
5.23705e-17
-2.34872e-16
0
-3.60775e-17
2.8017e-17
1.99303e-17
-1.47538e-17
2.15449e-17
0
-7.8903e-18
0
-4.62893e-17
-4.5997e-17
2.72365e-18
7.50054e-17
-2.01011e-16
0
-5.14724e-17
0
1.44688e-16
5.81166e-17
0
1.43082e-16
-1.49618e-16
1.52791e-17
-3.27184e-17
9.49164e-18
4.14373e-17
1.56091e-17
-1.23659e-17
0
9.56002e-17
-8.36098e-17
1.03699e-16
1.24227e-16
0
1.04689e-16
-9.88364e-17
-7.76211e-17
1.16327e-16
-1.7459e-16
-8.48818e-17
0
0
1.83703e-17
0
0
5.22336e-18
0
-4.24379e-16
3.25904e-16
0
5.07252e-18
-7.24576e-17
-3.98094e-18
6.42695e-17
4.581e-17
-5.75162e-17
-1.45431e-16
2.30258e-16
-6.24791e-17
0
-2.96833e-17
0
0
0
-2.01897e-17
1.61317e-17
-1.2013e-16
1.1244e-16
3.00088e-16
-2.93293e-16
9.00066e-17
5.0998e-18
-6.52899e-17
5.62215e-17
9.5469e-17
7.2909e-17
-1.44071e-16
0
7.42902e-17
1.01605e-17
-3.39827e-17
-7.41274e-17
6.10583e-17
-9.82502e-18
1.86169e-17
-4.06801e-16
5.84652e-16
-5.79708e-16
1.01894e-16
8.64258e-17
-8.22143e-17
6.91379e-17
-5.48349e-17
0
-4.64933e-17
7.43601e-17
3.22467e-17
5.19292e-17
6.55358e-17
-9.80712e-17
-1.72025e-18
0
-7.57202e-18
2.53644e-18
-4.39849e-16
-1.30831e-16
-2.29366e-16
1.22026e-16
-1.99192e-16
1.73135e-16
-1.03176e-16
8.72698e-17
-6.11985e-18
-6.10273e-18
-7.83145e-17
4.63024e-17
-2.57762e-17
7.86198e-17
-8.43992e-17
1.04156e-17
8.90316e-18
0
-4.40084e-18
4.75573e-16
-1.41125e-16
0
0
-2.05148e-16
3.99083e-16
-9.32857e-17
-1.79039e-17
1.4737e-16
-3.81487e-18
0
0
-3.38937e-17
0
-7.36152e-17
1.78466e-16
-1.23767e-16
0
1.75457e-18
1.62554e-16
3.03559e-16
0
-1.29293e-16
-1.0544e-16
-9.32871e-17
-9.70643e-17
4.01931e-17
-1.12305e-16
-6.13975e-17
0
0
4.53845e-17
0
0
-9.99071e-17
1.64718e-16
0
0
1.11558e-15
-1.32113e-16
-6.74989e-16
-3.6751e-16
4.9852e-16
1.58865e-16
9.41159e-17
0
-3.459e-17
3.34671e-17
8.30504e-17
-2.67719e-17
-3.98252e-17
6.17648e-17
-6.56988e-17
-2.0213e-17
0
0
0
8.93369e-17
-7.04886e-16
6.91036e-16
-6.62432e-17
-5.1237e-16
8.02119e-16
-4.02831e-16
0
0
2.1503e-16
-1.76613e-16
0
-5.33507e-17
9.29611e-17
-1.04343e-17
2.71442e-17
8.2757e-18
9.06125e-20
1.80267e-18
0
0
0
5.81412e-16
-3.89944e-16
4.1006e-16
-6.39407e-16
1.82153e-16
0
-6.56551e-17
1.05069e-16
-1.07386e-16
-2.10764e-17
-3.50494e-19
-1.44585e-17
-2.12226e-18
-1.15299e-17
-3.23667e-18
-1.76701e-18
7.47948e-16
-1.33382e-15
6.32176e-16
0
1.70294e-16
-2.32033e-16
2.32739e-16
-1.84627e-16
0
-9.00174e-17
1.26204e-16
0
0
-2.52595e-19
0
-1.49738e-17
1.02409e-17
1.87792e-18
2.81913e-18
7.26332e-16
0
-2.89177e-16
3.22995e-16
-2.02903e-16
4.43458e-16
-2.09677e-16
-1.64216e-16
1.65931e-16
-1.68857e-17
0
0
1.08359e-17
-1.82943e-17
-1.28284e-17
2.43209e-17
-5.26526e-18
2.69263e-18
0
4.12365e-16
3.22283e-16
-1.09761e-17
-3.0799e-16
-3.112e-17
-2.24539e-16
2.4236e-17
1.88795e-16
-9.76512e-18
1.72028e-17
0
0
-1.11006e-17
0
1.30644e-17
-1.39758e-17
0
1.79015e-18
-4.96218e-19
-2.18871e-16
-1.61679e-16
1.51395e-16
-1.73498e-17
-7.78391e-18
2.10401e-17
0
-5.56131e-18
8.33646e-17
-7.02063e-17
0
2.38097e-17
-4.67171e-18
-2.1023e-17
-1.92343e-18
-1.49995e-18
0
-1.39942e-18
0
8.93907e-17
-1.70009e-16
-2.26373e-18
7.30983e-17
6.69599e-17
-6.65234e-17
-4.72045e-17
5.34346e-17
-1.83613e-17
1.43634e-17
-1.39738e-17
1.44048e-17
0
3.68417e-20
-1.41741e-18
5.09529e-18
-1.74396e-20
0
0
8.93938e-17
-8.90588e-17
-7.27152e-17
6.44157e-17
1.18288e-16
-1.18986e-16
-2.3603e-17
2.36591e-17
-1.85166e-17
1.87109e-17
-1.39743e-17
2.63742e-17
-7.39714e-18
-5.3286e-18
-1.63588e-18
5.42331e-19
1.294e-18
3.42201e-19
-2.56637e-19
0
-2.1211e-17
1.26658e-16
-1.37289e-16
1.18076e-16
-1.04667e-16
0
8.3441e-17
-7.46381e-17
0
2.78176e-17
-3.52218e-17
-2.00612e-17
2.10254e-17
3.86859e-18
0
0
-1.39964e-18
5.08603e-19
3.55762e-16
-6.55266e-16
6.68796e-16
-5.87475e-16
2.31033e-16
-1.96606e-16
1.8656e-16
2.22011e-17
-8.27233e-17
7.39139e-17
0
-5.36982e-17
4.89031e-17
-9.29655e-18
-3.78928e-18
5.96121e-18
4.38273e-18
1.35878e-18
-4.91426e-19
8.18977e-16
0
-3.27128e-16
2.54234e-16
3.07621e-17
-2.36734e-16
4.20061e-16
-3.73109e-16
1.46519e-16
-6.27398e-17
6.42197e-17
1.27275e-17
2.1878e-17
9.05494e-18
-7.5131e-18
-9.86818e-19
-9.49389e-18
0
9.7102e-19
6.5654e-16
-7.39024e-16
0
6.78716e-17
2.93198e-16
-2.87185e-16
4.90672e-17
4.35237e-17
1.90194e-17
3.35543e-17
0
0
-3.8056e-17
7.13224e-17
-2.60692e-17
-9.35628e-18
1.02436e-17
8.20971e-19
-1.8467e-18
5.98726e-17
6.49194e-16
-7.50951e-17
-5.13727e-16
4.51006e-16
5.4023e-17
-4.80211e-17
-4.25097e-17
1.40277e-16
-1.74014e-16
1.05101e-16
-1.07418e-16
1.6827e-17
-2.1367e-17
3.90385e-17
-2.60219e-17
0
0
1.87809e-18
0
1.62766e-16
-4.89562e-16
5.59423e-16
-4.53206e-16
4.52127e-16
0
1.573e-16
-1.5802e-16
-1.19172e-16
1.76745e-16
0
7.36094e-17
-9.30291e-17
-1.37756e-17
0
-1.55296e-18
-3.10268e-18
-5.10054e-20
-1.54568e-15
7.37542e-16
0
-4.98432e-16
4.98382e-16
3.06388e-16
-2.01395e-16
8.31874e-17
0
-3.75373e-18
2.80353e-17
-2.67355e-17
-3.97733e-17
6.16753e-17
-6.55813e-17
0
1.42897e-17
-3.15982e-18
-1.92159e-18
9.51402e-16
-9.36216e-16
0
1.29107e-16
1.17577e-16
-1.07567e-16
0
-8.71811e-17
-7.52601e-17
0
-3.33933e-18
0
4.5405e-17
0
0
2.04891e-17
7.70975e-17
-9.97253e-17
0
1.26304e-19
1.41193e-16
-1.30461e-16
1.06867e-16
-5.4302e-16
2.08031e-16
0
1.79168e-17
5.07994e-17
0
-5.23307e-17
1.52712e-16
-1.60433e-16
2.70918e-17
0
-3.03747e-18
0
0
0
1.24408e-19
0
1.20578e-16
0
-1.87419e-16
1.90398e-16
0
6.85862e-17
-5.51655e-17
2.00516e-16
-9.68166e-17
3.51176e-17
-5.66974e-17
5.41554e-17
-8.45039e-17
-1.35104e-17
0
-9.00829e-18
0
3.70129e-16
-6.25864e-16
0
-1.01883e-16
9.16081e-17
0
0
-1.25358e-16
0
-4.65278e-17
-7.4419e-17
-3.22764e-17
5.19825e-17
0
2.80733e-17
0
0
1.97146e-17
-2.18258e-17
0
5.42147e-16
-4.34079e-16
9.432e-17
-8.48296e-17
-3.49566e-17
1.00842e-16
1.13667e-16
-1.39505e-16
4.50288e-17
3.11818e-18
-4.24248e-17
1.73885e-16
-5.41083e-17
-1.26476e-16
4.37524e-17
-1.14008e-17
6.82195e-18
-2.09367e-18
-8.79102e-16
3.25891e-16
0
0
3.62832e-17
-3.68959e-17
2.66582e-17
1.77404e-17
1.26058e-16
6.48311e-17
-6.43399e-17
-2.47999e-18
-3.65468e-17
2.97106e-17
0
1.48498e-17
1.04496e-17
5.66028e-18
1.89238e-18
0
2.82683e-16
-2.64277e-16
8.48696e-17
8.81733e-17
-1.70377e-17
-5.53292e-17
-4.74344e-17
-1.57766e-16
6.3926e-17
-3.95486e-17
5.37731e-17
3.41758e-17
-4.29958e-17
4.56374e-17
2.92438e-17
-3.79355e-17
-5.22811e-18
0
-4.98441e-17
-2.24422e-16
8.04533e-17
7.50252e-17
-2.59455e-16
1.86035e-16
9.33036e-17
-9.53706e-17
7.36662e-17
-6.0669e-17
0
0
-5.12987e-17
9.22165e-17
-4.07704e-17
3.84202e-17
-4.19852e-17
6.96802e-18
-1.23775e-17
9.36451e-17
8.76568e-17
-7.99993e-17
6.31048e-17
-7.3307e-17
-1.12613e-16
0
0
0
0
0
0
2.63345e-17
-6.98282e-17
7.38509e-17
-2.4142e-17
2.97519e-17
1.40364e-17
-1.19032e-17
1.93837e-16
-3.31969e-16
4.15379e-16
-1.96081e-16
2.7099e-16
-1.99754e-16
3.7341e-16
-2.11314e-16
-1.14562e-16
1.17192e-16
0
3.23245e-17
-2.57274e-17
6.34067e-17
-2.11088e-17
-2.73561e-17
-5.79737e-17
4.34988e-18
1.01293e-17
3.0157e-16
8.72288e-17
0
-1.37068e-16
-1.09069e-16
2.50379e-16
2.6032e-17
-1.022e-16
6.09901e-17
-4.36264e-17
0
-2.55885e-17
0
-2.10165e-17
1.70991e-17
-1.54477e-17
-5.11638e-18
3.62669e-18
0
4.21345e-16
-9.22104e-17
3.91041e-16
-3.06282e-16
-6.19671e-17
2.45903e-16
-1.47473e-16
7.3065e-18
6.06104e-18
-4.26226e-17
4.12059e-17
0
0
2.55118e-17
-9.357e-18
6.12033e-18
1.85141e-17
-6.44308e-18
0
8.64204e-20
0
-8.65101e-17
5.10436e-16
-3.45341e-16
-3.70233e-16
2.02848e-16
-2.13935e-16
1.98673e-16
9.91343e-17
-7.53843e-17
3.07675e-17
-2.74897e-17
4.74308e-18
4.57341e-17
1.74675e-18
-1.75318e-17
1.73522e-17
-3.55849e-18
1.02617e-15
-3.2751e-16
1.61597e-16
-4.98483e-16
1.37096e-16
-2.15937e-16
1.15719e-16
0
0
-4.45135e-18
-6.01386e-18
-1.77375e-18
0
-3.99202e-17
-3.04646e-17
2.24545e-17
-1.65242e-18
2.94421e-18
7.03075e-18
0
-3.26038e-16
5.54806e-16
1.25498e-16
-4.5452e-16
1.22824e-16
-1.89958e-16
3.1027e-17
1.55354e-16
0
0
2.89186e-18
3.32916e-17
0
-2.99024e-17
-1.36807e-17
2.00966e-18
-7.18093e-18
-8.18989e-18
0
-2.05909e-16
4.4684e-17
3.74374e-16
2.82635e-16
-5.18981e-16
2.36415e-16
-1.66603e-16
8.89817e-17
-1.24583e-16
0
0
0
-5.3793e-17
1.4551e-17
-1.79447e-17
0
-1.12194e-18
5.6234e-18
-7.72055e-16
7.32451e-16
7.88265e-16
-9.57269e-16
4.50837e-16
-4.24548e-16
0
1.75326e-16
-2.40274e-16
1.39824e-16
-1.09733e-16
9.01795e-17
7.36779e-17
5.56338e-17
4.39834e-17
0
0
0
0
8.53044e-16
-4.93783e-16
0
0
-1.64182e-16
4.02161e-16
-2.57728e-16
-1.85421e-16
1.83331e-16
1.37653e-16
2.32167e-16
-9.35699e-17
4.01227e-17
3.05425e-17
2.25955e-17
1.85482e-17
3.00152e-17
-1.47713e-18
1.50459e-18
-8.64877e-16
7.96027e-16
4.27432e-16
-2.22046e-16
4.90596e-16
-3.15134e-16
-2.50866e-16
-2.12998e-16
0
-2.88625e-16
1.3883e-17
1.06793e-16
-8.40333e-17
-6.8649e-17
-2.54159e-17
-2.6852e-17
-2.14718e-17
0
0
-2.97529e-16
0
2.32222e-16
-3.52638e-19
0
0
2.58776e-16
2.19784e-16
0
1.5626e-16
0
-1.62326e-16
-4.58114e-17
8.1419e-17
0
5.27015e-17
-7.45299e-18
7.60305e-18
0
6.32649e-16
0
4.4775e-16
-8.32426e-16
7.44916e-16
6.05373e-16
-1.83119e-17
0
1.61054e-17
1.81382e-16
0
-1.82217e-16
2.04769e-16
-1.8259e-16
-3.98914e-17
-4.23312e-17
-1.24988e-17
-2.23704e-18
-7.96396e-18
-5.897e-16
8.49845e-16
-2.41586e-16
-6.34709e-16
-3.68744e-16
-3.20246e-16
-5.55219e-16
-2.24405e-16
1.75795e-17
8.31557e-17
-8.29995e-17
2.66237e-16
-1.17876e-16
2.37617e-16
-4.4531e-17
0
5.08586e-17
-2.99677e-17
8.04005e-18
1.30107e-15
-2.76841e-17
-9.98383e-16
8.32162e-16
-7.49928e-16
6.56745e-16
-2.04116e-17
-2.51863e-16
2.20824e-16
8.8567e-17
-1.11596e-17
-2.1755e-16
6.31486e-17
6.68284e-17
-2.03171e-17
2.05489e-17
-5.26772e-17
-5.38818e-18
-1.24472e-17
6.38711e-16
2.71469e-16
4.79342e-16
-4.23417e-16
-3.51995e-16
1.78953e-17
-2.73112e-16
6.62073e-16
2.1951e-17
3.09578e-16
1.81905e-16
-1.61516e-16
0
-1.13974e-16
0
0
7.34984e-17
3.23784e-17
1.45248e-17
6.00117e-16
0
4.73752e-16
4.20684e-16
-3.75678e-16
3.30296e-16
0
-2.59763e-16
-3.61307e-16
-3.16663e-16
-1.83515e-16
1.63343e-16
0
0
0
0
-6.89077e-17
-5.11961e-17
0
-1.17588e-15
0
-2.26904e-17
-2.00352e-17
5.71733e-16
-3.24785e-16
-1.49666e-16
-1.503e-16
3.67038e-16
0
9.68275e-17
-1.02468e-17
8.70729e-17
0
0
1.1493e-16
-8.55831e-18
6.14755e-17
-2.33907e-17
8.27609e-16
2.39951e-16
-2.37474e-16
-2.10875e-16
-7.36717e-16
5.08244e-16
6.16367e-16
-1.64112e-17
-2.50376e-16
2.47534e-16
5.21129e-17
-2.64479e-16
-2.16975e-16
-1.31612e-16
-1.3935e-16
-1.32504e-16
1.10119e-16
-5.19894e-18
2.3957e-17
-2.54631e-16
1.16171e-16
-5.60437e-16
9.66221e-17
-9.62706e-17
0
-3.06266e-16
-2.1005e-17
-2.84278e-16
2.37661e-17
2.77875e-16
2.05575e-16
-5.04934e-17
2.13829e-17
1.32512e-16
0
-2.29158e-16
-8.41551e-17
-1.74893e-18
5.17406e-16
-1.41583e-17
8.813e-16
-4.21044e-16
8.21917e-19
1.12426e-17
3.38431e-16
-2.59923e-17
2.75703e-16
-2.58217e-16
-2.4289e-16
0
2.4251e-16
1.94005e-16
2.69778e-18
-3.92167e-18
1.23929e-16
8.55394e-17
0
-3.67913e-16
0
-8.95327e-17
4.01114e-16
5.54899e-18
9.2377e-17
-3.27257e-16
3.09653e-16
3.2691e-16
3.13222e-16
3.01109e-16
0
-2.35594e-16
0
1.25048e-17
-1.29874e-17
0
-1.24119e-18
6.10578e-17
2.54371e-16
1.2926e-17
-2.03121e-16
6.2594e-16
-2.01197e-16
0
0
-3.66335e-16
-3.16742e-16
-3.03442e-16
-5.50507e-16
-7.69491e-17
0
0
0
-2.55741e-17
2.70638e-17
1.73148e-16
-6.19889e-17
1.33906e-17
0
-4.36081e-16
-4.00069e-16
4.18492e-16
-4.15392e-16
-5.95494e-16
7.31612e-16
2.03039e-16
0
3.24262e-16
3.67263e-16
-7.93022e-17
4.30697e-16
-7.05385e-17
7.34134e-17
2.85306e-16
-1.64536e-16
0
-4.86091e-16
0
-4.65872e-16
4.56723e-16
0
8.26269e-16
3.88459e-16
-8.15024e-16
6.50822e-16
-4.26467e-18
-1.97028e-16
-3.55586e-16
0
4.90193e-16
-8.21843e-16
8.81953e-16
-1.12393e-15
0
0
4.83956e-16
-3.09188e-18
-7.6143e-18
-9.1999e-16
9.28162e-16
-4.48925e-16
4.47095e-16
4.4063e-16
-3.90149e-16
0
0
7.34165e-16
-7.46813e-16
-7.98315e-16
7.91416e-16
-7.71004e-16
8.33924e-16
-1.30631e-15
0
)
;

boundaryField
{
    up
    {
        type            calculated;
        value           nonuniform List<scalar> 
84
(
0
0
0
0
-4.4465e-17
8.01358e-17
-3.34232e-17
2.3957e-17
-2.09317e-17
0
-1.6309e-17
1.55134e-17
-1.06841e-17
1.04432e-18
8.79093e-19
7.64156e-18
0
0
-4.4818e-18
3.3375e-18
3.29221e-18
-3.19671e-18
2.9339e-19
0
1.30355e-18
6.10623e-19
-1.17672e-17
0
1.61317e-17
1.94743e-17
2.53644e-18
-4.40084e-18
1.75457e-18
0
-8.63356e-19
1.86494e-18
-1.76399e-18
2.81441e-18
0
-4.95329e-19
0
0
-2.5677e-19
5.08603e-19
-4.91426e-19
9.7102e-19
-1.8467e-18
1.87809e-18
-5.10054e-20
-1.92159e-18
0
0
0
-2.18258e-17
-2.95171e-18
1.89238e-18
0
-1.23775e-17
-1.19032e-17
8.83012e-18
0
0
-3.55849e-18
7.03075e-18
-8.18989e-18
5.6234e-18
0
1.50459e-18
0
0
-7.96396e-18
8.04005e-18
-1.24472e-17
1.45248e-17
0
-2.33907e-17
2.3957e-17
-1.74893e-18
0
6.10578e-17
-6.19889e-17
0
0
0
)
;
    }
    low
    {
        type            calculated;
        value           nonuniform List<scalar> 
84
(
-9.68871e-16
9.67484e-16
-4.73221e-16
7.46275e-16
1.30873e-16
-3.40098e-17
2.84236e-16
2.94512e-17
0
1.20401e-15
-3.05136e-16
2.52585e-16
-2.80684e-16
-1.81885e-15
2.97274e-16
0
-2.76916e-16
2.28726e-17
-2.19076e-17
-2.21938e-16
1.14291e-16
3.05542e-16
5.2108e-16
-4.64548e-16
0
-9.0005e-17
-4.62893e-17
0
-4.24379e-16
-1.2013e-16
-4.05564e-16
-4.38864e-16
4.74901e-16
1.62554e-16
1.11561e-15
8.93369e-17
0
7.47948e-16
7.27848e-16
4.13199e-16
-2.19318e-16
8.93907e-17
8.93938e-17
0
3.55762e-16
8.20492e-16
6.5654e-16
6.08785e-17
0
-1.54571e-15
9.51402e-16
1.26304e-19
1.24408e-19
3.70129e-16
0
-8.77148e-16
0
-4.98441e-17
9.36451e-17
1.9268e-16
2.99536e-16
4.19446e-16
8.64204e-20
1.02459e-15
0
0
-7.72055e-16
8.52246e-16
-8.6434e-16
-2.97529e-16
6.32639e-16
-5.897e-16
1.30309e-15
6.40149e-16
6.00117e-16
-1.17588e-15
8.26007e-16
-2.52958e-16
5.17406e-16
-3.67239e-16
2.54371e-16
1.46155e-17
-4.86091e-16
4.84291e-16
)
;
    }
    left
    {
        type            calculated;
        value           nonuniform List<scalar> 
19
(
-9.682e-16
-4.71191e-16
4.78262e-16
1.02568e-17
-9.11684e-16
0
-4.25793e-16
-4.19857e-16
-2.9062e-17
-2.21095e-16
-2.03176e-18
-2.19948e-16
9.7769e-16
-2.1753e-16
1.0165e-15
8.77132e-16
5.21716e-16
7.65206e-16
0
)
;
    }
    right
    {
        type            calculated;
        value           nonuniform List<scalar> 
19
(
4.83956e-16
-2.73045e-18
-7.6143e-18
-9.19988e-16
9.28408e-16
-4.48925e-16
4.47095e-16
4.4063e-16
-3.8877e-16
0
0
7.41118e-16
-7.56595e-16
-7.98315e-16
7.91416e-16
-7.71004e-16
8.33924e-16
-1.41266e-15
0
)
;
    }
    frontAndBackPlanes
    {
        type            empty;
    }
}


// ************************************************************************* //
