/*--------------------------------*- C++ -*----------------------------------*\
  =========                 |
  \\      /  F ield         | OpenFOAM: The Open Source CFD Toolbox
   \\    /   O peration     | Website:  https://openfoam.org
    \\  /    A nd           | Version:  7
     \\/     M anipulation  |
\*---------------------------------------------------------------------------*/
FoamFile
{
    version     2.0;
    format      ascii;
    class       volScalarField;
    location    "0.169";
    object      gradTx;
}
// * * * * * * * * * * * * * * * * * * * * * * * * * * * * * * * * * * * * * //

dimensions      [0 -1 0 1 0 0 0];

internalField   nonuniform List<scalar> 
1596
(
-0.326953
-1.63913
-2.92528
-4.06584
-5.04596
-5.85783
-6.53951
-7.11616
-7.62428
-8.13209
-8.66245
-9.2978
-10.1316
-11.293
-12.9297
-15.3974
-19.2361
-25.6073
-36.9124
0.0744974
-1.35694
-2.62252
-3.70178
-4.61489
-5.36382
-5.98358
-6.48723
-6.90288
-7.26784
-7.59093
-7.91923
-8.2746
-8.6866
-9.14974
-9.64597
-10.0285
-9.99042
-8.87364
0.4052
-1.09185
-2.31113
-3.31342
-4.14549
-4.82097
-5.37046
-5.80286
-6.1375
-6.3955
-6.57851
-6.71303
-6.79972
-6.8422
-6.82153
-6.70015
-6.36306
-5.60336
-4.00673
0.463186
-0.936915
-2.04108
-2.9345
-3.66848
-4.26174
-4.73824
-5.10507
-5.37468
-5.5584
-5.6558
-5.68065
-5.62816
-5.49445
-5.26384
-4.90628
-4.35019
-3.47502
-2.03761
0.157295
-0.953963
-1.85983
-2.60569
-3.22273
-3.72494
-4.12682
-4.43333
-4.65132
-4.78539
-4.83526
-4.80625
-4.69299
-4.48971
-4.18609
-3.76102
-3.1741
-2.35929
-1.18013
-0.481467
-1.1679
-1.80537
-2.36682
-2.8478
-3.24888
-3.57275
-3.82071
-3.99457
-4.09378
-4.11844
-4.06793
-3.93726
-3.71996
-3.40947
-2.99038
-2.441
-1.72593
-0.770516
-1.32723
-1.56093
-1.8955
-2.24666
-2.57509
-2.86418
-3.10423
-3.29125
-3.42221
-3.49237
-3.50153
-3.44485
-3.31742
-3.11213
-2.82423
-2.44121
-1.95139
-1.33551
-0.553082
-2.20806
-2.05632
-2.10117
-2.2384
-2.40792
-2.57857
-2.73009
-2.85265
-2.93877
-2.98024
-2.97581
-2.91777
-2.80081
-2.61719
-2.36257
-2.0257
-1.59967
-1.07319
-0.424069
-3.11619
-2.6981
-2.48971
-2.41422
-2.41346
-2.45023
-2.49823
-2.54256
-2.572
-2.57555
-2.55005
-2.48578
-2.37652
-2.21361
-1.99212
-1.70104
-1.33495
-0.885849
-0.340402
-3.6603
-3.15008
-2.79529
-2.56925
-2.43455
-2.35904
-2.31669
-2.29047
-2.26722
-2.23447
-2.18742
-2.11548
-2.01163
-1.86686
-1.67559
-1.42708
-1.11625
-0.736493
-0.27882
-4.10728
-3.5623
-3.12173
-2.78545
-2.53838
-2.35964
-2.22869
-2.12958
-2.04917
-1.97468
-1.90004
-1.81433
-1.70987
-1.57729
-1.41025
-1.19807
-0.93524
-0.615351
-0.231236
-4.56877
-4.02542
-3.53265
-3.11056
-2.76317
-2.48329
-2.25923
-2.07919
-1.93201
-1.80579
-1.69376
-1.58499
-1.47108
-1.34226
-1.19132
-1.00744
-0.784276
-0.514988
-0.192744
-4.70832
-4.23872
-3.75993
-3.31185
-2.91412
-2.57221
-2.28389
-2.04328
-1.84296
-1.67334
-1.5282
-1.39749
-1.27277
-1.14444
-1.00488
-0.843551
-0.6536
-0.42793
-0.159735
-4.76054
-4.36959
-3.92967
-3.48349
-3.06027
-2.6761
-2.33765
-2.04583
-1.79784
-1.58732
-1.40944
-1.25541
-1.11716
-0.985389
-0.85228
-0.707606
-0.544108
-0.354491
-0.131887
-4.77864
-4.45809
-4.06452
-3.63564
-3.20361
-2.79188
-2.41469
-2.07966
-1.78909
-1.54032
-1.33059
-1.15263
-0.998984
-0.860772
-0.730082
-0.596975
-0.453897
-0.293406
-0.108556
-4.69203
-4.44727
-4.10973
-3.71443
-3.29324
-2.87354
-2.47501
-2.1111
-1.78905
-1.5101
-1.27401
-1.07537
-0.907661
-0.76261
-0.632428
-0.507532
-0.380251
-0.243121
-0.0891983
-4.49251
-4.32096
-4.04563
-3.69672
-3.30373
-2.89519
-2.4939
-2.11767
-1.77802
-1.47989
-1.22575
-1.01225
-0.834085
-0.683816
-0.553995
-0.435498
-0.320713
-0.202292
-0.0734099
-4.24919
-4.12559
-3.90583
-3.60607
-3.24989
-2.86437
-2.47344
-2.09769
-1.75195
-1.44436
-1.17997
-0.957468
-0.772859
-0.619645
-0.490842
-0.377821
-0.273143
-0.169667
-0.0607734
-4.04613
-3.96066
-3.78296
-3.52238
-3.19709
-2.83196
-2.45131
-2.07759
-1.72825
-1.41406
-1.14222
-0.913135
-0.72392
-0.568814
-0.441172
-0.332696
-0.236046
-0.144248
-0.0509067
-3.66432
-3.63116
-3.50473
-3.29522
-3.01695
-2.69136
-2.34137
-1.98963
-1.65497
-1.35004
-1.08382
-0.858479
-0.672354
-0.520697
-0.397484
-0.294946
-0.206009
-0.12403
-0.0430981
-3.22978
-3.23806
-3.15842
-2.99837
-2.76908
-2.48858
-2.17755
-1.85766
-1.54801
-1.26226
-1.01052
-0.796313
-0.619105
-0.475166
-0.359189
-0.263987
-0.182713
-0.108915
-0.0372629
-2.76672
-2.8012
-2.76016
-2.64549
-2.46462
-2.23197
-1.96553
-1.6851
-1.40908
-1.15123
-0.922067
-0.725993
-0.563348
-0.431389
-0.325653
-0.239665
-0.166742
-0.1001
-0.0341311
-2.24313
-2.28969
-2.27995
-2.20909
-2.07967
-1.90154
-1.68912
-1.45924
-1.22857
-1.01003
-0.813698
-0.644474
-0.503293
-0.388459
-0.296664
-0.222617
-0.16013
-0.101726
-0.0387569
-1.64327
-1.62107
-1.55858
-1.45718
-1.3243
-1.17057
-1.00796
-0.847388
-0.698084
-0.565815
-0.453468
-0.361149
-0.286767
-0.22757
-0.180675
-0.142827
-0.110111
-0.0768027
-0.0340138
-1.09826
-1.21439
-1.32588
-1.40727
-1.4427
-1.42544
-1.35844
-1.25112
-1.11764
-0.972336
-0.827351
-0.692065
-0.571011
-0.466991
-0.380868
-0.312166
-0.258028
-0.213662
-0.170052
-0.369069
-0.417429
-0.477321
-0.535047
-0.580397
-0.606585
-0.611614
-0.596536
-0.566014
-0.525603
-0.479687
-0.432712
-0.385714
-0.340114
-0.29721
-0.259675
-0.228648
-0.20538
-0.188714
0.361926
0.30468
0.21939
0.118406
0.0140703
-0.0830532
-0.165893
-0.230705
-0.277709
-0.309326
-0.327774
-0.336052
-0.334289
-0.323195
-0.304045
-0.281106
-0.257978
-0.238755
-0.224369
1.08816
1.0102
0.891012
0.744001
0.583099
0.421293
0.268908
0.132712
0.0154522
-0.0831328
-0.163797
-0.228211
-0.275285
-0.303949
-0.313787
-0.309071
-0.295212
-0.27951
-0.265548
1.73856
1.62519
1.46495
1.27317
1.06413
0.85135
0.645999
0.455629
0.284017
0.131659
-0.00169276
-0.117069
-0.212349
-0.284062
-0.328205
-0.346541
-0.34434
-0.332087
-0.317182
2.40352
2.2443
2.0365
1.79591
1.53734
1.27481
1.01981
0.779961
0.55926
0.358136
0.176035
0.0114115
-0.133813
-0.254572
-0.342399
-0.393769
-0.410038
-0.403256
-0.386067
2.8931
2.68234
2.43003
2.15116
1.86003
1.5691
1.28804
1.02263
0.775667
0.546544
0.333746
0.134296
-0.0515548
-0.219174
-0.356574
-0.453031
-0.499981
-0.504922
-0.483758
3.33977
3.08585
2.79052
2.47473
2.15341
1.83761
1.53506
1.24976
0.983277
0.733968
0.49935
0.274513
0.0564671
-0.154057
-0.346037
-0.50455
-0.607032
-0.645651
-0.630321
3.74053
3.42986
3.08892
2.73887
2.39292
2.05941
1.74356
1.44727
1.1709
0.911982
0.667599
0.431665
0.197992
-0.0389011
-0.275094
-0.50159
-0.688188
-0.804998
-0.822776
3.98173
3.58599
3.17758
2.77519
2.3889
2.02397
1.68311
1.36645
1.07329
0.800683
0.545255
0.300706
0.0591197
-0.190239
-0.454246
-0.740253
-1.03396
-1.30889
-1.51497
4.11222
3.68405
3.27441
2.89433
2.54521
2.22528
1.93179
1.66155
1.41193
1.18016
0.964171
0.761157
0.56752
0.377684
0.184372
-0.0272763
-0.27031
-0.559184
-0.897309
4.19489
3.7567
3.36338
3.01022
2.69014
2.39739
2.12722
1.8761
1.64179
1.42236
1.21693
1.02494
0.845451
0.678004
0.522745
0.378115
0.24197
0.108367
-0.0337144
3.93468
3.43626
3.00874
2.63597
2.30639
2.01214
1.74708
1.50657
1.28728
1.08612
0.901124
0.730825
0.573507
0.42836
0.295747
0.176167
0.071274
-0.0164128
-0.0858643
3.42632
2.97925
2.60083
2.27457
1.98904
1.7362
1.50992
1.30553
1.11977
0.949741
0.793661
0.650249
0.518027
0.396177
0.28459
0.182928
0.0912535
0.0101918
-0.0604745
2.82679
2.4562
2.14073
1.86909
1.63237
1.42376
1.23791
1.07072
0.919265
0.780987
0.654297
0.538011
0.430763
0.331696
0.240527
0.15677
0.0803325
0.0117337
-0.049148
2.11656
1.83321
1.59402
1.38975
1.21297
1.05802
0.92054
0.797207
0.685702
0.583994
0.490839
0.405292
0.326279
0.253117
0.18558
0.123308
0.0662855
0.0149978
-0.0305641
1.32772
1.13906
0.984928
0.855878
0.745528
0.649515
0.564732
0.488899
0.420468
0.358104
0.300989
0.248498
0.199928
0.154826
0.113034
0.0743186
0.0386843
0.0064851
-0.0222181
0.508221
0.431289
0.370823
0.320947
0.278504
0.241635
0.209127
0.180129
0.154064
0.130432
0.108908
0.089225
0.0710858
0.0542746
0.0386772
0.024156
0.0106601
-0.00172244
-0.0129825
-0.507978
-0.430738
-0.370059
-0.320038
-0.277505
-0.240587
-0.208065
-0.179081
-0.153054
-0.129481
-0.108031
-0.0884378
-0.0704002
-0.0537008
-0.0382233
-0.0238283
-0.0104625
0.00178945
0.0129214
-1.32749
-1.13857
-0.984251
-0.855077
-0.74465
-0.6486
-0.56381
-0.487997
-0.419606
-0.357302
-0.300262
-0.247859
-0.19939
-0.154397
-0.112721
-0.0741284
-0.0386201
-0.00654619
0.0220356
-2.11633
-1.83273
-1.59335
-1.38895
-1.21208
-1.05708
-0.919589
-0.796265
-0.684792
-0.583135
-0.490046
-0.404576
-0.325651
-0.252583
-0.185144
-0.122971
-0.0660461
-0.0148516
0.0306238
-2.82661
-2.45586
-2.14025
-1.86852
-1.63174
-1.4231
-1.23725
-1.07007
-0.918646
-0.780418
-0.653791
-0.537577
-0.430408
-0.331426
-0.240343
-0.156672
-0.0803181
-0.0117976
0.0490124
-3.4262
-2.97901
-2.60048
-2.27415
-1.98856
-1.7357
-1.5094
-1.30503
-1.1193
-0.949309
-0.793283
-0.649934
-0.517782
-0.396006
-0.284492
-0.1829
-0.0912861
-0.0102721
0.0603642
-3.93466
-3.43617
-3.00857
-2.63573
-2.30611
-2.01184
-1.74677
-1.50628
-1.28703
-1.08592
-0.900988
-0.730759
-0.57352
-0.428457
-0.295927
-0.176419
-0.0715698
0.0161234
0.0856379
-4.19486
-3.75631
-3.36254
-3.00891
-2.68838
-2.39525
-2.12475
-1.87339
-1.63891
-1.41937
-1.21388
-1.02187
-0.842375
-0.674934
-0.519695
-0.375148
-0.239241
-0.106222
0.0347036
-4.11293
-3.68594
-3.27751
-2.89859
-2.55051
-2.23149
-1.93874
-1.66909
-1.41992
-1.18848
-0.972744
-0.769958
-0.576587
-0.387145
-0.194443
0.0162778
0.258101
0.545701
0.883004
-3.9814
-3.58513
-3.17615
-2.7732
-2.38643
-2.02109
-1.67992
-1.36304
-1.06974
-0.797079
-0.541658
-0.29717
-0.0556915
0.193535
0.457453
0.743545
1.03777
1.31395
1.52225
-3.74077
-3.43043
-3.08978
-2.73996
-2.39419
-2.06081
-1.74505
-1.4488
-1.17244
-0.913511
-0.669108
-0.433147
-0.199434
0.0375478
0.273946
0.500861
0.688125
0.805745
0.824115
-3.33992
-3.0862
-2.79106
-2.47542
-2.15423
-1.83851
-1.53603
-1.25076
-0.984286
-0.734964
-0.500315
-0.275425
-0.0572851
0.153412
0.345684
0.504622
0.607586
0.646594
0.631448
-2.89325
-2.68271
-2.43059
-2.1519
-1.86089
-1.57005
-1.28904
-1.02364
-0.776663
-0.547492
-0.334618
-0.135059
0.0509466
0.218788
0.356481
0.453273
0.50052
0.505641
0.484513
-2.40367
-2.24468
-2.03709
-1.79668
-1.53824
-1.2758
-1.02084
-0.780988
-0.560239
-0.359032
-0.176817
-0.0120474
0.133361
0.254345
0.34242
0.394027
0.410472
0.403781
0.386614
-1.7387
-1.62554
-1.46552
-1.27392
-1.06501
-0.852307
-0.64698
-0.456582
-0.284898
-0.132434
0.00105168
0.116586
0.212047
0.283956
0.32829
0.346786
0.344691
0.33249
0.317603
-1.08831
-1.01058
-0.891615
-0.744789
-0.584016
-0.422274
-0.26989
-0.133637
-0.0162764
0.0824416
0.163258
0.227838
0.275084
0.303914
0.313899
0.309293
0.295504
0.27984
0.265895
-0.362058
-0.305048
-0.219982
-0.119179
-0.0149594
0.0821195
0.164985
0.229879
0.277006
0.30877
0.327374
0.335808
0.334193
0.323231
0.304185
0.281322
0.258239
0.239046
0.224682
0.368753
0.416481
0.475738
0.53292
0.577888
0.603887
0.608924
0.594013
0.563774
0.523712
0.478163
0.431546
0.384868
0.339539
0.296846
0.259471
0.228566
0.205413
0.188905
1.09847
1.2152
1.3274
1.40947
1.4455
1.42865
1.36187
1.25456
1.12092
0.975342
0.83001
0.694357
0.572948
0.468612
0.382224
0.313316
0.259024
0.214547
0.170845
1.64303
1.62023
1.55714
1.45525
1.32203
1.16814
1.00554
0.845104
0.696035
0.564051
0.452002
0.359968
0.285843
0.226866
0.180153
0.142451
0.109854
0.0766442
0.0339516
2.24326
2.28994
2.28033
2.20956
2.08018
1.90205
1.68958
1.45964
1.22888
1.01025
0.813845
0.64456
0.503336
0.388474
0.296663
0.22261
0.160121
0.101718
0.0387557
2.76674
2.80122
2.76018
2.64551
2.46465
2.23198
1.96553
1.68509
1.40906
1.1512
0.922032
0.725956
0.563314
0.43136
0.32563
0.239649
0.166732
0.100096
0.0341314
3.22979
3.23808
3.15844
2.99839
2.7691
2.48858
2.17755
1.85765
1.54799
1.26224
1.01049
0.796285
0.619081
0.475148
0.359176
0.263979
0.182709
0.108913
0.037263
3.66433
3.63117
3.50474
3.29523
3.01695
2.69136
2.34137
1.98961
1.65495
1.35001
1.0838
0.858458
0.672338
0.520686
0.397478
0.294942
0.206008
0.12403
0.0430981
4.04614
3.96068
3.78298
3.5224
3.1971
2.83196
2.4513
2.07758
1.72823
1.41404
1.1422
0.913122
0.72391
0.568808
0.441169
0.332695
0.236046
0.144249
0.0509065
4.2492
4.1256
3.90585
3.60609
3.2499
2.86437
2.47344
2.09768
1.75194
1.44435
1.17996
0.957459
0.772853
0.619642
0.490841
0.377821
0.273143
0.169666
0.060773
4.49251
4.32097
4.04564
3.69673
3.30373
2.89519
2.4939
2.11766
1.77801
1.47987
1.22574
1.01225
0.83408
0.683813
0.553993
0.435496
0.32071
0.20229
0.073409
4.69204
4.44729
4.10975
3.71445
3.29325
2.87355
2.47501
2.11109
1.78904
1.51009
1.27401
1.07537
0.907657
0.762606
0.632423
0.507527
0.380246
0.243116
0.0891969
4.77864
4.45809
4.06453
3.63565
3.20362
2.79188
2.41468
2.07965
1.78909
1.54031
1.33059
1.15262
0.998977
0.860764
0.730073
0.596965
0.453888
0.2934
0.108554
4.76054
4.36961
3.92968
3.4835
3.06027
2.6761
2.33765
2.04582
1.79784
1.58731
1.40943
1.2554
1.11715
0.985376
0.852265
0.707591
0.544095
0.354483
0.131886
4.70833
4.23873
3.75995
3.31186
2.91413
2.57222
2.28389
2.04328
1.84295
1.67333
1.52819
1.39747
1.27276
1.14442
1.00486
0.843533
0.653586
0.427922
0.159735
4.56876
4.02541
3.53264
3.11055
2.76316
2.48327
2.25922
2.07917
1.932
1.80578
1.69374
1.58497
1.47106
1.34224
1.19129
1.00742
0.784262
0.514982
0.192745
4.1073
3.56233
3.12174
2.78546
2.53838
2.35964
2.22869
2.12958
2.04916
1.97467
1.90002
1.81431
1.70985
1.57726
1.41023
1.19805
0.935231
0.61535
0.231238
3.66033
3.1501
2.7953
2.56925
2.43455
2.35904
2.31669
2.29046
2.26721
2.23446
2.1874
2.11545
2.01161
1.86684
1.67557
1.42707
1.11625
0.736497
0.278824
3.11622
2.69812
2.48972
2.41422
2.41346
2.45023
2.49822
2.54255
2.57199
2.57553
2.55003
2.48576
2.3765
2.21359
1.99212
1.70104
1.33496
0.885859
0.340406
2.20809
2.05633
2.10118
2.2384
2.40792
2.57856
2.73009
2.85264
2.93875
2.98023
2.9758
2.91775
2.8008
2.61719
2.36257
2.02571
1.59969
1.07321
0.424072
1.32724
1.56094
1.89551
2.24666
2.57509
2.86418
3.10423
3.29124
3.4222
3.49236
3.50152
3.44484
3.31742
3.11214
2.82424
2.44123
1.95141
1.33553
0.553083
0.48148
1.16791
1.80538
2.36683
2.8478
3.24888
3.57275
3.8207
3.99456
4.09377
4.11843
4.06793
3.93727
3.71998
3.40949
2.99041
2.44101
1.72594
0.770515
-0.157287
0.953976
1.85985
2.6057
3.22274
3.72495
4.12682
4.43332
4.65132
4.78539
4.83526
4.80626
4.69301
4.48973
4.18611
3.76104
3.17411
2.35929
1.18013
-0.463185
0.936924
2.04109
2.93451
3.66849
4.26174
4.73824
5.10507
5.37468
5.55841
5.65581
5.68067
5.62818
5.49448
5.26385
4.9063
4.3502
3.47501
2.0376
-0.405203
1.09186
2.31113
3.31342
4.14548
4.82097
5.37045
5.80286
6.1375
6.39551
6.57852
6.71305
6.79974
6.84222
6.82154
6.70014
6.36305
5.60335
4.00672
-0.0744973
1.35694
2.62251
3.70177
4.61488
5.36381
5.98358
6.48723
6.90289
7.26786
7.59095
7.91925
8.27461
8.6866
9.14973
9.64595
10.0285
9.99041
8.87364
0.326956
1.63913
2.92527
4.06584
5.04595
5.85783
6.53951
7.11617
7.62429
8.1321
8.66246
9.2978
10.1316
11.293
12.9297
15.3973
19.2361
25.6073
36.9124
)
;

boundaryField
{
    up
    {
        type            calculated;
        value           nonuniform List<scalar> 
84
(
-36.9124
-8.87364
-4.00673
-2.03761
-1.18013
-0.770516
-0.553082
-0.424069
-0.340402
-0.27882
-0.231236
-0.192744
-0.159735
-0.131887
-0.108556
-0.0891983
-0.0734099
-0.0607734
-0.0509067
-0.0430981
-0.0372629
-0.0341311
-0.0387569
-0.0340138
-0.143978
-0.174131
-0.208668
-0.247146
-0.294641
-0.357394
-0.444759
-0.568169
-0.72325
-1.47925
-0.920908
-0.0351073
-0.0854096
-0.0601639
-0.0489719
-0.0304955
-0.0221915
-0.0129791
0.0129181
0.0220094
0.0305558
0.0488376
0.0600553
0.0851848
0.0360731
0.90634
1.48778
0.724469
0.569134
0.445437
0.357896
0.295035
0.247476
0.208972
0.174391
0.144685
0.0339516
0.0387557
0.0341314
0.037263
0.0430981
0.0509065
0.060773
0.073409
0.0891969
0.108554
0.131886
0.159735
0.192745
0.231238
0.278824
0.340406
0.424072
0.553083
0.770515
1.18013
2.0376
4.00672
8.87364
36.9124
)
;
    }
    low
    {
        type            calculated;
        value           nonuniform List<scalar> 
84
(
-0.294311
0.124229
0.485083
0.549511
0.211242
-0.491385
-1.40836
-2.34359
-3.2724
-3.78875
-4.22091
-4.66203
-4.75172
-4.77407
-4.77392
-4.65909
-4.43477
-4.18486
-3.96538
-3.55236
-3.10137
-2.63334
-2.11081
-1.52598
-1.00566
-0.335475
0.32365
0.9935
1.61838
2.28551
2.79921
3.26607
3.69489
3.9713
4.12914
4.2436
4.01597
3.51135
2.90161
2.17552
1.3665
0.524367
-0.524122
-1.36627
-2.17527
-2.90141
-3.51119
-4.0159
-4.24353
-4.12974
-3.97099
-3.69507
-3.2662
-2.79935
-2.28566
-1.61852
-0.993658
-0.323784
0.335167
1.00586
1.52575
2.11092
2.63335
3.10138
3.55236
3.96539
4.18487
4.43478
4.65911
4.77393
4.77408
4.75173
4.66202
4.22093
3.78878
3.27242
2.34361
1.40838
0.4914
-0.211235
-0.549514
-0.485092
-0.124235
0.294312
)
;
    }
    left
    {
        type            calculated;
        value           nonuniform List<scalar> 
19
(
-0.291062
-1.57623
-2.89024
-4.07176
-5.0952
-5.94559
-6.66349
-7.27812
-7.82564
-8.39038
-8.99496
-9.73082
-10.7182
-12.1275
-14.1425
-17.2612
-22.2326
-30.6792
-32.0133
)
;
    }
    right
    {
        type            calculated;
        value           nonuniform List<scalar> 
19
(
0.291066
1.57623
2.89024
4.07176
5.0952
5.94559
6.66349
7.27813
7.82565
8.39039
8.99496
9.73081
10.7182
12.1275
14.1425
17.2612
22.2326
30.6792
32.0133
)
;
    }
    frontAndBackPlanes
    {
        type            empty;
    }
}


// ************************************************************************* //
