/*--------------------------------*- C++ -*----------------------------------*\
  =========                 |
  \\      /  F ield         | OpenFOAM: The Open Source CFD Toolbox
   \\    /   O peration     | Website:  https://openfoam.org
    \\  /    A nd           | Version:  7
     \\/     M anipulation  |
\*---------------------------------------------------------------------------*/
FoamFile
{
    version     2.0;
    format      ascii;
    class       volScalarField;
    location    "0.01";
    object      gradTz;
}
// * * * * * * * * * * * * * * * * * * * * * * * * * * * * * * * * * * * * * //

dimensions      [0 -1 0 1 0 0 0];

internalField   nonuniform List<scalar> 
1596
(
-1.12547e-15
-3.80655e-16
5.38145e-16
1.37616e-16
-8.39184e-16
0
-2.82612e-16
-2.80996e-16
-1.51604e-16
-1.96e-16
6.20151e-19
-2.00849e-16
1.12922e-15
-2.13568e-16
8.72708e-16
7.99574e-16
4.82707e-16
8.28243e-16
0
9.40984e-16
0
7.05084e-16
-1.92978e-17
-7.26669e-17
1.23917e-16
4.65841e-16
1.12953e-16
1.75325e-16
-8.83642e-17
1.79489e-16
1.6131e-18
-2.25623e-16
-1.38672e-16
-6.76784e-16
-7.13267e-16
-7.14321e-16
5.06125e-16
0
-2.84393e-16
0
-2.71452e-16
2.34797e-17
1.2274e-16
-1.13056e-16
2.25967e-17
-1.69325e-19
2.99308e-20
2.68675e-19
1.04216e-17
0
1.16483e-16
2.35476e-16
-2.1248e-17
2.58181e-17
4.98305e-17
1.89255e-16
0
7.20046e-16
-6.61009e-17
6.58595e-17
0
-3.65175e-17
-4.2102e-17
4.34743e-17
-1.30673e-17
0
0
-3.67353e-17
5.56096e-18
0
-4.69189e-17
-2.6621e-17
2.28192e-17
-7.70069e-17
-2.98893e-18
0
1.51899e-16
1.58059e-16
-3.89648e-17
0
-2.34274e-18
-1.24991e-17
0
1.49692e-17
-7.50274e-19
-7.53222e-19
-1.0224e-17
3.30065e-18
5.36621e-18
1.04593e-18
1.31763e-17
-2.42514e-17
7.97399e-19
1.14736e-17
-1.08362e-17
-3.94458e-17
-1.9728e-16
7.50461e-17
-2.70159e-17
-3.34059e-19
-3.08691e-18
5.80615e-20
-5.82543e-20
-1.0264e-18
0
-2.99341e-18
-4.28101e-18
-4.6271e-18
1.38017e-18
5.89666e-18
-4.36589e-20
-2.44298e-18
-1.16375e-17
1.46466e-17
3.29655e-16
-2.29379e-16
1.03618e-16
1.29143e-17
0
2.56728e-18
6.31422e-19
-1.88313e-19
1.16822e-18
-1.10352e-19
-1.14063e-18
-2.93271e-21
-2.48705e-19
-1.3719e-18
-3.90657e-19
4.5718e-19
2.46448e-18
-4.90582e-20
-3.65517e-18
1.53365e-16
4.28141e-16
-1.96109e-16
0
0
-3.21122e-18
0
0
0
7.61267e-20
0
0
2.82232e-19
-2.79517e-21
3.16724e-19
-4.38076e-19
0
2.09243e-19
3.06944e-19
0
-1.93386e-16
2.97827e-16
0
0
3.30711e-18
0
-8.42627e-20
8.41775e-20
-7.74859e-20
1.44056e-20
-1.45109e-20
0
1.94914e-20
9.33249e-20
0
-2.70599e-20
-2.11679e-19
-2.9351e-19
1.16678e-15
-4.24673e-16
0
-3.02437e-17
2.99052e-17
0
1.28038e-18
0
0
0
4.2744e-21
-4.29489e-21
0
-1.74164e-20
-1.89771e-21
0
2.12336e-20
7.93276e-21
0
-2.91112e-16
0
0
3.31331e-17
-4.34389e-17
7.4725e-18
1.8686e-18
-1.10733e-19
8.28288e-20
1.10747e-20
-6.86047e-21
-2.01219e-21
0
9.98173e-22
-4.23265e-22
4.29617e-22
4.85749e-21
-7.2026e-21
-3.48713e-21
-5.38709e-18
-1.33818e-16
6.96027e-17
8.94859e-17
-2.3311e-17
-1.16385e-17
0
0
0
2.27685e-20
1.82192e-21
2.20288e-21
-5.33105e-22
-9.80317e-22
-1.35432e-22
-1.73972e-22
8.56784e-23
-2.54202e-22
3.16309e-21
-1.60086e-16
2.06238e-16
-2.21391e-16
-8.94652e-17
5.41321e-17
3.69627e-18
-4.67687e-18
1.29238e-18
-3.35138e-19
5.85132e-20
7.92969e-21
-1.02162e-21
-9.5308e-23
-5.43245e-23
2.73031e-22
0
-1.47623e-23
2.52575e-22
-9.93226e-23
-1.76048e-15
5.86095e-16
-1.22793e-18
-9.61193e-18
1.66305e-17
3.6164e-18
-5.12843e-18
-4.17446e-19
1.05075e-19
-2.51549e-20
-5.87033e-21
0
-5.4866e-22
-1.00145e-22
-2.89304e-23
-9.4142e-24
1.02359e-24
-3.48685e-23
7.96163e-23
2.82422e-16
-1.44049e-16
-2.28609e-18
-2.51159e-17
-1.91771e-17
1.34086e-17
1.05969e-19
4.06801e-19
-1.02305e-19
4.69774e-20
4.00771e-21
1.6893e-21
5.65468e-22
0
4.29728e-23
9.9629e-24
0
5.35286e-24
1.26791e-23
0
1.39745e-16
2.15499e-17
-8.08839e-17
1.77905e-17
-1.51907e-17
4.31766e-18
2.15926e-19
-1.60078e-19
-7.44948e-20
1.44448e-21
-1.43736e-21
-4.72351e-22
4.76926e-23
-1.05196e-23
-8.23985e-24
8.0722e-25
-2.98105e-25
2.28421e-24
-2.55206e-16
3.64893e-16
-3.05014e-16
3.72648e-17
0
0
-1.91231e-19
6.74286e-19
-4.27491e-20
5.66026e-20
0
0
2.62004e-22
-1.01313e-22
-1.04793e-23
2.77634e-24
-6.90144e-25
1.98416e-25
0
1.23192e-16
2.40077e-16
-4.92733e-17
-1.99925e-17
-6.94184e-18
3.42733e-18
1.49411e-18
0
-3.19993e-20
7.46192e-21
2.30039e-21
-5.00386e-22
1.07691e-22
0
5.58257e-24
2.98758e-24
0
0
0
-1.20832e-16
3.02765e-17
-5.06303e-17
-7.0341e-17
3.97911e-18
1.37465e-18
0
0
2.28921e-20
-1.61753e-20
-2.22498e-21
4.83965e-22
-1.04145e-22
0
-1.15882e-24
7.462e-25
0
-3.53236e-26
-7.92221e-27
-9.59688e-17
3.39918e-16
-2.00617e-16
-1.51116e-17
1.10808e-17
-8.13865e-19
2.01316e-19
0
-1.05564e-20
3.40216e-21
0
0
1.52624e-23
-1.528e-23
3.33054e-25
-6.12783e-25
7.99074e-26
1.76848e-26
5.82904e-27
9.79145e-17
-4.04117e-17
7.07326e-17
-3.84909e-17
-2.27364e-18
5.22552e-19
7.60546e-19
3.04819e-20
1.01009e-20
0
2.09849e-22
-1.96136e-22
3.99291e-23
-8.5612e-24
8.965e-25
-5.7294e-25
-4.3832e-26
2.16699e-26
1.74213e-27
1.64651e-16
-2.15002e-16
0
8.97974e-18
-6.71257e-18
-5.47214e-19
-1.38857e-21
-1.56392e-19
0
-1.83555e-22
-5.85596e-22
-5.36084e-23
1.51409e-23
-3.37526e-24
-8.66452e-25
1.78497e-25
0
3.90818e-27
-1.6916e-27
5.74614e-16
-3.04719e-17
3.40498e-17
-2.47609e-17
1.05277e-18
-1.10973e-18
-3.63815e-19
-8.13939e-21
9.72793e-21
-8.78012e-22
-1.34844e-22
7.16532e-23
-1.14313e-23
-1.54779e-24
0
0
0
-3.88619e-27
8.6368e-29
-2.89568e-16
2.37881e-16
-1.00308e-18
1.83534e-18
5.31967e-19
-2.28467e-19
1.31536e-19
-2.60733e-20
5.36049e-21
-1.45516e-22
2.1782e-22
7.14266e-24
-8.82649e-25
-4.56978e-26
3.38696e-26
-9.09832e-27
0
0
0
0
0
1.06639e-17
-1.6195e-17
-4.78618e-18
0
0
-2.82154e-21
-1.33151e-21
1.99456e-22
0
-9.0082e-24
1.71691e-24
-1.03383e-24
8.87504e-25
-3.16067e-26
3.18579e-26
8.06107e-28
0
-5.11992e-17
5.18294e-17
0
-1.96104e-18
7.73255e-19
4.76493e-19
0
2.84849e-21
1.82783e-22
-1.5716e-21
0
-6.58944e-24
1.42942e-24
3.26833e-25
-7.05174e-26
3.7071e-26
0
-2.51586e-27
0
-2.69629e-17
-3.84967e-18
5.97647e-19
2.01492e-18
-1.42271e-18
0
-2.1468e-20
0
2.24727e-21
1.7989e-22
0
1.91643e-23
-1.059e-23
1.30398e-24
1.1833e-25
1.53674e-25
7.01232e-26
7.30763e-27
-6.0899e-27
0
3.23994e-17
-6.6671e-18
7.19985e-18
9.56706e-19
0
3.84866e-20
-2.31403e-20
-1.30419e-21
2.58286e-22
-3.15477e-22
-1.09946e-23
0
0
9.86114e-26
0
0
1.37299e-26
0
-2.68776e-16
2.29633e-16
0
2.14437e-18
3.90872e-19
-9.04391e-21
7.99529e-20
-1.42578e-21
-9.34333e-21
-2.2784e-21
4.27211e-22
-7.10187e-23
0
2.33209e-25
0
0
0
-7.26629e-26
6.4149e-26
-1.07545e-16
4.58762e-17
4.29943e-17
-2.88242e-17
2.33543e-18
4.96849e-19
-7.67095e-20
1.57918e-20
5.92687e-21
7.97025e-22
-1.23645e-21
0
-2.00178e-26
-8.6987e-25
7.93328e-26
-2.43737e-25
3.67639e-25
-9.00828e-26
2.2794e-25
-5.09858e-16
2.17538e-16
-1.80923e-16
9.09779e-18
2.4328e-18
-1.46744e-18
4.31298e-19
-4.7675e-20
0
-3.19019e-21
4.46854e-22
1.09259e-22
2.55008e-23
-3.19738e-24
4.07167e-24
1.23958e-24
0
-1.26279e-25
1.717e-25
-5.45367e-16
-6.39591e-17
-3.9728e-17
3.03772e-17
-7.62854e-18
2.17567e-18
-8.00497e-19
1.19394e-19
-1.96877e-20
-9.81402e-21
-1.17994e-21
1.10736e-21
5.01102e-23
-6.57716e-24
7.06065e-24
1.17091e-24
-1.58682e-24
0
-9.35925e-26
5.89661e-16
-8.04233e-17
0
0
-8.90293e-18
1.16217e-17
-1.232e-18
-2.7012e-20
9.27345e-20
-9.65736e-21
0
0
-8.55782e-23
0
1.37362e-23
-4.90659e-23
3.30814e-23
0
-1.19856e-25
1.57723e-16
1.78363e-16
0
-2.13563e-17
-3.77435e-18
2.5099e-18
-1.24491e-18
1.07252e-19
-1.7689e-19
-2.85695e-22
0
0
1.50316e-21
0
0
1.00372e-23
5.28975e-23
0
0
1.11333e-15
-2.78624e-16
-3.23095e-16
-4.51785e-17
6.68169e-17
5.53697e-18
1.2071e-18
0
-5.84485e-20
2.87211e-20
3.15581e-20
-6.51758e-21
-1.31903e-21
9.21439e-22
-9.80129e-22
-4.33409e-23
0
0
0
8.76623e-17
-3.72463e-16
3.44517e-16
-1.34559e-17
-3.86728e-17
4.36689e-17
-1.31884e-17
0
0
2.37396e-19
-1.43273e-19
0
-2.82302e-21
6.1465e-21
-1.98119e-23
4.45228e-22
6.92969e-23
2.66204e-24
5.98041e-24
0
0
0
9.51462e-17
-6.84248e-17
1.47831e-17
-1.87898e-17
2.91775e-18
0
-1.10941e-19
5.44884e-20
-5.56904e-20
-2.3854e-21
3.88131e-22
-3.55171e-22
-2.04388e-23
-1.50596e-22
-3.32577e-23
-1.44061e-23
6.30382e-16
-9.20506e-16
3.37381e-16
0
1.26387e-17
-1.9229e-17
4.42183e-18
-3.30758e-18
0
-1.2338e-19
1.89802e-19
0
0
4.86937e-22
0
-3.87312e-22
2.267e-22
2.71739e-25
2.65851e-23
8.5542e-16
0
-9.19982e-17
9.96371e-17
-1.68571e-17
2.94118e-17
-8.88778e-18
-1.46924e-18
1.48459e-18
-4.34038e-20
0
0
2.84099e-21
-1.88565e-21
-6.75208e-22
1.06498e-21
-1.72821e-22
4.35709e-23
0
4.77156e-16
1.76517e-16
-7.34888e-17
-9.81475e-17
-3.67229e-18
-1.02936e-17
5.51651e-18
4.00446e-18
-6.07927e-20
4.42189e-20
0
0
-2.91041e-21
0
8.99351e-22
-9.62091e-22
0
5.50729e-23
-1.3581e-23
-2.51394e-16
-8.91699e-17
8.48612e-17
-4.02337e-18
-9.64145e-19
1.28663e-18
0
-7.84388e-20
4.15121e-19
-3.45532e-19
0
1.2101e-20
-7.39573e-21
-5.4219e-21
-1.98368e-22
-9.76472e-23
0
-4.45617e-23
0
7.55093e-17
-1.19953e-16
1.63679e-17
2.4108e-17
6.59078e-18
-6.09255e-18
-1.07256e-18
1.16443e-18
-9.13171e-20
8.00203e-20
-1.5403e-20
1.5878e-20
0
6.89284e-24
-1.03562e-22
4.21838e-22
-8.54295e-25
0
0
7.55128e-17
-7.52298e-17
-2.39571e-17
2.20729e-17
1.12463e-17
-1.13127e-17
-5.3637e-19
5.39117e-19
-9.23658e-20
9.32048e-20
-1.5407e-20
2.23399e-20
-5.31794e-21
-1.47007e-21
-1.47244e-22
8.66788e-23
7.91028e-23
1.41767e-23
-1.00603e-23
0
-1.43038e-17
4.00003e-17
-4.59169e-17
1.11048e-17
-1.03121e-17
0
8.67951e-19
-8.17622e-19
0
2.91756e-20
-3.41694e-20
-5.17813e-21
5.42702e-21
3.51587e-22
0
0
-4.46364e-23
1.47051e-23
2.99558e-16
-4.60441e-16
2.9349e-16
-1.48834e-16
4.29676e-17
-8.67424e-18
8.80866e-18
2.80585e-19
-3.87554e-19
3.30996e-19
0
-2.42962e-20
2.20603e-20
-1.2436e-21
-3.44379e-22
2.65904e-22
1.3404e-22
4.33334e-23
-1.42084e-23
9.47441e-16
0
-1.07474e-16
8.45323e-17
3.63184e-18
-1.04768e-17
1.32393e-17
-5.43862e-18
1.38784e-18
-1.12325e-19
1.14974e-19
6.92316e-21
4.57988e-21
1.21128e-21
-4.12847e-22
-1.00047e-22
-3.02559e-22
0
1.36332e-23
5.39645e-16
-6.08297e-16
0
1.49469e-17
2.57921e-17
-2.20492e-17
1.1328e-18
4.41678e-19
9.64804e-20
6.25821e-20
0
0
-6.38733e-21
7.71687e-21
-1.89699e-21
-2.07742e-22
2.27443e-22
9.90452e-24
-2.40883e-23
3.06014e-16
5.45284e-16
-2.8561e-17
-8.14474e-17
7.46172e-17
2.74619e-18
-1.10865e-18
-4.31388e-19
4.10655e-19
-4.74749e-19
5.46286e-20
-5.58329e-20
5.03869e-22
-3.01435e-21
9.52991e-22
-6.3157e-22
0
0
7.84469e-24
0
1.04184e-16
-1.35811e-16
1.62703e-16
-3.27599e-17
3.26819e-17
0
9.34271e-19
-9.38553e-19
-1.17117e-19
1.4373e-19
0
5.12977e-21
-6.17042e-21
-3.39583e-22
0
-7.34806e-24
-2.9576e-24
-4.61559e-24
-1.53173e-15
5.76972e-16
0
-6.69014e-17
6.68947e-17
8.76399e-18
-5.40115e-18
4.12342e-19
0
-2.41959e-21
-2.85574e-21
-6.54266e-21
-1.32652e-21
9.27346e-22
-9.86076e-22
0
1.38305e-23
8.69341e-24
-3.03342e-24
8.03593e-16
-6.73944e-16
0
1.78648e-17
6.91589e-18
-3.44113e-18
0
-4.32138e-19
-7.84515e-20
0
-8.50939e-21
0
1.51435e-21
0
0
3.46376e-24
-2.50971e-23
1.35218e-23
0
-2.64233e-18
8.05003e-17
-3.38231e-17
3.71557e-18
-3.42602e-17
7.43356e-18
0
2.71336e-20
4.42874e-20
0
-5.87097e-21
1.67664e-21
-1.76141e-21
9.03072e-24
0
-6.28348e-24
0
0
0
-2.74855e-18
0
3.1261e-17
0
-4.8699e-18
4.94732e-18
0
6.71927e-20
-1.30142e-20
2.2633e-20
-6.01692e-21
1.19484e-22
-2.75992e-23
-1.56065e-23
7.96346e-24
2.88009e-24
0
-7.11016e-26
0
2.28364e-16
-4.04869e-16
0
-7.11656e-18
2.13293e-18
0
0
-9.50805e-20
0
-3.20878e-21
-4.49476e-22
-1.09817e-22
2.5304e-23
0
-6.09022e-25
0
0
6.32478e-25
-8.4289e-25
0
1.817e-16
-1.32685e-16
6.58831e-18
-1.97511e-18
-1.28371e-19
2.0741e-19
4.64224e-20
-8.31835e-21
2.41971e-21
2.71346e-22
-8.0176e-24
2.46056e-23
-3.94286e-25
9.98913e-25
1.10273e-25
-1.06189e-25
1.58303e-25
-3.73028e-26
-7.99272e-16
2.33607e-16
0
0
3.17218e-19
-3.22575e-19
-1.5673e-20
-1.67995e-20
2.22638e-21
2.92824e-22
-2.21009e-22
-8.43265e-24
-6.92793e-25
-1.78469e-25
0
7.88459e-26
9.73296e-26
2.43393e-26
3.37165e-26
0
8.98924e-17
-3.88567e-17
6.77355e-18
6.82864e-19
-1.02089e-19
-3.75187e-20
-7.00595e-21
-3.69004e-21
2.04195e-22
1.21917e-23
3.21783e-23
6.47847e-25
-4.02057e-25
4.26759e-25
7.51803e-26
-1.43348e-25
-2.24809e-26
0
-5.14466e-17
-8.59173e-17
8.71642e-18
2.01724e-18
-1.5467e-18
6.56197e-19
1.99836e-20
-2.04263e-20
1.24055e-21
-1.93792e-22
0
0
-1.66782e-24
2.18216e-24
-4.60635e-25
7.85533e-26
-9.35421e-26
6.70297e-27
-1.02228e-26
7.63824e-17
2.78576e-17
-7.55436e-18
2.58677e-19
-1.83171e-18
-1.63213e-19
0
0
0
0
0
0
1.57588e-24
-8.3054e-25
8.78387e-25
-3.11251e-26
4.37886e-26
5.95886e-27
-4.0034e-27
2.26143e-16
-6.78545e-17
7.61098e-17
-2.43476e-18
4.39539e-18
-1.98507e-19
2.27829e-19
-4.08213e-20
-1.33497e-21
1.36561e-21
0
8.9729e-24
-1.53955e-24
7.18819e-25
-6.0955e-25
-1.40272e-25
-4.28338e-26
4.54446e-27
1.89503e-27
3.85362e-16
2.88242e-17
0
-4.07476e-18
-5.2716e-19
7.16585e-19
-6.25832e-20
-2.29419e-20
4.19906e-21
-3.79422e-22
0
-7.10307e-24
0
-5.49014e-25
1.70161e-25
-3.51748e-26
-4.96681e-27
5.29651e-28
0
4.89608e-16
-3.04704e-17
3.56635e-17
-2.54209e-17
-7.74175e-19
5.516e-19
-3.06685e-19
9.72698e-21
4.408e-21
-6.58128e-22
3.14489e-22
0
0
1.33878e-24
7.32643e-26
3.20205e-28
1.6046e-26
-2.95305e-27
0
-2.12083e-18
0
-1.12778e-17
2.00912e-17
-1.02256e-17
-1.30504e-18
6.00735e-19
-4.64986e-20
3.15034e-20
2.07817e-21
-3.83457e-22
8.5594e-23
-2.2839e-23
2.29584e-24
1.7418e-24
-7.411e-26
-3.58153e-26
1.25132e-26
-1.88297e-27
9.34797e-16
-2.35262e-16
7.26888e-18
-4.68413e-17
2.27365e-18
-1.02714e-18
6.81166e-19
0
0
-3.44406e-22
-7.38874e-22
-3.92379e-23
0
-4.40994e-24
-8.94253e-25
1.83836e-25
-3.97578e-27
1.29196e-26
5.35042e-27
0
-1.44725e-16
8.09425e-17
-1.89894e-17
-1.86731e-17
8.13877e-19
-2.89205e-19
2.17793e-19
6.75861e-20
0
0
2.49262e-23
7.37287e-23
0
-2.63603e-24
-4.05988e-25
5.63477e-26
-2.06122e-27
-1.13584e-26
0
-4.56039e-17
9.01737e-17
5.71058e-17
4.81172e-18
-7.08931e-18
1.53521e-18
-9.82951e-20
7.52924e-20
-1.00109e-20
0
0
0
-2.24133e-23
-6.58882e-25
-1.16645e-24
0
-3.45111e-27
1.14018e-26
-6.05838e-16
4.72899e-16
1.2852e-16
-1.42111e-16
1.18828e-17
-8.57117e-18
0
1.33826e-19
-1.41687e-19
2.81582e-20
-3.13988e-21
6.96282e-22
1.52704e-22
2.31803e-23
5.06943e-24
0
0
0
0
9.27355e-16
-2.54446e-16
0
0
-6.89092e-18
4.2961e-18
-2.46287e-18
-1.75371e-19
1.73394e-19
1.43666e-20
7.40327e-21
-7.2246e-22
1.04224e-22
-9.3973e-24
2.77252e-24
-2.11444e-25
7.55934e-25
-1.62743e-26
1.65768e-26
-8.42091e-16
5.38277e-16
8.24012e-17
-5.76704e-17
1.7085e-17
-9.77229e-18
-1.37872e-18
-3.65275e-19
0
-3.43707e-20
8.19994e-21
1.14865e-21
-2.14999e-22
-4.78482e-23
-3.86762e-24
7.01633e-25
-2.64651e-25
0
0
-2.80638e-16
0
6.50065e-17
1.18538e-18
0
0
1.4222e-18
3.76912e-19
0
2.25201e-20
0
-1.57324e-21
8.59948e-23
7.28988e-23
0
1.05795e-23
-5.4495e-25
5.55922e-25
0
7.3809e-16
0
9.51743e-17
-1.27033e-16
5.26926e-17
9.23109e-18
-1.96161e-18
0
4.00786e-20
6.59417e-20
0
-1.80633e-21
8.31375e-22
-2.54507e-22
-2.76906e-23
-7.55618e-24
-3.46928e-24
-2.28107e-24
-9.50026e-23
-4.55156e-16
5.9968e-16
-6.90769e-17
-7.99696e-17
-1.84357e-17
-5.74586e-18
-3.22009e-18
-2.70546e-19
1.58463e-19
7.94425e-21
-7.92932e-21
2.89111e-21
-4.75021e-22
4.19717e-22
-5.4564e-23
0
1.7296e-22
-1.94011e-22
8.67497e-23
1.51792e-15
-8.44254e-17
-3.57188e-16
8.94872e-17
-4.68556e-17
1.5185e-17
-1.89165e-18
-3.81967e-19
9.44647e-20
7.41807e-21
-5.59584e-21
-3.32277e-21
2.43491e-22
9.59404e-22
-8.58592e-23
8.68386e-23
-1.79144e-22
-1.14597e-21
-3.12091e-21
7.45163e-16
1.52105e-16
1.33804e-16
-4.77495e-17
-1.07491e-17
5.97248e-18
-8.65487e-19
1.46011e-18
7.04108e-20
4.90377e-20
7.90972e-21
-4.80017e-21
0
-9.94982e-22
0
0
5.22554e-21
1.11418e-21
3.28845e-21
5.64823e-16
0
1.1893e-16
4.74413e-17
-1.37935e-17
4.67225e-18
0
-3.29976e-19
-1.36816e-19
-4.6764e-20
-7.97973e-21
4.85445e-21
0
0
0
0
-5.11796e-21
-4.24991e-20
0
-1.09863e-15
0
-4.08151e-17
-3.82768e-17
2.12123e-17
-4.17161e-19
2.33805e-19
-1.86109e-19
1.08736e-19
0
1.44108e-20
-1.23372e-22
6.1909e-20
0
0
1.04119e-19
-7.24147e-21
5.11749e-20
-3.0064e-19
6.86712e-16
8.62413e-17
-8.53511e-17
-2.525e-17
-2.53914e-17
6.47806e-18
1.782e-18
-1.52669e-19
-1.11791e-19
2.75763e-19
2.8242e-20
-3.20259e-19
-1.07858e-19
-3.12637e-19
-3.72762e-19
-1.25153e-19
6.15365e-19
-1.81525e-20
3.07919e-19
-1.58803e-16
3.84338e-17
-1.19365e-16
4.59174e-18
-4.57504e-18
0
-8.75227e-19
-7.34822e-19
-1.05832e-18
7.80657e-19
1.14061e-18
2.89514e-19
-1.26238e-19
-8.90127e-19
3.14294e-19
0
-3.06562e-18
-3.404e-18
-5.19582e-20
4.49576e-16
-4.30877e-18
1.55871e-16
-2.61778e-17
3.34059e-19
1.79545e-19
4.2087e-18
-2.80295e-18
1.02639e-18
-1.02044e-18
-1.0552e-18
0
4.62668e-18
1.34366e-18
4.21596e-20
-7.00416e-20
2.4728e-18
3.44229e-18
0
-2.80912e-16
0
-7.82848e-18
3.20716e-17
2.28742e-18
2.34583e-18
-4.06975e-18
3.77988e-18
1.35136e-17
1.36807e-17
1.41479e-17
0
-4.49473e-18
0
6.14438e-19
-6.38149e-19
0
-2.54367e-19
2.87253e-17
2.7392e-16
8.43123e-17
-7.08851e-18
7.65368e-17
-1.58991e-17
0
0
-4.3126e-17
-1.30933e-17
-1.32536e-17
-5.31879e-17
-5.56089e-18
0
0
0
-4.75164e-18
5.02842e-18
8.79829e-17
-2.93464e-17
1.62153e-16
0
-9.95385e-17
-3.57902e-17
7.5512e-17
-1.23891e-16
-1.54501e-16
1.06351e-16
8.96606e-17
0
4.35611e-17
1.29341e-16
-1.8803e-17
1.62937e-16
-2.29039e-17
2.38374e-17
1.87631e-16
-8.387e-17
0
-5.00335e-16
0
-3.2737e-16
3.04084e-16
0
2.98537e-16
1.18119e-16
-3.50475e-16
4.32434e-16
3.58667e-19
-8.9269e-17
-1.25229e-16
0
5.02394e-16
-6.76779e-16
7.72635e-16
-9.88144e-16
0
0
5.60518e-16
-6.51074e-17
-9.54627e-17
-8.42536e-16
9.52386e-16
-3.95557e-16
3.93944e-16
3.91515e-16
-1.29241e-16
0
0
9.08172e-16
-9.23818e-16
-6.18521e-16
6.51723e-16
-6.85877e-16
8.27011e-16
-1.51909e-15
0
)
;

boundaryField
{
    up
    {
        type            calculated;
        value           nonuniform List<scalar> 
84
(
0
0
0
0
-1.08362e-17
1.46466e-17
-3.65517e-18
3.06944e-19
-2.9351e-19
0
-3.48713e-21
3.16309e-21
-9.93226e-23
7.96163e-23
1.26791e-23
2.28421e-24
0
0
-7.92221e-27
5.82904e-27
1.74213e-27
-1.6916e-27
8.6368e-29
0
5.59842e-28
5.21432e-28
-6.43297e-27
0
6.4149e-26
6.98495e-26
1.717e-25
-9.35925e-26
-1.19856e-25
0
6.02531e-24
4.36161e-24
-1.15773e-23
2.22796e-23
0
-9.81212e-24
0
0
-8.8951e-24
1.47051e-23
-1.42084e-23
1.36332e-23
-2.40883e-23
7.84469e-24
-4.61559e-24
-3.03342e-24
0
0
0
-8.4289e-25
2.12014e-25
3.37165e-26
0
-1.02228e-26
-4.0034e-27
1.56006e-27
0
0
-1.88297e-27
5.35042e-27
-1.13584e-26
1.14018e-26
0
1.65768e-26
0
0
-9.50026e-23
8.67497e-23
-3.12091e-21
3.28845e-21
0
-3.0064e-19
3.07919e-19
-5.19582e-20
0
2.87253e-17
-2.93464e-17
0
0
0
)
;
    }
    low
    {
        type            calculated;
        value           nonuniform List<scalar> 
84
(
-1.16265e-15
9.40984e-16
-2.32705e-16
7.48671e-16
1.66332e-16
-4.28964e-17
3.55164e-16
1.76552e-16
0
1.20238e-15
-2.91112e-16
-3.69372e-17
-1.60086e-16
-1.78862e-15
2.82422e-16
0
-2.55206e-16
1.23192e-16
-1.20832e-16
-9.59688e-17
9.79145e-17
1.64651e-16
6.23162e-16
-2.89568e-16
0
-5.11992e-17
-2.69629e-17
0
-2.68776e-16
-1.07545e-16
-5.41514e-16
-5.73381e-16
6.14944e-16
1.57723e-16
1.13553e-15
8.76623e-17
0
6.30382e-16
8.79379e-16
4.89099e-16
-2.57376e-16
7.55093e-17
7.55128e-17
0
2.99558e-16
9.71392e-16
5.39645e-16
3.29797e-16
0
-1.55391e-15
8.03593e-16
-2.64233e-18
-2.74855e-18
2.28364e-16
0
-8.37047e-16
0
-5.14466e-17
7.63824e-17
2.52171e-16
4.37873e-16
5.38153e-16
-2.12083e-18
9.75061e-16
0
0
-6.05838e-16
9.57377e-16
-8.71094e-16
-2.80638e-16
7.66234e-16
-4.55156e-16
1.58102e-15
7.785e-16
5.64823e-16
-1.09863e-15
6.63526e-16
-1.33294e-16
4.49576e-16
-2.66479e-16
2.7392e-16
2.13841e-16
-5.00335e-16
5.79106e-16
)
;
    }
    left
    {
        type            calculated;
        value           nonuniform List<scalar> 
19
(
-1.12547e-15
-3.57098e-16
5.38145e-16
1.74416e-16
-8.77826e-16
0
-2.82612e-16
-2.80996e-16
-1.9275e-16
-1.96e-16
6.20151e-19
-2.00849e-16
1.20942e-15
-2.13568e-16
8.72708e-16
7.99574e-16
4.82707e-16
9.49552e-16
0
)
;
    }
    right
    {
        type            calculated;
        value           nonuniform List<scalar> 
19
(
5.60518e-16
-8.86636e-17
-9.54627e-17
-8.79336e-16
9.91029e-16
-3.95557e-16
3.93944e-16
3.91515e-16
-8.80945e-17
0
0
9.90048e-16
-1.00401e-15
-6.18521e-16
6.51723e-16
-6.85877e-16
8.27011e-16
-1.64039e-15
0
)
;
    }
    frontAndBackPlanes
    {
        type            empty;
    }
}


// ************************************************************************* //
