/*--------------------------------*- C++ -*----------------------------------*\
  =========                 |
  \\      /  F ield         | OpenFOAM: The Open Source CFD Toolbox
   \\    /   O peration     | Website:  https://openfoam.org
    \\  /    A nd           | Version:  7
     \\/     M anipulation  |
\*---------------------------------------------------------------------------*/
FoamFile
{
    version     2.0;
    format      ascii;
    class       volScalarField;
    location    "0.28";
    object      gradTy;
}
// * * * * * * * * * * * * * * * * * * * * * * * * * * * * * * * * * * * * * //

dimensions      [0 -1 0 1 0 0 0];

internalField   nonuniform List<scalar> 
1596
(
-0.0825824
-0.153716
-0.212706
-0.270342
-0.326904
-0.3897
-0.455992
-0.534219
-0.627979
-0.739926
-0.893048
-1.08772
-1.35598
-1.73611
-2.32389
-3.23768
-4.86646
-7.86822
-18.5874
-0.251761
-0.311373
-0.353344
-0.393599
-0.434111
-0.482832
-0.537414
-0.605477
-0.690305
-0.792643
-0.931473
-1.105
-1.33455
-1.63754
-2.06298
-2.63608
-3.48644
-4.73545
-8.28032
-0.450977
-0.472228
-0.487006
-0.505708
-0.528043
-0.560724
-0.600906
-0.655121
-0.725696
-0.812052
-0.929596
-1.07442
-1.26115
-1.49777
-1.81393
-2.21381
-2.76775
-3.52701
-5.1576
-0.660298
-0.629256
-0.611226
-0.605817
-0.608604
-0.623892
-0.648054
-0.686282
-0.739952
-0.80763
-0.901722
-1.01721
-1.16427
-1.34611
-1.58137
-1.86619
-2.24175
-2.72939
-3.56617
-0.854011
-0.77355
-0.723333
-0.693828
-0.677017
-0.674575
-0.68223
-0.703778
-0.739848
-0.788553
-0.859833
-0.948442
-1.06161
-1.20021
-1.37647
-1.58393
-1.84827
-2.17738
-2.65832
-1.00866
-0.89643
-0.820844
-0.770149
-0.735244
-0.715857
-0.707532
-0.712811
-0.731828
-0.762566
-0.812933
-0.878031
-0.963092
-1.06788
-1.20072
-1.35482
-1.54695
-1.77883
-2.0838
-1.11127
-0.99103
-0.901273
-0.834939
-0.785006
-0.750549
-0.727607
-0.717786
-0.721001
-0.735345
-0.767066
-0.811922
-0.873737
-0.951824
-1.05197
-1.16795
-1.31103
-1.48017
-1.6886
-1.16129
-1.05305
-0.961574
-0.886971
-0.826464
-0.779848
-0.744385
-0.721208
-0.710292
-0.71004
-0.725375
-0.752844
-0.795273
-0.85185
-0.926667
-1.01434
-1.12256
-1.24918
-1.39937
-1.1682
-1.08691
-1.00454
-0.928988
-0.862632
-0.80706
-0.761321
-0.726596
-0.703192
-0.689977
-0.690888
-0.703276
-0.729263
-0.768073
-0.822629
-0.88838
-0.970612
-1.0668
-1.17864
-1.14008
-1.08807
-1.02209
-0.952769
-0.886181
-0.82599
-0.773222
-0.729584
-0.695946
-0.671771
-0.660362
-0.659837
-0.671877
-0.695846
-0.733906
-0.782281
-0.844658
-0.918511
-1.00397
-1.1038
-1.07289
-1.02361
-0.963965
-0.900986
-0.839639
-0.782644
-0.732439
-0.690594
-0.657249
-0.635365
-0.623778
-0.623917
-0.635334
-0.659684
-0.693856
-0.740438
-0.797053
-0.863098
-1.05795
-1.04886
-1.01598
-0.967307
-0.910113
-0.849991
-0.790896
-0.735997
-0.687588
-0.646523
-0.615644
-0.594452
-0.584271
-0.584869
-0.597576
-0.619846
-0.653507
-0.696393
-0.747581
-1.0005
-1.01096
-0.994256
-0.95762
-0.908112
-0.851584
-0.792735
-0.735364
-0.682418
-0.635421
-0.597284
-0.568109
-0.549248
-0.540711
-0.543662
-0.556052
-0.579219
-0.611241
-0.651059
-0.948822
-0.970656
-0.966835
-0.941309
-0.899817
-0.84796
-0.790723
-0.732359
-0.676341
-0.624784
-0.580776
-0.544946
-0.518758
-0.502467
-0.497174
-0.501245
-0.51571
-0.538878
-0.56967
-0.900509
-0.931336
-0.937532
-0.921493
-0.88753
-0.840639
-0.785749
-0.727362
-0.669343
-0.614302
-0.565545
-0.524166
-0.491785
-0.468902
-0.456619
-0.453662
-0.460867
-0.476763
-0.500315
-0.852897
-0.892199
-0.906889
-0.898981
-0.871842
-0.829852
-0.777696
-0.719971
-0.660801
-0.603187
-0.550664
-0.504723
-0.467167
-0.438729
-0.420557
-0.411694
-0.412863
-0.422801
-0.440541
-0.809477
-0.854543
-0.876137
-0.8751
-0.853939
-0.816488
-0.767121
-0.710428
-0.650692
-0.591214
-0.535732
-0.486078
-0.444232
-0.411143
-0.388032
-0.374218
-0.370378
-0.375433
-0.38849
-0.771186
-0.820152
-0.847166
-0.85181
-0.835742
-0.802261
-0.755453
-0.699844
-0.639818
-0.578912
-0.521032
-0.468301
-0.422855
-0.385831
-0.358528
-0.340514
-0.332468
-0.333486
-0.342743
-0.732919
-0.7887
-0.821298
-0.831096
-0.819507
-0.78946
-0.744847
-0.690134
-0.629801
-0.567599
-0.507577
-0.452118
-0.403488
-0.362981
-0.331961
-0.31022
-0.298486
-0.296043
-0.302154
-0.693762
-0.7572
-0.795971
-0.810944
-0.803606
-0.776754
-0.73418
-0.680342
-0.619816
-0.556547
-0.494719
-0.436938
-0.385577
-0.342038
-0.307726
-0.282613
-0.267532
-0.262031
-0.265529
-0.660224
-0.728673
-0.773092
-0.793021
-0.789655
-0.765689
-0.72489
-0.671759
-0.610989
-0.546716
-0.483257
-0.42341
-0.369635
-0.32339
-0.286052
-0.257681
-0.239234
-0.230646
-0.231742
-0.630625
-0.703675
-0.753226
-0.777832
-0.778214
-0.756905
-0.717677
-0.66511
-0.604037
-0.538787
-0.473805
-0.412076
-0.356131
-0.307448
-0.267289
-0.235617
-0.213375
-0.200956
-0.199191
-0.603568
-0.681825
-0.736436
-0.765525
-0.769462
-0.750634
-0.712837
-0.660759
-0.599381
-0.533215
-0.466829
-0.403381
-0.345487
-0.294644
-0.251949
-0.217024
-0.190337
-0.172174
-0.165151
-0.579757
-0.663301
-0.722613
-0.755468
-0.762108
-0.744805
-0.707579
-0.655203
-0.592882
-0.52538
-0.457171
-0.391808
-0.331937
-0.279155
-0.234346
-0.196835
-0.165843
-0.139771
-0.11759
-0.560731
-0.649193
-0.713951
-0.75231
-0.764489
-0.752417
-0.720088
-0.671942
-0.613012
-0.548068
-0.481084
-0.415936
-0.355183
-0.300884
-0.254067
-0.214572
-0.180935
-0.150672
-0.119526
-0.547817
-0.639154
-0.706791
-0.748524
-0.764564
-0.756644
-0.728555
-0.684418
-0.628942
-0.566696
-0.501127
-0.436116
-0.37419
-0.317741
-0.268259
-0.22659
-0.191884
-0.16291
-0.137155
-0.547976
-0.639894
-0.708592
-0.752155
-0.77078
-0.766231
-0.742028
-0.702096
-0.650772
-0.592213
-0.529464
-0.465911
-0.403865
-0.345818
-0.293779
-0.249354
-0.212487
-0.182527
-0.157431
-0.562718
-0.652775
-0.72011
-0.763184
-0.782322
-0.779435
-0.757877
-0.721422
-0.674067
-0.619538
-0.560391
-0.499351
-0.438192
-0.379168
-0.324602
-0.276894
-0.23695
-0.204806
-0.178721
-0.590657
-0.677519
-0.74143
-0.781964
-0.799804
-0.797073
-0.77705
-0.743377
-0.699754
-0.649525
-0.594734
-0.537383
-0.478419
-0.419415
-0.362571
-0.311
-0.266816
-0.231166
-0.202741
-0.631185
-0.712194
-0.77063
-0.806911
-0.82202
-0.818282
-0.798955
-0.767547
-0.727505
-0.681876
-0.632265
-0.580051
-0.525191
-0.468095
-0.410074
-0.35446
-0.30466
-0.263707
-0.231336
-0.683876
-0.756368
-0.807955
-0.838805
-0.85016
-0.844547
-0.82524
-0.795602
-0.758865
-0.717896
-0.674022
-0.628297
-0.579823
-0.527587
-0.47102
-0.41243
-0.355686
-0.306528
-0.267377
-0.741692
-0.806859
-0.851218
-0.875915
-0.882832
-0.874761
-0.855002
-0.826736
-0.792989
-0.756542
-0.718635
-0.680457
-0.640822
-0.597686
-0.548002
-0.491285
-0.428917
-0.36797
-0.316279
-0.808296
-0.864851
-0.900782
-0.918343
-0.920066
-0.90894
-0.888214
-0.860809
-0.829491
-0.796957
-0.764452
-0.733715
-0.704132
-0.673987
-0.638801
-0.595118
-0.537854
-0.468601
-0.39054
-0.886614
-0.932316
-0.95854
-0.968308
-0.964623
-0.950551
-0.929108
-0.902884
-0.8743
-0.845846
-0.818852
-0.795539
-0.776526
-0.762104
-0.749637
-0.736789
-0.715569
-0.681192
-0.628231
-0.974513
-1.00728
-1.02113
-1.02052
-1.00886
-0.989182
-0.96404
-0.935648
-0.905944
-0.876786
-0.84944
-0.825596
-0.806325
-0.792975
-0.786003
-0.787023
-0.794265
-0.805877
-0.817836
-1.07455
-1.08933
-1.08796
-1.07535
-1.05465
-1.02861
-0.999191
-0.968272
-0.937389
-0.907831
-0.880884
-0.857499
-0.838541
-0.824713
-0.816707
-0.815286
-0.821402
-0.836139
-0.860971
-1.1855
-1.17771
-1.16002
-1.1356
-1.10655
-1.07487
-1.04195
-1.00925
-0.977931
-0.948918
-0.923279
-0.901522
-0.884131
-0.871207
-0.862735
-0.857973
-0.85642
-0.856876
-0.858393
-1.28882
-1.259
-1.22561
-1.18977
-1.15253
-1.11507
-1.07826
-1.04307
-1.01031
-0.980574
-0.954564
-0.93255
-0.914693
-0.900864
-0.890841
-0.883947
-0.879707
-0.877334
-0.876205
-1.37444
-1.32805
-1.28203
-1.23674
-1.19263
-1.15026
-1.11011
-1.07273
-1.03862
-1.00813
-0.981704
-0.959465
-0.941408
-0.927335
-0.91697
-0.909729
-0.905131
-0.902507
-0.901253
-1.44353
-1.38374
-1.32754
-1.27467
-1.22503
-1.17873
-1.13588
-1.0967
-1.06146
-1.03033
-1.00355
-0.98118
-0.963103
-0.949082
-0.938807
-0.931736
-0.927356
-0.925045
-0.924199
-1.49392
-1.42395
-1.36002
-1.30152
-1.24788
-1.19877
-1.15402
-1.11358
-1.07756
-1.04601
-1.01903
-0.996647
-0.978671
-0.96484
-0.954804
-0.948029
-0.943947
-0.94193
-0.94134
-1.52591
-1.44668
-1.37735
-1.31544
-1.25959
-1.20899
-1.16326
-1.12219
-1.0858
-1.05406
-1.02702
-1.00468
-0.986821
-0.973181
-0.963402
-0.956977
-0.953323
-0.95183
-0.951843
-1.52592
-1.44669
-1.37737
-1.31546
-1.25961
-1.20901
-1.16328
-1.12221
-1.08582
-1.05408
-1.02704
-1.0047
-0.986844
-0.973204
-0.963427
-0.957002
-0.953349
-0.951857
-0.95187
-1.49393
-1.42398
-1.36006
-1.30156
-1.24793
-1.19882
-1.15407
-1.11364
-1.07762
-1.04606
-1.01909
-0.996709
-0.978736
-0.964908
-0.954876
-0.948107
-0.94403
-0.942022
-0.941441
-1.44355
-1.38379
-1.32761
-1.27474
-1.22511
-1.17882
-1.13597
-1.09679
-1.06155
-1.03043
-1.00365
-0.981281
-0.963209
-0.949192
-0.938923
-0.931859
-0.927486
-0.925185
-0.924347
-1.37446
-1.32811
-1.28211
-1.23684
-1.19273
-1.15037
-1.11022
-1.07285
-1.03874
-1.00826
-0.981829
-0.959593
-0.94154
-0.92747
-0.917109
-0.909872
-0.905278
-0.902659
-0.901411
-1.28884
-1.25907
-1.2257
-1.18988
-1.15265
-1.11519
-1.07839
-1.04321
-1.01045
-0.98072
-0.954714
-0.932703
-0.914849
-0.901022
-0.891001
-0.884107
-0.879868
-0.877496
-0.876368
-1.18553
-1.17778
-1.16012
-1.13571
-1.10668
-1.07501
-1.0421
-1.0094
-0.97809
-0.949083
-0.923448
-0.901695
-0.884304
-0.871378
-0.862898
-0.858123
-0.856553
-0.856988
-0.858483
-1.07458
-1.08941
-1.08808
-1.0755
-1.05483
-1.02881
-0.999417
-0.96852
-0.937661
-0.908129
-0.88121
-0.857855
-0.838928
-0.825131
-0.817151
-0.815729
-0.821799
-0.836409
-0.860994
-0.974536
-1.0073
-1.02114
-1.02054
-1.00888
-0.989205
-0.964059
-0.935658
-0.905942
-0.876763
-0.849388
-0.8255
-0.806169
-0.792739
-0.785682
-0.78663
-0.79389
-0.8057
-0.818145
-0.886625
-0.932356
-0.958611
-0.968414
-0.964768
-0.950737
-0.929335
-0.903151
-0.874606
-0.846189
-0.819235
-0.795965
-0.77701
-0.762677
-0.750361
-0.737755
-0.716893
-0.682975
-0.63053
-0.808301
-0.864857
-0.900802
-0.918385
-0.920132
-0.909033
-0.888335
-0.860956
-0.829665
-0.797156
-0.764679
-0.733977
-0.704446
-0.674381
-0.639305
-0.595752
-0.538589
-0.469337
-0.391089
-0.741694
-0.806859
-0.85123
-0.875947
-0.882891
-0.874849
-0.85512
-0.826885
-0.793168
-0.756752
-0.718879
-0.680744
-0.641165
-0.598097
-0.54848
-0.491807
-0.42943
-0.368413
-0.31663
-0.683875
-0.756363
-0.807958
-0.838826
-0.850206
-0.844621
-0.825346
-0.79574
-0.759035
-0.7181
-0.674262
-0.628577
-0.580148
-0.527955
-0.471415
-0.412824
-0.356045
-0.306832
-0.26763
-0.631184
-0.712186
-0.770627
-0.806923
-0.822055
-0.818346
-0.79905
-0.767675
-0.727665
-0.682069
-0.632491
-0.580311
-0.525483
-0.468409
-0.410392
-0.35476
-0.304925
-0.263935
-0.231535
-0.590654
-0.677507
-0.74142
-0.781967
-0.79983
-0.797126
-0.777134
-0.743493
-0.699902
-0.649704
-0.594942
-0.537618
-0.478674
-0.419678
-0.362827
-0.311236
-0.267024
-0.231349
-0.202908
-0.562715
-0.652761
-0.720098
-0.763182
-0.782341
-0.779479
-0.757951
-0.721526
-0.6742
-0.6197
-0.560578
-0.499557
-0.438409
-0.379386
-0.32481
-0.277084
-0.23712
-0.20496
-0.178869
-0.547973
-0.63988
-0.708578
-0.75215
-0.770793
-0.766268
-0.742091
-0.702188
-0.650891
-0.592356
-0.529627
-0.466089
-0.404049
-0.345999
-0.29395
-0.249511
-0.212631
-0.182664
-0.157575
-0.547813
-0.639138
-0.706772
-0.74851
-0.764561
-0.756658
-0.728589
-0.684473
-0.629017
-0.566789
-0.501233
-0.43623
-0.374306
-0.317852
-0.26836
-0.226682
-0.191971
-0.163005
-0.137288
-0.560745
-0.649201
-0.713961
-0.752325
-0.764513
-0.752452
-0.720139
-0.672009
-0.613094
-0.548165
-0.481194
-0.416056
-0.355308
-0.301011
-0.254192
-0.214695
-0.181052
-0.15078
-0.119615
-0.579772
-0.663315
-0.722624
-0.755472
-0.762104
-0.744792
-0.707556
-0.655172
-0.592844
-0.525336
-0.457124
-0.391759
-0.331889
-0.279107
-0.234298
-0.196787
-0.165792
-0.139715
-0.117523
-0.603578
-0.681834
-0.736445
-0.765533
-0.769468
-0.750638
-0.712839
-0.660759
-0.59938
-0.533213
-0.466828
-0.40338
-0.345486
-0.294644
-0.25195
-0.217026
-0.190341
-0.172181
-0.165158
-0.630633
-0.703681
-0.753231
-0.777835
-0.778214
-0.756903
-0.717673
-0.665105
-0.604031
-0.538781
-0.4738
-0.412072
-0.356128
-0.307446
-0.267288
-0.235619
-0.213378
-0.20096
-0.199195
-0.660231
-0.728678
-0.773095
-0.793023
-0.789655
-0.765687
-0.724887
-0.671755
-0.610984
-0.546712
-0.483253
-0.423407
-0.369633
-0.323389
-0.286053
-0.257682
-0.239236
-0.230649
-0.231745
-0.693767
-0.757204
-0.795973
-0.810945
-0.803605
-0.776752
-0.734177
-0.680339
-0.619812
-0.556544
-0.494717
-0.436936
-0.385576
-0.342038
-0.307726
-0.282614
-0.267534
-0.262033
-0.265531
-0.732922
-0.788703
-0.8213
-0.831096
-0.819505
-0.789458
-0.744845
-0.690131
-0.629798
-0.567597
-0.507576
-0.452117
-0.403488
-0.362981
-0.331961
-0.310222
-0.298487
-0.296044
-0.302155
-0.771189
-0.820154
-0.847167
-0.851809
-0.835741
-0.802259
-0.755451
-0.699842
-0.639816
-0.578911
-0.521031
-0.468301
-0.422855
-0.385832
-0.358528
-0.340515
-0.332469
-0.333486
-0.342744
-0.809478
-0.854543
-0.876137
-0.875099
-0.853938
-0.816486
-0.767119
-0.710427
-0.650691
-0.591213
-0.535731
-0.486078
-0.444232
-0.411144
-0.388032
-0.374218
-0.370378
-0.375433
-0.38849
-0.852897
-0.892199
-0.906889
-0.898981
-0.871841
-0.829851
-0.777695
-0.71997
-0.6608
-0.603187
-0.550663
-0.504723
-0.467167
-0.438729
-0.420557
-0.411694
-0.412863
-0.4228
-0.44054
-0.900508
-0.931335
-0.937531
-0.921492
-0.88753
-0.840639
-0.785748
-0.727362
-0.669343
-0.614302
-0.565545
-0.524165
-0.491785
-0.468902
-0.456618
-0.453662
-0.460866
-0.476761
-0.500314
-0.948821
-0.970654
-0.966834
-0.941309
-0.899817
-0.84796
-0.790723
-0.732359
-0.676341
-0.624784
-0.580776
-0.544946
-0.518758
-0.502466
-0.497173
-0.501244
-0.515709
-0.538876
-0.569668
-1.0005
-1.01096
-0.994256
-0.95762
-0.908113
-0.851584
-0.792735
-0.735364
-0.682418
-0.635421
-0.597284
-0.568109
-0.549248
-0.54071
-0.543661
-0.55605
-0.579217
-0.611239
-0.651057
-1.05795
-1.04886
-1.01598
-0.967307
-0.910114
-0.849991
-0.790896
-0.735997
-0.687588
-0.646523
-0.615643
-0.594451
-0.58427
-0.584868
-0.597574
-0.619844
-0.653504
-0.69639
-0.74758
-1.10379
-1.07289
-1.02361
-0.963966
-0.900988
-0.839641
-0.782645
-0.73244
-0.690594
-0.657249
-0.635365
-0.623777
-0.623917
-0.635333
-0.659682
-0.693854
-0.740436
-0.79705
-0.863097
-1.14008
-1.08807
-1.02209
-0.952771
-0.886183
-0.825992
-0.773223
-0.729585
-0.695947
-0.671771
-0.660362
-0.659836
-0.671876
-0.695845
-0.733904
-0.782279
-0.844656
-0.918509
-1.00397
-1.1682
-1.08691
-1.00454
-0.92899
-0.862634
-0.807062
-0.761322
-0.726597
-0.703193
-0.689977
-0.690888
-0.703276
-0.729262
-0.768071
-0.822628
-0.888379
-0.970611
-1.06679
-1.17864
-1.1613
-1.05306
-0.961577
-0.886973
-0.826466
-0.779849
-0.744386
-0.721208
-0.710292
-0.71004
-0.725375
-0.752843
-0.795272
-0.851848
-0.926665
-1.01433
-1.12256
-1.24918
-1.39937
-1.11127
-0.991034
-0.901275
-0.834941
-0.785007
-0.75055
-0.727608
-0.717786
-0.721001
-0.735345
-0.767066
-0.811921
-0.873736
-0.951822
-1.05197
-1.16795
-1.31103
-1.48017
-1.6886
-1.00867
-0.896434
-0.820847
-0.770151
-0.735246
-0.715858
-0.707533
-0.712811
-0.731829
-0.762566
-0.812932
-0.87803
-0.963091
-1.06788
-1.20072
-1.35482
-1.54695
-1.77883
-2.08381
-0.854016
-0.773553
-0.723335
-0.69383
-0.677019
-0.674577
-0.682231
-0.703779
-0.739849
-0.788553
-0.859832
-0.948441
-1.06161
-1.20021
-1.37647
-1.58393
-1.84828
-2.17738
-2.65832
-0.660303
-0.629259
-0.611228
-0.605819
-0.608606
-0.623894
-0.648055
-0.686283
-0.739953
-0.80763
-0.901722
-1.01721
-1.16427
-1.3461
-1.58137
-1.86619
-2.24175
-2.72939
-3.56617
-0.45098
-0.472229
-0.487007
-0.505709
-0.528045
-0.560725
-0.600907
-0.655122
-0.725696
-0.812052
-0.929596
-1.07442
-1.26115
-1.49777
-1.81393
-2.21381
-2.76775
-3.52701
-5.1576
-0.251763
-0.311374
-0.353345
-0.393599
-0.434111
-0.482832
-0.537414
-0.605477
-0.690305
-0.792643
-0.931473
-1.105
-1.33455
-1.63753
-2.06298
-2.63608
-3.48644
-4.73545
-8.28032
-0.0825829
-0.153717
-0.212706
-0.270342
-0.326904
-0.3897
-0.455992
-0.534219
-0.627979
-0.739926
-0.893048
-1.08772
-1.35597
-1.7361
-2.32389
-3.23768
-4.86646
-7.86822
-18.5874
)
;

boundaryField
{
    up
    {
        type            calculated;
        value           nonuniform List<scalar> 
84
(
-16.8437
-9.12244
-5.60004
-3.82375
-2.82294
-2.19695
-1.77059
-1.46108
-1.22612
-1.04127
-0.892595
-0.770981
-0.669751
-0.584576
-0.512168
-0.449936
-0.395901
-0.348545
-0.306645
-0.268989
-0.234365
-0.200872
-0.163852
-0.105784
-0.102615
-0.129594
-0.1502
-0.171076
-0.194261
-0.221527
-0.255093
-0.29771
-0.361912
-0.625658
-0.843925
-0.876979
-0.858198
-0.875429
-0.90064
-0.923924
-0.941276
-0.952157
-0.952184
-0.941382
-0.924077
-0.900802
-0.875594
-0.858284
-0.876799
-0.844268
-0.628356
-0.362422
-0.29802
-0.255331
-0.221719
-0.194425
-0.171225
-0.150346
-0.129777
-0.102734
-0.105713
-0.16386
-0.200876
-0.234367
-0.268991
-0.306646
-0.348546
-0.395901
-0.449936
-0.512167
-0.584575
-0.66975
-0.77098
-0.892595
-1.04127
-1.22612
-1.46108
-1.77059
-2.19695
-2.82294
-3.82375
-5.60004
-9.12244
-16.8437
)
;
    }
    low
    {
        type            calculated;
        value           nonuniform List<scalar> 
84
(
-0.0885565
-0.262831
-0.475154
-0.70125
-0.910967
-1.07653
-1.18193
-1.2275
-1.22139
-1.17624
-1.13082
-1.07603
-1.00643
-0.947958
-0.895681
-0.842796
-0.794839
-0.755222
-0.714307
-0.669121
-0.631015
-0.597958
-0.566669
-0.538886
-0.512742
-0.496787
-0.497547
-0.517275
-0.551644
-0.600362
-0.660314
-0.722958
-0.795327
-0.880546
-0.974272
-1.08224
-1.20445
-1.31523
-1.40561
-1.47879
-1.5325
-1.56883
-1.56884
-1.53251
-1.4788
-1.40562
-1.31524
-1.20446
-1.08226
-0.974267
-0.880558
-0.795321
-0.722956
-0.660312
-0.600361
-0.551642
-0.517277
-0.49755
-0.496792
-0.512751
-0.538906
-0.566674
-0.597966
-0.631021
-0.669126
-0.714311
-0.755225
-0.794841
-0.842796
-0.89568
-0.947956
-1.00643
-1.07602
-1.13082
-1.17624
-1.22139
-1.2275
-1.18194
-1.07653
-0.910973
-0.701256
-0.475158
-0.262833
-0.0885572
)
;
    }
    left
    {
        type            calculated;
        value           nonuniform List<scalar> 
19
(
-0.0809872
-0.150779
-0.210849
-0.270285
-0.329074
-0.394313
-0.463442
-0.545354
-0.643808
-0.762805
-0.926463
-1.13628
-1.42866
-1.84945
-2.50615
-3.54382
-5.41536
-8.90571
-17.4707
)
;
    }
    right
    {
        type            calculated;
        value           nonuniform List<scalar> 
19
(
-0.0809876
-0.150779
-0.210849
-0.270286
-0.329074
-0.394313
-0.463442
-0.545354
-0.643808
-0.762804
-0.926462
-1.13627
-1.42866
-1.84944
-2.50615
-3.54382
-5.41536
-8.90571
-17.4707
)
;
    }
    frontAndBackPlanes
    {
        type            empty;
    }
}


// ************************************************************************* //
