/*--------------------------------*- C++ -*----------------------------------*\
  =========                 |
  \\      /  F ield         | OpenFOAM: The Open Source CFD Toolbox
   \\    /   O peration     | Website:  https://openfoam.org
    \\  /    A nd           | Version:  7
     \\/     M anipulation  |
\*---------------------------------------------------------------------------*/
FoamFile
{
    version     2.0;
    format      ascii;
    class       volScalarField;
    location    "0.28";
    object      T;
}
// * * * * * * * * * * * * * * * * * * * * * * * * * * * * * * * * * * * * * //

dimensions      [0 0 0 1 0 0 0];

internalField   nonuniform List<scalar> 
1596
(
0.997508
0.990356
0.983019
0.976036
0.969533
0.963425
0.957575
0.951685
0.945538
0.938633
0.930578
0.920845
0.908235
0.891061
0.866689
0.829219
0.767635
0.65991
0.461912
0.989222
0.966945
0.945872
0.926391
0.908452
0.891733
0.875836
0.860135
0.84409
0.826774
0.807406
0.785042
0.757926
0.723878
0.680175
0.621607
0.54007
0.421592
0.239709
0.97941
0.941928
0.908127
0.877553
0.849714
0.824008
0.799812
0.776306
0.752763
0.728095
0.701388
0.671592
0.636966
0.595512
0.545025
0.481644
0.400027
0.291907
0.141841
0.969705
0.917967
0.872675
0.832354
0.79601
0.762767
0.731817
0.702224
0.673168
0.643516
0.612337
0.578603
0.54074
0.497055
0.445861
0.384387
0.309182
0.215427
0.0941462
0.961627
0.897536
0.842178
0.793355
0.749676
0.710057
0.673554
0.639167
0.606029
0.573014
0.539214
0.50365
0.464917
0.421586
0.372343
0.315152
0.247726
0.167209
0.0682878
0.956171
0.882333
0.818474
0.762271
0.712185
0.667034
0.625801
0.587462
0.551133
0.515714
0.480326
0.444033
0.405563
0.363673
0.317285
0.264826
0.204692
0.135119
0.0528408
0.953486
0.872845
0.802155
0.739624
0.683873
0.633773
0.588316
0.546498
0.507442
0.470083
0.433569
0.396998
0.359188
0.319016
0.275544
0.22748
0.173612
0.112775
0.0428494
0.953002
0.868401
0.792603
0.724787
0.664027
0.609413
0.560043
0.514979
0.473386
0.434242
0.396724
0.359953
0.32281
0.284245
0.243397
0.199138
0.150478
0.0965759
0.0359588
0.95416
0.868046
0.788773
0.716692
0.651538
0.59277
0.539687
0.491477
0.447381
0.406434
0.367848
0.330766
0.29411
0.256876
0.218237
0.177162
0.132779
0.084416
0.0309644
0.955751
0.869749
0.788443
0.713145
0.64429
0.581793
0.525242
0.474004
0.427436
0.384652
0.34491
0.307376
0.271007
0.234825
0.198016
0.159598
0.118762
0.0749155
0.0271601
0.957048
0.871855
0.789567
0.712011
0.640192
0.574482
0.514797
0.460731
0.411787
0.367185
0.326242
0.288156
0.251915
0.216561
0.18128
0.145114
0.10728
0.067214
0.0241345
0.958677
0.874754
0.792106
0.71294
0.638709
0.570197
0.507653
0.450918
0.399671
0.353252
0.311051
0.272308
0.23604
0.201303
0.167278
0.133013
0.097728
0.0608557
0.0216726
0.960238
0.877828
0.795232
0.714938
0.638752
0.567816
0.502694
0.443481
0.390041
0.34185
0.298384
0.258928
0.222534
0.188266
0.155296
0.122667
0.0895881
0.0554699
0.0196124
0.961226
0.880125
0.797785
0.716736
0.639011
0.566039
0.498667
0.437232
0.381788
0.331953
0.287294
0.247152
0.21061
0.176745
0.144714
0.113552
0.0824463
0.0507741
0.0178367
0.962074
0.882007
0.799905
0.718267
0.63926
0.564529
0.495163
0.431724
0.374449
0.323098
0.277332
0.23655
0.199866
0.166369
0.135202
0.105383
0.0760735
0.0466098
0.0162786
0.962902
0.88371
0.80176
0.71957
0.639406
0.563088
0.491911
0.426638
0.367678
0.314927
0.268142
0.226775
0.189976
0.156839
0.126492
0.0979319
0.0702891
0.0428539
0.0148879
0.963491
0.884974
0.803081
0.720338
0.639095
0.561321
0.488487
0.421539
0.361044
0.307026
0.259331
0.217463
0.180604
0.147854
0.118322
0.0909816
0.0649261
0.039396
0.0136215
0.963925
0.88588
0.803937
0.720606
0.638312
0.559156
0.484772
0.41627
0.354363
0.299194
0.250689
0.208404
0.171546
0.13922
0.110516
0.0843812
0.0598669
0.036159
0.0124488
0.964692
0.887202
0.805152
0.721157
0.637753
0.557184
0.481242
0.411197
0.347899
0.291605
0.242317
0.199634
0.162789
0.130889
0.103004
0.0780534
0.055043
0.0330955
0.0113516
0.965617
0.888865
0.806742
0.72205
0.637486
0.555456
0.477923
0.406316
0.341619
0.284198
0.234125
0.191043
0.154203
0.122715
0.0956338
0.0718524
0.0503333
0.0301268
0.0103034
0.966325
0.890319
0.808177
0.722817
0.637103
0.553621
0.474507
0.401353
0.335275
0.276745
0.225901
0.182423
0.145582
0.11449
0.0881924
0.0655711
0.0455577
0.027132
0.00926513
0.967031
0.891752
0.809614
0.723609
0.636757
0.551822
0.471124
0.396415
0.328944
0.269285
0.217641
0.173729
0.136837
0.106079
0.0804992
0.0589877
0.0404809
0.0239239
0.00817124
0.967835
0.893328
0.81121
0.724569
0.636579
0.550184
0.467883
0.391592
0.322685
0.26184
0.209324
0.164889
0.127845
0.0973064
0.0723153
0.051787
0.0347149
0.0201138
0.00683504
0.968677
0.894959
0.812849
0.725563
0.636432
0.548578
0.464672
0.38678
0.316396
0.254291
0.200802
0.155721
0.118384
0.0879048
0.0633152
0.0435455
0.0276733
0.0149115
0.00450605
0.969993
0.898268
0.817629
0.731288
0.642589
0.554688
0.47031
0.391591
0.320113
0.256744
0.20194
0.155617
0.117212
0.0859126
0.0607898
0.0407769
0.0249717
0.0126778
0.0033774
0.971435
0.902475
0.824475
0.740502
0.653752
0.567252
0.483648
0.405049
0.33306
0.268642
0.212376
0.164365
0.124237
0.0913448
0.0648661
0.0437616
0.0270774
0.0140194
0.00392226
0.972145
0.904939
0.828908
0.746953
0.662086
0.57716
0.494679
0.416651
0.344636
0.279613
0.222243
0.172777
0.131033
0.0965633
0.0686971
0.0464621
0.0288863
0.0151018
0.00432988
0.972132
0.905593
0.830789
0.750437
0.667335
0.584115
0.503077
0.426064
0.354522
0.289379
0.231317
0.18069
0.137489
0.101485
0.0722127
0.0488234
0.0303666
0.01592
0.00461068
0.971641
0.904946
0.830801
0.751744
0.670332
0.588936
0.50961
0.433984
0.363339
0.298501
0.240118
0.188591
0.144053
0.106494
0.0757136
0.0510594
0.0316649
0.0165734
0.00481238
0.970717
0.903325
0.829523
0.751621
0.671909
0.592475
0.515099
0.441173
0.371786
0.307624
0.249257
0.19708
0.151307
0.112123
0.0796238
0.0534539
0.0329392
0.0171406
0.0049648
0.969549
0.901283
0.827751
0.751007
0.673068
0.595734
0.520505
0.448526
0.380687
0.317521
0.259488
0.206926
0.160051
0.119166
0.0846444
0.0565111
0.0344587
0.0177197
0.00509196
0.968617
0.899632
0.82645
0.75094
0.674862
0.599736
0.526791
0.456937
0.390876
0.328988
0.271617
0.219003
0.171284
0.128752
0.0919358
0.0612212
0.0368379
0.018517
0.00519855
0.967724
0.898139
0.825452
0.751332
0.677276
0.604527
0.534057
0.466557
0.402559
0.342312
0.286056
0.233928
0.185934
0.142227
0.103262
0.0695488
0.0417719
0.0204482
0.0053057
0.966846
0.896833
0.824858
0.752352
0.680532
0.61037
0.542595
0.477703
0.416085
0.357888
0.303282
0.252342
0.204966
0.161129
0.121036
0.0849482
0.0534719
0.0275143
0.00758396
0.965812
0.895082
0.823472
0.752189
0.68219
0.614197
0.548731
0.486125
0.426657
0.370398
0.317482
0.267966
0.221722
0.178647
0.138751
0.101925
0.0682316
0.0380778
0.0118125
0.96406
0.891267
0.818696
0.747291
0.677756
0.610602
0.546173
0.484669
0.426269
0.370974
0.318884
0.270043
0.224329
0.181663
0.142084
0.105463
0.0717638
0.0411009
0.0133347
0.96178
0.886107
0.811829
0.739549
0.669714
0.602638
0.538511
0.477416
0.419447
0.364545
0.312781
0.264192
0.21867
0.176178
0.136836
0.100618
0.0676306
0.038146
0.012134
0.959842
0.881743
0.806042
0.733039
0.662963
0.595961
0.532101
0.471368
0.413795
0.359279
0.307874
0.259621
0.214426
0.17228
0.133349
0.0976418
0.0652997
0.036621
0.0115808
0.958429
0.878462
0.801625
0.728025
0.657729
0.590763
0.527095
0.466639
0.409382
0.355186
0.304096
0.256154
0.211269
0.169452
0.130886
0.0955956
0.0637374
0.0356246
0.0112355
0.957344
0.875944
0.798236
0.724177
0.653713
0.586772
0.523251
0.463011
0.406002
0.352064
0.301231
0.253546
0.208921
0.16737
0.129092
0.0941195
0.0626185
0.0349157
0.0109937
0.956552
0.874112
0.795786
0.721412
0.650838
0.583925
0.520516
0.460434
0.403608
0.349858
0.299215
0.251719
0.207282
0.165922
0.127846
0.0930925
0.0618368
0.0344172
0.0108223
0.955923
0.872829
0.794177
0.719667
0.649075
0.582215
0.5189
0.458934
0.402234
0.348612
0.298094
0.250721
0.206403
0.165162
0.127206
0.0925768
0.0614525
0.0341772
0.0107427
0.955925
0.872832
0.794181
0.719673
0.649081
0.582221
0.518906
0.458941
0.40224
0.348618
0.298099
0.250726
0.206407
0.165165
0.127209
0.0925793
0.0614543
0.0341783
0.0107431
0.956556
0.874121
0.7958
0.721428
0.650856
0.583944
0.520535
0.460453
0.403627
0.349876
0.299232
0.251735
0.207295
0.165934
0.127856
0.0931007
0.0618427
0.0344208
0.0108236
0.95735
0.875959
0.798258
0.724203
0.653741
0.586802
0.523281
0.463041
0.406031
0.352092
0.301257
0.25357
0.208942
0.167389
0.129107
0.0941317
0.0626273
0.0349209
0.0109955
0.958437
0.878483
0.801654
0.728059
0.657767
0.590802
0.527135
0.466679
0.409421
0.355223
0.30413
0.256185
0.211297
0.169476
0.130905
0.0956109
0.0637483
0.0356311
0.0112376
0.959852
0.881767
0.806076
0.73308
0.663008
0.596009
0.53215
0.471417
0.413843
0.359324
0.307915
0.259659
0.214459
0.172308
0.133372
0.0976594
0.065312
0.0366282
0.0115831
0.961792
0.886134
0.811869
0.739597
0.669767
0.602693
0.538568
0.477472
0.419502
0.364596
0.312827
0.264234
0.218706
0.176207
0.136859
0.100635
0.0676414
0.0381516
0.0121355
0.964072
0.891297
0.81874
0.747344
0.677816
0.610665
0.546237
0.484732
0.426329
0.371029
0.318934
0.270086
0.224363
0.181688
0.1421
0.10547
0.0717639
0.0410974
0.0133321
0.965826
0.895127
0.823542
0.752282
0.682301
0.614324
0.54887
0.486273
0.426811
0.370556
0.317642
0.268126
0.221881
0.178804
0.138905
0.102072
0.0683628
0.0381776
0.011856
0.966864
0.896885
0.824942
0.752464
0.68067
0.61053
0.542772
0.477895
0.416287
0.358098
0.303497
0.252559
0.205182
0.161339
0.121234
0.0851248
0.0536138
0.0276076
0.00761788
0.967738
0.898183
0.825524
0.75143
0.677397
0.604667
0.534212
0.466723
0.402733
0.342491
0.286236
0.234105
0.186103
0.142383
0.103398
0.0696557
0.0418437
0.0204839
0.00531262
0.96863
0.899672
0.826517
0.751031
0.674975
0.599867
0.526937
0.457093
0.391038
0.329152
0.271779
0.219159
0.171427
0.128878
0.0920379
0.0612955
0.036884
0.0185394
0.00520431
0.96956
0.90132
0.827812
0.751092
0.673174
0.595857
0.520641
0.448671
0.380837
0.317671
0.259634
0.207062
0.160173
0.119269
0.0847245
0.0565676
0.0344936
0.0177375
0.00509705
0.970727
0.903358
0.829579
0.7517
0.672007
0.59259
0.515226
0.441308
0.371924
0.307761
0.249387
0.1972
0.151412
0.11221
0.0796897
0.0535001
0.0329684
0.0171561
0.00496943
0.97165
0.904974
0.830851
0.751815
0.670422
0.589042
0.509727
0.434108
0.363466
0.298625
0.240234
0.188697
0.144144
0.106568
0.0757698
0.0510991
0.0316905
0.0165874
0.00481676
0.972139
0.905618
0.830833
0.750501
0.667417
0.584212
0.503184
0.426177
0.354636
0.28949
0.231421
0.180783
0.137569
0.101549
0.0722618
0.0488586
0.0303899
0.0159332
0.00461503
0.972151
0.904961
0.828947
0.747009
0.662159
0.577246
0.494775
0.416752
0.344739
0.279713
0.222336
0.172859
0.131103
0.0966201
0.0687411
0.0464944
0.0289084
0.0151149
0.00433451
0.97144
0.902493
0.824508
0.740552
0.653816
0.567329
0.483734
0.405139
0.333152
0.26873
0.212458
0.164438
0.124299
0.0913958
0.0649063
0.0437921
0.0270992
0.0140331
0.00392759
0.969993
0.898271
0.817636
0.7313
0.642605
0.554708
0.470333
0.391616
0.320138
0.256768
0.201961
0.155634
0.117225
0.0859213
0.0607946
0.0407784
0.0249709
0.012676
0.00337614
0.968674
0.894953
0.81284
0.725551
0.636416
0.548561
0.464653
0.386761
0.316377
0.254272
0.200784
0.155705
0.118369
0.0878906
0.0633022
0.0435341
0.0276639
0.0149047
0.00450295
0.967834
0.893326
0.811207
0.724566
0.636575
0.550181
0.46788
0.391589
0.322684
0.261839
0.209324
0.16489
0.127847
0.0973082
0.0723172
0.0517889
0.0347166
0.0201149
0.00683537
0.96703
0.891751
0.809612
0.723607
0.636754
0.55182
0.471122
0.396413
0.328943
0.269284
0.217642
0.17373
0.136838
0.106081
0.0805007
0.0589891
0.040482
0.0239245
0.00817143
0.966325
0.890318
0.808175
0.722815
0.637102
0.553619
0.474506
0.401352
0.335275
0.276745
0.225902
0.182424
0.145583
0.114492
0.0881936
0.0655721
0.0455584
0.0271325
0.00926526
0.965617
0.888864
0.806741
0.722049
0.637485
0.555455
0.477923
0.406315
0.341619
0.284198
0.234126
0.191044
0.154204
0.122717
0.0956347
0.0718532
0.0503338
0.0301271
0.0103035
0.964692
0.887201
0.805151
0.721156
0.637753
0.557183
0.481242
0.411197
0.3479
0.291606
0.242318
0.199635
0.16279
0.13089
0.103005
0.0780539
0.0550434
0.0330957
0.0113517
0.963925
0.88588
0.803937
0.720605
0.638311
0.559156
0.484772
0.416271
0.354364
0.299195
0.25069
0.208405
0.171547
0.139221
0.110517
0.0843815
0.0598671
0.0361591
0.0124489
0.963491
0.884973
0.803081
0.720338
0.639095
0.561321
0.488487
0.421539
0.361044
0.307027
0.259331
0.217464
0.180605
0.147855
0.118322
0.0909818
0.0649262
0.0393961
0.0136216
0.962902
0.88371
0.80176
0.71957
0.639406
0.563089
0.491912
0.426638
0.367678
0.314928
0.268143
0.226776
0.189976
0.156839
0.126492
0.097932
0.0702891
0.0428538
0.0148879
0.962074
0.882007
0.799905
0.718268
0.63926
0.564529
0.495164
0.431724
0.37445
0.323098
0.277332
0.23655
0.199866
0.166369
0.135202
0.105383
0.0760734
0.0466098
0.0162786
0.961226
0.880125
0.797785
0.716736
0.639012
0.56604
0.498667
0.437232
0.381788
0.331953
0.287294
0.247152
0.21061
0.176745
0.144714
0.113552
0.0824462
0.050774
0.0178367
0.960238
0.877829
0.795232
0.714938
0.638753
0.567816
0.502694
0.443481
0.390041
0.34185
0.298383
0.258928
0.222533
0.188266
0.155295
0.122666
0.0895879
0.0554698
0.0196124
0.958677
0.874755
0.792106
0.71294
0.638709
0.570197
0.507653
0.450918
0.399671
0.353252
0.311051
0.272307
0.23604
0.201303
0.167278
0.133013
0.0977279
0.0608556
0.0216727
0.957049
0.871856
0.789568
0.712011
0.640192
0.574482
0.514797
0.46073
0.411787
0.367185
0.326241
0.288156
0.251915
0.216561
0.18128
0.145114
0.10728
0.0672139
0.0241346
0.955751
0.869749
0.788444
0.713145
0.64429
0.581793
0.525241
0.474004
0.427435
0.384651
0.344909
0.307375
0.271006
0.234824
0.198016
0.159598
0.118762
0.0749155
0.0271601
0.95416
0.868047
0.788773
0.716692
0.651538
0.592769
0.539686
0.491476
0.44738
0.406433
0.367847
0.330765
0.294109
0.256875
0.218237
0.177161
0.132779
0.0844161
0.0309645
0.953002
0.868401
0.792602
0.724786
0.664026
0.609412
0.560042
0.514978
0.473385
0.434241
0.396723
0.359952
0.322809
0.284244
0.243396
0.199138
0.150478
0.096576
0.0359589
0.953485
0.872845
0.802155
0.739623
0.683872
0.633772
0.588315
0.546497
0.507441
0.470082
0.433569
0.396998
0.359188
0.319016
0.275544
0.22748
0.173612
0.112775
0.0428495
0.956171
0.882333
0.818473
0.76227
0.712184
0.667033
0.6258
0.587461
0.551132
0.515713
0.480325
0.444032
0.405563
0.363672
0.317284
0.264826
0.204692
0.13512
0.0528409
0.961627
0.897535
0.842178
0.793354
0.749675
0.710056
0.673553
0.639167
0.606029
0.573013
0.539214
0.503649
0.464916
0.421586
0.372343
0.315153
0.247726
0.167209
0.0682878
0.969705
0.917967
0.872675
0.832354
0.796009
0.762766
0.731816
0.702223
0.673167
0.643515
0.612337
0.578603
0.540739
0.497055
0.445861
0.384387
0.309182
0.215427
0.0941462
0.97941
0.941928
0.908127
0.877552
0.849713
0.824008
0.799812
0.776305
0.752763
0.728095
0.701387
0.671591
0.636966
0.595512
0.545025
0.481644
0.400027
0.291907
0.14184
0.989222
0.966945
0.945872
0.926391
0.908452
0.891733
0.875836
0.860135
0.84409
0.826773
0.807405
0.785042
0.757926
0.723878
0.680175
0.621607
0.54007
0.421591
0.239709
0.997508
0.990356
0.983019
0.976036
0.969533
0.963425
0.957575
0.951685
0.945538
0.938633
0.930578
0.920845
0.908235
0.891062
0.866689
0.829219
0.767635
0.65991
0.461912
)
;

boundaryField
{
    up
    {
        type            fixedValue;
        value           uniform 0;
    }
    low
    {
        type            fixedValue;
        value           uniform 1;
    }
    left
    {
        type            fixedValue;
        value           uniform 1;
    }
    right
    {
        type            fixedValue;
        value           uniform 1;
    }
    frontAndBackPlanes
    {
        type            empty;
    }
}


// ************************************************************************* //
