/*--------------------------------*- C++ -*----------------------------------*\
  =========                 |
  \\      /  F ield         | OpenFOAM: The Open Source CFD Toolbox
   \\    /   O peration     | Website:  https://openfoam.org
    \\  /    A nd           | Version:  7
     \\/     M anipulation  |
\*---------------------------------------------------------------------------*/
FoamFile
{
    version     2.0;
    format      ascii;
    class       volScalarField;
    location    "0.285";
    object      T;
}
// * * * * * * * * * * * * * * * * * * * * * * * * * * * * * * * * * * * * * //

dimensions      [0 0 0 1 0 0 0];

internalField   nonuniform List<scalar> 
1596
(
0.997532
0.990447
0.983176
0.976247
0.969784
0.9637
0.957858
0.951961
0.945793
0.938857
0.930763
0.920987
0.908335
0.891124
0.866723
0.829233
0.767638
0.659909
0.461911
0.989324
0.967256
0.946367
0.927035
0.909204
0.89255
0.876675
0.860956
0.844857
0.827458
0.807987
0.785507
0.758274
0.724118
0.680323
0.621685
0.540102
0.4216
0.239709
0.979605
0.94247
0.908962
0.878619
0.850946
0.825341
0.80118
0.777649
0.754029
0.729239
0.702375
0.672403
0.637595
0.595966
0.545325
0.48182
0.400113
0.291937
0.141844
0.969989
0.918727
0.873825
0.833809
0.797683
0.764573
0.733674
0.704056
0.674905
0.645102
0.613728
0.579768
0.541666
0.497748
0.446341
0.384687
0.309342
0.215492
0.0941572
0.961983
0.898477
0.843595
0.795141
0.75173
0.712279
0.675846
0.64144
0.608202
0.575017
0.540992
0.505164
0.466148
0.422532
0.373022
0.315597
0.24798
0.167323
0.0683114
0.956574
0.883405
0.820093
0.76432
0.71455
0.669603
0.628465
0.590121
0.553695
0.518098
0.482467
0.445884
0.407095
0.364878
0.318174
0.265429
0.205053
0.135292
0.0528812
0.95391
0.873996
0.803911
0.741864
0.686475
0.636618
0.591287
0.549484
0.510343
0.472808
0.436045
0.399166
0.361011
0.320477
0.276648
0.228251
0.17409
0.113014
0.0429103
0.953429
0.869586
0.794436
0.72715
0.666798
0.612466
0.563256
0.518234
0.476574
0.437265
0.399499
0.362413
0.324907
0.285954
0.244713
0.200078
0.151078
0.0968879
0.0360432
0.954575
0.869231
0.790637
0.719124
0.654418
0.595971
0.543083
0.494946
0.450807
0.409711
0.370885
0.333487
0.296459
0.258818
0.219759
0.178271
0.133504
0.0848042
0.0310744
0.956154
0.87092
0.790311
0.71561
0.647238
0.585098
0.528776
0.477642
0.431055
0.388143
0.348173
0.310327
0.273583
0.236981
0.199729
0.160868
0.119609
0.07538
0.0272965
0.957443
0.873014
0.791432
0.714494
0.643184
0.577861
0.518435
0.464499
0.415562
0.370851
0.329693
0.291304
0.254688
0.218906
0.183167
0.146532
0.108242
0.0677519
0.0242972
0.959062
0.875898
0.793962
0.715429
0.641729
0.573629
0.511369
0.454789
0.40357
0.357059
0.314658
0.27562
0.23898
0.203812
0.169316
0.134563
0.0987941
0.061462
0.0218603
0.960617
0.878961
0.797082
0.717434
0.641796
0.571291
0.506474
0.447435
0.39404
0.345773
0.302117
0.262375
0.225612
0.190911
0.157463
0.124331
0.0907458
0.0561373
0.019823
0.961604
0.881258
0.799641
0.719249
0.642085
0.569559
0.502506
0.441258
0.385871
0.335969
0.291129
0.250706
0.213798
0.1795
0.146986
0.11531
0.0836804
0.0514934
0.0180671
0.962453
0.883148
0.801778
0.720808
0.642373
0.5681
0.499063
0.435819
0.378607
0.327193
0.281249
0.240187
0.203138
0.169207
0.137553
0.107214
0.0773679
0.047371
0.0165254
0.963283
0.884863
0.803658
0.722149
0.64257
0.566719
0.495878
0.430802
0.371906
0.31909
0.272124
0.230475
0.193308
0.159735
0.128899
0.0998144
0.0716274
0.0436463
0.0151475
0.963876
0.886145
0.805013
0.722967
0.642322
0.565023
0.492529
0.425777
0.36534
0.31125
0.263364
0.221207
0.183975
0.150784
0.120761
0.0928945
0.0662915
0.0402089
0.0138898
0.964316
0.887073
0.805911
0.723294
0.641613
0.562941
0.488899
0.420589
0.358728
0.303473
0.254764
0.212175
0.174934
0.142162
0.112965
0.0863032
0.0612423
0.0369811
0.0127219
0.965084
0.888412
0.807164
0.723905
0.641132
0.561057
0.485458
0.415598
0.352333
0.295934
0.246421
0.203417
0.166174
0.133818
0.105438
0.0799628
0.0564111
0.0339157
0.0116255
0.966007
0.890087
0.808787
0.724855
0.640942
0.559419
0.48223
0.410799
0.346118
0.288569
0.238247
0.194819
0.157563
0.125608
0.0980262
0.0737249
0.0516744
0.0309324
0.0105738
0.966715
0.891552
0.810253
0.725677
0.640635
0.557672
0.478904
0.405916
0.339834
0.281149
0.230025
0.186172
0.14889
0.117315
0.090512
0.0673765
0.0468469
0.027907
0.00952663
0.967418
0.89299
0.811715
0.726517
0.640356
0.555953
0.475601
0.401047
0.333549
0.273703
0.221745
0.177423
0.140061
0.1088
0.0827077
0.060688
0.0416853
0.0246457
0.00841642
0.968216
0.894565
0.813325
0.727511
0.64023
0.554378
0.472423
0.396273
0.327314
0.266247
0.213376
0.168494
0.130946
0.0998806
0.0743655
0.0533336
0.0357883
0.0207469
0.0070501
0.96905
0.896188
0.814967
0.728523
0.640115
0.552812
0.469248
0.391481
0.321015
0.25865
0.204764
0.159193
0.121314
0.0902793
0.0651501
0.044877
0.0285514
0.0153947
0.00465263
0.970351
0.899462
0.819701
0.734201
0.646229
0.558885
0.474855
0.396264
0.324701
0.261065
0.205851
0.159022
0.120061
0.088194
0.0625248
0.0420079
0.0257569
0.0130871
0.00348799
0.971775
0.903617
0.826468
0.743318
0.65729
0.571352
0.488114
0.409666
0.33762
0.272959
0.216305
0.167804
0.127129
0.0936753
0.0666521
0.0450426
0.0279078
0.0144638
0.0040496
0.972474
0.906042
0.830832
0.749673
0.665511
0.581142
0.499032
0.42117
0.34912
0.283879
0.226143
0.176206
0.13393
0.0989083
0.0705039
0.0477673
0.0297413
0.0155669
0.00446768
0.972456
0.906668
0.832654
0.753067
0.670642
0.587961
0.507287
0.430446
0.358884
0.293545
0.23514
0.184064
0.140349
0.103806
0.0740073
0.050125
0.0312242
0.0163908
0.00475282
0.971964
0.905999
0.832613
0.754283
0.673512
0.592627
0.51365
0.438193
0.367539
0.302524
0.243822
0.191871
0.146841
0.108763
0.0774694
0.0523348
0.0325072
0.017038
0.00495422
0.971041
0.904359
0.83128
0.754062
0.674949
0.595992
0.518944
0.445181
0.375791
0.311472
0.252812
0.200239
0.154
0.114317
0.0813223
0.0546865
0.0337526
0.0175895
0.00510267
0.969872
0.902292
0.829444
0.753338
0.675954
0.59906
0.524134
0.45231
0.384476
0.321171
0.262874
0.209947
0.162636
0.121278
0.0862781
0.0576929
0.0352345
0.0181459
0.00522302
0.968933
0.900604
0.828062
0.753143
0.677574
0.602851
0.530187
0.46048
0.39443
0.332426
0.274824
0.221882
0.173762
0.130787
0.093513
0.0623582
0.037577
0.0189175
0.00532039
0.96803
0.899065
0.826972
0.753393
0.679802
0.60742
0.537207
0.469847
0.40587
0.345532
0.28908
0.236667
0.188318
0.144205
0.104811
0.0706711
0.0424975
0.0208325
0.00541669
0.967139
0.897704
0.826274
0.75426
0.68286
0.613031
0.545492
0.480735
0.419149
0.360887
0.306125
0.254951
0.207274
0.163085
0.122608
0.0861223
0.054256
0.0279429
0.00771173
0.966089
0.895895
0.824782
0.753944
0.684321
0.616626
0.551373
0.488892
0.42946
0.373152
0.32011
0.270401
0.223905
0.180534
0.14031
0.103134
0.0690824
0.0385757
0.011976
0.964324
0.89203
0.819915
0.748912
0.679712
0.612819
0.548573
0.487171
0.428793
0.373446
0.321236
0.272214
0.226271
0.183337
0.143465
0.106536
0.0725227
0.0415509
0.0134863
0.962032
0.886825
0.812967
0.74105
0.671513
0.604663
0.540689
0.479672
0.421708
0.366743
0.314854
0.266089
0.220348
0.177607
0.137998
0.101505
0.0682454
0.0385019
0.0122503
0.960077
0.882411
0.807094
0.734421
0.664611
0.597808
0.534077
0.473404
0.415824
0.361239
0.309711
0.26129
0.215891
0.173517
0.134345
0.0983946
0.0658157
0.0369161
0.0116759
0.958648
0.87908
0.802598
0.729298
0.659244
0.592455
0.528899
0.46849
0.411219
0.356953
0.305743
0.257642
0.212569
0.170542
0.131757
0.0962496
0.0641822
0.0358769
0.0113161
0.957547
0.87652
0.799142
0.725362
0.65512
0.588341
0.52492
0.464718
0.407692
0.353683
0.302736
0.2549
0.210098
0.168353
0.129874
0.0947031
0.0630131
0.0351381
0.0110643
0.956743
0.874657
0.796645
0.722535
0.652171
0.585409
0.522092
0.462045
0.405198
0.35138
0.300625
0.252985
0.208378
0.166835
0.128569
0.0936305
0.062199
0.0346204
0.0108865
0.95611
0.87336
0.795012
0.720759
0.65037
0.583656
0.520429
0.460496
0.403774
0.350083
0.299456
0.251942
0.207459
0.166039
0.127901
0.0930924
0.0617989
0.0343711
0.0108038
0.956111
0.873363
0.795017
0.720764
0.650376
0.583662
0.520436
0.460502
0.40378
0.350089
0.299461
0.251946
0.207464
0.166043
0.127904
0.0930948
0.0618007
0.0343722
0.0108042
0.956747
0.874667
0.796658
0.722551
0.652189
0.585427
0.522111
0.462063
0.405217
0.351397
0.300641
0.253
0.208392
0.166847
0.12858
0.0936386
0.0622048
0.034624
0.0108878
0.957553
0.876535
0.799163
0.725388
0.655148
0.58837
0.524949
0.464748
0.407721
0.353711
0.302761
0.254924
0.210119
0.168371
0.129889
0.0947151
0.0630217
0.0351433
0.011066
0.958656
0.8791
0.802626
0.729332
0.659281
0.592494
0.528938
0.46853
0.411257
0.356989
0.305777
0.257672
0.212596
0.170565
0.131777
0.0962645
0.0641928
0.0358832
0.0113182
0.960087
0.882435
0.807129
0.734462
0.664656
0.597856
0.534126
0.473452
0.415871
0.361283
0.309751
0.261327
0.215923
0.173545
0.134367
0.0984117
0.0658276
0.0369231
0.0116782
0.962043
0.886852
0.813006
0.741097
0.671565
0.604718
0.540745
0.479727
0.421762
0.366793
0.3149
0.266129
0.220383
0.177636
0.13802
0.101521
0.0682558
0.0385073
0.0122517
0.964336
0.89206
0.819959
0.748964
0.679771
0.612881
0.548636
0.487233
0.428852
0.373501
0.321284
0.272256
0.226304
0.183361
0.14348
0.106542
0.072522
0.0415469
0.0134835
0.966103
0.895938
0.824852
0.754036
0.684431
0.616752
0.551511
0.489039
0.429613
0.37331
0.32027
0.270561
0.224065
0.180692
0.140464
0.103281
0.0692143
0.0386762
0.0120199
0.967156
0.897755
0.826357
0.754371
0.682997
0.613189
0.545668
0.480926
0.419351
0.361097
0.30634
0.255168
0.20749
0.163296
0.122808
0.0863001
0.0543991
0.028037
0.007746
0.968044
0.899108
0.827043
0.75349
0.679921
0.607558
0.537361
0.470012
0.406044
0.34571
0.289259
0.236844
0.188487
0.144362
0.104948
0.0707787
0.0425698
0.0208685
0.00542365
0.968946
0.900644
0.828129
0.753234
0.677687
0.602982
0.530331
0.460635
0.394592
0.33259
0.274985
0.222037
0.173906
0.130913
0.0936157
0.062433
0.0376235
0.01894
0.0053262
0.969883
0.902329
0.829504
0.753422
0.676059
0.599182
0.52427
0.452455
0.384625
0.321321
0.26302
0.210084
0.162758
0.121381
0.0863587
0.0577498
0.0352697
0.0181639
0.00522816
0.97105
0.904391
0.831336
0.75414
0.675047
0.596106
0.519071
0.445315
0.375929
0.311609
0.252943
0.200359
0.154105
0.114404
0.0813886
0.054733
0.0337819
0.0176051
0.00510736
0.971972
0.906028
0.832663
0.754353
0.673601
0.592732
0.513766
0.438317
0.367665
0.302648
0.243939
0.191977
0.146932
0.108837
0.077526
0.0523749
0.0325331
0.0170522
0.00495867
0.972463
0.906693
0.832698
0.75313
0.670723
0.588056
0.507393
0.430558
0.358998
0.293656
0.235245
0.184157
0.140429
0.103871
0.0740569
0.0501607
0.0312478
0.0164042
0.00475726
0.972479
0.906063
0.83087
0.749729
0.665583
0.581228
0.499127
0.421271
0.349223
0.283979
0.226236
0.176289
0.134001
0.0989656
0.0705483
0.0478
0.0297637
0.0155802
0.00447241
0.971779
0.903635
0.826501
0.743367
0.657353
0.571428
0.488199
0.409756
0.337711
0.273048
0.216387
0.167877
0.127192
0.0937268
0.0666928
0.0450735
0.02793
0.0144779
0.00405507
0.970352
0.899465
0.819709
0.734213
0.646246
0.558905
0.474878
0.396288
0.324726
0.261088
0.205871
0.159039
0.120073
0.0882025
0.0625294
0.0420092
0.0257559
0.0130851
0.00348667
0.969048
0.896182
0.814958
0.72851
0.6401
0.552794
0.469229
0.391461
0.320995
0.258631
0.204746
0.159176
0.121298
0.0902646
0.0651367
0.0448652
0.0285416
0.0153876
0.00464944
0.968215
0.894563
0.813322
0.727508
0.640227
0.554374
0.47242
0.396271
0.327312
0.266246
0.213376
0.168495
0.130948
0.0998822
0.0743673
0.0533354
0.0357899
0.020748
0.00705044
0.967417
0.892989
0.811713
0.726514
0.640353
0.55595
0.475599
0.401045
0.333548
0.273703
0.221745
0.177424
0.140062
0.108802
0.0827092
0.0606894
0.0416864
0.0246464
0.00841662
0.966714
0.891551
0.810252
0.725675
0.640633
0.55767
0.478903
0.405915
0.339834
0.281149
0.230026
0.186173
0.148891
0.117316
0.0905132
0.0673775
0.0468477
0.0279075
0.00952676
0.966007
0.890086
0.808786
0.724854
0.640941
0.559418
0.48223
0.410799
0.346118
0.28857
0.238248
0.19482
0.157564
0.125609
0.0980271
0.0737257
0.0516749
0.0309327
0.0105739
0.965084
0.888411
0.807163
0.723904
0.641131
0.561057
0.485458
0.415598
0.352333
0.295934
0.246422
0.203418
0.166175
0.133819
0.105438
0.0799633
0.0564114
0.0339159
0.0116255
0.964316
0.887073
0.80591
0.723294
0.641613
0.562941
0.488899
0.420589
0.358729
0.303473
0.254764
0.212176
0.174935
0.142162
0.112965
0.0863035
0.0612425
0.0369812
0.0127219
0.963876
0.886145
0.805013
0.722967
0.642322
0.565024
0.492529
0.425778
0.36534
0.31125
0.263365
0.221208
0.183975
0.150785
0.120762
0.0928947
0.0662916
0.040209
0.0138898
0.963283
0.884863
0.803658
0.722149
0.64257
0.56672
0.495878
0.430803
0.371906
0.319091
0.272124
0.230475
0.193309
0.159735
0.128899
0.0998144
0.0716274
0.0436463
0.0151475
0.962453
0.883148
0.801778
0.720808
0.642374
0.5681
0.499064
0.435819
0.378607
0.327193
0.281249
0.240187
0.203138
0.169207
0.137553
0.107214
0.0773678
0.0473709
0.0165254
0.961604
0.881259
0.799642
0.719249
0.642085
0.56956
0.502506
0.441258
0.385872
0.335969
0.291129
0.250706
0.213798
0.1795
0.146986
0.11531
0.0836803
0.0514934
0.0180671
0.960617
0.878961
0.797083
0.717434
0.641796
0.571292
0.506474
0.447435
0.39404
0.345772
0.302117
0.262375
0.225611
0.190911
0.157462
0.124331
0.0907456
0.0561372
0.019823
0.959063
0.875899
0.793962
0.71543
0.641729
0.573629
0.511369
0.454789
0.40357
0.357059
0.314657
0.275619
0.23898
0.203811
0.169316
0.134563
0.0987939
0.0614619
0.0218603
0.957443
0.873014
0.791432
0.714494
0.643184
0.577861
0.518435
0.464499
0.415562
0.37085
0.329693
0.291304
0.254688
0.218906
0.183166
0.146532
0.108242
0.0677519
0.0242973
0.956154
0.87092
0.790311
0.71561
0.647238
0.585098
0.528776
0.477641
0.431055
0.388142
0.348172
0.310327
0.273582
0.23698
0.199729
0.160868
0.119609
0.0753801
0.0272966
0.954575
0.869231
0.790637
0.719124
0.654418
0.595971
0.543083
0.494945
0.450806
0.40971
0.370885
0.333486
0.296459
0.258817
0.219758
0.178271
0.133504
0.0848043
0.0310745
0.953429
0.869585
0.794436
0.72715
0.666797
0.612465
0.563255
0.518233
0.476574
0.437264
0.399498
0.362412
0.324906
0.285953
0.244713
0.200078
0.151078
0.096888
0.0360433
0.953909
0.873995
0.803911
0.741863
0.686475
0.636617
0.591286
0.549483
0.510342
0.472808
0.436044
0.399166
0.361011
0.320477
0.276648
0.228251
0.17409
0.113015
0.0429104
0.956573
0.883405
0.820092
0.76432
0.71455
0.669602
0.628464
0.59012
0.553694
0.518097
0.482467
0.445884
0.407095
0.364877
0.318174
0.265429
0.205053
0.135292
0.0528813
0.961983
0.898476
0.843594
0.795141
0.75173
0.712278
0.675845
0.64144
0.608201
0.575016
0.540992
0.505164
0.466147
0.422532
0.373022
0.315597
0.24798
0.167323
0.0683114
0.969989
0.918727
0.873824
0.833808
0.797682
0.764572
0.733673
0.704055
0.674905
0.645101
0.613727
0.579767
0.541666
0.497748
0.446341
0.384687
0.309343
0.215493
0.0941572
0.979605
0.94247
0.908962
0.878618
0.850946
0.82534
0.80118
0.777649
0.754028
0.729238
0.702374
0.672402
0.637594
0.595966
0.545325
0.48182
0.400113
0.291937
0.141844
0.989324
0.967256
0.946367
0.927035
0.909204
0.892549
0.876675
0.860955
0.844857
0.827458
0.807986
0.785507
0.758274
0.724118
0.680323
0.621685
0.540102
0.421599
0.239709
0.997532
0.990447
0.983176
0.976247
0.969784
0.9637
0.957858
0.951961
0.945793
0.938857
0.930763
0.920987
0.908335
0.891124
0.866723
0.829233
0.767638
0.659909
0.461911
)
;

boundaryField
{
    up
    {
        type            fixedValue;
        value           uniform 0;
    }
    low
    {
        type            fixedValue;
        value           uniform 1;
    }
    left
    {
        type            fixedValue;
        value           uniform 1;
    }
    right
    {
        type            fixedValue;
        value           uniform 1;
    }
    frontAndBackPlanes
    {
        type            empty;
    }
}


// ************************************************************************* //
