/*--------------------------------*- C++ -*----------------------------------*\
  =========                 |
  \\      /  F ield         | OpenFOAM: The Open Source CFD Toolbox
   \\    /   O peration     | Website:  https://openfoam.org
    \\  /    A nd           | Version:  7
     \\/     M anipulation  |
\*---------------------------------------------------------------------------*/
FoamFile
{
    version     2.0;
    format      ascii;
    class       volScalarField;
    location    "0.12";
    object      gradTy;
}
// * * * * * * * * * * * * * * * * * * * * * * * * * * * * * * * * * * * * * //

dimensions      [0 -1 0 1 0 0 0];

internalField   nonuniform List<scalar> 
1596
(
-0.154622
-0.284147
-0.384535
-0.473445
-0.549834
-0.625262
-0.693726
-0.76736
-0.849163
-0.940595
-1.06976
-1.2335
-1.46818
-1.81444
-2.37245
-3.26197
-4.87537
-7.86955
-18.5879
-0.466368
-0.565824
-0.621312
-0.661433
-0.690562
-0.723285
-0.755776
-0.799684
-0.858226
-0.930564
-1.04083
-1.18391
-1.38479
-1.66209
-2.0685
-2.62827
-3.47385
-4.72429
-8.2749
-0.821502
-0.841647
-0.834922
-0.821237
-0.802971
-0.793831
-0.790492
-0.803401
-0.834957
-0.882813
-0.966971
-1.08028
-1.24044
-1.45612
-1.76034
-2.15531
-2.71415
-3.48476
-5.1304
-1.17659
-1.09751
-1.02275
-0.955025
-0.891482
-0.842634
-0.805028
-0.787312
-0.790954
-0.812644
-0.86849
-0.95035
-1.0708
-1.23339
-1.46005
-1.74462
-2.13141
-2.63818
-3.49916
-1.48366
-1.31898
-1.18345
-1.06706
-0.962926
-0.878002
-0.808889
-0.762286
-0.738956
-0.735134
-0.763389
-0.815553
-0.900478
-1.01909
-1.18671
-1.39477
-1.67244
-2.02454
-2.5358
-1.70691
-1.49462
-1.31636
-1.16164
-1.02391
-0.907857
-0.810891
-0.73807
-0.689822
-0.662382
-0.665191
-0.690687
-0.74487
-0.827297
-0.948972
-1.10138
-1.30495
-1.55929
-1.89628
-1.83462
-1.61777
-1.42019
-1.24088
-1.07834
-0.937196
-0.816699
-0.720942
-0.650458
-0.601879
-0.581994
-0.584171
-0.612159
-0.664757
-0.749825
-0.859838
-1.00956
-1.19691
-1.4346
-1.87702
-1.68676
-1.49215
-1.30319
-1.12578
-0.966511
-0.827461
-0.712611
-0.623056
-0.55617
-0.516631
-0.498865
-0.504844
-0.532901
-0.588443
-0.665136
-0.773705
-0.911869
-1.08513
-1.85761
-1.71363
-1.53863
-1.35265
-1.1692
-0.998143
-0.844979
-0.714453
-0.608646
-0.525942
-0.469502
-0.434787
-0.422405
-0.430368
-0.462086
-0.512293
-0.588578
-0.688923
-0.815928
-1.79344
-1.69463
-1.54833
-1.37618
-1.19606
-1.02099
-0.859746
-0.718461
-0.600493
-0.505423
-0.435508
-0.387174
-0.36007
-0.352005
-0.364811
-0.394096
-0.445016
-0.51591
-0.608126
-1.72708
-1.65692
-1.53658
-1.38166
-1.20998
-1.03614
-0.871351
-0.72327
-0.596597
-0.492164
-0.411816
-0.352844
-0.314274
-0.293791
-0.291992
-0.305128
-0.336419
-0.384429
-0.449814
-1.65526
-1.61295
-1.51547
-1.37752
-1.21606
-1.04622
-0.88072
-0.728579
-0.595752
-0.484257
-0.395894
-0.328685
-0.281293
-0.251332
-0.238461
-0.239369
-0.255765
-0.286307
-0.331167
-1.57315
-1.55469
-1.47804
-1.35682
-1.207
-1.04384
-0.880747
-0.727808
-0.591973
-0.476272
-0.382703
-0.309888
-0.256341
-0.219661
-0.198847
-0.19089
-0.196392
-0.214035
-0.243642
-1.50561
-1.49831
-1.43609
-1.32829
-1.18885
-1.03266
-0.873231
-0.721343
-0.584629
-0.466873
-0.370345
-0.294105
-0.236634
-0.195542
-0.169373
-0.155312
-0.153168
-0.1616
-0.180168
-1.44719
-1.44805
-1.39518
-1.29684
-1.16541
-1.01521
-0.859565
-0.709617
-0.573397
-0.455174
-0.357445
-0.279552
-0.219978
-0.176344
-0.146881
-0.128897
-0.121651
-0.123769
-0.134628
-1.39231
-1.40174
-1.3558
-1.26387
-1.13801
-0.992381
-0.840105
-0.692487
-0.557716
-0.440293
-0.34283
-0.264794
-0.204657
-0.160028
-0.128926
-0.10873
-0.0983363
-0.0963506
-0.102033
-1.34529
-1.36024
-1.31893
-1.23078
-1.1081
-0.965341
-0.815598
-0.670275
-0.537538
-0.421886
-0.325891
-0.248984
-0.189573
-0.145222
-0.113794
-0.0927119
-0.0806419
-0.0761823
-0.0785374
-1.3067
-1.32544
-1.28677
-1.2001
-1.07829
-0.936477
-0.788052
-0.644524
-0.513939
-0.400616
-0.306905
-0.232062
-0.17435
-0.13124
-0.100464
-0.0794705
-0.0667792
-0.0609985
-0.061314
-1.26721
-1.29642
-1.26147
-1.1752
-1.05244
-0.909629
-0.760948
-0.618173
-0.489249
-0.378218
-0.287058
-0.214735
-0.159269
-0.117989
-0.0884854
-0.0682126
-0.0555939
-0.049255
-0.0483844
-1.22438
-1.26762
-1.23862
-1.15308
-1.02856
-0.883588
-0.7336
-0.590884
-0.463334
-0.354653
-0.266333
-0.196943
-0.144188
-0.105205
-0.0774396
-0.0583391
-0.0462668
-0.0398784
-0.038384
-1.1884
-1.24274
-1.21988
-1.13503
-1.00804
-0.859802
-0.707444
-0.563991
-0.437364
-0.330893
-0.245485
-0.179228
-0.129441
-0.093026
-0.0672732
-0.0496086
-0.0383554
-0.0322109
-0.0304311
-1.15576
-1.22194
-1.20551
-1.12149
-0.991681
-0.839428
-0.683851
-0.538909
-0.412667
-0.308091
-0.225445
-0.162291
-0.115506
-0.0817307
-0.0580848
-0.0419558
-0.0316227
-0.0258249
-0.0239106
-1.12341
-1.20363
-1.19479
-1.11218
-0.979695
-0.823142
-0.663817
-0.516789
-0.390389
-0.287277
-0.207071
-0.146791
-0.10285
-0.0716145
-0.0500291
-0.0354201
-0.0259873
-0.020449
-0.0182942
-1.09203
-1.1868
-1.18602
-1.10502
-0.969815
-0.808628
-0.645156
-0.495586
-0.36864
-0.266753
-0.188778
-0.131297
-0.0901915
-0.0615474
-0.0421113
-0.0291705
-0.020765
-0.0154287
-0.0122061
-1.06454
-1.17387
-1.18547
-1.11284
-0.982221
-0.822322
-0.65822
-0.506928
-0.377984
-0.274347
-0.194794
-0.136119
-0.0940265
-0.0646162
-0.0445619
-0.0311943
-0.0224008
-0.0165916
-0.0123182
-1.04338
-1.16329
-1.18586
-1.1234
-1.00063
-0.845294
-0.682641
-0.53029
-0.398718
-0.291823
-0.208846
-0.147072
-0.102312
-0.0707187
-0.0489345
-0.0343276
-0.0247152
-0.0185326
-0.0143999
-1.04044
-1.16287
-1.1913
-1.13656
-1.02119
-0.871295
-0.711302
-0.558944
-0.42533
-0.315211
-0.22852
-0.16307
-0.114933
-0.0804
-0.0561746
-0.039674
-0.0286913
-0.0216249
-0.0171082
-1.05831
-1.17489
-1.20272
-1.15164
-1.0419
-0.897388
-0.740954
-0.589769
-0.45513
-0.342443
-0.252294
-0.183108
-0.131284
-0.0933193
-0.0660422
-0.0470171
-0.0340935
-0.0256958
-0.0203699
-1.09394
-1.19968
-1.22187
-1.17089
-1.06494
-0.925391
-0.773041
-0.623956
-0.489217
-0.374648
-0.281394
-0.208527
-0.152799
-0.11094
-0.079918
-0.0575411
-0.0418382
-0.0313962
-0.0246713
-1.14543
-1.23459
-1.24727
-1.19387
-1.09038
-0.955464
-0.807659
-0.661568
-0.527726
-0.412151
-0.316415
-0.240244
-0.180742
-0.134839
-0.0995557
-0.0729578
-0.0533642
-0.0397994
-0.0307992
-1.21116
-1.27965
-1.28105
-1.22378
-1.12168
-0.990827
-0.847537
-0.704812
-0.572451
-0.456487
-0.358798
-0.279773
-0.216866
-0.167165
-0.127525
-0.0960555
-0.0712435
-0.0529032
-0.0401425
-1.27814
-1.33006
-1.32113
-1.25986
-1.15874
-1.0317
-0.892987
-0.754007
-0.623712
-0.508022
-0.409023
-0.327804
-0.26226
-0.209707
-0.166629
-0.130738
-0.0999326
-0.0746286
-0.0553844
-1.3525
-1.38791
-1.3683
-1.30242
-1.20164
-1.07799
-0.943814
-0.808905
-0.681265
-0.566559
-0.466956
-0.384266
-0.317007
-0.263061
-0.218719
-0.181173
-0.14644
-0.113688
-0.0822082
-1.43881
-1.4565
-1.42574
-1.35491
-1.25428
-1.13415
-1.00494
-0.874886
-0.750927
-0.638288
-0.539197
-0.455996
-0.388041
-0.334302
-0.29184
-0.25837
-0.228785
-0.200455
-0.170263
-1.53266
-1.53139
-1.48626
-1.40678
-1.30256
-1.18262
-1.05561
-0.928449
-0.806979
-0.695652
-0.596727
-0.512413
-0.442667
-0.387247
-0.344664
-0.314143
-0.292562
-0.277799
-0.266582
-1.63806
-1.61151
-1.54751
-1.4555
-1.34397
-1.22077
-1.09305
-0.9667
-0.846697
-0.736701
-0.639008
-0.555354
-0.485875
-0.430321
-0.387749
-0.357367
-0.337578
-0.327494
-0.325934
-1.75482
-1.69845
-1.61428
-1.50896
-1.38912
-1.26127
-1.13137
-1.00453
-0.885066
-0.776118
-0.679863
-0.597724
-0.529789
-0.475657
-0.434308
-0.404352
-0.383802
-0.370798
-0.363185
-1.85841
-1.77583
-1.6738
-1.55643
-1.42881
-1.29632
-1.16404
-1.03636
-0.917058
-0.808855
-0.713677
-0.632739
-0.56601
-0.512998
-0.472654
-0.443531
-0.423679
-0.411286
-0.404281
-1.93872
-1.8391
-1.72422
-1.59769
-1.46397
-1.32776
-1.19354
-1.06516
-0.945999
-0.838435
-0.744212
-0.664379
-0.598824
-0.546997
-0.507858
-0.479916
-0.461258
-0.450053
-0.444233
-2.00154
-1.88918
-1.76454
-1.63097
-1.49253
-1.35342
-1.21765
-1.08872
-0.96967
-0.862628
-0.76921
-0.690327
-0.62581
-0.575061
-0.537044
-0.510223
-0.492712
-0.482654
-0.47798
-2.04714
-1.92527
-1.79324
-1.65446
-1.51258
-1.3714
-1.23457
-1.10527
-0.986337
-0.879715
-0.786926
-0.708789
-0.645093
-0.595201
-0.558077
-0.532138
-0.515507
-0.506288
-0.502393
-2.07838
-1.94625
-1.8085
-1.66636
-1.5225
-1.38022
-1.24288
-1.11346
-0.994677
-0.888357
-0.795978
-0.718309
-0.655118
-0.605754
-0.569188
-0.543827
-0.527808
-0.519227
-0.515993
-2.07839
-1.94627
-1.80852
-1.66638
-1.52253
-1.38025
-1.24291
-1.1135
-0.994711
-0.888391
-0.796011
-0.718343
-0.655151
-0.605788
-0.569223
-0.543863
-0.527845
-0.519267
-0.516035
-2.04716
-1.9253
-1.79329
-1.65452
-1.51265
-1.37148
-1.23466
-1.10536
-0.986432
-0.879811
-0.787023
-0.708887
-0.645191
-0.595301
-0.55818
-0.532246
-0.515621
-0.50641
-0.502526
-2.00156
-1.88923
-1.76462
-1.63108
-1.49265
-1.35355
-1.2178
-1.08887
-0.969823
-0.862784
-0.769367
-0.690484
-0.625969
-0.575221
-0.537208
-0.510392
-0.49289
-0.482843
-0.478184
-1.93875
-1.83917
-1.72432
-1.59782
-1.46412
-1.32793
-1.19372
-1.06535
-0.9462
-0.838639
-0.744417
-0.664584
-0.599028
-0.547202
-0.508064
-0.480126
-0.461476
-0.450282
-0.444477
-1.85844
-1.77591
-1.67392
-1.55658
-1.429
-1.29653
-1.16426
-1.03659
-0.917302
-0.809103
-0.713924
-0.632984
-0.566252
-0.513236
-0.472891
-0.443772
-0.423929
-0.411548
-0.40456
-1.75485
-1.69854
-1.61441
-1.50914
-1.38933
-1.26151
-1.13163
-1.0048
-0.885345
-0.776398
-0.680139
-0.597992
-0.530048
-0.475909
-0.434558
-0.404605
-0.384063
-0.37107
-0.36347
-1.6381
-1.61162
-1.54768
-1.45573
-1.34425
-1.2211
-1.09341
-0.967083
-0.847091
-0.737098
-0.639401
-0.55574
-0.486255
-0.4307
-0.388135
-0.357757
-0.337965
-0.327853
-0.326234
-1.53269
-1.53141
-1.48631
-1.40688
-1.30271
-1.18282
-1.05585
-0.92872
-0.807262
-0.695931
-0.596991
-0.512649
-0.442868
-0.387411
-0.344797
-0.314256
-0.292694
-0.278017
-0.266996
-1.43883
-1.45658
-1.4259
-1.35518
-1.25465
-1.1346
-1.00547
-0.875472
-0.75154
-0.638905
-0.539803
-0.456581
-0.388604
-0.334853
-0.292399
-0.258968
-0.229461
-0.201241
-0.171178
-1.35251
-1.38794
-1.36839
-1.30259
-1.20189
-1.07831
-0.944196
-0.809324
-0.681698
-0.566987
-0.467366
-0.384653
-0.317372
-0.263412
-0.219066
-0.181527
-0.146794
-0.114008
-0.0824251
-1.27814
-1.33008
-1.3212
-1.26002
-1.15898
-1.03201
-0.893353
-0.754405
-0.624118
-0.508418
-0.409398
-0.328153
-0.262584
-0.210009
-0.16691
-0.130995
-0.100156
-0.0748061
-0.0555061
-1.21115
-1.27966
-1.28111
-1.22392
-1.12189
-0.991113
-0.847875
-0.705176
-0.572819
-0.456841
-0.359127
-0.280073
-0.217137
-0.167407
-0.127736
-0.0962296
-0.0713796
-0.0530092
-0.0402281
-1.14542
-1.23459
-1.24732
-1.19399
-1.09057
-0.955728
-0.807969
-0.661898
-0.528055
-0.412462
-0.316697
-0.240494
-0.180959
-0.135025
-0.0997098
-0.0730787
-0.0534546
-0.0398695
-0.0308617
-1.09393
-1.19967
-1.2219
-1.17099
-1.06512
-0.925629
-0.773319
-0.624251
-0.489506
-0.374917
-0.281632
-0.208731
-0.15297
-0.11108
-0.0800294
-0.057627
-0.0419028
-0.0314466
-0.0247153
-1.0583
-1.17487
-1.20275
-1.15173
-1.04206
-0.8976
-0.7412
-0.590027
-0.45538
-0.34267
-0.25249
-0.183271
-0.131416
-0.0934235
-0.0661232
-0.0470795
-0.0341411
-0.0257328
-0.0204021
-1.04043
-1.16286
-1.19131
-1.13663
-1.02132
-0.871479
-0.711515
-0.559164
-0.425541
-0.315399
-0.228679
-0.163199
-0.115035
-0.0804788
-0.0562352
-0.039721
-0.0287278
-0.0216534
-0.0171331
-1.04337
-1.16327
-1.18587
-1.12346
-1.00073
-0.845434
-0.682803
-0.530456
-0.398875
-0.291961
-0.20896
-0.147162
-0.102382
-0.0707716
-0.0489746
-0.0343588
-0.0247406
-0.0185544
-0.0144185
-1.06455
-1.17387
-1.18549
-1.11287
-0.982268
-0.822385
-0.658293
-0.507004
-0.378057
-0.274413
-0.19485
-0.136166
-0.0940655
-0.0646488
-0.0445897
-0.0312185
-0.0224217
-0.0166095
-0.012329
-1.09205
-1.18681
-1.18602
-1.105
-0.969779
-0.808583
-0.645106
-0.495535
-0.368591
-0.266708
-0.188738
-0.131264
-0.0901648
-0.0615272
-0.042097
-0.0291604
-0.0207566
-0.0154206
-0.0121975
-1.12341
-1.20363
-1.19479
-1.11219
-0.979695
-0.823145
-0.663821
-0.516793
-0.390392
-0.287279
-0.207072
-0.146791
-0.10285
-0.0716152
-0.0500305
-0.0354221
-0.0259892
-0.0204497
-0.0182945
-1.15576
-1.22194
-1.20551
-1.12148
-0.991679
-0.839427
-0.683851
-0.538909
-0.412666
-0.30809
-0.225444
-0.16229
-0.115506
-0.0817307
-0.0580853
-0.0419567
-0.0316237
-0.0258251
-0.0239098
-1.1884
-1.24274
-1.21988
-1.13503
-1.00804
-0.859802
-0.707444
-0.563991
-0.437364
-0.330893
-0.245485
-0.179228
-0.129441
-0.0930262
-0.0672734
-0.0496088
-0.0383555
-0.0322105
-0.0304301
-1.22438
-1.26762
-1.23862
-1.15308
-1.02856
-0.883588
-0.7336
-0.590884
-0.463334
-0.354653
-0.266333
-0.196943
-0.144188
-0.105205
-0.0774398
-0.058339
-0.0462663
-0.0398777
-0.0383829
-1.2672
-1.29642
-1.26147
-1.17521
-1.05244
-0.90963
-0.760947
-0.618173
-0.48925
-0.378218
-0.287059
-0.214735
-0.15927
-0.117989
-0.0884857
-0.0682123
-0.055593
-0.049254
-0.0483833
-1.30669
-1.32544
-1.28677
-1.2001
-1.07829
-0.936477
-0.788052
-0.644524
-0.51394
-0.400617
-0.306906
-0.232063
-0.17435
-0.131241
-0.100465
-0.0794702
-0.0667781
-0.0609973
-0.0613129
-1.34529
-1.36024
-1.31893
-1.23079
-1.1081
-0.965342
-0.815598
-0.670276
-0.537539
-0.421888
-0.325892
-0.248985
-0.189574
-0.145223
-0.113794
-0.0927116
-0.0806405
-0.0761808
-0.078536
-1.3923
-1.40174
-1.35579
-1.26387
-1.13801
-0.992381
-0.840106
-0.692488
-0.557717
-0.440295
-0.342832
-0.264796
-0.204659
-0.160029
-0.128926
-0.108729
-0.0983347
-0.0963486
-0.102031
-1.44718
-1.44805
-1.39518
-1.29684
-1.16541
-1.01521
-0.859565
-0.709618
-0.573399
-0.455177
-0.357447
-0.279554
-0.219981
-0.176346
-0.146882
-0.128896
-0.121649
-0.123767
-0.134625
-1.5056
-1.49831
-1.43609
-1.32829
-1.18885
-1.03265
-0.873231
-0.721344
-0.584631
-0.466876
-0.370348
-0.294109
-0.236637
-0.195544
-0.169374
-0.155311
-0.153166
-0.161597
-0.180164
-1.57315
-1.55469
-1.47804
-1.35682
-1.207
-1.04383
-0.880747
-0.72781
-0.591976
-0.476276
-0.382708
-0.309893
-0.256345
-0.219663
-0.198847
-0.190889
-0.196391
-0.214032
-0.243638
-1.65525
-1.61294
-1.51547
-1.37752
-1.21606
-1.04622
-0.88072
-0.728581
-0.595755
-0.484261
-0.395899
-0.328691
-0.281298
-0.251333
-0.23846
-0.239367
-0.255766
-0.286305
-0.331163
-1.72707
-1.65692
-1.53658
-1.38166
-1.20998
-1.03614
-0.871351
-0.723271
-0.5966
-0.492169
-0.411823
-0.35285
-0.314278
-0.293791
-0.291989
-0.305127
-0.336422
-0.384429
-0.44981
-1.79343
-1.69463
-1.54833
-1.37618
-1.19606
-1.02099
-0.859746
-0.718463
-0.600496
-0.505428
-0.435513
-0.387179
-0.360073
-0.352004
-0.364807
-0.394095
-0.44502
-0.515911
-0.608122
-1.85761
-1.71363
-1.53863
-1.35265
-1.1692
-0.998143
-0.84498
-0.714454
-0.608648
-0.525945
-0.469506
-0.434791
-0.422406
-0.430365
-0.462082
-0.512293
-0.588584
-0.688925
-0.815925
-1.87702
-1.68676
-1.49215
-1.30319
-1.12578
-0.966513
-0.827463
-0.712612
-0.623058
-0.556172
-0.516633
-0.498866
-0.504843
-0.532898
-0.58844
-0.665136
-0.77371
-0.911871
-1.08513
-1.83462
-1.61777
-1.42019
-1.24088
-1.07834
-0.937198
-0.816701
-0.720944
-0.650459
-0.60188
-0.581994
-0.58417
-0.612158
-0.664755
-0.749823
-0.859837
-1.00956
-1.19691
-1.4346
-1.70691
-1.49462
-1.31636
-1.16164
-1.02391
-0.90786
-0.810893
-0.738072
-0.689823
-0.662382
-0.665191
-0.690686
-0.744869
-0.827298
-0.948973
-1.10138
-1.30494
-1.55928
-1.89628
-1.48366
-1.31898
-1.18345
-1.06706
-0.962926
-0.878003
-0.80889
-0.762287
-0.738956
-0.735134
-0.763388
-0.815553
-0.900479
-1.01909
-1.18671
-1.39476
-1.67242
-2.02453
-2.5358
-1.1766
-1.09751
-1.02275
-0.955025
-0.891481
-0.842632
-0.805027
-0.787311
-0.790953
-0.812643
-0.868489
-0.95035
-1.07081
-1.23339
-1.46005
-1.74462
-2.1314
-2.63817
-3.49916
-0.821505
-0.841649
-0.834924
-0.821238
-0.802971
-0.79383
-0.790491
-0.803399
-0.834956
-0.882811
-0.96697
-1.08028
-1.24045
-1.45612
-1.76035
-2.15531
-2.71414
-3.48475
-5.1304
-0.46637
-0.565825
-0.621313
-0.661433
-0.690562
-0.723285
-0.755776
-0.799683
-0.858225
-0.930563
-1.04083
-1.18391
-1.38479
-1.6621
-2.0685
-2.62827
-3.47384
-4.72429
-8.2749
-0.154623
-0.284148
-0.384535
-0.473445
-0.549834
-0.625262
-0.693726
-0.767359
-0.849162
-0.940595
-1.06976
-1.2335
-1.46818
-1.81444
-2.37245
-3.26198
-4.87537
-7.86955
-18.5879
)
;

boundaryField
{
    up
    {
        type            calculated;
        value           nonuniform List<scalar> 
84
(
-16.8466
-9.12305
-5.5839
-3.77201
-2.7179
-2.02677
-1.53171
-1.15826
-0.870541
-0.648316
-0.478617
-0.351213
-0.257224
-0.189079
-0.140284
-0.105498
-0.0805697
-0.0624337
-0.0489344
-0.0385929
-0.0304421
-0.0237923
-0.0178993
-0.0108369
-0.0103062
-0.0132349
-0.0159073
-0.0189061
-0.0227488
-0.0281371
-0.0361841
-0.0486176
-0.0710838
-0.164981
-0.270409
-0.328068
-0.360466
-0.401956
-0.44247
-0.476755
-0.501536
-0.515473
-0.515516
-0.501674
-0.476966
-0.442721
-0.402241
-0.360758
-0.328313
-0.270846
-0.166023
-0.0712732
-0.0487099
-0.0362618
-0.0282008
-0.0227938
-0.018939
-0.0159335
-0.0132558
-0.0103159
-0.0108278
-0.0178997
-0.0237914
-0.0304409
-0.0385916
-0.048933
-0.0624323
-0.0805681
-0.105496
-0.140281
-0.189076
-0.25722
-0.351209
-0.478614
-0.648313
-0.870539
-1.15826
-1.5317
-2.02676
-2.71789
-3.772
-5.58389
-9.12304
-16.8466
)
;
    }
    low
    {
        type            calculated;
        value           nonuniform List<scalar> 
84
(
-0.166259
-0.488584
-0.868565
-1.25369
-1.58729
-1.82616
-1.95472
-1.98645
-1.94434
-1.85312
-1.77387
-1.69022
-1.59142
-1.51545
-1.45264
-1.39066
-1.33718
-1.29693
-1.25279
-1.19879
-1.1536
-1.11311
-1.07108
-1.03044
-0.987641
-0.958979
-0.956693
-0.98478
-1.03402
-1.10224
-1.18269
-1.25918
-1.34377
-1.44133
-1.54406
-1.66098
-1.79343
-1.90621
-1.99135
-2.05815
-2.10701
-2.14351
-2.14352
-2.10702
-2.05816
-1.99136
-1.90623
-1.79345
-1.66101
-1.54405
-1.44135
-1.34376
-1.25917
-1.18268
-1.10223
-1.034
-0.984773
-0.956691
-0.958983
-0.987648
-1.03047
-1.07108
-1.11311
-1.15359
-1.19878
-1.25279
-1.29693
-1.33718
-1.39066
-1.45263
-1.51545
-1.59141
-1.69022
-1.77387
-1.85312
-1.94434
-1.98645
-1.95472
-1.82616
-1.58729
-1.25369
-0.868569
-0.488587
-0.16626
)
;
    }
    left
    {
        type            calculated;
        value           nonuniform List<scalar> 
19
(
-0.151961
-0.279667
-0.382689
-0.475344
-0.555757
-0.634956
-0.706941
-0.784411
-0.870319
-0.967678
-1.10575
-1.28226
-1.53851
-1.92312
-2.54835
-3.56125
-5.41832
-8.90308
-17.469
)
;
    }
    right
    {
        type            calculated;
        value           nonuniform List<scalar> 
19
(
-0.151963
-0.279669
-0.38269
-0.475344
-0.555757
-0.634956
-0.70694
-0.78441
-0.870318
-0.967678
-1.10575
-1.28226
-1.53851
-1.92313
-2.54835
-3.56126
-5.41832
-8.90309
-17.469
)
;
    }
    frontAndBackPlanes
    {
        type            empty;
    }
}


// ************************************************************************* //
