/*--------------------------------*- C++ -*----------------------------------*\
  =========                 |
  \\      /  F ield         | OpenFOAM: The Open Source CFD Toolbox
   \\    /   O peration     | Website:  https://openfoam.org
    \\  /    A nd           | Version:  7
     \\/     M anipulation  |
\*---------------------------------------------------------------------------*/
FoamFile
{
    version     2.0;
    format      ascii;
    class       volScalarField;
    location    "0.03";
    object      gradTz;
}
// * * * * * * * * * * * * * * * * * * * * * * * * * * * * * * * * * * * * * //

dimensions      [0 -1 0 1 0 0 0];

internalField   nonuniform List<scalar> 
1596
(
-4.83585e-16
-2.13869e-16
2.40078e-16
2.49893e-17
-4.09557e-16
0
-1.66967e-16
-1.65645e-16
-3.52488e-17
-9.90079e-17
3.4062e-20
-1.00922e-16
4.83954e-16
-1.0421e-16
4.68716e-16
4.15576e-16
2.50415e-16
3.32811e-16
0
4.59384e-16
0
5.18938e-16
-1.28795e-17
-1.19068e-16
1.19855e-16
3.10366e-16
3.30214e-17
1.36993e-16
-6.85821e-17
1.38759e-16
3.14527e-19
-1.89283e-16
-1.20834e-16
-3.74763e-16
-3.77704e-16
-3.53704e-16
2.11451e-16
0
-1.96334e-16
0
-2.84876e-16
1.88191e-17
1.90437e-16
-8.92358e-17
1.90106e-17
-6.50268e-19
-2.3337e-19
3.42418e-20
2.49019e-17
0
9.77291e-17
2.50203e-16
-2.52405e-17
2.45525e-17
5.4296e-17
1.08793e-16
0
3.48157e-16
-6.83439e-17
6.80944e-17
0
-5.36538e-17
-6.09093e-17
7.19719e-17
-3.93163e-17
0
0
-4.49162e-17
1.32122e-17
0
-6.44741e-17
-6.325e-17
5.00529e-17
-7.94693e-17
-3.81117e-18
0
6.50996e-17
1.19006e-16
-6.74507e-17
0
-1.06356e-17
-3.76011e-17
0
4.7576e-17
-3.62392e-18
-3.46066e-18
-1.96562e-17
1.79217e-17
2.65344e-17
4.15209e-18
1.86514e-17
-5.38187e-17
2.40832e-18
2.60111e-17
-1.44476e-17
-1.69053e-17
-1.56557e-16
1.05338e-16
-6.22074e-17
-5.65564e-19
-2.43466e-17
5.49031e-19
-5.50854e-19
-1.10788e-17
0
-1.10067e-17
-2.22702e-17
-2.3439e-17
1.25815e-17
2.71307e-17
-3.04543e-19
-1.56131e-17
-2.63827e-17
2.28829e-17
1.41281e-16
-1.6497e-16
1.2623e-16
4.28871e-17
0
1.97861e-17
7.2624e-18
-2.8943e-18
1.32966e-17
-1.88085e-18
-1.16889e-17
-1.81699e-20
-4.50021e-18
-1.25634e-17
-6.4541e-18
7.13991e-18
1.57505e-17
-2.40735e-19
-8.03054e-18
4.0594e-17
2.77828e-16
-2.23255e-16
0
0
-2.11237e-17
0
0
0
2.91567e-18
0
0
4.628e-18
-5.51744e-20
4.07865e-18
-6.62236e-18
0
3.52016e-18
2.21507e-18
0
-1.54345e-16
2.70344e-16
0
0
2.17544e-17
0
-2.33179e-18
2.32943e-18
-2.96773e-18
8.05652e-19
-8.11544e-19
0
1.1158e-18
2.87524e-18
0
-1.50534e-18
-3.57011e-18
-2.04942e-18
5.50893e-16
-2.32021e-16
0
-6.14507e-17
6.0763e-17
0
1.24481e-17
0
0
0
4.26819e-19
-4.28865e-19
0
-9.37316e-19
-1.69602e-19
0
8.81905e-19
6.17776e-19
0
-1.39962e-16
0
0
6.48032e-17
-1.00257e-16
1.68411e-17
6.51329e-18
-2.26626e-18
1.19209e-18
2.17507e-19
-5.11916e-19
-3.54896e-19
0
1.94937e-19
-6.87102e-20
6.97415e-20
5.34894e-19
-5.39764e-19
-1.84271e-19
6.48987e-17
-3.65781e-17
6.88484e-17
1.54062e-16
-2.84526e-17
-3.78544e-17
0
0
0
1.34018e-18
2.22905e-19
5.15315e-19
-1.15008e-19
-1.9145e-19
-4.9472e-20
-5.30001e-20
2.73905e-20
-8.67301e-20
1.66339e-19
-1.04659e-16
1.07464e-16
-1.67872e-16
-1.53542e-16
1.17398e-16
2.06756e-17
-3.06786e-17
1.50362e-17
-6.98863e-18
1.68787e-18
4.69915e-19
-1.76107e-19
1.5761e-20
-2.67857e-20
1.00302e-19
0
-9.61436e-21
1.13726e-19
-2.0068e-20
-8.36546e-16
3.36263e-16
-2.35329e-19
-2.52672e-17
1.69018e-17
2.03392e-17
-3.35585e-17
-6.4751e-18
2.93384e-18
-1.2628e-18
-5.2736e-19
0
-1.57196e-19
-3.38066e-20
-2.36218e-20
-1.03452e-20
3.9634e-22
-3.07525e-20
1.29001e-20
1.36273e-16
-9.71846e-17
-7.79136e-19
-4.09834e-17
-5.99987e-17
4.87893e-17
4.37713e-19
6.30998e-18
-2.85648e-18
2.39374e-18
3.37338e-19
1.74353e-19
1.61372e-19
0
3.65535e-20
1.18336e-20
0
8.20002e-21
4.14449e-21
0
9.42804e-17
3.8803e-17
-9.96807e-17
5.6979e-17
-6.42243e-17
3.01875e-17
4.14629e-18
-2.27085e-18
-2.93373e-18
1.55334e-19
-1.54568e-19
-1.36996e-19
2.43716e-20
-8.57163e-21
-9.74465e-21
1.8786e-21
-1.09504e-21
1.87823e-21
-1.25542e-16
2.97242e-16
-2.32987e-16
6.96218e-17
0
0
-2.80876e-18
7.81145e-18
-1.58269e-18
2.43008e-18
0
0
8.0683e-20
-4.28031e-20
-9.97913e-21
2.81079e-21
-1.55928e-21
8.00001e-22
0
3.42584e-17
1.17982e-16
-5.49799e-17
-3.52205e-17
-2.7813e-17
4.17751e-18
9.09758e-18
0
-1.31625e-18
-2.33331e-19
2.7636e-19
-1.05293e-19
3.91348e-20
0
4.87415e-21
3.98477e-21
0
0
0
-3.40358e-17
9.70973e-17
1.74604e-18
-1.09505e-16
1.54282e-17
8.73112e-18
0
0
1.06353e-18
-6.48388e-19
-2.67301e-19
1.01838e-19
-3.78463e-20
0
-1.45194e-21
9.06368e-22
0
-1.77272e-22
-5.31867e-23
-7.49423e-17
2.26022e-16
-2.09418e-16
-4.05099e-17
2.51619e-17
-6.475e-18
2.96422e-18
0
-5.24712e-19
2.63221e-19
0
0
7.87338e-21
-7.88245e-21
4.88011e-22
-9.08242e-22
2.98844e-22
7.50557e-23
4.07194e-23
5.0712e-17
-3.3511e-17
1.06669e-16
-6.35725e-17
-1.10949e-17
3.12479e-18
7.67464e-18
9.68491e-19
5.02071e-19
0
4.23686e-20
-3.84665e-20
1.38008e-20
-5.26791e-21
1.51902e-21
-1.43591e-21
-1.99303e-22
1.21906e-22
1.67936e-23
1.11093e-16
-1.24895e-16
0
2.97923e-17
-1.88909e-17
-4.99489e-18
5.69575e-19
-3.68789e-18
0
-1.95927e-20
-7.92811e-20
-1.81825e-20
9.63258e-21
-1.9873e-21
-1.46811e-21
4.98648e-22
0
3.38331e-23
-1.63064e-23
2.5536e-16
-2.8525e-17
6.61413e-17
-4.96501e-17
7.88456e-18
-4.91223e-18
-4.99524e-18
-3.9575e-19
5.40277e-19
-5.05772e-20
-3.94992e-20
2.38947e-20
-6.02126e-21
-2.06326e-21
0
0
0
-3.38099e-23
9.18478e-25
-1.80545e-16
1.6398e-16
-4.84908e-19
7.23306e-18
3.5717e-18
-3.43913e-18
2.62178e-18
-9.92461e-19
3.92743e-19
-3.13848e-20
5.23045e-20
4.5766e-21
-9.36926e-22
3.22885e-23
1.86459e-23
-4.85881e-23
0
0
0
0
0
2.93415e-17
-3.11163e-17
-2.49729e-17
0
0
-1.95611e-19
-1.47852e-19
4.63262e-20
0
-5.77193e-21
1.91037e-21
-2.12189e-21
2.02926e-21
-1.79008e-22
1.89123e-22
9.08047e-24
0
-3.40058e-17
3.44243e-17
0
-7.98585e-18
5.81974e-18
4.97546e-18
0
1.97479e-19
3.58116e-20
-2.84484e-19
0
-5.24677e-21
1.74074e-21
6.06545e-22
-2.12308e-22
1.56941e-22
0
-2.18672e-23
0
-1.76624e-17
-1.1514e-17
7.0562e-19
8.20526e-18
-1.17055e-17
0
-7.23195e-19
0
3.39084e-19
5.05495e-20
0
1.85396e-20
-1.14859e-20
1.63236e-21
4.63916e-23
3.10837e-22
2.52971e-22
4.72175e-23
-3.75739e-23
0
3.04274e-17
-1.4021e-17
1.60364e-17
7.75108e-18
0
1.33933e-18
-9.69594e-19
-1.97098e-19
9.5661e-20
-1.29378e-19
-1.56376e-20
0
0
2.17597e-22
0
0
1.61481e-23
0
-1.65889e-16
1.33194e-16
0
3.61872e-18
-3.09736e-18
-1.22876e-19
1.51787e-18
1.52162e-19
-5.45314e-19
-3.21582e-19
1.66923e-19
-4.34249e-20
0
-1.40342e-21
0
0
0
-6.15834e-23
4.89464e-23
-5.41353e-17
3.76267e-17
6.34237e-17
-5.23091e-17
9.65636e-18
1.50907e-18
-1.51014e-18
6.27334e-19
4.87881e-19
1.47088e-19
-2.63189e-19
0
9.59206e-21
-6.16156e-21
-1.63726e-21
-2.41444e-23
-5.35226e-23
-5.00822e-23
3.08461e-24
-2.09812e-16
1.82355e-16
-1.67996e-16
1.79228e-17
8.73273e-18
-6.5416e-18
3.55858e-18
-1.13983e-18
0
-2.66845e-19
1.20319e-19
4.3402e-20
3.25782e-20
7.31669e-21
-8.81134e-21
-6.83296e-22
0
5.25835e-23
-4.43787e-23
-2.26068e-16
-4.62239e-17
-5.2008e-17
3.32686e-17
-2.4191e-17
1.24891e-17
-5.7915e-18
2.13949e-18
-4.31858e-19
-3.02407e-19
-2.12995e-19
1.7413e-19
4.85531e-21
2.35297e-20
-2.52594e-20
-1.44986e-21
5.32162e-22
0
1.71754e-22
2.44429e-16
-5.261e-17
0
0
-2.56629e-17
4.21885e-17
-6.92061e-18
-4.81711e-19
2.55114e-18
-1.64096e-19
0
0
-4.43552e-20
0
-2.95942e-20
4.47968e-20
-2.35415e-20
0
-1.41368e-22
7.50565e-17
1.14462e-16
0
-2.94294e-17
-1.22676e-17
-3.12451e-18
-7.43891e-18
1.4527e-18
-3.05668e-18
-6.17617e-19
0
0
2.00841e-19
0
0
-5.98247e-20
1.15804e-19
0
0
5.18401e-16
-9.91149e-17
-2.32421e-16
-7.28947e-17
1.02714e-16
1.89171e-17
7.21295e-18
0
-1.03136e-18
6.12821e-19
1.23973e-18
-3.16e-19
-1.76239e-19
1.89833e-19
-2.01924e-19
-2.49004e-20
0
0
0
4.14265e-17
-2.5276e-16
2.4197e-16
-1.64881e-17
-8.39623e-17
1.12283e-16
-4.64225e-17
0
0
5.43652e-18
-3.78835e-18
0
-3.18653e-19
6.21967e-19
-1.95689e-20
9.81131e-20
2.16076e-20
6.49712e-22
3.13939e-21
0
0
0
1.3144e-16
-9.08593e-17
4.99187e-17
-7.05055e-17
1.5701e-17
0
-2.11973e-18
1.9341e-18
-1.97676e-18
-1.89371e-19
2.68517e-20
-6.42298e-20
-4.53772e-21
-4.09738e-20
-1.14414e-20
-5.4776e-21
3.24778e-16
-5.31311e-16
2.28428e-16
0
2.81953e-17
-4.01743e-17
2.19158e-17
-1.69292e-17
0
-2.66535e-18
3.89536e-18
0
0
2.87107e-20
0
-7.91178e-20
5.0163e-20
2.8335e-21
9.46408e-21
3.64726e-16
0
-8.56e-17
9.44815e-17
-3.53778e-17
6.95323e-17
-2.78308e-17
-1.13245e-17
1.14427e-17
-6.93708e-19
0
0
1.62578e-19
-1.75829e-19
-9.55333e-20
1.66338e-19
-3.27458e-20
1.23021e-20
0
2.05426e-16
1.18072e-16
-2.42596e-17
-9.14296e-17
-6.34907e-18
-3.09931e-17
1.01231e-17
1.8954e-17
-5.95924e-19
7.06734e-19
0
0
-1.66551e-19
0
1.14349e-19
-1.22326e-19
0
1.19831e-20
-3.12423e-21
-1.08675e-16
-5.94553e-17
5.60367e-17
-4.61223e-18
-1.62722e-18
3.32372e-18
0
-4.82777e-19
4.56371e-18
-3.82232e-18
0
4.85943e-19
-1.97265e-19
-3.22251e-19
-2.07151e-20
-1.36058e-20
0
-9.54443e-21
0
3.89415e-17
-6.85983e-17
4.3749e-18
2.20523e-17
1.26328e-17
-1.21834e-17
-4.9194e-18
5.46836e-18
-1.0086e-18
8.32667e-19
-4.0121e-19
4.13584e-19
0
5.0652e-22
-1.36845e-20
5.05895e-20
-1.4511e-22
0
0
3.8943e-17
-3.87971e-17
-2.19279e-17
1.97313e-17
2.19986e-17
-2.21284e-17
-2.45993e-18
2.46871e-18
-1.01852e-18
1.02856e-18
-4.01271e-19
6.6675e-19
-1.82485e-19
-8.50726e-20
-1.6818e-20
7.31735e-21
1.1594e-20
2.69431e-21
-1.98664e-21
0
-8.47889e-18
3.75472e-17
-4.16158e-17
2.18287e-17
-1.97362e-17
0
6.24944e-18
-5.72704e-18
0
7.75671e-19
-9.46453e-19
-3.07643e-19
3.22429e-19
3.86212e-20
0
0
-9.55426e-21
3.3557e-21
1.54677e-16
-2.63587e-16
2.23363e-16
-1.58139e-16
5.57422e-17
-2.66989e-17
2.61033e-17
1.81739e-18
-4.37292e-18
3.82626e-18
0
-1.02061e-18
9.30106e-19
-1.04551e-19
-3.78295e-20
4.31278e-20
2.7601e-20
9.27536e-21
-3.24237e-21
4.07928e-16
0
-9.80929e-17
7.66789e-17
6.27733e-18
-3.20182e-17
4.85767e-17
-3.11846e-17
1.039e-17
-2.1403e-18
2.19078e-18
2.63094e-19
2.87038e-19
1.01834e-19
-5.53331e-20
-1.19603e-20
-5.94203e-20
0
4.18562e-21
2.82164e-16
-3.17784e-16
0
1.75867e-17
5.20718e-17
-4.81171e-17
5.07724e-18
3.16658e-18
1.03771e-18
1.14987e-18
0
0
-4.46274e-19
6.66823e-19
-2.06167e-19
-4.59095e-20
5.02632e-20
3.19098e-21
-7.56577e-21
7.82879e-17
2.81287e-16
-2.38849e-17
-1.14623e-16
1.02374e-16
7.76527e-18
-4.969e-18
-3.09281e-18
5.70525e-18
-6.86846e-18
1.93708e-18
-1.97979e-18
9.54202e-20
-2.27529e-19
1.77645e-19
-1.1993e-19
0
0
3.82991e-21
0
6.34397e-17
-1.35763e-16
1.58111e-16
-7.28689e-17
7.26954e-17
0
8.57353e-18
-8.61282e-18
-2.8387e-18
3.79672e-18
0
5.01522e-19
-6.23605e-19
-6.13216e-20
0
-3.16257e-21
-3.13552e-21
-1.6263e-21
-7.17191e-16
3.0998e-16
0
-1.02757e-16
1.02747e-16
3.30854e-17
-2.10481e-17
4.13931e-18
0
-7.08348e-20
1.01021e-19
-3.16413e-19
-1.76609e-19
1.9024e-19
-2.02288e-19
0
1.26932e-20
1.73817e-21
-2.19218e-21
4.13074e-16
-3.80526e-16
0
2.72822e-17
1.73712e-17
-1.23244e-17
0
-4.33803e-18
-1.76014e-18
0
-2.68107e-19
0
2.01616e-19
0
0
1.18438e-20
2.9486e-20
-4.57077e-20
0
-3.85981e-19
5.26449e-17
-3.56138e-17
1.37054e-17
-7.92842e-17
2.40835e-17
0
4.83011e-19
1.1225e-18
0
-4.1191e-19
3.88279e-19
-4.0791e-19
1.85599e-20
0
-7.8918e-21
0
0
0
-3.56299e-19
0
3.29161e-17
0
-1.86443e-17
1.89407e-17
0
1.48341e-18
-5.79046e-19
1.39105e-18
-5.24959e-19
4.74574e-20
-3.57417e-20
6.87666e-21
-2.54468e-20
-2.3181e-21
0
2.17767e-22
0
1.42105e-16
-2.44488e-16
0
-1.62055e-17
8.91979e-18
0
0
-2.33913e-18
0
-2.67804e-19
-1.20829e-19
-4.36178e-20
3.27694e-20
0
9.96672e-22
0
0
-3.43311e-22
2.35414e-22
0
1.6298e-16
-1.25605e-16
1.50026e-17
-8.25978e-18
-1.3621e-18
2.89732e-18
1.52603e-18
-6.90303e-19
2.0577e-19
5.05537e-20
-1.33005e-20
4.39686e-20
-9.24656e-21
-3.87e-21
4.27064e-22
9.96614e-24
-5.23389e-23
-8.69933e-24
-3.9325e-16
1.34097e-16
0
0
2.16775e-18
-2.20436e-18
7.03827e-20
-2.69338e-19
4.19637e-19
8.04769e-20
-5.92578e-20
-8.22373e-21
-2.85477e-21
1.40842e-21
0
6.3903e-23
-9.1347e-24
1.73416e-23
7.86296e-24
0
8.60973e-17
-5.67353e-17
1.42381e-17
5.29713e-18
-8.62226e-19
-9.81002e-19
-3.82329e-19
-4.76037e-19
6.5083e-20
6.99684e-22
2.16872e-20
2.66956e-21
-8.02839e-22
8.52164e-22
1.58311e-22
-1.9873e-22
-1.60175e-23
0
-2.49111e-17
-7.39792e-17
1.62254e-17
8.21106e-18
-1.35031e-17
7.21638e-18
8.72144e-19
-8.91465e-19
1.87384e-19
-6.1767e-20
0
0
-2.32202e-21
3.23188e-21
-8.46704e-22
2.35089e-22
-2.54816e-22
2.18788e-23
-3.83311e-23
4.14722e-17
2.7333e-17
-1.51222e-17
3.14013e-18
-7.65368e-18
-2.93584e-18
0
0
0
0
0
0
1.78099e-21
-1.61878e-21
1.71204e-21
-1.39045e-22
1.98265e-22
3.82573e-23
-3.00986e-23
9.69186e-17
-8.25691e-17
9.85417e-17
-1.37938e-17
2.15797e-17
-3.7799e-18
5.24862e-18
-1.66148e-18
-1.80655e-19
1.84802e-19
0
5.76467e-21
-1.73993e-21
1.53083e-21
-1.09108e-21
-4.44138e-22
-2.74238e-22
3.09953e-23
2.14659e-23
1.5657e-16
2.69833e-17
0
-1.49407e-17
-4.65791e-18
7.84772e-18
-5.42893e-19
-8.07941e-19
2.64701e-19
-6.08474e-20
0
-4.56339e-21
0
-8.98224e-22
4.05568e-22
-1.53073e-22
-3.17861e-23
7.25872e-24
0
2.10496e-16
-2.85243e-17
6.70637e-17
-5.0504e-17
-4.36009e-18
7.00974e-18
-3.96279e-18
2.80343e-19
1.34679e-19
-8.34964e-20
5.18574e-20
0
0
1.74106e-21
-2.40644e-23
1.03784e-23
1.08265e-22
-2.70892e-23
0
-2.09238e-19
0
-1.79169e-17
6.00901e-17
-3.54216e-17
-1.36056e-17
6.9279e-18
-1.82973e-18
1.38649e-18
2.38678e-19
-7.95369e-20
1.99138e-20
-9.82019e-21
1.841e-21
2.59225e-21
-1.39172e-22
-1.63551e-22
9.53138e-23
-1.80481e-23
4.58553e-16
-1.33492e-16
2.21602e-17
-8.55195e-17
1.10949e-17
-9.20417e-18
5.86726e-18
0
0
-3.02864e-20
-6.1721e-20
-8.0321e-21
0
-4.45978e-21
-1.51908e-21
5.15263e-22
-1.85276e-23
6.02818e-23
4.58043e-23
0
-1.10787e-16
1.1709e-16
-3.59247e-18
-5.46e-17
6.47497e-18
-4.66159e-18
2.60194e-18
1.98935e-18
0
0
5.96027e-21
2.20287e-20
0
-3.04691e-21
-6.62219e-22
1.12604e-22
-4.40256e-23
-8.13411e-23
0
-5.21728e-17
4.74383e-17
8.08865e-17
2.3084e-17
-3.64644e-17
1.20825e-17
-2.53537e-18
1.68015e-18
-6.77517e-19
0
0
0
-1.38364e-20
5.29494e-23
-1.45926e-21
0
-1.75003e-23
7.10025e-23
-3.25508e-16
2.85208e-16
1.74269e-16
-2.0291e-16
4.52803e-17
-3.73889e-17
0
3.07227e-18
-3.49894e-18
1.16752e-18
-3.35231e-19
1.30075e-19
4.92713e-20
1.43099e-20
5.24182e-21
0
0
0
0
4.13606e-16
-1.77563e-16
0
0
-2.08498e-17
2.66244e-17
-1.60114e-17
-3.63445e-18
3.59348e-18
8.6608e-19
7.51957e-19
-1.34966e-19
2.95753e-20
4.16147e-21
2.7965e-21
9.88891e-22
1.80663e-21
-6.02706e-23
6.13911e-23
-3.96769e-16
3.15817e-16
1.01551e-16
-6.06185e-17
5.60648e-17
-3.38743e-17
-1.23659e-17
-5.8802e-18
0
-1.89362e-18
3.42111e-19
1.86022e-19
-6.36957e-20
-2.43743e-20
-3.78747e-21
-9.94374e-22
-1.00677e-21
0
0
-1.36029e-16
0
6.54539e-17
7.14707e-19
0
0
1.27558e-17
6.06753e-18
0
1.1653e-18
0
-2.62546e-19
-1.54051e-20
3.68726e-20
0
1.11739e-20
-1.12956e-21
1.1523e-21
0
3.16324e-16
0
1.10295e-16
-1.75137e-16
1.15035e-16
4.70945e-17
-6.41732e-18
0
8.34064e-19
2.10894e-18
0
-3.09576e-19
2.00549e-19
-1.07757e-19
-1.6268e-20
-8.0566e-21
-3.58677e-21
-1.37728e-21
-1.787e-20
-2.4657e-16
3.42641e-16
-6.85304e-17
-1.28142e-16
-5.01676e-17
-2.73804e-17
-2.75845e-17
-4.85357e-18
1.76402e-18
4.7081e-19
-4.69925e-19
5.0388e-19
-1.39452e-19
1.70437e-19
-2.71015e-20
0
7.35125e-20
-7.31651e-20
1.56891e-20
6.50536e-16
-3.22431e-17
-3.04031e-16
1.54064e-16
-1.0503e-16
5.81625e-17
-6.16857e-18
-6.35339e-18
2.93677e-18
4.81187e-19
-2.58158e-19
-4.95535e-19
7.1635e-20
1.70715e-19
-2.59534e-20
2.62495e-20
-7.61411e-20
-1.48794e-19
-1.53319e-19
3.19355e-16
1.003e-16
1.33717e-16
-8.02507e-17
-3.632e-17
1.13702e-17
-9.51301e-18
1.9584e-17
1.15144e-18
2.50976e-18
8.2899e-19
-5.71294e-19
0
-1.94854e-19
0
0
6.1575e-19
1.88876e-19
1.66099e-19
2.73303e-16
0
1.2494e-16
7.97327e-17
-4.30513e-17
2.4578e-17
0
-6.05938e-18
-4.94691e-18
-2.58267e-18
-8.36328e-19
5.77753e-19
0
0
0
0
-5.91003e-19
-1.49734e-18
0
-5.3353e-16
0
-2.60666e-17
-2.51637e-17
6.6925e-17
-1.43868e-17
-3.2736e-18
-4.14732e-18
4.86742e-18
0
8.05598e-19
-5.43598e-20
1.70849e-18
0
0
3.18813e-18
-2.63273e-19
1.81148e-18
-2.16256e-18
3.57558e-16
7.1547e-17
-7.08085e-17
-4.24716e-17
-7.95213e-17
3.57272e-17
2.39976e-17
-2.00816e-18
-3.96756e-18
5.48441e-18
8.32493e-19
-6.11698e-18
-3.33288e-18
-5.00413e-18
-5.97769e-18
-3.7456e-18
8.03231e-18
-3.12788e-19
2.21491e-18
-9.92645e-17
3.34414e-17
-1.36939e-16
1.23995e-17
-1.23544e-17
0
-1.23181e-17
-4.89925e-18
-1.14233e-17
5.45512e-18
1.16888e-17
5.20118e-18
-1.8909e-18
-4.69796e-18
5.37293e-18
0
-2.34971e-17
-1.42714e-17
-2.54531e-19
2.28063e-16
-3.9879e-18
2.06523e-16
-6.8202e-17
5.65564e-19
1.0159e-18
2.566e-17
-1.00982e-17
1.10787e-17
-1.05098e-17
-1.05183e-17
0
2.34393e-17
1.23118e-17
2.94114e-19
-4.59568e-19
1.57758e-17
1.44665e-17
0
-1.54458e-16
0
-1.06628e-17
7.1054e-17
3.95628e-18
1.06498e-17
-2.48128e-17
2.19577e-17
3.97558e-17
3.97302e-17
4.05192e-17
0
-2.27709e-17
0
2.21837e-18
-2.30398e-18
0
-3.89206e-19
2.46973e-17
1.27496e-16
2.54721e-17
-3.8756e-17
1.39397e-16
-3.81499e-17
0
0
-7.00999e-17
-3.85193e-17
-3.84897e-17
-9.73776e-17
-1.32122e-17
0
0
0
-7.75755e-18
8.20943e-18
7.22018e-17
-2.51675e-17
3.07003e-17
0
-1.26923e-16
-8.01246e-17
1.07376e-16
-1.18378e-16
-1.5883e-16
1.55358e-16
6.98955e-17
0
6.8931e-17
1.17865e-16
-2.35012e-17
1.49282e-16
-2.49669e-17
2.59844e-17
1.26337e-16
-6.86717e-17
0
-2.35348e-16
0
-1.97087e-16
1.84898e-16
0
2.55819e-16
1.10331e-16
-2.74315e-16
2.6462e-16
-4.52612e-21
-6.92844e-17
-1.14118e-16
0
2.44268e-16
-3.74762e-16
4.14273e-16
-5.30696e-16
0
0
2.41462e-16
-8.59267e-18
-1.91532e-17
-4.13927e-16
4.41074e-16
-2.00075e-16
1.99259e-16
1.97632e-16
-1.30196e-16
0
0
3.74803e-16
-3.8126e-16
-3.52261e-16
3.60888e-16
-3.63204e-16
4.05398e-16
-6.52943e-16
0
)
;

boundaryField
{
    up
    {
        type            calculated;
        value           nonuniform List<scalar> 
84
(
0
0
0
0
-1.44476e-17
2.28829e-17
-8.03054e-18
2.21507e-18
-2.04942e-18
0
-1.84271e-19
1.66339e-19
-2.0068e-20
1.29001e-20
4.14449e-21
1.87823e-21
0
0
-5.31867e-23
4.07194e-23
1.67936e-23
-1.63064e-23
9.18478e-25
0
6.10103e-24
6.09662e-24
-3.1534e-23
0
4.89464e-23
-4.38835e-23
-4.43787e-23
1.71754e-22
-1.41368e-22
0
2.00462e-21
2.80411e-21
-4.9918e-21
8.90888e-21
0
-2.82316e-21
0
0
-1.91481e-21
3.3557e-21
-3.24237e-21
4.18562e-21
-7.56577e-21
3.82991e-21
-1.6263e-21
-2.19218e-21
0
0
0
2.35414e-22
4.68862e-23
7.86296e-24
0
-3.83311e-23
-3.00986e-23
1.53916e-23
0
0
-1.80481e-23
4.58043e-23
-8.13411e-23
7.10025e-23
0
6.13911e-23
0
0
-1.787e-20
1.56891e-20
-1.53319e-19
1.66099e-19
0
-2.16256e-18
2.21491e-18
-2.54531e-19
0
2.46973e-17
-2.51675e-17
0
0
0
)
;
    }
    low
    {
        type            calculated;
        value           nonuniform List<scalar> 
84
(
-4.85848e-16
4.59384e-16
-1.92314e-16
3.50962e-16
6.67435e-17
-1.73315e-17
1.44511e-16
4.35006e-17
0
5.54671e-16
-1.39962e-16
6.18803e-17
-1.04659e-16
-8.38608e-16
1.36273e-16
0
-1.25542e-16
3.42584e-17
-3.40358e-17
-7.49423e-17
5.0712e-17
1.11093e-16
2.55631e-16
-1.80545e-16
0
-3.40058e-17
-1.76624e-17
0
-1.65889e-16
-5.41353e-17
-2.10389e-16
-2.26965e-16
2.45653e-16
7.50565e-17
5.2023e-16
4.14265e-17
0
3.24778e-16
3.67792e-16
2.06986e-16
-1.0947e-16
3.89415e-17
3.8943e-17
0
1.54677e-16
4.10994e-16
2.82164e-16
8.10662e-17
0
-7.19018e-16
4.13074e-16
-3.85981e-19
-3.56299e-19
1.42105e-16
0
-3.92394e-16
0
-2.49111e-17
4.14722e-17
9.64273e-17
1.5645e-16
2.10767e-16
-2.09238e-19
4.59424e-16
0
0
-3.25508e-16
4.15143e-16
-3.985e-16
-1.36029e-16
3.18386e-16
-2.4657e-16
6.56573e-16
3.2273e-16
2.73303e-16
-5.3353e-16
3.54651e-16
-9.60342e-17
2.28063e-16
-1.52815e-16
1.27496e-16
3.47209e-17
-2.35348e-16
2.42594e-16
)
;
    }
    left
    {
        type            calculated;
        value           nonuniform List<scalar> 
19
(
-4.83585e-16
-2.13788e-16
2.40078e-16
2.68062e-17
-4.11944e-16
0
-1.66967e-16
-1.65645e-16
-3.83785e-17
-9.90079e-17
3.4062e-20
-1.00922e-16
4.91309e-16
-1.0421e-16
4.68716e-16
4.15576e-16
2.50415e-16
3.84269e-16
0
)
;
    }
    right
    {
        type            calculated;
        value           nonuniform List<scalar> 
19
(
2.41462e-16
-8.67395e-18
-1.91532e-17
-4.15744e-16
4.4346e-16
-2.00075e-16
1.99259e-16
1.97632e-16
-1.27067e-16
0
0
3.8175e-16
-3.88615e-16
-3.52261e-16
3.60888e-16
-3.63204e-16
4.05398e-16
-7.04401e-16
0
)
;
    }
    frontAndBackPlanes
    {
        type            empty;
    }
}


// ************************************************************************* //
