/*--------------------------------*- C++ -*----------------------------------*\
  =========                 |
  \\      /  F ield         | OpenFOAM: The Open Source CFD Toolbox
   \\    /   O peration     | Website:  https://openfoam.org
    \\  /    A nd           | Version:  7
     \\/     M anipulation  |
\*---------------------------------------------------------------------------*/
FoamFile
{
    version     2.0;
    format      ascii;
    class       volScalarField;
    location    "0.38";
    object      gradTx;
}
// * * * * * * * * * * * * * * * * * * * * * * * * * * * * * * * * * * * * * //

dimensions      [0 -1 0 1 0 0 0];

internalField   nonuniform List<scalar> 
1596
(
-0.0684428
-0.344591
-0.621166
-0.877748
-1.1151
-1.33424
-1.54504
-1.75362
-1.96773
-2.20273
-2.46175
-2.76319
-3.12998
-3.5977
-4.21006
-5.08172
-6.39243
-8.53173
-12.3047
0.0151944
-0.286679
-0.557753
-0.797653
-1.01372
-1.20829
-1.39006
-1.56195
-1.72955
-1.90031
-2.07364
-2.25863
-2.45711
-2.67282
-2.89867
-3.12376
-3.29637
-3.31303
-2.95576
0.083748
-0.234568
-0.496201
-0.717477
-0.910769
-1.08038
-1.23367
-1.37245
-1.50028
-1.62082
-1.7321
-1.83827
-1.93591
-2.02164
-2.08468
-2.10775
-2.04877
-1.83565
-1.32911
0.0945799
-0.20764
-0.446903
-0.644475
-0.81328
-0.958385
-1.0855
-1.19603
-1.29213
-1.37544
-1.44414
-1.49976
-1.5384
-1.55563
-1.54276
-1.48577
-1.35699
-1.11228
-0.667886
0.0276492
-0.218289
-0.418749
-0.586044
-0.728411
-0.849673
-0.95335
-1.04046
-1.11215
-1.16882
-1.20936
-1.23388
-1.23936
-1.222
-1.17598
-1.09131
-0.951161
-0.729589
-0.377695
-0.111526
-0.270884
-0.41796
-0.548388
-0.662136
-0.759863
-0.842373
-0.909967
-0.96284
-1.00056
-1.02267
-1.02844
-1.01583
-0.981947
-0.923237
-0.832768
-0.700708
-0.511856
-0.23789
-0.29667
-0.36086
-0.446526
-0.535143
-0.6182
-0.692179
-0.754937
-0.805603
-0.843403
-0.867201
-0.876868
-0.871173
-0.848811
-0.80762
-0.745569
-0.657839
-0.538825
-0.379556
-0.163548
-0.490407
-0.471193
-0.496882
-0.542698
-0.594439
-0.644755
-0.688814
-0.724306
-0.749458
-0.762492
-0.763279
-0.750279
-0.722617
-0.678659
-0.617319
-0.535213
-0.429242
-0.294085
-0.120102
-0.690324
-0.611757
-0.58409
-0.587074
-0.605691
-0.630399
-0.654451
-0.674092
-0.686561
-0.689435
-0.682275
-0.663311
-0.631807
-0.586437
-0.526622
-0.449938
-0.354708
-0.237742
-0.0932847
-0.808887
-0.708118
-0.648693
-0.620832
-0.613259
-0.616749
-0.624024
-0.630424
-0.632503
-0.627378
-0.614229
-0.591181
-0.557525
-0.512167
-0.454831
-0.383809
-0.298294
-0.196459
-0.0748739
-0.904007
-0.793813
-0.715404
-0.664944
-0.635624
-0.620036
-0.611514
-0.605127
-0.597074
-0.584178
-0.565228
-0.538267
-0.502524
-0.457029
-0.401635
-0.33512
-0.257176
-0.166832
-0.0621129
-0.999518
-0.888652
-0.798752
-0.730927
-0.682474
-0.648472
-0.623652
-0.603441
-0.584056
-0.562209
-0.536364
-0.504486
-0.465673
-0.418981
-0.364275
-0.300626
-0.227988
-0.145892
-0.053219
-1.02119
-0.925486
-0.838018
-0.764931
-0.707183
-0.662396
-0.627001
-0.597236
-0.569717
-0.541317
-0.510389
-0.474942
-0.434019
-0.386735
-0.332988
-0.27209
-0.204174
-0.129113
-0.0463158
-1.02172
-0.942638
-0.863221
-0.790869
-0.728973
-0.67741
-0.63431
-0.596971
-0.562627
-0.528492
-0.492965
-0.45415
-0.411081
-0.362927
-0.309607
-0.250617
-0.186202
-0.116466
-0.041172
-1.01327
-0.949322
-0.87987
-0.811705
-0.749219
-0.693907
-0.645395
-0.602096
-0.561995
-0.522773
-0.482998
-0.440921
-0.395597
-0.346248
-0.292812
-0.234928
-0.17293
-0.107075
-0.0373546
-0.981603
-0.933646
-0.876067
-0.8154
-0.756274
-0.701114
-0.650632
-0.604231
-0.56065
-0.51809
-0.475388
-0.430986
-0.384002
-0.333725
-0.280133
-0.223007
-0.162788
-0.0998788
-0.0344346
-0.926594
-0.893538
-0.84869
-0.797815
-0.745298
-0.693923
-0.64504
-0.598781
-0.554523
-0.510961
-0.467226
-0.421973
-0.374403
-0.323874
-0.270407
-0.21393
-0.15504
-0.0943452
-0.0321862
-0.864066
-0.840427
-0.806641
-0.765805
-0.721322
-0.675822
-0.630912
-0.587174
-0.544457
-0.501867
-0.458796
-0.414088
-0.367012
-0.316951
-0.263922
-0.20796
-0.149848
-0.0904931
-0.0305562
-0.811743
-0.795878
-0.770813
-0.738378
-0.700999
-0.660965
-0.61997
-0.578909
-0.538017
-0.496751
-0.454732
-0.410958
-0.364713
-0.315327
-0.262683
-0.206768
-0.148462
-0.0890436
-0.0297164
-0.72568
-0.719604
-0.70413
-0.681486
-0.653532
-0.622063
-0.588558
-0.55393
-0.518561
-0.482102
-0.444302
-0.404267
-0.361283
-0.314588
-0.263849
-0.208816
-0.150255
-0.0897863
-0.0295602
-0.63256
-0.634318
-0.627534
-0.614141
-0.595613
-0.573326
-0.54846
-0.521814
-0.493768
-0.464034
-0.432381
-0.397948
-0.359992
-0.317646
-0.270267
-0.217106
-0.15828
-0.0951513
-0.030932
-0.537101
-0.544204
-0.544844
-0.540023
-0.530697
-0.517836
-0.502312
-0.484749
-0.465441
-0.44406
-0.42028
-0.393199
-0.362011
-0.325789
-0.283655
-0.234252
-0.1764
-0.10962
-0.0361888
-0.432799
-0.442951
-0.449812
-0.453203
-0.453366
-0.450757
-0.4459
-0.439161
-0.430675
-0.419964
-0.406446
-0.389073
-0.366892
-0.339013
-0.304618
-0.262166
-0.209223
-0.141952
-0.0555236
-0.316304
-0.314202
-0.309607
-0.30265
-0.294247
-0.285553
-0.277837
-0.271969
-0.26833
-0.266475
-0.26517
-0.26261
-0.256937
-0.24658
-0.230382
-0.20708
-0.174546
-0.12784
-0.0573209
-0.212209
-0.24021
-0.274812
-0.312742
-0.351583
-0.389354
-0.424803
-0.4569
-0.484837
-0.50764
-0.523786
-0.531839
-0.530489
-0.519555
-0.499635
-0.471636
-0.435161
-0.387122
-0.318682
-0.0730835
-0.0893771
-0.111902
-0.13855
-0.167765
-0.198383
-0.229898
-0.261903
-0.294129
-0.325878
-0.355263
-0.38015
-0.397672
-0.406103
-0.405126
-0.39671
-0.38297
-0.366549
-0.348377
0.066705
0.0460838
0.0173401
-0.0173936
-0.0561716
-0.0974752
-0.140469
-0.184707
-0.230004
-0.275905
-0.320689
-0.361866
-0.395717
-0.419122
-0.430519
-0.431523
-0.424909
-0.414334
-0.401678
0.207468
0.180193
0.143115
0.0988478
0.0497187
-0.0024396
-0.0565603
-0.112233
-0.169492
-0.228315
-0.287523
-0.344684
-0.395507
-0.435282
-0.460477
-0.471371
-0.470936
-0.46393
-0.453374
0.336727
0.299804
0.252391
0.197796
0.138606
0.0768277
0.0135447
-0.0510209
-0.117293
-0.185897
-0.256556
-0.327529
-0.394591
-0.451712
-0.492756
-0.51536
-0.521503
-0.517022
-0.506909
0.473773
0.425567
0.366939
0.30154
0.232173
0.161009
0.08911
0.0165188
-0.0575534
-0.134403
-0.214818
-0.298355
-0.381813
-0.458789
-0.520511
-0.560491
-0.577293
-0.576566
-0.566064
0.581528
0.519939
0.449462
0.373943
0.296317
0.218659
0.141753
0.0652883
-0.0119373
-0.0918689
-0.176377
-0.266756
-0.361964
-0.457098
-0.542267
-0.606491
-0.641512
-0.648696
-0.636935
0.686923
0.613326
0.531234
0.446005
0.360845
0.277647
0.196879
0.117943
0.0394038
-0.0410303
-0.125936
-0.21822
-0.319662
-0.429033
-0.53873
-0.636178
-0.70469
-0.734565
-0.729263
0.789839
0.700815
0.60619
0.511603
0.419948
0.33261
0.249609
0.170066
0.092489
0.0146037
-0.0662203
-0.153618
-0.251601
-0.363576
-0.488126
-0.618425
-0.735311
-0.815469
-0.83503
0.864916
0.752424
0.6385
0.52819
0.423488
0.324952
0.231988
0.143425
0.0577561
-0.0270522
-0.113241
-0.20412
-0.304162
-0.419612
-0.556062
-0.718752
-0.902036
-1.08976
-1.24993
0.920838
0.795874
0.678397
0.571842
0.476358
0.391177
0.314799
0.245771
0.182652
0.124062
0.0689716
0.0160478
-0.0362587
-0.0906421
-0.151563
-0.227923
-0.33007
-0.470387
-0.656454
0.969943
0.838449
0.723248
0.623504
0.536921
0.46146
0.394928
0.335666
0.282274
0.233559
0.188949
0.147943
0.110427
0.076578
0.0469315
0.0214214
-0.000662678
-0.0228631
-0.0520562
0.937621
0.786621
0.659801
0.552444
0.460541
0.381167
0.311713
0.250301
0.195468
0.145993
0.101335
0.0610382
0.0249799
-0.00665111
-0.0331884
-0.0539307
-0.0677017
-0.0734289
-0.0705986
0.839099
0.697578
0.581425
0.484926
0.403709
0.334608
0.275024
0.223089
0.177421
0.136919
0.101043
0.0693501
0.0415882
0.0176515
-0.00241488
-0.0187476
-0.0314653
-0.040834
-0.0472593
0.709185
0.587308
0.487878
0.406006
0.33779
0.280308
0.231233
0.188862
0.151968
0.119568
0.0911085
0.0661303
0.0442613
0.0252248
0.00884055
-0.00518393
-0.0170832
-0.0270651
-0.0353974
0.541388
0.445778
0.368894
0.306394
0.254906
0.211933
0.175566
0.144407
0.117464
0.0939455
0.0733652
0.0553247
0.0394678
0.0255221
0.0133023
0.00257844
-0.00680666
-0.014937
-0.0219451
0.344321
0.280346
0.230406
0.19059
0.158218
0.131439
0.10893
0.0897399
0.0732097
0.0588158
0.0462227
0.0351598
0.0253755
0.016677
0.0089325
0.00199709
-0.00421927
-0.0097344
-0.0145912
0.133177
0.107872
0.0887582
0.073711
0.0615078
0.0513865
0.0428355
0.035498
0.029129
0.0235359
0.0185908
0.0141913
0.0102399
0.00666011
0.00339605
0.000388167
-0.00240445
-0.00499122
-0.00738463
-0.133113
-0.107737
-0.0885802
-0.0735096
-0.0612962
-0.0511741
-0.0426292
-0.0353028
-0.0289487
-0.0233734
-0.0184483
-0.0140701
-0.0101413
-0.006585
-0.00334499
-0.000361623
0.00240621
0.00496834
0.0073375
-0.344263
-0.28023
-0.230255
-0.190421
-0.158042
-0.131267
-0.108766
-0.0895906
-0.073078
-0.0587046
-0.0461338
-0.0350947
-0.0253349
-0.0166614
-0.00894211
-0.00203181
0.00415978
0.00965099
0.0144852
-0.541333
-0.445672
-0.368752
-0.30623
-0.254731
-0.211755
-0.175391
-0.14424
-0.11731
-0.0938065
-0.0732433
-0.055221
-0.0393827
-0.025455
-0.0132519
-0.00254307
0.00682937
0.0149497
0.0219501
-0.709149
-0.587244
-0.487794
-0.40591
-0.33769
-0.280211
-0.231143
-0.188785
-0.151906
-0.119526
-0.0910877
-0.0661317
-0.0442847
-0.025269
-0.00890282
0.00510686
0.0169953
0.0269703
0.0352992
-0.839083
-0.697549
-0.581383
-0.484875
-0.403653
-0.334553
-0.274974
-0.223049
-0.177396
-0.136913
-0.101059
-0.0693892
-0.0416512
-0.017737
0.00231065
0.0186307
0.0313442
0.0407186
0.0471607
-0.937635
-0.786636
-0.659808
-0.552443
-0.460535
-0.381162
-0.311714
-0.250315
-0.195502
-0.146052
-0.101426
-0.0611654
-0.025149
0.00643749
0.0329323
0.053642
0.0674042
0.0731609
0.070405
-0.96996
-0.838398
-0.723096
-0.623232
-0.536523
-0.460935
-0.394277
-0.334894
-0.281386
-0.232559
-0.187841
-0.146731
-0.109112
-0.0751604
-0.0454216
-0.01986
0.00216964
0.0240864
0.0526111
-0.921026
-0.796363
-0.679204
-0.572972
-0.47781
-0.392949
-0.316891
-0.248182
-0.185387
-0.127131
-0.0723962
-0.0198644
0.0319846
0.0857971
0.145973
0.221339
0.322231
0.461147
0.645966
-0.864861
-0.752257
-0.638193
-0.527727
-0.422865
-0.324168
-0.231048
-0.142339
-0.0565351
0.028392
0.114679
0.205629
0.305707
0.421159
0.557609
0.720384
0.904003
1.09251
1.25408
-0.789907
-0.700973
-0.606423
-0.511898
-0.420293
-0.332994
-0.250027
-0.170515
-0.09297
-0.0151222
0.0656543
0.152992
0.250909
0.362838
0.487415
0.617886
0.735124
0.815747
0.835634
-0.686968
-0.613427
-0.531382
-0.44619
-0.361058
-0.277882
-0.197133
-0.118216
-0.0396987
0.0407088
0.125583
0.217836
0.319265
0.428671
0.538488
0.636155
0.704942
0.735053
0.729876
-0.581572
-0.520036
-0.449605
-0.374124
-0.296528
-0.218893
-0.142005
-0.0655565
0.0116536
0.0915699
0.176067
0.266447
0.361689
0.456908
0.542221
0.606629
0.641822
0.649114
0.637388
-0.473813
-0.425658
-0.367077
-0.301719
-0.232383
-0.161243
-0.0893615
-0.0167831
0.0572802
0.134126
0.214549
0.298113
0.381631
0.458706
0.520559
0.560675
0.57758
0.576911
0.566436
-0.336761
-0.299885
-0.252517
-0.19796
-0.1388
-0.0770437
-0.0137754
0.0507819
0.117052
0.185664
0.256344
0.327359
0.394491
0.451707
0.492857
0.515556
0.521766
0.517327
0.507241
-0.207502
-0.180275
-0.143241
-0.0990127
-0.0499142
0.00222248
0.0563304
0.111999
0.169264
0.228103
0.287343
0.344556
0.395451
0.435313
0.460594
0.471563
0.471183
0.464218
0.453696
-0.0667325
-0.0461578
-0.0174581
0.0172375
0.055986
0.0972695
0.140254
0.184491
0.2298
0.275725
0.320548
0.36178
0.395701
0.419182
0.430653
0.431721
0.425159
0.41463
0.402021
0.0730227
0.089191
0.111579
0.138087
0.167173
0.197676
0.229099
0.26104
0.293232
0.324981
0.354397
0.379348
0.396957
0.40549
0.404619
0.396317
0.382708
0.366467
0.348581
0.212254
0.240381
0.275148
0.31327
0.352316
0.390291
0.425933
0.4582
0.486278
0.509191
0.525412
0.53351
0.532176
0.521236
0.501294
0.473266
0.436751
0.38866
0.320139
0.316262
0.314043
0.309322
0.302243
0.293731
0.284948
0.277168
0.271263
0.267612
0.265771
0.264499
0.261987
0.256375
0.246084
0.229955
0.206724
0.174264
0.127639
0.0572285
0.43283
0.44301
0.449903
0.453322
0.453509
0.450916
0.446066
0.439326
0.430832
0.420107
0.40657
0.389176
0.366974
0.339075
0.304659
0.262189
0.209227
0.141944
0.0555152
0.537111
0.544217
0.544861
0.540044
0.530722
0.517862
0.50234
0.484777
0.465467
0.444082
0.420298
0.393213
0.36202
0.325793
0.283654
0.234246
0.176391
0.109612
0.0361857
0.63257
0.634331
0.62755
0.61416
0.595633
0.573348
0.548482
0.521835
0.493787
0.46405
0.432393
0.397957
0.359997
0.317647
0.270265
0.217102
0.158275
0.0951475
0.0309309
0.725688
0.719616
0.704143
0.681501
0.653548
0.62208
0.588574
0.553945
0.518574
0.482113
0.44431
0.404272
0.361285
0.314588
0.263847
0.208813
0.150252
0.0897843
0.0295597
0.811752
0.79589
0.770827
0.738393
0.701015
0.66098
0.619984
0.578922
0.538027
0.496759
0.454737
0.41096
0.364714
0.315326
0.262681
0.206765
0.14846
0.0890425
0.029716
0.864074
0.840437
0.806652
0.765817
0.721334
0.675834
0.630922
0.587182
0.544463
0.501872
0.458799
0.414089
0.367011
0.316949
0.26392
0.207958
0.149846
0.0904923
0.030556
0.9266
0.893546
0.848699
0.797825
0.745307
0.693931
0.645047
0.598787
0.554527
0.510963
0.467227
0.421972
0.374402
0.323872
0.270405
0.213928
0.155039
0.0943446
0.0321861
0.98161
0.933655
0.876075
0.815408
0.756282
0.701121
0.650637
0.604235
0.560653
0.518092
0.475388
0.430985
0.384
0.333723
0.280132
0.223006
0.162787
0.0998785
0.0344346
1.01328
0.949328
0.879876
0.81171
0.749224
0.693911
0.645397
0.602097
0.561996
0.522773
0.482997
0.44092
0.395596
0.346246
0.292811
0.234927
0.17293
0.107075
0.0373546
1.02173
0.942644
0.863227
0.790874
0.728977
0.677413
0.634313
0.596972
0.562627
0.528492
0.492964
0.454149
0.41108
0.362926
0.309606
0.250616
0.186202
0.116466
0.0411721
1.0212
0.925492
0.838025
0.764937
0.707187
0.6624
0.627003
0.597238
0.569718
0.541318
0.51039
0.474942
0.434019
0.386735
0.332988
0.272091
0.204174
0.129113
0.046316
0.999518
0.888653
0.798753
0.730928
0.682473
0.648471
0.62365
0.603439
0.584054
0.562207
0.536362
0.504484
0.465672
0.41898
0.364274
0.300626
0.227988
0.145892
0.0532191
0.904014
0.79382
0.715409
0.664948
0.635627
0.620038
0.611515
0.605128
0.597074
0.584178
0.565227
0.538266
0.502524
0.45703
0.401636
0.335121
0.257177
0.166833
0.0621131
0.808897
0.708126
0.648698
0.620836
0.613262
0.61675
0.624025
0.630425
0.632503
0.627378
0.614229
0.591181
0.557525
0.512168
0.454832
0.38381
0.298295
0.19646
0.0748742
0.690332
0.611763
0.584094
0.587077
0.605692
0.6304
0.654451
0.674092
0.686561
0.689435
0.682276
0.663311
0.631808
0.586438
0.526623
0.449939
0.354709
0.237743
0.0932849
0.490413
0.471197
0.496884
0.542699
0.59444
0.644755
0.688813
0.724306
0.749458
0.762492
0.763279
0.750279
0.722617
0.67866
0.61732
0.535214
0.429243
0.294085
0.120102
0.296675
0.360863
0.446528
0.535144
0.6182
0.692179
0.754937
0.805603
0.843402
0.867201
0.876868
0.871173
0.848811
0.80762
0.74557
0.65784
0.538826
0.379556
0.163548
0.111529
0.270886
0.417961
0.548389
0.662137
0.759863
0.842373
0.909966
0.962839
1.00056
1.02267
1.02844
1.01583
0.981947
0.923237
0.832768
0.700708
0.511856
0.23789
-0.0276471
0.218291
0.41875
0.586045
0.728411
0.849673
0.95335
1.04046
1.11215
1.16882
1.20936
1.23388
1.23936
1.222
1.17598
1.09131
0.95116
0.729588
0.377695
-0.0945794
0.207641
0.446903
0.644475
0.813279
0.958384
1.0855
1.19603
1.29213
1.37544
1.44413
1.49976
1.5384
1.55563
1.54276
1.48577
1.35699
1.11228
0.667885
-0.0837485
0.234568
0.496201
0.717477
0.910768
1.08038
1.23367
1.37245
1.50028
1.62082
1.7321
1.83827
1.93591
2.02164
2.08467
2.10775
2.04877
1.83564
1.32911
-0.0151946
0.286679
0.557752
0.797653
1.01372
1.20829
1.39006
1.56195
1.72955
1.90031
2.07364
2.25863
2.45711
2.67282
2.89866
3.12376
3.29636
3.31303
2.95576
0.068443
0.344592
0.621165
0.877748
1.1151
1.33424
1.54504
1.75362
1.96772
2.20273
2.46175
2.76319
3.12998
3.5977
4.21006
5.08172
6.39243
8.53173
12.3047
)
;

boundaryField
{
    up
    {
        type            calculated;
        value           nonuniform List<scalar> 
84
(
-12.3047
-2.95576
-1.32911
-0.667886
-0.377695
-0.23789
-0.163548
-0.120102
-0.0932847
-0.0748739
-0.0621129
-0.053219
-0.0463158
-0.041172
-0.0373546
-0.0344346
-0.0321862
-0.0305562
-0.0297164
-0.0295602
-0.030932
-0.0361888
-0.0555236
-0.0573209
-0.274874
-0.32975
-0.384969
-0.43665
-0.489187
-0.546285
-0.612689
-0.692608
-0.778471
-1.25214
-0.68384
-0.0535564
-0.0706718
-0.0472585
-0.035392
-0.0219458
-0.0145934
-0.00738861
0.00734144
0.0144874
0.021951
0.0352939
0.0471599
0.0704774
0.0540934
0.672971
1.25713
0.778995
0.693139
0.613116
0.546648
0.489518
0.436976
0.385324
0.330092
0.276215
0.0572285
0.0555152
0.0361857
0.0309309
0.0295597
0.029716
0.030556
0.0321861
0.0344346
0.0373546
0.0411721
0.046316
0.0532191
0.0621131
0.0748742
0.0932849
0.120102
0.163548
0.23789
0.377695
0.667885
1.32911
2.95576
12.3047
)
;
    }
    low
    {
        type            calculated;
        value           nonuniform List<scalar> 
84
(
-0.0618519
0.02489
0.0995876
0.11199
0.038694
-0.113584
-0.313691
-0.519035
-0.723197
-0.835226
-0.926246
-1.01602
-1.02553
-1.01838
-1.00497
-0.966673
-0.90633
-0.842647
-0.787395
-0.696062
-0.60095
-0.505868
-0.403138
-0.29081
-0.192656
-0.0660798
0.0586966
0.187227
0.310006
0.445789
0.556948
0.665287
0.773299
0.855859
0.918188
0.975341
0.952246
0.8565
0.725709
0.555156
0.353724
0.137183
-0.137119
-0.353664
-0.555097
-0.725665
-0.856472
-0.952245
-0.975341
-0.918346
-0.855805
-0.773355
-0.665327
-0.556988
-0.445828
-0.310039
-0.187262
-0.0587246
0.0660207
0.1927
0.290771
0.403165
0.505878
0.60096
0.696071
0.787404
0.842655
0.906336
0.966679
1.00497
1.01838
1.02554
1.01602
0.926252
0.835236
0.723206
0.519042
0.313697
0.113588
-0.0386919
-0.11199
-0.0995885
-0.0248906
0.0618519
)
;
    }
    left
    {
        type            calculated;
        value           nonuniform List<scalar> 
19
(
-0.0606068
-0.330392
-0.612229
-0.877294
-1.12454
-1.3537
-1.57558
-1.79742
-2.02698
-2.2841
-2.57153
-2.91056
-3.33192
-3.88432
-4.62338
-5.71124
-7.39745
-10.226
-10.6729
)
;
    }
    right
    {
        type            calculated;
        value           nonuniform List<scalar> 
19
(
0.060607
0.330393
0.612229
0.877294
1.12454
1.3537
1.57558
1.79742
2.02698
2.28409
2.57153
2.91056
3.33191
3.88431
4.62338
5.71124
7.39745
10.226
10.6729
)
;
    }
    frontAndBackPlanes
    {
        type            empty;
    }
}


// ************************************************************************* //
