/*--------------------------------*- C++ -*----------------------------------*\
  =========                 |
  \\      /  F ield         | OpenFOAM: The Open Source CFD Toolbox
   \\    /   O peration     | Website:  https://openfoam.org
    \\  /    A nd           | Version:  7
     \\/     M anipulation  |
\*---------------------------------------------------------------------------*/
FoamFile
{
    version     2.0;
    format      ascii;
    class       volScalarField;
    location    "0.345";
    object      T;
}
// * * * * * * * * * * * * * * * * * * * * * * * * * * * * * * * * * * * * * //

dimensions      [0 0 0 1 0 0 0];

internalField   nonuniform List<scalar> 
1596
(
0.997758
0.991308
0.984648
0.97823
0.972142
0.96628
0.960507
0.954537
0.948169
0.940935
0.932472
0.922294
0.909252
0.8917
0.867031
0.82936
0.767667
0.659903
0.461906
0.990294
0.970188
0.951031
0.933095
0.916268
0.90021
0.884526
0.868624
0.852008
0.833828
0.813378
0.789812
0.761488
0.726326
0.681683
0.622404
0.540399
0.421672
0.239705
0.981449
0.947601
0.916853
0.888683
0.862561
0.837876
0.814025
0.79024
0.765861
0.739904
0.711564
0.679929
0.643412
0.600159
0.548088
0.483433
0.400898
0.292209
0.141872
0.972694
0.925956
0.884746
0.847599
0.813517
0.781637
0.751185
0.721292
0.691221
0.659962
0.626718
0.590619
0.550276
0.504172
0.450777
0.387449
0.310818
0.216091
0.0942575
0.965403
0.907494
0.857135
0.812189
0.771294
0.733393
0.697586
0.662951
0.628713
0.593881
0.557694
0.519349
0.477643
0.431345
0.379325
0.319708
0.250319
0.168366
0.0685267
0.960478
0.893762
0.835696
0.784024
0.737239
0.69419
0.653912
0.615458
0.578043
0.540704
0.502718
0.463335
0.421493
0.376163
0.326473
0.271038
0.208396
0.136881
0.0532523
0.958061
0.885209
0.820975
0.763575
0.71164
0.664063
0.619881
0.578161
0.538126
0.498846
0.459627
0.419755
0.378266
0.334258
0.287019
0.235461
0.178544
0.115235
0.0434734
0.957644
0.881237
0.812413
0.750263
0.693822
0.642173
0.594444
0.549759
0.507373
0.466395
0.426154
0.385963
0.344918
0.302198
0.257176
0.208948
0.156717
0.0998044
0.0368281
0.95872
0.88099
0.80907
0.743115
0.682755
0.627399
0.576353
0.528849
0.484206
0.44158
0.40033
0.359785
0.319082
0.277445
0.23429
0.188816
0.140369
0.0884605
0.0321042
0.960201
0.882635
0.808936
0.740134
0.676493
0.617831
0.563709
0.51352
0.466679
0.422412
0.380114
0.339132
0.298631
0.25786
0.21625
0.173058
0.1277
0.0797936
0.0285846
0.96143
0.884678
0.810159
0.739378
0.673118
0.611611
0.554713
0.502017
0.453072
0.407194
0.363827
0.322345
0.281935
0.24186
0.201549
0.160286
0.117521
0.0729137
0.0258469
0.962968
0.887468
0.812707
0.740541
0.672159
0.608172
0.548735
0.493667
0.442675
0.395183
0.3507
0.308632
0.268189
0.22864
0.189405
0.149772
0.109196
0.0673439
0.0236673
0.964454
0.890448
0.815838
0.742732
0.672642
0.606504
0.544765
0.487474
0.434513
0.385429
0.33981
0.297103
0.256541
0.217399
0.179079
0.140858
0.102179
0.0626898
0.0218741
0.96543
0.892757
0.818498
0.744797
0.673371
0.605418
0.541647
0.482334
0.42754
0.376948
0.330234
0.286896
0.246195
0.20741
0.169921
0.132987
0.0960245
0.0586467
0.0203407
0.966285
0.894713
0.820809
0.746677
0.674149
0.60462
0.539026
0.477854
0.421344
0.36932
0.321555
0.277602
0.236756
0.198299
0.161588
0.125858
0.0904876
0.055043
0.0189943
0.967121
0.896524
0.822918
0.748404
0.674895
0.60394
0.536666
0.473757
0.415622
0.362227
0.313446
0.268897
0.227908
0.189767
0.153808
0.119233
0.0853757
0.0517455
0.0177804
0.967742
0.897948
0.824571
0.749691
0.675278
0.60301
0.534177
0.46964
0.409972
0.355278
0.305532
0.260421
0.219313
0.181504
0.146304
0.112878
0.0805064
0.0486329
0.0166513
0.968219
0.899049
0.825816
0.750551
0.675268
0.601751
0.531439
0.465354
0.404219
0.348277
0.297606
0.251962
0.210757
0.173299
0.13888
0.106622
0.0757457
0.0456174
0.0155728
0.968981
0.900503
0.827372
0.751669
0.675477
0.600689
0.528881
0.461231
0.39861
0.341395
0.289766
0.243554
0.202221
0.165093
0.131447
0.100368
0.0710091
0.0426422
0.0145241
0.969868
0.902235
0.829236
0.753076
0.67594
0.599842
0.5265
0.457245
0.393091
0.334548
0.281902
0.235061
0.193543
0.1567
0.123809
0.0939249
0.0661356
0.0396033
0.0134715
0.970549
0.903745
0.830914
0.754316
0.676243
0.598835
0.523954
0.453079
0.387368
0.32746
0.273746
0.226218
0.184452
0.147841
0.115674
0.0870032
0.0608721
0.0363307
0.0123609
0.971212
0.90519
0.832523
0.755491
0.676476
0.597744
0.521299
0.448766
0.381442
0.320097
0.265229
0.216913
0.174792
0.138304
0.106772
0.0792785
0.0548766
0.0325535
0.0110977
0.971943
0.906704
0.83418
0.756691
0.676707
0.596616
0.518561
0.444308
0.375288
0.312398
0.256244
0.206993
0.164358
0.127825
0.0967591
0.0703032
0.047599
0.0277204
0.00941749
0.97269
0.908203
0.835761
0.757754
0.676748
0.595253
0.515538
0.4395
0.368691
0.30413
0.246537
0.196172
0.152827
0.116037
0.0851984
0.0595061
0.0382357
0.0207343
0.00627292
0.973834
0.911102
0.839985
0.762856
0.682274
0.600756
0.520595
0.443732
0.371789
0.305877
0.246843
0.195091
0.150542
0.112829
0.0814083
0.0554935
0.0344001
0.0176074
0.00471178
0.975073
0.914724
0.845914
0.770914
0.692161
0.612053
0.532794
0.45627
0.384087
0.317407
0.257171
0.203947
0.157842
0.118659
0.085964
0.0589971
0.0370085
0.0193574
0.00545671
0.975658
0.916741
0.849554
0.776257
0.699153
0.620497
0.542363
0.466525
0.394518
0.327481
0.266398
0.211956
0.164437
0.123841
0.0898871
0.0618836
0.0390523
0.0206612
0.00598493
0.975592
0.917087
0.850778
0.778707
0.703028
0.625827
0.549009
0.474189
0.402774
0.335821
0.274293
0.218941
0.170198
0.128271
0.0930885
0.0640819
0.0404892
0.0215107
0.00630888
0.975084
0.916201
0.85019
0.778983
0.704572
0.62885
0.55352
0.480009
0.409553
0.34308
0.281475
0.225496
0.175679
0.132435
0.0959558
0.0658778
0.0415224
0.0220459
0.00649486
0.974164
0.914362
0.848303
0.777774
0.704584
0.630416
0.556754
0.484815
0.415645
0.350011
0.288679
0.232349
0.181592
0.136987
0.0990193
0.0676363
0.0423655
0.0223788
0.00658585
0.972991
0.91205
0.845828
0.775945
0.704017
0.631514
0.559693
0.489557
0.421959
0.357494
0.296778
0.2404
0.188878
0.142866
0.103114
0.0699675
0.0433552
0.0226417
0.00661723
0.971989
0.90999
0.843647
0.774466
0.703884
0.633157
0.563325
0.495184
0.429405
0.366419
0.30669
0.250653
0.198685
0.151372
0.10958
0.0740234
0.0452167
0.0230881
0.0066006
0.970983
0.907986
0.84163
0.773295
0.704224
0.635456
0.567818
0.501919
0.438268
0.377153
0.318906
0.263813
0.212059
0.164014
0.120408
0.0820369
0.0498927
0.0247787
0.00656744
0.969954
0.906075
0.839899
0.772631
0.705299
0.638721
0.573524
0.510144
0.44896
0.390152
0.333963
0.280584
0.230042
0.182467
0.138252
0.0978577
0.0621316
0.0322695
0.00901092
0.968747
0.903685
0.83735
0.770778
0.704782
0.639976
0.576808
0.515575
0.456551
0.399842
0.345647
0.294122
0.245246
0.199039
0.155643
0.115071
0.0775111
0.0435276
0.01361
0.966847
0.899318
0.831562
0.76439
0.698398
0.634017
0.571541
0.511148
0.453028
0.39722
0.34389
0.293177
0.24506
0.199576
0.156892
0.11699
0.0799374
0.0459585
0.0149758
0.964426
0.893648
0.823773
0.755301
0.688595
0.623907
0.561398
0.501139
0.443246
0.387704
0.334653
0.284229
0.236427
0.191323
0.149168
0.110046
0.0741761
0.0419416
0.013377
0.962308
0.88872
0.817032
0.747459
0.68016
0.615235
0.552729
0.49263
0.434998
0.379779
0.327101
0.277102
0.229788
0.185264
0.143816
0.105559
0.0707325
0.0397323
0.0125853
0.960698
0.884878
0.811714
0.74123
0.673431
0.608302
0.545797
0.485838
0.428441
0.373524
0.321203
0.271617
0.224775
0.180791
0.139961
0.102408
0.0683738
0.0382567
0.0120774
0.95944
0.881883
0.807576
0.736392
0.668216
0.602939
0.540448
0.480614
0.423422
0.368765
0.316751
0.267517
0.221067
0.177517
0.13717
0.100149
0.0666964
0.0372153
0.0117242
0.958522
0.87971
0.804598
0.732934
0.66451
0.599148
0.536684
0.476955
0.419923
0.365464
0.31368
0.264702
0.218534
0.175291
0.135277
0.0986164
0.0655562
0.0365045
0.0114819
0.957836
0.878262
0.802727
0.730843
0.662328
0.596961
0.534548
0.474908
0.417992
0.363666
0.312029
0.263211
0.217211
0.174145
0.134319
0.0978533
0.0649975
0.0361619
0.0113683
0.957837
0.878266
0.802731
0.730848
0.662333
0.596966
0.534554
0.474913
0.417997
0.363671
0.312033
0.263215
0.217215
0.174148
0.134321
0.0978553
0.0649989
0.0361627
0.0113686
0.958526
0.879719
0.80461
0.732949
0.664526
0.599165
0.536701
0.476971
0.419938
0.365479
0.313694
0.264715
0.218545
0.1753
0.135286
0.098623
0.065561
0.0365074
0.0114829
0.959446
0.881897
0.807596
0.736415
0.668241
0.602965
0.540474
0.480639
0.423447
0.368788
0.316773
0.267536
0.221084
0.177532
0.137183
0.100158
0.0667032
0.0372194
0.0117255
0.960706
0.884897
0.81174
0.74126
0.673465
0.608337
0.545832
0.485871
0.428474
0.373554
0.321231
0.271642
0.224797
0.180809
0.139976
0.102419
0.0683818
0.0382615
0.012079
0.962317
0.888743
0.817063
0.747496
0.6802
0.615277
0.552771
0.492671
0.435037
0.379816
0.327133
0.277131
0.229813
0.185285
0.143833
0.105571
0.0707408
0.039737
0.0125868
0.964437
0.893673
0.823808
0.755343
0.688641
0.623955
0.561446
0.501185
0.44329
0.387744
0.334689
0.28426
0.236452
0.191343
0.149182
0.110056
0.0741813
0.0419437
0.0133771
0.966858
0.899346
0.831601
0.764437
0.69845
0.63407
0.571594
0.511199
0.453076
0.397263
0.343927
0.293206
0.245081
0.199589
0.156896
0.116986
0.0799283
0.0459487
0.0149707
0.96876
0.903725
0.837414
0.770862
0.704883
0.640091
0.576935
0.51571
0.456693
0.39999
0.345798
0.294276
0.245402
0.199195
0.155798
0.115222
0.077649
0.0436345
0.0136573
0.96997
0.906122
0.839975
0.772733
0.705425
0.638869
0.573689
0.510325
0.449154
0.390357
0.334176
0.280802
0.230263
0.182685
0.138461
0.0980473
0.062286
0.032372
0.00904855
0.970996
0.908025
0.841695
0.773384
0.704334
0.635584
0.567962
0.502075
0.438434
0.377326
0.319083
0.263991
0.212232
0.164177
0.120551
0.0821512
0.0499699
0.0248172
0.00657474
0.972001
0.910026
0.843706
0.774548
0.703987
0.633278
0.563459
0.49533
0.42956
0.366579
0.30685
0.250809
0.198832
0.151502
0.109688
0.0741023
0.0452659
0.023112
0.00660679
0.973001
0.912082
0.845882
0.776021
0.704113
0.631626
0.559818
0.489693
0.422102
0.357639
0.296922
0.240537
0.189003
0.142973
0.103198
0.0700274
0.0433926
0.0226609
0.00662281
0.974173
0.91439
0.848352
0.777844
0.704672
0.63052
0.556871
0.484941
0.415776
0.350144
0.288808
0.23247
0.181699
0.137076
0.0990889
0.0676857
0.0423971
0.0223958
0.00659107
0.975091
0.916226
0.850234
0.779046
0.704652
0.628946
0.553628
0.480125
0.409673
0.3432
0.28159
0.225603
0.175772
0.132512
0.0960156
0.0659208
0.0415507
0.0220617
0.00649993
0.975598
0.917109
0.850817
0.778763
0.7031
0.625914
0.549106
0.474295
0.402883
0.33593
0.274397
0.219036
0.170281
0.128339
0.0931414
0.0641208
0.0405155
0.021526
0.00631409
0.975663
0.916759
0.849588
0.776307
0.699218
0.620575
0.542451
0.46662
0.394616
0.327579
0.266491
0.21204
0.164511
0.123902
0.0899353
0.06192
0.0390779
0.0206768
0.00599069
0.975077
0.91474
0.845943
0.770957
0.692218
0.612122
0.532873
0.456355
0.384175
0.317494
0.257254
0.204022
0.157908
0.118715
0.086009
0.0590324
0.0370346
0.0193744
0.00546361
0.973834
0.911105
0.839991
0.762865
0.682288
0.600773
0.520614
0.443753
0.37181
0.305896
0.24686
0.195104
0.150551
0.112834
0.0814093
0.0554916
0.0343966
0.0176037
0.00470984
0.972687
0.908197
0.835752
0.757742
0.676733
0.595235
0.515518
0.439479
0.368669
0.304108
0.246515
0.19615
0.152806
0.116018
0.0851799
0.0594897
0.0382223
0.0207248
0.00626875
0.971942
0.906702
0.834177
0.756687
0.676702
0.596612
0.518557
0.444304
0.375284
0.312395
0.256242
0.206992
0.164357
0.127826
0.0967602
0.0703046
0.0476005
0.0277217
0.00941791
0.971211
0.905188
0.832521
0.755488
0.676473
0.597741
0.521296
0.448763
0.38144
0.320095
0.265228
0.216912
0.174792
0.138305
0.106773
0.0792796
0.0548776
0.0325541
0.0110979
0.970549
0.903744
0.830912
0.754314
0.67624
0.598832
0.523952
0.453077
0.387366
0.327458
0.273746
0.226218
0.184453
0.147842
0.115674
0.087004
0.0608727
0.0363311
0.012361
0.969868
0.902234
0.829234
0.753074
0.675938
0.59984
0.526499
0.457243
0.39309
0.334548
0.281902
0.235061
0.193543
0.156701
0.123809
0.0939255
0.0661361
0.0396036
0.0134716
0.96898
0.900503
0.82737
0.751668
0.675476
0.600688
0.52888
0.46123
0.39861
0.341395
0.289766
0.243554
0.202221
0.165093
0.131447
0.100368
0.0710094
0.0426424
0.0145241
0.968219
0.899049
0.825815
0.75055
0.675267
0.601751
0.531439
0.465353
0.404219
0.348277
0.297607
0.251963
0.210758
0.1733
0.13888
0.106622
0.0757459
0.0456176
0.0155728
0.967742
0.897947
0.82457
0.74969
0.675277
0.603009
0.534177
0.46964
0.409972
0.355278
0.305532
0.260422
0.219313
0.181504
0.146304
0.112878
0.0805065
0.048633
0.0166513
0.967121
0.896524
0.822917
0.748404
0.674894
0.60394
0.536666
0.473757
0.415622
0.362228
0.313447
0.268897
0.227908
0.189767
0.153808
0.119233
0.0853758
0.0517455
0.0177804
0.966285
0.894713
0.820809
0.746677
0.674149
0.60462
0.539026
0.477854
0.421344
0.369321
0.321555
0.277602
0.236756
0.198299
0.161588
0.125858
0.0904876
0.055043
0.0189944
0.965431
0.892757
0.818498
0.744797
0.673371
0.605418
0.541647
0.482334
0.42754
0.376948
0.330234
0.286896
0.246195
0.20741
0.169921
0.132987
0.0960245
0.0586467
0.0203407
0.964454
0.890449
0.815838
0.742732
0.672642
0.606504
0.544765
0.487474
0.434513
0.385429
0.33981
0.297102
0.256541
0.217399
0.179079
0.140858
0.102179
0.0626898
0.0218741
0.962968
0.887468
0.812707
0.740541
0.672159
0.608172
0.548735
0.493667
0.442675
0.395183
0.3507
0.308632
0.268188
0.22864
0.189405
0.149772
0.109196
0.0673439
0.0236674
0.961431
0.884678
0.810159
0.739379
0.673118
0.611611
0.554713
0.502016
0.453072
0.407194
0.363827
0.322345
0.281935
0.241859
0.201549
0.160286
0.117521
0.0729138
0.0258469
0.960201
0.882635
0.808936
0.740134
0.676493
0.617831
0.563709
0.513519
0.466678
0.422411
0.380113
0.339132
0.298631
0.25786
0.21625
0.173058
0.1277
0.0797937
0.0285846
0.95872
0.88099
0.809069
0.743114
0.682754
0.627399
0.576353
0.528849
0.484206
0.44158
0.40033
0.359785
0.319082
0.277445
0.234289
0.188816
0.140369
0.0884606
0.0321043
0.957644
0.881237
0.812412
0.750262
0.693821
0.642173
0.594443
0.549758
0.507373
0.466394
0.426153
0.385962
0.344917
0.302197
0.257176
0.208948
0.156717
0.0998044
0.0368281
0.958061
0.885209
0.820974
0.763574
0.71164
0.664062
0.61988
0.57816
0.538126
0.498846
0.459626
0.419755
0.378265
0.334258
0.287019
0.235461
0.178544
0.115235
0.0434734
0.960478
0.893762
0.835695
0.784023
0.737238
0.694189
0.653911
0.615457
0.578042
0.540704
0.502717
0.463335
0.421493
0.376162
0.326473
0.271038
0.208396
0.136881
0.0532524
0.965402
0.907494
0.857134
0.812189
0.771294
0.733392
0.697585
0.66295
0.628712
0.59388
0.557693
0.519349
0.477643
0.431345
0.379324
0.319708
0.250319
0.168366
0.0685267
0.972694
0.925956
0.884745
0.847598
0.813516
0.781637
0.751185
0.721292
0.69122
0.659961
0.626717
0.590619
0.550276
0.504172
0.450777
0.387449
0.310818
0.216091
0.0942574
0.981449
0.947601
0.916853
0.888683
0.86256
0.837876
0.814025
0.790239
0.76586
0.739903
0.711564
0.679928
0.643412
0.600159
0.548088
0.483433
0.400898
0.292209
0.141872
0.990294
0.970187
0.951031
0.933095
0.916268
0.900209
0.884525
0.868624
0.852008
0.833828
0.813378
0.789812
0.761488
0.726326
0.681683
0.622404
0.540399
0.421672
0.239705
0.997758
0.991308
0.984648
0.97823
0.972142
0.96628
0.960507
0.954537
0.948169
0.940935
0.932472
0.922294
0.909252
0.8917
0.867031
0.82936
0.767667
0.659903
0.461906
)
;

boundaryField
{
    up
    {
        type            fixedValue;
        value           uniform 0;
    }
    low
    {
        type            fixedValue;
        value           uniform 1;
    }
    left
    {
        type            fixedValue;
        value           uniform 1;
    }
    right
    {
        type            fixedValue;
        value           uniform 1;
    }
    frontAndBackPlanes
    {
        type            empty;
    }
}


// ************************************************************************* //
