/*--------------------------------*- C++ -*----------------------------------*\
  =========                 |
  \\      /  F ield         | OpenFOAM: The Open Source CFD Toolbox
   \\    /   O peration     | Website:  https://openfoam.org
    \\  /    A nd           | Version:  7
     \\/     M anipulation  |
\*---------------------------------------------------------------------------*/
FoamFile
{
    version     2.0;
    format      ascii;
    class       volScalarField;
    location    "0.26";
    object      gradTx;
}
// * * * * * * * * * * * * * * * * * * * * * * * * * * * * * * * * * * * * * //

dimensions      [0 -1 0 1 0 0 0];

internalField   nonuniform List<scalar> 
1596
(
-0.165456
-0.830848
-1.49029
-2.08933
-2.62562
-3.09877
-3.53058
-3.93496
-4.3306
-4.75358
-5.21348
-5.75368
-6.42584
-7.30626
-8.48592
-10.1965
-12.7975
-17.066
-24.609
0.0362162
-0.692097
-1.34091
-1.90497
-2.39868
-2.82565
-3.20547
-3.54504
-3.85828
-4.16373
-4.4629
-4.77882
-5.11921
-5.49593
-5.89844
-6.30812
-6.62318
-6.63713
-5.91286
0.201439
-0.566882
-1.195
-1.71862
-2.16502
-2.54317
-2.86989
-3.14967
-3.39177
-3.60603
-3.79052
-3.95715
-4.10198
-4.22177
-4.29822
-4.3001
-4.14562
-3.69242
-2.66239
0.227571
-0.501579
-1.07676
-1.54634
-1.93959
-2.2677
-2.54386
-2.77162
-2.9568
-3.10438
-3.21215
-3.28572
-3.31937
-3.30689
-3.23369
-3.07472
-2.77722
-2.2554
-1.34321
0.066444
-0.526109
-1.00752
-1.40559
-1.73891
-2.01601
-2.24501
-2.42849
-2.56964
-2.67028
-2.72916
-2.74809
-2.72247
-2.64658
-2.511
-2.29819
-1.97701
-1.49818
-0.765919
-0.268785
-0.651551
-1.00303
-1.31211
-1.57815
-1.8024
-1.98662
-2.13161
-2.23812
-2.30565
-2.33389
-2.32216
-2.26726
-2.16457
-2.00862
-1.78739
-1.48339
-1.0687
-0.488852
-0.715314
-0.867745
-1.06935
-1.27625
-1.46817
-1.63671
-1.77678
-1.88636
-1.96375
-2.00651
-2.01466
-1.98584
-1.9178
-1.80674
-1.6497
-1.4382
-1.16281
-0.807694
-0.341983
-1.18381
-1.13452
-1.18962
-1.29127
-1.40626
-1.51749
-1.61367
-1.68947
-1.74075
-1.76333
-1.757
-1.71816
-1.64502
-1.53429
-1.38433
-1.18891
-0.943162
-0.638063
-0.256152
-1.66918
-1.47597
-1.4002
-1.39564
-1.42784
-1.47507
-1.52184
-1.55962
-1.58204
-1.58328
-1.56228
-1.51453
-1.43813
-1.32986
-1.1886
-1.0094
-0.789691
-0.524165
-0.202708
-1.96073
-1.7137
-1.56007
-1.47903
-1.44556
-1.43924
-1.44371
-1.44862
-1.44613
-1.42939
-1.39639
-1.34219
-1.26462
-1.16058
-1.0291
-0.866151
-0.670432
-0.438833
-0.165461
-2.19787
-1.92745
-1.72668
-1.58888
-1.50002
-1.44454
-1.40795
-1.37968
-1.35133
-1.31553
-1.26941
-1.20776
-1.12806
-1.02715
-0.90393
-0.754894
-0.579238
-0.375042
-0.138841
-2.43871
-2.16543
-1.93512
-1.7527
-1.61411
-1.51015
-1.43015
-1.36488
-1.30637
-1.24725
-1.18408
-1.11145
-1.02643
-0.925659
-0.807692
-0.669196
-0.509384
-0.32682
-0.119251
-2.50245
-2.2655
-2.04033
-1.84364
-1.68009
-1.54682
-1.43757
-1.34549
-1.264
-1.18647
-1.10943
-1.02775
-0.938347
-0.837874
-0.724695
-0.595672
-0.449963
-0.286388
-0.103333
-2.51564
-2.3186
-2.11226
-1.91597
-1.74007
-1.58723
-1.45555
-1.34113
-1.2393
-1.14465
-1.05415
-0.963137
-0.86858
-0.767211
-0.657238
-0.535651
-0.401457
-0.253544
-0.090609
-2.50747
-2.34674
-2.16384
-1.97632
-1.79673
-1.63166
-1.48302
-1.34995
-1.23
-1.11932
-1.01565
-0.914974
-0.814484
-0.711055
-0.602793
-0.486769
-0.361801
-0.226717
-0.0802978
-2.44203
-2.32029
-2.16593
-1.99566
-1.82241
-1.65496
-1.49798
-1.35327
-1.2206
-1.0978
-0.983665
-0.875026
-0.769453
-0.664104
-0.5571
-0.445638
-0.328412
-0.204179
-0.0716991
-2.31754
-2.23275
-2.10964
-1.96285
-1.80449
-1.64408
-1.48791
-1.33973
-1.20119
-1.07177
-0.95138
-0.837816
-0.729182
-0.623028
-0.51761
-0.410327
-0.299858
-0.184974
-0.0644309
-2.17223
-2.11094
-2.01525
-1.89291
-1.75337
-1.60557
-1.45641
-1.31086
-1.17199
-1.04067
-0.917861
-0.802324
-0.692739
-0.587079
-0.483773
-0.380437
-0.275818
-0.168822
-0.0583262
-2.05025
-2.008
-1.93341
-1.83095
-1.70749
-1.571
-1.42853
-1.28592
-1.14738
-1.01496
-0.890555
-0.773763
-0.66376
-0.558844
-0.4575
-0.357406
-0.257295
-0.156254
-0.0534735
-1.84076
-1.82341
-1.77307
-1.69501
-1.59446
-1.4779
-1.35175
-1.22184
-1.09291
-0.967763
-0.848984
-0.736925
-0.631271
-0.530709
-0.433815
-0.338277
-0.24273
-0.146507
-0.0495724
-1.61006
-1.61239
-1.58391
-1.52893
-1.4515
-1.35673
-1.25012
-1.13709
-1.02242
-0.909278
-0.800608
-0.697294
-0.59943
-0.506052
-0.415795
-0.326155
-0.235222
-0.142025
-0.0474536
-1.37041
-1.38552
-1.37523
-1.34131
-1.2863
-1.21397
-1.12881
-1.03558
-0.938823
-0.841697
-0.74717
-0.656394
-0.569708
-0.486481
-0.405485
-0.323988
-0.23897
-0.147597
-0.0496132
-1.10563
-1.12721
-1.13173
-1.11784
-1.08605
-1.03849
-0.978416
-0.909635
-0.836102
-0.760636
-0.68579
-0.612686
-0.541653
-0.472418
-0.404201
-0.334573
-0.259586
-0.173123
-0.0672926
-0.807634
-0.796272
-0.771811
-0.734699
-0.687727
-0.63467
-0.579874
-0.527013
-0.479
-0.437077
-0.400937
-0.369092
-0.339345
-0.309642
-0.27829
-0.243326
-0.201557
-0.146407
-0.0656154
-0.540076
-0.601768
-0.670973
-0.737358
-0.793575
-0.834564
-0.858414
-0.865152
-0.856779
-0.835825
-0.804246
-0.764137
-0.716641
-0.66393
-0.60836
-0.552049
-0.494521
-0.431744
-0.352276
-0.183168
-0.21319
-0.252998
-0.29657
-0.33947
-0.378521
-0.412551
-0.441194
-0.465252
-0.485379
-0.500584
-0.509994
-0.510939
-0.50238
-0.484802
-0.461699
-0.435918
-0.41088
-0.387201
0.174452
0.136407
0.0827644
0.0192928
-0.0486864
-0.116924
-0.182937
-0.245458
-0.304493
-0.360237
-0.411215
-0.455468
-0.488754
-0.507895
-0.511676
-0.503531
-0.487697
-0.469631
-0.451665
0.531944
0.480095
0.407771
0.321638
0.2278
0.131293
0.0354485
-0.0580313
-0.148871
-0.237328
-0.322169
-0.400956
-0.468197
-0.518091
-0.546417
-0.554972
-0.548674
-0.535224
-0.519073
0.856174
0.783246
0.68791
0.578168
0.460484
0.340132
0.220528
0.103159
-0.0120758
-0.126133
-0.238764
-0.34808
-0.448215
-0.530934
-0.587762
-0.616612
-0.621153
-0.611281
-0.594813
1.19405
1.09567
0.974776
0.839821
0.69758
0.553566
0.411166
0.271571
0.134206
-0.00277307
-0.140502
-0.278704
-0.41264
-0.532988
-0.626737
-0.68539
-0.707503
-0.703248
-0.685152
1.45163
1.32381
1.17719
1.02019
0.859576
0.700333
0.545034
0.393955
0.245671
0.0972246
-0.0541311
-0.210579
-0.370336
-0.525814
-0.661493
-0.761453
-0.81345
-0.821461
-0.800307
1.69559
1.54228
1.37066
1.1924
1.01471
0.841992
0.675968
0.516134
0.360487
0.205367
0.0468783
-0.119642
-0.296638
-0.481832
-0.662438
-0.819249
-0.926083
-0.969754
-0.957211
1.92481
1.73843
1.53999
1.34144
1.14914
0.966197
0.793227
0.628913
0.470928
0.315436
0.158312
-0.00636854
-0.184667
-0.381511
-0.593226
-0.80868
-0.996276
-1.12053
-1.14575
2.0788
1.84228
1.60298
1.3714
1.152
0.946153
0.753198
0.57116
0.39754
0.228764
0.0610791
-0.111143
-0.295092
-0.500626
-0.735382
-1.0067
-1.30275
-1.59648
-1.83593
2.1805
1.92095
1.67719
1.4558
1.25681
1.07829
0.917167
0.770327
0.634876
0.508041
0.387756
0.271516
0.156475
0.0379917
-0.0909303
-0.244541
-0.437869
-0.688478
-1.00488
2.26095
1.99152
1.75502
1.54877
1.3677
1.20733
1.06333
0.932311
0.811609
0.698975
0.593262
0.493633
0.399693
0.311621
0.23026
0.155283
0.0854799
0.0153029
-0.0661154
2.15346
1.84539
1.58601
1.36498
1.17407
1.00731
0.85958
0.727094
0.606957
0.496706
0.395057
0.301076
0.214226
0.134659
0.0634774
0.00189584
-0.0479897
-0.0839376
-0.10487
1.90144
1.61846
1.3845
1.18808
1.02066
0.876034
0.749211
0.636494
0.535182
0.443078
0.359001
0.28212
0.211831
0.147942
0.0906901
0.0400527
-0.00385968
-0.0409409
-0.0715628
1.58807
1.34857
1.15064
0.985293
0.845304
0.725182
0.62056
0.528159
0.445626
0.371046
0.303318
0.241631
0.185275
0.133831
0.0871861
0.0450474
0.00729226
-0.0260028
-0.0550725
1.20084
1.0151
0.863367
0.737925
0.632671
0.543006
0.465392
0.397187
0.336526
0.281896
0.232391
0.187334
0.146094
0.108271
0.0737151
0.0421862
0.0136178
-0.0118365
-0.0342622
0.758581
0.634573
0.536329
0.456666
0.390645
0.334849
0.28682
0.244775
0.207483
0.173957
0.143586
0.115917
0.0905158
0.067096
0.0455381
0.0256833
0.00749781
-0.00887401
-0.0234249
0.29191
0.242204
0.204179
0.173749
0.148605
0.127328
0.108968
0.0928595
0.0785467
0.0656652
0.0539807
0.0433137
0.0334877
0.0243777
0.0159141
0.008015
0.000642637
-0.00616708
-0.0124125
-0.291769
-0.241896
-0.203763
-0.173264
-0.148081
-0.126786
-0.108426
-0.0923299
-0.0780416
-0.0651942
-0.0535519
-0.0429338
-0.0331627
-0.0241127
-0.015713
-0.00788097
-0.000577626
0.00616291
0.0123403
-0.758451
-0.634304
-0.535968
-0.456247
-0.390195
-0.334389
-0.286365
-0.244338
-0.207075
-0.173586
-0.143261
-0.115644
-0.0902993
-0.0669408
-0.0454477
-0.0256599
-0.00754255
0.00876206
0.0232484
-1.20071
-1.01484
-0.863019
-0.737512
-0.632218
-0.542533
-0.464914
-0.396717
-0.336076
-0.281474
-0.232005
-0.18699
-0.145796
-0.108021
-0.0735148
-0.0420345
-0.0135124
0.0118997
0.0342879
-1.58798
-1.3484
-1.15041
-0.985022
-0.845008
-0.724877
-0.620258
-0.527872
-0.445364
-0.370816
-0.303127
-0.241486
-0.185178
-0.133782
-0.0871858
-0.0450923
-0.00737803
0.0258816
0.0549215
-1.90139
-1.61836
-1.38436
-1.1879
-1.02046
-0.87582
-0.748997
-0.63629
-0.534999
-0.442924
-0.358885
-0.282047
-0.211804
-0.147963
-0.0907556
-0.0401564
0.00372832
0.0407962
0.0714218
-2.15347
-1.84538
-1.58596
-1.36491
-1.17398
-1.00721
-0.859482
-0.727012
-0.606903
-0.49669
-0.395091
-0.30117
-0.214389
-0.134896
-0.0637888
-0.00226892
0.0475884
0.0835644
0.104591
-2.26096
-1.99135
-1.75461
-1.54809
-1.36674
-1.20612
-1.06187
-0.930628
-0.809729
-0.696921
-0.591054
-0.491287
-0.397218
-0.309025
-0.227564
-0.152559
-0.0829011
-0.0132383
0.0670565
-2.1809
-1.92202
-1.67896
-1.45827
-1.25994
-1.08205
-0.921513
-0.775222
-0.640288
-0.513952
-0.394168
-0.278462
-0.164038
-0.0463354
0.0815543
0.233767
0.425335
0.674022
0.98884
-2.07865
-1.84186
-1.60223
-1.37031
-1.15057
-0.944413
-0.751176
-0.568892
-0.395066
-0.226128
-0.0583243
0.113965
0.297926
0.503427
0.73816
1.00961
1.30621
1.60122
1.84292
-1.92495
-1.73877
-1.54049
-1.34207
-1.14987
-0.967007
-0.794096
-0.62983
-0.471887
-0.316438
-0.159368
0.00524806
0.18348
0.3803
0.592113
0.807896
0.996103
1.12114
1.14691
-1.69568
-1.54249
-1.37097
-1.19279
-1.01517
-0.842494
-0.676505
-0.5167
-0.361081
-0.20599
-0.0475324
0.118966
0.295976
0.481265
0.662101
0.819295
0.92659
0.970648
0.958305
-1.45172
-1.32402
-1.1775
-1.02059
-0.860042
-0.700846
-0.545579
-0.394523
-0.246252
-0.0978122
0.0535496
0.210031
0.369873
0.525518
0.661454
0.761728
0.81401
0.822197
0.801095
-1.19414
-1.09588
-0.975091
-0.840227
-0.698057
-0.554093
-0.411723
-0.272142
-0.134776
0.00222007
0.139988
0.278264
0.412325
0.532859
0.626834
0.685713
0.707995
0.703832
0.685772
-0.856248
-0.783435
-0.688205
-0.578553
-0.460938
-0.340631
-0.221051
-0.103685
0.0115645
0.125658
0.23835
0.347762
0.448033
0.530921
0.587929
0.616935
0.621583
0.61177
0.595337
-0.532023
-0.480291
-0.408076
-0.322036
-0.228267
-0.131804
-0.035977
0.05751
0.148381
0.236893
0.321814
0.40071
0.468087
0.518131
0.546602
0.555273
0.549056
0.535657
0.519546
-0.17452
-0.13659
-0.0830569
-0.0196772
0.0482351
0.116434
0.182438
0.244978
0.304056
0.359868
0.410936
0.455301
0.488713
0.507983
0.511878
0.503826
0.488059
0.470047
0.452134
0.183013
0.212719
0.252193
0.295447
0.338075
0.376922
0.410829
0.439431
0.463526
0.483761
0.499126
0.508739
0.509905
0.501567
0.48419
0.461271
0.435667
0.410841
0.387484
0.540186
0.602188
0.671784
0.738598
0.795237
0.836604
0.860758
0.867711
0.859457
0.838536
0.806914
0.766707
0.719073
0.666207
0.61048
0.554028
0.496377
0.43349
0.353902
0.807519
0.795858
0.771086
0.733687
0.686481
0.633259
0.578374
0.525499
0.477534
0.435709
0.399701
0.368008
0.338418
0.30887
0.277662
0.24283
0.201183
0.146154
0.0655049
1.1057
1.12734
1.13194
1.11811
1.08636
1.03882
0.978748
0.909946
0.836376
0.760867
0.685972
0.612823
0.541749
0.472479
0.404235
0.334586
0.259583
0.17311
0.0672847
1.37042
1.38554
1.37526
1.34134
1.28633
1.214
1.12884
1.03561
0.938842
0.841708
0.747173
0.65639
0.569697
0.486467
0.405468
0.32397
0.238954
0.147586
0.0496101
1.61008
1.61241
1.58393
1.52895
1.45152
1.35676
1.25014
1.1371
1.02243
0.909281
0.800605
0.697286
0.599418
0.506039
0.415781
0.326141
0.235211
0.142019
0.047452
1.84077
1.82343
1.77309
1.69502
1.59448
1.47792
1.35176
1.22184
1.09291
0.967761
0.848978
0.736915
0.63126
0.530696
0.433804
0.338267
0.242722
0.146502
0.0495712
2.05027
2.00802
1.93343
1.83097
1.70751
1.57101
1.42854
1.28593
1.14738
1.01496
0.890548
0.773754
0.663749
0.558834
0.457491
0.357398
0.257289
0.156251
0.0534725
2.17224
2.11096
2.01527
1.89293
1.75338
1.60558
1.45641
1.31086
1.17199
1.04066
0.917852
0.802315
0.692729
0.587069
0.483764
0.38043
0.275813
0.168819
0.0583253
2.31755
2.23275
2.10965
1.96286
1.8045
1.64409
1.48791
1.33973
1.20119
1.07177
0.951371
0.837806
0.729172
0.623019
0.517602
0.410321
0.299853
0.184971
0.0644303
2.44204
2.3203
2.16594
1.99567
1.82242
1.65496
1.49798
1.35327
1.22059
1.0978
0.983657
0.875017
0.769445
0.664096
0.557093
0.445632
0.328407
0.204177
0.0716987
2.50747
2.34674
2.16385
1.97632
1.79673
1.63166
1.48302
1.34995
1.22999
1.11931
1.01564
0.914964
0.814475
0.711047
0.602786
0.486763
0.361797
0.226715
0.0802976
2.51564
2.31861
2.11227
1.91597
1.74007
1.58723
1.45555
1.34113
1.23929
1.14464
1.05415
0.963129
0.868572
0.767204
0.657232
0.535646
0.401454
0.253543
0.0906092
2.50246
2.26551
2.04034
1.84364
1.68009
1.54682
1.43757
1.34549
1.264
1.18646
1.10943
1.02774
0.938341
0.837869
0.724691
0.595669
0.449962
0.286389
0.103333
2.43871
2.16543
1.93512
1.7527
1.6141
1.51014
1.43015
1.36487
1.30636
1.24724
1.18407
1.11144
1.02643
0.925654
0.807688
0.669194
0.509384
0.326821
0.119252
2.19789
1.92746
1.72669
1.58888
1.50002
1.44454
1.40795
1.37967
1.35133
1.31552
1.26941
1.20776
1.12806
1.02715
0.90393
0.754895
0.57924
0.375044
0.138842
1.96075
1.71371
1.56008
1.47903
1.44556
1.43924
1.44371
1.44862
1.44613
1.42938
1.39639
1.34219
1.26462
1.16058
1.0291
0.866154
0.670435
0.438836
0.165463
1.6692
1.47598
1.4002
1.39564
1.42784
1.47507
1.52184
1.55962
1.58204
1.58328
1.56228
1.51453
1.43813
1.32986
1.18861
1.0094
0.789696
0.524168
0.202709
1.18382
1.13453
1.18962
1.29127
1.40626
1.51749
1.61367
1.68947
1.74075
1.76333
1.757
1.71816
1.64503
1.53429
1.38433
1.18892
0.943167
0.638066
0.256152
0.715326
0.867752
1.06935
1.27625
1.46817
1.63671
1.77678
1.88636
1.96375
2.00651
2.01466
1.98584
1.9178
1.80675
1.6497
1.4382
1.16281
0.807697
0.341982
0.268793
0.651556
1.00304
1.31211
1.57815
1.8024
1.98662
2.13161
2.23812
2.30565
2.33389
2.32216
2.26726
2.16457
2.00863
1.78739
1.48339
1.0687
0.488851
-0.0664396
0.526113
1.00753
1.40559
1.73891
2.01601
2.24501
2.42849
2.56964
2.67028
2.72916
2.7481
2.72247
2.64658
2.511
2.29819
1.97701
1.49818
0.765917
-0.22757
0.501582
1.07676
1.54634
1.93959
2.2677
2.54386
2.77162
2.95681
3.10439
3.21216
3.28572
3.31938
3.30689
3.23369
3.07472
2.77722
2.2554
1.34321
-0.201441
0.566882
1.195
1.71862
2.16502
2.54317
2.86989
3.14968
3.39177
3.60603
3.79053
3.95715
4.10198
4.22176
4.29822
4.30009
4.14561
3.69241
2.66239
-0.0362165
0.692098
1.34091
1.90497
2.39868
2.82565
3.20547
3.54505
3.85828
4.16373
4.4629
4.77882
5.11921
5.49593
5.89843
6.30811
6.62317
6.63713
5.91286
0.165457
0.830849
1.49029
2.08933
2.62562
3.09878
3.53058
3.93496
4.3306
4.75358
5.21348
5.75368
6.42584
7.30625
8.48591
10.1965
12.7975
17.066
24.609
)
;

boundaryField
{
    up
    {
        type            calculated;
        value           nonuniform List<scalar> 
84
(
-24.609
-5.91286
-2.66239
-1.34321
-0.765919
-0.488852
-0.341983
-0.256152
-0.202708
-0.165461
-0.138841
-0.119251
-0.103333
-0.090609
-0.0802978
-0.0716991
-0.0644309
-0.0583262
-0.0534735
-0.0495724
-0.0474536
-0.0496132
-0.0672926
-0.0656154
-0.302061
-0.3634
-0.428503
-0.494228
-0.566904
-0.652524
-0.759134
-0.89481
-1.04938
-1.82384
-1.04161
-0.0681889
-0.1048
-0.0714644
-0.0550139
-0.0342441
-0.0234209
-0.0124169
0.0123447
0.0232445
0.03427
0.0548634
0.0713239
0.10452
0.0691031
1.02509
1.83214
1.05041
0.895763
0.75987
0.653121
0.567416
0.494699
0.42898
0.363836
0.303544
0.0655049
0.0672847
0.0496101
0.047452
0.0495712
0.0534725
0.0583253
0.0644303
0.0716987
0.0802976
0.0906092
0.103333
0.119252
0.138842
0.165463
0.202709
0.256152
0.341982
0.488851
0.765917
1.34321
2.66239
5.91286
24.609
)
;
    }
    low
    {
        type            calculated;
        value           nonuniform List<scalar> 
84
(
-0.149234
0.0605671
0.240982
0.270805
0.0937762
-0.273869
-0.757374
-1.25475
-1.75135
-2.02798
-2.25622
-2.48436
-2.51941
-2.51458
-2.49482
-2.41321
-2.27523
-2.12654
-1.99658
-1.77266
-1.53563
-1.29564
-1.03363
-0.745172
-0.491768
-0.165819
0.154687
0.482533
0.792124
1.12887
1.39675
1.64954
1.89229
2.06463
2.18132
2.27986
2.19203
1.94433
1.62724
1.23256
0.779848
0.30087
-0.300729
-0.779714
-1.23243
-1.62713
-1.94426
-2.19201
-2.27984
-2.18167
-2.06448
-1.89241
-1.64962
-1.39684
-1.12896
-0.792201
-0.482617
-0.154756
0.165668
0.491876
0.745066
1.03369
1.29565
1.53564
1.77267
1.99659
2.12655
2.27524
2.41322
2.49482
2.51459
2.51942
2.48435
2.25623
2.028
1.75137
1.25476
0.757387
0.273877
-0.0937717
-0.270805
-0.240985
-0.0605691
0.149234
)
;
    }
    left
    {
        type            calculated;
        value           nonuniform List<scalar> 
19
(
-0.14669
-0.797142
-1.46962
-2.08901
-2.64807
-3.14313
-3.59774
-4.02823
-4.45326
-4.9184
-5.43279
-6.04559
-6.82483
-7.87345
-9.30632
-11.45
-14.8035
-20.4521
-21.3446
)
;
    }
    right
    {
        type            calculated;
        value           nonuniform List<scalar> 
19
(
0.146691
0.797144
1.46962
2.08901
2.64807
3.14313
3.59774
4.02823
4.45326
4.91839
5.43278
6.04558
6.82482
7.87343
9.30631
11.45
14.8035
20.4521
21.3446
)
;
    }
    frontAndBackPlanes
    {
        type            empty;
    }
}


// ************************************************************************* //
