/*--------------------------------*- C++ -*----------------------------------*\
  =========                 |
  \\      /  F ield         | OpenFOAM: The Open Source CFD Toolbox
   \\    /   O peration     | Website:  https://openfoam.org
    \\  /    A nd           | Version:  7
     \\/     M anipulation  |
\*---------------------------------------------------------------------------*/
FoamFile
{
    version     2.0;
    format      ascii;
    class       volScalarField;
    location    "0.26";
    object      T;
}
// * * * * * * * * * * * * * * * * * * * * * * * * * * * * * * * * * * * * * //

dimensions      [0 0 0 1 0 0 0];

internalField   nonuniform List<scalar> 
1596
(
3.98961
3.9598
3.9293
3.90039
3.87367
3.8488
3.82525
3.80182
3.7776
3.75054
3.71901
3.68085
3.63116
3.56312
3.46615
3.31662
3.07048
2.63965
1.84766
3.95507
3.86227
3.77471
3.69413
3.62045
3.55241
3.48843
3.42593
3.36269
3.29488
3.21925
3.13185
3.02547
2.89121
2.71804
2.48502
2.15969
1.68622
0.958844
3.9142
3.75812
3.61772
3.49131
3.37699
3.27238
3.17495
3.08133
2.98854
2.89202
2.78794
2.67189
2.53663
2.37392
2.17472
1.92342
1.59857
1.16709
0.567306
3.87381
3.65845
3.47038
3.3037
3.15443
3.01908
2.89435
2.7764
2.66182
2.54587
2.42461
2.29367
2.14643
1.97584
1.77486
1.53218
1.23385
0.860534
0.376387
3.84025
3.57357
3.34376
3.14191
2.96244
2.80098
2.65369
2.51645
2.38564
2.25655
2.1253
1.98769
1.83777
1.66948
1.47725
1.25267
0.986362
0.666803
0.272729
3.81763
3.51053
3.24546
3.01305
2.80713
2.6229
2.45625
2.30295
2.15931
2.02072
1.88341
1.74334
1.59507
1.43328
1.25331
1.04855
0.812325
0.537398
0.210639
3.80655
3.47129
3.17791
2.91928
2.68988
2.48519
2.30112
2.13352
1.97876
1.83235
1.69064
1.54972
1.40453
1.25019
1.0826
0.896231
0.685941
0.446834
0.170308
3.80462
3.45301
3.13848
2.85793
2.60775
2.38432
2.18401
2.00296
1.83771
1.68396
1.53819
1.39658
1.25432
1.10684
0.950325
0.779894
0.591253
0.380755
0.14233
3.80946
3.45167
3.12278
2.82454
2.5561
2.31539
2.09962
1.90547
1.72978
1.56852
1.41832
1.27544
1.13526
0.993399
0.84618
0.68909
0.518298
0.330787
0.121903
3.81607
3.45879
3.12151
2.80994
2.52614
2.26993
2.03971
1.83293
1.64691
1.47796
1.32289
1.1781
1.03909
0.901627
0.762066
0.616106
0.460147
0.291469
0.106225
3.82141
3.46749
3.12616
2.80526
2.50918
2.23963
1.9964
1.77784
1.58192
1.40536
1.24523
1.09807
0.959545
0.82548
0.692265
0.5557
0.412291
0.259415
0.0936735
3.8281
3.47938
3.13654
2.80898
2.50293
2.2218
1.96672
1.73711
1.53162
1.34749
1.18209
1.03213
0.893416
0.761848
0.633805
0.505133
0.372357
0.23284
0.0834027
3.83447
3.49189
3.14921
2.81696
2.50284
2.21171
1.94602
1.7062
1.49167
1.30021
1.12955
0.976603
0.837292
0.707594
0.583859
0.461937
0.338322
0.2103
0.0747828
3.83842
3.50108
3.15934
2.82393
2.50346
2.20399
1.92909
1.68019
1.45748
1.25931
1.08377
0.927977
0.788013
0.659906
0.539975
0.424051
0.308568
0.190695
0.0673589
3.84178
3.50846
3.16754
2.82961
2.50384
2.19718
1.91419
1.65719
1.4271
1.22283
1.04283
0.884455
0.743906
0.617264
0.500808
0.39033
0.282186
0.173404
0.060871
3.84505
3.51504
3.17451
2.83416
2.50359
2.19046
1.90016
1.63582
1.39904
1.18924
1.00524
0.844585
0.70361
0.578425
0.46526
0.359849
0.25845
0.157936
0.0551215
3.84731
3.51975
3.17916
2.83634
2.50126
2.18218
1.88525
1.61428
1.3715
1.15681
0.969351
0.806851
0.665745
0.542164
0.432272
0.331733
0.23669
0.143853
0.0499391
3.84894
3.52295
3.18182
2.83633
2.4968
2.17209
1.86897
1.59193
1.34372
1.12471
0.934302
0.770383
0.629466
0.507683
0.401126
0.305371
0.216432
0.130842
0.0452005
3.85197
3.5279
3.18595
2.83742
2.49316
2.16264
1.8533
1.57025
1.31677
1.09362
0.900461
0.735297
0.594695
0.474768
0.371525
0.280444
0.197396
0.118709
0.0408299
3.85569
3.53431
3.19165
2.83991
2.49067
2.15412
1.8384
1.54928
1.29054
1.06332
0.867491
0.701163
0.560927
0.442862
0.342891
0.256404
0.179126
0.107155
0.0367246
3.85852
3.5399
3.19678
2.84193
2.48773
2.14515
1.8231
1.528
1.26412
1.03297
0.834614
0.667227
0.527414
0.411206
0.314459
0.232509
0.160979
0.095749
0.0327424
3.86138
3.54548
3.20202
2.84418
2.48505
2.13645
1.80807
1.50697
1.23794
1.00284
0.801915
0.633396
0.493884
0.379356
0.285611
0.207992
0.142142
0.083841
0.0286552
3.86468
3.55176
3.20808
2.84732
2.4833
2.12867
1.79388
1.4867
1.2124
0.973165
0.769438
0.59951
0.45997
0.34673
0.25553
0.181767
0.121273
0.0700896
0.0238176
3.86818
3.55839
3.21454
2.85089
2.48203
2.12141
1.78026
1.46697
1.18726
0.943653
0.736781
0.565006
0.424937
0.312413
0.22308
0.152349
0.0963253
0.0517495
0.0156287
3.87371
3.57221
3.23437
2.8745
2.50727
2.14632
1.80315
1.48649
1.20243
0.95392
0.742017
0.565544
0.421474
0.305894
0.214568
0.142891
0.0870265
0.0440196
0.0117033
3.87979
3.58992
3.2631
2.91297
2.55359
2.19808
1.85767
1.54104
1.25447
1.00131
0.783212
0.599755
0.448665
0.326672
0.229936
0.15395
0.0946769
0.0487984
0.0136076
3.88283
3.60046
3.28201
2.94037
2.58878
2.23962
1.90356
1.58891
1.30182
1.04581
0.822908
0.633326
0.475571
0.347144
0.244797
0.164274
0.101464
0.0527696
0.0150629
3.88285
3.60355
3.29053
2.95584
2.61176
2.2697
1.93948
1.62874
1.34324
1.08636
0.860272
0.665681
0.501812
0.367041
0.258928
0.173685
0.107285
0.055921
0.0161081
3.88091
3.60133
3.29151
2.96264
2.62591
2.29159
1.96844
1.66323
1.38109
1.12506
0.897256
0.698643
0.529063
0.387798
0.273436
0.182961
0.112664
0.0586031
0.0169106
3.87721
3.59519
3.28735
2.96383
2.6346
2.30868
1.99365
1.69532
1.41804
1.16435
0.93614
0.73444
0.559488
0.411382
0.289889
0.193143
0.118172
0.061093
0.0175745
3.87254
3.58745
3.28137
2.96327
2.64189
2.32498
2.01892
1.72848
1.45723
1.20715
0.979762
0.775959
0.596085
0.440773
0.31091
0.20611
0.124801
0.0637447
0.0181837
3.86892
3.58149
3.27756
2.96521
2.65205
2.34458
2.04803
1.76619
1.50187
1.25649
1.03117
0.826506
0.642633
0.48024
0.340879
0.225588
0.134854
0.0673231
0.018751
3.86553
3.57633
3.27518
2.96924
2.66493
2.36757
2.08128
1.80893
1.55267
1.3134
1.09189
0.888409
0.70267
0.53491
0.386504
0.259024
0.154735
0.0752719
0.0193492
3.86226
3.57207
3.2746
2.97596
2.68135
2.39491
2.11973
1.85788
1.61091
1.37935
1.16373
0.96414
0.779929
0.610731
0.457055
0.319608
0.200439
0.102726
0.0281575
3.85839
3.56606
3.27087
2.97795
2.69136
2.41419
2.14863
1.89607
1.65762
1.43349
1.22409
1.02947
0.84892
0.681826
0.527992
0.38678
0.258235
0.143729
0.0444389
3.8516
3.55165
3.25333
2.96065
2.67663
2.40343
2.14253
1.89475
1.66079
1.44057
1.23437
1.0422
0.863395
0.697435
0.544265
0.403181
0.273861
0.15659
0.0507108
3.84269
3.53177
3.22725
2.93173
2.64714
2.37484
2.11566
1.86992
1.63799
1.41952
1.21468
1.02345
0.845222
0.679643
0.526981
0.386942
0.259766
0.146362
0.0465045
3.8352
3.51516
3.20554
2.90771
2.62269
2.35117
2.09346
1.84948
1.61932
1.40249
1.19906
1.00904
0.831863
0.667316
0.515845
0.377314
0.252119
0.141293
0.0446506
3.82985
3.50289
3.18925
2.8895
2.60404
2.33303
2.07637
1.83372
1.60494
1.38941
1.18718
0.998238
0.822063
0.658504
0.508107
0.370808
0.247081
0.138036
0.0435164
3.82576
3.49353
3.17683
2.87562
2.5898
2.31916
2.0633
1.82164
1.59393
1.37943
1.17815
0.990094
0.814749
0.652002
0.502459
0.366104
0.243462
0.135711
0.0427203
3.82279
3.48672
3.16783
2.86561
2.57957
2.30922
2.05394
1.813
1.58605
1.37229
1.17171
0.984305
0.809567
0.647406
0.498471
0.362775
0.240888
0.134045
0.0421447
3.82036
3.48183
3.16178
2.85916
2.57316
2.3031
2.04827
1.80784
1.58142
1.36815
1.16804
0.981072
0.806739
0.64496
0.496403
0.361095
0.239622
0.133244
0.0418789
3.82036
3.48185
3.1618
2.85918
2.57318
2.30313
2.04829
1.80786
1.58144
1.36818
1.16806
0.981093
0.806758
0.644977
0.496417
0.361106
0.239629
0.133249
0.0418804
3.8228
3.48676
3.16788
2.86568
2.57965
2.3093
2.05402
1.81308
1.58613
1.37237
1.17178
0.98437
0.809626
0.647458
0.498514
0.36281
0.240914
0.13406
0.0421501
3.82579
3.4936
3.17692
2.87573
2.58992
2.31929
2.06343
1.82177
1.59406
1.37955
1.17826
0.990197
0.814841
0.652082
0.502526
0.366157
0.2435
0.135733
0.042728
3.82988
3.50297
3.18936
2.88964
2.6042
2.33319
2.07654
1.83388
1.60511
1.38957
1.18732
0.998372
0.822182
0.658607
0.508192
0.370875
0.247129
0.138065
0.043526
3.83524
3.51526
3.20569
2.90788
2.62289
2.35138
2.09366
1.84969
1.61953
1.40268
1.19924
1.0092
0.832006
0.667439
0.515946
0.377392
0.252174
0.141325
0.0446613
3.84274
3.53188
3.22742
2.93193
2.64736
2.37507
2.1159
1.87016
1.63822
1.41974
1.21488
1.02364
0.84538
0.679774
0.527086
0.387019
0.259817
0.146389
0.0465124
3.85165
3.55177
3.25351
2.96087
2.67687
2.4037
2.1428
1.89502
1.66104
1.44081
1.23459
1.04239
0.863551
0.697555
0.544346
0.403225
0.273874
0.156585
0.050704
3.85845
3.56625
3.27117
2.97833
2.69182
2.41471
2.1492
1.89668
1.65825
1.43414
1.22474
1.03012
0.849561
0.682454
0.528602
0.387356
0.258747
0.144116
0.0446065
3.86233
3.57228
3.27495
2.97642
2.68192
2.39557
2.12046
1.85866
1.61173
1.3802
1.16459
0.965003
0.78078
0.611554
0.457826
0.320292
0.200985
0.103084
0.0282872
3.86559
3.57652
3.27548
2.96964
2.66543
2.36815
2.08191
1.80961
1.55338
1.31412
1.09261
0.88911
0.703337
0.535521
0.387031
0.259438
0.155012
0.0754097
0.0193761
3.86897
3.58166
3.27784
2.96559
2.65252
2.34512
2.04863
1.76682
1.50253
1.25715
1.03181
0.827122
0.643198
0.480732
0.341276
0.225876
0.135032
0.0674093
0.0187732
3.87259
3.5876
3.28163
2.96362
2.64233
2.32549
2.01948
1.72907
1.45784
1.20776
0.980343
0.776498
0.596565
0.441175
0.311221
0.206329
0.124935
0.063813
0.0182031
3.87725
3.59533
3.28759
2.96416
2.63501
2.30916
1.99418
1.69587
1.4186
1.1649
0.936661
0.734914
0.5599
0.411718
0.290144
0.193322
0.118283
0.0611519
0.017592
3.88095
3.60145
3.29172
2.96294
2.62629
2.29203
1.96892
1.66374
1.38161
1.12556
0.897721
0.69906
0.529419
0.388085
0.273653
0.183113
0.112761
0.0586559
0.016927
3.88288
3.60366
3.29072
2.95611
2.6121
2.2701
1.93992
1.6292
1.3437
1.0868
0.860685
0.666047
0.502122
0.36729
0.259116
0.173819
0.107373
0.0559703
0.0161242
3.88285
3.60055
3.28218
2.9406
2.58908
2.23998
1.90396
1.58932
1.30223
1.04621
0.823273
0.633648
0.475842
0.347363
0.244965
0.164395
0.101546
0.0528178
0.0150797
3.87981
3.59
3.26324
2.91318
2.55386
2.1984
1.85802
1.54141
1.25483
1.00166
0.783535
0.600039
0.448905
0.326867
0.230088
0.154064
0.0947572
0.0488483
0.0136267
3.87371
3.57222
3.23441
2.87455
2.50734
2.1464
1.80325
1.48659
1.20254
0.954018
0.742104
0.565616
0.42153
0.305933
0.214591
0.142901
0.0870265
0.0440145
0.0116991
3.86817
3.55837
3.2145
2.85084
2.48197
2.12135
1.78019
1.4669
1.18718
0.943583
0.736716
0.564947
0.424882
0.312363
0.223036
0.152309
0.0962927
0.0517258
0.0156178
3.86468
3.55175
3.20808
2.84731
2.48329
2.12866
1.79387
1.4867
1.21239
0.973164
0.769441
0.599515
0.459977
0.346738
0.255539
0.181775
0.121279
0.0700938
0.0238187
3.86138
3.54547
3.20201
2.84417
2.48504
2.13645
1.80806
1.50697
1.23794
1.00284
0.801918
0.633402
0.493891
0.379363
0.285618
0.207998
0.142146
0.0838436
0.0286559
3.85852
3.53989
3.19677
2.84192
2.48772
2.14515
1.8231
1.528
1.26413
1.03297
0.834619
0.667233
0.52742
0.411212
0.314464
0.232513
0.160982
0.0957507
0.0327429
3.85569
3.5343
3.19165
2.83991
2.49067
2.15411
1.8384
1.54928
1.29054
1.06332
0.867495
0.701168
0.560932
0.442866
0.342895
0.256408
0.179128
0.107156
0.036725
3.85197
3.5279
3.18594
2.83742
2.49316
2.16264
1.8533
1.57025
1.31677
1.09362
0.900464
0.735301
0.594699
0.474772
0.371528
0.280447
0.197397
0.11871
0.0408301
3.84894
3.52295
3.18182
2.83633
2.4968
2.17209
1.86897
1.59193
1.34373
1.12471
0.934305
0.770386
0.629469
0.507686
0.401128
0.305372
0.216433
0.130842
0.0452006
3.84731
3.51975
3.17916
2.83634
2.50126
2.18219
1.88525
1.61429
1.3715
1.15681
0.969353
0.806854
0.665747
0.542165
0.432273
0.331734
0.23669
0.143853
0.0499391
3.84505
3.51504
3.17451
2.83416
2.50359
2.19046
1.90016
1.63583
1.39904
1.18924
1.00524
0.844587
0.703611
0.578426
0.465261
0.359849
0.25845
0.157936
0.0551215
3.84178
3.50846
3.16754
2.82961
2.50384
2.19718
1.91419
1.65719
1.42711
1.22283
1.04283
0.884456
0.743906
0.617264
0.500807
0.39033
0.282186
0.173404
0.0608709
3.83842
3.50108
3.15934
2.82393
2.50346
2.20399
1.92909
1.68019
1.45749
1.25931
1.08377
0.927976
0.788012
0.659906
0.539975
0.42405
0.308568
0.190695
0.0673589
3.83447
3.49189
3.14921
2.81696
2.50284
2.21171
1.94602
1.7062
1.49167
1.30021
1.12955
0.976602
0.837291
0.707593
0.583857
0.461935
0.338321
0.210299
0.0747828
3.8281
3.47938
3.13654
2.80898
2.50293
2.2218
1.96672
1.73711
1.53162
1.34749
1.18209
1.03213
0.893414
0.761847
0.633804
0.505132
0.372356
0.23284
0.0834028
3.82142
3.46749
3.12616
2.80526
2.50918
2.23963
1.99639
1.77784
1.58192
1.40536
1.24523
1.09807
0.959543
0.825478
0.692263
0.555699
0.41229
0.259414
0.0936737
3.81607
3.45879
3.12151
2.80994
2.52614
2.26993
2.0397
1.83293
1.64691
1.47796
1.32289
1.17809
1.03909
0.901624
0.762064
0.616104
0.460146
0.291469
0.106226
3.80946
3.45167
3.12277
2.82454
2.5561
2.31539
2.09962
1.90546
1.72978
1.56852
1.41831
1.27543
1.13525
0.993397
0.846178
0.689089
0.518297
0.330787
0.121903
3.80462
3.45301
3.13848
2.85793
2.60775
2.38432
2.184
2.00296
1.8377
1.68396
1.53819
1.39658
1.25431
1.10684
0.950324
0.779893
0.591253
0.380755
0.14233
3.80655
3.47129
3.17791
2.91927
2.68988
2.48519
2.30111
2.13352
1.97875
1.83234
1.69064
1.54972
1.40452
1.25019
1.0826
0.896231
0.685941
0.446835
0.170308
3.81763
3.51053
3.24546
3.01305
2.80712
2.6229
2.45625
2.30295
2.15931
2.02071
1.88341
1.74333
1.59507
1.43328
1.25331
1.04855
0.812326
0.537399
0.21064
3.84025
3.57357
3.34375
3.1419
2.96244
2.80098
2.65369
2.51645
2.38564
2.25655
2.1253
1.98769
1.83776
1.66948
1.47725
1.25267
0.986363
0.666804
0.272729
3.87381
3.65845
3.47038
3.30369
3.15443
3.01907
2.89434
2.7764
2.66181
2.54586
2.42461
2.29367
2.14643
1.97584
1.77486
1.53218
1.23385
0.860534
0.376387
3.9142
3.75811
3.61772
3.49131
3.37699
3.27238
3.17494
3.08133
2.98853
2.89202
2.78794
2.67189
2.53663
2.37392
2.17472
1.92342
1.59857
1.16709
0.567306
3.95507
3.86227
3.77471
3.69413
3.62045
3.55241
3.48843
3.42593
3.36269
3.29488
3.21925
3.13185
3.02547
2.89121
2.71804
2.48502
2.15969
1.68622
0.958844
3.98961
3.9598
3.9293
3.90039
3.87367
3.8488
3.82525
3.80182
3.7776
3.75054
3.71901
3.68085
3.63116
3.56312
3.46615
3.31662
3.07048
2.63965
1.84766
)
;

boundaryField
{
    up
    {
        type            fixedValue;
        value           uniform 0;
    }
    low
    {
        type            fixedValue;
        value           uniform 4;
    }
    left
    {
        type            fixedValue;
        value           uniform 4;
    }
    right
    {
        type            fixedValue;
        value           uniform 4;
    }
    frontAndBackPlanes
    {
        type            empty;
    }
}


// ************************************************************************* //
