/*--------------------------------*- C++ -*----------------------------------*\
  =========                 |
  \\      /  F ield         | OpenFOAM: The Open Source CFD Toolbox
   \\    /   O peration     | Website:  https://openfoam.org
    \\  /    A nd           | Version:  7
     \\/     M anipulation  |
\*---------------------------------------------------------------------------*/
FoamFile
{
    version     2.0;
    format      ascii;
    class       volScalarField;
    location    "0.104";
    object      gradTz;
}
// * * * * * * * * * * * * * * * * * * * * * * * * * * * * * * * * * * * * * //

dimensions      [0 -1 0 1 0 0 0];

internalField   nonuniform List<scalar> 
1596
(
-9.67969e-16
-4.62457e-16
4.78944e-16
1.85942e-17
-8.89162e-16
0
-4.01235e-16
-3.95854e-16
-3.83997e-17
-2.15005e-16
-1.16938e-18
-2.16076e-16
9.67907e-16
-2.16227e-16
1.00492e-15
8.71388e-16
5.19488e-16
6.59397e-16
0
9.57761e-16
0
1.29289e-15
-1.51529e-17
-3.7395e-16
3.68878e-16
7.92104e-16
3.72971e-17
3.69093e-16
-1.80462e-16
3.62049e-16
-3.34195e-18
-5.05206e-16
-3.18882e-16
-8.11222e-16
-7.95952e-16
-7.27104e-16
4.16197e-16
0
-4.56882e-16
0
-8.16241e-16
2.37799e-17
7.00412e-16
-2.19312e-16
2.77298e-17
-4.60334e-18
-3.70509e-18
-3.26615e-18
1.17516e-16
0
2.61738e-16
7.32811e-16
-7.2963e-17
6.09855e-17
1.42181e-16
2.30065e-16
0
7.34375e-16
-2.02681e-16
2.0194e-16
0
-1.87844e-16
-2.00245e-16
3.06099e-16
-2.41686e-16
0
0
-1.19317e-16
6.16908e-17
0
-2.10594e-16
-2.57571e-16
1.83955e-16
-2.04082e-16
-1.04035e-17
0
1.30199e-16
3.16368e-16
-2.60501e-16
0
-6.89399e-17
-2.1447e-16
0
3.03919e-16
-2.88802e-17
-2.62327e-17
-4.92081e-17
1.49242e-16
1.93703e-16
2.23875e-17
2.46599e-17
-1.98731e-16
9.83978e-18
9.31904e-17
-4.19143e-17
-3.38107e-17
-4.30769e-16
3.82464e-16
-3.05205e-16
-1.15958e-18
-2.33042e-16
6.29613e-18
-6.31703e-18
-1.61845e-16
0
-3.98793e-17
-1.78511e-16
-1.74207e-16
1.31116e-16
1.61231e-16
-2.13228e-18
-9.70343e-17
-9.45217e-17
7.37163e-17
2.82562e-16
-4.36007e-16
4.47599e-16
2.31516e-16
0
1.81688e-16
9.61436e-17
-4.48163e-17
2.02887e-16
-3.61563e-17
-1.6306e-16
9.2365e-19
-8.9348e-17
-1.31556e-16
-9.48761e-17
8.64978e-17
9.78884e-17
-1.34728e-18
-2.99142e-17
4.47894e-17
7.02196e-16
-7.52677e-16
0
0
-2.06975e-16
0
0
0
1.05792e-16
0
0
8.39564e-17
1.74044e-18
3.54201e-17
-7.6844e-17
0
4.08723e-17
1.76398e-17
0
-4.35257e-16
8.18963e-16
0
0
2.13156e-16
0
-6.35745e-17
6.35102e-17
-1.07681e-16
4.09143e-17
-4.12135e-17
0
5.84542e-17
7.19963e-17
0
-4.11842e-17
-4.16912e-17
-1.56583e-17
1.16976e-15
-5.30916e-16
0
-2.92046e-16
2.88777e-16
0
1.60982e-16
0
0
0
3.34431e-17
-3.36034e-17
0
-4.59829e-17
-1.20725e-17
0
1.05715e-17
2.15943e-17
0
-2.97306e-16
0
0
2.95292e-16
-5.24273e-16
4.8371e-17
1.96384e-17
-5.51015e-17
1.16267e-17
4.19542e-18
-3.43323e-17
-4.70433e-17
0
3.37051e-17
-7.79481e-18
7.9118e-18
2.6348e-17
-1.74965e-17
-7.32858e-18
2.14499e-16
-4.19706e-17
2.07825e-16
6.35476e-16
-6.02941e-17
-2.32741e-16
0
0
0
7.25067e-17
2.41895e-17
8.18559e-17
-1.94086e-17
-3.31022e-17
-1.63714e-17
-1.05283e-17
4.85975e-18
-1.11869e-17
6.84183e-18
-2.58043e-16
2.54389e-16
-4.51394e-16
-6.29637e-16
5.55656e-16
1.79575e-16
-3.12735e-16
2.35823e-16
-1.76345e-16
4.68032e-17
2.80538e-17
-2.29517e-17
1.02925e-17
-1.02759e-17
3.18333e-17
0
-2.558e-18
2.02409e-17
-3.08766e-18
-1.77381e-15
7.84087e-16
5.00793e-19
-1.30578e-16
3.23691e-17
1.75071e-16
-3.21513e-16
-1.10605e-16
8.09012e-17
-5.84154e-17
-4.22729e-17
0
-3.77741e-17
-1.05173e-17
-1.60708e-17
-9.20964e-18
7.03926e-19
-1.03673e-17
8.62534e-19
2.8978e-16
-2.4277e-16
-5.57101e-20
-1.59579e-16
-3.47515e-16
3.15363e-16
1.75188e-18
1.07784e-16
-7.8768e-17
1.11241e-16
2.40325e-17
1.69713e-17
4.11558e-17
0
2.75526e-17
1.22357e-17
0
4.91928e-18
5.79681e-19
0
2.35515e-16
1.5704e-16
-3.43177e-16
3.35424e-16
-4.66833e-16
2.99309e-16
8.74843e-17
-2.3976e-17
-1.14433e-16
1.53787e-17
-1.53028e-17
-3.54749e-17
1.16495e-17
-6.03636e-18
-1.10932e-17
4.06523e-18
-2.56897e-18
1.37895e-18
-2.69263e-16
8.27797e-16
-6.2515e-16
2.92678e-16
0
0
-4.88748e-17
1.11458e-16
-5.75921e-17
1.02716e-16
0
0
2.2571e-17
-1.76442e-17
-9.73404e-18
3.06101e-18
-3.22795e-18
1.77397e-18
0
3.73561e-17
2.52128e-16
-1.75846e-16
-1.4212e-16
-1.91521e-16
-3.57879e-17
7.99167e-17
0
-5.25352e-17
-3.35097e-17
2.80594e-17
-1.87668e-17
1.24476e-17
0
3.99315e-18
6.0731e-18
0
0
0
-3.65072e-17
3.43151e-16
1.0016e-16
-4.32443e-16
1.01537e-16
7.83038e-17
0
0
4.77011e-17
-2.57329e-17
-2.71395e-17
1.81509e-17
-1.20378e-17
0
-1.98734e-18
1.37737e-18
0
-1.04495e-18
-3.72077e-19
-2.00226e-16
5.88645e-16
-6.6869e-16
-2.22529e-16
1.22204e-16
-7.02737e-17
5.06199e-17
0
-2.43858e-17
1.77974e-17
0
0
3.91249e-18
-3.917e-18
7.97649e-19
-1.31118e-18
1.39384e-18
2.97022e-19
2.84407e-19
1.10789e-16
-9.23516e-17
4.17587e-16
-2.64324e-16
-8.78632e-17
1.81089e-17
1.0968e-16
3.18342e-17
2.33335e-17
0
8.00371e-18
-7.242e-18
4.65912e-18
-3.23498e-18
2.84808e-18
-4.31388e-18
-1.06712e-18
8.76092e-19
2.01832e-19
2.81636e-16
-2.93118e-16
0
1.9313e-16
-1.07293e-16
-6.1516e-17
2.8447e-17
-1.02216e-16
0
-1.64564e-18
-1.05675e-17
-5.63537e-18
6.16871e-18
-8.07783e-19
-2.75262e-18
1.69283e-18
0
4.25949e-19
-1.95977e-19
5.19831e-16
-8.23597e-17
3.02123e-16
-2.33918e-16
9.45618e-17
-9.89664e-18
-9.37664e-17
-2.17821e-17
3.58816e-17
-2.39113e-18
-1.21687e-17
9.09545e-18
-3.46824e-18
-3.1877e-18
0
0
0
-4.28781e-19
1.47554e-20
-4.36703e-16
4.18277e-16
1.77858e-19
4.86326e-17
3.62338e-17
-6.94685e-17
7.25949e-17
-4.86928e-17
3.45044e-17
-7.67695e-18
1.39956e-17
3.49269e-18
-1.23588e-18
6.90859e-20
-2.06737e-19
-3.92369e-19
0
0
0
0
0
1.64142e-16
-1.04664e-16
-2.18327e-16
0
0
-1.38107e-17
-1.76299e-17
1.17692e-17
0
-4.40492e-18
2.68358e-18
-6.64073e-18
7.20052e-18
-1.70288e-18
1.79869e-18
1.66624e-19
0
-8.42703e-17
8.53075e-17
0
-5.26263e-17
5.15385e-17
6.99843e-17
0
1.39426e-17
1.12325e-17
-5.70374e-17
0
-5.22277e-18
3.21378e-18
1.72894e-18
-1.04057e-18
1.30533e-18
0
-3.74497e-19
0
-4.34371e-17
-3.97836e-17
2.34704e-18
5.40721e-17
-1.26233e-16
0
-2.34222e-17
0
4.30478e-17
1.34324e-17
0
2.0549e-17
-1.8275e-17
2.46111e-18
-1.86906e-18
1.21171e-18
2.50188e-18
7.57473e-19
-6.00822e-19
0
8.63458e-17
-6.5349e-17
7.93484e-17
7.89221e-17
0
4.62141e-17
-4.06696e-17
-2.36718e-17
2.6866e-17
-3.94138e-17
-1.39768e-17
0
0
1.48687e-18
0
0
2.91774e-19
0
-3.99462e-16
3.10169e-16
0
7.65494e-18
-4.37707e-17
-2.10556e-18
3.19833e-17
1.58582e-17
-2.45152e-17
-4.1231e-17
5.09799e-17
-1.4374e-17
0
-3.90104e-18
0
0
0
-1.1446e-18
9.19763e-19
-1.1695e-16
1.02129e-16
2.43716e-16
-2.29513e-16
6.36834e-17
5.75007e-18
-3.23538e-17
2.35429e-17
3.33916e-17
2.03734e-17
-3.94749e-17
0
1.18042e-17
-8.12353e-19
-4.45878e-18
-7.03835e-18
5.50988e-18
-5.75649e-19
1.22889e-18
-4.1024e-16
5.18283e-16
-5.05229e-16
7.88891e-17
5.79602e-17
-5.1915e-17
4.02878e-17
-2.59493e-17
0
-1.64491e-17
1.99315e-17
8.37246e-18
1.15647e-17
1.04818e-17
-1.48883e-17
-8.33682e-19
0
-5.80816e-19
2.00894e-19
-4.43348e-16
-1.19637e-16
-1.87543e-16
1.04558e-16
-1.41003e-16
1.0799e-16
-6.05653e-17
4.25808e-17
-5.2548e-18
-4.90271e-18
-2.36005e-17
1.54171e-17
-4.49014e-18
1.54565e-17
-1.65927e-17
9.04464e-19
1.38849e-18
0
-3.82998e-19
4.79356e-16
-1.30306e-16
0
0
-1.44669e-16
2.71122e-16
-5.8461e-17
-8.919e-18
6.64713e-17
-2.1519e-18
0
0
-8.92127e-18
0
-1.5793e-17
3.50623e-17
-2.32406e-17
0
1.79188e-19
1.5888e-16
2.81e-16
0
-1.05518e-16
-7.32479e-17
-5.48261e-17
-6.16583e-17
2.14957e-17
-5.62044e-17
-2.57588e-17
0
0
1.59462e-17
0
0
-2.38527e-17
4.01474e-17
0
0
1.09167e-15
-1.53791e-16
-6.09442e-16
-2.89741e-16
3.9666e-16
1.11552e-16
5.97854e-17
0
-1.79409e-17
1.50744e-17
3.7723e-17
-1.15197e-17
-1.39929e-17
2.07168e-17
-2.20363e-17
-5.57492e-18
0
0
0
8.74099e-17
-6.43311e-16
6.268e-16
-5.5366e-17
-3.87628e-16
5.84235e-16
-2.81624e-16
0
0
1.09738e-16
-8.69458e-17
0
-2.09145e-17
3.74882e-17
-3.37605e-18
9.98615e-18
2.85472e-18
4.63804e-20
5.76219e-19
0
0
0
4.75206e-16
-3.21036e-16
2.92207e-16
-4.45627e-16
1.20716e-16
0
-3.59307e-17
5.18984e-17
-5.30433e-17
-9.08345e-18
4.31178e-19
-5.56844e-18
-6.40209e-19
-4.41326e-18
-1.28093e-18
-6.73683e-19
7.19024e-16
-1.25293e-15
5.79498e-16
0
1.30582e-16
-1.795e-16
1.58475e-16
-1.25135e-16
0
-4.95673e-17
6.97699e-17
0
0
3.99512e-19
0
-6.40323e-18
4.30675e-18
6.21057e-19
1.09844e-18
7.27233e-16
0
-2.53149e-16
2.82017e-16
-1.57976e-16
3.37261e-16
-1.54317e-16
-1.06407e-16
1.07519e-16
-1.00525e-17
0
0
5.52935e-18
-8.5579e-18
-5.90967e-18
1.10328e-17
-2.37411e-18
1.14304e-18
0
4.11942e-16
2.97301e-16
-2.30468e-17
-2.70336e-16
-2.51396e-17
-1.67517e-16
2.61916e-17
1.3236e-16
-6.28123e-18
1.02412e-17
0
0
-5.66445e-18
0
6.3101e-18
-6.7503e-18
0
8.46125e-19
-2.31035e-19
-2.18446e-16
-1.49433e-16
1.40162e-16
-1.48838e-17
-6.35325e-18
1.61919e-17
0
-3.8267e-18
5.27327e-17
-4.43785e-17
0
1.29686e-17
-2.9414e-18
-1.10348e-17
-9.73491e-19
-7.45516e-19
0
-6.64584e-19
0
8.61858e-17
-1.60745e-16
1.16551e-18
6.45684e-17
5.34836e-17
-5.2811e-17
-3.35852e-17
3.78832e-17
-1.16718e-17
9.22197e-18
-8.03224e-18
8.27997e-18
0
1.92519e-20
-7.17063e-19
2.56456e-18
-8.63964e-21
0
0
8.61889e-17
-8.58659e-17
-6.42242e-17
5.70998e-17
9.42095e-17
-9.47656e-17
-1.67934e-17
1.68371e-17
-1.17733e-17
1.18956e-17
-8.03276e-18
1.48756e-17
-4.17317e-18
-2.83312e-18
-8.27659e-19
2.83607e-19
6.45664e-19
1.68635e-19
-1.2627e-19
0
-2.00061e-17
1.11355e-16
-1.21295e-16
9.37769e-17
-8.34912e-17
0
5.57438e-17
-5.01078e-17
0
1.58303e-17
-1.99113e-17
-1.05311e-17
1.10373e-17
1.91489e-18
0
0
-6.64843e-19
2.40518e-19
3.42577e-16
-6.18362e-16
6.03136e-16
-5.04051e-16
1.93698e-16
-1.46249e-16
1.3962e-16
1.49438e-17
-5.16562e-17
4.59688e-17
0
-2.84984e-17
2.60299e-17
-4.56764e-18
-1.87564e-18
2.77753e-18
2.00963e-18
6.45436e-19
-2.32395e-19
8.18075e-16
0
-2.87267e-16
2.23678e-16
2.48517e-17
-1.74954e-16
3.00315e-16
-2.50354e-16
9.55387e-17
-3.59125e-17
3.67596e-17
6.79756e-18
1.06899e-17
4.44893e-18
-3.39429e-18
-5.30971e-19
-4.31394e-18
0
4.0776e-19
6.29401e-16
-7.08565e-16
0
5.75952e-17
2.27993e-16
-2.20454e-16
3.39934e-17
2.8078e-17
1.17528e-17
1.87522e-17
0
0
-1.83234e-17
3.2664e-17
-1.1622e-17
-3.93662e-18
4.30994e-18
3.34036e-19
-7.63331e-19
8.87535e-17
6.23383e-16
-6.65812e-17
-4.18663e-16
3.68905e-16
4.00991e-17
-3.32687e-17
-2.74238e-17
8.00675e-17
-9.89354e-17
5.19317e-17
-5.30766e-17
6.81969e-18
-9.86542e-18
1.53477e-17
-1.03496e-17
0
0
6.2995e-19
0
1.51915e-16
-4.18919e-16
4.80957e-16
-3.41315e-16
3.40502e-16
0
9.37277e-17
-9.41572e-17
-6.01742e-17
8.70451e-17
0
2.96601e-17
-3.75356e-17
-5.3085e-18
0
-5.12705e-19
-8.55063e-19
-1.10253e-19
-1.51216e-15
7.0201e-16
0
-3.96646e-16
3.96607e-16
2.10072e-16
-1.37037e-16
4.80309e-17
0
-1.77278e-18
1.00228e-17
-1.15112e-17
-1.3985e-17
2.07042e-17
-2.20155e-17
0
3.68197e-18
-4.69321e-19
-5.38903e-19
9.13953e-16
-8.83449e-16
0
1.03601e-16
8.66994e-17
-7.48134e-17
0
-5.03368e-17
-3.65949e-17
0
-3.77446e-18
0
1.59652e-17
0
0
4.70603e-18
1.67731e-17
-2.22845e-17
0
-5.10697e-20
1.30375e-16
-1.1165e-16
7.67879e-17
-3.97546e-16
1.44534e-16
0
8.9295e-18
2.44781e-17
0
-2.01701e-17
4.63518e-17
-4.86953e-17
6.28961e-18
0
-1.44653e-18
0
0
0
-1.00776e-20
0
1.03193e-16
0
-1.26083e-16
1.28087e-16
0
3.27086e-17
-2.22078e-17
7.32225e-17
-3.37473e-17
9.12569e-18
-1.26394e-17
9.79325e-18
-1.66347e-17
-2.4329e-18
0
-8.81826e-19
0
3.45602e-16
-5.86923e-16
0
-7.76075e-17
6.23462e-17
0
0
-5.78854e-17
0
-1.64716e-17
-1.99622e-17
-8.38735e-18
1.15883e-17
0
3.69782e-18
0
0
1.76349e-18
-1.76805e-18
0
4.78159e-16
-3.79551e-16
7.18468e-17
-5.7733e-17
-1.92375e-17
5.19284e-17
4.91893e-17
-4.81911e-17
1.51146e-17
2.79136e-18
-7.96686e-18
3.09592e-17
-9.26999e-18
-1.57095e-17
4.76151e-18
-8.48861e-19
5.24323e-19
-1.15881e-19
-8.54185e-16
3.10425e-16
0
0
2.23218e-17
-2.26987e-17
1.05997e-17
3.29242e-18
4.08372e-17
1.63767e-17
-1.48886e-17
-1.54855e-18
-5.09564e-18
3.90952e-18
0
1.12208e-18
7.78043e-19
3.16532e-19
1.0474e-19
0
2.52172e-16
-2.1784e-16
6.63396e-17
5.54777e-17
-1.02144e-17
-2.62193e-17
-1.87403e-17
-4.97395e-17
1.56891e-17
-5.7636e-18
1.05192e-17
4.76506e-18
-4.1371e-18
4.39128e-18
1.79984e-18
-2.57959e-18
-2.92364e-19
0
-5.00012e-17
-2.04185e-16
6.59375e-17
5.40915e-17
-1.57928e-16
1.0564e-16
3.82313e-17
-3.90782e-17
2.24755e-17
-1.48897e-17
0
0
-5.54864e-18
9.16366e-18
-3.55047e-18
2.32185e-18
-2.56523e-18
3.39691e-19
-6.01776e-19
9.102e-17
7.89017e-17
-6.46679e-17
3.86109e-17
-5.21571e-17
-5.89157e-17
0
0
0
0
0
0
2.86518e-18
-5.69462e-18
6.02269e-18
-1.35643e-18
1.72138e-18
6.61372e-19
-5.51486e-19
1.93837e-16
-2.82804e-16
3.50378e-16
-1.26436e-16
1.79252e-16
-9.38211e-17
1.6164e-16
-8.00906e-17
-2.85883e-17
2.92446e-17
0
4.40262e-18
-2.79913e-18
4.95584e-18
-2.27987e-18
-2.00238e-18
-3.02874e-18
2.63092e-19
4.55778e-19
3.04541e-16
7.7909e-17
0
-9.71694e-17
-6.15672e-17
1.30348e-16
4.38668e-18
-3.6842e-17
1.92748e-17
-1.0085e-17
0
-3.48517e-18
0
-1.85711e-18
1.30257e-18
-9.5356e-19
-2.89931e-19
1.62463e-19
0
4.21343e-16
-8.23584e-17
3.02383e-16
-2.34478e-16
-3.88326e-17
1.22745e-16
-7.29065e-17
5.41696e-18
3.57911e-18
-1.0252e-17
9.01963e-18
0
0
2.5595e-18
-5.83596e-19
2.91614e-19
1.03836e-18
-3.50943e-19
0
4.94162e-20
0
-7.00769e-17
3.58003e-16
-2.33678e-16
-1.94635e-16
1.04678e-16
-7.76509e-17
6.78007e-17
2.5829e-17
-1.5587e-17
5.34079e-18
-4.23842e-18
9.90749e-19
4.37766e-18
-6.58086e-20
-1.08779e-18
1.01376e-18
-2.16683e-19
9.94602e-16
-3.10129e-16
1.18063e-16
-3.80579e-16
8.78629e-17
-1.15699e-16
6.6095e-17
0
0
-1.85456e-18
-3.09724e-18
-8.43558e-19
0
-4.58178e-18
-2.84813e-18
1.74923e-18
-1.1442e-19
2.91018e-19
4.67614e-19
0
-2.94392e-16
4.44072e-16
6.70093e-17
-3.15944e-16
7.02736e-17
-8.8837e-17
2.56919e-17
6.15783e-17
0
0
8.82622e-19
6.08015e-18
0
-3.50208e-18
-1.30243e-18
2.06762e-19
-4.78951e-19
-6.3389e-19
0
-1.71984e-16
6.73247e-17
3.00116e-16
1.78734e-16
-3.12927e-16
1.32563e-16
-6.88949e-17
3.90755e-17
-3.99766e-17
0
0
0
-7.95169e-18
1.16682e-18
-1.99717e-18
0
-9.82182e-20
4.72044e-19
-7.35341e-16
6.82701e-16
6.34581e-16
-7.62587e-16
2.98779e-16
-2.72016e-16
0
7.5015e-17
-9.66648e-17
4.91476e-17
-3.03704e-17
2.06431e-17
1.39595e-17
8.2238e-18
5.46405e-18
0
0
0
0
8.45391e-16
-4.50756e-16
0
0
-1.1534e-16
2.39976e-16
-1.51103e-16
-8.14175e-17
8.04997e-17
4.58038e-17
6.53169e-17
-2.14193e-17
8.08972e-18
4.80451e-18
3.04547e-18
2.53478e-18
3.91286e-18
-1.80102e-19
1.8345e-19
-8.42677e-16
7.45122e-16
3.49614e-16
-1.88608e-16
3.34372e-16
-2.11259e-16
-1.39271e-16
-1.02453e-16
0
-9.65921e-17
8.60932e-18
2.63698e-17
-1.67648e-17
-1.16499e-17
-3.818e-18
-3.33146e-18
-2.68436e-18
0
0
-2.89855e-16
0
1.98545e-16
2.36384e-19
0
0
1.43663e-16
1.05717e-16
0
5.4414e-17
0
-3.9452e-17
-9.62715e-18
1.62787e-17
0
9.60438e-18
-1.27749e-18
1.30321e-18
0
6.32649e-16
0
3.68409e-16
-6.56651e-16
5.44578e-16
3.73224e-16
-2.22113e-17
0
1.2076e-17
7.03327e-17
0
-4.77865e-17
4.693e-17
-3.93972e-17
-8.14457e-18
-7.49654e-18
-2.50006e-18
-5.14641e-19
-2.43641e-18
-5.59376e-16
7.97857e-16
-2.06637e-16
-4.97007e-16
-2.61851e-16
-2.02783e-16
-3.08473e-16
-1.01625e-16
1.53063e-17
2.81067e-17
-2.80539e-17
7.40461e-17
-3.12198e-17
5.65771e-17
-1.04039e-17
0
1.44739e-17
-9.50298e-18
2.32182e-18
1.30107e-15
-4.15111e-17
-8.67107e-16
6.3548e-16
-5.31113e-16
4.15209e-16
-2.28095e-17
-1.21806e-16
9.37251e-17
3.08812e-17
-6.68335e-18
-6.43731e-17
1.61347e-17
2.28561e-17
-5.71999e-18
5.78523e-18
-1.49914e-17
-4.64164e-18
-5.73033e-18
6.38711e-16
2.48681e-16
4.07216e-16
-3.26228e-16
-2.32929e-16
2.55964e-17
-1.41707e-16
3.33993e-16
1.77253e-17
1.23244e-16
6.63173e-17
-5.61553e-17
0
-3.37061e-17
0
0
3.15223e-17
1.25809e-17
6.53084e-18
5.83204e-16
0
3.97075e-16
3.24123e-16
-2.59157e-16
2.04845e-16
0
-1.26752e-16
-1.63196e-16
-1.2815e-16
-6.69043e-17
5.67903e-17
0
0
0
0
-2.97179e-17
-2.92665e-17
0
-1.14154e-15
0
-3.60846e-17
-3.28218e-17
4.00268e-16
-1.91641e-16
-8.11132e-17
-8.24462e-17
1.70507e-16
0
4.09142e-17
-4.09637e-18
4.45713e-17
0
0
6.49158e-17
-5.00002e-18
3.52548e-17
-1.72228e-17
7.92553e-16
2.08152e-16
-2.06003e-16
-1.66833e-16
-5.09737e-16
3.23524e-16
3.56937e-16
-1.83862e-17
-1.21556e-16
1.27983e-16
2.52048e-17
-1.37028e-16
-1.03675e-16
-7.8467e-17
-8.59306e-17
-7.51861e-17
7.74836e-17
-3.5272e-18
1.76398e-17
-2.37333e-16
1.00649e-16
-4.71244e-16
7.09359e-17
-7.06778e-17
0
-1.80942e-16
-2.61386e-17
-1.66878e-16
2.99055e-17
1.63059e-16
1.08673e-16
-2.9655e-17
-3.24445e-18
8.07686e-17
0
-1.72131e-16
-7.04992e-17
-1.42461e-18
5.00734e-16
-1.23351e-17
7.41226e-16
-3.3313e-16
1.15957e-18
7.93118e-18
2.29914e-16
-3.49542e-17
1.61844e-16
-1.50625e-16
-1.43368e-16
0
1.74204e-16
1.28913e-16
2.05918e-18
-3.03984e-18
9.79882e-17
7.16207e-17
0
-3.51862e-16
0
-6.46094e-17
3.22565e-16
7.84702e-18
6.9032e-17
-2.22323e-16
2.05059e-16
2.39005e-16
2.31342e-16
2.26819e-16
0
-1.69236e-16
0
1.05144e-17
-1.09201e-17
0
-1.16407e-18
5.9521e-17
2.55191e-16
2.26701e-17
-1.68433e-16
5.34053e-16
-1.66459e-16
0
0
-2.94894e-16
-2.31571e-16
-2.24119e-16
-4.37132e-16
-6.16904e-17
0
0
0
-2.3791e-17
2.51768e-17
1.69423e-16
-6.04687e-17
2.4083e-17
0
-3.92951e-16
-3.35407e-16
3.66818e-16
-3.66926e-16
-5.15658e-16
6.02698e-16
1.86055e-16
0
2.69559e-16
3.35739e-16
-7.23221e-17
4.04534e-16
-6.70724e-17
6.9806e-17
2.81203e-16
-1.61015e-16
0
-4.83149e-16
0
-4.50912e-16
4.37235e-16
0
7.41819e-16
3.3989e-16
-7.42485e-16
6.20717e-16
-2.34857e-18
-1.8231e-16
-3.25064e-16
0
4.92053e-16
-8.11222e-16
8.75257e-16
-1.11657e-15
0
0
4.83725e-16
-5.75116e-18
-1.39706e-17
-8.98699e-16
9.1778e-16
-4.36528e-16
4.34748e-16
4.28862e-16
-3.55853e-16
0
0
7.37105e-16
-7.49804e-16
-7.82413e-16
7.81188e-16
-7.65396e-16
8.31504e-16
-1.30628e-15
0
)
;

boundaryField
{
    up
    {
        type            calculated;
        value           nonuniform List<scalar> 
84
(
0
0
0
0
-4.19143e-17
7.37163e-17
-2.99142e-17
1.76398e-17
-1.56583e-17
0
-7.32858e-18
6.84183e-18
-3.08766e-18
8.62534e-19
5.79681e-19
1.37895e-18
0
0
-3.72077e-19
2.84407e-19
2.01832e-19
-1.95977e-19
1.47554e-20
0
7.13056e-20
4.62034e-20
-5.47528e-19
0
9.19763e-19
1.37222e-18
2.00894e-19
-3.82998e-19
1.79188e-19
0
-3.52467e-20
5.78225e-19
-6.60607e-19
1.08738e-18
0
-2.27988e-19
0
0
-1.25902e-19
2.40518e-19
-2.32395e-19
4.0776e-19
-7.63331e-19
6.2995e-19
-1.10253e-19
-5.38903e-19
0
0
0
-1.76805e-18
-2.60058e-19
1.0474e-19
0
-6.01776e-19
-5.51486e-19
3.84611e-19
0
0
-2.16683e-19
4.67614e-19
-6.3389e-19
4.72044e-19
0
1.8345e-19
0
0
-2.43641e-18
2.32182e-18
-5.73033e-18
6.53084e-18
0
-1.72228e-17
1.76398e-17
-1.42461e-18
0
5.9521e-17
-6.04687e-17
0
0
0
)
;
    }
    low
    {
        type            calculated;
        value           nonuniform List<scalar> 
84
(
-9.69259e-16
9.57761e-16
-4.54536e-16
7.36221e-16
1.31409e-16
-3.41562e-17
2.85368e-16
4.73963e-17
0
1.17276e-15
-2.97306e-16
2.12621e-16
-2.58043e-16
-1.77439e-15
2.8978e-16
0
-2.69263e-16
3.73561e-17
-3.65072e-17
-2.00226e-16
1.10789e-16
2.81636e-16
5.17158e-16
-4.36703e-16
0
-8.42703e-17
-4.34371e-17
0
-3.99462e-16
-1.1695e-16
-4.08743e-16
-4.42351e-16
4.78915e-16
1.5888e-16
1.09232e-15
8.74099e-17
0
7.19024e-16
7.29777e-16
4.13278e-16
-2.19141e-16
8.61858e-17
8.61889e-17
0
3.42577e-16
8.20618e-16
6.29401e-16
9.07557e-17
0
-1.5128e-15
9.13953e-16
-5.10697e-20
-1.00776e-20
3.45602e-16
0
-8.51194e-16
0
-5.00012e-17
9.102e-17
1.91996e-16
3.01496e-16
4.1867e-16
4.94162e-20
9.92741e-16
0
0
-7.35341e-16
8.44989e-16
-8.42638e-16
-2.89855e-16
6.33229e-16
-5.59376e-16
1.30483e-15
6.41127e-16
5.83204e-16
-1.14154e-15
7.89946e-16
-2.34527e-16
5.00734e-16
-3.50652e-16
2.55191e-16
2.64294e-17
-4.83149e-16
4.8437e-16
)
;
    }
    left
    {
        type            calculated;
        value           nonuniform List<scalar> 
19
(
-9.67969e-16
-4.63009e-16
4.78944e-16
1.88131e-17
-8.89821e-16
0
-4.01235e-16
-3.95854e-16
-4.02561e-17
-2.15005e-16
-1.16938e-18
-2.16076e-16
9.77333e-16
-2.16227e-16
1.00492e-15
8.71388e-16
5.19488e-16
7.65293e-16
0
)
;
    }
    right
    {
        type            calculated;
        value           nonuniform List<scalar> 
19
(
4.83725e-16
-5.19899e-18
-1.39706e-17
-8.98918e-16
9.18439e-16
-4.36528e-16
4.34748e-16
4.28862e-16
-3.53997e-16
0
0
7.44064e-16
-7.59229e-16
-7.82413e-16
7.81188e-16
-7.65396e-16
8.31504e-16
-1.41217e-15
0
)
;
    }
    frontAndBackPlanes
    {
        type            empty;
    }
}


// ************************************************************************* //
