/*--------------------------------*- C++ -*----------------------------------*\
  =========                 |
  \\      /  F ield         | OpenFOAM: The Open Source CFD Toolbox
   \\    /   O peration     | Website:  https://openfoam.org
    \\  /    A nd           | Version:  7
     \\/     M anipulation  |
\*---------------------------------------------------------------------------*/
FoamFile
{
    version     2.0;
    format      ascii;
    class       volScalarField;
    location    "0.07";
    object      T;
}
// * * * * * * * * * * * * * * * * * * * * * * * * * * * * * * * * * * * * * //

dimensions      [0 0 0 1 0 0 0];

internalField   nonuniform List<scalar> 
1596
(
0.993135
0.973761
0.954855
0.938578
0.925708
0.916165
0.90951
0.904937
0.901885
0.89941
0.896963
0.89372
0.887949
0.877388
0.858781
0.825621
0.766645
0.659996
0.462055
0.970855
0.911646
0.858597
0.814414
0.779864
0.754289
0.736336
0.7241
0.716028
0.710176
0.705225
0.699576
0.690475
0.674554
0.647703
0.603182
0.531817
0.419304
0.239739
0.946074
0.849269
0.766539
0.699069
0.646724
0.608048
0.580839
0.562389
0.550387
0.542304
0.536361
0.530638
0.522259
0.507844
0.483466
0.443214
0.379972
0.284357
0.140904
0.924084
0.795359
0.688127
0.601691
0.53486
0.485434
0.450524
0.426851
0.411545
0.401711
0.395286
0.390235
0.383894
0.373252
0.3549
0.323882
0.274564
0.200307
0.091312
0.908709
0.755986
0.629633
0.528006
0.449267
0.390754
0.349124
0.320724
0.302286
0.290663
0.283585
0.278972
0.27444
0.267433
0.255125
0.23346
0.19789
0.143297
0.0628329
0.901169
0.733067
0.592766
0.479156
0.390469
0.323984
0.276179
0.243214
0.221546
0.207847
0.199663
0.194864
0.1913
0.186828
0.179162
0.165057
0.140844
0.102376
0.0444036
0.900127
0.724527
0.575008
0.452221
0.35519
0.28157
0.22795
0.19047
0.165432
0.149368
0.139649
0.134065
0.130614
0.127466
0.12278
0.11402
0.0982768
0.0721672
0.0314603
0.903017
0.726009
0.571351
0.441924
0.338044
0.2581
0.19905
0.157177
0.128736
0.110161
0.0986571
0.0919085
0.0879731
0.0852179
0.0821357
0.0767704
0.0668791
0.0497584
0.0219849
0.90802
0.733652
0.576989
0.443065
0.333693
0.248226
0.184188
0.138135
0.106376
0.0852892
0.0719341
0.0638699
0.0591411
0.0562125
0.0537943
0.0503724
0.0442572
0.0333644
0.0149938
0.912608
0.742597
0.586134
0.449649
0.33627
0.246345
0.178055
0.128319
0.0935795
0.0702055
0.0551439
0.0458341
0.0402654
0.0369284
0.0346552
0.0322417
0.028428
0.0216632
0.00990481
0.915601
0.749744
0.594651
0.457168
0.341272
0.248134
0.176567
0.12388
0.0866996
0.061431
0.0449508
0.0346008
0.0283024
0.0245316
0.0221752
0.0202299
0.0177447
0.0135967
0.00630815
0.918459
0.756147
0.602537
0.4647
0.347145
0.251654
0.177567
0.122551
0.0834212
0.0566374
0.0390329
0.0278701
0.0210015
0.0168668
0.0143646
0.0126082
0.0108504
0.00828309
0.00387539
0.920573
0.76094
0.608513
0.470557
0.351929
0.254825
0.178965
0.122295
0.0817809
0.0539322
0.035554
0.0238484
0.016609
0.0122376
0.00962509
0.00794751
0.00658309
0.00493738
0.00230603
0.921115
0.762703
0.61094
0.472995
0.35385
0.255914
0.179124
0.121585
0.0803568
0.0519781
0.0332351
0.0212908
0.0139008
0.00944154
0.00679651
0.00517734
0.00403756
0.00291985
0.00134109
0.921031
0.762405
0.610442
0.47225
0.352812
0.254577
0.177527
0.119801
0.0784698
0.050062
0.0313403
0.0194419
0.0121046
0.00769568
0.00510045
0.00355614
0.00256364
0.00175084
0.000775507
0.920623
0.760672
0.607576
0.468661
0.348919
0.250723
0.173946
0.116625
0.0757444
0.0477717
0.0294306
0.0178404
0.0107386
0.00650235
0.00403198
0.00259138
0.00171662
0.00109022
0.000456636
0.919494
0.757128
0.602057
0.461974
0.341917
0.244094
0.168127
0.111809
0.071937
0.0448628
0.0272541
0.0162216
0.00952345
0.00556763
0.00328685
0.00197962
0.00121529
0.000715864
0.000280286
0.917875
0.752086
0.594232
0.452521
0.332088
0.234911
0.160227
0.105451
0.0670899
0.041327
0.024758
0.0144953
0.00833789
0.00474643
0.00270325
0.0015517
0.000897168
0.000495082
0.000181591
0.916926
0.747341
0.585927
0.44193
0.320777
0.224223
0.151025
0.0981013
0.0615687
0.0373871
0.0220588
0.0127011
0.00716861
0.00398972
0.00220926
0.00122333
0.000676387
0.000354941
0.000123517
0.916372
0.742945
0.577408
0.430535
0.308314
0.21233
0.14078
0.0899719
0.0555371
0.0331582
0.0192269
0.0108722
0.00601931
0.00327977
0.00177257
0.000953689
0.000509734
0.000257779
8.64294e-05
0.915499
0.738072
0.568109
0.418042
0.29461
0.199272
0.129605
0.0812018
0.0491273
0.0287476
0.0163384
0.0090545
0.00491121
0.00261957
0.00138392
0.000726193
0.000377651
0.000185735
6.07449e-05
0.914934
0.733559
0.558971
0.405426
0.280581
0.185842
0.118137
0.0722689
0.0426769
0.0243791
0.0135318
0.0073274
0.00388486
0.00202565
0.00104584
0.000535877
0.00027191
0.000130657
4.20156e-05
0.915047
0.730273
0.551109
0.39388
0.267353
0.172997
0.107116
0.0637033
0.0365379
0.0202706
0.0109329
0.0057575
0.00297177
0.00150998
0.000760185
0.000379755
0.000187698
8.78803e-05
2.77916e-05
0.91581
0.728578
0.545292
0.384423
0.256001
0.161697
0.0972969
0.0560357
0.0310476
0.0166162
0.00864249
0.00439103
0.002189
0.0010757
0.000524306
0.00025325
0.000120096
5.27614e-05
1.47655e-05
0.918481
0.733117
0.549399
0.386944
0.256799
0.161236
0.0962071
0.0548303
0.0300186
0.0158644
0.00815088
0.00409622
0.00202441
0.000989214
0.000481002
0.000232014
0.000108991
4.5908e-05
1.09941e-05
0.922107
0.742173
0.561455
0.399472
0.267881
0.169887
0.102299
0.058761
0.0323725
0.0171902
0.00886182
0.00446452
0.00221156
0.00108417
0.000530235
0.000258618
0.00012379
5.36157e-05
1.34696e-05
0.924397
0.749532
0.572761
0.412587
0.280603
0.18066
0.110465
0.064392
0.0359484
0.0193025
0.0100321
0.00507668
0.00251535
0.00122781
0.000595858
0.000288484
0.000137972
6.03807e-05
1.55943e-05
0.925343
0.754841
0.582699
0.425642
0.294516
0.193416
0.120852
0.0720528
0.041138
0.0225642
0.0119484
0.00613362
0.00306224
0.00149146
0.000713156
0.000336249
0.000156117
6.69223e-05
1.72098e-05
0.925636
0.759058
0.591994
0.439013
0.309768
0.208259
0.133646
0.082043
0.0483111
0.0273511
0.0149407
0.00789318
0.00403392
0.00199054
0.000947368
0.000433655
0.0001909
7.69822e-05
1.87303e-05
0.925441
0.762645
0.601017
0.452783
0.326204
0.224963
0.14871
0.0943845
0.0576432
0.0339344
0.0193086
0.0106312
0.00565347
0.00288592
0.00140102
0.000636652
0.000267176
9.88188e-05
2.14089e-05
0.925237
0.766525
0.610607
0.467478
0.344036
0.243561
0.166048
0.109163
0.0693345
0.0426083
0.0253924
0.0146849
0.00821817
0.00441368
0.00224141
0.00104695
0.000434432
0.000149643
2.80373e-05
0.926077
0.772114
0.622031
0.484042
0.36388
0.264429
0.18592
0.126629
0.0836906
0.0537461
0.0336111
0.020483
0.0121307
0.00692292
0.00374443
0.00185522
0.000798114
0.000267993
4.34386e-05
0.927323
0.778413
0.634241
0.501503
0.384903
0.286911
0.207885
0.146576
0.100734
0.0675692
0.0443328
0.0284817
0.0178824
0.0108967
0.00634958
0.00342276
0.00160713
0.000572213
7.70567e-05
0.928767
0.785065
0.646853
0.519503
0.406792
0.310759
0.23179
0.168983
0.120605
0.0843804
0.0580042
0.0392382
0.0261028
0.017005
0.0107419
0.00642088
0.0034653
0.0015159
0.000328662
0.929933
0.790662
0.657611
0.535122
0.42618
0.332393
0.254073
0.190513
0.140342
0.101689
0.0726323
0.0512279
0.0356793
0.024483
0.016448
0.0106256
0.006353
0.00319694
0.000878105
0.929662
0.792059
0.661795
0.542377
0.436151
0.344335
0.267079
0.203704
0.152992
0.113272
0.0828423
0.0599444
0.0429131
0.0303298
0.0210483
0.0141156
0.00884003
0.00473335
0.0014402
0.928327
0.790498
0.661372
0.543699
0.439294
0.349037
0.272899
0.210143
0.15959
0.119646
0.08872
0.065153
0.0473579
0.0339753
0.0239049
0.0162162
0.0102396
0.00551005
0.00168321
0.927452
0.789652
0.661549
0.545335
0.442431
0.353459
0.278249
0.216017
0.165606
0.125481
0.0941348
0.0699911
0.0515257
0.0374306
0.0266458
0.0182629
0.0116304
0.0063018
0.00194089
0.927176
0.789681
0.662445
0.547353
0.445575
0.357558
0.283032
0.221174
0.170844
0.130548
0.0988421
0.0742097
0.055175
0.0404695
0.029067
0.0200774
0.0128666
0.00700707
0.00217183
0.927019
0.789794
0.663219
0.548968
0.448035
0.36074
0.286736
0.225173
0.174919
0.134507
0.102537
0.0775378
0.0580674
0.0428877
0.0309992
0.0215277
0.0138546
0.00757002
0.00235646
0.926848
0.789715
0.66355
0.549867
0.449522
0.362743
0.289125
0.227794
0.177622
0.137159
0.105032
0.0797996
0.0600431
0.0445453
0.0323259
0.022523
0.0145304
0.00795295
0.00248144
0.926397
0.789118
0.66316
0.549829
0.449866
0.363432
0.290086
0.228939
0.178863
0.138417
0.106244
0.0809178
0.0610328
0.0453841
0.0330028
0.0230342
0.0148795
0.00815192
0.00254703
0.926399
0.789124
0.663168
0.549839
0.449877
0.363443
0.290097
0.228949
0.178872
0.138425
0.106252
0.0809238
0.0610379
0.0453883
0.0330062
0.0230368
0.0148813
0.00815299
0.0025474
0.926855
0.789733
0.663575
0.549897
0.449555
0.362776
0.289157
0.227824
0.17765
0.137183
0.105054
0.0798178
0.0600584
0.0445579
0.032336
0.0225307
0.0145358
0.00795623
0.00248258
0.92703
0.789823
0.663259
0.549017
0.448087
0.360793
0.286788
0.225222
0.174963
0.134546
0.102571
0.0775668
0.0580916
0.0429075
0.031015
0.0215397
0.013863
0.00757505
0.0023582
0.927191
0.789719
0.6625
0.547419
0.445646
0.357631
0.283102
0.22124
0.170903
0.130601
0.0988872
0.0742478
0.0552065
0.0404951
0.0290873
0.0200928
0.0128773
0.00701347
0.00217404
0.92747
0.789699
0.661617
0.545417
0.44252
0.35355
0.278337
0.216099
0.165679
0.125545
0.0941894
0.0700367
0.0515632
0.0374606
0.0266694
0.0182805
0.0116427
0.0063091
0.0019434
0.928348
0.790554
0.661453
0.543797
0.4394
0.349144
0.273002
0.210239
0.159675
0.11972
0.0887817
0.0652038
0.047399
0.0340079
0.02393
0.0162348
0.0102524
0.00551748
0.00168571
0.929686
0.792123
0.661888
0.54249
0.436274
0.344459
0.267198
0.203813
0.153088
0.113353
0.0829101
0.0599993
0.0429568
0.0303638
0.0210741
0.0141343
0.00885264
0.00474067
0.00144272
0.929963
0.790755
0.657754
0.535302
0.426381
0.332601
0.254274
0.190698
0.140505
0.101828
0.0727471
0.0513205
0.0357526
0.0245403
0.0164925
0.0106598
0.00637834
0.00321358
0.000884582
0.928805
0.785175
0.647022
0.519713
0.407024
0.310994
0.232014
0.169185
0.120779
0.084525
0.0581208
0.03933
0.026174
0.0170596
0.0107835
0.00645182
0.00348702
0.00152895
0.000333091
0.927357
0.778512
0.634392
0.50169
0.385108
0.287115
0.208074
0.146741
0.100872
0.0676789
0.0444177
0.0285459
0.0179301
0.0109318
0.00637492
0.00344022
0.00161782
0.000577177
7.79437e-05
0.926109
0.772209
0.622177
0.484222
0.364074
0.264619
0.186092
0.126774
0.0838071
0.0538357
0.0336777
0.0205313
0.0121652
0.00694715
0.00376104
0.00186586
0.000803898
0.000270117
4.3581e-05
0.925267
0.766615
0.610747
0.467649
0.344217
0.243735
0.166201
0.109288
0.0694316
0.0426801
0.0254435
0.0147205
0.00824238
0.00442985
0.00225181
0.00105306
0.000437376
0.00015048
2.79519e-05
0.925467
0.762729
0.601148
0.452944
0.326371
0.22512
0.148844
0.0944907
0.0577225
0.0339907
0.0193471
0.0106567
0.00566997
0.00289629
0.00140719
0.00063991
0.000268513
9.90627e-05
2.12882e-05
0.92566
0.759135
0.592115
0.439159
0.309919
0.208397
0.133761
0.0821308
0.0483744
0.0273943
0.0149689
0.007911
0.00404482
0.00199693
0.000950834
0.000435258
0.000191421
7.69942e-05
1.86364e-05
0.925363
0.754909
0.582807
0.425771
0.294647
0.193533
0.120946
0.0721235
0.0411872
0.0225965
0.0119686
0.00614584
0.0030693
0.0014953
0.000715044
0.000337002
0.000156296
6.68855e-05
1.71579e-05
0.924415
0.749591
0.572854
0.412697
0.280713
0.180756
0.110542
0.0644475
0.0359859
0.0193264
0.0100466
0.0050851
0.00251998
0.00123019
0.000596937
0.000288879
0.000138062
6.0375e-05
1.5581e-05
0.922122
0.742222
0.561531
0.399562
0.26797
0.169963
0.102359
0.0588039
0.0324011
0.0172081
0.00887247
0.00447054
0.00221479
0.00108579
0.000530972
0.000258915
0.0001239
5.36594e-05
1.34843e-05
0.918483
0.733129
0.549418
0.386967
0.256823
0.161257
0.0962237
0.0548424
0.0300268
0.0158695
0.00815393
0.00409791
0.00202527
0.000989591
0.000481134
0.00023204
0.000108983
4.58913e-05
1.09774e-05
0.915804
0.728565
0.545273
0.384402
0.255981
0.16168
0.0972832
0.0560256
0.0310404
0.0166113
0.00863926
0.00438895
0.00218768
0.00107487
0.000523799
0.000252948
0.000119924
5.2667e-05
1.47231e-05
0.915046
0.730272
0.551108
0.393879
0.267354
0.172998
0.107117
0.0637045
0.0365386
0.0202708
0.0109329
0.00575736
0.00297159
0.00150981
0.000760049
0.00037966
0.000187639
8.78456e-05
2.77751e-05
0.914933
0.733558
0.558969
0.405426
0.280582
0.185843
0.118138
0.0722697
0.0426774
0.0243793
0.0135319
0.00732734
0.00388477
0.00202556
0.00104577
0.000535826
0.00027188
0.00013064
4.20076e-05
0.915499
0.738071
0.568108
0.418042
0.29461
0.199272
0.129606
0.0812022
0.0491277
0.0287478
0.0163385
0.00905454
0.00491122
0.00261956
0.0013839
0.000726186
0.000377652
0.000185738
6.07436e-05
0.916371
0.742944
0.577408
0.430535
0.308314
0.21233
0.14078
0.0899722
0.0555373
0.0331584
0.0192271
0.0108723
0.0060194
0.00327983
0.00177262
0.000953732
0.000509778
0.000257814
8.64381e-05
0.916926
0.747341
0.585927
0.44193
0.320777
0.224223
0.151025
0.0981013
0.0615688
0.0373872
0.022059
0.0127013
0.00716877
0.00398985
0.00220938
0.00122345
0.000676501
0.00035503
0.000123543
0.917875
0.752085
0.594232
0.452521
0.332088
0.234911
0.160226
0.105451
0.0670899
0.0413271
0.0247582
0.0144955
0.00833811
0.00474664
0.00270346
0.00155193
0.000897403
0.000495266
0.000181646
0.919494
0.757129
0.602058
0.461974
0.341916
0.244093
0.168126
0.111809
0.0719368
0.0448628
0.0272542
0.0162219
0.00952375
0.00556796
0.00328722
0.00198005
0.00121573
0.000716203
0.000280384
0.920623
0.760672
0.607576
0.468661
0.348919
0.250722
0.173945
0.116625
0.0757441
0.0477717
0.0294308
0.0178407
0.010739
0.00650287
0.00403262
0.00259213
0.00171738
0.00109078
0.000456786
0.921032
0.762405
0.610442
0.47225
0.352812
0.254576
0.177526
0.1198
0.0784695
0.050062
0.0313405
0.0194424
0.0121052
0.00769648
0.00510149
0.00355735
0.00256484
0.00175169
0.000775698
0.921115
0.762704
0.610941
0.472995
0.35385
0.255914
0.179123
0.121584
0.0803565
0.0519781
0.0332355
0.0212914
0.0139017
0.00944279
0.00679811
0.00517916
0.00403928
0.00292095
0.00134127
0.920573
0.76094
0.608514
0.470558
0.351929
0.254824
0.178965
0.122294
0.0817806
0.0539323
0.0355545
0.0238493
0.0166104
0.0122395
0.00962739
0.00794997
0.0065852
0.00493854
0.00230611
0.918459
0.756148
0.602538
0.4647
0.347145
0.251654
0.177566
0.122551
0.0834211
0.0566377
0.0390337
0.0278715
0.0210034
0.0168693
0.0143675
0.0126111
0.0108525
0.00828395
0.00387523
0.915602
0.749745
0.594652
0.457168
0.341272
0.248134
0.176566
0.12388
0.0866998
0.0614316
0.044952
0.0346026
0.0283049
0.0245346
0.0221783
0.0202325
0.0177461
0.0135968
0.00630765
0.912609
0.742598
0.586135
0.449649
0.33627
0.246344
0.178054
0.128319
0.0935799
0.0702064
0.0551454
0.0458363
0.0402681
0.0369314
0.0346577
0.0322431
0.0284278
0.021662
0.00990402
0.90802
0.733653
0.576989
0.443065
0.333692
0.248225
0.184188
0.138135
0.106376
0.0852903
0.0719358
0.0638721
0.0591434
0.0562144
0.0537951
0.0503714
0.0442548
0.0333618
0.0149929
0.903017
0.726008
0.57135
0.441923
0.338043
0.258099
0.19905
0.157177
0.128736
0.110162
0.0986585
0.0919101
0.0879742
0.0852178
0.0821337
0.0767665
0.0668744
0.049755
0.0219844
0.900127
0.724526
0.575006
0.45222
0.35519
0.28157
0.22795
0.19047
0.165432
0.149369
0.139649
0.134065
0.130613
0.127463
0.122775
0.114013
0.0982708
0.072164
0.0314604
0.901169
0.733066
0.592765
0.479156
0.390469
0.323983
0.276179
0.243214
0.221546
0.207847
0.199662
0.194862
0.191296
0.186823
0.179154
0.16505
0.140839
0.102374
0.0444045
0.908709
0.755985
0.629633
0.528005
0.449267
0.390754
0.349123
0.320724
0.302285
0.290661
0.283583
0.278968
0.274434
0.267426
0.255117
0.233454
0.197886
0.143297
0.0628343
0.924084
0.795359
0.688128
0.601692
0.53486
0.485434
0.450523
0.42685
0.411543
0.401708
0.395282
0.390229
0.383887
0.373245
0.354894
0.323879
0.274564
0.200309
0.0913134
0.946074
0.84927
0.766541
0.69907
0.646725
0.608048
0.580838
0.562388
0.550385
0.542302
0.536357
0.530633
0.522254
0.507839
0.483463
0.443215
0.379975
0.28436
0.140904
0.970855
0.911646
0.858598
0.814415
0.779865
0.754289
0.736336
0.724099
0.716026
0.710174
0.705222
0.699573
0.690472
0.674553
0.647703
0.603185
0.53182
0.419306
0.239738
0.993135
0.97376
0.954855
0.938578
0.925708
0.916165
0.90951
0.904937
0.901884
0.899409
0.896962
0.89372
0.887949
0.877389
0.858782
0.825623
0.766646
0.659996
0.462055
)
;

boundaryField
{
    up
    {
        type            fixedValue;
        value           uniform 0;
    }
    low
    {
        type            fixedValue;
        value           uniform 1;
    }
    left
    {
        type            fixedValue;
        value           uniform 1;
    }
    right
    {
        type            fixedValue;
        value           uniform 1;
    }
    frontAndBackPlanes
    {
        type            empty;
    }
}


// ************************************************************************* //
