/*--------------------------------*- C++ -*----------------------------------*\
  =========                 |
  \\      /  F ield         | OpenFOAM: The Open Source CFD Toolbox
   \\    /   O peration     | Website:  https://openfoam.org
    \\  /    A nd           | Version:  7
     \\/     M anipulation  |
\*---------------------------------------------------------------------------*/
FoamFile
{
    version     2.0;
    format      ascii;
    class       volScalarField;
    location    "0.24";
    object      gradTy;
}
// * * * * * * * * * * * * * * * * * * * * * * * * * * * * * * * * * * * * * //

dimensions      [0 -1 0 1 0 0 0];

internalField   nonuniform List<scalar> 
1596
(
-0.360791
-0.670316
-0.924386
-1.16909
-1.40476
-1.66212
-1.92845
-2.23893
-2.6077
-3.0451
-3.64569
-4.40984
-5.46794
-6.9742
-9.31342
-12.9593
-19.4689
-31.4734
-74.3499
-1.09901
-1.35558
-1.53079
-1.69359
-1.85232
-2.04113
-2.24961
-2.51006
-2.83592
-3.23002
-3.77115
-4.45103
-5.35678
-6.5584
-8.25314
-10.5409
-13.9411
-18.9379
-33.1195
-1.96679
-2.05327
-2.10563
-2.16927
-2.24319
-2.35667
-2.49765
-2.69427
-2.95642
-3.28172
-3.73477
-4.29885
-5.03401
-5.97233
-7.23325
-8.83202
-11.0506
-14.0926
-20.621
-2.87645
-2.73292
-2.63894
-2.5935
-2.57813
-2.61204
-2.68016
-2.80526
-2.99354
-3.23929
-3.59507
-4.03976
-4.61556
-5.33523
-6.27428
-7.41527
-8.92372
-10.883
-14.2404
-3.71566
-3.35607
-3.11984
-2.96683
-2.86341
-2.8177
-2.81214
-2.86374
-2.97581
-3.14088
-3.40154
-3.73586
-4.17425
-4.72001
-5.42311
-6.2556
-7.32117
-8.6491
-10.5866
-4.38284
-3.88542
-3.53806
-3.29154
-3.10794
-2.9872
-2.91121
-2.89178
-2.93029
-3.01882
-3.19169
-3.42852
-3.75165
-4.16005
-4.68808
-5.30655
-6.08363
-7.02398
-8.25995
-4.8228
-4.29164
-3.883
-3.56831
-3.31896
-3.13231
-2.99255
-2.90763
-2.87814
-2.8967
-2.99078
-3.14283
-3.36951
-3.66804
-4.06276
-4.52683
-5.10658
-5.79578
-6.6463
-5.03481
-4.55667
-4.14143
-3.79145
-3.49656
-3.25738
-3.06357
-2.92112
-2.83103
-2.78727
-2.8118
-2.89048
-3.03585
-3.24476
-3.53478
-3.88268
-4.32059
-4.83809
-5.45487
-5.06126
-4.70029
-4.32544
-3.97228
-3.65278
-3.37541
-3.13761
-2.94572
-2.80223
-2.70315
-2.6663
-2.68098
-2.75682
-2.8909
-3.09611
-3.35285
-3.68357
-4.07664
-4.53807
-4.93808
-4.70349
-4.4002
-4.07499
-3.75551
-3.45913
-3.19186
-2.96237
-2.7756
-2.63015
-2.54111
-2.50108
-2.51782
-2.58901
-2.72442
-2.90789
-3.15538
-3.45565
-3.80855
-4.78174
-4.6373
-4.40617
-4.12332
-3.82025
-3.51981
-3.23528
-2.97848
-2.75739
-2.57355
-2.44049
-2.3539
-2.32037
-2.33839
-2.4156
-2.53875
-2.7193
-2.94691
-3.21867
-4.58619
-4.53446
-4.37353
-4.13805
-3.86033
-3.56584
-3.27309
-2.99706
-2.74884
-2.53303
-2.36257
-2.23595
-2.15921
-2.13171
-2.15961
-2.23219
-2.35768
-2.52686
-2.73568
-4.34228
-4.37344
-4.28127
-4.09728
-3.8527
-3.5741
-3.28312
-2.99747
-2.73101
-2.49121
-2.29119
-2.13194
-2.01946
-1.95403
-1.94097
-1.97171
-2.05235
-2.17486
-2.33481
-4.12472
-4.20338
-4.16542
-4.02833
-3.8177
-3.5591
-3.27538
-2.98627
-2.70786
-2.4501
-2.22679
-2.04102
-1.8991
-1.80222
-1.75518
-1.75123
-1.79498
-1.87953
-2.00049
-3.92257
-4.0388
-4.04251
-3.94486
-3.7655
-3.52758
-3.2538
-2.96505
-2.67913
-2.40807
-2.16648
-1.95931
-1.79331
-1.67052
-1.59549
-1.56293
-1.57644
-1.63014
-1.71989
-3.72382
-3.87594
-3.91486
-3.85056
-3.69897
-3.4809
-3.2182
-2.93234
-2.64229
-2.36177
-2.10625
-1.88221
-1.69695
-1.55324
-1.45553
-1.39973
-1.38878
-1.41766
-1.48257
-3.5432
-3.72
-3.78752
-3.75104
-3.62321
-3.42292
-3.17101
-2.88916
-2.59718
-2.31008
-2.04413
-1.80708
-1.60673
-1.44649
-1.33077
-1.25644
-1.22597
-1.23509
-1.28033
-3.38445
-3.57839
-3.66838
-3.65459
-3.54646
-3.36106
-3.11842
-2.84031
-2.54717
-2.25511
-1.98107
-1.73387
-1.52171
-1.34847
-1.21853
-1.12951
-1.08355
-1.07701
-1.1067
-3.22494
-3.44947
-3.56313
-3.56991
-3.47867
-3.30545
-3.06998
-2.79421
-2.49932
-2.20249
-1.92125
-1.66538
-1.44339
-1.25949
-1.11793
-1.01691
-0.95836
-0.939173
-0.956477
-3.06038
-3.31989
-3.46038
-3.48817
-3.41292
-3.25064
-3.02128
-2.74729
-2.45067
-2.14964
-1.86236
-1.59944
-1.36962
-1.17729
-1.02643
-0.915615
-0.846672
-0.817172
-0.824661
-2.91916
-3.20241
-3.36785
-3.416
-3.35561
-3.2028
-2.97809
-2.70473
-2.4057
-2.10035
-1.80747
-1.53843
-1.30213
-1.10293
-0.944391
-0.825063
-0.746697
-0.70778
-0.706911
-2.79381
-3.09923
-3.28769
-3.35526
-3.30889
-3.16453
-2.94337
-2.66967
-2.36757
-2.0576
-1.75924
-1.4846
-1.24271
-1.03781
-0.87275
-0.745523
-0.657334
-0.607677
-0.597821
-2.67813
-3.00845
-3.21982
-3.30621
-3.27322
-3.13659
-2.91829
-2.64369
-2.33816
-2.02347
-1.71977
-1.43991
-1.19311
-0.983483
-0.81307
-0.678578
-0.57934
-0.514128
-0.488957
-2.57519
-2.93054
-3.16323
-3.26548
-3.24248
-3.10981
-2.89104
-2.61258
-2.30135
-1.98062
-1.67041
-1.3851
-1.13383
-0.920798
-0.747041
-0.60814
-0.499243
-0.413186
-0.34467
-2.49195
-2.87049
-3.12827
-3.25497
-3.25539
-3.14351
-2.94289
-2.67876
-2.37781
-2.0638
-1.75525
-1.46821
-1.21167
-0.991603
-0.809631
-0.663121
-0.545083
-0.445751
-0.350143
-2.43436
-2.82666
-3.09868
-3.2419
-3.26064
-3.16755
-2.98504
-2.73684
-2.44846
-2.14314
-1.83784
-1.54913
-1.28623
-1.05656
-0.863379
-0.707397
-0.58343
-0.485437
-0.403519
-2.43297
-2.82748
-3.10461
-3.25684
-3.28806
-3.21046
-3.04481
-2.81365
-2.54079
-2.248
-1.95094
-1.66485
-1.3986
-1.16033
-0.955353
-0.787138
-0.653124
-0.549132
-0.466579
-2.49422
-2.87879
-3.14919
-3.29953
-3.33391
-3.2646
-3.1111
-2.89469
-2.63743
-2.35928
-2.07404
-1.79489
-1.52912
-1.28447
-1.06764
-0.885163
-0.73779
-0.623715
-0.535207
-2.61156
-2.97926
-3.23305
-3.37198
-3.40145
-3.33409
-3.18843
-2.98452
-2.74263
-2.48086
-2.2109
-1.94346
-1.68312
-1.43563
-1.20765
-1.00857
-0.843501
-0.714568
-0.615417
-2.78166
-3.1202
-3.34803
-3.46791
-3.4863
-3.41615
-3.27522
-3.08226
-2.85581
-2.61231
-2.36141
-2.1115
-1.86377
-1.62022
-1.38477
-1.1681
-0.980085
-0.829655
-0.714024
-3.00187
-3.29947
-3.49539
-3.59125
-3.59434
-3.51793
-3.37922
-3.1956
-2.98402
-2.75958
-2.53038
-2.30344
-2.07687
-1.84783
-1.614
-1.38305
-1.16685
-0.98421
-0.841765
-3.24063
-3.50296
-3.66588
-3.73512
-3.72045
-3.63575
-3.49772
-3.3223
-3.12491
-2.91967
-2.71374
-2.51434
-2.31833
-2.11927
-1.90627
-1.6777
-1.43719
-1.20892
-1.01879
-3.51335
-3.73554
-3.86101
-3.90008
-3.86497
-3.76994
-3.63091
-3.46212
-3.27734
-3.08973
-2.90589
-2.73465
-2.57462
-2.4204
-2.25585
-2.06914
-1.84139
-1.57843
-1.29072
-3.83207
-4.00546
-4.08892
-4.09575
-4.03982
-3.93526
-3.79654
-3.63601
-3.46546
-3.29673
-3.13624
-2.9942
-2.87339
-2.77533
-2.69007
-2.60943
-2.50375
-2.35637
-2.1476
-4.18665
-4.3034
-4.33422
-4.29832
-4.21099
-4.08599
-3.93553
-3.77009
-3.59922
-3.43196
-3.27428
-3.13419
-3.01611
-2.92537
-2.86316
-2.83515
-2.83327
-2.8501
-2.86951
-4.58755
-4.62714
-4.59371
-4.50807
-4.3843
-4.23472
-4.06892
-3.89584
-3.72314
-3.55742
-3.40463
-3.26978
-3.15655
-3.06799
-3.00644
-2.97471
-2.97515
-3.01116
-3.08679
-5.0301
-4.97481
-4.87336
-4.73902
-4.5814
-4.40966
-4.2309
-4.05221
-3.8797
-3.71835
-3.57328
-3.44765
-3.34375
-3.26236
-3.20333
-3.16391
-3.14137
-3.13082
-3.12775
-5.43732
-5.29171
-5.12622
-4.94583
-4.75572
-4.56177
-4.3689
-4.18221
-4.00628
-3.84474
-3.70125
-3.57794
-3.47583
-3.39474
-3.3337
-3.29003
-3.26106
-3.24324
-3.23321
-5.76996
-5.55843
-5.34271
-5.12504
-4.90826
-4.6959
-4.49122
-4.29767
-4.11857
-3.95647
-3.81398
-3.69256
-3.59253
-3.51332
-3.45375
-3.41128
-3.38327
-3.36652
-3.35774
-6.03625
-5.77241
-5.51689
-5.26974
-5.03186
-4.80496
-4.59089
-4.39179
-4.21001
-4.04729
-3.9055
-3.78567
-3.68766
-3.61068
-3.55337
-3.51326
-3.48763
-3.4734
-3.46731
-6.22995
-5.92664
-5.64108
-5.37218
-5.11912
-4.88193
-4.6613
-4.45837
-4.27478
-4.11172
-3.97058
-3.8521
-3.75587
-3.68093
-3.62577
-3.58787
-3.56436
-3.55208
-3.5477
-6.35442
-6.01424
-5.70736
-5.42523
-5.16371
-4.92107
-4.69711
-4.49232
-4.30793
-4.14484
-4.00419
-3.8866
-3.79153
-3.71798
-3.66442
-3.62838
-3.60697
-3.59709
-3.59535
-6.35446
-6.0143
-5.70743
-5.42531
-5.16379
-4.92116
-4.6972
-4.49241
-4.30802
-4.14493
-4.00429
-3.8867
-3.79163
-3.71809
-3.66453
-3.6285
-3.60709
-3.59722
-3.59548
-6.23
-5.92675
-5.64124
-5.37237
-5.11933
-4.88214
-4.66152
-4.4586
-4.27503
-4.11198
-3.97085
-3.85238
-3.75616
-3.68124
-3.6261
-3.58823
-3.56474
-3.5525
-3.54816
-6.03632
-5.77259
-5.51715
-5.27003
-5.03219
-4.80531
-4.59126
-4.39217
-4.21041
-4.0477
-3.90594
-3.78612
-3.68813
-3.61118
-3.5539
-3.51383
-3.48824
-3.47405
-3.46801
-5.77007
-5.55866
-5.34303
-5.12542
-4.90868
-4.69635
-4.49169
-4.29817
-4.11909
-3.957
-3.81454
-3.69314
-3.59313
-3.51395
-3.4544
-3.41196
-3.38398
-3.36726
-3.35851
-5.43743
-5.29198
-5.12658
-4.94626
-4.75621
-4.56229
-4.36946
-4.1828
-4.0069
-3.84538
-3.70192
-3.57863
-3.47654
-3.39547
-3.33446
-3.2908
-3.26186
-3.24406
-3.23405
-5.03023
-4.9751
-4.87375
-4.73949
-4.58193
-4.41024
-4.23152
-4.05287
-3.88039
-3.71907
-3.57402
-3.44842
-3.34454
-3.26316
-3.20412
-3.16468
-3.1421
-3.13151
-3.12838
-4.58769
-4.62746
-4.5942
-4.50869
-4.38503
-4.23557
-4.06987
-3.89688
-3.72428
-3.55866
-3.40598
-3.27125
-3.15815
-3.06972
-3.00826
-2.97656
-2.97687
-3.01246
-3.08726
-4.18673
-4.30345
-4.3343
-4.29842
-4.21111
-4.08614
-3.93568
-3.77024
-3.59935
-3.43203
-3.27426
-3.13404
-3.01576
-2.92476
-2.86227
-2.83405
-2.83228
-2.84987
-2.87108
-3.83211
-4.00563
-4.08924
-4.09623
-4.04049
-3.93612
-3.79759
-3.63724
-3.46686
-3.29829
-3.13795
-2.99608
-2.87548
-2.77772
-2.69298
-2.61318
-2.50873
-2.36295
-2.15597
-3.51337
-3.73557
-3.86111
-3.90028
-3.8653
-3.7704
-3.63151
-3.46285
-3.27819
-3.09069
-2.90695
-2.73584
-2.57599
-2.42203
-2.25786
-2.07157
-1.84414
-1.58117
-1.29277
-3.24063
-3.50296
-3.66594
-3.73528
-3.72074
-3.63619
-3.49831
-3.32303
-3.12577
-2.92066
-2.71485
-2.51559
-2.31976
-2.12092
-1.90813
-1.67969
-1.43911
-1.21058
-1.02009
-3.00187
-3.29945
-3.49541
-3.59136
-3.59458
-3.51832
-3.37975
-3.19628
-2.98483
-2.76052
-2.53144
-2.30464
-2.0782
-1.84929
-1.61553
-1.38454
-1.16819
-0.985333
-0.842688
-2.78165
-3.12016
-3.34802
-3.46798
-3.4865
-3.41648
-3.2757
-3.08288
-2.85657
-2.61319
-2.3624
-2.11259
-1.86496
-1.62146
-1.38599
-1.16924
-0.981072
-0.830489
-0.714737
-2.61154
-2.9792
-3.23302
-3.37201
-3.4016
-3.33437
-3.18886
-2.98509
-2.74332
-2.48167
-2.21181
-1.94444
-1.68415
-1.43666
-1.20862
-1.00946
-0.844265
-0.715226
-0.616001
-2.49421
-2.87873
-3.14914
-3.29954
-3.33403
-3.26485
-3.11147
-2.8952
-2.63806
-2.36
-2.07485
-1.79574
-1.52999
-1.28532
-1.06843
-0.885866
-0.738404
-0.624258
-0.535714
-2.43294
-2.82742
-3.10455
-3.25684
-3.28815
-3.21066
-3.04514
-2.8141
-2.54134
-2.24864
-1.95164
-1.66559
-1.39933
-1.16103
-0.955995
-0.787711
-0.653634
-0.549602
-0.467053
-2.43433
-2.82659
-3.0986
-3.24185
-3.26066
-3.16766
-2.98524
-2.73714
-2.44883
-2.14358
-1.83832
-1.54962
-1.28672
-1.05701
-0.863781
-0.70775
-0.583751
-0.485769
-0.403947
-2.492
-2.87052
-3.12831
-3.25503
-3.2555
-3.14366
-2.9431
-2.67902
-2.37813
-2.06417
-1.75566
-1.46865
-1.21211
-0.992048
-0.810061
-0.663533
-0.545467
-0.446097
-0.350421
-2.57525
-2.93059
-3.16327
-3.26549
-3.24244
-3.10973
-2.89092
-2.61242
-2.30118
-1.98043
-1.67021
-1.38491
-1.13364
-0.920627
-0.74688
-0.607987
-0.499089
-0.413021
-0.34447
-2.67817
-3.00848
-3.21985
-3.30623
-3.27324
-3.1366
-2.91829
-2.64368
-2.33815
-2.02346
-1.71976
-1.43991
-1.19311
-0.983491
-0.813081
-0.678593
-0.57936
-0.514154
-0.488983
-2.79384
-3.09925
-3.28771
-3.35526
-3.30889
-3.16452
-2.94335
-2.66965
-2.36754
-2.05758
-1.75922
-1.48458
-1.2427
-1.03781
-0.872755
-0.745533
-0.657348
-0.607694
-0.597838
-2.91919
-3.20242
-3.36786
-3.416
-3.3556
-3.20279
-2.97807
-2.70471
-2.40568
-2.10033
-1.80746
-1.53842
-1.30212
-1.10293
-0.944396
-0.825072
-0.746708
-0.707792
-0.706923
-3.0604
-3.3199
-3.46039
-3.48817
-3.41291
-3.25063
-3.02126
-2.74727
-2.45065
-2.14962
-1.86236
-1.59944
-1.36962
-1.17729
-1.02644
-0.915623
-0.846681
-0.817181
-0.824669
-3.22495
-3.44948
-3.56314
-3.56991
-3.47867
-3.30544
-3.06996
-2.7942
-2.49932
-2.20248
-1.92125
-1.66538
-1.44339
-1.25949
-1.11794
-1.01692
-0.958365
-0.939179
-0.956482
-3.38446
-3.57839
-3.66838
-3.65459
-3.54646
-3.36106
-3.11842
-2.8403
-2.54716
-2.25511
-1.98107
-1.73386
-1.52171
-1.34847
-1.21854
-1.12951
-1.08356
-1.07701
-1.1067
-3.54321
-3.72
-3.78751
-3.75103
-3.6232
-3.42292
-3.171
-2.88916
-2.59718
-2.31007
-2.04413
-1.80707
-1.60673
-1.44649
-1.33077
-1.25644
-1.22597
-1.23509
-1.28032
-3.72382
-3.87593
-3.91486
-3.85056
-3.69897
-3.48089
-3.2182
-2.93234
-2.64229
-2.36177
-2.10625
-1.88221
-1.69695
-1.55324
-1.45553
-1.39973
-1.38878
-1.41766
-1.48256
-3.92257
-4.03879
-4.0425
-3.94485
-3.7655
-3.52758
-3.2538
-2.96505
-2.67913
-2.40807
-2.16648
-1.9593
-1.79331
-1.67052
-1.59549
-1.56293
-1.57644
-1.63013
-1.71988
-4.12471
-4.20337
-4.16542
-4.02833
-3.8177
-3.5591
-3.27539
-2.98627
-2.70786
-2.4501
-2.22679
-2.04101
-1.8991
-1.80222
-1.75518
-1.75123
-1.79497
-1.87952
-2.00048
-4.34227
-4.37343
-4.28127
-4.09728
-3.85271
-3.57411
-3.28312
-2.99747
-2.73102
-2.49121
-2.29119
-2.13194
-2.01946
-1.95403
-1.94096
-1.97171
-2.05234
-2.17485
-2.3348
-4.58618
-4.53445
-4.37353
-4.13805
-3.86034
-3.56585
-3.27309
-2.99706
-2.74884
-2.53303
-2.36257
-2.23595
-2.15921
-2.13171
-2.15961
-2.23219
-2.35767
-2.52685
-2.73567
-4.78172
-4.63729
-4.40618
-4.12332
-3.82025
-3.51982
-3.23528
-2.97848
-2.75739
-2.57355
-2.44049
-2.35389
-2.32037
-2.33839
-2.41559
-2.53874
-2.71929
-2.9469
-3.21867
-4.93807
-4.7035
-4.40021
-4.075
-3.75552
-3.45914
-3.19187
-2.96237
-2.7756
-2.63015
-2.54111
-2.50108
-2.51781
-2.589
-2.72441
-2.90788
-3.15537
-3.45564
-3.80855
-5.06126
-4.7003
-4.32545
-3.97229
-3.65278
-3.37541
-3.13762
-2.94573
-2.80224
-2.70315
-2.6663
-2.68098
-2.75682
-2.8909
-3.09611
-3.35284
-3.68356
-4.07664
-4.53807
-5.03482
-4.55668
-4.14144
-3.79146
-3.49656
-3.25739
-3.06357
-2.92113
-2.83103
-2.78727
-2.8118
-2.89048
-3.03585
-3.24475
-3.53477
-3.88267
-4.32058
-4.83809
-5.45488
-4.82282
-4.29166
-3.88301
-3.56832
-3.31897
-3.13231
-2.99256
-2.90763
-2.87815
-2.8967
-2.99078
-3.14283
-3.3695
-3.66804
-4.06275
-4.52682
-5.10657
-5.79579
-6.64631
-4.38287
-3.88544
-3.53807
-3.29155
-3.10794
-2.9872
-2.91122
-2.89178
-2.9303
-3.01882
-3.19169
-3.42852
-3.75164
-4.16004
-4.68808
-5.30655
-6.08363
-7.02399
-8.25996
-3.71568
-3.35609
-3.11985
-2.96684
-2.86342
-2.81771
-2.81214
-2.86375
-2.97582
-3.14088
-3.40154
-3.73586
-4.17424
-4.72
-5.4231
-6.2556
-7.32117
-8.64911
-10.5866
-2.87647
-2.73293
-2.63895
-2.59351
-2.57814
-2.61205
-2.68017
-2.80527
-2.99355
-3.23929
-3.59507
-4.03975
-4.61556
-5.33523
-6.27427
-7.41527
-8.92373
-10.883
-14.2404
-1.96681
-2.05327
-2.10564
-2.16927
-2.24319
-2.35667
-2.49765
-2.69428
-2.95642
-3.28172
-3.73477
-4.29884
-5.03401
-5.97233
-7.23324
-8.83202
-11.0506
-14.0926
-20.621
-1.09901
-1.35558
-1.53079
-1.69359
-1.85233
-2.04114
-2.24961
-2.51006
-2.83592
-3.23002
-3.77115
-4.45102
-5.35677
-6.55839
-8.25313
-10.5409
-13.9411
-18.9379
-33.1195
-0.360793
-0.670317
-0.924386
-1.16909
-1.40476
-1.66212
-1.92845
-2.23893
-2.6077
-3.0451
-3.64568
-4.40984
-5.46793
-6.97419
-9.31342
-12.9593
-19.4689
-31.4734
-74.3499
)
;

boundaryField
{
    up
    {
        type            calculated;
        value           nonuniform List<scalar> 
84
(
-67.3756
-36.4904
-22.3953
-15.2772
-11.2531
-8.72142
-6.98328
-5.71012
-4.73527
-3.96348
-3.34073
-2.83167
-2.41041
-2.05963
-1.76578
-1.51789
-1.30723
-1.12692
-0.971379
-0.835467
-0.7145
-0.602159
-0.484351
-0.309467
-0.299633
-0.379694
-0.442945
-0.509444
-0.586059
-0.679271
-0.797483
-0.951376
-1.18629
-2.1303
-2.95355
-3.13911
-3.12414
-3.22842
-3.35419
-3.46547
-3.54693
-3.59615
-3.59628
-3.54741
-3.46618
-3.35499
-3.22928
-3.12476
-3.13888
-2.95526
-2.14007
-1.18821
-0.952524
-0.798347
-0.679955
-0.586629
-0.509946
-0.443423
-0.380267
-0.299994
-0.309251
-0.484375
-0.602174
-0.714511
-0.835475
-0.971383
-1.12692
-1.30723
-1.51789
-1.76578
-2.05962
-2.4104
-2.83167
-3.34073
-3.96349
-4.73528
-5.71014
-6.9833
-8.72143
-11.2531
-15.2772
-22.3953
-36.4904
-67.3756
)
;
    }
    low
    {
        type            calculated;
        value           nonuniform List<scalar> 
84
(
-0.387085
-1.14807
-2.07361
-3.05682
-3.96584
-4.68023
-5.13188
-5.32405
-5.29379
-5.09689
-4.90143
-4.66775
-4.37181
-4.12538
-3.90648
-3.68501
-3.48465
-3.32
-3.14853
-2.95692
-2.79494
-2.65362
-2.51852
-2.39741
-2.28211
-2.2107
-2.21209
-2.296
-2.44261
-2.64977
-2.9029
-3.1636
-3.46202
-3.81098
-4.1908
-4.6256
-5.11556
-5.55347
-5.90497
-6.18729
-6.39393
-6.53603
-6.53605
-6.39396
-6.18733
-5.90502
-5.55352
-5.11563
-4.62568
-4.19078
-3.81103
-3.46199
-3.16358
-2.90288
-2.64976
-2.4426
-2.296
-2.2121
-2.21072
-2.28214
-2.39749
-2.51853
-2.65365
-2.79496
-2.95693
-3.14854
-3.32001
-3.48466
-3.68502
-3.90647
-4.12537
-4.3718
-4.66773
-4.90141
-5.09688
-5.29379
-5.32406
-5.1319
-4.68026
-3.96587
-3.05685
-2.07363
-1.14808
-0.387088
)
;
    }
    left
    {
        type            calculated;
        value           nonuniform List<scalar> 
19
(
-0.353868
-0.657639
-0.916527
-1.16912
-1.41436
-1.68198
-1.9599
-2.28513
-2.67236
-3.13744
-3.77944
-4.60323
-5.75689
-7.42506
-10.0395
-14.181
-21.6621
-35.6218
-69.8824
)
;
    }
    right
    {
        type            calculated;
        value           nonuniform List<scalar> 
19
(
-0.35387
-0.657641
-0.916527
-1.16912
-1.41436
-1.68198
-1.9599
-2.28513
-2.67236
-3.13743
-3.77944
-4.60322
-5.75688
-7.42505
-10.0395
-14.181
-21.6621
-35.6218
-69.8824
)
;
    }
    frontAndBackPlanes
    {
        type            empty;
    }
}


// ************************************************************************* //
