/*--------------------------------*- C++ -*----------------------------------*\
  =========                 |
  \\      /  F ield         | OpenFOAM: The Open Source CFD Toolbox
   \\    /   O peration     | Website:  https://openfoam.org
    \\  /    A nd           | Version:  7
     \\/     M anipulation  |
\*---------------------------------------------------------------------------*/
FoamFile
{
    version     2.0;
    format      ascii;
    class       volScalarField;
    location    "0.3";
    object      T;
}
// * * * * * * * * * * * * * * * * * * * * * * * * * * * * * * * * * * * * * //

dimensions      [0 0 0 1 0 0 0];

internalField   nonuniform List<scalar> 
1596
(
1.9952
1.9814
1.96722
1.95366
1.94096
1.92892
1.91728
1.90545
1.893
1.87895
1.86254
1.84275
1.81722
1.78259
1.73363
1.65854
1.53529
1.31981
0.923819
1.97922
1.93624
1.89548
1.85764
1.82257
1.78962
1.75799
1.72645
1.69395
1.6587
1.61918
1.57358
1.51847
1.44956
1.36146
1.2438
1.08038
0.843243
0.479415
1.96029
1.88795
1.82256
1.76315
1.70873
1.65807
1.60994
1.56274
1.51506
1.4648
1.4102
1.34928
1.27865
1.19443
1.0923
0.964605
0.800697
0.584037
0.283704
1.94156
1.84168
1.75404
1.6757
1.60466
1.53917
1.47765
1.41826
1.35944
1.29898
1.23514
1.16597
1.08845
0.99932
0.895327
0.771024
0.619568
0.431344
0.188375
1.92595
1.8022
1.69508
1.60023
1.51489
1.43691
1.36443
1.29551
1.22846
1.16114
1.09184
1.01871
0.939102
0.850293
0.749791
0.633643
0.497356
0.33527
0.136752
1.9154
1.77281
1.64923
1.54009
1.4423
1.35353
1.27178
1.19505
1.12164
1.04945
0.97683
0.90204
0.822683
0.736425
0.641264
0.534188
0.412095
0.271531
0.105984
1.9102
1.75445
1.61766
1.49627
1.38751
1.28914
1.19917
1.11564
1.03687
0.960808
0.885875
0.810393
0.732152
0.649064
0.559414
0.460765
0.35082
0.227349
0.0861564
1.90926
1.74584
1.59918
1.46758
1.34915
1.24205
1.14451
1.05469
0.970986
0.891432
0.814494
0.738546
0.6615
0.581417
0.496742
0.405377
0.305485
0.195502
0.0725527
1.9115
1.74515
1.59178
1.45195
1.32505
1.20995
1.10526
1.00938
0.920842
0.837804
0.758787
0.682205
0.606052
0.528478
0.447999
0.362715
0.271039
0.171762
0.0627578
1.91459
1.74847
1.59118
1.44515
1.31112
1.18884
1.07748
0.975781
0.882494
0.795927
0.714687
0.637231
0.561615
0.486038
0.409042
0.328829
0.243942
0.153345
0.0553507
1.91713
1.7526
1.59343
1.44305
1.30331
1.17484
1.05745
0.950303
0.852453
0.762398
0.678859
0.600352
0.524987
0.450998
0.376923
0.301013
0.221865
0.138508
0.0495004
1.92032
1.7583
1.59846
1.44499
1.3006
1.16673
1.04382
0.931528
0.829239
0.735689
0.649738
0.569979
0.494575
0.421782
0.350121
0.277852
0.203577
0.126323
0.0447698
1.92338
1.76436
1.60468
1.44906
1.3009
1.16234
1.03444
0.917353
0.810819
0.713842
0.62545
0.544325
0.46869
0.396815
0.327193
0.258071
0.188022
0.116032
0.0408279
1.92535
1.76896
1.60985
1.4528
1.30168
1.15917
1.02689
0.905472
0.795028
0.694843
0.604128
0.521672
0.445758
0.374676
0.306884
0.240602
0.174354
0.107055
0.0374336
1.92706
1.77278
1.61421
1.45608
1.30249
1.15657
1.02039
0.895035
0.780984
0.677805
0.584902
0.50118
0.424988
0.354629
0.28853
0.224868
0.162105
0.0990667
0.0344495
1.92873
1.77628
1.61811
1.45898
1.30318
1.15417
1.01443
0.885438
0.76803
0.662048
0.567093
0.482185
0.405744
0.336086
0.2716
0.210412
0.15091
0.0918175
0.0317729
1.92994
1.77893
1.62101
1.46089
1.30304
1.15119
1.00818
0.87584
0.755331
0.646766
0.549932
0.463968
0.387363
0.318447
0.255569
0.196796
0.14043
0.0850821
0.0293154
1.93084
1.78091
1.62302
1.46187
1.30204
1.1475
1.0014
0.865933
0.742531
0.631568
0.533011
0.446116
0.369439
0.301324
0.24008
0.183712
0.130425
0.0787024
0.0270147
1.93238
1.78367
1.62573
1.46342
1.3015
1.14421
0.995027
0.856427
0.730148
0.616803
0.516535
0.428709
0.35195
0.284619
0.224989
0.171001
0.120754
0.0725819
0.0248341
1.93422
1.78707
1.62915
1.46562
1.30153
1.14142
0.989077
0.847298
0.718101
0.602337
0.500315
0.411513
0.334622
0.268024
0.20997
0.158348
0.111153
0.0665502
0.0227174
1.93562
1.79005
1.63224
1.46755
1.30131
1.1384
0.98291
0.837968
0.705864
0.587681
0.483891
0.394079
0.317004
0.251078
0.19455
0.145289
0.10122
0.0603371
0.0205779
1.93701
1.79295
1.63528
1.46947
1.30111
1.13538
0.97673
0.828594
0.693535
0.572861
0.467208
0.376269
0.298872
0.233465
0.178314
0.13132
0.0904188
0.0535163
0.018267
1.93857
1.79608
1.63856
1.47162
1.30112
1.13255
0.970694
0.819293
0.68117
0.557862
0.450166
0.357888
0.27993
0.214775
0.160716
0.115724
0.0778687
0.0452064
0.0153612
1.9402
1.79928
1.64184
1.47372
1.30104
1.12961
0.964508
0.809778
0.66848
0.542363
0.432392
0.338494
0.25966
0.194405
0.141029
0.097555
0.0622545
0.0336261
0.010166
1.94271
1.80562
1.65105
1.4848
1.313
1.14151
0.975503
0.819134
0.675626
0.546919
0.434225
0.337729
0.256652
0.189671
0.13518
0.0912208
0.0561173
0.0285767
0.00762565
1.94545
1.81364
1.66412
1.50246
1.33451
1.16586
1.00152
0.845562
0.701235
0.570625
0.455176
0.355434
0.270997
0.200884
0.143708
0.0975675
0.0606767
0.0315339
0.00884685
1.94679
1.81826
1.67245
1.51462
1.35029
1.18474
1.02267
0.867968
0.723748
0.592111
0.474629
0.372127
0.284578
0.211395
0.151503
0.103139
0.0644763
0.033856
0.00974339
1.94672
1.81935
1.67576
1.52089
1.35987
1.19758
1.03834
0.885696
0.742529
0.61081
0.492122
0.387467
0.297149
0.221014
0.158407
0.10781
0.067443
0.03553
0.0103374
1.94573
1.8179
1.67538
1.5228
1.36488
1.20602
1.05007
0.900175
0.758871
0.627904
0.508753
0.40249
0.30967
0.230574
0.165071
0.112052
0.069904
0.0367796
0.0107361
1.94389
1.8145
1.6724
1.52181
1.36696
1.21176
1.05954
0.912978
0.774235
0.644756
0.52583
0.418479
0.323389
0.241211
0.17241
0.116481
0.0722084
0.0377817
0.0110071
1.94155
1.81023
1.66836
1.51974
1.36809
1.2168
1.06868
0.925938
0.790333
0.662987
0.544942
0.437061
0.339999
0.254613
0.181913
0.122173
0.0749368
0.0387533
0.0112052
1.93964
1.80665
1.66515
1.51862
1.37035
1.22318
1.07944
0.940883
0.808885
0.684255
0.567775
0.460072
0.361597
0.27315
0.196022
0.131218
0.0793918
0.0401371
0.0113434
1.93777
1.8033
1.66244
1.51832
1.37374
1.23105
1.09208
0.958165
0.830358
0.709189
0.59521
0.488807
0.390124
0.299628
0.218423
0.147731
0.0891342
0.0438636
0.0114704
1.93591
1.80027
1.66046
1.51919
1.37874
1.24095
1.10721
0.978465
0.855496
0.738623
0.628242
0.524592
0.427563
0.33722
0.25411
0.178897
0.112962
0.0583224
0.0161518
1.93372
1.79632
1.65688
1.51768
1.38054
1.24683
1.11752
0.993261
0.874612
0.761741
0.654965
0.554473
0.460086
0.371691
0.289402
0.213091
0.14297
0.0799678
0.0248783
1.93012
1.78831
1.64663
1.50686
1.37033
1.238
1.11054
0.988309
0.871689
0.760711
0.655623
0.556581
0.463419
0.376061
0.29468
0.219096
0.149311
0.0856334
0.0278264
1.92546
1.77764
1.63226
1.49045
1.35303
1.2206
1.0935
0.971906
0.856012
0.745734
0.641267
0.542759
0.450065
0.363198
0.28249
0.207971
0.139932
0.0789971
0.0251526
1.92146
1.76853
1.62004
1.47651
1.33837
1.20587
1.07913
0.958116
0.842921
0.733373
0.629634
0.531859
0.439932
0.353919
0.274237
0.200982
0.134506
0.0754777
0.0238827
1.91851
1.76159
1.61058
1.46565
1.32688
1.19428
1.06779
0.947235
0.832616
0.723696
0.620616
0.523534
0.43234
0.347129
0.268351
0.196128
0.130833
0.0731548
0.0230801
1.91622
1.75622
1.60329
1.45727
1.31802
1.18535
1.05906
0.938875
0.824723
0.716319
0.61379
0.517287
0.426703
0.342141
0.264075
0.192634
0.128209
0.0715069
0.0225194
1.91455
1.75232
1.59803
1.45126
1.31169
1.179
1.05288
0.932973
0.81917
0.71115
0.609027
0.512949
0.422806
0.338705
0.261134
0.19023
0.126397
0.0703624
0.0221275
1.91325
1.74964
1.59463
1.44754
1.30788
1.17525
1.04929
0.929595
0.816036
0.708275
0.606418
0.51061
0.42074
0.336918
0.259632
0.189027
0.125507
0.0698111
0.0219446
1.91325
1.74965
1.59464
1.44755
1.30789
1.17527
1.0493
0.929607
0.816048
0.708286
0.606428
0.51062
0.420748
0.336925
0.259638
0.189031
0.12551
0.0698131
0.0219452
1.91455
1.75234
1.59805
1.4513
1.31173
1.17904
1.05291
0.933009
0.819205
0.711184
0.609059
0.512978
0.422832
0.338728
0.261153
0.190245
0.126408
0.0703692
0.0221298
1.91623
1.75625
1.60333
1.45732
1.31807
1.18541
1.05912
0.938932
0.824778
0.716372
0.613839
0.517332
0.426743
0.342176
0.264104
0.192657
0.128225
0.0715166
0.0225227
1.91852
1.76162
1.61064
1.46571
1.32695
1.19435
1.06786
0.94731
0.832689
0.723765
0.62068
0.523592
0.432391
0.347173
0.268387
0.196156
0.130853
0.0731665
0.023084
1.92148
1.76858
1.6201
1.47659
1.33846
1.20596
1.07922
0.958208
0.84301
0.733456
0.629711
0.531929
0.439992
0.35397
0.274278
0.201013
0.134528
0.0754904
0.0238868
1.92549
1.7777
1.63234
1.49054
1.35314
1.22071
1.09361
0.972012
0.856114
0.745829
0.641353
0.542835
0.45013
0.36325
0.282531
0.208
0.139949
0.079006
0.0251547
1.93014
1.78837
1.64671
1.50696
1.37044
1.23812
1.11066
0.988426
0.871801
0.760814
0.655713
0.556658
0.463479
0.376103
0.294703
0.219103
0.149305
0.0856223
0.0278195
1.93375
1.79641
1.65702
1.51786
1.38076
1.24707
1.11779
0.993549
0.874913
0.762051
0.65528
0.55479
0.460403
0.372005
0.289711
0.213387
0.143238
0.0801726
0.0249682
1.93595
1.80037
1.66062
1.5194
1.37901
1.24126
1.10756
0.978842
0.855896
0.73904
0.628671
0.525027
0.427998
0.337646
0.254515
0.179259
0.113255
0.0585156
0.0162223
1.9378
1.80339
1.66258
1.51851
1.37397
1.23132
1.09238
0.958491
0.830701
0.709543
0.595568
0.489161
0.390466
0.299945
0.2187
0.14795
0.0892818
0.0439371
0.0114846
1.93966
1.80672
1.66528
1.5188
1.37057
1.22344
1.07973
0.941189
0.809204
0.68458
0.568098
0.460384
0.361887
0.273405
0.196231
0.13137
0.0794864
0.040183
0.0113553
1.94157
1.8103
1.66848
1.5199
1.3683
1.21704
1.06895
0.926223
0.790629
0.663284
0.545233
0.437335
0.340245
0.254822
0.182076
0.122289
0.0750086
0.03879
0.0112157
1.94391
1.81457
1.67251
1.52196
1.36715
1.21198
1.05979
0.913242
0.774508
0.645027
0.526091
0.41872
0.323601
0.241387
0.172545
0.116576
0.0722685
0.0378138
0.0110168
1.94575
1.81795
1.67547
1.52294
1.36505
1.20622
1.0503
0.900418
0.75912
0.62815
0.508987
0.402702
0.309854
0.230724
0.165186
0.112134
0.0699572
0.036809
0.0107454
1.94674
1.8194
1.67585
1.52101
1.36003
1.19777
1.03855
0.885917
0.742755
0.611032
0.49233
0.387655
0.297311
0.221146
0.158508
0.107884
0.0674919
0.0355579
0.0103467
1.9468
1.8183
1.67252
1.51473
1.35043
1.18491
1.02286
0.868167
0.723951
0.592309
0.474815
0.372294
0.284721
0.211512
0.151595
0.103207
0.064523
0.033884
0.00975343
1.94546
1.81367
1.66419
1.50256
1.33463
1.16601
1.00168
0.84574
0.701416
0.570802
0.455341
0.355582
0.271124
0.20099
0.143792
0.097632
0.0607233
0.0315636
0.00885857
1.94271
1.80563
1.65106
1.48482
1.31303
1.14155
0.975547
0.819182
0.675674
0.546964
0.434264
0.337761
0.256676
0.189686
0.135188
0.0912219
0.0561141
0.0285719
0.00762268
1.94019
1.79926
1.64182
1.4737
1.30101
1.12957
0.96447
0.809739
0.66844
0.542323
0.432354
0.338458
0.259626
0.194373
0.140999
0.0975291
0.0622331
0.0336108
0.0101591
1.93857
1.79608
1.63856
1.47162
1.30111
1.13255
0.970687
0.819287
0.681165
0.557859
0.450165
0.357888
0.279932
0.214778
0.16072
0.115727
0.077872
0.0452087
0.0153619
1.93701
1.79295
1.63528
1.46946
1.3011
1.13538
0.976725
0.828591
0.693532
0.57286
0.467208
0.37627
0.298874
0.233468
0.178317
0.131323
0.090421
0.0535176
0.0182674
1.93562
1.79005
1.63223
1.46754
1.30131
1.1384
0.982907
0.837966
0.705863
0.587681
0.483891
0.39408
0.317006
0.25108
0.194552
0.145291
0.101222
0.060338
0.0205782
1.93422
1.78707
1.62915
1.46562
1.30153
1.14142
0.989075
0.847297
0.718101
0.602337
0.500316
0.411515
0.334624
0.268026
0.209971
0.158349
0.111154
0.0665508
0.0227176
1.93238
1.78367
1.62573
1.46342
1.30149
1.14421
0.995027
0.856426
0.730148
0.616804
0.516536
0.428711
0.351952
0.28462
0.224991
0.171002
0.120754
0.0725823
0.0248342
1.93084
1.78091
1.62302
1.46187
1.30203
1.1475
1.0014
0.865933
0.742532
0.631569
0.533013
0.446118
0.36944
0.301325
0.240081
0.183713
0.130426
0.0787026
0.0270147
1.92994
1.77893
1.62101
1.46089
1.30304
1.15119
1.00818
0.875841
0.755332
0.646767
0.549933
0.463969
0.387364
0.318448
0.25557
0.196796
0.14043
0.0850822
0.0293154
1.92873
1.77628
1.61811
1.45898
1.30318
1.15417
1.01443
0.885439
0.76803
0.662049
0.567094
0.482186
0.405744
0.336086
0.271601
0.210412
0.15091
0.0918175
0.031773
1.92706
1.77278
1.61421
1.45608
1.30249
1.15657
1.02039
0.895036
0.780984
0.677805
0.584903
0.50118
0.424988
0.354629
0.28853
0.224867
0.162104
0.0990666
0.0344495
1.92535
1.76896
1.60985
1.4528
1.30168
1.15917
1.02689
0.905472
0.795028
0.694843
0.604128
0.521672
0.445758
0.374675
0.306884
0.240601
0.174353
0.107054
0.0374336
1.92339
1.76436
1.60469
1.44906
1.3009
1.16235
1.03444
0.917353
0.810819
0.713842
0.62545
0.544325
0.46869
0.396814
0.327192
0.25807
0.188022
0.116032
0.0408279
1.92032
1.7583
1.59847
1.44499
1.3006
1.16673
1.04382
0.931528
0.829239
0.735688
0.649737
0.569978
0.494575
0.421782
0.350121
0.277852
0.203576
0.126323
0.0447699
1.91713
1.7526
1.59343
1.44305
1.30331
1.17484
1.05745
0.950303
0.852452
0.762397
0.678858
0.600351
0.524986
0.450997
0.376922
0.301013
0.221864
0.138508
0.0495005
1.91459
1.74847
1.59118
1.44515
1.31112
1.18884
1.07748
0.97578
0.882493
0.795926
0.714686
0.63723
0.561614
0.486037
0.409041
0.328828
0.243941
0.153345
0.0553509
1.9115
1.74515
1.59178
1.45195
1.32505
1.20995
1.10526
1.00938
0.920841
0.837802
0.758786
0.682204
0.606051
0.528477
0.447998
0.362714
0.271039
0.171762
0.0627579
1.90926
1.74584
1.59918
1.46758
1.34914
1.24205
1.14451
1.05469
0.970985
0.891431
0.814493
0.738545
0.661499
0.581416
0.496741
0.405377
0.305485
0.195502
0.0725528
1.9102
1.75444
1.61766
1.49627
1.38751
1.28914
1.19917
1.11564
1.03686
0.960807
0.885874
0.810392
0.732151
0.649063
0.559413
0.460765
0.350821
0.227349
0.0861565
1.9154
1.77281
1.64923
1.54008
1.4423
1.35353
1.27178
1.19505
1.12164
1.04945
0.976829
0.902038
0.822682
0.736425
0.641264
0.534188
0.412095
0.271531
0.105985
1.92595
1.8022
1.69508
1.60023
1.51489
1.43691
1.36443
1.2955
1.22846
1.16114
1.09183
1.01871
0.939101
0.850293
0.749791
0.633643
0.497356
0.33527
0.136752
1.94156
1.84168
1.75404
1.6757
1.60465
1.53917
1.47765
1.41826
1.35943
1.29898
1.23514
1.16597
1.08845
0.999319
0.895327
0.771024
0.619568
0.431344
0.188375
1.96029
1.88795
1.82256
1.76315
1.70873
1.65807
1.60994
1.56273
1.51506
1.4648
1.4102
1.34928
1.27865
1.19443
1.0923
0.964605
0.800697
0.584037
0.283704
1.97922
1.93623
1.89548
1.85764
1.82257
1.78962
1.75799
1.72645
1.69395
1.6587
1.61918
1.57358
1.51847
1.44956
1.36146
1.2438
1.08038
0.843243
0.479415
1.9952
1.9814
1.96722
1.95366
1.94096
1.92892
1.91728
1.90545
1.893
1.87895
1.86254
1.84275
1.81722
1.78259
1.73363
1.65854
1.53529
1.31981
0.923819
)
;

boundaryField
{
    up
    {
        type            fixedValue;
        value           uniform 0;
    }
    low
    {
        type            fixedValue;
        value           uniform 2;
    }
    left
    {
        type            fixedValue;
        value           uniform 2;
    }
    right
    {
        type            fixedValue;
        value           uniform 2;
    }
    frontAndBackPlanes
    {
        type            empty;
    }
}


// ************************************************************************* //
