/*--------------------------------*- C++ -*----------------------------------*\
  =========                 |
  \\      /  F ield         | OpenFOAM: The Open Source CFD Toolbox
   \\    /   O peration     | Website:  https://openfoam.org
    \\  /    A nd           | Version:  7
     \\/     M anipulation  |
\*---------------------------------------------------------------------------*/
FoamFile
{
    version     2.0;
    format      ascii;
    class       volScalarField;
    location    "0.321";
    object      gradTy;
}
// * * * * * * * * * * * * * * * * * * * * * * * * * * * * * * * * * * * * * //

dimensions      [0 -1 0 1 0 0 0];

internalField   nonuniform List<scalar> 
1596
(
-0.538758
-1.00449
-1.39421
-1.77965
-2.16374
-2.5957
-3.05859
-3.60964
-4.27432
-5.07149
-6.15872
-7.53997
-9.43675
-12.1156
-16.2451
-22.6531
-34.0615
-55.077
-130.112
-1.64332
-2.03724
-2.32185
-2.60167
-2.88989
-3.23911
-3.63419
-4.12609
-4.73737
-5.47344
-6.46344
-7.6962
-9.31881
-11.4526
-14.4395
-18.4568
-24.411
-33.153
-57.9644
-2.94487
-3.09182
-3.20441
-3.35021
-3.52691
-3.7783
-4.08539
-4.49125
-5.01143
-5.64191
-6.48669
-7.51989
-8.84172
-10.5083
-12.7259
-15.5258
-19.3996
-24.7082
-36.1148
-4.31334
-4.12174
-4.0246
-4.01822
-4.07265
-4.21539
-4.42186
-4.72578
-5.13585
-5.64199
-6.32717
-7.1577
-8.20278
-9.48516
-11.1343
-13.1256
-15.7463
-19.1487
-24.9933
-5.58055
-5.06809
-4.76391
-4.60387
-4.53404
-4.56428
-4.66547
-4.86173
-5.15643
-5.53627
-6.06698
-6.7132
-7.52359
-8.50445
-9.74036
-11.1887
-13.0284
-15.3173
-18.6664
-6.59274
-5.87363
-5.4055
-5.10924
-4.92351
-4.84507
-4.84338
-4.93399
-5.11674
-5.37733
-5.76738
-6.25378
-6.87121
-7.61824
-8.55181
-9.6272
-10.9606
-12.5668
-14.681
-7.26424
-6.49313
-5.93303
-5.53552
-5.2527
-5.07681
-4.98038
-4.97258
-5.0516
-5.2038
-5.46932
-5.81939
-6.27888
-6.84307
-7.551
-8.36182
-9.35293
-10.5199
-11.9568
-7.59092
-6.89837
-6.32689
-5.87533
-5.52358
-5.26844
-5.09035
-4.9952
-4.98141
-5.03738
-5.19411
-5.4281
-5.75723
-6.17577
-6.71079
-7.3271
-8.07696
-8.94792
-9.97753
-7.6341
-7.11807
-6.60578
-6.14759
-5.75729
-5.44339
-5.19799
-5.02715
-4.93139
-4.90209
-4.96358
-5.09761
-5.3172
-5.61675
-6.01504
-6.48243
-7.05421
-7.71503
-8.47816
-7.44653
-7.1226
-6.71717
-6.29901
-5.90644
-5.5616
-5.26959
-5.03984
-4.8765
-4.77485
-4.75494
-4.80358
-4.9308
-5.13177
-5.41999
-5.77084
-6.20843
-6.71707
-7.29885
-7.20404
-7.01928
-6.72324
-6.36793
-5.99834
-5.64522
-5.3248
-5.05133
-4.83349
-4.67103
-4.58175
-4.55716
-4.60563
-4.72354
-4.92088
-5.1773
-5.50931
-5.90187
-6.35174
-6.89767
-6.85681
-6.66865
-6.38517
-6.05317
-5.70759
-5.37283
-5.06789
-4.80625
-4.59231
-4.44318
-4.35476
-4.33478
-4.38105
-4.50139
-4.67904
-4.92535
-5.22639
-5.57651
-6.51448
-6.60254
-6.52087
-6.3165
-6.0348
-5.71243
-5.37872
-5.05677
-4.76436
-4.51032
-4.31234
-4.17029
-4.09227
-4.07771
-4.13346
-4.2459
-4.42313
-4.65258
-4.92743
-6.16842
-6.33178
-6.33541
-6.20454
-5.97583
-5.68422
-5.36084
-5.03176
-4.71818
-4.43284
-4.19473
-4.0073
-3.87954
-3.81268
-3.81332
-3.8705
-3.99038
-4.16168
-4.3773
-5.84411
-6.06689
-6.13711
-6.06951
-5.89115
-5.63279
-5.32506
-4.99553
-4.66795
-4.35827
-4.0871
-3.86106
-3.69042
-3.57821
-3.53132
-3.54117
-3.6128
-3.73625
-3.90453
-5.52462
-5.80282
-5.92951
-5.9165
-5.78429
-5.5593
-5.27028
-4.9452
-4.60942
-4.28142
-3.98342
-3.72482
-3.51735
-3.36588
-3.27796
-3.24717
-3.2781
-3.36202
-3.49228
-5.23301
-5.54843
-5.72095
-5.75437
-5.66312
-5.46963
-5.20022
-4.88252
-4.54271
-4.20115
-3.88149
-3.59551
-3.35643
-3.17086
-3.04728
-2.98133
-2.97761
-3.02861
-3.12806
-4.97561
-5.31563
-5.52402
-5.59608
-5.54028
-5.37504
-5.12431
-4.81487
-4.47328
-4.12128
-3.78364
-3.47417
-3.20745
-2.9917
-2.83643
-2.7393
-2.70536
-2.72837
-2.80249
-4.71963
-5.10245
-5.34731
-5.45444
-5.43025
-5.29021
-5.05639
-4.75466
-4.41178
-4.05063
-3.69688
-3.36613
-3.07408
-2.83037
-2.64552
-2.51915
-2.45729
-2.45529
-2.50792
-4.45938
-4.88981
-5.17438
-5.31639
-5.32228
-5.20609
-4.9886
-4.69499
-4.35213
-3.98379
-3.61643
-3.26709
-2.95241
-2.6831
-2.47046
-2.3159
-2.22705
-2.20163
-2.23581
-4.23702
-4.69768
-5.01826
-5.19348
-5.2276
-5.13348
-4.93099
-4.64493
-4.3023
-3.92768
-3.54819
-3.18209
-2.84674
-2.55344
-2.31379
-2.13023
-2.01229
-1.96143
-1.97759
-4.04174
-4.52989
-4.88291
-5.08936
-5.1502
-5.07678
-4.88828
-4.6093
-4.26706
-3.88683
-3.49636
-3.11495
-2.76059
-2.44482
-2.17875
-1.96434
-1.81184
-1.72731
-1.72007
-3.86459
-4.38421
-4.76914
-5.00544
-5.09166
-5.03785
-4.86264
-4.5906
-4.24917
-3.86421
-3.46393
-3.06864
-2.69695
-2.36068
-2.06988
-1.8239
-1.62965
-1.49305
-1.43996
-3.71007
-4.26209
-4.6768
-4.93828
-5.04421
-5.00349
-4.83557
-4.56483
-4.21942
-3.8262
-3.41234
-3.00074
-2.61042
-2.25414
-1.94065
-1.66701
-1.43016
-1.22023
-1.03236
-3.58793
-4.17031
-4.61919
-4.91613
-5.05893
-5.05453
-4.92215
-4.68376
-4.36587
-3.99489
-3.59387
-3.18753
-2.79391
-2.42907
-2.10261
-1.81545
-1.55864
-1.31435
-1.04973
-3.50659
-4.10676
-4.57285
-4.88989
-5.05607
-5.07756
-4.97262
-4.76135
-4.46803
-4.1174
-3.72835
-3.32505
-2.92493
-2.54632
-2.20231
-1.90185
-1.64124
-1.41341
-1.20072
-3.51113
-4.11605
-4.58909
-4.9173
-5.09918
-5.14166
-5.06178
-4.87886
-4.61494
-4.29186
-3.92548
-3.53581
-3.13823
-2.75137
-2.39204
-2.07481
-1.80232
-1.57212
-1.37066
-3.61166
-4.20731
-4.67311
-4.99854
-5.18315
-5.23543
-5.17196
-5.01174
-4.77507
-4.48105
-4.14214
-3.77319
-3.38518
-2.99447
-2.6199
-2.28177
-1.99014
-1.74784
-1.54389
-3.79998
-4.37904
-4.82532
-5.13537
-5.31126
-5.36341
-5.30858
-5.16574
-4.95388
-4.68997
-4.38319
-4.04299
-3.67393
-3.28669
-2.89876
-2.53535
-2.21569
-1.95099
-1.73377
-4.07309
-4.61917
-5.03311
-5.31684
-5.47459
-5.51867
-5.46638
-5.3367
-5.14777
-4.91523
-4.64572
-4.34429
-4.008
-3.63833
-3.2455
-2.85567
-2.49769
-2.19694
-1.95406
-4.4294
-4.92537
-5.29796
-5.54748
-5.68007
-5.70995
-5.65523
-5.53478
-5.36619
-5.16472
-4.93581
-4.68253
-4.39571
-4.06584
-3.68833
-3.28071
-2.87478
-2.51612
-2.22605
-4.82434
-5.27738
-5.60542
-5.81522
-5.91744
-5.92858
-5.86759
-5.75294
-5.6017
-5.4294
-5.2418
-5.04356
-4.82385
-4.56538
-4.24454
-3.85671
-3.41387
-2.97075
-2.58986
-5.28264
-5.68341
-5.95797
-6.12061
-6.18658
-6.17423
-6.10278
-5.98967
-5.85095
-5.70241
-5.55072
-5.40529
-5.26024
-5.10123
-4.89407
-4.61121
-4.21463
-3.71556
-3.13926
-5.82445
-6.15686
-6.36818
-6.47816
-6.50562
-6.4699
-6.38923
-6.2794
-6.15478
-6.03038
-5.91423
-5.81994
-5.75145
-5.71017
-5.6767
-5.63273
-5.519
-5.29796
-4.92857
-6.43713
-6.68588
-6.81509
-6.85443
-6.82566
-6.74828
-6.63766
-6.50738
-6.36887
-6.23302
-6.10761
-6.00272
-5.92565
-5.8858
-5.88723
-5.94211
-6.03952
-6.16637
-6.29462
-7.13831
-7.26834
-7.29576
-7.25352
-7.16204
-7.03894
-6.8959
-6.74442
-6.59335
-6.44987
-6.32199
-6.21471
-6.13373
-6.08359
-6.06964
-6.09732
-6.17529
-6.31224
-6.52105
-7.91936
-7.89748
-7.81427
-7.69118
-7.54171
-7.37846
-7.20933
-7.04294
-6.88572
-6.74247
-6.61962
-6.51917
-6.444
-6.39425
-6.36987
-6.36517
-6.37763
-6.39881
-6.42304
-8.65378
-8.48038
-8.28857
-8.0859
-7.87847
-7.67323
-7.47459
-7.28778
-7.11676
-6.96422
-6.83393
-6.72638
-6.64219
-6.57994
-6.53812
-6.51188
-6.49885
-6.49403
-6.49416
-9.26947
-8.97919
-8.69818
-8.42835
-8.17134
-7.92979
-7.70528
-7.50012
-7.31622
-7.15463
-7.01722
-6.90373
-6.81364
-6.74518
-6.69656
-6.66385
-6.6446
-6.63481
-6.63136
-9.76942
-9.38313
-9.02927
-8.70479
-8.40751
-8.13647
-7.8908
-7.67048
-7.47583
-7.30666
-7.16357
-7.04586
-6.95236
-6.88116
-6.83021
-6.79609
-6.77605
-6.7665
-6.76426
-10.1349
-9.6751
-9.26564
-8.90042
-8.57378
-8.28158
-8.0209
-7.78993
-7.58781
-7.41355
-7.26688
-7.14691
-7.05201
-6.98016
-6.92906
-6.89544
-6.87608
-6.86741
-6.86593
-10.3647
-9.83961
-9.39171
-9.00202
-8.65908
-8.35565
-8.08723
-7.85087
-7.64507
-7.46839
-7.32015
-7.19937
-7.10425
-7.03278
-6.98262
-6.95072
-6.93376
-6.92828
-6.93065
-10.3647
-9.83971
-9.39184
-9.00216
-8.65921
-8.35579
-8.08737
-7.85101
-7.6452
-7.46853
-7.32029
-7.19951
-7.1044
-7.03292
-6.98277
-6.95088
-6.93392
-6.92844
-6.9308
-10.135
-9.67531
-9.26592
-8.90074
-8.57412
-8.28194
-8.02127
-7.7903
-7.58819
-7.41393
-7.26727
-7.14731
-7.05242
-6.98058
-6.9295
-6.89591
-6.87659
-6.86796
-6.86654
-9.76957
-9.38346
-9.02971
-8.7053
-8.40805
-8.13704
-7.89139
-7.67108
-7.47644
-7.30728
-7.16419
-7.04651
-6.95302
-6.88184
-6.83092
-6.79683
-6.77683
-6.76734
-6.76514
-9.26966
-8.9796
-8.69874
-8.42899
-8.17204
-7.93053
-7.70603
-7.50089
-7.317
-7.15542
-7.01802
-6.90453
-6.81445
-6.746
-6.69739
-6.66468
-6.64545
-6.63568
-6.63224
-8.65398
-8.48084
-8.2892
-8.08664
-7.87928
-7.67408
-7.47548
-7.28869
-7.11769
-6.96517
-6.83489
-6.72735
-6.64316
-6.58089
-6.53905
-6.51279
-6.49974
-6.49489
-6.495
-7.91959
-7.89797
-7.81495
-7.69198
-7.5426
-7.3794
-7.21033
-7.04397
-6.88677
-6.74355
-6.62071
-6.52026
-6.44507
-6.39527
-6.37079
-6.36596
-6.37824
-6.39923
-6.42324
-7.13856
-7.26889
-7.29657
-7.25454
-7.16325
-7.04031
-6.89743
-6.74611
-6.5952
-6.45189
-6.32421
-6.21713
-6.13636
-6.08643
-6.07263
-6.10026
-6.17783
-6.31376
-6.52061
-6.43729
-6.68599
-6.81521
-6.85456
-6.82579
-6.74838
-6.63769
-6.50733
-6.36869
-6.23265
-6.10699
-6.00173
-5.92418
-5.88368
-5.8844
-5.93867
-6.03611
-6.16436
-6.2962
-5.82453
-6.15713
-6.36864
-6.47884
-6.50654
-6.47106
-6.39064
-6.28106
-6.15668
-6.03254
-5.91665
-5.82268
-5.75462
-5.71401
-5.6817
-5.6396
-5.52863
-5.31114
-4.94577
-5.28267
-5.68346
-5.9581
-6.12085
-6.18696
-6.17477
-6.10348
-5.99052
-5.85196
-5.70358
-5.55208
-5.40691
-5.26225
-5.10387
-4.89758
-4.61574
-4.21998
-3.72096
-3.14326
-4.82437
-5.27739
-5.60549
-5.81541
-5.91778
-5.92908
-5.86828
-5.75382
-5.60276
-5.43068
-5.24332
-5.04541
-4.82613
-4.56821
-4.24792
-3.86047
-3.4176
-2.97398
-2.59243
-4.42941
-4.92535
-5.29797
-5.54759
-5.68033
-5.71037
-5.65584
-5.5356
-5.36722
-5.16597
-4.93733
-4.68436
-4.39791
-4.0684
-3.69114
-3.28354
-2.87738
-2.51834
-2.22791
-4.0731
-4.61912
-5.03308
-5.3169
-5.47478
-5.51902
-5.46693
-5.33745
-5.14873
-4.91643
-4.64717
-4.34601
-4.00999
-3.64053
-3.24776
-2.85784
-2.49962
-2.19862
-1.95555
-3.79996
-4.37896
-4.82525
-5.13538
-5.31139
-5.3637
-5.30906
-5.16642
-4.95477
-4.69108
-4.38453
-4.04456
-3.67568
-3.28854
-2.90059
-2.53706
-2.21722
-1.95235
-1.73504
-3.61165
-4.20723
-4.67303
-4.99851
-5.18324
-5.23567
-5.17237
-5.01235
-4.77588
-4.48206
-4.14335
-3.77456
-3.38668
-2.996
-2.62139
-2.28315
-1.9914
-1.74901
-1.54505
-3.51111
-4.11597
-4.58899
-4.91726
-5.09923
-5.14185
-5.06213
-4.8794
-4.61567
-4.29277
-3.92655
-3.53701
-3.1395
-2.75265
-2.39326
-2.07595
-1.8034
-1.57318
-1.3718
-3.50657
-4.10667
-4.57273
-4.88978
-5.05603
-5.07761
-4.97278
-4.76164
-4.46846
-4.11796
-3.72901
-3.32578
-2.92569
-2.54706
-2.20298
-1.90248
-1.64186
-1.41414
-1.20181
-3.58803
-4.17037
-4.61927
-4.91623
-5.0591
-5.05477
-4.9225
-4.68422
-4.36645
-3.99559
-3.59467
-3.18841
-2.79485
-2.43004
-2.10359
-1.81642
-1.55958
-1.31523
-1.05048
-3.71017
-4.26219
-4.67688
-4.93833
-5.04421
-5.00343
-4.83545
-4.56465
-4.21919
-3.82592
-3.41203
-3.00041
-2.61007
-2.25377
-1.94026
-1.6666
-1.42971
-1.21973
-1.03178
-3.86466
-4.38427
-4.76921
-5.0055
-5.09171
-5.03789
-4.86266
-4.59061
-4.24917
-3.8642
-3.46392
-3.06863
-2.69694
-2.36067
-2.06988
-1.8239
-1.62967
-1.49309
-1.44002
-4.04181
-4.52995
-4.88296
-5.08939
-5.15021
-5.07678
-4.88827
-4.60928
-4.26702
-3.8868
-3.49632
-3.11492
-2.76056
-2.4448
-2.17874
-1.96434
-1.81185
-1.72734
-1.7201
-4.23707
-4.69772
-5.01829
-5.1935
-5.22761
-5.13348
-4.93097
-4.6449
-4.30227
-3.92765
-3.54816
-3.18207
-2.84672
-2.55343
-2.31379
-2.13024
-2.01231
-1.96145
-1.97761
-4.45942
-4.88984
-5.17441
-5.3164
-5.32228
-5.20609
-4.98858
-4.69497
-4.3521
-3.98376
-3.6164
-3.26707
-2.9524
-2.68309
-2.47046
-2.31591
-2.22706
-2.20164
-2.23582
-4.71966
-5.10248
-5.34732
-5.45445
-5.43025
-5.2902
-5.05638
-4.75464
-4.41177
-4.05061
-3.69687
-3.36612
-3.07407
-2.83037
-2.64552
-2.51915
-2.4573
-2.45529
-2.50793
-4.97564
-5.31565
-5.52403
-5.59608
-5.54028
-5.37503
-5.12429
-4.81486
-4.47327
-4.12126
-3.78363
-3.47417
-3.20745
-2.9917
-2.83643
-2.7393
-2.70536
-2.72837
-2.80249
-5.23303
-5.54844
-5.72095
-5.75436
-5.66312
-5.46962
-5.20021
-4.88251
-4.5427
-4.20114
-3.88149
-3.5955
-3.35642
-3.17086
-3.04728
-2.98133
-2.97761
-3.02861
-3.12806
-5.52463
-5.80283
-5.92951
-5.9165
-5.78429
-5.55929
-5.27027
-4.9452
-4.60942
-4.28142
-3.98342
-3.72481
-3.51735
-3.36588
-3.27795
-3.24717
-3.27809
-3.36201
-3.49228
-5.84411
-6.06688
-6.1371
-6.0695
-5.89114
-5.63279
-5.32505
-4.99552
-4.66794
-4.35827
-4.0871
-3.86106
-3.69042
-3.57821
-3.53132
-3.54117
-3.6128
-3.73624
-3.90453
-6.16841
-6.33178
-6.33541
-6.20454
-5.97583
-5.68422
-5.36084
-5.03176
-4.71818
-4.43283
-4.19473
-4.00729
-3.87954
-3.81268
-3.81331
-3.87049
-3.99037
-4.16167
-4.37729
-6.51447
-6.60254
-6.52088
-6.31651
-6.0348
-5.71244
-5.37872
-5.05677
-4.76437
-4.51032
-4.31234
-4.17029
-4.09226
-4.0777
-4.13346
-4.24589
-4.42312
-4.65257
-4.92742
-6.89766
-6.8568
-6.66865
-6.38517
-6.05317
-5.70759
-5.37283
-5.06789
-4.80625
-4.59231
-4.44318
-4.35476
-4.33478
-4.38104
-4.50138
-4.67903
-4.92533
-5.22638
-5.5765
-7.20403
-7.01928
-6.72325
-6.36794
-5.99834
-5.64522
-5.32481
-5.05133
-4.83349
-4.67103
-4.58175
-4.55715
-4.60563
-4.72353
-4.92087
-5.17728
-5.5093
-5.90186
-6.35173
-7.44652
-7.12261
-6.71718
-6.29902
-5.90645
-5.56161
-5.26959
-5.03984
-4.8765
-4.77485
-4.75494
-4.80358
-4.93079
-5.13177
-5.41998
-5.77083
-6.20842
-6.71706
-7.29885
-7.6341
-7.11809
-6.6058
-6.14761
-5.7573
-5.4434
-5.19799
-5.02716
-4.93139
-4.90209
-4.96357
-5.0976
-5.3172
-5.61674
-6.01503
-6.48242
-7.0542
-7.71502
-8.47817
-7.59093
-6.89839
-6.32691
-5.87534
-5.52359
-5.26845
-5.09036
-4.9952
-4.98142
-5.03738
-5.19411
-5.42809
-5.75722
-6.17576
-6.71078
-7.32709
-8.07695
-8.94791
-9.97754
-7.26427
-6.49316
-5.93304
-5.53553
-5.25271
-5.07682
-4.98039
-4.97258
-5.0516
-5.2038
-5.46932
-5.81939
-6.27887
-6.84306
-7.55099
-8.36181
-9.35293
-10.5199
-11.9568
-6.59277
-5.87365
-5.40552
-5.10925
-4.92352
-4.84508
-4.84339
-4.93399
-5.11674
-5.37733
-5.76738
-6.25377
-6.8712
-7.61823
-8.5518
-9.6272
-10.9606
-12.5669
-14.681
-5.58058
-5.06811
-4.76393
-4.60388
-4.53404
-4.56429
-4.66547
-4.86173
-5.15643
-5.53627
-6.06698
-6.7132
-7.52359
-8.50445
-9.74035
-11.1887
-13.0284
-15.3173
-18.6664
-4.31336
-4.12175
-4.02461
-4.01823
-4.07266
-4.2154
-4.42187
-4.72578
-5.13585
-5.64199
-6.32717
-7.15769
-8.20277
-9.48516
-11.1343
-13.1255
-15.7463
-19.1487
-24.9933
-2.94488
-3.09183
-3.20442
-3.35022
-3.52692
-3.77831
-4.08539
-4.49126
-5.01143
-5.64191
-6.48668
-7.51989
-8.84172
-10.5083
-12.7259
-15.5258
-19.3996
-24.7082
-36.1148
-1.64333
-2.03724
-2.32185
-2.60167
-2.88989
-3.23911
-3.63419
-4.12609
-4.73737
-5.47344
-6.46344
-7.6962
-9.3188
-11.4526
-14.4395
-18.4568
-24.411
-33.153
-57.9644
-0.538761
-1.00449
-1.39421
-1.77965
-2.16374
-2.5957
-3.05859
-3.60964
-4.27431
-5.07148
-6.15872
-7.53997
-9.43675
-12.1156
-16.2451
-22.6531
-34.0615
-55.077
-130.112
)
;

boundaryField
{
    up
    {
        type            calculated;
        value           nonuniform List<scalar> 
84
(
-117.905
-63.8563
-39.2062
-26.7882
-19.8085
-15.4615
-12.5188
-10.398
-8.80017
-7.5512
-6.55145
-5.73554
-5.0555
-4.48065
-3.98802
-3.55981
-3.18265
-2.84651
-2.54324
-2.26426
-2.00033
-1.73568
-1.42999
-0.929873
-0.903253
-1.13788
-1.31236
-1.48382
-1.66857
-1.87996
-2.13429
-2.45139
-2.92597
-4.92252
-6.50752
-6.65021
-6.42597
-6.49124
-6.62866
-6.76337
-6.86616
-6.93342
-6.93358
-6.8668
-6.76429
-6.62955
-6.49208
-6.42612
-6.64819
-6.50933
-4.94278
-2.92967
-2.45365
-2.13605
-1.8814
-1.66983
-1.48499
-1.31354
-1.1394
-0.904268
-0.929266
-1.43006
-1.73572
-2.00035
-2.26428
-2.54325
-2.84652
-3.18265
-3.5598
-3.98802
-4.48064
-5.0555
-5.73554
-6.55146
-7.5512
-8.80018
-10.398
-12.5188
-15.4615
-19.8085
-26.7882
-39.2062
-63.8563
-117.905
)
;
    }
    low
    {
        type            calculated;
        value           nonuniform List<scalar> 
84
(
-0.577456
-1.71452
-3.10073
-4.5779
-5.94906
-7.03224
-7.72203
-8.01958
-7.9776
-7.67847
-7.37582
-7.01053
-6.54762
-6.15688
-5.80653
-5.45277
-5.13189
-4.86618
-4.59362
-4.29521
-4.04419
-3.82746
-3.62386
-3.44442
-3.27707
-3.17642
-3.18447
-3.31616
-3.54462
-3.86924
-4.27112
-4.69625
-5.19126
-5.77777
-6.42858
-7.18247
-8.03909
-8.82476
-9.47412
-10.0034
-10.3926
-10.6526
-10.6526
-10.3926
-10.0035
-9.47423
-8.82486
-8.03922
-7.18262
-6.42856
-5.77786
-5.19123
-4.69624
-4.27111
-3.86924
-3.54462
-3.31618
-3.1845
-3.17646
-3.27714
-3.44455
-3.6239
-3.82752
-4.04424
-4.29525
-4.59365
-4.86621
-5.13191
-5.45278
-5.80653
-6.15687
-6.54761
-7.01051
-7.37579
-7.67845
-7.9776
-8.0196
-7.72206
-7.03227
-5.94909
-4.57793
-3.10075
-1.71453
-0.577459
)
;
    }
    left
    {
        type            calculated;
        value           nonuniform List<scalar> 
19
(
-0.528317
-0.985189
-1.38188
-1.77907
-2.17793
-2.62639
-3.10886
-3.6857
-4.38363
-5.23081
-6.39269
-7.88112
-9.94789
-12.9123
-17.5246
-24.7998
-37.9068
-62.3413
-122.295
)
;
    }
    right
    {
        type            calculated;
        value           nonuniform List<scalar> 
19
(
-0.528319
-0.985191
-1.38188
-1.77908
-2.17793
-2.62639
-3.10886
-3.6857
-4.38362
-5.23081
-6.39269
-7.88112
-9.94788
-12.9122
-17.5246
-24.7997
-37.9068
-62.3413
-122.295
)
;
    }
    frontAndBackPlanes
    {
        type            empty;
    }
}


// ************************************************************************* //
