/*--------------------------------*- C++ -*----------------------------------*\
  =========                 |
  \\      /  F ield         | OpenFOAM: The Open Source CFD Toolbox
   \\    /   O peration     | Website:  https://openfoam.org
    \\  /    A nd           | Version:  7
     \\/     M anipulation  |
\*---------------------------------------------------------------------------*/
FoamFile
{
    version     2.0;
    format      ascii;
    class       volScalarField;
    location    "0.339";
    object      gradTx;
}
// * * * * * * * * * * * * * * * * * * * * * * * * * * * * * * * * * * * * * //

dimensions      [0 -1 0 1 0 0 0];

internalField   nonuniform List<scalar> 
1596
(
-0.180002
-0.905478
-1.62978
-2.29763
-2.90974
-3.46798
-3.99768
-4.51478
-5.03967
-5.61248
-6.24204
-6.97642
-7.87471
-9.02736
-10.5447
-12.7141
-15.9848
-21.3301
-30.7616
0.0396417
-0.753973
-1.46486
-2.09067
-2.64969
-3.14748
-3.60653
-4.03452
-4.44631
-4.86175
-5.28018
-5.72587
-6.20465
-6.72722
-7.27692
-7.82745
-8.24994
-8.28584
-7.38979
0.219565
-0.617903
-1.30501
-1.88354
-2.38527
-2.82111
-3.21019
-3.55734
-3.8722
-4.16472
-4.4307
-4.68164
-4.90993
-5.10822
-5.25056
-5.29476
-5.13628
-4.59539
-3.324
0.247763
-0.548033
-1.17716
-1.69473
-2.13418
-2.50859
-2.83283
-3.1107
-3.34813
-3.54979
-3.71164
-3.83837
-3.92096
-3.94913
-3.90209
-3.74569
-3.41151
-2.78993
-1.67192
0.0714793
-0.576866
-1.10448
-1.54334
-1.91479
-2.22874
-2.49439
-2.71451
-2.89228
-3.02912
-3.12263
-3.17364
-3.17512
-3.11824
-2.98919
-2.76375
-2.40065
-1.83576
-0.947391
-0.295058
-0.716001
-1.10337
-1.44568
-1.74276
-1.9963
-2.20842
-2.37996
-2.51159
-2.60242
-2.65155
-2.6575
-2.61555
-2.51892
-2.35931
-2.12001
-1.77713
-1.29342
-0.598684
-0.783133
-0.953688
-1.17932
-1.41161
-1.62828
-1.82015
-1.98163
-2.11049
-2.20479
-2.2617
-2.28107
-2.25994
-2.19527
-2.08194
-1.91532
-1.68379
-1.37396
-0.964041
-0.413445
-1.2947
-1.24542
-1.3128
-1.43212
-1.56629
-1.69615
-1.80908
-1.89912
-1.96166
-1.9921
-1.99023
-1.95211
-1.87566
-1.75691
-1.59345
-1.37709
-1.10057
-0.75114
-0.305255
-1.82364
-1.61739
-1.54352
-1.54932
-1.59562
-1.65767
-1.71788
-1.76653
-1.79643
-1.80126
-1.77993
-1.72778
-1.64295
-1.52208
-1.36388
-1.16237
-0.913726
-0.610379
-0.238404
-2.13905
-1.87375
-1.71567
-1.63963
-1.61638
-1.62208
-1.63784
-1.65162
-1.65448
-1.63886
-1.60266
-1.54086
-1.45156
-1.33187
-1.1811
-0.994956
-0.771638
-0.506861
-0.192412
-2.39329
-2.10244
-1.89363
-1.75728
-1.67591
-1.63057
-1.60405
-1.58371
-1.55973
-1.52379
-1.47278
-1.40142
-1.30757
-1.18853
-1.04383
-0.870218
-0.66703
-0.431974
-0.160359
-2.64937
-2.35587
-2.11584
-1.93266
-1.7997
-1.70465
-1.63408
-1.5764
-1.52193
-1.46212
-1.39306
-1.30921
-1.20806
-1.08685
-0.945028
-0.77993
-0.591391
-0.37823
-0.137765
-2.71057
-2.45665
-2.22252
-2.02477
-1.86643
-1.74195
-1.64246
-1.55861
-1.48188
-1.40424
-1.32153
-1.22836
-1.12205
-0.99994
-0.861445
-0.704405
-0.528965
-0.33467
-0.120044
-2.71575
-2.5054
-2.29205
-2.09557
-1.92542
-1.78202
-1.66105
-1.55608
-1.46031
-1.36674
-1.2714
-1.16922
-1.05749
-0.933657
-0.797098
-0.64601
-0.48069
-0.30112
-0.106595
-2.69706
-2.5264
-2.3389
-2.15281
-1.9802
-1.82578
-1.68927
-1.56726
-1.45508
-1.34706
-1.23979
-1.12869
-1.01111
-0.884635
-0.748617
-0.601513
-0.443692
-0.275389
-0.0963392
-2.61642
-2.48795
-2.33154
-2.16473
-2.00021
-1.84515
-1.7022
-1.57065
-1.44794
-1.32992
-1.21399
-1.09621
-0.97416
-0.845621
-0.709998
-0.566016
-0.414168
-0.254905
-0.0882376
-2.4731
-2.38415
-2.26131
-2.12006
-1.97241
-1.82647
-1.6866
-1.5541
-1.42821
-1.30621
-1.18644
-1.06565
-0.94175
-0.812773
-0.678224
-0.537138
-0.390246
-0.238337
-0.0817317
-2.30903
-2.24505
-2.15143
-2.0365
-1.9096
-1.77841
-1.64798
-1.52084
-1.39759
-1.27673
-1.15742
-1.03709
-0.913984
-0.786312
-0.653623
-0.515194
-0.372072
-0.225594
-0.0766549
-2.17152
-2.12803
-2.05726
-1.96413
-1.85536
-1.73768
-1.6164
-1.49493
-1.37494
-1.25602
-1.13804
-1.01903
-0.897426
-0.771475
-0.640496
-0.503689
-0.362233
-0.21814
-0.0733373
-1.94308
-1.92569
-1.88038
-1.81307
-1.72892
-1.63329
-1.53089
-1.42517
-1.31828
-1.21041
-1.10191
-0.991288
-0.877165
-0.757775
-0.632085
-0.498878
-0.359071
-0.215329
-0.0714796
-1.69487
-1.69826
-1.67596
-1.63303
-1.57355
-1.50167
-1.42127
-1.33548
-1.24646
-1.15466
-1.0606
-0.963032
-0.860692
-0.751757
-0.634682
-0.5073
-0.369173
-0.222373
-0.0728818
-1.43963
-1.45697
-1.45416
-1.43371
-1.39825
-1.35075
-1.29424
-1.23131
-1.16391
-1.09244
-1.01725
-0.937141
-0.850821
-0.756493
-0.652253
-0.534793
-0.400986
-0.248968
-0.0826201
-1.16008
-1.18509
-1.19846
-1.19949
-1.18882
-1.16798
-1.13896
-1.1036
-1.06339
-1.01834
-0.968223
-0.911567
-0.846815
-0.772365
-0.686585
-0.585965
-0.464839
-0.314245
-0.122761
-0.847401
-0.838982
-0.821529
-0.795474
-0.763469
-0.728926
-0.69566
-0.666521
-0.643209
-0.625356
-0.610611
-0.5952
-0.574998
-0.546452
-0.506894
-0.453391
-0.38103
-0.27872
-0.124997
-0.567769
-0.638875
-0.724523
-0.815372
-0.904607
-0.986896
-1.05925
-1.11966
-1.16723
-1.20094
-1.21863
-1.21846
-1.19853
-1.15944
-1.10328
-1.03263
-0.946759
-0.838875
-0.689254
-0.194457
-0.233626
-0.287231
-0.349457
-0.416056
-0.483908
-0.55177
-0.618814
-0.684837
-0.748787
-0.806849
-0.85484
-0.886601
-0.898653
-0.890599
-0.867268
-0.833485
-0.795249
-0.75447
0.180178
0.130327
0.0607238
-0.022844
-0.115122
-0.212012
-0.311267
-0.411733
-0.513141
-0.61475
-0.712901
-0.802371
-0.874892
-0.923671
-0.945431
-0.944311
-0.926791
-0.901412
-0.872394
0.556497
0.489794
0.398693
0.290171
0.170438
0.0444142
-0.0849677
-0.216506
-0.350266
-0.486343
-0.622166
-0.752444
-0.867426
-0.956503
-1.01175
-1.0343
-1.03121
-1.01379
-0.989072
0.900698
0.809261
0.691555
0.556267
0.410207
0.258685
0.10469
-0.0510081
-0.209328
-0.371807
-0.537863
-0.703656
-0.859419
-0.991288
-1.08512
-1.13589
-1.14843
-1.13675
-1.11261
1.2637
1.14313
0.996387
0.832938
0.660084
0.483514
0.306163
0.12837
-0.0516175
-0.236867
-0.429221
-0.627756
-0.824947
-1.00586
-1.14999
-1.24259
-1.28049
-1.27749
-1.25198
1.54647
1.39159
1.21457
1.02521
0.831061
0.63746
0.446569
0.257783
0.0683125
-0.126474
-0.330951
-0.548207
-0.775668
-1.00172
-1.20293
-1.35382
-1.4351
-1.45065
-1.42171
1.82042
1.63508
1.42846
1.21421
1.00051
0.79218
0.590536
0.394194
0.199754
0.00171712
-0.205975
-0.430206
-0.674992
-0.937229
-1.19857
-1.42948
-1.59052
-1.65955
-1.64525
2.08497
1.8604
1.62189
1.3837
1.15315
0.93372
0.725537
0.52645
0.332864
0.139258
-0.0606031
-0.275371
-0.514385
-0.785461
-1.08464
-1.39557
-1.67243
-1.86061
-1.90444
2.2736
1.98939
1.70192
1.42385
1.16024
0.912468
0.679139
0.457373
0.2435
0.0325507
-0.180867
-0.404709
-0.64955
-0.930083
-1.259
-1.64823
-2.08327
-2.52531
-2.89822
2.40978
2.09509
1.79959
1.53172
1.29168
1.07737
0.884946
0.710645
0.550806
0.401927
0.261394
0.125897
-0.00836656
-0.147892
-0.303175
-0.495273
-0.748086
-1.09005
-1.53772
2.52643
2.19651
1.90758
1.65716
1.43932
1.24876
1.07996
0.928718
0.791518
0.665385
0.548859
0.440725
0.340639
0.248987
0.167052
0.0946193
0.0300038
-0.0351164
-0.116952
2.43157
2.05311
1.73525
1.46587
1.23485
1.03478
0.859143
0.703196
0.563263
0.436263
0.320767
0.215626
0.120446
0.0356427
-0.0371656
-0.0962569
-0.138741
-0.161867
-0.164308
2.16751
1.81471
1.52475
1.28333
1.07954
0.905496
0.754731
0.622566
0.505552
0.400925
0.307297
0.223582
0.149132
0.0837086
0.0274978
-0.019729
-0.0581242
-0.08811
-0.110534
1.8256
1.52316
1.27572
1.07129
0.900299
0.755536
0.631261
0.523248
0.428448
0.344419
0.269777
0.203419
0.144437
0.0922015
0.046367
0.00632103
-0.0283858
-0.0580883
-0.0833418
1.38982
1.15328
0.962365
0.80655
0.677605
0.569406
0.477264
0.397729
0.328354
0.267182
0.21302
0.164921
0.12203
0.0837288
0.0496423
0.0192843
-0.00764132
-0.0312236
-0.0517253
0.882205
0.724009
0.600099
0.500911
0.419879
0.352472
0.295434
0.246428
0.203832
0.166356
0.133184
0.103673
0.0772242
0.0533962
0.0319171
0.0124768
-0.00509262
-0.0207682
-0.0346214
0.340722
0.277929
0.230361
0.192766
0.162134
0.136591
0.114882
0.0961301
0.0797334
0.0652174
0.0522705
0.0406467
0.030111
0.0204848
0.0116453
0.00345928
-0.00415796
-0.0112092
-0.0177151
-0.340558
-0.277579
-0.229897
-0.192236
-0.161571
-0.13602
-0.114322
-0.0955945
-0.0792329
-0.0647606
-0.051864
-0.0402956
-0.0298198
-0.0202567
-0.0114829
-0.00336463
0.0041837
0.0111662
0.0176045
-0.882055
-0.723708
-0.599703
-0.500462
-0.419408
-0.352001
-0.294982
-0.246008
-0.203453
-0.166026
-0.13291
-0.10346
-0.0770752
-0.0533139
-0.0319029
-0.0125315
0.00496928
0.020578
0.0343677
-1.38968
-1.153
-0.961989
-0.806112
-0.677132
-0.568921
-0.476783
-0.397265
-0.327919
-0.266783
-0.212665
-0.164613
-0.121772
-0.0835196
-0.0494806
-0.0191667
0.00771973
0.0312688
0.0517436
-1.8255
-1.52299
-1.27549
-1.07102
-0.900017
-0.755253
-0.630993
-0.523008
-0.428245
-0.344262
-0.269672
-0.203369
-0.144443
-0.0922627
-0.0464779
-0.00647479
0.0281978
0.0578749
0.0831116
-2.16746
-1.81462
-1.52463
-1.28318
-1.07937
-0.905321
-0.754565
-0.622422
-0.505442
-0.400858
-0.307282
-0.223625
-0.149234
-0.0838674
-0.0277063
0.0194839
0.0578612
0.0878519
0.110307
-2.4316
-2.05313
-1.73524
-1.46585
-1.23481
-1.03473
-0.85911
-0.703192
-0.563302
-0.436361
-0.320939
-0.215884
-0.120803
-0.0361071
0.0365985
0.0956088
0.138067
0.161254
0.163861
-2.52646
-2.19636
-1.90716
-1.65644
-1.43827
-1.24739
-1.07828
-0.926737
-0.789256
-0.662857
-0.546081
-0.437707
-0.337387
-0.245506
-0.163369
-0.0908334
-0.0263686
0.0380562
0.118288
-2.41026
-2.09634
-1.80166
-1.53461
-1.29538
-1.08187
-0.890223
-0.716693
-0.557623
-0.409525
-0.269813
-0.135216
-0.0019992
0.136217
0.28979
0.479599
0.729529
1.0683
1.51316
-2.27344
-1.98894
-1.7011
-1.42264
-1.15862
-0.910447
-0.676737
-0.454618
-0.240427
-0.0292039
0.184435
0.40843
0.653342
0.933869
1.26278
1.65221
2.08805
2.53196
2.90819
-2.08514
-1.8608
-1.62248
-1.38445
-1.15403
-0.934689
-0.726587
-0.527573
-0.334059
-0.140537
0.0592192
0.273855
0.512726
0.783712
1.08297
1.39433
1.67204
1.86133
1.90595
-1.82053
-1.63533
-1.42883
-1.21468
-1.00105
-0.792774
-0.591176
-0.394878
-0.200487
-0.00250823
0.205115
0.429281
0.674049
0.936384
1.19802
1.42946
1.59116
1.66076
1.64675
-1.54658
-1.39183
-1.21493
-1.02568
-0.8316
-0.638056
-0.447208
-0.258458
-0.0690208
0.125736
0.330194
0.547464
0.775016
1.00128
1.20284
1.35417
1.43587
1.45167
1.42282
-1.2638
-1.14336
-0.996743
-0.833397
-0.660624
-0.484114
-0.306805
-0.12904
0.0509315
0.23618
0.428561
0.62717
0.824514
1.00568
1.15012
1.24304
1.28119
1.27833
1.25288
-0.900783
-0.809473
-0.691882
-0.556693
-0.41071
-0.259244
-0.105284
0.0503985
0.20872
0.371225
0.537341
0.703243
0.85918
0.99128
1.08537
1.13637
1.14906
1.13747
1.1134
-0.556585
-0.490007
-0.399025
-0.290603
-0.170949
-0.0449795
0.0843731
0.215906
0.349685
0.485812
0.62172
0.752131
0.867291
0.956577
1.01203
1.03475
1.03179
1.01447
0.989822
-0.180251
-0.130523
-0.0610362
0.0224318
0.114633
0.211474
0.310707
0.411179
0.512621
0.614297
0.71255
0.80216
0.874851
0.923813
0.945746
0.944774
0.927371
0.902093
0.873178
0.194294
0.233129
0.286371
0.348236
0.414504
0.482075
0.549726
0.616637
0.682609
0.746596
0.804772
0.852951
0.884951
0.897268
0.88948
0.866422
0.832936
0.795096
0.754939
0.567889
0.639328
0.72541
0.816755
0.906509
0.989302
1.06211
1.12291
1.17078
1.2047
1.22251
1.22237
1.20242
1.16326
1.107
1.03623
0.950243
0.842223
0.692413
0.847286
0.838552
0.820764
0.794388
0.762104
0.72734
0.693927
0.664713
0.641396
0.623601
0.608961
0.593693
0.573656
0.545286
0.505905
0.452577
0.380393
0.278272
0.124793
1.16016
1.18525
1.1987
1.19979
1.18919
1.16839
1.13938
1.10401
1.06377
1.01868
0.968511
0.911801
0.846996
0.772496
0.68667
0.586008
0.464845
0.314225
0.122744
1.43965
1.457
1.4542
1.43376
1.3983
1.35081
1.2943
1.23137
1.16397
1.09248
1.01728
0.937163
0.850832
0.756493
0.652244
0.534775
0.400963
0.248949
0.0826134
1.69489
1.69829
1.67599
1.63307
1.5736
1.50172
1.42132
1.33552
1.2465
1.15469
1.06062
0.963043
0.860695
0.751752
0.634672
0.507286
0.369159
0.222363
0.0728791
1.9431
1.92571
1.88041
1.8131
1.72896
1.63333
1.53092
1.4252
1.31831
1.21043
1.10192
0.991292
0.877163
0.757768
0.632076
0.498867
0.359062
0.215324
0.071478
2.17154
2.12805
2.05729
1.96416
1.85539
1.73771
1.61643
1.49495
1.37496
1.25603
1.13804
1.01903
0.897422
0.771468
0.640488
0.503681
0.362226
0.218137
0.0733363
2.30905
2.24507
2.15145
2.03652
1.90962
1.77843
1.648
1.52086
1.3976
1.27673
1.15742
1.03709
0.913978
0.786305
0.653615
0.515187
0.372067
0.225591
0.0766541
2.47312
2.38416
2.26133
2.12008
1.97243
1.82648
1.68661
1.55411
1.42821
1.30621
1.18644
1.06564
0.941743
0.812765
0.678217
0.537133
0.390242
0.238335
0.0817312
2.61643
2.48797
2.33156
2.16475
2.00022
1.84516
1.70221
1.57065
1.44794
1.32992
1.21399
1.0962
0.974154
0.845615
0.709992
0.566012
0.414165
0.254903
0.0882373
2.69707
2.52641
2.33891
2.15282
1.98021
1.82579
1.68927
1.56726
1.45508
1.34705
1.23979
1.12868
1.0111
0.884629
0.748612
0.601509
0.443689
0.275388
0.0963391
2.71576
2.50541
2.29206
2.09558
1.92543
1.78203
1.66105
1.55607
1.46031
1.36674
1.27139
1.16922
1.05749
0.933653
0.797095
0.646008
0.480688
0.30112
0.106595
2.71058
2.45667
2.22253
2.02478
1.86644
1.74196
1.64246
1.55861
1.48188
1.40424
1.32153
1.22836
1.12205
0.999938
0.861444
0.704405
0.528966
0.334671
0.120044
2.64937
2.35587
2.11584
1.93266
1.79969
1.70464
1.63407
1.57639
1.52192
1.46212
1.39305
1.30921
1.20805
1.08685
0.945025
0.779929
0.591391
0.37823
0.137765
2.3933
2.10245
1.89365
1.75729
1.67591
1.63058
1.60405
1.58371
1.55972
1.52379
1.47278
1.40142
1.30757
1.18853
1.04383
0.87022
0.667032
0.431976
0.16036
2.13907
1.87377
1.71569
1.63964
1.61638
1.62209
1.63784
1.65162
1.65448
1.63886
1.60266
1.54086
1.45156
1.33187
1.18111
0.994959
0.771641
0.506863
0.192412
1.82367
1.6174
1.54353
1.54932
1.59563
1.65768
1.71788
1.76653
1.79643
1.80126
1.77993
1.72778
1.64295
1.52209
1.36388
1.16237
0.91373
0.610381
0.238404
1.29472
1.24543
1.3128
1.43212
1.56629
1.69615
1.80908
1.89912
1.96166
1.9921
1.99023
1.95211
1.87566
1.75691
1.59345
1.37709
1.10058
0.751142
0.305255
0.783147
0.953696
1.17932
1.41161
1.62828
1.82015
1.98163
2.11049
2.20479
2.2617
2.28107
2.25994
2.19527
2.08194
1.91532
1.6838
1.37396
0.964041
0.413445
0.295067
0.716007
1.10337
1.44568
1.74276
1.9963
2.20842
2.37996
2.51159
2.60242
2.65155
2.6575
2.61555
2.51892
2.35931
2.12001
1.77713
1.29342
0.598683
-0.071474
0.57687
1.10449
1.54334
1.91479
2.22874
2.49439
2.71451
2.89228
3.02912
3.12263
3.17364
3.17512
3.11824
2.98919
2.76375
2.40065
1.83576
0.94739
-0.247762
0.548035
1.17717
1.69473
2.13418
2.50859
2.83283
3.1107
3.34813
3.54979
3.71164
3.83837
3.92095
3.94912
3.90208
3.74569
3.41151
2.78993
1.67192
-0.219566
0.617904
1.30501
1.88354
2.38527
2.82111
3.21019
3.55734
3.8722
4.16472
4.43069
4.68163
4.90993
5.10821
5.25056
5.29475
5.13627
4.59538
3.324
-0.0396423
0.753973
1.46486
2.09067
2.64969
3.14748
3.60653
4.03452
4.44631
4.86175
5.28018
5.72587
6.20465
6.72721
7.27691
7.82745
8.24994
8.28584
7.38979
0.180002
0.905479
1.62978
2.29763
2.90974
3.46798
3.99768
4.51478
5.03967
5.61248
6.24203
6.97641
7.8747
9.02736
10.5447
12.7141
15.9848
21.3301
30.7616
)
;

boundaryField
{
    up
    {
        type            calculated;
        value           nonuniform List<scalar> 
84
(
-30.7616
-7.38979
-3.324
-1.67192
-0.947391
-0.598684
-0.413445
-0.305255
-0.238404
-0.192412
-0.160359
-0.137765
-0.120044
-0.106595
-0.0963392
-0.0882376
-0.0817317
-0.0766549
-0.0733373
-0.0714796
-0.0728818
-0.0826201
-0.122761
-0.124997
-0.593691
-0.712702
-0.834088
-0.949989
-1.07053
-1.20445
-1.36307
-1.55674
-1.76806
-2.89747
-1.59994
-0.120387
-0.164415
-0.110498
-0.0833122
-0.0517208
-0.0346242
-0.0177239
0.0176133
0.0343707
0.0517394
0.0830822
0.110271
0.163967
0.12168
1.57452
2.90942
1.76938
1.55804
1.36411
1.20532
1.07131
0.950746
0.834896
0.713468
0.596593
0.124793
0.122744
0.0826134
0.0728791
0.071478
0.0733363
0.0766541
0.0817312
0.0882373
0.0963391
0.106595
0.120044
0.137765
0.16036
0.192412
0.238404
0.305255
0.413445
0.598683
0.94739
1.67192
3.324
7.38979
30.7616
)
;
    }
    low
    {
        type            calculated;
        value           nonuniform List<scalar> 
84
(
-0.162573
0.0654504
0.261666
0.293987
0.100791
-0.300521
-0.828366
-1.37093
-1.91153
-2.21006
-2.45383
-2.69511
-2.72429
-2.70923
-2.67745
-2.57912
-2.42143
-2.25407
-2.10852
-1.86565
-1.61175
-1.35719
-1.08154
-0.779773
-0.515819
-0.175845
0.158929
0.502977
0.830433
1.19074
1.48314
1.76542
2.0438
2.25222
2.40513
2.54252
2.47109
2.21355
1.86881
1.42553
0.906459
0.351022
-0.350857
-0.906305
-1.42537
-1.8687
-2.21348
-2.47108
-2.54251
-2.40553
-2.25207
-2.04394
-1.76552
-1.48325
-1.19083
-0.83052
-0.503068
-0.159003
0.175687
0.515936
0.779666
1.08161
1.35721
1.61177
1.86567
2.10854
2.25409
2.42145
2.57913
2.67745
2.70924
2.72431
2.69511
2.45384
2.21008
1.91155
1.37095
0.828381
0.300531
-0.100785
-0.293987
-0.261669
-0.0654521
0.162573
)
;
    }
    left
    {
        type            calculated;
        value           nonuniform List<scalar> 
19
(
-0.159421
-0.868249
-1.60645
-2.29651
-2.93425
-3.51809
-4.0757
-4.62582
-5.1889
-5.81636
-6.51627
-7.34389
-8.378
-9.74204
-11.5761
-14.2863
-18.4961
-25.5649
-26.6819
)
;
    }
    right
    {
        type            calculated;
        value           nonuniform List<scalar> 
19
(
0.159422
0.868251
1.60645
2.29651
2.93425
3.51809
4.0757
4.62582
5.1889
5.81635
6.51627
7.34389
8.37799
9.74203
11.5761
14.2862
18.4961
25.5649
26.6819
)
;
    }
    frontAndBackPlanes
    {
        type            empty;
    }
}


// ************************************************************************* //
