/*--------------------------------*- C++ -*----------------------------------*\
  =========                 |
  \\      /  F ield         | OpenFOAM: The Open Source CFD Toolbox
   \\    /   O peration     | Website:  https://openfoam.org
    \\  /    A nd           | Version:  7
     \\/     M anipulation  |
\*---------------------------------------------------------------------------*/
FoamFile
{
    version     2.0;
    format      ascii;
    class       volScalarField;
    location    "0.12";
    object      T;
}
// * * * * * * * * * * * * * * * * * * * * * * * * * * * * * * * * * * * * * //

dimensions      [0 0 0 1 0 0 0];

internalField   nonuniform List<scalar> 
1596
(
3.98231
3.93196
3.8816
3.83609
3.79723
3.76509
3.73912
3.71763
3.6993
3.68116
3.66095
3.63547
3.59849
3.54202
3.45451
3.31161
3.06923
2.63984
1.84786
3.92408
3.76848
3.62529
3.49986
3.3939
3.3066
3.23599
3.17831
3.13003
3.08529
3.0391
2.98521
2.91351
2.81233
2.66813
2.45786
2.14809
1.68323
0.958953
3.85677
3.59789
3.37072
3.17588
3.01275
2.87896
2.77108
2.68394
2.61251
2.54952
2.48858
2.42218
2.33941
2.22828
2.07619
1.86427
1.56893
1.15645
0.566118
3.79292
3.44074
3.1401
2.88566
2.67389
2.50077
2.36156
2.25015
2.16055
2.08484
2.01605
1.94627
1.86486
1.76059
1.62224
1.43443
1.18007
0.838015
0.372428
3.74319
3.31434
2.95187
2.6467
2.39314
2.18596
2.0195
1.88705
1.78207
1.69639
1.62284
1.5535
1.47835
1.38709
1.26969
1.11326
0.904557
0.629138
0.264603
3.71327
3.22837
2.81634
2.4684
2.17846
1.94088
1.7496
1.59769
1.4783
1.38325
1.30535
1.2368
1.16826
1.0903
0.99384
0.867724
0.700974
0.482605
0.197263
3.70228
3.18276
2.73364
2.35046
2.02873
1.7635
1.54891
1.37813
1.24429
1.13931
1.05605
0.986883
0.923071
0.855933
0.777199
0.676979
0.545739
0.37431
0.15103
3.70479
3.16959
2.69547
2.28449
1.93547
1.64518
1.40858
1.21937
1.07084
0.955115
0.865153
0.793468
0.731836
0.672221
0.607016
0.527371
0.424803
0.291218
0.116987
3.71611
3.17991
2.69139
2.25962
1.88773
1.57501
1.31785
1.11078
0.947524
0.82047
0.722679
0.6468
0.584997
0.529754
0.474034
0.409867
0.329648
0.226073
0.0907894
3.72831
3.1994
2.70498
2.25926
1.86949
1.5378
1.26242
1.03899
0.861821
0.723684
0.617764
0.536813
0.473286
0.42007
0.3706
0.317674
0.254473
0.174397
0.0700902
3.73707
3.21753
2.72268
2.2689
1.8664
1.51988
1.22948
0.992058
0.802698
0.654582
0.541066
0.454995
0.389031
0.336365
0.290819
0.245852
0.195362
0.133433
0.0536025
3.74645
3.23665
2.74361
2.28505
1.87327
1.51507
1.2123
0.963057
0.763198
0.606354
0.486052
0.395209
0.326605
0.273639
0.230415
0.190931
0.149709
0.101484
0.040622
3.75426
3.25327
2.76267
2.30121
1.88267
1.51548
1.20291
0.944159
0.735798
0.571862
0.446033
0.35126
0.28038
0.226905
0.185135
0.149482
0.114986
0.0769709
0.0305644
3.75766
3.26217
2.77345
2.31021
1.88705
1.51348
1.19389
0.928292
0.713843
0.544898
0.415244
0.317829
0.245498
0.19182
0.151219
0.118423
0.0888905
0.0584526
0.0229097
3.75952
3.26599
2.77727
2.31194
1.88503
1.50677
1.18225
0.912059
0.693712
0.521747
0.38997
0.291275
0.218466
0.16512
0.125734
0.095266
0.0695039
0.0446954
0.0172056
3.76077
3.26662
2.77562
2.30699
1.87625
1.49413
1.16614
0.893157
0.672821
0.499667
0.367398
0.268774
0.196511
0.144153
0.106231
0.0778745
0.0551251
0.0345672
0.0130222
3.7602
3.26286
2.76747
2.29417
1.85921
1.47375
1.14352
0.869418
0.648938
0.476411
0.345289
0.248114
0.177465
0.126826
0.0907468
0.0644959
0.0443215
0.0270832
0.00997023
3.7585
3.2557
2.75389
2.27443
1.83452
1.44584
1.1142
0.840312
0.621273
0.450989
0.322502
0.228035
0.159983
0.111756
0.0779149
0.053855
0.0360079
0.0214691
0.00772946
3.75907
3.2506
2.74071
2.25322
1.80686
1.41413
1.08097
0.807756
0.591002
0.423976
0.299134
0.208269
0.14353
0.0982215
0.0669117
0.0451135
0.0294277
0.0171602
0.00605656
3.76099
3.24766
2.72886
2.23181
1.77756
1.37979
1.04472
0.772374
0.558477
0.39548
0.275086
0.18854
0.127686
0.0856979
0.0571481
0.0376708
0.0240343
0.0137433
0.00477093
3.76196
3.24399
2.71612
2.20886
1.74592
1.34257
1.00549
0.734303
0.523852
0.365607
0.250374
0.168761
0.112259
0.0739029
0.048277
0.0311509
0.0194706
0.0109414
0.00374887
3.76357
3.2415
2.70471
2.18688
1.71464
1.30513
0.965675
0.695573
0.488735
0.335544
0.225806
0.149417
0.097476
0.0628684
0.0401943
0.025368
0.0155231
0.00857309
0.00290817
3.76666
3.24198
2.69694
2.16859
1.68666
1.27041
0.92801
0.658552
0.455033
0.306722
0.202374
0.131128
0.0836674
0.0527114
0.0328702
0.0201985
0.0120199
0.00647027
0.00216559
3.7709
3.2455
2.69351
2.15536
1.66391
1.24067
0.894822
0.625388
0.424552
0.28053
0.181051
0.114502
0.0711506
0.0435384
0.0262679
0.0155093
0.00875883
0.00437943
0.00129595
3.77952
3.26415
2.71644
2.17802
1.68333
1.25544
0.904825
0.631319
0.42744
0.281396
0.180733
0.113594
0.0700324
0.0424217
0.0252497
0.0146114
0.00797874
0.00374863
0.000958531
3.7899
3.29254
2.75886
2.22917
1.73757
1.30774
0.951576
0.670495
0.458466
0.304764
0.197529
0.125156
0.0776711
0.0472825
0.0282449
0.0164051
0.0090114
0.00428607
0.0011346
3.79577
3.31234
2.79219
2.27313
1.7877
1.35919
1.00011
0.713152
0.493702
0.332292
0.217936
0.139537
0.0873028
0.0534108
0.0319564
0.0185448
0.0101734
0.00484417
0.00129613
3.79717
3.32287
2.815
2.308
1.83176
1.40809
1.04931
0.758837
0.533324
0.364626
0.242862
0.157704
0.0997937
0.0614775
0.0368329
0.0212887
0.0115897
0.00547111
0.00145362
3.796
3.32753
2.83099
2.33711
1.87243
1.45652
1.10082
0.809034
0.578803
0.403293
0.27386
0.181159
0.116483
0.0725628
0.0436477
0.0251206
0.0135227
0.00628677
0.00163936
3.79276
3.32839
2.84309
2.36337
1.91209
1.50622
1.1559
0.864714
0.631086
0.449369
0.312185
0.211282
0.138759
0.0879123
0.0533732
0.0306822
0.0163221
0.00744495
0.00189299
3.78888
3.32901
2.85557
2.3909
1.95424
1.55989
1.21653
0.927412
0.691493
0.504175
0.359289
0.249691
0.168342
0.109197
0.0674305
0.0389774
0.0205398
0.00916543
0.0022647
3.78761
3.33433
2.87367
2.42453
2.00294
1.62075
1.28517
0.999014
0.761612
0.569241
0.416831
0.298288
0.207389
0.138723
0.0880311
0.051788
0.0272615
0.0118512
0.00279909
3.78742
3.3422
2.89522
2.46229
2.05646
1.68732
1.36063
1.07869
0.841072
0.644747
0.485619
0.358565
0.258112
0.179388
0.118552
0.0725028
0.0391844
0.0168897
0.00355932
3.78797
3.35212
2.9198
2.50382
2.11453
1.75936
1.44277
1.16647
0.930148
0.731339
0.566804
0.432335
0.323177
0.234934
0.164002
0.107332
0.0630441
0.0301206
0.00746489
3.788
3.35995
2.94018
2.53912
2.16476
1.82274
1.51625
1.24643
1.0129
0.813552
0.645766
0.506063
0.390339
0.294679
0.215678
0.150105
0.095615
0.0508589
0.0148735
3.78401
3.35593
2.94137
2.54855
2.1836
1.85068
1.55197
1.28796
1.05806
0.860139
0.691824
0.549972
0.430841
0.330876
0.246996
0.176095
0.11578
0.0643619
0.020238
3.77716
3.34408
2.93004
2.54109
2.18171
1.85485
1.56182
1.30253
1.07607
0.88015
0.712434
0.56991
0.449008
0.346408
0.259336
0.184988
0.121337
0.0670974
0.0209387
3.77224
3.33591
2.92281
2.53731
2.18263
1.86077
1.57237
1.31689
1.09315
0.898762
0.731415
0.58822
0.465757
0.360909
0.271152
0.193899
0.127349
0.0704517
0.022014
3.76971
3.33186
2.91986
2.5371
2.18599
1.86789
1.58292
1.33022
1.10841
0.91503
0.747784
0.603881
0.480019
0.373237
0.281206
0.201503
0.132503
0.0733492
0.0229616
3.76803
3.32929
2.9182
2.53753
2.1891
1.87377
1.59133
1.34065
1.12025
0.927559
0.760335
0.615852
0.490891
0.382607
0.28882
0.207236
0.136366
0.075506
0.0236673
3.76673
3.32714
2.91659
2.53732
2.19071
1.87729
1.5966
1.34733
1.1279
0.935716
0.768534
0.623681
0.497994
0.388709
0.293751
0.210914
0.138807
0.0768413
0.0240966
3.76491
3.32427
2.91396
2.53557
2.19012
1.8779
1.5983
1.34994
1.13117
0.939373
0.772328
0.627382
0.501405
0.391676
0.296174
0.212739
0.140032
0.0775201
0.0243207
3.76492
3.32429
2.91399
2.53561
2.19016
1.87794
1.59834
1.34998
1.1312
0.939408
0.77236
0.627411
0.501431
0.391699
0.296193
0.212754
0.140043
0.0775265
0.0243229
3.76676
3.3272
2.91667
2.53742
2.19082
1.87741
1.59672
1.34745
1.12801
0.935823
0.768633
0.623771
0.498074
0.388779
0.293809
0.210959
0.13884
0.0768613
0.0241036
3.76807
3.32938
2.91833
2.53769
2.18927
1.87395
1.59152
1.34084
1.12043
0.92773
0.760494
0.615996
0.491018
0.382717
0.288912
0.207308
0.136418
0.075537
0.023678
3.76976
3.33198
2.92003
2.53731
2.18623
1.86814
1.58318
1.33047
1.10866
0.91526
0.747996
0.604074
0.480189
0.373383
0.281326
0.201597
0.132571
0.07339
0.0229757
3.77229
3.33605
2.92302
2.53757
2.18292
1.86108
1.57269
1.3172
1.09345
0.899047
0.731678
0.588457
0.465965
0.361087
0.271298
0.194013
0.12743
0.0705007
0.0220309
3.77723
3.34425
2.93029
2.54139
2.18206
1.85522
1.56219
1.3029
1.07642
0.880481
0.712736
0.570181
0.449244
0.346608
0.2595
0.185114
0.121426
0.06715
0.0209564
3.78408
3.35613
2.94165
2.5489
2.184
1.8511
1.55239
1.28838
1.05846
0.860513
0.692163
0.550272
0.431099
0.331092
0.247167
0.176222
0.115866
0.0644107
0.0202539
3.78809
3.36022
2.94063
2.53969
2.16543
1.82347
1.51702
1.24719
1.01364
0.814253
0.646414
0.506652
0.390865
0.295144
0.216083
0.15045
0.0958934
0.0510525
0.0149517
3.78809
3.35245
2.92032
2.5045
2.11532
1.76023
1.44367
1.16737
0.931006
0.73214
0.567535
0.432989
0.323753
0.235432
0.164424
0.107674
0.0632994
0.0302795
0.00752005
3.78752
3.34249
2.89569
2.46289
2.05717
1.68808
1.36141
1.07946
0.84179
0.645401
0.486199
0.359066
0.258537
0.179737
0.118828
0.0727051
0.0393138
0.0169528
0.00357211
3.7877
3.33461
2.87411
2.42511
2.00362
1.62148
1.2859
0.999717
0.76226
0.569818
0.417329
0.298705
0.207729
0.138991
0.0882306
0.0519243
0.0273418
0.0118875
0.002807
3.78896
3.32926
2.85599
2.39145
1.95487
1.56057
1.21721
0.928053
0.692073
0.504679
0.359712
0.250035
0.168613
0.109402
0.0675764
0.0390725
0.0205938
0.00918958
0.00227003
3.79283
3.32863
2.84348
2.36388
1.91268
1.50685
1.15652
0.865292
0.631598
0.449804
0.312541
0.211563
0.138974
0.0880689
0.0534808
0.0307501
0.01636
0.0074619
0.00189679
3.79607
3.32774
2.83135
2.33758
1.87297
1.45709
1.10138
0.809545
0.579248
0.403663
0.274156
0.181387
0.116652
0.0726825
0.0437277
0.0251701
0.01355
0.00629912
0.00164222
3.79722
3.32306
2.81531
2.30842
1.83224
1.4086
1.0498
0.759281
0.533704
0.364936
0.243104
0.157887
0.0999261
0.0615693
0.0368932
0.0213256
0.0116101
0.0054806
0.00145597
3.79581
3.3125
2.79246
2.2735
1.78813
1.35963
1.00053
0.713528
0.494019
0.332547
0.218133
0.139683
0.0874072
0.0534823
0.0320029
0.0185735
0.0101896
0.00485207
0.0012983
3.78994
3.29267
2.7591
2.22949
1.73793
1.30811
0.951929
0.670808
0.458729
0.304974
0.197689
0.125274
0.0777549
0.0473397
0.0282824
0.0164285
0.00902515
0.00429319
0.00113682
3.77953
3.26418
2.7165
2.17811
1.68343
1.25555
0.904929
0.631414
0.427522
0.281463
0.180786
0.113635
0.0700617
0.0424418
0.0252626
0.0146188
0.00798226
0.00374953
0.000958157
3.77088
3.24546
2.69345
2.15529
1.66384
1.2406
0.894754
0.62533
0.424506
0.280494
0.181024
0.114483
0.071137
0.0435287
0.0262608
0.0155039
0.00875476
0.00437644
0.00129435
3.76666
3.24198
2.69694
2.16859
1.68666
1.27041
0.928014
0.658558
0.45504
0.30673
0.202381
0.131133
0.0836717
0.0527144
0.0328721
0.0201996
0.0120205
0.00647041
0.00216547
3.76357
3.2415
2.70471
2.18687
1.71463
1.30513
0.965678
0.695578
0.48874
0.335549
0.225811
0.14942
0.0974787
0.0628702
0.0401956
0.0253688
0.0155236
0.00857335
0.0029082
3.76195
3.24398
2.71612
2.20885
1.74591
1.34257
1.0055
0.734307
0.523856
0.36561
0.250377
0.168764
0.112261
0.0739044
0.0482782
0.0311519
0.0194713
0.0109419
0.00374901
3.76099
3.24765
2.72885
2.23181
1.77755
1.37979
1.04473
0.772377
0.55848
0.395483
0.275088
0.188542
0.127687
0.0856994
0.0571495
0.0376722
0.0240355
0.0137442
0.00477117
3.75907
3.25059
2.74071
2.25322
1.80686
1.41413
1.08097
0.807758
0.591004
0.423977
0.299136
0.20827
0.143531
0.0982233
0.0669136
0.0451155
0.0294295
0.0171613
0.00605691
3.7585
3.2557
2.75389
2.27443
1.83452
1.44584
1.1142
0.840312
0.621273
0.45099
0.322503
0.228036
0.159985
0.111758
0.0779176
0.0538578
0.0360103
0.0214707
0.00772989
3.7602
3.26286
2.76747
2.29418
1.85921
1.47375
1.14352
0.869418
0.648938
0.476411
0.34529
0.248116
0.177467
0.126829
0.0907504
0.0644994
0.0443245
0.0270851
0.00997073
3.76077
3.26662
2.77563
2.30699
1.87625
1.49413
1.16614
0.893157
0.672821
0.499667
0.367399
0.268776
0.196515
0.144157
0.106235
0.0778788
0.0551287
0.0345693
0.0130227
3.75952
3.26599
2.77727
2.31194
1.88503
1.50677
1.18225
0.912058
0.693711
0.521747
0.389972
0.291278
0.21847
0.165125
0.125739
0.0952708
0.0695075
0.0446974
0.0172059
3.75766
3.26217
2.77345
2.31021
1.88705
1.51348
1.19389
0.928291
0.713843
0.544899
0.415246
0.317833
0.245503
0.191825
0.151225
0.118427
0.0888936
0.0584539
0.0229098
3.75426
3.25328
2.76267
2.30121
1.88267
1.51548
1.20291
0.944159
0.735798
0.571864
0.446036
0.351264
0.280385
0.226911
0.18514
0.149485
0.114988
0.0769711
0.0305641
3.74645
3.23666
2.74361
2.28505
1.87327
1.51507
1.2123
0.963056
0.763199
0.606355
0.486056
0.395213
0.32661
0.273643
0.230418
0.190932
0.149708
0.101483
0.0406214
3.73707
3.21753
2.72269
2.2689
1.8664
1.51988
1.22948
0.992058
0.802699
0.654584
0.541069
0.454999
0.389034
0.336367
0.29082
0.24585
0.195359
0.13343
0.0536018
3.72831
3.1994
2.70498
2.25926
1.86949
1.5378
1.26242
1.03899
0.861822
0.723685
0.617766
0.536815
0.473287
0.420069
0.370597
0.317669
0.254468
0.174393
0.0700896
3.71611
3.17991
2.69139
2.25962
1.88773
1.575
1.31785
1.11078
0.947523
0.82047
0.722679
0.646798
0.584994
0.529749
0.474026
0.409858
0.329641
0.226069
0.0907893
3.70479
3.16959
2.69547
2.28449
1.93547
1.64517
1.40858
1.21936
1.07083
0.955113
0.865149
0.793463
0.731829
0.672211
0.607006
0.527361
0.424795
0.291215
0.116988
3.70228
3.18276
2.73364
2.35046
2.02872
1.7635
1.5489
1.37812
1.24428
1.1393
1.05604
0.986874
0.92306
0.855921
0.777187
0.676969
0.545733
0.374309
0.151031
3.71327
3.22837
2.81633
2.4684
2.17845
1.94088
1.7496
1.59768
1.47829
1.38324
1.30534
1.23679
1.16825
1.09028
0.993829
0.867717
0.700972
0.482606
0.197265
3.74319
3.31433
2.95187
2.6467
2.39314
2.18596
2.0195
1.88705
1.78206
1.69638
1.62283
1.55349
1.47834
1.38708
1.26968
1.11326
0.904558
0.629141
0.264605
3.79292
3.44074
3.1401
2.88566
2.67389
2.50076
2.36156
2.25014
2.16054
2.08483
2.01603
1.94626
1.86485
1.76059
1.62223
1.43443
1.18007
0.838019
0.372428
3.85677
3.59789
3.37072
3.17588
3.01274
2.87896
2.77108
2.68394
2.61251
2.54951
2.48857
2.42218
2.3394
2.22828
2.07619
1.86427
1.56894
1.15645
0.566118
3.92407
3.76848
3.62529
3.49986
3.3939
3.3066
3.23599
3.1783
3.13002
3.08529
3.0391
2.9852
2.9135
2.81233
2.66813
2.45787
2.14809
1.68323
0.958952
3.98231
3.93196
3.8816
3.83609
3.79723
3.76509
3.73912
3.71763
3.6993
3.68116
3.66095
3.63547
3.59849
3.54202
3.45451
3.31161
3.06923
2.63984
1.84786
)
;

boundaryField
{
    up
    {
        type            fixedValue;
        value           uniform 0;
    }
    low
    {
        type            fixedValue;
        value           uniform 4;
    }
    left
    {
        type            fixedValue;
        value           uniform 4;
    }
    right
    {
        type            fixedValue;
        value           uniform 4;
    }
    frontAndBackPlanes
    {
        type            empty;
    }
}


// ************************************************************************* //
