/*--------------------------------*- C++ -*----------------------------------*\
  =========                 |
  \\      /  F ield         | OpenFOAM: The Open Source CFD Toolbox
   \\    /   O peration     | Website:  https://openfoam.org
    \\  /    A nd           | Version:  7
     \\/     M anipulation  |
\*---------------------------------------------------------------------------*/
FoamFile
{
    version     2.0;
    format      ascii;
    class       volScalarField;
    location    "0.28";
    object      gradTz;
}
// * * * * * * * * * * * * * * * * * * * * * * * * * * * * * * * * * * * * * //

dimensions      [0 -1 0 1 0 0 0];

internalField   nonuniform List<scalar> 
1596
(
-9.68218e-16
-4.71391e-16
4.78208e-16
9.69829e-18
-9.1296e-16
0
-4.27483e-16
-4.21508e-16
-2.69605e-17
-2.2151e-16
-2.09421e-18
-2.20199e-16
9.67907e-16
-2.17608e-16
1.01719e-15
8.77463e-16
5.2184e-16
6.58824e-16
0
9.6815e-16
0
1.36879e-15
-9.01111e-18
-4.21119e-16
4.17647e-16
8.58422e-16
2.5602e-17
4.07157e-16
-1.96014e-16
3.90981e-16
-6.09061e-18
-5.42089e-16
-3.38385e-16
-8.22478e-16
-8.02121e-16
-7.29556e-16
4.15137e-16
0
-4.75679e-16
0
-8.94967e-16
1.43171e-17
8.24204e-16
-2.29721e-16
1.67845e-17
-5.75402e-18
-5.91995e-18
-6.35354e-18
1.49509e-16
0
2.81228e-16
7.9832e-16
-7.86307e-17
6.31467e-17
1.48589e-16
2.31614e-16
0
7.46055e-16
-2.25644e-16
2.2482e-16
0
-2.16686e-16
-2.2367e-16
3.83619e-16
-3.36967e-16
0
0
-1.18625e-16
7.80296e-17
0
-2.35483e-16
-3.00795e-16
2.07714e-16
-2.1257e-16
-1.09429e-17
0
1.30199e-16
3.48761e-16
-3.16552e-16
0
-9.40134e-17
-2.85669e-16
0
4.28308e-16
-4.27532e-17
-3.87025e-17
-3.51591e-17
2.23623e-16
2.73987e-16
2.81372e-17
8.62835e-18
-2.24606e-16
1.13294e-17
1.03947e-16
-4.46189e-17
-3.38107e-17
-4.78862e-16
4.57624e-16
-4.02042e-16
-7.94142e-19
-3.58586e-16
1.01264e-17
-1.016e-17
-2.85086e-16
0
-2.90019e-17
-2.64259e-16
-2.47582e-16
2.02107e-16
2.07751e-16
-2.84045e-18
-1.2453e-16
-1.05432e-16
8.05359e-17
2.82562e-16
-4.88371e-16
5.5121e-16
3.09691e-16
0
2.75013e-16
1.62737e-16
-7.85019e-17
3.61845e-16
-6.81711e-17
-2.8726e-16
2.66526e-18
-1.71025e-16
-2.03084e-16
-1.59466e-16
1.35224e-16
1.25626e-16
-1.67481e-18
-3.36453e-17
2.63629e-17
7.74994e-16
-9.18541e-16
0
0
-3.42999e-16
0
0
0
2.39819e-16
0
0
1.56674e-16
5.9983e-18
4.14256e-17
-1.1811e-16
0
6.28683e-17
2.44145e-17
0
-5.04775e-16
9.72853e-16
0
0
3.53242e-16
0
-1.36674e-16
1.36536e-16
-2.44101e-16
1.02134e-16
-1.02881e-16
0
1.48636e-16
1.42943e-16
0
-8.25592e-17
-6.42453e-17
-2.13086e-17
1.20521e-15
-5.65791e-16
0
-4.09469e-16
4.04886e-16
0
3.05603e-16
0
0
0
9.50638e-17
-9.55195e-17
0
-1.14689e-16
-3.29806e-17
0
8.18322e-18
4.7288e-17
0
-3.05902e-16
0
0
4.10543e-16
-7.68863e-16
3.72185e-17
1.44396e-17
-1.27219e-16
1.3567e-17
4.47114e-18
-1.00176e-16
-1.62397e-16
0
1.22864e-16
-2.43764e-17
2.47423e-17
6.38975e-17
-3.70474e-17
-1.71395e-17
2.5743e-16
-2.57604e-17
2.47056e-16
8.51953e-16
-4.31011e-17
-3.60394e-16
0
0
0
2.06424e-16
8.35047e-17
3.01847e-16
-7.29193e-17
-1.20666e-16
-7.25775e-17
-3.92301e-17
1.74471e-17
-3.7879e-17
1.63238e-17
-2.82924e-16
2.77119e-16
-5.13974e-16
-8.41601e-16
7.82333e-16
3.14173e-16
-5.83353e-16
5.08938e-16
-4.43439e-16
1.15497e-16
8.95696e-17
-8.12304e-17
5.38866e-17
-4.8142e-17
1.40438e-16
0
-1.05661e-17
7.76775e-17
-1.15307e-17
-1.82326e-15
8.40008e-16
7.03907e-19
-1.89007e-16
2.26583e-17
3.05338e-16
-5.81456e-16
-2.42474e-16
2.08843e-16
-1.78912e-16
-1.53747e-16
0
-1.76426e-16
-5.26188e-17
-9.46809e-17
-5.63376e-17
4.4386e-18
-4.92592e-17
9.85112e-19
2.97995e-16
-2.66869e-16
5.84863e-19
-2.07743e-16
-5.2351e-16
4.9481e-16
1.85851e-18
2.36291e-16
-2.03336e-16
3.43574e-16
8.14668e-17
6.76382e-17
2.10556e-16
0
1.75896e-16
8.08492e-17
0
2.70544e-17
8.36224e-19
0
2.58894e-16
2.06141e-16
-4.27268e-16
5.07414e-16
-7.658e-16
5.45387e-16
2.09252e-16
-2.90891e-17
-3.39758e-16
6.33246e-17
-6.30122e-17
-1.93398e-16
7.75344e-17
-3.84091e-17
-8.13194e-17
3.54556e-17
-2.19716e-17
8.486e-18
-2.77609e-16
9.49836e-16
-7.06944e-16
3.8887e-16
0
0
-1.08776e-16
2.30841e-16
-1.67538e-16
3.15861e-16
0
0
1.31012e-16
-1.14915e-16
-8.23505e-17
2.59375e-17
-2.75778e-17
1.44688e-17
0
2.15071e-17
2.596e-16
-2.11713e-16
-1.86505e-16
-3.04683e-16
-1.01573e-16
1.37753e-16
0
-1.57803e-16
-1.29863e-16
1.17217e-16
-9.6572e-17
7.89791e-17
0
3.13442e-17
6.21702e-17
0
0
0
-2.05625e-17
4.19817e-16
1.62714e-16
-5.62122e-16
1.56775e-16
1.35396e-16
0
0
1.49331e-16
-7.77032e-17
-1.13375e-16
9.34027e-17
-7.63788e-17
0
-2.07967e-17
1.80027e-17
0
-1.5098e-17
-5.26186e-18
-2.23848e-16
6.56889e-16
-8.00524e-16
-3.23939e-16
1.69339e-16
-1.28504e-16
1.08895e-16
0
-7.5819e-17
6.38571e-17
0
0
3.04083e-17
-3.04433e-17
9.27212e-18
-1.21083e-17
2.17305e-17
2.5276e-18
3.90769e-18
1.14579e-16
-1.038e-16
5.35483e-16
-3.45998e-16
-1.41998e-16
1.74921e-17
2.23449e-16
8.6184e-17
7.25474e-17
0
4.32571e-17
-4.01343e-17
3.22567e-17
-2.75435e-17
3.61066e-17
-6.24206e-17
-1.69169e-17
1.47835e-17
3.96117e-18
3.07544e-16
-3.11342e-16
0
2.91954e-16
-1.53464e-16
-1.16242e-16
8.21624e-17
-2.61713e-16
0
-4.55459e-18
-4.95864e-17
-3.62724e-17
5.35481e-17
-4.00622e-18
-3.48964e-17
2.59773e-17
0
9.5257e-18
-3.84626e-18
5.23229e-16
-9.30173e-17
3.99046e-16
-3.12787e-16
1.752e-16
2.12499e-17
-2.02447e-16
-7.05945e-17
1.2779e-16
-5.19906e-18
-7.68655e-17
6.53705e-17
-2.87804e-17
-3.8472e-17
0
0
0
-9.61688e-18
3.58409e-19
-4.66787e-16
4.5498e-16
3.15954e-19
7.0534e-17
6.11865e-17
-1.49482e-16
1.77367e-16
-1.47294e-16
1.26645e-16
-4.28682e-17
8.17393e-17
2.9499e-17
-1.26135e-17
6.57974e-19
-4.68965e-18
-8.2435e-18
0
0
0
0
0
2.25782e-16
-1.08198e-16
-3.45303e-16
0
0
-4.27352e-17
-6.98502e-17
5.89534e-17
0
-3.72037e-17
2.91911e-17
-9.84187e-17
1.13455e-16
-3.74859e-17
3.99474e-17
4.39534e-18
0
-9.04571e-17
9.15704e-17
0
-7.47457e-17
7.59021e-17
1.26958e-16
0
4.31433e-17
5.82036e-17
-2.58998e-16
0
-4.10786e-17
3.23736e-17
2.35173e-17
-1.7633e-17
2.59426e-17
0
-9.64803e-18
0
-4.65136e-17
-4.64898e-17
2.75398e-18
7.67993e-17
-2.07788e-16
0
-5.43661e-17
0
1.57183e-16
6.42134e-17
0
1.62845e-16
-1.72109e-16
1.71017e-17
-3.92655e-17
1.06573e-17
4.97557e-17
1.90287e-17
-1.50703e-17
0
9.63316e-17
-8.51349e-17
1.05756e-16
1.28304e-16
0
1.10807e-16
-1.05087e-16
-8.41475e-17
1.28321e-16
-1.9283e-16
-9.56038e-17
0
0
2.16246e-17
0
0
6.2768e-18
0
-4.26357e-16
3.27147e-16
0
4.80129e-18
-7.50681e-17
-4.16387e-18
6.74874e-17
4.92205e-17
-6.08795e-17
-1.58344e-16
2.54524e-16
-6.87914e-17
0
-3.38257e-17
0
0
0
-2.42191e-17
1.93379e-17
-1.20384e-16
1.13266e-16
3.04814e-16
-2.9869e-16
9.22841e-17
4.98607e-18
-6.8577e-17
5.96983e-17
1.02533e-16
7.9398e-17
-1.57057e-16
0
8.36796e-17
1.25798e-17
-3.87185e-17
-8.60448e-17
7.10698e-17
-1.17209e-17
2.20662e-17
-4.06527e-16
5.90124e-16
-5.85863e-16
1.0387e-16
8.9017e-17
-8.50391e-17
7.18678e-17
-5.77742e-17
0
-4.98788e-17
8.11549e-17
3.52436e-17
5.72788e-17
7.37457e-17
-1.10735e-16
-1.62468e-18
0
-8.89108e-18
2.96843e-18
-4.39563e-16
-1.31747e-16
-2.32925e-16
1.23492e-16
-2.04353e-16
1.79182e-16
-1.07218e-16
9.1778e-17
-6.06625e-18
-6.06831e-18
-8.48147e-17
4.97969e-17
-2.87917e-17
8.73452e-17
-9.37659e-17
1.20507e-17
1.00322e-17
0
-5.12365e-18
4.75264e-16
-1.42024e-16
0
0
-2.10552e-16
4.10627e-16
-9.65087e-17
-1.87983e-17
1.55703e-16
-3.99114e-18
0
0
-3.69899e-17
0
-8.1317e-17
1.98234e-16
-1.37863e-16
0
2.02219e-18
1.62858e-16
3.05434e-16
0
-1.31318e-16
-1.08309e-16
-9.68182e-17
-1.00283e-16
4.19941e-17
-1.17826e-16
-6.50788e-17
0
0
4.85918e-17
0
0
-1.09569e-16
1.80442e-16
0
0
1.11757e-15
-1.30289e-16
-6.80459e-16
-3.74166e-16
5.07228e-16
1.63031e-16
9.72364e-17
0
-3.6179e-17
3.53712e-17
8.75044e-17
-2.83086e-17
-4.26397e-17
6.62524e-17
-7.04722e-17
-2.19626e-17
0
0
0
8.94959e-17
-7.09971e-16
6.96346e-16
-6.71404e-17
-5.22958e-16
8.20786e-16
-4.13301e-16
0
0
2.24857e-16
-1.85095e-16
0
-5.66195e-17
9.84543e-17
-1.1201e-17
2.88878e-17
8.84445e-18
9.33676e-20
1.93626e-18
0
0
0
5.90115e-16
-3.95578e-16
4.19919e-16
-6.55671e-16
1.87362e-16
0
-6.82787e-17
1.09867e-16
-1.12291e-16
-2.22222e-17
-4.87751e-19
-1.53383e-17
-2.29193e-18
-1.22212e-17
-3.4196e-18
-1.87236e-18
7.50228e-16
-1.34019e-15
6.36328e-16
0
1.73457e-16
-2.36233e-16
2.38808e-16
-1.89476e-16
0
-9.34077e-17
1.30968e-16
0
0
-3.63762e-19
0
-1.5735e-17
1.07746e-17
2.00976e-18
2.9822e-18
7.26262e-16
0
-2.91933e-16
3.26125e-16
-2.0638e-16
4.51686e-16
-2.1398e-16
-1.68784e-16
1.70547e-16
-1.74227e-17
0
0
1.12626e-17
-1.91263e-17
-1.34074e-17
2.54446e-17
-5.50864e-18
2.82919e-18
0
4.12396e-16
3.24134e-16
-1.00798e-17
-3.10792e-16
-3.15731e-17
-2.28822e-16
2.40621e-17
1.93064e-16
-1.00278e-17
1.77499e-17
0
0
-1.15378e-17
0
1.3601e-17
-1.45498e-17
0
1.8647e-18
-5.17492e-19
-2.18902e-16
-1.62564e-16
1.52205e-16
-1.75308e-17
-7.88727e-18
2.13966e-17
0
-5.68855e-18
8.56508e-17
-7.2132e-17
0
2.46307e-17
-4.79972e-18
-2.17825e-17
-1.99537e-18
-1.5572e-18
0
-1.45715e-18
0
8.96189e-17
-1.7067e-16
-2.5099e-18
7.37075e-17
6.79296e-17
-6.75107e-17
-4.81936e-17
5.45653e-17
-1.88523e-17
1.47395e-17
-1.44142e-17
1.48588e-17
0
3.81575e-20
-1.46932e-18
5.28587e-18
-1.81014e-20
0
0
8.9622e-17
-8.92861e-17
-7.33216e-17
6.49375e-17
1.2002e-16
-1.20728e-16
-2.40976e-17
2.41545e-17
-1.90115e-17
1.92112e-17
-1.44147e-17
2.72281e-17
-7.63647e-18
-5.51497e-18
-1.69653e-18
5.61678e-19
1.34273e-18
3.55263e-19
-2.6645e-19
0
-2.12991e-17
1.27764e-16
-1.38447e-16
1.19848e-16
-1.06207e-16
0
8.54932e-17
-7.64511e-17
0
2.8721e-17
-3.63799e-17
-2.07858e-17
2.17848e-17
4.02074e-18
0
0
-1.45735e-18
5.2971e-19
3.5674e-16
-6.58002e-16
6.73667e-16
-5.93681e-16
2.33804e-16
-2.0038e-16
1.90077e-16
2.27622e-17
-8.51016e-17
7.60573e-17
0
-5.56837e-17
5.06928e-17
-9.67921e-18
-3.93831e-18
6.22169e-18
4.57779e-18
1.41481e-18
-5.1182e-19
8.19047e-16
0
-3.30173e-16
2.56552e-16
3.12099e-17
-2.41526e-16
4.29397e-16
-3.82757e-16
1.50532e-16
-6.48984e-17
6.64292e-17
1.32008e-17
2.28249e-17
9.42766e-18
-7.86796e-18
-1.01799e-18
-9.92531e-18
0
1.02104e-18
6.58681e-16
-7.41429e-16
0
6.8672e-17
2.98423e-16
-2.92545e-16
5.03129e-17
4.48165e-17
1.96092e-17
3.48281e-17
0
0
-3.97227e-17
7.47154e-17
-2.73528e-17
-9.84353e-18
1.0777e-17
8.65447e-19
-1.9443e-18
5.7536e-17
6.51276e-16
-7.57923e-17
-5.2151e-16
4.57739e-16
5.51608e-17
-4.92403e-17
-4.37723e-17
1.45538e-16
-1.80556e-16
1.09898e-16
-1.1232e-16
1.77951e-17
-2.23934e-17
4.13343e-17
-2.75217e-17
0
0
2.01008e-18
0
1.63658e-16
-4.95443e-16
5.65945e-16
-4.62722e-16
4.6162e-16
0
1.62995e-16
-1.63742e-16
-1.24679e-16
1.85227e-16
0
7.79766e-17
-9.8522e-17
-1.46132e-17
0
-1.66432e-18
-3.36893e-18
-2.99284e-20
-1.54846e-15
7.40495e-16
0
-5.07133e-16
5.07082e-16
3.1493e-16
-2.07104e-16
8.64708e-17
0
-3.94789e-18
3.00057e-17
-2.8269e-17
-4.25819e-17
6.61522e-17
-7.03418e-17
0
1.55965e-17
-3.54938e-18
-2.0846e-18
9.54509e-16
-9.406e-16
0
1.31295e-16
1.20288e-16
-1.10471e-16
0
-9.06221e-17
-7.91144e-17
0
-3.11331e-18
0
4.86113e-17
0
0
2.25385e-17
8.50718e-17
-1.09864e-16
0
1.38093e-19
1.42092e-16
-1.32041e-16
1.09523e-16
-5.55876e-16
2.13724e-16
0
1.88114e-17
5.34246e-17
0
-5.57856e-17
1.65184e-16
-1.73535e-16
2.9792e-17
0
-3.08416e-18
0
0
0
1.31979e-19
0
1.22039e-16
0
-1.9297e-16
1.96038e-16
0
7.22292e-17
-5.87131e-17
2.1471e-16
-1.03945e-16
3.83793e-17
-6.25344e-17
6.0437e-17
-9.38753e-17
-1.50918e-17
0
-1.04239e-17
0
3.7212e-16
-6.29021e-16
0
-1.03961e-16
9.42152e-17
0
0
-1.32294e-16
0
-4.99139e-17
-8.12152e-17
-3.52742e-17
5.7334e-17
0
3.19658e-17
0
0
2.29234e-17
-2.55261e-17
0
5.47372e-16
-4.38539e-16
9.62442e-17
-8.72438e-17
-3.64724e-17
1.0567e-16
1.2045e-16
-1.4995e-16
4.84894e-17
2.86109e-18
-4.73013e-17
1.94596e-16
-6.06535e-17
-1.44565e-16
5.03857e-17
-1.34293e-17
8.00959e-18
-2.51304e-18
-8.8108e-16
3.27119e-16
0
0
3.75673e-17
-3.82018e-17
2.83736e-17
1.95376e-17
1.36027e-16
7.10687e-17
-7.09787e-17
-2.32609e-18
-4.15458e-17
3.38545e-17
0
1.75094e-17
1.2309e-17
6.80131e-18
2.27143e-18
0
2.85117e-16
-2.68088e-16
8.64171e-17
9.11321e-17
-1.76695e-17
-5.82792e-17
-5.05571e-17
-1.70633e-16
7.02656e-17
-4.48056e-17
5.99583e-17
3.88505e-17
-5.00296e-17
5.31034e-17
3.49635e-17
-4.50495e-17
-6.28202e-18
0
-4.98291e-17
-2.2602e-16
8.16366e-17
7.6819e-17
-2.68801e-16
1.93667e-16
9.92766e-17
-1.01476e-16
7.98577e-17
-6.66856e-17
0
0
-5.94218e-17
1.07417e-16
-4.78602e-17
4.61298e-17
-5.03411e-17
8.48526e-18
-1.50834e-17
9.38489e-17
8.83489e-17
-8.12642e-17
6.53553e-17
-7.5145e-17
-1.17905e-16
0
0
0
0
0
0
3.06323e-17
-8.25912e-17
8.73492e-17
-2.91998e-17
3.5955e-17
1.71733e-17
-1.45868e-17
1.93837e-16
-3.35994e-16
4.2071e-16
-2.02448e-16
2.79311e-16
-2.10953e-16
3.96655e-16
-2.26508e-16
-1.26368e-16
1.29269e-16
0
3.71804e-17
-2.99262e-17
7.54667e-17
-2.44873e-17
-3.26317e-17
-7.06633e-17
5.2463e-18
1.24486e-17
3.01334e-16
8.79908e-17
0
-1.40622e-16
-1.13777e-16
2.62734e-16
2.89215e-17
-1.10212e-16
6.63274e-17
-4.85701e-17
0
-2.94325e-17
0
-2.49467e-17
2.04694e-17
-1.87116e-17
-6.22666e-18
4.45756e-18
0
4.21341e-16
-9.3016e-17
3.98875e-16
-3.12684e-16
-6.42286e-17
2.5921e-16
-1.55433e-16
7.32211e-18
6.13219e-18
-4.75898e-17
4.61516e-17
0
0
3.00957e-17
-1.13108e-17
7.49637e-18
2.25166e-17
-7.83215e-18
0
8.41717e-20
0
-8.79381e-17
5.24867e-16
-3.56171e-16
-3.89279e-16
2.13717e-16
-2.31308e-16
2.15846e-16
1.09898e-16
-8.50632e-17
3.51336e-17
-3.16375e-17
5.28065e-18
5.41525e-17
2.29481e-18
-2.12145e-17
2.09984e-17
-4.28445e-18
1.02886e-15
-3.28978e-16
1.65679e-16
-5.09441e-16
1.41997e-16
-2.2719e-16
1.21071e-16
0
0
-4.65777e-18
-6.21857e-18
-1.83113e-18
0
-4.67936e-17
-3.61071e-17
2.68427e-17
-1.97947e-18
3.39816e-18
8.40672e-18
0
-3.28844e-16
5.65155e-16
1.31612e-16
-4.68478e-16
1.28503e-16
-2.02138e-16
3.08334e-17
1.67477e-16
0
0
3.15251e-18
3.79201e-17
0
-3.48107e-17
-1.61173e-17
2.36321e-18
-8.58782e-18
-9.67354e-18
0
-2.09126e-16
4.22878e-17
3.81615e-16
2.93662e-16
-5.41672e-16
2.48178e-16
-1.79167e-16
9.52338e-17
-1.36484e-16
0
0
0
-6.17301e-17
1.73746e-17
-2.08986e-17
0
-1.31293e-18
6.5978e-18
-7.75418e-16
7.37058e-16
8.03374e-16
-9.76449e-16
4.67048e-16
-4.41128e-16
0
1.88105e-16
-2.59062e-16
1.52336e-16
-1.21266e-16
1.00795e-16
8.319e-17
6.38426e-17
5.08559e-17
0
0
0
0
8.53737e-16
-4.9785e-16
0
0
-1.69352e-16
4.20407e-16
-2.69828e-16
-1.98495e-16
1.96258e-16
1.503e-16
2.5602e-16
-1.04584e-16
4.47097e-17
3.44932e-17
2.58041e-17
2.09854e-17
3.41227e-17
-1.68374e-18
1.71504e-18
-8.6701e-16
8.00893e-16
4.35283e-16
-2.25352e-16
5.07392e-16
-3.26385e-16
-2.63643e-16
-2.26208e-16
0
-3.14105e-16
1.41196e-17
1.18078e-16
-9.42521e-17
-7.75345e-17
-2.87255e-17
-3.06542e-17
-2.44693e-17
0
0
-2.98255e-16
0
2.35595e-16
-4.0947e-19
0
0
2.71957e-16
2.33414e-16
0
1.69528e-16
0
-1.795e-16
-5.0641e-17
9.03815e-17
0
5.85682e-17
-8.30291e-18
8.47008e-18
0
6.32649e-16
0
4.55804e-16
-8.50524e-16
7.65766e-16
6.3056e-16
-1.78452e-17
0
1.61159e-17
1.94866e-16
0
-1.99414e-16
2.25914e-16
-2.0161e-16
-4.41091e-17
-4.71391e-17
-1.37927e-17
-2.44647e-18
-8.56218e-18
-5.9269e-16
8.54968e-16
-2.45085e-16
-6.4863e-16
-3.79891e-16
-3.32821e-16
-5.8204e-16
-2.38351e-16
1.73933e-17
8.97381e-17
-8.95695e-17
2.89834e-16
-1.28259e-16
2.60014e-16
-4.87394e-17
0
5.49231e-17
-3.21585e-17
8.67875e-18
1.30107e-15
-2.62949e-17
-1.01127e-15
8.51958e-16
-7.72152e-16
6.81731e-16
-1.98133e-17
-2.65622e-16
2.34542e-16
9.51207e-17
-1.15916e-17
-2.35589e-16
6.8966e-17
7.12302e-17
-2.19508e-17
2.22012e-17
-5.6887e-17
-5.24887e-18
-1.30603e-17
6.38711e-16
2.73691e-16
4.86395e-16
-4.32728e-16
-3.6381e-16
1.72854e-17
-2.86599e-16
6.95844e-16
2.162e-17
3.2909e-16
1.94012e-16
-1.72559e-16
0
-1.22863e-16
0
0
7.74446e-17
3.43272e-17
1.52643e-17
6.01711e-16
0
4.80825e-16
4.29935e-16
-3.86518e-16
3.4259e-16
0
-2.73223e-16
-3.81101e-16
-3.36045e-16
-1.95729e-16
1.7451e-16
0
0
0
0
-7.25836e-17
-5.30092e-17
0
-1.17906e-15
0
-2.16054e-17
-1.90742e-17
5.8731e-16
-3.36809e-16
-1.55767e-16
-1.56323e-16
3.85703e-16
0
1.02134e-16
-1.08777e-17
9.07134e-17
0
0
1.19078e-16
-8.84792e-18
6.36387e-17
-2.38375e-17
8.30724e-16
2.42713e-16
-2.40207e-16
-2.14875e-16
-7.56706e-16
5.24682e-16
6.39311e-16
-1.56128e-17
-2.62252e-16
2.57949e-16
5.45035e-17
-2.75483e-16
-2.27104e-16
-1.35898e-16
-1.43601e-16
-1.37246e-16
1.12545e-16
-5.32513e-18
2.44146e-17
-2.56134e-16
1.17455e-16
-5.67657e-16
9.87453e-17
-9.8386e-17
0
-3.17066e-16
-2.00162e-17
-2.93952e-16
2.2685e-17
2.87259e-16
2.13864e-16
-5.21851e-17
2.3707e-17
1.36653e-16
0
-2.33272e-16
-8.50688e-17
-1.77095e-18
5.18707e-16
-1.43017e-17
8.92328e-16
-4.27807e-16
7.94141e-19
1.15044e-17
3.46892e-16
-2.48169e-17
2.85086e-16
-2.67059e-16
-2.51004e-16
0
2.47582e-16
1.99007e-16
2.74311e-18
-3.98375e-18
1.25733e-16
8.6471e-17
0
-3.69165e-16
0
-9.1605e-17
4.07154e-16
5.36839e-18
9.4139e-17
-3.35439e-16
3.17834e-16
3.33469e-16
3.19293e-16
3.06553e-16
0
-2.40521e-16
0
1.26384e-17
-1.31261e-17
0
-1.24588e-18
6.11462e-17
2.54303e-16
1.22276e-17
-2.05705e-16
6.32504e-16
-2.03703e-16
0
0
-3.71478e-16
-3.23098e-16
-3.09324e-16
-5.58684e-16
-7.80295e-17
0
0
0
-2.56846e-17
2.71807e-17
1.73363e-16
-6.20761e-17
1.2631e-17
0
-4.39082e-16
-4.04661e-16
4.22101e-16
-4.18772e-16
-6.01099e-16
7.40806e-16
2.042e-16
0
3.28107e-16
3.69367e-16
-7.97565e-17
4.32367e-16
-7.07514e-17
7.3635e-17
2.85543e-16
-1.64739e-16
0
-4.8629e-16
0
-4.66885e-16
4.58047e-16
0
8.32128e-16
3.91861e-16
-8.20024e-16
6.52837e-16
-4.40806e-18
-1.98022e-16
-3.57623e-16
0
4.90048e-16
-8.22477e-16
8.82339e-16
-1.12435e-15
0
0
4.83973e-16
-2.9139e-18
-7.18028e-18
-9.21438e-16
9.28864e-16
-4.49769e-16
4.47936e-16
4.4143e-16
-3.92491e-16
0
0
7.33979e-16
-7.46623e-16
-7.99296e-16
7.92027e-16
-7.71327e-16
8.34058e-16
-1.30631e-15
0
)
;

boundaryField
{
    up
    {
        type            calculated;
        value           nonuniform List<scalar> 
84
(
0
0
0
0
-4.46189e-17
8.05359e-17
-3.36453e-17
2.44145e-17
-2.13086e-17
0
-1.71395e-17
1.63238e-17
-1.15307e-17
9.85112e-19
8.36224e-19
8.486e-18
0
0
-5.26186e-18
3.90769e-18
3.96117e-18
-3.84626e-18
3.58409e-19
0
1.58155e-18
7.14765e-19
-1.43867e-17
0
1.93379e-17
2.29935e-17
2.96843e-18
-5.12365e-18
2.02219e-18
0
-9.95539e-19
2.00737e-18
-1.8715e-18
2.97875e-18
0
-5.16881e-19
0
0
-2.66624e-19
5.2971e-19
-5.1182e-19
1.02104e-18
-1.9443e-18
2.01008e-18
-2.99284e-20
-2.0846e-18
0
0
0
-2.55261e-17
-3.44091e-18
2.27143e-18
0
-1.50834e-17
-1.45868e-17
1.08725e-17
0
0
-4.28445e-18
8.40672e-18
-9.67354e-18
6.5978e-18
0
1.71504e-18
0
0
-8.56218e-18
8.67875e-18
-1.30603e-17
1.52643e-17
0
-2.38375e-17
2.44146e-17
-1.77095e-18
0
6.11462e-17
-6.20761e-17
0
0
0
)
;
    }
    low
    {
        type            calculated;
        value           nonuniform List<scalar> 
84
(
-9.68846e-16
9.6815e-16
-4.74534e-16
7.46987e-16
1.30832e-16
-3.39978e-17
2.84137e-16
2.78711e-17
0
1.20696e-15
-3.05902e-16
2.56502e-16
-2.82924e-16
-1.82321e-15
2.97995e-16
0
-2.77609e-16
2.15071e-17
-2.05625e-17
-2.23848e-16
1.14579e-16
3.07544e-16
5.2143e-16
-4.66787e-16
0
-9.04571e-17
-4.65136e-17
0
-4.26357e-16
-1.20384e-16
-4.05331e-16
-4.38596e-16
4.74588e-16
1.62858e-16
1.11755e-15
8.94959e-17
0
7.50228e-16
7.27699e-16
4.13192e-16
-2.19332e-16
8.96189e-17
8.9622e-17
0
3.5674e-16
8.20483e-16
6.58681e-16
5.84628e-17
0
-1.54845e-15
9.54509e-16
1.38093e-19
1.31979e-19
3.7212e-16
0
-8.79229e-16
0
-4.98291e-17
9.38489e-17
1.92748e-16
2.99413e-16
4.19542e-16
8.41717e-20
1.02734e-15
0
0
-7.75418e-16
8.52941e-16
-8.66459e-16
-2.98255e-16
6.32603e-16
-5.9269e-16
1.30293e-15
6.40051e-16
6.01711e-16
-1.17906e-15
8.29216e-16
-2.5456e-16
5.18707e-16
-3.68533e-16
2.54303e-16
1.37762e-17
-4.8629e-16
4.84287e-16
)
;
    }
    left
    {
        type            calculated;
        value           nonuniform List<scalar> 
19
(
-9.68218e-16
-4.71734e-16
4.78208e-16
9.69203e-18
-9.1319e-16
0
-4.27483e-16
-4.21508e-16
-2.83212e-17
-2.2151e-16
-2.09421e-18
-2.20199e-16
9.7773e-16
-2.17608e-16
1.01719e-15
8.77463e-16
5.2184e-16
7.65204e-16
0
)
;
    }
    right
    {
        type            calculated;
        value           nonuniform List<scalar> 
19
(
4.83973e-16
-2.57061e-18
-7.18028e-18
-9.21432e-16
9.29093e-16
-4.49769e-16
4.47936e-16
4.4143e-16
-3.9113e-16
0
0
7.40952e-16
-7.56446e-16
-7.99296e-16
7.92027e-16
-7.71327e-16
8.34058e-16
-1.41269e-15
0
)
;
    }
    frontAndBackPlanes
    {
        type            empty;
    }
}


// ************************************************************************* //
