/*--------------------------------*- C++ -*----------------------------------*\
  =========                 |
  \\      /  F ield         | OpenFOAM: The Open Source CFD Toolbox
   \\    /   O peration     | Website:  https://openfoam.org
    \\  /    A nd           | Version:  7
     \\/     M anipulation  |
\*---------------------------------------------------------------------------*/
FoamFile
{
    version     2.0;
    format      ascii;
    class       volScalarField;
    location    "0.121";
    object      gradTy;
}
// * * * * * * * * * * * * * * * * * * * * * * * * * * * * * * * * * * * * * //

dimensions      [0 -1 0 1 0 0 0];

internalField   nonuniform List<scalar> 
1596
(
-0.289714
-0.533686
-0.724978
-0.896947
-1.04722
-1.19704
-1.33445
-1.48244
-1.64717
-1.83227
-2.09349
-2.42612
-2.90249
-3.6035
-4.72805
-6.51485
-9.74713
-15.7388
-37.1756
-0.876137
-1.0669
-1.17818
-1.26295
-1.32789
-1.39937
-1.46947
-1.56074
-1.68037
-1.82808
-2.05208
-2.34357
-2.75205
-3.31418
-4.13366
-5.25847
-6.95201
-9.45271
-16.552
-1.55005
-1.59477
-1.59285
-1.58012
-1.55856
-1.55258
-1.55504
-1.58663
-1.65333
-1.75224
-1.92395
-2.15551
-2.48202
-2.92018
-3.53424
-4.32788
-5.44567
-6.98402
-10.2714
-2.23244
-2.09095
-1.96295
-1.85071
-1.74538
-1.66507
-1.6022
-1.57428
-1.58571
-1.63192
-1.74634
-1.91406
-2.16033
-2.49171
-2.95035
-3.52292
-4.29613
-5.30576
-7.0221
-2.83211
-2.5266
-2.28384
-2.08037
-1.89878
-1.75012
-1.62663
-1.54216
-1.49982
-1.49423
-1.55238
-1.65933
-1.83339
-2.07612
-2.41681
-2.83701
-3.39312
-4.09429
-5.11099
-3.27701
-2.87738
-2.55201
-2.27524
-2.02952
-1.82122
-1.64373
-1.50767
-1.41544
-1.36168
-1.3676
-1.41953
-1.53058
-1.69992
-1.94873
-2.25858
-2.66855
-3.17659
-3.84638
-3.53933
-3.12775
-2.7633
-2.43828
-2.14439
-1.88748
-1.66412
-1.48281
-1.34601
-1.24904
-1.20814
-1.21158
-1.2684
-1.37659
-1.55167
-1.77728
-2.08161
-2.45864
-2.93276
-3.63445
-3.27213
-2.91128
-2.56612
-2.24268
-1.95027
-1.69059
-1.47156
-1.29653
-1.16215
-1.08056
-1.04226
-1.05301
-1.1102
-1.22501
-1.38373
-1.607
-1.88823
-2.23675
-3.60568
-3.3324
-3.00784
-2.66696
-2.3309
-2.01514
-1.72776
-1.47778
-1.27024
-1.10362
-0.987007
-0.913076
-0.88501
-0.899835
-0.965171
-1.06977
-1.22855
-1.4356
-1.69424
-3.48585
-3.30071
-3.03096
-2.71569
-2.38519
-2.06108
-1.75769
-1.48641
-1.25452
-1.06274
-0.918187
-0.815548
-0.756131
-0.736729
-0.762067
-0.823004
-0.930008
-1.0783
-1.26887
-3.35863
-3.23021
-3.01078
-2.72829
-2.4135
-2.09124
-1.78062
-1.49575
-1.24636
-1.0355
-0.869289
-0.74419
-0.66024
-0.614066
-0.608029
-0.634555
-0.700511
-0.802042
-0.939163
-3.21866
-3.14554
-2.97094
-2.72126
-2.42598
-2.11113
-1.79887
-1.50579
-1.24395
-1.01867
-0.835809
-0.69333
-0.59048
-0.523773
-0.493679
-0.493697
-0.527783
-0.592694
-0.687934
-3.0573
-3.03162
-2.89815
-2.68113
-2.40839
-2.10627
-1.79844
-1.50352
-1.23543
-1.00147
-0.807735
-0.65342
-0.537393
-0.456124
-0.40867
-0.38925
-0.399588
-0.436806
-0.5001
-2.92352
-2.92057
-2.81606
-2.6256
-2.37313
-2.08438
-1.78337
-1.4901
-1.21986
-0.981427
-0.781373
-0.619774
-0.495361
-0.404576
-0.345441
-0.312597
-0.306086
-0.323167
-0.362783
-2.807
-2.821
-2.73575
-2.56442
-2.32778
-2.05055
-1.7565
-1.46647
-1.19664
-0.956795
-0.753949
-0.588744
-0.45985
-0.363661
-0.29744
-0.256048
-0.238292
-0.24144
-0.264212
-2.69694
-2.72878
-2.65831
-2.50043
-2.27504
-2.00657
-1.71853
-1.43232
-1.16459
-0.925728
-0.723003
-0.557304
-0.427215
-0.329026
-0.259432
-0.213376
-0.188796
-0.18291
-0.19426
-2.60177
-2.64566
-2.58585
-2.43663
-2.21798
-1.9549
-1.67104
-1.38831
-1.12358
-0.887455
-0.687185
-0.523589
-0.395046
-0.29765
-0.227636
-0.179946
-0.151915
-0.1407
-0.144721
-2.52256
-2.57532
-2.52269
-2.37801
-2.16185
-1.90039
-1.6181
-1.33754
-1.07576
-0.843253
-0.646978
-0.487382
-0.362451
-0.267962
-0.199731
-0.152636
-0.123592
-0.109706
-0.109321
-2.44128
-2.5158
-2.47274
-2.33101
-2.11413
-1.85059
-1.56665
-1.28592
-1.02581
-0.796641
-0.604789
-0.450101
-0.329956
-0.239678
-0.174637
-0.129592
-0.101146
-0.0863589
-0.0835319
-2.35326
-2.45619
-2.42722
-2.28952
-2.07079
-1.80303
-1.51526
-1.23273
-0.973426
-0.747487
-0.560529
-0.411578
-0.297221
-0.2122
-0.151408
-0.109449
-0.082692
-0.0681796
-0.0642011
-2.27841
-2.4038
-2.38946
-2.25618
-2.0346
-1.76065
-1.46687
-1.18069
-0.921006
-0.697795
-0.515761
-0.372936
-0.264933
-0.18579
-0.12988
-0.0916221
-0.0671965
-0.0536501
-0.0493006
-2.21022
-2.35901
-2.35986
-2.23156
-2.00684
-1.72549
-1.42405
-1.13259
-0.871243
-0.649964
-0.472465
-0.335686
-0.234132
-0.161051
-0.110254
-0.0759414
-0.0541139
-0.041829
-0.0374934
-2.14317
-2.31898
-2.33693
-2.21484
-1.98751
-1.69846
-1.38847
-1.09058
-0.826442
-0.606175
-0.432519
-0.301309
-0.205878
-0.138652
-0.0928615
-0.0624583
-0.0432269
-0.0321483
-0.0277712
-2.079
-2.28225
-2.31764
-2.20169
-1.97154
-1.67418
-1.35499
-1.04993
-0.782402
-0.562828
-0.392731
-0.26705
-0.177802
-0.116568
-0.0759628
-0.0497419
-0.0333586
-0.0234998
-0.0179812
-2.02345
-2.25336
-2.31305
-2.21524
-1.99653
-1.70381
-1.38449
-1.07603
-0.803727
-0.579513
-0.405122
-0.276184
-0.184421
-0.121418
-0.0795714
-0.0526271
-0.0356787
-0.0251553
-0.0181699
-1.98142
-2.22984
-2.30947
-2.23152
-2.02974
-1.74852
-1.43463
-1.12589
-0.84911
-0.618201
-0.436149
-0.299985
-0.201936
-0.13385
-0.0881005
-0.0584475
-0.0397477
-0.0283623
-0.0214321
-1.9761
-2.22833
-2.31766
-2.25366
-2.06667
-1.79789
-1.4917
-1.18523
-0.905846
-0.668929
-0.479006
-0.334533
-0.228618
-0.153657
-0.102286
-0.0684002
-0.0467593
-0.0335526
-0.0256628
-2.01244
-2.25329
-2.33969
-2.28068
-2.10362
-1.84601
-1.5488
-1.24711
-0.967766
-0.726914
-0.53028
-0.377774
-0.263503
-0.180601
-0.122184
-0.0825842
-0.0566797
-0.0406282
-0.0309908
-2.08444
-2.30481
-2.37834
-2.31666
-2.14491
-1.89672
-1.60903
-1.314
-1.03701
-0.794288
-0.592329
-0.43241
-0.309609
-0.21786
-0.150844
-0.103612
-0.0715059
-0.0510136
-0.0384493
-2.18828
-2.37708
-2.43006
-2.36033
-2.19062
-1.95057
-1.67288
-1.3862
-1.11386
-0.87158
-0.666195
-0.500198
-0.369526
-0.268799
-0.192084
-0.135233
-0.0943813
-0.0670459
-0.0497055
-2.32063
-2.46949
-2.49824
-2.41753
-2.24758
-2.01426
-1.74624
-1.46855
-1.20215
-0.961927
-0.754715
-0.584103
-0.446785
-0.337896
-0.251387
-0.183459
-0.130854
-0.0930038
-0.0677129
-2.45621
-2.57224
-2.57827
-2.48629
-2.31536
-2.0882
-1.82983
-1.56176
-1.30252
-1.06595
-0.858658
-0.685309
-0.543446
-0.42879
-0.334681
-0.256684
-0.19052
-0.137243
-0.0981688
-2.60643
-2.68918
-2.67168
-2.56738
-2.39438
-2.17258
-1.92359
-1.66556
-1.41454
-1.18314
-0.977502
-0.803355
-0.659364
-0.542469
-0.445729
-0.363758
-0.288433
-0.218454
-0.153005
-2.77975
-2.82651
-2.78459
-2.66766
-2.49254
-2.27646
-2.03763
-1.79102
-1.55016
-1.32618
-1.12476
-0.952239
-0.808771
-0.693513
-0.601229
-0.527743
-0.462539
-0.40028
-0.334403
-2.96753
-2.9758
-2.9035
-2.76706
-2.58266
-2.36555
-2.1308
-1.89084
-1.65686
-1.43808
-1.23982
-1.06775
-0.922964
-0.806135
-0.715062
-0.648823
-0.601076
-0.567256
-0.539816
-3.17727
-3.13497
-3.02415
-2.86142
-2.6611
-2.43649
-2.19988
-1.96188
-1.73186
-1.51733
-1.32348
-1.15477
-1.0125
-0.897157
-0.807593
-0.742849
-0.69994
-0.67721
-0.67212
-3.4082
-3.3067
-3.15545
-2.96567
-2.74824
-2.51398
-2.27302
-2.03444
-1.80633
-1.59508
-1.40558
-1.2415
-1.10394
-0.992968
-0.90722
-0.844446
-0.800887
-0.77297
-0.756371
-3.61252
-3.45904
-3.27213
-3.05805
-2.82481
-2.58111
-2.33546
-2.09557
-1.86849
-1.65973
-1.47358
-1.31324
-1.17945
-1.07202
-0.989457
-0.929343
-0.888
-0.86194
-0.847026
-3.77062
-3.5833
-3.37072
-3.13824
-2.8927
-2.64156
-2.39218
-2.15129
-1.92512
-1.71848
-1.53526
-1.37822
-1.24789
-1.14389
-1.0647
-1.00776
-0.969479
-0.946308
-0.93412
-3.89396
-3.68143
-3.44947
-3.20296
-2.94797
-2.69108
-2.43881
-2.19713
-1.97168
-1.76674
-1.5859
-1.43159
-1.30418
-1.20313
-1.1269
-1.07281
-1.03732
-1.01682
-1.00721
-3.98331
-3.75205
-3.50551
-3.24866
-2.98687
-2.72592
-2.47164
-2.22947
-2.00461
-1.80095
-1.62188
-1.46962
-1.34441
-1.2456
-1.17163
-1.11971
-1.0863
-1.06772
-1.05984
-4.04438
-3.79309
-3.53535
-3.2719
-3.0062
-2.74309
-2.48786
-2.24556
-2.02115
-1.8183
-1.64031
-1.48925
-1.36533
-1.26785
-1.19523
-1.14467
-1.11265
-1.0955
-1.08906
-4.0444
-3.79313
-3.5354
-3.27195
-3.00625
-2.74315
-2.48792
-2.24562
-2.02121
-1.81837
-1.64037
-1.48932
-1.3654
-1.26792
-1.19531
-1.14474
-1.11273
-1.09558
-1.08915
-3.98334
-3.75212
-3.50561
-3.24878
-2.98701
-2.72607
-2.47181
-2.22965
-2.00479
-1.80114
-1.62208
-1.46982
-1.34461
-1.24581
-1.17185
-1.11994
-1.08654
-1.06799
-1.06013
-3.89399
-3.68154
-3.44962
-3.20315
-2.9482
-2.69133
-2.43908
-2.19741
-1.97198
-1.76705
-1.58621
-1.43191
-1.30451
-1.20347
-1.12725
-1.07318
-1.0377
-1.01723
-1.00765
-3.77067
-3.58344
-3.37092
-3.13849
-2.89299
-2.64188
-2.39254
-2.15166
-1.92551
-1.71888
-1.53567
-1.37863
-1.24831
-1.14432
-1.06514
-1.00822
-0.969955
-0.946811
-0.934656
-3.61258
-3.45919
-3.27236
-3.05834
-2.82515
-2.5815
-2.33588
-2.09602
-1.86896
-1.66021
-1.47408
-1.31374
-1.17995
-1.07253
-0.989971
-0.929871
-0.888548
-0.862516
-0.847636
-3.40826
-3.30686
-3.1557
-2.96599
-2.74863
-2.51442
-2.2735
-2.03495
-1.80686
-1.59563
-1.40613
-1.24205
-1.10449
-0.993521
-0.907774
-0.845004
-0.801455
-0.77355
-0.756967
-3.17735
-3.13518
-3.02447
-2.86184
-2.66163
-2.4371
-2.20056
-1.96261
-1.73263
-1.51812
-1.32429
-1.15559
-1.01332
-0.897981
-0.808427
-0.743681
-0.700753
-0.677962
-0.67275
-2.96758
-2.97584
-2.90359
-2.76722
-2.5829
-2.36589
-2.13122
-1.89132
-1.65739
-1.43862
-1.24036
-1.06825
-0.923407
-0.806503
-0.715359
-0.649068
-0.60136
-0.56774
-0.540745
-2.77977
-2.82666
-2.7849
-2.66814
-2.49321
-2.27731
-2.03865
-1.79216
-1.55138
-1.32744
-1.12602
-0.953472
-0.809965
-0.694674
-0.602395
-0.528977
-0.463932
-0.401927
-0.336369
-2.60643
-2.68922
-2.67182
-2.56767
-2.39483
-2.17318
-1.92432
-1.66638
-1.41541
-1.18403
-0.978367
-0.804177
-0.660136
-0.543201
-0.446446
-0.364485
-0.289164
-0.219135
-0.153521
-2.4562
-2.57226
-2.57838
-2.48655
-2.31578
-2.08878
-1.83053
-1.56255
-1.30335
-1.06678
-0.859449
-0.686044
-0.544121
-0.429412
-0.335262
-0.257229
-0.19101
-0.137642
-0.0984527
-2.32061
-2.46948
-2.49832
-2.41775
-2.24796
-2.01479
-1.74689
-1.46928
-1.2029
-0.962667
-0.755407
-0.58473
-0.447343
-0.338392
-0.251825
-0.18384
-0.131171
-0.0932482
-0.0678812
-2.18826
-2.37706
-2.43012
-2.36052
-2.19097
-1.95106
-1.67348
-1.38687
-1.11454
-0.872233
-0.666792
-0.500724
-0.369979
-0.269185
-0.192408
-0.135499
-0.0945902
-0.0672015
-0.0498121
-2.0844
-2.30477
-2.37837
-2.31681
-2.14521
-1.89716
-1.60958
-1.3146
-1.03761
-0.794854
-0.592833
-0.432843
-0.309971
-0.218157
-0.151083
-0.103799
-0.0716471
-0.0511168
-0.0385208
-2.01241
-2.25325
-2.33971
-2.28082
-2.10389
-1.8464
-1.54929
-1.24764
-0.968285
-0.727393
-0.530698
-0.378125
-0.263787
-0.180827
-0.122361
-0.0827177
-0.0567782
-0.0407002
-0.0310426
-1.97607
-2.22829
-2.31768
-2.25378
-2.06691
-1.79823
-1.49212
-1.18568
-0.906283
-0.669326
-0.479347
-0.334813
-0.228842
-0.153831
-0.102418
-0.0684983
-0.0468312
-0.0336063
-0.0257046
-1.98139
-2.2298
-2.30947
-2.2316
-2.02991
-1.74878
-1.43494
-1.12622
-0.849434
-0.618492
-0.436397
-0.300186
-0.202095
-0.133971
-0.0881909
-0.0585135
-0.0397958
-0.0283996
-0.0214664
-2.02348
-2.25338
-2.31309
-2.2153
-1.99662
-1.70393
-1.38463
-1.07618
-0.803872
-0.579649
-0.405242
-0.276288
-0.184509
-0.12149
-0.079629
-0.0526733
-0.0357155
-0.025184
-0.0181876
-2.07903
-2.28228
-2.31764
-2.20166
-1.97147
-1.67408
-1.35488
-1.04981
-0.782292
-0.562731
-0.392649
-0.266985
-0.177752
-0.116531
-0.075936
-0.0497224
-0.0333441
-0.0234876
-0.0179655
-2.14319
-2.31899
-2.33694
-2.21484
-1.98751
-1.69846
-1.38846
-1.09057
-0.826445
-0.60618
-0.432526
-0.301316
-0.205885
-0.138658
-0.092866
-0.0624616
-0.0432294
-0.0321504
-0.0277715
-2.21023
-2.35902
-2.35986
-2.23155
-2.00683
-1.72548
-1.42404
-1.13258
-0.87124
-0.649964
-0.472467
-0.335689
-0.234135
-0.161054
-0.110257
-0.0759434
-0.0541158
-0.0418307
-0.0374945
-2.27842
-2.40381
-2.38946
-2.25618
-2.03459
-1.76064
-1.46686
-1.18069
-0.921004
-0.697796
-0.515763
-0.372938
-0.264934
-0.185792
-0.129882
-0.0916237
-0.0671985
-0.0536526
-0.0493027
-2.35327
-2.4562
-2.42721
-2.28951
-2.07078
-1.80302
-1.51526
-1.23272
-0.973425
-0.747487
-0.560529
-0.411578
-0.297222
-0.212201
-0.151409
-0.10945
-0.0826946
-0.0681833
-0.0642046
-2.44128
-2.51581
-2.47273
-2.331
-2.11413
-1.85058
-1.56665
-1.28592
-1.02581
-0.79664
-0.604788
-0.450099
-0.329955
-0.239677
-0.174638
-0.129594
-0.101149
-0.0863643
-0.0835371
-2.52257
-2.57532
-2.52269
-2.37801
-2.16185
-1.90039
-1.6181
-1.33754
-1.07575
-0.843251
-0.646976
-0.48738
-0.362449
-0.267961
-0.199731
-0.152638
-0.123597
-0.109713
-0.109328
-2.60178
-2.64566
-2.58584
-2.43662
-2.21798
-1.9549
-1.67105
-1.38831
-1.12358
-0.887452
-0.687181
-0.523585
-0.395043
-0.297648
-0.227637
-0.17995
-0.151922
-0.140709
-0.144729
-2.69694
-2.72878
-2.65831
-2.50043
-2.27504
-2.00657
-1.71853
-1.43232
-1.16459
-0.925724
-0.722998
-0.557299
-0.427211
-0.329024
-0.259433
-0.213381
-0.188804
-0.18292
-0.194269
-2.80699
-2.821
-2.73574
-2.56442
-2.32778
-2.05056
-1.7565
-1.46647
-1.19663
-0.956789
-0.753942
-0.588738
-0.459845
-0.363659
-0.297442
-0.256053
-0.238301
-0.241451
-0.26422
-2.92351
-2.92056
-2.81606
-2.6256
-2.37313
-2.08439
-1.78338
-1.4901
-1.21985
-0.98142
-0.781365
-0.619767
-0.495356
-0.404574
-0.345443
-0.312604
-0.306095
-0.323176
-0.362786
-3.0573
-3.03161
-2.89815
-2.68114
-2.40839
-2.10627
-1.79844
-1.50351
-1.23543
-1.00146
-0.807727
-0.653413
-0.537389
-0.456123
-0.408674
-0.389256
-0.399594
-0.436808
-0.500097
-3.21865
-3.14553
-2.97094
-2.72126
-2.42599
-2.11114
-1.79887
-1.50578
-1.24394
-1.01866
-0.8358
-0.693324
-0.590477
-0.523774
-0.493683
-0.493701
-0.527784
-0.592688
-0.687924
-3.35862
-3.23021
-3.01079
-2.7283
-2.4135
-2.09124
-1.78062
-1.49575
-1.24635
-1.03549
-0.869282
-0.744186
-0.660239
-0.614068
-0.608032
-0.634555
-0.700504
-0.802026
-0.939147
-3.48584
-3.30072
-3.03097
-2.71569
-2.38519
-2.06108
-1.75769
-1.4864
-1.25452
-1.06273
-0.918183
-0.815546
-0.756132
-0.736732
-0.762068
-0.822999
-0.929991
-1.07827
-1.26885
-3.60568
-3.33241
-3.00785
-2.66696
-2.3309
-2.01514
-1.72776
-1.47778
-1.27023
-1.10361
-0.987006
-0.913078
-0.885013
-0.899838
-0.965169
-1.06976
-1.22852
-1.43557
-1.69423
-3.63445
-3.27214
-2.91129
-2.56612
-2.24268
-1.95026
-1.69059
-1.47155
-1.29653
-1.16215
-1.08057
-1.04227
-1.05301
-1.1102
-1.22501
-1.38372
-1.60697
-1.8882
-2.23674
-3.53934
-3.12776
-2.76331
-2.43828
-2.14439
-1.88748
-1.66412
-1.48281
-1.34601
-1.24904
-1.20814
-1.21159
-1.2684
-1.37659
-1.55166
-1.77726
-2.08158
-2.45862
-2.93276
-3.27702
-2.87739
-2.55202
-2.27524
-2.02952
-1.82122
-1.64373
-1.50767
-1.41545
-1.36169
-1.36761
-1.41954
-1.53059
-1.69992
-1.94872
-2.25856
-2.66854
-3.17658
-3.84639
-2.83212
-2.52661
-2.28385
-2.08038
-1.89878
-1.75013
-1.62664
-1.54217
-1.49983
-1.49424
-1.55239
-1.65934
-1.83339
-2.07611
-2.4168
-2.83699
-3.39312
-4.09429
-5.11101
-2.23245
-2.09096
-1.96295
-1.85072
-1.74538
-1.66507
-1.60221
-1.5743
-1.58572
-1.63193
-1.74635
-1.91406
-2.16033
-2.4917
-2.95034
-3.52291
-4.29613
-5.30578
-7.02212
-1.55005
-1.59477
-1.59285
-1.58013
-1.55857
-1.55259
-1.55505
-1.58664
-1.65334
-1.75225
-1.92396
-2.15552
-2.48202
-2.92017
-3.53423
-4.32787
-5.44567
-6.98403
-10.2714
-0.87614
-1.0669
-1.17818
-1.26295
-1.32789
-1.39938
-1.46947
-1.56075
-1.68038
-1.82809
-2.05208
-2.34358
-2.75204
-3.31417
-4.13365
-5.25846
-6.95201
-9.45272
-16.552
-0.289716
-0.533685
-0.724975
-0.896944
-1.04722
-1.19704
-1.33445
-1.48244
-1.64717
-1.83228
-2.09349
-2.42612
-2.90248
-3.60349
-4.72804
-6.51483
-9.74713
-15.7388
-37.1756
)
;

boundaryField
{
    up
    {
        type            calculated;
        value           nonuniform List<scalar> 
84
(
-33.6912
-18.2471
-11.176
-7.56449
-5.47203
-4.10527
-3.12652
-2.38424
-1.806
-1.35246
-1.00002
-0.730836
-0.529371
-0.381961
-0.276223
-0.201399
-0.148682
-0.11129
-0.0842985
-0.0642859
-0.0490235
-0.037018
-0.0269239
-0.0158017
-0.0151477
-0.0195821
-0.0235535
-0.028351
-0.0349212
-0.044725
-0.0601521
-0.0848714
-0.130118
-0.321489
-0.54555
-0.67577
-0.750468
-0.842054
-0.930393
-1.00466
-1.0581
-1.08804
-1.08813
-1.0584
-1.00512
-0.930944
-0.842681
-0.751074
-0.676284
-0.546543
-0.323744
-0.130609
-0.0851077
-0.0602915
-0.0448134
-0.0349812
-0.0283955
-0.0235909
-0.0196222
-0.0151672
-0.0157826
-0.0269225
-0.0370184
-0.0490252
-0.064289
-0.0843031
-0.111295
-0.148689
-0.201406
-0.276228
-0.381961
-0.529366
-0.730825
-1.00001
-1.35245
-1.80599
-2.38425
-3.12655
-4.10531
-5.47206
-7.56451
-11.176
-18.247
-33.6912
)
;
    }
    low
    {
        type            calculated;
        value           nonuniform List<scalar> 
84
(
-0.311385
-0.917338
-1.63789
-2.37737
-3.02833
-3.50443
-3.76981
-3.84534
-3.77292
-3.6004
-3.44772
-3.28429
-3.09006
-2.93957
-2.81421
-2.69008
-2.58206
-2.49927
-2.40867
-2.29884
-2.20607
-2.1228
-2.03741
-1.95586
-1.87166
-1.81602
-1.81231
-1.86806
-1.96579
-2.10148
-2.26199
-2.41602
-2.58626
-2.78169
-2.98702
-3.21946
-3.48115
-3.70359
-3.87125
-4.00245
-4.0982
-4.16952
-4.16953
-4.09821
-4.00247
-3.87128
-3.70362
-3.48119
-3.21951
-2.987
-2.78172
-2.58623
-2.416
-2.26196
-2.10146
-1.96576
-1.86804
-1.8123
-1.81602
-1.87167
-1.9559
-2.03741
-2.12281
-2.20607
-2.29884
-2.40868
-2.49927
-2.58206
-2.69008
-2.8142
-2.93957
-3.09006
-3.28427
-3.4477
-3.60038
-3.77291
-3.84534
-3.76982
-3.50445
-3.02835
-2.37739
-1.6379
-0.917348
-0.311389
)
;
    }
    left
    {
        type            calculated;
        value           nonuniform List<scalar> 
19
(
-0.284573
-0.5248
-0.720734
-0.899514
-1.05728
-1.21425
-1.35848
-1.51403
-1.68698
-1.88407
-2.16337
-2.52213
-3.04245
-3.82111
-5.08095
-7.11494
-10.8344
-17.8067
-34.9394
)
;
    }
    right
    {
        type            calculated;
        value           nonuniform List<scalar> 
19
(
-0.284575
-0.5248
-0.720732
-0.899512
-1.05728
-1.21425
-1.35848
-1.51403
-1.68699
-1.88408
-2.16337
-2.52213
-3.04244
-3.8211
-5.08093
-7.11493
-10.8344
-17.8067
-34.9394
)
;
    }
    frontAndBackPlanes
    {
        type            empty;
    }
}


// ************************************************************************* //
