/*--------------------------------*- C++ -*----------------------------------*\
  =========                 |
  \\      /  F ield         | OpenFOAM: The Open Source CFD Toolbox
   \\    /   O peration     | Website:  https://openfoam.org
    \\  /    A nd           | Version:  7
     \\/     M anipulation  |
\*---------------------------------------------------------------------------*/
FoamFile
{
    version     2.0;
    format      ascii;
    class       volScalarField;
    location    "0.05";
    object      gradTz;
}
// * * * * * * * * * * * * * * * * * * * * * * * * * * * * * * * * * * * * * //

dimensions      [0 -1 0 1 0 0 0];

internalField   nonuniform List<scalar> 
1596
(
-1.61267e-16
-7.45451e-17
7.9967e-17
5.50453e-18
-1.42352e-16
0
-6.09732e-17
-6.03058e-17
-9.08971e-18
-3.43736e-17
-5.00086e-20
-3.48993e-17
1.61318e-16
-3.55264e-17
1.63002e-16
1.42749e-16
8.55116e-17
1.10216e-16
0
1.56758e-16
0
1.95526e-16
-3.71692e-18
-5.09129e-17
5.01953e-17
1.17013e-16
8.76194e-18
5.31419e-17
-2.64127e-17
5.33008e-17
-1.04876e-19
-7.41356e-17
-4.72951e-17
-1.31096e-16
-1.30149e-16
-1.20061e-16
6.97949e-17
0
-7.12344e-17
0
-1.16133e-16
5.65904e-18
8.85526e-17
-3.34598e-17
6.12084e-18
-4.58457e-19
-2.46469e-19
-1.19162e-19
1.31448e-17
0
3.83347e-17
1.03733e-16
-1.04514e-17
9.36813e-18
2.13893e-17
3.76302e-17
0
1.19426e-16
-2.82927e-17
2.81894e-17
0
-2.43963e-17
-2.69408e-17
3.54906e-17
-2.34639e-17
0
0
-1.81642e-17
6.94568e-18
0
-2.84255e-17
-3.1782e-17
2.39034e-17
-3.09359e-17
-1.54117e-18
0
2.16999e-17
4.59313e-17
-3.19957e-17
0
-6.74295e-18
-2.19941e-17
0
2.89687e-17
-2.49694e-18
-2.31168e-18
-8.38576e-18
1.27019e-17
1.78203e-17
2.43228e-18
6.24238e-18
-2.57738e-17
1.22616e-18
1.22941e-17
-6.04936e-18
-5.63511e-18
-6.15717e-17
4.82389e-17
-3.3287e-17
-2.20527e-19
-1.88736e-17
4.65519e-19
-4.67064e-19
-1.04254e-17
0
-5.79494e-18
-1.54929e-17
-1.58942e-17
1.03016e-17
1.67619e-17
-2.0725e-19
-9.99682e-18
-1.24697e-17
1.01449e-17
4.70936e-17
-6.31135e-17
5.62149e-17
2.43392e-17
0
1.50554e-17
6.63191e-18
-2.88154e-18
1.27944e-17
-2.05316e-18
-1.06643e-17
8.35743e-21
-5.0086e-18
-1.03113e-17
-6.39028e-18
6.47644e-18
1.00848e-17
-1.45745e-19
-3.87641e-18
1.07272e-17
1.03849e-16
-9.67892e-17
0
0
-1.60656e-17
0
0
0
4.41532e-18
0
0
4.91703e-18
-9.55599e-21
3.31663e-18
-5.88978e-18
0
3.12825e-18
1.60476e-18
0
-6.09378e-17
1.10697e-16
0
0
1.65454e-17
0
-3.04289e-18
3.03982e-18
-4.49415e-18
1.43802e-18
-1.44853e-18
0
2.0263e-18
3.7146e-18
0
-2.07397e-18
-3.18163e-18
-1.45677e-18
1.88986e-16
-8.26082e-17
0
-3.16867e-17
3.13321e-17
0
1.07836e-17
0
0
0
9.52479e-19
-9.57045e-19
0
-1.64722e-18
-3.64124e-19
0
9.31092e-19
9.54724e-19
0
-4.80671e-17
0
0
3.27908e-17
-5.42268e-17
7.57681e-18
3.17581e-18
-2.68704e-18
1.02921e-18
2.40407e-19
-1.03216e-18
-1.01764e-18
0
6.34897e-19
-1.87558e-19
1.90373e-19
9.84241e-19
-8.0799e-19
-2.96896e-19
2.84425e-17
-9.71979e-18
2.83288e-17
7.43821e-17
-1.07378e-17
-2.23891e-17
0
0
0
2.4073e-18
5.64842e-19
1.61589e-18
-3.68488e-19
-6.23539e-19
-2.21894e-19
-1.89815e-19
9.35972e-20
-2.50033e-19
2.71018e-19
-3.87873e-17
3.88043e-17
-6.49777e-17
-7.39993e-17
6.09771e-17
1.46312e-17
-2.34102e-17
1.42178e-17
-8.35221e-18
2.1743e-18
8.64493e-19
-4.97832e-19
1.12344e-19
-1.2928e-19
4.40573e-19
0
-3.96874e-20
3.76728e-19
-6.06751e-20
-2.87006e-16
1.2106e-16
3.42936e-21
-1.37793e-17
6.01822e-18
1.4384e-17
-2.50907e-17
-6.52171e-18
3.74638e-18
-2.07531e-18
-1.12973e-18
0
-5.81665e-19
-1.40433e-19
-1.47651e-19
-7.52527e-20
4.67441e-21
-1.37171e-19
3.08789e-20
4.68324e-17
-3.62723e-17
-1.52862e-19
-1.93052e-17
-3.47285e-17
2.98676e-17
2.08698e-19
6.3554e-18
-3.6476e-18
3.95278e-18
6.89572e-19
4.06447e-19
6.03497e-19
0
2.35817e-19
9.1428e-20
0
4.88493e-20
1.39973e-20
0
3.51883e-17
1.86809e-17
-4.39417e-17
3.32743e-17
-4.17113e-17
2.30691e-17
4.63687e-18
-1.99065e-18
-4.4339e-18
3.66916e-19
-3.65105e-19
-5.13762e-19
1.21749e-19
-5.33851e-20
-7.61372e-20
2.02605e-20
-1.24985e-20
1.1758e-20
-4.33268e-17
1.17248e-16
-9.0169e-17
3.41575e-17
0
0
-2.85881e-18
7.19364e-18
-2.32364e-18
3.83621e-18
0
0
3.1268e-19
-1.9803e-19
-6.93121e-20
2.05199e-20
-1.65193e-20
8.98752e-21
0
8.97717e-18
4.06518e-17
-2.33496e-17
-1.69291e-17
-1.76101e-17
-1.97428e-19
6.55501e-18
0
-2.02671e-18
-7.95569e-19
6.74185e-19
-3.35113e-19
1.63e-19
0
3.16044e-20
3.37176e-20
0
0
0
-8.88804e-18
4.38561e-17
7.23957e-18
-5.18111e-17
9.55918e-18
6.36612e-18
0
0
1.73428e-18
-9.92256e-19
-6.52083e-19
3.24116e-19
-1.57633e-19
0
-1.16986e-20
7.4337e-21
0
-2.91274e-21
-9.72104e-22
-2.89655e-17
8.58798e-17
-8.86581e-17
-2.27343e-17
1.32615e-17
-5.18656e-18
2.99209e-18
0
-8.73528e-19
5.28115e-19
0
0
4.00881e-20
-4.01343e-20
4.27016e-21
-7.70723e-21
4.26838e-21
1.08455e-21
7.49465e-22
1.76787e-17
-1.31778e-17
5.02019e-17
-3.0862e-17
-7.54944e-18
1.99365e-18
6.98364e-18
1.35094e-18
8.35835e-19
0
1.37255e-19
-1.23583e-19
5.83033e-20
-2.95431e-20
1.42378e-20
-1.6633e-20
-3.0617e-21
2.15644e-21
3.82686e-22
4.17892e-17
-4.51417e-17
0
1.82041e-17
-1.08102e-17
-4.2578e-18
1.02241e-18
-4.68734e-18
0
-4.45423e-20
-2.15977e-19
-7.47258e-20
5.4989e-20
-1.00462e-20
-1.37606e-20
6.11169e-21
0
7.62562e-22
-3.71585e-22
8.58904e-17
-1.1539e-17
3.389e-17
-2.58208e-17
6.57419e-18
-2.54345e-18
-5.22335e-18
-6.9931e-19
1.03549e-18
-8.73129e-20
-1.58348e-19
1.0452e-19
-3.22435e-20
-1.74637e-20
0
0
0
-7.64455e-22
2.31694e-23
-6.63863e-17
6.20063e-17
-7.02215e-20
4.59252e-18
2.77817e-18
-3.75315e-18
3.31136e-18
-1.65129e-18
8.68745e-19
-1.12184e-19
1.95391e-19
2.774e-20
-7.27621e-21
4.59121e-22
-1.85936e-22
-8.60765e-22
0
0
0
0
0
1.68592e-17
-1.44265e-17
-1.80698e-17
0
0
-4.03832e-19
-3.83847e-19
1.73451e-19
0
-3.49852e-20
1.52388e-20
-2.39108e-20
2.41417e-20
-3.35965e-21
3.57928e-21
2.38852e-22
0
-1.26861e-17
1.28422e-17
0
-5.05335e-18
4.4044e-18
4.6186e-18
0
4.07688e-19
1.49031e-19
-9.55931e-19
0
-3.74744e-20
1.62138e-20
6.58638e-21
-2.92642e-21
2.72241e-21
0
-5.42445e-22
0
-6.56262e-18
-5.19972e-18
3.08213e-19
5.19219e-18
-9.57257e-18
0
-1.03233e-18
0
9.44611e-19
1.98672e-19
0
1.41624e-19
-1.00777e-19
1.51095e-20
-1.75584e-21
4.22729e-21
4.61804e-21
1.09654e-21
-8.6656e-22
0
1.22343e-17
-7.31525e-18
8.60941e-18
6.14449e-18
0
1.96068e-18
-1.55341e-18
-5.36739e-19
3.90272e-19
-5.49753e-19
-1.13151e-19
0
0
3.75714e-21
0
0
3.48468e-22
0
-6.08557e-17
4.80248e-17
0
1.42704e-18
-3.05142e-18
-1.24719e-19
1.71472e-18
4.20132e-19
-9.29469e-19
-8.77552e-19
7.01815e-19
-1.97119e-19
0
-1.97136e-20
0
0
0
-1.28842e-21
1.01127e-21
-1.87659e-17
1.47162e-17
2.96613e-17
-2.62356e-17
6.06178e-18
7.74051e-19
-1.72153e-18
9.46847e-19
9.92756e-19
4.21319e-19
-7.87052e-19
0
8.58887e-20
-3.23367e-20
-2.23813e-20
-1.66996e-20
1.12767e-20
-4.31255e-22
1.05539e-21
-6.9158e-17
7.27144e-17
-6.90047e-17
8.99337e-18
5.37534e-18
-4.39759e-18
2.90609e-18
-1.33362e-18
0
-5.15212e-19
3.80515e-19
1.49893e-19
1.55133e-19
7.48895e-20
-9.80343e-20
-9.00246e-21
0
-5.68951e-22
4.56547e-23
-7.46408e-17
-1.7575e-17
-2.34396e-17
1.40042e-17
-1.40372e-17
8.86041e-18
-4.51702e-18
2.3226e-18
-4.17368e-19
-3.38968e-19
-5.54083e-19
4.12737e-19
-2.43599e-20
1.59855e-19
-1.71606e-19
-3.38245e-21
9.04647e-21
0
-1.33134e-22
8.0703e-17
-1.95282e-17
0
0
-1.45673e-17
2.567e-17
-4.854e-18
-5.06177e-19
3.18599e-18
-1.50677e-19
0
0
-1.5907e-19
0
-1.85005e-19
3.50464e-19
-2.12981e-19
0
9.45585e-23
2.57269e-17
4.22908e-17
0
-1.32424e-17
-7.1925e-18
-3.73175e-18
-5.19654e-18
1.36537e-18
-3.19864e-18
-1.02624e-18
0
0
4.52454e-19
0
0
-3.25255e-19
5.75674e-19
0
0
1.77171e-16
-2.96889e-17
-8.87735e-17
-3.45754e-17
4.79933e-17
1.10588e-17
5.03869e-18
0
-1.05855e-18
7.3553e-19
1.70651e-18
-4.76218e-19
-3.97032e-19
5.10901e-19
-5.43442e-19
-9.7853e-20
0
0
0
1.41768e-17
-9.50896e-17
9.18576e-17
-7.17535e-18
-4.31375e-17
6.13018e-17
-2.7542e-17
0
0
6.06622e-18
-4.50852e-18
0
-6.63731e-19
1.24073e-18
-7.04859e-20
2.62529e-19
6.64971e-20
1.57322e-21
1.1601e-20
0
0
0
5.94244e-17
-4.0592e-17
2.91211e-17
-4.27728e-17
1.05818e-17
0
-2.17526e-18
2.52665e-18
-2.58238e-18
-3.36741e-19
3.66832e-20
-1.58085e-19
-1.34935e-20
-1.15656e-19
-3.37082e-20
-1.68836e-20
1.1385e-16
-1.92249e-16
8.58447e-17
0
1.45491e-17
-2.03357e-17
1.43285e-17
-1.11973e-17
0
-2.88216e-18
4.12669e-18
0
0
3.63478e-20
0
-1.94713e-19
1.27376e-19
1.21495e-20
2.83559e-20
1.21395e-16
0
-3.48571e-17
3.86626e-17
-1.79171e-17
3.67396e-17
-1.58173e-17
-8.52682e-18
8.61587e-18
-6.61113e-19
0
0
2.47247e-19
-3.24086e-19
-2.03814e-19
3.68821e-19
-7.68169e-20
3.31033e-20
0
6.85641e-17
4.42204e-17
-6.23895e-18
-3.7237e-17
-3.02126e-18
-1.73908e-17
4.19619e-18
1.21952e-17
-4.79409e-19
6.73527e-19
0
0
-2.53288e-19
0
2.31226e-19
-2.47357e-19
0
2.82866e-20
-7.55037e-21
-3.63144e-17
-2.22486e-17
2.09172e-17
-1.96917e-18
-7.69009e-19
1.76775e-18
0
-3.33471e-19
3.85211e-18
-3.23456e-18
0
6.4937e-19
-2.0098e-19
-4.96263e-19
-3.85214e-20
-2.77653e-20
0
-2.23728e-20
0
1.36526e-17
-2.47525e-17
8.9882e-19
8.93782e-18
6.22632e-18
-6.08046e-18
-3.13067e-18
3.50723e-18
-8.52683e-19
6.87865e-19
-4.57622e-19
4.71737e-19
0
8.32499e-22
-2.73267e-20
9.85929e-20
-3.12643e-22
0
0
1.36531e-17
-1.36019e-17
-8.88887e-18
7.94823e-18
1.09086e-17
-1.0973e-17
-1.56545e-18
1.57023e-18
-8.60547e-19
8.69275e-19
-4.57671e-19
8.06291e-19
-2.2521e-19
-1.29342e-19
-3.222e-20
1.22379e-20
2.39617e-20
5.98916e-21
-4.45924e-21
0
-3.07208e-18
1.53199e-17
-1.68253e-17
1.08406e-17
-9.72224e-18
0
4.58868e-18
-4.16278e-18
0
8.92655e-19
-1.10705e-18
-4.73688e-19
4.96455e-19
7.36489e-20
0
0
-2.23888e-20
8.00545e-21
5.42441e-17
-9.51531e-17
8.67066e-17
-6.69532e-17
2.47252e-17
-1.50882e-17
1.45678e-17
1.27807e-18
-3.72978e-18
3.29284e-18
0
-1.3915e-18
1.27057e-18
-1.83331e-19
-7.2139e-20
9.50098e-20
6.54882e-20
2.17352e-20
-7.73508e-21
1.36156e-16
0
-3.97404e-17
3.10048e-17
2.98688e-18
-1.80572e-17
2.92067e-17
-2.15478e-17
7.73663e-18
-2.19879e-18
2.25066e-18
3.43391e-19
4.55213e-19
1.78566e-19
-1.16505e-19
-2.21237e-20
-1.40068e-19
0
1.15679e-20
9.92884e-17
-1.11799e-16
0
7.56225e-18
2.60776e-17
-2.4679e-17
3.19033e-18
2.31009e-18
8.64384e-19
1.15916e-18
0
0
-7.45992e-19
1.22189e-18
-4.08835e-19
-1.16502e-19
1.2755e-19
9.10842e-21
-2.1238e-20
2.06552e-17
9.86443e-17
-9.42704e-18
-5.21015e-17
4.62015e-17
4.2498e-18
-3.12232e-18
-2.25627e-18
5.2852e-18
-6.45414e-18
2.52939e-18
-2.58515e-18
2.13949e-19
-3.89434e-19
4.39739e-19
-2.97964e-19
0
0
1.34807e-20
0
2.31435e-17
-5.64385e-17
6.52406e-17
-3.77216e-17
3.76318e-17
0
6.93375e-18
-6.96552e-18
-3.24832e-18
4.51609e-18
0
9.88465e-19
-1.24313e-18
-1.50812e-19
0
-1.09173e-20
-1.41265e-20
-4.34549e-21
-2.45284e-16
1.09873e-16
0
-4.80022e-17
4.79974e-17
2.00784e-17
-1.29372e-17
3.44581e-18
0
-8.78058e-20
2.8625e-19
-4.76337e-19
-3.97326e-19
5.11274e-19
-5.43654e-19
0
5.74678e-20
3.06093e-22
-9.27992e-21
1.44716e-16
-1.36589e-16
0
1.26493e-17
9.29449e-18
-7.31335e-18
0
-3.61123e-18
-1.97358e-18
0
-2.89776e-19
0
4.53586e-19
0
0
6.25745e-20
1.96474e-19
-2.75929e-19
0
-6.61614e-20
1.95398e-17
-1.4945e-17
7.83201e-18
-4.23349e-17
1.41449e-17
0
5.07148e-19
1.29391e-18
0
-7.16131e-19
1.06498e-18
-1.11882e-18
8.82446e-20
0
-3.16705e-20
0
0
0
-5.48583e-20
0
1.38129e-17
0
-1.16462e-17
1.18314e-17
0
1.70471e-18
-8.77511e-19
2.45827e-18
-1.03391e-18
1.63664e-19
-1.69933e-19
8.07953e-20
-1.72623e-19
-2.12188e-20
0
-1.51999e-21
0
5.23012e-17
-8.93777e-17
0
-8.52268e-18
5.71052e-18
0
0
-2.84415e-18
0
-5.16499e-19
-3.81653e-19
-1.50422e-19
1.55801e-19
0
1.81368e-20
0
0
2.14295e-21
-1.52642e-21
0
6.61869e-17
-5.18116e-17
7.89006e-18
-5.28797e-18
-1.24555e-18
2.98962e-18
2.12397e-18
-1.41428e-18
4.295e-19
1.12541e-19
-8.06164e-20
2.86746e-19
-7.53004e-20
-7.03901e-20
1.56403e-20
-1.15206e-21
5.00407e-22
-1.00099e-22
-1.36643e-16
4.81821e-17
0
0
1.69846e-18
-1.72715e-18
3.17341e-19
-1.44649e-19
1.03625e-18
2.79657e-19
-2.23386e-19
-3.3757e-20
-2.98796e-20
1.98081e-20
0
2.04929e-21
1.05595e-21
3.69911e-22
9.04757e-23
0
3.51291e-17
-2.66828e-17
7.42728e-18
4.2513e-18
-7.31026e-19
-1.26107e-18
-6.65039e-19
-1.20444e-18
2.48497e-19
-2.75626e-20
1.15533e-19
2.79411e-20
-1.31557e-20
1.3964e-20
2.84385e-21
-4.38515e-21
-3.41667e-22
0
-8.34391e-18
-2.92883e-17
7.92349e-18
5.19489e-18
-1.14534e-17
6.838e-18
1.43485e-18
-1.46664e-18
5.09986e-19
-2.35836e-19
0
0
-2.45488e-20
3.63034e-20
-1.12149e-20
4.26749e-21
-4.63818e-21
4.81697e-22
-8.6174e-22
1.45208e-17
1.11009e-17
-7.58915e-18
2.77413e-18
-4.91835e-18
-3.29137e-18
0
0
0
0
0
0
1.50876e-20
-1.9085e-20
2.01845e-20
-2.56433e-21
3.50719e-21
9.52995e-22
-7.83818e-22
3.23062e-17
-3.6566e-17
4.45314e-17
-1.02428e-17
1.52069e-17
-4.59882e-18
7.052e-18
-2.79817e-18
-5.31988e-19
5.442e-19
0
3.49511e-20
-1.47398e-20
1.74818e-20
-1.07367e-20
-5.99446e-21
-5.55936e-21
5.79177e-22
6.1418e-22
5.14629e-17
1.09154e-17
0
-9.29089e-18
-4.12465e-18
7.74416e-18
-2.64869e-19
-1.29321e-18
5.36824e-19
-1.82855e-19
0
-2.76678e-20
0
-8.58459e-21
4.7378e-21
-2.43295e-21
-6.11347e-22
2.13906e-22
0
7.02035e-17
-1.15388e-17
3.40862e-17
-2.60673e-17
-3.1558e-18
7.07955e-18
-4.08981e-18
3.36821e-19
1.76702e-19
-2.1854e-19
1.5865e-19
0
0
1.4443e-20
-1.21489e-21
3.9052e-22
2.12369e-21
-6.20936e-22
0
-2.29246e-20
0
-8.48286e-18
3.52047e-17
-2.18597e-17
-1.2441e-17
6.53798e-18
-2.86929e-18
2.31699e-18
5.92148e-19
-2.61358e-19
7.32801e-20
-4.65314e-20
1.07072e-20
2.30339e-20
-1.12328e-21
-2.69037e-21
1.99382e-21
-4.10037e-22
1.59074e-16
-4.7969e-17
1.23397e-17
-4.29982e-17
7.54944e-18
-7.88203e-18
4.81414e-18
0
0
-6.05943e-20
-1.17842e-19
-2.26583e-20
0
-3.1835e-20
-1.42362e-20
6.31417e-21
-3.00344e-22
9.25395e-22
9.73382e-22
0
-4.26905e-17
5.42252e-17
3.06279e-18
-3.15012e-17
5.18656e-18
-4.95206e-18
2.17711e-18
2.69468e-18
0
0
1.87809e-20
8.54766e-20
0
-2.2964e-20
-6.25202e-21
1.08608e-21
-9.95485e-22
-1.54908e-21
0
-2.24805e-17
1.43339e-17
3.70713e-17
1.5528e-17
-2.57136e-17
9.71763e-18
-3.22712e-18
1.98626e-18
-1.27287e-18
0
0
0
-7.55675e-20
3.64627e-21
-1.17563e-20
0
-2.85288e-22
1.26233e-21
-1.15272e-16
1.04034e-16
7.90538e-17
-9.35655e-17
2.80625e-17
-2.43696e-17
0
3.70989e-18
-4.44901e-18
1.83626e-18
-7.72175e-19
3.90412e-19
1.93591e-19
7.81535e-20
3.75625e-20
0
0
0
0
1.39348e-16
-6.68162e-17
0
0
-1.18248e-17
1.94114e-17
-1.19385e-17
-4.19893e-18
4.1516e-18
1.54001e-18
1.69308e-18
-4.0509e-19
1.11863e-19
3.65824e-20
2.04169e-20
1.25214e-20
1.95111e-20
-7.64466e-22
7.78678e-22
-1.36189e-16
1.14375e-16
4.47659e-17
-2.53748e-17
3.29783e-17
-2.03757e-17
-1.01269e-17
-6.00565e-18
0
-3.26704e-18
4.62052e-19
5.2434e-19
-2.40772e-19
-1.21757e-19
-2.72337e-20
-1.4838e-20
-1.22387e-20
0
0
-4.67952e-17
0
2.70391e-17
1.64934e-19
0
0
1.04462e-17
6.19698e-18
0
1.93393e-18
0
-7.57675e-19
-1.05793e-19
1.82602e-19
0
7.95057e-20
-9.27532e-21
9.46207e-21
0
1.05441e-16
0
4.78114e-17
-8.05093e-17
5.98166e-17
3.19575e-17
-3.20922e-18
0
8.44482e-19
2.92401e-18
0
-9.13599e-19
7.17031e-19
-4.90848e-19
-8.70589e-20
-5.9316e-20
-2.34909e-20
-6.49526e-21
-5.15833e-20
-8.7522e-17
1.23246e-16
-2.82073e-17
-6.01029e-17
-2.75028e-17
-1.79841e-17
-2.23041e-17
-5.33084e-18
1.38045e-18
8.66133e-19
-8.64506e-19
1.47532e-18
-5.13329e-19
7.59333e-19
-1.30916e-19
0
2.62027e-19
-2.1222e-19
4.61574e-20
2.16845e-16
-9.14437e-18
-1.21242e-16
7.43825e-17
-5.60293e-17
3.69477e-17
-3.09711e-18
-6.71319e-18
4.02026e-18
9.27536e-19
-3.6244e-19
-1.37205e-18
2.6152e-19
5.05914e-19
-9.73964e-20
9.85073e-20
-2.71396e-19
-2.48794e-19
-2.40112e-19
1.06452e-16
3.72502e-17
5.52009e-17
-3.83655e-17
-2.18744e-17
4.65609e-18
-8.78527e-18
1.9472e-17
1.18955e-18
4.32867e-18
1.864e-18
-1.41709e-18
0
-6.35018e-19
0
0
1.15388e-18
3.97511e-19
2.65503e-19
9.40259e-17
0
5.25418e-17
3.81179e-17
-2.51645e-17
1.69897e-17
0
-6.73169e-18
-7.07306e-18
-4.51994e-18
-1.8805e-18
1.43311e-18
0
0
0
0
-1.09811e-18
-1.73429e-18
0
-1.8376e-16
0
-8.04029e-18
-7.62831e-18
3.91558e-17
-1.31436e-17
-4.40671e-18
-4.70116e-18
7.3106e-18
0
1.43805e-18
-1.24712e-19
2.20494e-18
0
0
3.76758e-18
-3.03284e-19
2.09643e-18
-1.56666e-18
1.25282e-16
2.86838e-17
-2.83877e-17
-2.00321e-17
-4.80848e-17
2.60165e-17
2.31081e-17
-1.71251e-18
-5.56699e-18
6.55194e-18
1.13823e-18
-7.12756e-18
-4.63628e-18
-5.06566e-18
-5.8477e-18
-4.39485e-18
6.49843e-18
-2.75683e-19
1.60459e-18
-3.61331e-17
1.36663e-17
-6.02819e-17
7.1446e-18
-7.11861e-18
0
-1.18837e-17
-3.15467e-18
-1.07497e-17
3.58669e-18
1.06644e-17
5.86391e-18
-1.88739e-18
-2.23126e-18
5.38272e-18
0
-1.633e-17
-8.06255e-18
-1.541e-19
7.96404e-17
-1.66191e-18
9.35684e-17
-3.68876e-17
2.20526e-19
7.07493e-19
1.90502e-17
-5.18161e-18
1.04254e-17
-9.70841e-18
-9.48163e-18
0
1.5894e-17
1.01042e-17
2.00137e-19
-3.03544e-19
1.00974e-17
8.1825e-18
0
-5.49707e-17
0
-6.25551e-18
3.68858e-17
1.52366e-18
6.75195e-18
-1.84212e-17
1.64235e-17
2.33753e-17
2.30422e-17
2.31923e-17
0
-1.54407e-17
0
1.22095e-18
-1.26806e-18
0
-1.66109e-19
9.2685e-18
4.2628e-17
6.21137e-18
-1.99839e-17
6.65937e-17
-1.95847e-17
0
0
-3.42144e-17
-2.26482e-17
-2.23227e-17
-4.94056e-17
-6.94563e-18
0
0
0
-3.35266e-18
3.54795e-18
2.665e-17
-9.42904e-18
6.92568e-18
0
-5.40529e-17
-4.02776e-17
4.80769e-17
-4.95538e-17
-6.78098e-17
7.27809e-17
2.69853e-17
0
3.27326e-17
4.76012e-17
-1.00211e-17
5.92741e-17
-9.95251e-18
1.03581e-17
4.5094e-17
-2.53348e-17
0
-7.96303e-17
0
-7.08242e-17
6.74876e-17
0
1.03291e-16
4.57188e-17
-1.06647e-16
9.58114e-17
-9.77424e-20
-2.66831e-17
-4.60877e-17
0
8.21189e-17
-1.31096e-16
1.42989e-16
-1.82781e-16
0
0
8.05595e-17
-1.77604e-18
-4.17311e-18
-1.44017e-16
1.50109e-16
-6.96533e-17
6.93693e-17
6.86075e-17
-5.10667e-17
0
0
1.23781e-16
-1.25914e-16
-1.24862e-16
1.26243e-16
-1.25153e-16
1.37408e-16
-2.17695e-16
0
)
;

boundaryField
{
    up
    {
        type            calculated;
        value           nonuniform List<scalar> 
84
(
0
0
0
0
-6.04936e-18
1.01449e-17
-3.87641e-18
1.60476e-18
-1.45677e-18
0
-2.96896e-19
2.71018e-19
-6.06751e-20
3.08789e-20
1.39973e-20
1.1758e-20
0
0
-9.72104e-22
7.49465e-22
3.82686e-22
-3.71585e-22
2.31694e-23
0
1.31825e-22
1.02157e-22
-7.65223e-22
0
1.01127e-21
1.39413e-21
4.56547e-23
-1.33134e-22
9.45585e-23
0
3.96446e-21
1.105e-20
-1.60244e-20
2.75147e-20
0
-7.20625e-21
0
0
-4.39141e-21
8.00545e-21
-7.73508e-21
1.15679e-20
-2.1238e-20
1.34807e-20
-4.34549e-21
-9.27992e-21
0
0
0
-1.52642e-21
-4.82869e-22
9.04757e-23
0
-8.6174e-22
-7.83818e-22
4.82566e-22
0
0
-4.10037e-22
9.73382e-22
-1.54908e-21
1.26233e-21
0
7.78678e-22
0
0
-5.15833e-20
4.61574e-20
-2.40112e-19
2.65503e-19
0
-1.56666e-18
1.60459e-18
-1.541e-19
0
9.2685e-18
-9.42904e-18
0
0
0
)
;
    }
    low
    {
        type            calculated;
        value           nonuniform List<scalar> 
84
(
-1.61689e-16
1.56758e-16
-7.04791e-17
1.19989e-16
2.20493e-17
-5.72986e-18
4.78308e-17
1.13937e-17
0
1.89786e-16
-4.80671e-17
2.78563e-17
-3.87873e-17
-2.8733e-16
4.68324e-17
0
-4.33268e-17
8.97717e-18
-8.88804e-18
-2.89655e-17
1.76787e-17
4.17892e-17
8.55232e-17
-6.63863e-17
0
-1.26861e-17
-6.56262e-18
0
-6.08557e-17
-1.87659e-17
-6.90162e-17
-7.46156e-17
8.07971e-17
2.57269e-17
1.77481e-16
1.41768e-17
0
1.1385e-16
1.2208e-16
6.89166e-17
-3.64953e-17
1.36526e-17
1.36531e-17
0
5.42441e-17
1.36841e-16
9.92884e-17
2.12451e-17
0
-2.45594e-16
1.44716e-16
-6.61614e-20
-5.48583e-20
5.23012e-17
0
-1.36094e-16
0
-8.34391e-18
1.45208e-17
3.1961e-17
5.09775e-17
6.98362e-17
-2.29246e-20
1.58928e-16
0
0
-1.15272e-16
1.39496e-16
-1.36404e-16
-4.67952e-17
1.05765e-16
-8.7522e-17
2.18018e-16
1.07139e-16
9.40259e-17
-1.8376e-16
1.24615e-16
-3.5396e-17
7.96404e-17
-5.46212e-17
4.2628e-17
7.68103e-18
-7.96303e-17
8.07704e-17
)
;
    }
    left
    {
        type            calculated;
        value           nonuniform List<scalar> 
19
(
-1.61267e-16
-7.46364e-17
7.9967e-17
5.7147e-18
-1.42696e-16
0
-6.09732e-17
-6.03058e-17
-9.65924e-18
-3.43736e-17
-5.00086e-20
-3.48993e-17
1.63068e-16
-3.55264e-17
1.63002e-16
1.42749e-16
8.55116e-17
1.27672e-16
0
)
;
    }
    right
    {
        type            calculated;
        value           nonuniform List<scalar> 
19
(
8.05595e-17
-1.68477e-18
-4.17311e-18
-1.44227e-16
1.50453e-16
-6.96533e-17
6.93693e-17
6.86075e-17
-5.04971e-17
0
0
1.25256e-16
-1.27664e-16
-1.24862e-16
1.26243e-16
-1.25153e-16
1.37408e-16
-2.35151e-16
0
)
;
    }
    frontAndBackPlanes
    {
        type            empty;
    }
}


// ************************************************************************* //
