/*--------------------------------*- C++ -*----------------------------------*\
  =========                 |
  \\      /  F ield         | OpenFOAM: The Open Source CFD Toolbox
   \\    /   O peration     | Website:  https://openfoam.org
    \\  /    A nd           | Version:  7
     \\/     M anipulation  |
\*---------------------------------------------------------------------------*/
FoamFile
{
    version     2.0;
    format      ascii;
    class       volScalarField;
    location    "0.33";
    object      gradTy;
}
// * * * * * * * * * * * * * * * * * * * * * * * * * * * * * * * * * * * * * //

dimensions      [0 -1 0 1 0 0 0];

internalField   nonuniform List<scalar> 
1596
(
-0.379744
-0.708248
-0.983639
-1.25665
-1.5295
-1.83709
-2.16761
-2.5617
-3.03756
-3.60873
-4.38731
-5.3763
-6.73356
-8.64935
-11.6008
-16.1795
-24.3292
-39.3406
-92.937
-1.15839
-1.43675
-1.63888
-1.83853
-2.04504
-2.29558
-2.57948
-2.93285
-3.37175
-3.90005
-4.60953
-5.49239
-6.65339
-8.17919
-10.3138
-13.184
-17.4371
-23.6814
-41.4034
-2.07595
-2.1807
-2.26235
-2.36846
-2.49735
-2.67988
-2.90259
-3.19592
-3.57085
-4.02454
-4.63077
-5.37125
-6.31729
-7.50899
-9.09355
-11.0936
-13.86
-17.6511
-25.7977
-3.04067
-2.9072
-2.84166
-2.84124
-2.88471
-2.99134
-3.14368
-3.36548
-3.66284
-4.02855
-4.52137
-5.11744
-5.86591
-6.78309
-7.96132
-9.38329
-11.2542
-13.6831
-17.8561
-3.93394
-3.57462
-3.36362
-3.25543
-3.21184
-3.23965
-3.31815
-3.46425
-3.68024
-3.95659
-4.33976
-4.80468
-5.38584
-6.0878
-6.97081
-8.00483
-9.31747
-10.9505
-13.3405
-4.64725
-4.14252
-3.81626
-3.61241
-3.48749
-3.43899
-3.44521
-3.51695
-3.65396
-3.84602
-4.12947
-4.48086
-4.92469
-5.45998
-6.12724
-6.89491
-7.8458
-8.99094
-10.4984
-5.12021
-4.57899
-4.18807
-3.91304
-3.71989
-3.60289
-3.54247
-3.54491
-3.60877
-3.72427
-3.91959
-4.17432
-4.50597
-4.91119
-5.41768
-5.99664
-6.70316
-7.53447
-8.55794
-5.34987
-4.86417
-4.4653
-4.15223
-3.91057
-3.73778
-3.61988
-3.56079
-3.55922
-3.60681
-3.72524
-3.89781
-4.13707
-4.43891
-4.82245
-5.26293
-5.79746
-6.4175
-7.15008
-5.37951
-5.01834
-4.66121
-4.34348
-4.07465
-3.86047
-3.69516
-3.58275
-3.5234
-3.51087
-3.56207
-3.66403
-3.82581
-4.04337
-4.32992
-4.66461
-5.0724
-5.54269
-6.08514
-5.24636
-5.02066
-4.73884
-4.44927
-4.17879
-3.94276
-3.74456
-3.5906
-3.48358
-3.42002
-3.41379
-3.45548
-3.55201
-3.6999
-3.90855
-4.16065
-4.47321
-4.8353
-5.24858
-5.07439
-4.9469
-4.7422
-4.49689
-4.24255
-4.00062
-3.78236
-3.59753
-3.45205
-3.34557
-3.29039
-3.28041
-3.32137
-3.41061
-3.55505
-3.74037
-3.97816
-4.2579
-4.57744
-4.85733
-4.83135
-4.70273
-4.50805
-4.28019
-4.04355
-3.81513
-3.60808
-3.43167
-3.28885
-3.19143
-3.13639
-3.12903
-3.16771
-3.25779
-3.38748
-3.56468
-3.77964
-4.02845
-4.58611
-4.65104
-4.59751
-4.4586
-4.26618
-4.04588
-3.81815
-3.59904
-3.40087
-3.22967
-3.0977
-3.00476
-2.9564
-2.95213
-2.99664
-3.08032
-3.20878
-3.37319
-3.56879
-4.34107
-4.45909
-4.46573
-4.37869
-4.22367
-4.02507
-3.80461
-3.58042
-3.36724
-3.17385
-3.01345
-2.88834
-2.80477
-2.7635
-2.76908
-2.81375
-2.90176
-3.02517
-3.17897
-4.1114
-4.27128
-4.32491
-4.28256
-4.16313
-3.98805
-3.77867
-3.55415
-3.33101
-3.12033
-2.93643
-2.78388
-2.66984
-2.5964
-2.56831
-2.57951
-2.63346
-2.72313
-2.84357
-3.88522
-4.08407
-4.17754
-4.17378
-4.08703
-3.9356
-3.73951
-3.51817
-3.28919
-3.06545
-2.8624
-2.68661
-2.5463
-2.44486
-2.38759
-2.36995
-2.39511
-2.45689
-2.55056
-3.67878
-3.90373
-4.02952
-4.0586
-4.00091
-3.87189
-3.68978
-3.47372
-3.24189
-3.00844
-2.78988
-2.59444
-2.43143
-2.30554
-2.22276
-2.18003
-2.18058
-2.21908
-2.29105
-3.49657
-3.73869
-3.88974
-3.94619
-3.91371
-3.80485
-3.63614
-3.42607
-3.19302
-2.95209
-2.72059
-2.5082
-2.32521
-2.1775
-2.07186
-2.0067
-1.98565
-2.00426
-2.05837
-3.31554
-3.58756
-3.76425
-3.84554
-3.83558
-3.74481
-3.58833
-3.38392
-3.15007
-2.90263
-2.65954
-2.43172
-2.23031
-2.06223
-1.93506
-1.84867
-1.80747
-1.80818
-1.84706
-3.13173
-3.43694
-3.64151
-3.74745
-3.75894
-3.68534
-3.54073
-3.34235
-3.10869
-2.85617
-2.60327
-2.36192
-2.14395
-1.95705
-1.80946
-1.70237
-1.64146
-1.62522
-1.65096
-2.97477
-3.30095
-3.53073
-3.66016
-3.6918
-3.63413
-3.50052
-3.30784
-3.07459
-2.8177
-2.55608
-2.30249
-2.06929
-1.86463
-1.697
-1.56838
-1.48597
-1.45107
-1.46382
-2.83706
-3.18228
-3.43477
-3.58627
-3.637
-3.59433
-3.47105
-3.28381
-3.05115
-2.79043
-2.52094
-2.25618
-2.00892
-1.7875
-1.60011
-1.4484
-1.3402
-1.28031
-1.2759
-2.7123
-3.07939
-3.35423
-3.52682
-3.59571
-3.56729
-3.45389
-3.27203
-3.04033
-2.77645
-2.49998
-2.22507
-1.96497
-1.72819
-1.52219
-1.34669
-1.20717
-1.10838
-1.06995
-2.60369
-2.99335
-3.28907
-3.4795
-3.56254
-3.54376
-3.43596
-3.25546
-3.02124
-2.75161
-2.46534
-2.1784
-1.90434
-1.65238
-1.42905
-1.23244
-1.06067
-0.906891
-0.767997
-2.51802
-2.92888
-3.24853
-3.46389
-3.57302
-3.5801
-3.49781
-3.34071
-3.1266
-2.87338
-2.59682
-2.31413
-2.03813
-1.78039
-1.54802
-1.34186
-1.15569
-0.976689
-0.780967
-2.46121
-2.88453
-3.21613
-3.44543
-3.57079
-3.59593
-3.53289
-3.39496
-3.19835
-2.95975
-2.69191
-2.4116
-2.13114
-1.86372
-1.61896
-1.40363
-1.21535
-1.04927
-0.892787
-2.46497
-2.89182
-3.22837
-3.46548
-3.60176
-3.64156
-3.59611
-3.47823
-3.30258
-3.0838
-2.83244
-2.56225
-2.28399
-2.01105
-1.75573
-1.52882
-1.33258
-1.16554
-1.01812
-2.53647
-2.95723
-3.28896
-3.52421
-3.66238
-3.70896
-3.67495
-3.57303
-3.41671
-3.2187
-2.98717
-2.7321
-2.46106
-2.18573
-1.91985
-1.67832
-1.46881
-1.29365
-1.14517
-2.67006
-3.07976
-3.39818
-3.62282
-3.75485
-3.80121
-3.77311
-3.68329
-3.54446
-3.36789
-3.15943
-2.92519
-2.66808
-2.39562
-2.12052
-1.86117
-1.6319
-1.4411
-1.28367
-2.86379
-3.25099
-3.54714
-3.75348
-3.87274
-3.91323
-3.88665
-3.80588
-3.68309
-3.52874
-3.34695
-3.14067
-2.90742
-2.64801
-2.3698
-2.09183
-1.83534
-1.61898
-1.44356
-3.11668
-3.46938
-3.73688
-3.91933
-4.02082
-4.05106
-4.02242
-3.94781
-3.83915
-3.70671
-3.55389
-3.38227
-3.1849
-2.9546
-2.68798
-2.39768
-2.10702
-1.84926
-1.64021
-3.39754
-3.72069
-3.95721
-4.11178
-4.19169
-4.20838
-4.17487
-4.10388
-4.0071
-3.89511
-3.77164
-3.63954
-3.49069
-3.31234
-3.08727
-2.81196
-2.49525
-2.17691
-1.90261
-3.72391
-4.01082
-4.2099
-4.33117
-4.38524
-4.38489
-4.34344
-4.27294
-4.18447
-4.08891
-3.99075
-3.89636
-3.80131
-3.69504
-3.55272
-3.35418
-3.07191
-2.71391
-2.29858
-4.11017
-4.34926
-4.50382
-4.58776
-4.61426
-4.59687
-4.54826
-4.47944
-4.40033
-4.32137
-4.24811
-4.19004
-4.14991
-4.12862
-4.11222
-4.08733
-4.01116
-3.85632
-3.59306
-4.54758
-4.72784
-4.82435
-4.85812
-4.84441
-4.79696
-4.72642
-4.64229
-4.55243
-4.46437
-4.38354
-4.31688
-4.26961
-4.24842
-4.25632
-4.30212
-4.3782
-4.47521
-4.57313
-5.04872
-5.14513
-5.16955
-5.14536
-5.08694
-5.00667
-4.91265
-4.81289
-4.71347
-4.61928
-4.53593
-4.46676
-4.41581
-4.38625
-4.38198
-4.40687
-4.46738
-4.56985
-4.72382
-5.60739
-5.59609
-5.54196
-5.46025
-5.36045
-5.25139
-5.13851
-5.02775
-4.92349
-4.82895
-4.7486
-4.68364
-4.63609
-4.60595
-4.59319
-4.59369
-4.60574
-4.62333
-4.64251
-6.13368
-6.01447
-5.88292
-5.74439
-5.60309
-5.46381
-5.32952
-5.20375
-5.08911
-4.98734
-4.90099
-4.83022
-4.77541
-4.73547
-4.70932
-4.69349
-4.68641
-4.68455
-4.68575
-6.57584
-6.37298
-6.17759
-5.99092
-5.81399
-5.6485
-5.49538
-5.35607
-5.23175
-5.12298
-5.03095
-4.95532
-4.89566
-4.85066
-4.81904
-4.79801
-4.78597
-4.78011
-4.77836
-6.93529
-6.66353
-6.41586
-6.18992
-5.98398
-5.79715
-5.6286
-5.47811
-5.3457
-5.23109
-5.13454
-5.05545
-4.99289
-4.94548
-4.91179
-4.8894
-4.87646
-4.8705
-4.86938
-7.19815
-6.87358
-6.58597
-6.33074
-6.10363
-5.90147
-5.72196
-5.56359
-5.42557
-5.30703
-5.20762
-5.1266
-5.06275
-5.01461
-4.98055
-4.9583
-4.94565
-4.94015
-4.93943
-7.36316
-6.99186
-6.6767
-6.40389
-6.16503
-5.95473
-5.76956
-5.60721
-5.4664
-5.34598
-5.24529
-5.16354
-5.09939
-5.05138
-5.01787
-4.99675
-4.98573
-4.98244
-4.98443
-7.3632
-6.99194
-6.67678
-6.40398
-6.16513
-5.95483
-5.76966
-5.6073
-5.4665
-5.34608
-5.24539
-5.16364
-5.09949
-5.05148
-5.01798
-4.99686
-4.98584
-4.98255
-4.98453
-7.19821
-6.87373
-6.58617
-6.33097
-6.10388
-5.90173
-5.72222
-5.56386
-5.42584
-5.3073
-5.20789
-5.12688
-5.06304
-5.0149
-4.98086
-4.95863
-4.946
-4.94054
-4.93986
-6.9354
-6.66377
-6.41617
-6.19028
-5.98437
-5.79756
-5.62901
-5.47853
-5.34613
-5.23153
-5.13499
-5.0559
-4.99335
-4.94596
-4.91228
-4.88991
-4.877
-4.87108
-4.86999
-6.57597
-6.37328
-6.17799
-5.99138
-5.81448
-5.64903
-5.49591
-5.35662
-5.23231
-5.12354
-5.03151
-4.95588
-4.89622
-4.85122
-4.81961
-4.79859
-4.78654
-4.7807
-4.77895
-6.13383
-6.0148
-5.88337
-5.74491
-5.60366
-5.46442
-5.33015
-5.2044
-5.08978
-4.98801
-4.90167
-4.8309
-4.77608
-4.73613
-4.70997
-4.69411
-4.68701
-4.68513
-4.6863
-5.60756
-5.59644
-5.54244
-5.46082
-5.36108
-5.25207
-5.13921
-5.02848
-4.92424
-4.82972
-4.74936
-4.68441
-4.63684
-4.60665
-4.59382
-4.59421
-4.60613
-4.62357
-4.6426
-5.0489
-5.14552
-5.17013
-5.14609
-5.0878
-5.00765
-4.91374
-4.81409
-4.71478
-4.62072
-4.5375
-4.46848
-4.41768
-4.38826
-4.3841
-4.40895
-4.46916
-4.57088
-4.72342
-4.5477
-4.72792
-4.82444
-4.85821
-4.8445
-4.79702
-4.72644
-4.64224
-4.55228
-4.46408
-4.38306
-4.31614
-4.2685
-4.24684
-4.25422
-4.29956
-4.37566
-4.47366
-4.57418
-4.11023
-4.34946
-4.50415
-4.58824
-4.6149
-4.59768
-4.54925
-4.4806
-4.40167
-4.32288
-4.24981
-4.19196
-4.15214
-4.13135
-4.11578
-4.09225
-4.01809
-3.86583
-3.60549
-3.72394
-4.01085
-4.20998
-4.33134
-4.3855
-4.38527
-4.34392
-4.27353
-4.18517
-4.08972
-3.99169
-3.89749
-3.80273
-3.6969
-3.55522
-3.35742
-3.07576
-2.71779
-2.30146
-3.39756
-3.7207
-3.95726
-4.11191
-4.19193
-4.20873
-4.17534
-4.10449
-4.00783
-3.89599
-3.77271
-3.64083
-3.4923
-3.31435
-3.08968
-2.81466
-2.49793
-2.17923
-1.90446
-3.11668
-3.46936
-3.73689
-3.91941
-4.02099
-4.05135
-4.02284
-3.94837
-3.83986
-3.70759
-3.55496
-3.38356
-3.18646
-2.95643
-2.68999
-2.39971
-2.10888
-1.85086
-1.64155
-2.86379
-3.25096
-3.54712
-3.75352
-3.87287
-3.91347
-3.88703
-3.80639
-3.68376
-3.52957
-3.34797
-3.14189
-2.90884
-2.64957
-2.37142
-2.09339
-1.83673
-1.62019
-1.44463
-2.67006
-3.07971
-3.39813
-3.62282
-3.75494
-3.80141
-3.77344
-3.68376
-3.54508
-3.36866
-3.16037
-2.9263
-2.66932
-2.39694
-2.12183
-1.8624
-1.633
-1.44209
-1.28459
-2.53646
-2.95717
-3.2889
-3.52419
-3.66244
-3.70912
-3.67524
-3.57345
-3.41727
-3.21941
-2.98802
-2.73307
-2.46213
-2.18682
-1.92092
-1.67931
-1.46971
-1.2945
-1.14602
-2.46496
-2.89176
-3.2283
-3.46545
-3.6018
-3.64169
-3.59636
-3.4786
-3.30309
-3.08443
-2.83319
-2.56309
-2.28489
-2.01196
-1.7566
-1.52964
-1.33336
-1.16631
-1.01896
-2.4612
-2.88446
-3.21604
-3.44535
-3.57075
-3.59595
-3.533
-3.39516
-3.19864
-2.96014
-2.69238
-2.41211
-2.13167
-1.86423
-1.61944
-1.40408
-1.21579
-1.0498
-0.893584
-2.51809
-2.92893
-3.24858
-3.46397
-3.57314
-3.58027
-3.49806
-3.34104
-3.12701
-2.87388
-2.59739
-2.31477
-2.03881
-1.7811
-1.54873
-1.34257
-1.15637
-0.977333
-0.781518
-2.60376
-2.99342
-3.28913
-3.47953
-3.56254
-3.54372
-3.43588
-3.25534
-3.02108
-2.75142
-2.46511
-2.17816
-1.90408
-1.65211
-1.42877
-1.23213
-1.06034
-0.90652
-0.767563
-2.71236
-3.07944
-3.35427
-3.52686
-3.59575
-3.56732
-3.45391
-3.27204
-3.04033
-2.77645
-2.49997
-2.22506
-1.96496
-1.72819
-1.52218
-1.34669
-1.20718
-1.10841
-1.06999
-2.8371
-3.18231
-3.4348
-3.58629
-3.63701
-3.59433
-3.47104
-3.28379
-3.05113
-2.7904
-2.52091
-2.25615
-2.0089
-1.78749
-1.6001
-1.4484
-1.3402
-1.28033
-1.27593
-2.9748
-3.30098
-3.53075
-3.66018
-3.69181
-3.63413
-3.50051
-3.30782
-3.07457
-2.81768
-2.55606
-2.30248
-2.06928
-1.86462
-1.69699
-1.56838
-1.48598
-1.45108
-1.46384
-3.13176
-3.43696
-3.64152
-3.74746
-3.75894
-3.68533
-3.54072
-3.34234
-3.10867
-2.85616
-2.60325
-2.36191
-2.14394
-1.95704
-1.80946
-1.70237
-1.64146
-1.62523
-1.65097
-3.31556
-3.58758
-3.76427
-3.84555
-3.83558
-3.74481
-3.58832
-3.38391
-3.15006
-2.90262
-2.65952
-2.43171
-2.2303
-2.06222
-1.93506
-1.84868
-1.80748
-1.80818
-1.84706
-3.49658
-3.7387
-3.88975
-3.94619
-3.9137
-3.80485
-3.63614
-3.42606
-3.19301
-2.95208
-2.72058
-2.50819
-2.32521
-2.1775
-2.07186
-2.0067
-1.98565
-2.00427
-2.05837
-3.67879
-3.90374
-4.02952
-4.0586
-4.00091
-3.87188
-3.68977
-3.47372
-3.24189
-3.00844
-2.78988
-2.59444
-2.43143
-2.30554
-2.22276
-2.18003
-2.18058
-2.21907
-2.29105
-3.88522
-4.08407
-4.17754
-4.17378
-4.08702
-3.9356
-3.7395
-3.51816
-3.28919
-3.06544
-2.8624
-2.68661
-2.5463
-2.44486
-2.38759
-2.36995
-2.39511
-2.45688
-2.55056
-4.1114
-4.27128
-4.32491
-4.28256
-4.16313
-3.98805
-3.77866
-3.55415
-3.33101
-3.12033
-2.93643
-2.78388
-2.66984
-2.5964
-2.56831
-2.5795
-2.63346
-2.72312
-2.84357
-4.34107
-4.45909
-4.46573
-4.37869
-4.22367
-4.02507
-3.80461
-3.58042
-3.36724
-3.17385
-3.01345
-2.88834
-2.80477
-2.7635
-2.76907
-2.81374
-2.90176
-3.02517
-3.17896
-4.58611
-4.65104
-4.59751
-4.4586
-4.26618
-4.04588
-3.81815
-3.59904
-3.40087
-3.22967
-3.0977
-3.00476
-2.95639
-2.95212
-2.99663
-3.08031
-3.20877
-3.37319
-3.56879
-4.85732
-4.83134
-4.70273
-4.50805
-4.28019
-4.04355
-3.81513
-3.60808
-3.43167
-3.28885
-3.19142
-3.13638
-3.12903
-3.1677
-3.25779
-3.38747
-3.56467
-3.77963
-4.02845
-5.07438
-4.9469
-4.74221
-4.49689
-4.24256
-4.00063
-3.78236
-3.59753
-3.45205
-3.34557
-3.29039
-3.28041
-3.32137
-3.4106
-3.55504
-3.74036
-3.97815
-4.2579
-4.57744
-5.24635
-5.02067
-4.73885
-4.44928
-4.1788
-3.94277
-3.74456
-3.5906
-3.48358
-3.42002
-3.41379
-3.45548
-3.55201
-3.69989
-3.90854
-4.16065
-4.4732
-4.83529
-5.24858
-5.37952
-5.01835
-4.66122
-4.34348
-4.07466
-3.86047
-3.69516
-3.58276
-3.5234
-3.51087
-3.56206
-3.66403
-3.82581
-4.04336
-4.32992
-4.6646
-5.0724
-5.54269
-6.08514
-5.34989
-4.86418
-4.46531
-4.15224
-3.91058
-3.73779
-3.61989
-3.5608
-3.55922
-3.60681
-3.72523
-3.89781
-4.13706
-4.4389
-4.82245
-5.26292
-5.79745
-6.4175
-7.15009
-5.12023
-4.57901
-4.18808
-3.91305
-3.71989
-3.60289
-3.54247
-3.54492
-3.60877
-3.72427
-3.91959
-4.17432
-4.50596
-4.91118
-5.41768
-5.99664
-6.70316
-7.53447
-8.55794
-4.64727
-4.14253
-3.81627
-3.61242
-3.48749
-3.439
-3.44521
-3.51695
-3.65396
-3.84601
-4.12947
-4.48086
-4.92469
-5.45998
-6.12724
-6.89491
-7.8458
-8.99095
-10.4984
-3.93396
-3.57463
-3.36363
-3.25544
-3.21185
-3.23965
-3.31815
-3.46425
-3.68024
-3.95659
-4.33976
-4.80467
-5.38584
-6.08779
-6.97081
-8.00483
-9.31747
-10.9505
-13.3405
-3.04069
-2.90721
-2.84167
-2.84125
-2.88471
-2.99134
-3.14368
-3.36549
-3.66285
-4.02855
-4.52137
-5.11743
-5.86591
-6.78309
-7.96132
-9.38329
-11.2542
-13.6831
-17.8562
-2.07596
-2.18071
-2.26235
-2.36847
-2.49736
-2.67989
-2.9026
-3.19592
-3.57086
-4.02454
-4.63077
-5.37125
-6.31729
-7.50898
-9.09354
-11.0936
-13.86
-17.6511
-25.7977
-1.1584
-1.43675
-1.63888
-1.83854
-2.04505
-2.29558
-2.57949
-2.93286
-3.37175
-3.90005
-4.60953
-5.49238
-6.65339
-8.17919
-10.3138
-13.184
-17.4371
-23.6814
-41.4034
-0.379746
-0.708249
-0.98364
-1.25665
-1.5295
-1.8371
-2.16761
-2.5617
-3.03756
-3.60872
-4.38731
-5.37629
-6.73356
-8.64934
-11.6008
-16.1795
-24.3292
-39.3406
-92.937
)
;

boundaryField
{
    up
    {
        type            calculated;
        value           nonuniform List<scalar> 
84
(
-84.2176
-45.6115
-28.0052
-19.1372
-14.155
-11.0544
-8.95785
-7.44893
-6.31374
-5.42762
-4.71912
-4.14131
-3.65978
-3.25254
-2.90316
-2.59892
-2.33031
-2.0902
-1.87278
-1.67185
-1.48067
-1.28761
-1.0627
-0.6919
-0.672255
-0.846501
-0.975437
-1.10141
-1.23636
-1.38996
-1.57398
-1.80265
-2.14459
-3.59049
-4.7294
-4.81842
-4.64521
-4.68401
-4.77665
-4.86889
-4.93969
-4.98648
-4.98659
-4.94013
-4.86952
-4.77725
-4.68456
-4.64525
-4.81687
-4.7306
-3.60515
-2.14725
-1.80428
-1.57524
-1.39101
-1.23728
-1.10227
-0.976301
-0.847625
-0.673007
-0.69145
-1.06275
-1.28763
-1.48068
-1.67186
-1.87278
-2.09021
-2.33031
-2.59892
-2.90316
-3.25254
-3.65978
-4.14131
-4.71912
-5.42762
-6.31375
-7.44894
-8.95786
-11.0544
-14.155
-19.1372
-28.0052
-45.6115
-84.2176
)
;
    }
    low
    {
        type            calculated;
        value           nonuniform List<scalar> 
84
(
-0.40698
-1.20843
-2.18552
-3.22673
-4.19315
-4.95643
-5.44222
-5.65131
-5.62089
-5.40906
-5.19464
-4.93602
-4.60863
-4.33209
-4.08409
-3.83381
-3.60682
-3.41882
-3.22622
-3.01569
-2.83869
-2.68601
-2.54278
-2.41672
-2.29936
-2.229
-2.23516
-2.32842
-2.49003
-2.71976
-3.00451
-3.30645
-3.65857
-4.07627
-4.54057
-5.07898
-5.69122
-6.25399
-6.72027
-7.10075
-7.38065
-7.56721
-7.56724
-7.38068
-7.10081
-6.72034
-6.25407
-5.69131
-5.07908
-4.54055
-4.07634
-3.65855
-3.30645
-3.00451
-2.71976
-2.49003
-2.32843
-2.23519
-2.22903
-2.29941
-2.41682
-2.54281
-2.68606
-2.83873
-3.01572
-3.22625
-3.41884
-3.60684
-3.83382
-4.08409
-4.33209
-4.60862
-4.93601
-5.19462
-5.40905
-5.62089
-5.65132
-5.44224
-4.95645
-4.19317
-3.22676
-2.18554
-1.20844
-0.406982
)
;
    }
    left
    {
        type            calculated;
        value           nonuniform List<scalar> 
19
(
-0.372381
-0.694633
-0.974926
-1.25623
-1.53952
-1.85882
-2.20329
-2.6158
-3.11546
-3.72244
-4.55445
-5.62015
-7.09897
-9.21877
-12.5153
-17.7132
-27.0762
-44.5297
-87.354
)
;
    }
    right
    {
        type            calculated;
        value           nonuniform List<scalar> 
19
(
-0.372383
-0.694634
-0.974926
-1.25623
-1.53952
-1.85882
-2.20329
-2.61579
-3.11546
-3.72244
-4.55445
-5.62014
-7.09896
-9.21876
-12.5153
-17.7132
-27.0762
-44.5297
-87.354
)
;
    }
    frontAndBackPlanes
    {
        type            empty;
    }
}


// ************************************************************************* //
