/*--------------------------------*- C++ -*----------------------------------*\
  =========                 |
  \\      /  F ield         | OpenFOAM: The Open Source CFD Toolbox
   \\    /   O peration     | Website:  https://openfoam.org
    \\  /    A nd           | Version:  7
     \\/     M anipulation  |
\*---------------------------------------------------------------------------*/
FoamFile
{
    version     2.0;
    format      ascii;
    class       volScalarField;
    location    "0.475";
    object      gradTz;
}
// * * * * * * * * * * * * * * * * * * * * * * * * * * * * * * * * * * * * * //

dimensions      [0 -1 0 1 0 0 0];

internalField   nonuniform List<scalar> 
1596
(
-1.6138e-16
-7.8874e-17
7.96699e-17
1.30911e-18
-1.52991e-16
0
-7.21604e-17
-7.11386e-17
-4.11022e-18
-3.71397e-17
-3.82836e-19
-3.68317e-17
1.61318e-16
-3.63078e-17
1.69887e-16
1.46413e-16
8.70363e-17
1.0979e-16
0
1.61729e-16
0
2.30811e-16
-1.28695e-18
-7.18416e-17
7.13494e-17
1.45385e-16
3.86397e-18
6.91746e-17
-3.319e-17
6.61223e-17
-1.11464e-18
-9.15268e-17
-5.70018e-17
-1.37406e-16
-1.33859e-16
-1.21658e-16
6.91601e-17
0
-7.99727e-17
0
-1.5199e-16
2.04623e-18
1.41892e-16
-3.85751e-17
2.33513e-18
-1.00832e-18
-1.07761e-18
-1.18293e-18
2.60586e-17
0
4.74956e-17
1.35133e-16
-1.32804e-17
1.05868e-17
2.49509e-17
3.86435e-17
0
1.2478e-16
-3.84759e-17
3.83354e-17
0
-3.71529e-17
-3.80032e-17
6.67924e-17
-5.98281e-17
0
0
-1.96074e-17
1.35842e-17
0
-4.005e-17
-5.15489e-17
3.5371e-17
-3.56743e-17
-1.83951e-18
0
2.16999e-17
5.95038e-17
-5.50945e-17
0
-1.66636e-17
-5.0344e-17
0
7.61926e-17
-7.67525e-18
-6.93548e-18
-5.11601e-18
4.01539e-17
4.86656e-17
4.88707e-18
8.0584e-19
-3.82536e-17
1.93574e-18
1.76573e-17
-7.51566e-18
-5.63511e-18
-8.18192e-17
7.9382e-17
-7.12604e-17
-1.17166e-19
-6.52515e-17
1.84896e-18
-1.8551e-18
-5.28625e-17
0
-4.09166e-18
-4.73477e-17
-4.40135e-17
3.64531e-17
3.62509e-17
-4.98489e-19
-2.17055e-17
-1.79096e-17
1.363e-17
4.70936e-17
-8.39127e-17
9.67315e-17
5.50115e-17
0
4.9872e-17
3.01284e-17
-1.46033e-17
6.72462e-17
-1.27921e-17
-5.31481e-17
5.31921e-19
-3.20919e-17
-3.6639e-17
-2.92122e-17
2.4443e-17
2.18966e-17
-2.90132e-19
-5.72295e-18
3.46904e-18
1.32704e-16
-1.61212e-16
0
0
-6.39907e-17
0
0
0
4.66914e-17
0
0
2.92669e-17
1.21883e-18
6.92226e-18
-2.12795e-17
0
1.13299e-17
4.31467e-18
0
-8.77819e-17
1.70063e-16
0
0
6.59015e-17
0
-2.6597e-17
2.65701e-17
-4.7525e-17
2.01629e-17
-2.03104e-17
0
2.93527e-17
2.6987e-17
0
-1.56149e-17
-1.15819e-17
-3.75293e-18
2.02865e-16
-9.62626e-17
0
-7.47061e-17
7.387e-17
0
5.92498e-17
0
0
0
1.92914e-17
-1.93839e-17
0
-2.25722e-17
-6.59134e-18
0
1.05046e-18
9.09012e-18
0
-5.14965e-17
0
0
7.51104e-17
-1.42387e-16
5.46981e-18
2.31629e-18
-2.55537e-17
2.34199e-18
4.32148e-19
-2.07195e-17
-3.44026e-17
0
2.59827e-17
-4.99012e-18
5.06502e-18
1.25075e-17
-7.07497e-18
-3.33462e-18
4.54744e-17
-3.30706e-18
4.35505e-17
1.55161e-16
-6.04574e-18
-6.7894e-17
0
0
0
4.2897e-17
1.78528e-17
6.49055e-17
-1.56929e-17
-2.55179e-17
-1.59087e-17
-8.29355e-18
3.66074e-18
-7.8746e-18
3.18879e-18
-4.86644e-17
4.76012e-17
-8.94407e-17
-1.53381e-16
1.44724e-16
6.11309e-17
-1.15068e-16
1.03252e-16
-9.23372e-17
2.3964e-17
1.92974e-17
-1.74251e-17
1.24345e-17
-1.07055e-17
3.07984e-17
0
-2.27381e-18
1.65371e-17
-2.44066e-18
-3.06843e-16
1.43381e-16
1.38122e-19
-3.52693e-17
3.16412e-18
5.969e-17
-1.14742e-16
-4.99264e-17
4.43671e-17
-3.91215e-17
-3.44752e-17
0
-4.03182e-17
-1.20837e-17
-2.21208e-17
-1.31418e-17
1.03948e-18
-1.09145e-17
1.08738e-19
5.01496e-17
-4.59099e-17
1.21359e-19
-3.76709e-17
-9.89587e-17
9.45687e-17
8.03664e-20
4.86532e-17
-4.31972e-17
7.56732e-17
1.79536e-17
1.54793e-17
4.9563e-17
0
4.19954e-17
1.92255e-17
0
6.1485e-18
9.10322e-20
0
4.45379e-17
3.74485e-17
-7.64447e-17
9.60819e-17
-1.48258e-16
1.08382e-16
4.43332e-17
-4.8174e-18
-7.49572e-17
1.47887e-17
-1.47158e-17
-4.6784e-17
1.93465e-17
-9.20906e-18
-1.99048e-17
8.92567e-18
-5.46839e-18
1.9707e-18
-4.6719e-17
1.65483e-16
-1.22628e-16
7.07649e-17
0
0
-2.27637e-17
4.74693e-17
-3.71955e-17
7.10191e-17
0
0
3.23505e-17
-2.87248e-17
-2.13941e-17
6.67317e-18
-6.91218e-18
3.55115e-18
0
2.68223e-18
4.36844e-17
-3.74008e-17
-3.38955e-17
-5.83648e-17
-2.19386e-17
2.69618e-17
0
-3.54289e-17
-3.05453e-17
2.81724e-17
-2.40897e-17
2.03515e-17
0
8.04747e-18
1.68124e-17
0
0
0
-2.54928e-18
7.42137e-17
3.08406e-17
-1.01358e-16
2.96076e-17
2.64828e-17
0
0
3.38776e-17
-1.7528e-17
-2.72489e-17
2.32991e-17
-1.96814e-17
0
-5.73518e-18
5.3085e-18
0
-4.28345e-18
-1.47329e-18
-3.8527e-17
1.13086e-16
-1.40564e-16
-6.01073e-17
3.09272e-17
-2.52838e-17
2.23562e-17
0
-1.70611e-17
1.49094e-17
0
0
8.22029e-18
-8.22975e-18
2.63807e-18
-3.15965e-18
6.40048e-18
5.74632e-19
1.08363e-18
1.92752e-17
-1.78643e-17
9.56702e-17
-6.21415e-17
-2.68983e-17
2.52679e-18
4.49956e-17
1.8604e-17
1.63249e-17
0
1.09838e-17
-1.02832e-17
8.6039e-18
-7.59863e-18
1.05748e-17
-1.84497e-17
-4.97507e-18
4.37099e-18
1.20186e-18
5.25026e-17
-5.27498e-17
0
5.42755e-17
-2.80535e-17
-2.29254e-17
1.78177e-17
-5.56158e-17
0
-8.5238e-19
-1.2126e-17
-9.50007e-18
1.48185e-17
-9.55372e-19
-1.02204e-17
7.78378e-18
0
2.99135e-18
-1.16699e-18
8.73569e-17
-1.59973e-17
7.14405e-17
-5.61817e-17
3.4121e-17
6.08603e-18
-4.08741e-17
-1.56849e-17
2.90596e-17
-9.06322e-19
-1.96909e-17
1.72939e-17
-7.82095e-18
-1.11646e-17
0
0
0
-3.02146e-18
1.14055e-19
-7.91621e-17
7.75067e-17
3.79337e-20
1.28634e-17
1.16031e-17
-2.99718e-17
3.662e-17
-3.1912e-17
2.8505e-17
-1.05872e-17
2.04467e-17
7.84195e-18
-3.44697e-18
2.06379e-19
-1.45188e-18
-2.57035e-18
0
0
0
0
0
4.06457e-17
-1.79093e-17
-6.41879e-17
0
0
-9.16525e-18
-1.59143e-17
1.39554e-17
0
-9.89014e-18
8.14055e-18
-2.88117e-17
3.36139e-17
-1.17036e-17
1.25271e-17
1.41147e-18
0
-1.53476e-17
1.55365e-17
0
-1.35243e-17
1.37803e-17
2.42741e-17
0
9.25277e-18
1.3814e-17
-5.99087e-17
0
-1.04975e-17
8.66223e-18
6.73692e-18
-5.25028e-18
7.8887e-18
0
-3.07365e-18
0
-7.88622e-18
-8.04222e-18
4.77211e-19
1.38959e-17
-3.88188e-17
0
-1.08979e-17
0
3.4548e-17
1.49199e-17
0
4.14935e-17
-4.53647e-17
4.09226e-18
-1.17649e-17
2.531e-18
1.49645e-17
5.99988e-18
-4.74637e-18
0
1.64916e-17
-1.51072e-17
1.88674e-17
2.38789e-17
0
2.23578e-17
-2.15008e-17
-1.83472e-17
2.95394e-17
-4.45435e-17
-2.35002e-17
0
0
6.10864e-18
0
0
1.88676e-18
0
-7.22328e-17
5.52619e-17
0
6.27188e-19
-1.41018e-17
-8.07247e-19
1.32436e-17
1.04138e-17
-1.2225e-17
-3.49042e-17
5.8856e-17
-1.5674e-17
0
-8.59301e-18
0
0
0
-7.23636e-18
5.76432e-18
-2.02135e-17
1.9367e-17
5.36139e-17
-5.30039e-17
1.67441e-17
7.60931e-19
-1.34683e-17
1.21405e-17
2.16186e-17
1.74752e-17
-3.46642e-17
0
2.04764e-17
3.98098e-18
-9.82663e-18
-2.3141e-17
1.92789e-17
-3.43472e-18
6.33809e-18
-6.75928e-17
1.01584e-16
-1.01282e-16
1.84828e-17
1.63841e-17
-1.58747e-17
1.36329e-17
-1.14337e-17
0
-1.04482e-17
1.79664e-17
7.82432e-18
1.3089e-17
1.79614e-17
-2.72742e-17
-1.34551e-19
0
-2.4781e-18
8.18009e-19
-7.30932e-17
-2.24968e-17
-4.09198e-17
2.14409e-17
-3.71254e-17
3.34822e-17
-2.0305e-17
1.80582e-17
-9.47462e-19
-9.54332e-19
-1.82842e-17
1.04887e-17
-6.84374e-18
2.04056e-17
-2.19056e-17
3.1936e-18
2.45182e-18
0
-1.38904e-18
7.90298e-17
-2.41942e-17
0
0
-3.82725e-17
7.52482e-17
-1.80015e-17
-3.67377e-18
3.10389e-17
-7.80914e-19
0
0
-8.16226e-18
0
-1.86358e-17
4.62528e-17
-3.2459e-17
0
5.30528e-19
2.73191e-17
5.1994e-17
0
-2.30588e-17
-1.97255e-17
-1.82234e-17
-1.85977e-17
8.07111e-18
-2.29415e-17
-1.30771e-17
0
0
1.00659e-17
0
0
-2.45161e-17
4.02322e-17
0
0
1.87404e-16
-2.06707e-17
-1.16555e-16
-6.61914e-17
8.95567e-17
2.95884e-17
1.80328e-17
0
-6.96563e-18
7.05584e-18
1.72192e-17
-5.63586e-18
-8.83295e-18
1.37888e-17
-1.46671e-17
-4.76769e-18
0
0
0
1.50073e-17
-1.21221e-16
1.19079e-16
-1.1696e-17
-9.31824e-17
1.47433e-16
-7.48585e-17
0
0
4.31813e-17
-3.57938e-17
0
-1.13751e-17
1.9644e-17
-2.33335e-18
5.84923e-18
1.81559e-18
1.67631e-20
4.04061e-19
0
0
0
1.03224e-16
-6.90805e-17
7.55113e-17
-1.18394e-16
3.41521e-17
0
-1.28655e-17
2.10407e-17
-2.15048e-17
-4.36926e-18
-1.76137e-19
-3.07308e-18
-4.87307e-19
-2.43896e-18
-6.74586e-19
-3.73101e-19
1.26296e-16
-2.26878e-16
1.08339e-16
0
3.06407e-17
-4.16787e-17
4.31472e-17
-3.42466e-17
0
-1.74358e-17
2.44639e-17
0
0
-1.36299e-19
0
-3.04866e-18
2.09619e-18
4.13853e-19
5.90848e-19
1.21005e-16
0
-5.01418e-17
5.60399e-17
-3.62711e-17
7.9712e-17
-3.79809e-17
-3.05944e-17
3.09139e-17
-3.19108e-18
0
0
2.10625e-18
-3.64668e-18
-2.55029e-18
4.85642e-18
-1.05108e-18
5.47668e-19
0
6.87491e-17
5.50034e-17
-1.20703e-18
-5.32848e-17
-5.50413e-18
-4.04004e-17
3.91819e-18
3.44349e-17
-1.80926e-18
3.25101e-18
0
0
-2.15772e-18
0
2.5523e-18
-2.73036e-18
0
3.50278e-19
-9.76048e-20
-3.65002e-17
-2.75562e-17
2.57897e-17
-3.0169e-18
-1.36823e-18
3.75264e-18
0
-1.01414e-18
1.54679e-17
-1.3026e-17
0
4.53344e-18
-8.66585e-19
-4.02685e-18
-3.69949e-19
-2.89299e-19
0
-2.73366e-19
0
1.50547e-17
-2.87868e-17
-5.4579e-19
1.25999e-17
1.18234e-17
-1.17626e-17
-8.54361e-18
9.67903e-18
-3.39587e-18
2.65071e-18
-2.63004e-18
2.71116e-18
0
7.04002e-21
-2.7155e-19
9.79697e-19
-3.35925e-21
0
0
1.50552e-17
-1.49988e-17
-1.25342e-17
1.10928e-17
2.0899e-17
-2.10224e-17
-4.27193e-18
4.28188e-18
-3.42443e-18
3.46044e-18
-2.63011e-18
4.97949e-18
-1.39647e-18
-1.01553e-18
-3.14124e-19
1.03616e-19
2.48989e-19
6.59673e-20
-4.94846e-20
0
-3.59628e-18
2.18708e-17
-2.36792e-17
2.08982e-17
-1.85033e-17
0
1.53183e-17
-1.36856e-17
0
5.2579e-18
-6.66825e-18
-3.84246e-18
4.02715e-18
7.50324e-19
0
0
-2.73385e-19
9.94501e-20
5.99755e-17
-1.11118e-16
1.14859e-16
-1.02233e-16
4.04306e-17
-3.53887e-17
3.35361e-17
4.09334e-18
-1.54411e-17
1.38104e-17
0
-1.03375e-17
9.39805e-18
-1.81897e-18
-7.34942e-19
1.17745e-18
8.68351e-19
2.65405e-19
-9.60914e-20
1.36546e-16
0
-5.66692e-17
4.40024e-17
5.44073e-18
-4.28325e-17
7.65923e-17
-6.89907e-17
2.72483e-17
-1.19832e-17
1.22658e-17
2.45395e-18
4.32513e-18
1.7717e-18
-1.50754e-18
-1.84958e-19
-1.88876e-18
0
1.9815e-19
1.10961e-16
-1.24899e-16
0
1.1881e-17
5.26121e-17
-5.17073e-17
9.07753e-18
8.18893e-18
3.59011e-18
6.51726e-18
0
0
-7.53543e-18
1.43474e-17
-5.27897e-18
-1.91477e-18
2.09636e-18
1.69422e-19
-3.78988e-19
8.27778e-18
1.09712e-16
-1.30254e-17
-9.12712e-17
8.00608e-17
9.82466e-18
-8.88401e-18
-7.99815e-18
2.72269e-17
-3.37797e-17
2.10445e-17
-2.15085e-17
3.52944e-18
-4.31032e-18
8.22485e-18
-5.45468e-18
0
0
4.14468e-19
0
2.77834e-17
-8.59189e-17
9.80301e-17
-8.2538e-17
8.23414e-17
0
3.04381e-17
-3.05776e-17
-2.39735e-17
3.58155e-17
0
1.5572e-17
-1.96545e-17
-2.92731e-18
0
-3.44748e-19
-7.29111e-19
1.1557e-20
-2.5968e-16
1.2512e-16
0
-8.95366e-17
8.95276e-17
5.74492e-17
-3.78275e-17
1.6345e-17
0
-7.73079e-19
6.21758e-18
-5.62713e-18
-8.81944e-18
1.3765e-17
-1.46367e-17
0
3.43566e-18
-8.55168e-19
-4.49939e-19
1.6089e-16
-1.59313e-16
0
2.31608e-17
2.16375e-17
-2.01035e-17
0
-1.71297e-17
-1.55078e-17
0
-3.3662e-19
0
1.00682e-17
0
0
5.09565e-18
1.9419e-17
-2.49501e-17
0
3.07858e-20
2.42055e-17
-2.29343e-17
1.98236e-17
-1.00217e-16
3.89845e-17
0
3.67595e-18
1.04838e-17
0
-1.14201e-17
3.54151e-17
-3.72056e-17
6.73391e-18
0
-5.01913e-19
0
0
0
2.70714e-20
0
2.1197e-17
0
-3.54722e-17
3.60361e-17
0
1.42748e-17
-1.1988e-17
4.46896e-17
-2.18089e-17
8.51893e-18
-1.4287e-17
1.43191e-17
-2.19256e-17
-3.58692e-18
0
-2.77203e-18
0
6.31939e-17
-1.06699e-16
0
-1.85654e-17
1.72683e-17
0
0
-2.63357e-17
0
-1.04541e-17
-1.79769e-17
-7.82969e-18
1.30989e-17
0
8.08748e-18
0
0
6.18893e-18
-7.02111e-18
0
9.4325e-17
-7.57343e-17
1.71873e-17
-1.59905e-17
-7.00818e-18
2.05948e-17
2.43221e-17
-3.16908e-17
1.03026e-17
2.20399e-19
-1.11958e-17
4.66658e-17
-1.46195e-17
-3.70442e-17
1.32178e-17
-3.78497e-18
2.23173e-18
-7.5191e-19
-1.4802e-16
5.5247e-17
0
0
7.04564e-18
-7.16462e-18
5.82859e-18
4.45177e-18
2.91356e-17
1.60014e-17
-1.6341e-17
-1.92527e-19
-1.04972e-17
8.59831e-18
0
4.959e-18
3.4692e-18
2.04391e-18
6.79621e-19
0
4.89711e-17
-4.69686e-17
1.53343e-17
1.70065e-17
-3.33415e-18
-1.15633e-17
-1.04201e-17
-3.68911e-17
1.60107e-17
-1.1218e-17
1.42942e-17
9.81619e-18
-1.36149e-17
1.44514e-17
1.03531e-17
-1.30543e-17
-1.88786e-18
0
-8.29585e-18
-3.86254e-17
1.43166e-17
1.38991e-17
-5.05911e-17
3.70488e-17
2.04036e-17
-2.08556e-17
1.741e-17
-1.51949e-17
0
0
-1.59958e-17
2.9428e-17
-1.34266e-17
1.38709e-17
-1.50656e-17
2.66502e-18
-4.74947e-18
1.57632e-17
1.51397e-17
-1.43144e-17
1.2299e-17
-1.36594e-17
-2.30109e-17
0
0
0
0
0
0
8.39822e-18
-2.37939e-17
2.51646e-17
-8.99744e-18
1.10595e-17
5.48106e-18
-4.67996e-18
3.23062e-17
-5.84514e-17
7.33662e-17
-3.77312e-17
5.176e-17
-4.24744e-17
8.14317e-17
-4.79227e-17
-2.9359e-17
3.00329e-17
0
9.88331e-18
-8.20462e-18
2.22334e-17
-6.64258e-18
-9.66428e-18
-2.23414e-17
1.60501e-18
4.03209e-18
5.00788e-17
1.51328e-17
0
-2.56665e-17
-2.20041e-17
5.18502e-17
6.84851e-18
-2.388e-17
1.47633e-17
-1.16959e-17
0
-7.82376e-18
0
-7.32466e-18
6.15927e-18
-5.82434e-18
-1.96446e-18
1.44393e-18
0
7.02197e-17
-1.5997e-17
7.14163e-17
-5.61654e-17
-1.21771e-17
5.20944e-17
-3.11755e-17
1.20119e-18
1.00186e-18
-1.16491e-17
1.13596e-17
0
0
8.6909e-18
-3.4978e-18
2.40477e-18
7.08278e-18
-2.45597e-18
0
1.09714e-20
0
-1.5554e-17
9.68228e-17
-6.64405e-17
-7.77268e-17
4.3025e-17
-5.08226e-17
4.82091e-17
2.62505e-17
-2.15342e-17
9.22214e-18
-8.50999e-18
1.26989e-18
1.58219e-17
8.7477e-19
-6.57954e-18
6.49568e-18
-1.30287e-18
1.73164e-16
-5.57472e-17
3.02588e-17
-9.1996e-17
2.6898e-17
-4.56155e-17
2.38239e-17
0
0
-8.78599e-19
-1.1498e-18
-3.34493e-19
0
-1.32881e-17
-1.05747e-17
8.04289e-18
-5.94134e-19
8.95279e-19
2.50037e-18
0
-5.66063e-17
1.00941e-16
2.60761e-17
-8.74205e-17
2.52836e-17
-4.22819e-17
4.82708e-18
3.66388e-17
0
0
7.15086e-19
9.89108e-18
0
-9.61984e-18
-4.61191e-18
6.74968e-19
-2.55664e-18
-2.76409e-18
0
-3.69768e-17
5.41177e-18
6.84333e-17
5.64607e-17
-1.05953e-16
4.95539e-17
-3.89169e-17
2.03506e-17
-3.15031e-17
0
0
0
-1.63319e-17
5.19629e-18
-5.76325e-18
0
-3.63884e-19
1.84353e-18
-1.31432e-16
1.25866e-16
1.44019e-16
-1.75595e-16
8.89684e-17
-8.49746e-17
0
4.05393e-17
-5.67607e-17
3.4592e-17
-2.86849e-17
2.46494e-17
2.09266e-17
1.68908e-17
1.37142e-17
0
0
0
0
1.4274e-16
-8.56718e-17
0
0
-3.17782e-17
8.27941e-17
-5.343e-17
-4.24198e-17
4.19417e-17
3.42625e-17
6.00443e-17
-2.55761e-17
1.06408e-17
8.55575e-18
6.63881e-18
5.19049e-18
8.5901e-18
-4.26744e-19
4.34677e-19
-1.45927e-16
1.36729e-16
7.78785e-17
-3.97923e-17
9.61468e-17
-6.21678e-17
-5.28289e-17
-4.69438e-17
0
-7.04308e-17
2.42018e-18
2.76556e-17
-2.31121e-17
-1.93465e-17
-7.12241e-18
-7.8334e-18
-6.207e-18
0
0
-5.01921e-17
0
4.15504e-17
-1.13405e-19
0
0
5.44947e-17
4.84394e-17
0
3.76156e-17
0
-4.19986e-17
-1.16856e-17
2.11612e-17
0
1.3673e-17
-1.94967e-18
1.98892e-18
0
1.05441e-16
0
8.14203e-17
-1.5406e-16
1.41759e-16
1.22208e-16
-2.72566e-18
0
2.59455e-18
4.16931e-17
0
-4.47875e-17
5.20297e-17
-4.63684e-17
-1.01623e-17
-1.10817e-17
-3.14151e-18
-5.40274e-19
-1.78938e-18
-1.00796e-16
1.45942e-16
-4.321e-17
-1.17441e-16
-7.08527e-17
-6.39788e-17
-1.14993e-16
-4.9059e-17
2.67742e-18
1.93337e-17
-1.92974e-17
6.38765e-17
-2.80727e-17
5.78569e-17
-1.08384e-17
0
1.16523e-17
-6.68432e-18
1.83818e-18
2.16845e-16
-3.45954e-18
-1.77096e-16
1.55161e-16
-1.4339e-16
1.30097e-16
-2.82897e-18
-5.31789e-17
4.79305e-17
2.00959e-17
-2.23791e-18
-5.09503e-17
1.53092e-17
1.44815e-17
-4.66734e-18
4.72057e-18
-1.20689e-17
-7.48034e-19
-2.52803e-18
1.06452e-16
4.70918e-17
8.57284e-17
-7.81313e-17
-6.82808e-17
2.59325e-18
-5.64124e-17
1.37609e-16
3.19488e-18
6.7089e-17
3.98317e-17
-3.55389e-17
0
-2.59828e-17
0
0
1.51938e-17
6.86628e-18
2.96975e-18
1.01323e-16
0
8.46386e-17
7.7627e-17
-7.12213e-17
6.49477e-17
0
-5.40397e-17
-7.58094e-17
-6.80584e-17
-4.01842e-17
3.59408e-17
0
0
0
0
-1.42255e-17
-9.84428e-18
0
-1.98557e-16
0
-2.99101e-18
-2.6601e-18
1.0756e-16
-6.34361e-17
-2.95983e-17
-2.96428e-17
7.55608e-17
0
2.01629e-17
-2.21243e-18
1.71719e-17
0
0
2.21608e-17
-1.63515e-18
1.181e-17
-4.21269e-18
1.40412e-16
4.21549e-17
-4.17197e-17
-3.83269e-17
-1.38289e-16
9.74248e-17
1.20273e-16
-1.96295e-18
-5.07961e-17
4.9015e-17
1.0464e-17
-5.21925e-17
-4.36731e-17
-2.50245e-17
-2.62794e-17
-2.5518e-17
2.00689e-17
-9.55999e-19
4.31468e-18
-4.36217e-17
2.0348e-17
-9.89005e-17
1.77163e-17
-1.76518e-17
0
-5.92241e-17
-2.62792e-18
-5.45066e-17
3.042e-18
5.3148e-17
4.03545e-17
-9.63995e-18
5.29566e-18
2.50639e-17
0
-4.10858e-17
-1.46591e-17
-3.06786e-19
8.72172e-17
-2.46783e-18
1.55192e-16
-7.52002e-17
1.17166e-19
2.06828e-18
6.26062e-17
-3.3665e-18
5.28624e-17
-4.95136e-17
-4.63898e-17
0
4.40135e-17
3.59035e-17
4.81408e-19
-6.97059e-19
2.19145e-17
1.49022e-17
0
-6.2265e-17
0
-1.65046e-17
7.13467e-17
7.97624e-19
1.66859e-17
-6.05393e-17
5.75757e-17
5.9185e-17
5.65314e-17
5.4045e-17
0
-4.27583e-17
0
2.17674e-18
-2.26074e-18
0
-2.10061e-19
1.02362e-17
4.23435e-17
1.64553e-18
-3.57613e-17
1.09082e-16
-3.53521e-17
0
0
-6.47208e-17
-5.73442e-17
-5.47663e-17
-9.75284e-17
-1.35842e-17
0
0
0
-4.33792e-18
4.5906e-18
2.90036e-17
-1.03906e-17
1.67606e-18
0
-7.48452e-17
-6.99943e-17
7.23439e-17
-7.16433e-17
-1.03231e-16
1.28472e-16
3.46508e-17
0
5.67438e-17
6.267e-17
-1.35304e-17
7.29311e-17
-1.19018e-17
1.23869e-17
4.7711e-17
-2.75603e-17
0
-8.11583e-17
0
-7.83721e-17
7.70676e-17
0
1.4188e-16
6.71524e-17
-1.3936e-16
1.09877e-16
-8.1445e-19
-3.35299e-17
-6.06775e-17
0
8.15959e-17
-1.37406e-16
1.47254e-16
-1.87604e-16
0
0
8.06721e-17
-3.875e-19
-9.55995e-19
-1.54366e-16
1.55193e-16
-7.54178e-17
7.51104e-17
7.39989e-17
-6.6666e-17
0
0
1.22233e-16
-1.24339e-16
-1.33723e-16
1.32318e-16
-1.2872e-16
1.39078e-16
-2.17718e-16
0
)
;

boundaryField
{
    up
    {
        type            calculated;
        value           nonuniform List<scalar> 
84
(
0
0
0
0
-7.51566e-18
1.363e-17
-5.72295e-18
4.31467e-18
-3.75293e-18
0
-3.33462e-18
3.18879e-18
-2.44066e-18
1.08738e-19
9.10322e-20
1.9707e-18
0
0
-1.47329e-18
1.08363e-18
1.20186e-18
-1.16699e-18
1.14055e-19
0
4.91948e-19
1.96038e-19
-4.57658e-18
0
5.76432e-18
6.5246e-18
8.18009e-19
-1.38904e-18
5.30528e-19
0
-2.57467e-19
4.21813e-19
-3.74476e-19
5.91148e-19
0
-9.76736e-20
0
0
-4.95352e-20
9.94501e-20
-9.60914e-20
1.9815e-19
-3.78988e-19
4.14468e-19
1.1557e-20
-4.49939e-19
0
0
0
-7.02111e-18
-9.38479e-19
6.79621e-19
0
-4.74947e-18
-4.67996e-18
3.54195e-18
0
0
-1.30287e-18
2.50037e-18
-2.76409e-18
1.84353e-18
0
4.34677e-19
0
0
-1.78938e-18
1.83818e-18
-2.52803e-18
2.96975e-18
0
-4.21269e-18
4.31468e-18
-3.06786e-19
0
1.02362e-17
-1.03906e-17
0
0
0
)
;
    }
    low
    {
        type            calculated;
        value           nonuniform List<scalar> 
84
(
-1.61461e-16
1.61729e-16
-7.98279e-17
1.24899e-16
2.17804e-17
-5.65893e-18
4.72931e-17
3.65828e-18
0
2.03072e-16
-5.14965e-17
4.53778e-17
-4.86644e-17
-3.06813e-16
5.01496e-17
0
-4.6719e-17
2.68223e-18
-2.54928e-18
-3.8527e-17
1.92752e-17
5.25026e-17
8.71253e-17
-7.91621e-17
0
-1.53476e-17
-7.88622e-18
0
-7.22328e-17
-2.02135e-17
-6.74186e-17
-7.29437e-17
7.89148e-17
2.73191e-17
1.87377e-16
1.50073e-17
0
1.26296e-16
1.21201e-16
6.88615e-17
-3.65623e-17
1.50547e-17
1.50552e-17
0
5.99755e-17
1.36742e-16
1.10961e-16
8.3867e-18
0
-2.59652e-16
1.6089e-16
3.07858e-20
2.70714e-20
6.31939e-17
0
-1.47774e-16
0
-8.29585e-18
1.57632e-17
3.21682e-17
4.98336e-17
6.9988e-17
1.09714e-20
1.72963e-16
0
0
-1.31432e-16
1.42618e-16
-1.45834e-16
-5.01921e-17
1.05411e-16
-1.00796e-16
2.17038e-16
1.06604e-16
1.01323e-16
-1.98557e-16
1.40223e-16
-4.34223e-17
8.72172e-17
-6.21844e-17
4.23435e-17
1.8208e-18
-8.11583e-17
8.07127e-17
)
;
    }
    left
    {
        type            calculated;
        value           nonuniform List<scalar> 
19
(
-1.6138e-16
-7.89202e-17
7.96699e-17
1.30779e-18
-1.53023e-16
0
-7.21604e-17
-7.11386e-17
-4.3294e-18
-3.71397e-17
-3.82836e-19
-3.68317e-17
1.62978e-16
-3.63078e-17
1.69887e-16
1.46413e-16
8.70363e-17
1.27533e-16
0
)
;
    }
    right
    {
        type            calculated;
        value           nonuniform List<scalar> 
19
(
8.06721e-17
-3.41284e-19
-9.55995e-19
-1.54365e-16
1.55225e-16
-7.54178e-17
7.51104e-17
7.39989e-17
-6.64468e-17
0
0
1.23409e-16
-1.25999e-16
-1.33723e-16
1.32318e-16
-1.2872e-16
1.39078e-16
-2.35462e-16
0
)
;
    }
    frontAndBackPlanes
    {
        type            empty;
    }
}


// ************************************************************************* //
