/*--------------------------------*- C++ -*----------------------------------*\
  =========                 |
  \\      /  F ield         | OpenFOAM: The Open Source CFD Toolbox
   \\    /   O peration     | Website:  https://openfoam.org
    \\  /    A nd           | Version:  7
     \\/     M anipulation  |
\*---------------------------------------------------------------------------*/
FoamFile
{
    version     2.0;
    format      ascii;
    class       volScalarField;
    location    "0.347";
    object      T;
}
// * * * * * * * * * * * * * * * * * * * * * * * * * * * * * * * * * * * * * //

dimensions      [0 0 0 1 0 0 0];

internalField   nonuniform List<scalar> 
1596
(
4.98882
4.95665
4.92343
4.89141
4.86102
4.83174
4.80288
4.77302
4.74115
4.70494
4.66258
4.61164
4.54638
4.45857
4.33519
4.14682
3.83834
3.29952
2.30953
4.9516
4.85132
4.75577
4.66627
4.58227
4.50205
4.42365
4.34412
4.26097
4.16997
4.06759
3.94962
3.80785
3.63191
3.40859
3.11211
2.70204
2.10837
1.19852
4.90749
4.73868
4.58531
4.44474
4.31433
4.19103
4.07181
3.95284
3.83085
3.70091
3.55901
3.40062
3.21781
3.00133
2.7408
2.41737
2.00459
1.46108
0.709361
4.86383
4.63074
4.42518
4.23982
4.06968
3.91044
3.75823
3.60872
3.45824
3.30175
3.13528
2.95451
2.75249
2.52169
2.25446
1.9376
1.55428
1.08053
0.4713
4.82747
4.53868
4.28748
4.06322
3.85907
3.66976
3.49081
3.31759
3.14626
2.97188
2.79065
2.5986
2.38971
2.15787
1.89744
1.59907
1.2519
0.841962
0.342661
4.80292
4.47021
4.18058
3.92276
3.68923
3.47423
3.27295
3.08066
2.89344
2.70651
2.51626
2.31897
2.10935
1.88229
1.63345
1.35592
1.04241
0.68461
0.266309
4.79087
4.42757
4.10719
3.82081
3.5616
3.32401
3.10324
2.89464
2.69434
2.4977
2.30126
2.1015
1.8936
1.6731
1.43645
1.17824
0.893299
0.576463
0.217439
4.7888
4.40779
4.06452
3.75447
3.47279
3.2149
2.97644
2.75305
2.54101
2.33588
2.13434
1.93295
1.72725
1.51314
1.28752
1.0459
0.784323
0.499401
0.184242
4.79418
4.40658
4.04789
3.71887
3.41766
3.1413
2.88631
2.64886
2.42557
2.21222
2.00563
1.80246
1.59844
1.38971
1.17338
0.945478
0.702747
0.442782
0.160655
4.80157
4.41481
4.04727
3.70407
3.38651
3.09367
2.82336
2.57253
2.33827
2.11674
1.90492
1.69957
1.49654
1.29212
1.08347
0.866918
0.639577
0.399552
0.143092
4.80771
4.42503
4.05341
3.70037
3.36976
3.06275
2.7786
2.51528
2.27055
2.04098
1.82383
1.61598
1.4134
1.21242
1.01023
0.803285
0.58885
0.365258
0.12944
4.81539
4.43897
4.06617
3.70623
3.36507
3.0457
2.7489
2.47377
2.21883
1.98122
1.7585
1.54773
1.34497
1.14661
0.949777
0.750935
0.547393
0.337513
0.118579
4.82281
4.45386
4.08184
3.71723
3.36756
3.03748
2.72922
2.44301
2.17826
1.93272
1.70433
1.49037
1.28702
1.09068
0.898387
0.706569
0.512463
0.314343
0.109648
4.82769
4.46541
4.09516
3.7276
3.37129
3.03217
2.71378
2.41749
2.1436
1.89054
1.6567
1.43959
1.23554
1.04097
0.852815
0.6674
0.481836
0.294221
0.102015
4.83196
4.4752
4.10674
3.73705
3.37525
3.0283
2.70082
2.39526
2.11282
1.85261
1.61352
1.39335
1.18857
0.995625
0.811345
0.631922
0.454281
0.276287
0.0953143
4.83615
4.48426
4.11731
3.74574
3.37907
3.025
2.68916
2.37493
2.08438
1.81733
1.57317
1.35001
1.14451
0.953143
0.772608
0.598938
0.428833
0.259874
0.0892722
4.83925
4.4914
4.12561
3.75224
3.38107
3.02047
2.67685
2.3545
2.05629
1.78275
1.53376
1.30779
1.10169
0.911967
0.735214
0.567273
0.404577
0.244371
0.0836496
4.84164
4.49692
4.13188
3.7566
3.38111
3.01429
2.66329
2.33321
2.02767
1.74788
1.49426
1.26561
1.05902
0.871046
0.698182
0.536071
0.380838
0.229339
0.078275
4.84544
4.5042
4.13969
3.76226
3.38225
3.00908
2.65062
2.31272
1.99975
1.71358
1.45516
1.22365
1.0164
0.830066
0.661064
0.504843
0.35719
0.21449
0.0730434
4.84987
4.51286
4.14903
3.76934
3.38463
3.00494
2.63882
2.2929
1.97225
1.67943
1.4159
1.18122
0.973023
0.788104
0.622866
0.472621
0.332822
0.1993
0.0677851
4.85327
4.52041
4.15744
3.77558
3.38622
3
2.62619
2.27216
1.94371
1.64403
1.37513
1.13699
0.927526
0.743743
0.582119
0.437946
0.306455
0.182911
0.0622262
4.85658
4.52763
4.16549
3.78148
3.38743
2.99461
2.61298
2.25065
1.91411
1.60723
1.33251
1.09038
0.879108
0.695916
0.537458
0.399181
0.276364
0.163955
0.0558907
4.86022
4.53518
4.17377
3.78749
3.38861
2.989
2.59932
2.22838
1.88333
1.56867
1.28748
1.04063
0.826741
0.643294
0.487152
0.354068
0.239775
0.139654
0.0474443
4.86394
4.54266
4.18166
3.7928
3.38882
2.98219
2.5842
2.20431
1.85028
1.52721
1.23877
0.98629
0.768799
0.584026
0.428997
0.299732
0.192641
0.104479
0.0316096
4.86964
4.5571
4.20269
3.81821
3.41634
3.00959
2.60937
2.22536
1.86564
1.53582
1.24015
0.980725
0.757201
0.567803
0.409863
0.279492
0.173304
0.0887201
0.0237442
4.87581
4.57513
4.23222
3.85834
3.4656
3.06589
2.67019
2.28788
1.92701
1.59337
1.29174
1.02498
0.793706
0.596983
0.432689
0.297071
0.18641
0.0975248
0.0274963
4.87872
4.58515
4.25031
3.88491
3.50037
3.1079
2.71781
2.33895
1.97897
1.64358
1.33774
1.06493
0.826619
0.622856
0.452296
0.311515
0.196653
0.104071
0.0301534
4.87838
4.58685
4.25635
3.89702
3.51956
3.13433
2.75079
2.37702
2.02
1.68506
1.37702
1.09969
0.855295
0.644909
0.468237
0.322468
0.203821
0.108318
0.0317779
4.87584
4.58238
4.25333
3.89826
3.52708
3.1492
2.77308
2.40582
2.0536
1.72107
1.41268
1.13225
0.882517
0.665585
0.482463
0.33137
0.20894
0.110971
0.032704
4.87124
4.57316
4.24381
3.89208
3.52694
3.15677
2.78894
2.42952
2.08373
1.75541
1.44841
1.16626
0.911872
0.688172
0.497643
0.340058
0.213084
0.112597
0.0331486
4.86538
4.56156
4.23135
3.88278
3.52389
3.16197
2.80331
2.45288
2.11495
1.79249
1.4886
1.20626
0.94808
0.717387
0.517969
0.351599
0.217949
0.113862
0.0332903
4.86036
4.55121
4.22033
3.8752
3.52297
3.16989
2.82112
2.48064
2.15181
1.83676
1.53784
1.25725
0.996897
0.759744
0.550166
0.371772
0.227175
0.11604
0.0331885
4.85531
4.54113
4.21012
3.86915
3.52441
3.18106
2.84323
2.51394
2.19574
1.89008
1.59861
1.3228
1.06357
0.822821
0.604216
0.411779
0.250507
0.124454
0.033002
4.85015
4.5315
4.20132
3.86561
3.5295
3.19706
2.87139
2.55468
2.24883
1.95473
1.6736
1.40642
1.15333
0.914996
0.693417
0.490915
0.311754
0.161953
0.0452375
4.84409
4.51947
4.18843
3.85614
3.52664
3.203
2.88745
2.58145
2.28639
2.0028
1.73168
1.47382
1.22913
0.997712
0.780308
0.576992
0.388714
0.218321
0.0682764
4.83457
4.49756
4.15936
3.82401
3.49447
3.1729
2.86076
2.55893
2.26837
1.98928
1.72248
1.46869
1.22783
1.00007
0.786275
0.586366
0.400692
0.230392
0.075082
4.82245
4.46914
4.12029
3.77838
3.44523
3.12208
2.80973
2.50853
2.21908
1.9413
1.67589
1.42356
1.18427
0.958445
0.747329
0.551375
0.371675
0.21017
0.0670364
4.81183
4.44443
4.08647
3.73901
3.40284
3.07846
2.76609
2.46568
2.17751
1.90133
1.63779
1.38759
1.15077
0.927872
0.720333
0.528743
0.354314
0.199035
0.0630473
4.80376
4.42515
4.05976
3.7077
3.36901
3.04358
2.73119
2.43145
2.14445
1.86978
1.60803
1.35991
1.12547
0.905293
0.700879
0.512846
0.342418
0.191596
0.0604871
4.79744
4.41011
4.03897
3.68339
3.34277
3.01659
2.70425
2.40513
2.11914
1.84578
1.58557
1.33922
1.10675
0.888772
0.686798
0.501449
0.33396
0.186346
0.0587064
4.79284
4.3992
4.02401
3.66601
3.32414
2.99751
2.6853
2.38669
2.10151
1.82913
1.57008
1.32502
1.09398
0.877541
0.677249
0.493724
0.328213
0.182765
0.0574863
4.7894
4.39194
4.01462
3.65551
3.31317
2.98651
2.67455
2.37639
2.09178
1.82007
1.56176
1.3175
1.08731
0.871766
0.672416
0.489877
0.325398
0.181039
0.0569139
4.78941
4.39196
4.01464
3.65553
3.3132
2.98654
2.67458
2.37642
2.09181
1.8201
1.56178
1.31752
1.08732
0.871781
0.672429
0.489887
0.325405
0.181043
0.0569152
4.79286
4.39925
4.02407
3.66608
3.32422
2.99759
2.68538
2.38677
2.10159
1.8292
1.57015
1.32508
1.09403
0.877591
0.677291
0.493757
0.328237
0.18278
0.0574914
4.79747
4.41018
4.03907
3.6835
3.3429
3.01672
2.70438
2.40525
2.11927
1.84589
1.58568
1.33931
1.10684
0.888846
0.686859
0.501497
0.333994
0.186367
0.0587133
4.8038
4.42524
4.05989
3.70785
3.36917
3.04375
2.73136
2.43162
2.14461
1.86993
1.60817
1.36003
1.12558
0.905384
0.700953
0.512902
0.342457
0.191619
0.0604947
4.81188
4.44454
4.08662
3.73919
3.40304
3.07867
2.7663
2.46588
2.1777
1.90151
1.63795
1.38773
1.15089
0.927975
0.720414
0.528803
0.354355
0.199058
0.0630544
4.8225
4.46927
4.12047
3.77859
3.44546
3.12232
2.80996
2.50876
2.2193
1.9415
1.67607
1.42371
1.1844
0.958543
0.7474
0.551421
0.3717
0.21018
0.067037
4.83463
4.4977
4.15955
3.82424
3.49473
3.17317
2.86102
2.55919
2.26861
1.98949
1.72266
1.46884
1.22793
1.00013
0.786291
0.586345
0.400646
0.230342
0.0750562
4.84416
4.51967
4.18874
3.85655
3.52714
3.20358
2.88808
2.58213
2.2871
2.00354
1.73244
1.47459
1.2299
0.998491
0.781085
0.577748
0.389404
0.218856
0.0685136
4.85023
4.53173
4.2017
3.86613
3.53013
3.19779
2.87222
2.55559
2.2498
1.95575
1.67466
1.40751
1.15443
0.91609
0.694466
0.491864
0.312528
0.162466
0.045426
4.85538
4.54132
4.21044
3.86959
3.52495
3.1817
2.84394
2.51472
2.19657
1.89094
1.5995
1.32369
1.06444
0.823635
0.604934
0.412351
0.250893
0.124647
0.0330386
4.86041
4.55139
4.22063
3.87561
3.52348
3.17049
2.82179
2.48137
2.15258
1.83756
1.53864
1.25803
0.997631
0.760398
0.550704
0.372167
0.227421
0.11616
0.0332195
4.86543
4.56172
4.23162
3.88316
3.52436
3.16253
2.80393
2.45356
2.11566
1.79321
1.48932
1.20694
0.948704
0.717922
0.518391
0.351898
0.218136
0.113958
0.0333183
4.87129
4.5733
4.24406
3.89243
3.52738
3.15729
2.78952
2.43015
2.08439
1.75607
1.44906
1.16687
0.912409
0.688621
0.497991
0.340305
0.213242
0.112682
0.0331747
4.87588
4.58251
4.25355
3.89858
3.52748
3.14967
2.77361
2.4064
2.0542
1.72167
1.41326
1.13278
0.882985
0.665972
0.482763
0.331585
0.209081
0.11105
0.0327294
4.87841
4.58695
4.25654
3.8973
3.51992
3.13476
2.75128
2.37754
2.02055
1.6856
1.37754
1.10017
0.855707
0.645249
0.468502
0.322663
0.203953
0.108395
0.031804
4.87874
4.58525
4.25048
3.88515
3.50069
3.10829
2.71825
2.33943
1.97946
1.64407
1.3382
1.06535
0.826986
0.62316
0.452538
0.311698
0.196781
0.104149
0.0301824
4.87583
4.57521
4.23236
3.85856
3.46588
3.06623
2.67058
2.28831
1.92744
1.59381
1.29215
1.02536
0.794035
0.597261
0.432915
0.297248
0.186541
0.0976104
0.027531
4.86964
4.55711
4.20272
3.81826
3.41641
3.00968
2.60947
2.22546
1.86575
1.53591
1.24024
0.980789
0.757244
0.567826
0.409867
0.279483
0.173286
0.0887013
0.0237344
4.86393
4.54263
4.18161
3.79273
3.38874
2.9821
2.5841
2.2042
1.85017
1.5271
1.23866
0.986181
0.768693
0.583925
0.428904
0.29965
0.192573
0.104431
0.0315887
4.86022
4.53517
4.17376
3.78747
3.38859
2.98898
2.5993
2.22836
1.88331
1.56866
1.28747
1.04063
0.82674
0.643296
0.487157
0.354075
0.239783
0.13966
0.0474464
4.85658
4.52762
4.16548
3.78147
3.38741
2.99459
2.61296
2.25064
1.9141
1.60722
1.3325
1.09038
0.879108
0.695919
0.537463
0.399186
0.276369
0.163958
0.0558917
4.85327
4.52041
4.15743
3.77557
3.3862
2.99998
2.62617
2.27215
1.9437
1.64403
1.37513
1.13699
0.927528
0.743746
0.582123
0.43795
0.306458
0.182913
0.0622268
4.84987
4.51286
4.14902
3.76933
3.38463
3.00494
2.63882
2.29289
1.97225
1.67943
1.4159
1.18122
0.973025
0.788107
0.622869
0.472624
0.332824
0.199301
0.0677855
4.84544
4.5042
4.13968
3.76225
3.38224
3.00908
2.65061
2.31272
1.99974
1.71358
1.45516
1.22365
1.0164
0.830069
0.661066
0.504845
0.357192
0.214491
0.0730437
4.84164
4.49692
4.13187
3.7566
3.38111
3.01429
2.66329
2.33321
2.02767
1.74788
1.49426
1.26561
1.05902
0.871047
0.698184
0.536072
0.380839
0.22934
0.0782752
4.83925
4.49139
4.12561
3.75223
3.38107
3.02046
2.67684
2.3545
2.05629
1.78275
1.53376
1.30779
1.10169
0.911969
0.735216
0.567274
0.404577
0.244372
0.0836497
4.83614
4.48426
4.11731
3.74574
3.37907
3.025
2.68916
2.37493
2.08438
1.81733
1.57317
1.35001
1.14451
0.953144
0.772608
0.598938
0.428834
0.259874
0.0892723
4.83196
4.4752
4.10674
3.73705
3.37525
3.0283
2.70082
2.39526
2.11282
1.85261
1.61352
1.39335
1.18857
0.995625
0.811345
0.631922
0.454281
0.276287
0.0953144
4.82769
4.46541
4.09516
3.7276
3.37129
3.03217
2.71378
2.41749
2.1436
1.89054
1.6567
1.43959
1.23554
1.04097
0.852815
0.6674
0.481836
0.294221
0.102015
4.82281
4.45387
4.08184
3.71723
3.36756
3.03748
2.72922
2.44301
2.17826
1.93271
1.70433
1.49037
1.28702
1.09068
0.898386
0.706568
0.512463
0.314343
0.109648
4.81539
4.43897
4.06617
3.70623
3.36507
3.0457
2.7489
2.47377
2.21883
1.98122
1.7585
1.54773
1.34497
1.14661
0.949776
0.750934
0.547393
0.337513
0.118579
4.80771
4.42503
4.05342
3.70037
3.36976
3.06275
2.7786
2.51528
2.27054
2.04098
1.82383
1.61598
1.4134
1.21242
1.01023
0.803284
0.58885
0.365258
0.12944
4.80157
4.41481
4.04727
3.70407
3.38651
3.09367
2.82335
2.57252
2.33827
2.11674
1.90492
1.69957
1.49654
1.29211
1.08347
0.866918
0.639577
0.399552
0.143092
4.79418
4.40658
4.04789
3.71887
3.41766
3.14129
2.8863
2.64886
2.42556
2.21221
2.00562
1.80246
1.59844
1.38971
1.17338
0.945477
0.702747
0.442782
0.160656
4.7888
4.40778
4.06452
3.75446
3.47278
3.21489
2.97644
2.75305
2.54101
2.33588
2.13433
1.93295
1.72724
1.51314
1.28752
1.0459
0.784324
0.499402
0.184242
4.79087
4.42757
4.10718
3.82081
3.56159
3.324
3.10324
2.89464
2.69434
2.49769
2.30126
2.1015
1.8936
1.6731
1.43645
1.17824
0.893299
0.576464
0.217439
4.80292
4.4702
4.18058
3.92276
3.68923
3.47423
3.27294
3.08065
2.89344
2.70651
2.51625
2.31896
2.10935
1.88228
1.63345
1.35592
1.04241
0.68461
0.266309
4.82747
4.53867
4.28748
4.06321
3.85907
3.66976
3.4908
3.31759
3.14626
2.97188
2.79065
2.5986
2.38971
2.15787
1.89744
1.59907
1.2519
0.841962
0.342661
4.86383
4.63074
4.42518
4.23982
4.06967
3.91043
3.75823
3.60872
3.45824
3.30175
3.13528
2.9545
2.75249
2.52169
2.25445
1.9376
1.55428
1.08053
0.4713
4.90749
4.73868
4.58531
4.44474
4.31433
4.19102
4.07181
3.95284
3.83084
3.7009
3.55901
3.40062
3.21781
3.00133
2.7408
2.41737
2.00459
1.46108
0.709361
4.9516
4.85132
4.75577
4.66627
4.58227
4.50205
4.42365
4.34412
4.26097
4.16996
4.06759
3.94962
3.80785
3.63191
3.40859
3.11211
2.70203
2.10837
1.19852
4.98882
4.95665
4.92343
4.89141
4.86102
4.83174
4.80288
4.77302
4.74115
4.70494
4.66258
4.61164
4.54638
4.45857
4.33519
4.14682
3.83834
3.29952
2.30953
)
;

boundaryField
{
    up
    {
        type            fixedValue;
        value           uniform 0;
    }
    low
    {
        type            fixedValue;
        value           uniform 5;
    }
    left
    {
        type            fixedValue;
        value           uniform 5;
    }
    right
    {
        type            fixedValue;
        value           uniform 5;
    }
    frontAndBackPlanes
    {
        type            empty;
    }
}


// ************************************************************************* //
