/*--------------------------------*- C++ -*----------------------------------*\
  =========                 |
  \\      /  F ield         | OpenFOAM: The Open Source CFD Toolbox
   \\    /   O peration     | Website:  https://openfoam.org
    \\  /    A nd           | Version:  7
     \\/     M anipulation  |
\*---------------------------------------------------------------------------*/
FoamFile
{
    version     2.0;
    format      ascii;
    class       volScalarField;
    location    "0.143";
    object      gradTz;
}
// * * * * * * * * * * * * * * * * * * * * * * * * * * * * * * * * * * * * * //

dimensions      [0 -1 0 1 0 0 0];

internalField   nonuniform List<scalar> 
1596
(
-6.45382e-16
-3.10903e-16
3.191e-16
9.82126e-18
-5.99574e-16
0
-2.74908e-16
-2.71137e-16
-2.2339e-17
-1.45178e-16
-1.02993e-18
-1.45253e-16
6.45271e-16
-1.44577e-16
6.73719e-16
5.82832e-16
3.47079e-16
4.39407e-16
0
6.41501e-16
0
8.83731e-16
-8.388e-18
-2.62737e-16
2.59694e-16
5.4682e-16
2.15782e-17
2.56784e-16
-1.24737e-16
2.49649e-16
-2.97443e-18
-3.47564e-16
-2.18374e-16
-5.44275e-16
-5.32569e-16
-4.85522e-16
2.77131e-16
0
-3.09934e-16
0
-5.66596e-16
1.32497e-17
5.01672e-16
-1.49381e-16
1.56728e-17
-3.3999e-18
-3.06615e-18
-2.99025e-18
8.71645e-17
0
1.80171e-16
5.07734e-16
-5.0325e-17
4.13229e-17
9.6755e-17
1.53874e-16
0
4.92884e-16
-1.41552e-16
1.41036e-16
0
-1.33402e-16
-1.40461e-16
2.25428e-16
-1.86709e-16
0
0
-7.98877e-17
4.56453e-17
0
-1.47626e-16
-1.84172e-16
1.29613e-16
-1.38663e-16
-7.1011e-18
0
8.67995e-17
2.19613e-16
-1.88743e-16
0
-5.27194e-17
-1.62358e-16
0
2.35927e-16
-2.29328e-17
-2.07944e-17
-2.98089e-17
1.19112e-16
1.50706e-16
1.65409e-17
1.22946e-17
-1.40083e-16
6.99554e-18
6.53233e-17
-2.87694e-17
-2.25404e-17
-3.00172e-16
2.75252e-16
-2.28827e-16
-6.83414e-19
-1.87724e-16
5.1876e-18
-5.20482e-18
-1.38948e-16
0
-2.47717e-17
-1.41694e-16
-1.35825e-16
1.06038e-16
1.20446e-16
-1.61733e-18
-7.23947e-17
-6.62565e-17
5.11888e-17
1.88375e-16
-3.04082e-16
3.25003e-16
1.74879e-16
0
1.45329e-16
8.08525e-17
-3.83146e-17
1.75163e-16
-3.20254e-17
-1.39998e-16
1.01898e-18
-7.96347e-17
-1.06464e-16
-7.97668e-17
7.04214e-17
7.30319e-17
-9.91386e-19
-2.10509e-17
2.52116e-17
4.86704e-16
-5.43766e-16
0
0
-1.711e-16
0
0
0
1.01679e-16
0
0
7.39752e-17
2.10991e-18
2.59205e-17
-6.21037e-17
0
3.3036e-17
1.36088e-17
0
-3.07358e-16
5.84258e-16
0
0
1.76209e-16
0
-5.93172e-17
5.92572e-17
-1.03495e-16
4.11516e-17
-4.14526e-17
0
5.92596e-17
6.52235e-17
0
-3.74514e-17
-3.37253e-17
-1.1994e-17
7.88457e-16
-3.6242e-16
0
-2.22801e-16
2.20307e-16
0
1.40234e-16
0
0
0
3.56032e-17
-3.57739e-17
0
-4.62089e-17
-1.26551e-17
0
7.10474e-18
2.04193e-17
0
-2.00272e-16
0
0
2.23983e-16
-4.06586e-16
3.02892e-17
1.1851e-17
-5.24063e-17
8.49902e-18
3.39333e-18
-3.66277e-17
-5.44048e-17
0
4.022e-17
-8.68718e-18
8.81756e-18
2.61002e-17
-1.63052e-17
-7.13402e-18
1.53297e-16
-2.41116e-17
1.47852e-16
4.74124e-16
-3.67548e-17
-1.84289e-16
0
0
0
7.60203e-17
2.7787e-17
9.73346e-17
-2.33124e-17
-3.95005e-17
-2.13505e-17
-1.27058e-17
5.76552e-18
-1.28843e-17
6.71692e-18
-1.77976e-16
1.74934e-16
-3.15819e-16
-4.68986e-16
4.22427e-16
1.4934e-16
-2.67168e-16
2.14656e-16
-1.71947e-16
4.53456e-17
3.06261e-17
-2.67069e-17
1.42878e-17
-1.37079e-17
4.13785e-17
0
-3.23366e-18
2.46571e-17
-3.71532e-18
-1.19447e-15
5.36155e-16
3.95578e-19
-1.00341e-16
1.95472e-17
1.45101e-16
-2.70429e-16
-1.00877e-16
7.9212e-17
-6.17542e-17
-4.84104e-17
0
-4.93128e-17
-1.42361e-17
-2.36504e-17
-1.38673e-17
1.07967e-18
-1.39145e-17
7.29882e-19
1.95188e-16
-1.67681e-16
1.50614e-19
-1.17591e-16
-2.71202e-16
2.50123e-16
1.39295e-18
9.83045e-17
-7.71234e-17
1.17673e-16
2.67728e-17
2.0181e-17
5.54146e-17
0
4.18188e-17
1.90074e-17
0
7.07527e-18
5.49359e-19
0
1.6267e-16
1.16172e-16
-2.48596e-16
2.62201e-16
-3.76786e-16
2.52138e-16
8.24079e-17
-1.809e-17
-1.18374e-16
1.83881e-17
-1.82973e-17
-4.85763e-17
1.75007e-17
-9.11762e-18
-1.79272e-17
7.12992e-18
-4.49307e-18
2.08537e-18
-1.81604e-16
5.81419e-16
-4.36608e-16
2.17726e-16
0
0
-4.4627e-17
9.88471e-17
-5.87824e-17
1.07277e-16
0
0
3.15601e-17
-2.61321e-17
-1.632e-17
5.17722e-18
-5.61169e-18
3.04859e-18
0
2.1018e-17
1.6994e-16
-1.25885e-16
-1.05103e-16
-1.52962e-16
-3.7239e-17
6.59272e-17
0
-5.42619e-17
-3.87918e-17
3.33179e-17
-2.44002e-17
1.77886e-17
0
6.4689e-18
1.10338e-17
0
0
0
-2.03841e-17
2.47724e-16
8.1647e-17
-3.1931e-16
8.03774e-17
6.47245e-17
0
0
5.01136e-17
-2.66077e-17
-3.22257e-17
2.35994e-17
-1.72029e-17
0
-3.59765e-18
2.67458e-18
0
-2.24655e-18
-7.99482e-19
-1.39492e-16
4.0959e-16
-4.78563e-16
-1.72143e-16
9.27875e-17
-5.96764e-17
4.58923e-17
0
-2.56574e-17
1.98096e-17
0
0
6.05959e-18
-6.06657e-18
1.49693e-18
-2.30493e-18
3.02817e-18
5.46267e-19
6.05644e-19
7.48589e-17
-6.45286e-17
3.07463e-16
-1.96275e-16
-7.11838e-17
1.26501e-17
9.75035e-17
3.18081e-17
2.45503e-17
0
1.05777e-17
-9.63806e-18
6.82483e-18
-5.19847e-18
5.48862e-18
-8.92186e-18
-2.34605e-18
1.99238e-18
4.91536e-19
1.94523e-16
-2.00208e-16
0
1.5235e-16
-8.28548e-17
-5.31144e-17
2.94117e-17
-9.99295e-17
0
-1.78591e-18
-1.32366e-17
-8.03926e-18
9.99892e-18
-1.07927e-18
-5.30466e-18
3.58122e-18
0
1.08464e-18
-4.77278e-19
3.47467e-16
-5.77241e-17
2.25858e-16
-1.75743e-16
8.13198e-17
-1.07495e-18
-8.59663e-17
-2.36169e-17
4.03854e-17
-2.35524e-18
-1.74459e-17
1.36913e-17
-5.5556e-18
-6.01295e-18
0
0
0
-1.09326e-18
3.90097e-20
-2.99165e-16
2.88616e-16
1.93476e-19
3.79101e-17
3.00646e-17
-6.38406e-17
7.03323e-17
-5.15966e-17
3.97902e-17
-1.05359e-17
1.95262e-17
5.75689e-18
-2.22563e-18
1.0872e-19
-5.41875e-19
-9.66577e-19
0
0
0
0
0
1.25116e-16
-7.15709e-17
-1.76615e-16
0
0
-1.49309e-17
-2.10698e-17
1.56558e-17
0
-7.26049e-18
4.93152e-18
-1.40557e-17
1.56369e-17
-4.31344e-18
4.55925e-18
4.58972e-19
0
-5.78477e-17
5.85597e-17
0
-4.07143e-17
4.0667e-17
6.01108e-17
0
1.50735e-17
1.52287e-17
-7.28459e-17
0
-8.52338e-18
5.84949e-18
3.54725e-18
-2.35278e-18
3.19127e-18
0
-1.02546e-18
0
-2.97877e-17
-2.83189e-17
1.67269e-18
4.18329e-17
-1.04077e-16
0
-2.24267e-17
0
5.02344e-17
1.76171e-17
0
3.37426e-17
-3.23321e-17
3.94165e-18
-4.83115e-18
2.22952e-18
6.19283e-18
2.06496e-18
-1.63841e-18
0
6.02459e-17
-4.86797e-17
5.96705e-17
6.4705e-17
0
4.48534e-17
-4.07745e-17
-2.73328e-17
3.5359e-17
-5.2457e-17
-2.16202e-17
0
0
3.22388e-18
0
0
7.61206e-19
0
-2.73498e-16
2.11337e-16
0
4.49029e-18
-3.67598e-17
-1.87599e-18
2.93134e-17
1.72913e-17
-2.43147e-17
-4.91963e-17
6.84809e-17
-1.90489e-17
0
-6.75798e-18
0
0
0
-2.97503e-18
2.38724e-18
-7.88812e-17
7.10435e-17
1.78176e-16
-1.70673e-16
4.9633e-17
3.77975e-18
-2.97124e-17
2.33926e-17
3.61181e-17
2.45018e-17
-4.79351e-17
0
1.86555e-17
4.92717e-19
-7.73579e-18
-1.43297e-17
1.15149e-17
-1.49435e-18
3.001e-18
-2.72504e-16
3.64181e-16
-3.57731e-16
5.88823e-17
4.61143e-17
-4.24434e-17
3.42436e-17
-2.42933e-17
0
-1.76762e-17
2.44691e-17
1.04443e-17
1.55391e-17
1.65328e-17
-2.40617e-17
-9.44784e-19
0
-1.31995e-18
4.52368e-19
-2.94576e-16
-8.29188e-17
-1.36527e-16
7.45461e-17
-1.0955e-16
8.8846e-17
-5.12352e-17
3.92797e-17
-3.94449e-18
-3.80719e-18
-2.74037e-17
1.71153e-17
-6.86518e-18
2.2078e-17
-2.37009e-17
2.0028e-18
2.21702e-18
0
-8.22049e-19
3.18501e-16
-8.98854e-17
0
0
-1.12459e-16
2.14406e-16
-4.79792e-17
-8.14688e-18
6.36352e-17
-1.84076e-18
0
0
-1.10736e-17
0
-2.16586e-17
5.01341e-17
-3.39564e-17
0
3.56337e-19
1.06945e-16
1.93609e-16
0
-7.68309e-17
-5.7338e-17
-4.65269e-17
-5.03235e-17
1.90056e-17
-5.12727e-17
-2.56177e-17
0
0
1.73079e-17
0
0
-3.11449e-17
5.18783e-17
0
0
7.34413e-16
-9.65861e-17
-4.24404e-16
-2.14243e-16
2.92094e-16
8.69506e-17
4.87949e-17
0
-1.61286e-17
1.44219e-17
3.62238e-17
-1.13441e-17
-1.51878e-17
2.30731e-17
-2.45428e-17
-6.80236e-18
0
0
0
5.88097e-17
-4.45937e-16
4.35655e-16
-3.99119e-17
-2.92227e-16
4.48141e-16
-2.20185e-16
0
0
9.97706e-17
-8.04207e-17
0
-2.16867e-17
3.83864e-17
-3.84582e-18
1.07198e-17
3.15863e-18
4.39492e-20
6.60753e-19
0
0
0
3.4613e-16
-2.33074e-16
2.26806e-16
-3.49545e-16
9.69878e-17
0
-3.17054e-17
4.82297e-17
-4.92937e-17
-9.01901e-18
1.9123e-19
-5.85385e-18
-7.49216e-19
-4.67333e-18
-1.34025e-18
-7.1621e-19
4.87509e-16
-8.58087e-16
4.01175e-16
0
9.81034e-17
-1.34267e-16
1.25955e-16
-9.97038e-17
0
-4.38464e-17
6.15392e-17
0
0
1.82475e-19
0
-6.46507e-18
4.38102e-18
7.04391e-19
1.15688e-18
4.84567e-16
0
-1.79014e-16
1.99674e-16
-1.1797e-16
2.54692e-16
-1.18395e-16
-8.69188e-17
8.78266e-17
-8.58617e-18
0
0
5.12324e-18
-8.25906e-18
-5.77046e-18
1.08514e-17
-2.3448e-18
1.16047e-18
0
2.74751e-16
2.05406e-16
-1.1903e-17
-1.91047e-16
-1.84612e-17
-1.27888e-16
1.69951e-17
1.04185e-16
-5.16862e-18
8.7474e-18
0
0
-5.24842e-18
0
6.04001e-18
-6.46137e-18
0
8.20688e-19
-2.25561e-19
-1.45754e-16
-1.03186e-16
9.67137e-17
-1.06345e-17
-4.64999e-18
1.21862e-17
0
-3.0466e-18
4.38071e-17
-3.68833e-17
0
1.16661e-17
-2.45259e-18
-1.01292e-17
-9.12661e-19
-7.06036e-19
0
-6.43286e-19
0
5.83957e-17
-1.09874e-16
-2.19514e-19
4.55347e-17
3.95611e-17
-3.91791e-17
-2.63011e-17
2.97185e-17
-9.68325e-18
7.6126e-18
-7.02899e-18
7.24578e-18
0
1.77488e-20
-6.7409e-19
2.41352e-18
-8.20635e-21
0
0
5.83978e-17
-5.81789e-17
-4.52939e-17
4.02027e-17
6.97845e-17
-7.01964e-17
-1.31511e-17
1.31838e-17
-9.76626e-18
9.86827e-18
-7.02935e-18
1.31514e-17
-3.68922e-18
-2.587e-18
-7.76911e-19
2.61375e-19
6.10817e-19
1.60654e-19
-1.20401e-19
0
-1.36868e-17
7.8682e-17
-8.55075e-17
6.95244e-17
-6.17732e-17
0
4.50304e-17
-4.03821e-17
0
1.39076e-17
-1.75502e-17
-9.66645e-18
1.01311e-17
1.81204e-18
0
0
-6.43474e-19
2.33309e-19
2.32191e-16
-4.22886e-16
4.21001e-16
-3.59991e-16
1.39855e-16
-1.11823e-16
1.06438e-16
1.19914e-17
-4.31191e-17
3.84474e-17
0
-2.5897e-17
2.36336e-17
-4.3196e-18
-1.77489e-18
2.70318e-18
1.97261e-18
6.2469e-19
-2.2543e-19
5.45639e-16
0
-2.02858e-16
1.5784e-16
1.82495e-17
-1.33971e-16
2.33676e-16
-2.00976e-16
7.78148e-17
-3.12507e-17
3.19878e-17
6.14665e-18
1.00813e-17
4.20733e-18
-3.337e-18
-4.85938e-19
-4.24854e-18
0
4.16053e-19
4.27255e-16
-4.80965e-16
0
4.12971e-17
1.70107e-16
-1.65474e-16
2.67698e-17
2.28864e-17
9.81653e-18
1.64117e-17
0
0
-1.74264e-17
3.17761e-17
-1.14577e-17
-4.00371e-18
4.38339e-18
3.45419e-19
-7.84061e-19
5.10976e-17
4.2281e-16
-4.67507e-17
-3.05361e-16
2.68598e-16
3.05609e-17
-2.61991e-17
-2.23532e-17
6.91917e-17
-8.56977e-17
4.82538e-17
-4.93176e-17
6.99437e-18
-9.52985e-18
1.60108e-17
-1.07508e-17
0
0
7.07343e-19
0
1.04294e-16
-2.98726e-16
3.42257e-16
-2.57835e-16
2.57221e-16
0
7.90403e-17
-7.94025e-17
-5.50146e-17
8.04986e-17
0
3.03644e-17
-3.84263e-17
-5.57925e-18
0
-5.79293e-19
-1.04666e-18
-8.08699e-20
-1.01742e-15
4.77873e-16
0
-2.92066e-16
2.92036e-16
1.65528e-16
-1.08366e-16
4.09928e-17
0
-1.66787e-18
1.07712e-17
-1.13325e-17
-1.5174e-17
2.30505e-17
-2.45104e-17
0
4.63711e-18
-7.87753e-19
-6.53796e-19
6.19737e-16
-6.0365e-16
0
7.60155e-17
6.60756e-17
-5.85583e-17
0
-4.29608e-17
-3.38373e-17
0
-2.69193e-18
0
1.73226e-17
0
0
6.24528e-18
2.28672e-17
-2.99883e-17
0
2.38004e-20
8.99313e-17
-7.96438e-17
5.92418e-17
-3.03897e-16
1.13154e-16
0
8.15475e-18
2.27379e-17
0
-2.08543e-17
5.37562e-17
-5.6474e-17
8.29475e-18
0
-1.47871e-18
0
0
0
4.01648e-20
0
7.36107e-17
0
-1.0022e-16
1.01813e-16
0
3.05089e-17
-2.24315e-17
7.74604e-17
-3.6524e-17
1.13792e-17
-1.69747e-17
1.45992e-17
-2.37454e-17
-3.62328e-18
0
-1.77793e-18
0
2.37369e-16
-4.02354e-16
0
-5.84017e-17
4.93852e-17
0
0
-5.48332e-17
0
-1.76952e-17
-2.44979e-17
-1.04586e-17
1.55631e-17
0
6.40719e-18
0
0
3.72459e-18
-3.92325e-18
0
3.36895e-16
-2.68463e-16
5.40666e-17
-4.57309e-17
-1.68054e-17
4.68087e-17
4.80895e-17
-5.24141e-17
1.66527e-17
2.30839e-18
-1.16092e-17
4.62446e-17
-1.41481e-17
-2.79849e-17
9.06167e-18
-1.94637e-18
1.19028e-18
-3.05885e-19
-5.76647e-16
2.11412e-16
0
0
1.85449e-17
-1.8858e-17
1.08646e-17
5.19174e-18
4.5854e-17
2.06702e-17
-1.95569e-17
-1.51988e-18
-8.55642e-18
6.76828e-18
0
2.53691e-18
1.78399e-18
8.2543e-19
2.76477e-19
0
1.76902e-16
-1.58378e-16
4.94155e-17
4.56867e-17
-8.59624e-18
-2.46174e-17
-1.91583e-17
-5.65374e-17
2.0066e-17
-9.52968e-18
1.49702e-17
8.00131e-18
-8.28396e-18
8.79291e-18
4.4672e-18
-6.11896e-18
-7.62407e-19
0
-3.32945e-17
-1.41996e-16
4.80873e-17
4.1846e-17
-1.32046e-16
9.1193e-17
3.83998e-17
-3.92505e-17
2.59462e-17
-1.90437e-17
0
0
-1.04191e-17
1.78894e-17
-7.38997e-18
5.7451e-18
-6.33043e-18
9.2686e-19
-1.64081e-18
6.14495e-17
5.51413e-17
-4.74569e-17
3.22268e-17
-4.05813e-17
-5.2832e-17
0
0
0
0
0
0
5.29057e-18
-1.20827e-17
1.27788e-17
-3.43695e-18
4.28706e-18
1.81613e-18
-1.52319e-18
1.29225e-16
-2.02547e-16
2.52086e-16
-1.02834e-16
1.44064e-16
-8.81357e-17
1.57504e-16
-8.29903e-17
-3.58531e-17
3.66761e-17
0
7.25664e-18
-5.16861e-18
1.05974e-17
-4.269e-18
-4.4438e-18
-7.84978e-18
6.39729e-19
1.27177e-18
2.02165e-16
5.46048e-17
0
-7.56176e-17
-5.30946e-17
1.16564e-16
7.25996e-18
-3.87831e-17
2.15925e-17
-1.29581e-17
0
-5.74445e-18
0
-3.69309e-18
2.78207e-18
-2.2556e-18
-7.1582e-19
4.54647e-19
0
2.80903e-16
-5.77232e-17
2.25875e-16
-1.75898e-16
-3.18523e-17
1.11457e-16
-6.66186e-17
4.35494e-18
3.19729e-18
-1.27448e-17
1.18053e-17
0
0
4.77577e-18
-1.38337e-18
7.92823e-19
2.58654e-18
-8.93994e-19
0
5.21024e-20
0
-5.12692e-17
2.78874e-16
-1.84836e-16
-1.7215e-16
9.32272e-17
-8.09067e-17
7.25373e-17
3.11241e-17
-2.07506e-17
7.6832e-18
-6.44306e-18
1.3704e-18
8.33108e-18
5.1535e-20
-2.57453e-18
2.50053e-18
-5.28921e-19
6.71938e-16
-2.11655e-16
9.02873e-17
-2.85256e-16
7.11835e-17
-1.00979e-16
5.62015e-17
0
0
-1.90586e-18
-2.90506e-18
-8.39317e-19
0
-7.99011e-18
-5.4888e-18
3.70059e-18
-2.60206e-19
5.8485e-19
1.10023e-18
0
-2.04988e-16
3.25689e-16
5.93156e-17
-2.46154e-16
5.96763e-17
-8.2172e-17
1.94783e-17
6.12038e-17
0
0
1.01447e-18
8.53975e-18
0
-6.14414e-18
-2.5239e-18
3.83709e-19
-1.12427e-18
-1.40084e-18
0
-1.23705e-16
3.92413e-17
2.196e-16
1.44974e-16
-2.58696e-16
1.13129e-16
-6.71003e-17
3.7091e-17
-4.35834e-17
0
0
0
-1.24999e-17
2.43524e-18
-3.61536e-18
0
-2.05692e-19
1.0088e-18
-5.00222e-16
4.6861e-16
4.63322e-16
-5.59316e-16
2.37059e-16
-2.18888e-16
0
7.19254e-17
-9.51191e-17
5.1323e-17
-3.54922e-17
2.63843e-17
1.95684e-17
1.29277e-17
9.40413e-18
0
0
0
0
5.6569e-16
-3.12056e-16
0
0
-8.91617e-17
1.99005e-16
-1.26234e-16
-7.71918e-17
7.63217e-17
4.91887e-17
7.59226e-17
-2.73763e-17
1.12598e-17
7.59176e-18
5.1507e-18
4.37099e-18
6.86207e-18
-3.27586e-19
3.33676e-19
-5.67707e-16
5.10357e-16
2.53259e-16
-1.34519e-16
2.61743e-16
-1.66525e-16
-1.19227e-16
-9.34867e-17
0
-1.03999e-16
7.42141e-18
3.29987e-17
-2.31368e-17
-1.7501e-17
-6.20037e-18
-5.96775e-18
-4.80623e-18
0
0
-1.953e-16
0
1.41147e-16
-9.75593e-21
0
0
1.22986e-16
9.64651e-17
0
5.75983e-17
0
-4.98444e-17
-1.33899e-17
2.30923e-17
0
1.44283e-17
-1.98319e-18
2.02312e-18
0
4.21766e-16
0
2.66075e-16
-4.82704e-16
4.13686e-16
3.05459e-16
-1.413e-17
0
9.61347e-18
7.12287e-17
0
-5.91382e-17
6.19593e-17
-5.39934e-17
-1.15258e-17
-1.14107e-17
-3.60396e-18
-6.93213e-19
-2.85603e-18
-3.80904e-16
5.45587e-16
-1.46859e-16
-3.66752e-16
-2.01492e-16
-1.64105e-16
-2.65102e-16
-9.60449e-17
1.13754e-17
3.06838e-17
-3.06261e-17
8.95408e-17
-3.90273e-17
7.45884e-17
-1.38781e-17
0
1.75823e-17
-1.09428e-17
2.79312e-18
8.67382e-16
-2.41217e-17
-6.12436e-16
4.74127e-16
-4.09558e-16
3.36916e-16
-1.51429e-17
-1.12437e-16
9.22983e-17
3.34816e-17
-5.68585e-18
-7.58754e-17
2.04342e-17
2.56243e-17
-6.99864e-18
7.07847e-18
-1.8211e-17
-3.63086e-18
-5.51636e-18
4.25807e-16
1.71791e-16
2.90361e-16
-2.4294e-16
-1.85598e-16
1.50804e-17
-1.26679e-16
3.02812e-16
1.39397e-17
1.26191e-16
7.1235e-17
-6.18921e-17
0
-4.022e-17
0
0
3.14102e-17
1.31312e-17
6.35486e-18
3.93317e-16
0
2.85229e-16
2.41372e-16
-2.03425e-16
1.68524e-16
0
-1.17152e-16
-1.57357e-16
-1.30447e-16
-7.18655e-17
6.25919e-17
0
0
0
0
-2.95332e-17
-2.54296e-17
0
-7.70259e-16
0
-2.03707e-17
-1.82399e-17
3.12527e-16
-1.62859e-16
-7.21383e-17
-7.28699e-17
1.63095e-16
0
4.11513e-17
-4.21764e-18
4.09094e-17
0
0
5.67504e-17
-4.30315e-18
3.05898e-17
-1.32871e-17
5.37954e-16
1.47507e-16
-1.45985e-16
-1.2306e-16
-4.0103e-16
2.64962e-16
3.06827e-16
-1.27298e-17
-1.14006e-16
1.16777e-16
2.37646e-17
-1.24899e-16
-9.82325e-17
-6.68803e-17
-7.2058e-17
-6.55901e-17
6.10653e-17
-2.82893e-18
1.36088e-17
-1.62997e-16
7.14607e-17
-3.39459e-16
5.44484e-17
-5.42503e-17
0
-1.54335e-16
-1.70012e-17
-1.43269e-16
1.93337e-17
1.39997e-16
9.80915e-17
-2.54618e-17
3.86403e-18
6.81035e-17
0
-1.31497e-16
-5.11841e-17
-1.04829e-18
3.38655e-16
-8.74785e-18
5.34396e-16
-2.47515e-16
6.83413e-19
6.22561e-18
1.84023e-16
-2.1665e-17
1.38947e-16
-1.29708e-16
-1.22743e-16
0
1.35824e-16
1.04326e-16
1.5619e-18
-2.28899e-18
7.31014e-17
5.20115e-17
0
-2.39226e-16
0
-5.0013e-17
2.37793e-16
4.6049e-18
5.27898e-17
-1.77948e-16
1.6617e-16
1.84665e-16
1.77866e-16
1.72786e-16
0
-1.3195e-16
0
7.61834e-18
-7.91232e-18
0
-8.00949e-19
4.01909e-17
1.69904e-16
1.21924e-17
-1.22508e-16
3.83552e-16
-1.21312e-16
0
0
-2.17627e-16
-1.78921e-16
-1.72313e-16
-3.24648e-16
-4.56451e-17
0
0
0
-1.64306e-17
1.73876e-17
1.14184e-16
-4.08178e-17
1.28193e-17
0
-2.75073e-16
-2.42989e-16
2.60167e-16
-2.59204e-16
-3.67632e-16
4.39939e-16
1.29157e-16
0
1.95968e-16
2.33476e-16
-5.03837e-17
2.77909e-16
-4.58277e-17
4.76954e-17
1.88832e-16
-1.08511e-16
0
-3.23011e-16
0
-3.05222e-16
2.97472e-16
0
5.20013e-16
2.41103e-16
-5.16838e-16
4.23006e-16
-2.11456e-18
-1.26014e-16
-2.26052e-16
0
3.27525e-16
-5.44274e-16
5.85726e-16
-7.46839e-16
0
0
3.22552e-16
-3.00748e-18
-7.3577e-18
-6.05655e-16
6.15044e-16
-2.94787e-16
2.93586e-16
2.89474e-16
-2.476e-16
0
0
4.90477e-16
-4.98926e-16
-5.267e-16
5.24124e-16
-5.12124e-16
5.55156e-16
-8.70862e-16
0
)
;

boundaryField
{
    up
    {
        type            calculated;
        value           nonuniform List<scalar> 
84
(
0
0
0
0
-2.87694e-17
5.11888e-17
-2.10509e-17
1.36088e-17
-1.1994e-17
0
-7.13402e-18
6.71692e-18
-3.71532e-18
7.29882e-19
5.49359e-19
2.08537e-18
0
0
-7.99482e-19
6.05644e-19
4.91536e-19
-4.77278e-19
3.90097e-20
0
1.8201e-19
1.06164e-19
-1.52029e-18
0
2.38724e-18
3.24474e-18
4.52368e-19
-8.22049e-19
3.56337e-19
0
-1.52688e-19
6.72356e-19
-7.08096e-19
1.14996e-18
0
-2.23915e-19
0
0
-1.20283e-19
2.33309e-19
-2.2543e-19
4.16053e-19
-7.84061e-19
7.07343e-19
-8.08699e-20
-6.53796e-19
0
0
0
-3.92325e-18
-5.50181e-19
2.76477e-19
0
-1.64081e-18
-1.52319e-18
1.09024e-18
0
0
-5.28921e-19
1.10023e-18
-1.40084e-18
1.0088e-18
0
3.33676e-19
0
0
-2.85603e-18
2.79312e-18
-5.51636e-18
6.35486e-18
0
-1.32871e-17
1.36088e-17
-1.04829e-18
0
4.01909e-17
-4.08178e-17
0
0
0
)
;
    }
    low
    {
        type            calculated;
        value           nonuniform List<scalar> 
84
(
-6.46048e-16
6.41501e-16
-3.08714e-16
4.93858e-16
8.74478e-17
-2.27286e-17
1.89928e-16
2.66748e-17
0
7.90149e-16
-2.00272e-16
1.52295e-16
-1.77976e-16
-1.19466e-15
1.95188e-16
0
-1.81604e-16
2.1018e-17
-2.03841e-17
-1.39492e-16
7.48589e-17
1.94523e-16
3.45839e-16
-2.99165e-16
0
-5.78477e-17
-2.97877e-17
0
-2.73498e-16
-7.88812e-17
-2.71536e-16
-2.93875e-16
3.18108e-16
1.06945e-16
7.34654e-16
5.88097e-17
0
4.87509e-16
4.85965e-16
2.75494e-16
-1.46144e-16
5.83957e-17
5.83978e-17
0
2.32191e-16
5.47037e-16
4.27255e-16
5.21449e-17
0
-1.01766e-15
6.19737e-16
2.38004e-20
4.01648e-20
2.37369e-16
0
-5.74907e-16
0
-3.32945e-17
6.14495e-17
1.28167e-16
2.00362e-16
2.79274e-16
5.21024e-20
6.70703e-16
0
0
-5.00222e-16
5.65257e-16
-5.67496e-16
-1.953e-16
4.21959e-16
-3.80904e-16
8.69384e-16
4.27147e-16
3.93317e-16
-7.70259e-16
5.36491e-16
-1.61443e-16
3.38655e-16
-2.38578e-16
1.69904e-16
1.40393e-17
-3.23011e-16
3.22885e-16
)
;
    }
    left
    {
        type            calculated;
        value           nonuniform List<scalar> 
19
(
-6.45382e-16
-3.11224e-16
3.191e-16
9.87568e-18
-5.99859e-16
0
-2.74908e-16
-2.71137e-16
-2.33999e-17
-1.45178e-16
-1.02993e-18
-1.45253e-16
6.5162e-16
-1.44577e-16
6.73719e-16
5.82832e-16
3.47079e-16
5.10156e-16
0
)
;
    }
    right
    {
        type            calculated;
        value           nonuniform List<scalar> 
19
(
3.22552e-16
-2.68699e-18
-7.3577e-18
-6.0571e-16
6.1533e-16
-2.94787e-16
2.93586e-16
2.89474e-16
-2.4654e-16
0
0
4.95058e-16
-5.05275e-16
-5.267e-16
5.24124e-16
-5.12124e-16
5.55156e-16
-9.41611e-16
0
)
;
    }
    frontAndBackPlanes
    {
        type            empty;
    }
}


// ************************************************************************* //
