/*--------------------------------*- C++ -*----------------------------------*\
  =========                 |
  \\      /  F ield         | OpenFOAM: The Open Source CFD Toolbox
   \\    /   O peration     | Website:  https://openfoam.org
    \\  /    A nd           | Version:  7
     \\/     M anipulation  |
\*---------------------------------------------------------------------------*/
FoamFile
{
    version     2.0;
    format      ascii;
    class       volScalarField;
    location    "0.22";
    object      T;
}
// * * * * * * * * * * * * * * * * * * * * * * * * * * * * * * * * * * * * * //

dimensions      [0 0 0 1 0 0 0];

internalField   nonuniform List<scalar> 
1596
(
0.997125
0.988893
0.980511
0.972647
0.965494
0.95899
0.953004
0.94722
0.941402
0.934996
0.927569
0.91853
0.906599
0.890027
0.866131
0.828986
0.76758
0.65992
0.461921
0.987582
0.961979
0.937953
0.916074
0.896389
0.878609
0.862337
0.846897
0.83169
0.815675
0.79796
0.777455
0.752227
0.719936
0.677731
0.620306
0.539528
0.421457
0.239716
0.976318
0.933307
0.894832
0.860546
0.830025
0.802686
0.777884
0.754726
0.732395
0.709646
0.685406
0.658425
0.626724
0.588081
0.540095
0.478744
0.398607
0.29141
0.141788
0.965233
0.905972
0.854491
0.809312
0.76946
0.734053
0.702238
0.672992
0.645374
0.618076
0.589976
0.559809
0.52573
0.485778
0.438018
0.379467
0.306533
0.214344
0.0939626
0.956078
0.882818
0.819978
0.765288
0.717342
0.675028
0.637343
0.603188
0.571562
0.541152
0.510842
0.479399
0.445127
0.406303
0.361327
0.30791
0.243571
0.165342
0.0678978
0.949974
0.865757
0.793358
0.730402
0.67533
0.626929
0.584122
0.545781
0.510887
0.478148
0.446474
0.414666
0.381155
0.34439
0.302983
0.255077
0.198828
0.132306
0.0521762
0.947051
0.85528
0.775245
0.705198
0.643782
0.589858
0.542368
0.50021
0.462378
0.427621
0.394877
0.362982
0.33046
0.295877
0.257974
0.215148
0.165918
0.1089
0.0418543
0.94662
0.850546
0.764849
0.688895
0.621854
0.562849
0.510948
0.465137
0.424459
0.387718
0.35389
0.32184
0.290166
0.257511
0.222687
0.184248
0.14091
0.0915714
0.034593
0.948014
0.850399
0.760901
0.680205
0.608236
0.54454
0.488427
0.439028
0.395479
0.356658
0.321585
0.289157
0.258029
0.226897
0.194616
0.159831
0.121368
0.0782632
0.0292046
0.949849
0.852486
0.760814
0.676575
0.600483
0.532601
0.472566
0.419718
0.373326
0.332363
0.295907
0.262892
0.23202
0.202031
0.171802
0.140038
0.10562
0.067652
0.0250046
0.951303
0.85492
0.76224
0.675556
0.596206
0.524764
0.46123
0.405199
0.356106
0.313041
0.275152
0.24142
0.210591
0.181444
0.15287
0.123613
0.0925913
0.0589289
0.0216025
0.953086
0.858129
0.765099
0.676692
0.594724
0.520222
0.453549
0.394571
0.342911
0.297789
0.258437
0.223882
0.192918
0.164352
0.137088
0.109898
0.081716
0.0516721
0.0187981
0.954754
0.861415
0.768442
0.678825
0.59476
0.517655
0.448213
0.386565
0.332531
0.28547
0.2447
0.209302
0.178108
0.149953
0.12375
0.0982872
0.0725102
0.0455412
0.0164443
0.955741
0.863716
0.770968
0.680527
0.59483
0.515587
0.443797
0.379839
0.323723
0.274945
0.232911
0.196751
0.165339
0.137529
0.11224
0.0882752
0.0645834
0.0402761
0.0144351
0.956547
0.865457
0.772846
0.68172
0.594659
0.513602
0.439794
0.373835
0.315909
0.26564
0.222515
0.185712
0.154134
0.126654
0.102191
0.0795572
0.0577011
0.0357211
0.0127076
0.957316
0.866924
0.774284
0.682455
0.594137
0.511455
0.435859
0.368144
0.308644
0.257099
0.213065
0.175756
0.144097
0.116971
0.0932925
0.0718757
0.0516661
0.031747
0.0112115
0.957807
0.867839
0.775003
0.682412
0.592884
0.50871
0.431519
0.362272
0.301434
0.248841
0.204102
0.166457
0.134841
0.108137
0.0852493
0.0649892
0.0462953
0.0282351
0.0099014
0.958121
0.868318
0.775114
0.681666
0.590915
0.505312
0.426653
0.356045
0.294066
0.240629
0.195379
0.157564
0.126122
0.0999225
0.0778554
0.0587226
0.0414526
0.0250959
0.00874229
0.958833
0.869274
0.775594
0.681145
0.589051
0.501945
0.421796
0.349856
0.286806
0.232618
0.186961
0.149077
0.117888
0.0922443
0.07101
0.052974
0.0370499
0.0222678
0.00770971
0.959746
0.870648
0.776501
0.680966
0.587419
0.498718
0.417024
0.343741
0.279644
0.224762
0.178769
0.140888
0.110013
0.0849619
0.06457
0.0476088
0.0329753
0.019676
0.00677619
0.960434
0.87183
0.777278
0.680669
0.585651
0.495336
0.412098
0.337497
0.272407
0.216901
0.170649
0.132844
0.102341
0.0779186
0.0583773
0.0424749
0.0290977
0.0172309
0.00591038
0.961149
0.873062
0.778153
0.680497
0.584007
0.492063
0.407266
0.331346
0.265273
0.209163
0.162677
0.12497
0.0948488
0.0710453
0.0523244
0.0374352
0.0252705
0.014815
0.0050698
0.962012
0.874554
0.779353
0.680688
0.582738
0.489157
0.402783
0.32552
0.258437
0.201695
0.154943
0.117294
0.0875067
0.0642594
0.0462767
0.0323026
0.0212619
0.0121971
0.00414309
0.962954
0.876225
0.780795
0.681173
0.581808
0.486624
0.39869
0.320083
0.251966
0.194542
0.147454
0.109776
0.0802223
0.0574185
0.0400403
0.0268165
0.0167141
0.00890343
0.00268401
0.96449
0.879995
0.786111
0.687373
0.588291
0.492881
0.404325
0.324815
0.255627
0.197067
0.148873
0.110205
0.0798383
0.0564287
0.0386594
0.0252423
0.0151438
0.00758291
0.00200501
0.966203
0.884947
0.794053
0.69786
0.600702
0.506477
0.418336
0.33851
0.268378
0.208399
0.158485
0.117991
0.0858668
0.060905
0.0418626
0.0274595
0.0166118
0.00845906
0.00233847
0.967082
0.887992
0.799474
0.705612
0.610496
0.517818
0.430596
0.351009
0.280455
0.219485
0.168148
0.125982
0.09213
0.0655591
0.045151
0.0296697
0.0180069
0.00923664
0.0026064
0.967138
0.889053
0.802203
0.710382
0.617365
0.526559
0.440753
0.361978
0.291572
0.230105
0.177716
0.134099
0.0985938
0.0703772
0.0485123
0.03186
0.0193217
0.00991862
0.00281718
0.966669
0.88873
0.80302
0.713027
0.62217
0.533504
0.449521
0.372038
0.302263
0.24073
0.18762
0.142746
0.105628
0.0756747
0.052187
0.0341948
0.0206618
0.0105718
0.00300128
0.965737
0.887414
0.802576
0.71435
0.625759
0.539473
0.457648
0.381842
0.313098
0.25187
0.198341
0.152394
0.113695
0.0818722
0.0565094
0.0368939
0.0221451
0.0112511
0.00317839
0.964574
0.885751
0.801771
0.715372
0.629175
0.545458
0.466033
0.392187
0.324779
0.264163
0.210486
0.163663
0.123439
0.0896113
0.0620426
0.0403582
0.0239813
0.0120292
0.00336483
0.96374
0.884671
0.801684
0.717213
0.633509
0.552475
0.47559
0.40388
0.338025
0.278272
0.22472
0.177272
0.135685
0.0998219
0.0697371
0.0453914
0.0266629
0.0130679
0.00356264
0.963005
0.883888
0.802083
0.719715
0.638667
0.56048
0.486321
0.416969
0.352942
0.294387
0.241357
0.193728
0.151216
0.113641
0.081069
0.0536168
0.0315728
0.0151036
0.00378539
0.962335
0.88341
0.803035
0.722996
0.644807
0.569661
0.498433
0.431683
0.369789
0.312817
0.260793
0.213592
0.170893
0.132428
0.0981244
0.0679551
0.0422039
0.021404
0.00578104
0.961531
0.882518
0.803207
0.725083
0.649325
0.57682
0.508192
0.443815
0.383948
0.328592
0.27776
0.231341
0.189028
0.15053
0.115648
0.084095
0.055755
0.0308172
0.00944574
0.959966
0.879413
0.799742
0.722115
0.647406
0.576252
0.509068
0.446076
0.387427
0.333051
0.282932
0.236959
0.194844
0.156329
0.121263
0.0893512
0.0604066
0.0343921
0.0110851
0.957853
0.874881
0.794029
0.716071
0.641589
0.570994
0.504528
0.442276
0.384297
0.330451
0.280694
0.234908
0.192821
0.154218
0.119029
0.0870595
0.058256
0.0327325
0.0103703
0.956132
0.871214
0.789432
0.711233
0.636958
0.566834
0.500961
0.439319
0.381896
0.328502
0.279077
0.233507
0.191537
0.152987
0.117838
0.0859426
0.057294
0.0320494
0.01011
0.954962
0.868632
0.786145
0.707746
0.633609
0.563824
0.498385
0.437193
0.380181
0.327127
0.277957
0.232563
0.190701
0.152213
0.117111
0.0852748
0.0567259
0.0316514
0.00996748
0.95409
0.866706
0.783691
0.705142
0.631102
0.561565
0.496444
0.435581
0.378874
0.326073
0.277097
0.231842
0.190069
0.151636
0.116577
0.0847887
0.0563139
0.031364
0.00986697
0.953452
0.865295
0.781899
0.703243
0.629275
0.559911
0.495011
0.434378
0.377883
0.32526
0.276424
0.231271
0.189567
0.151179
0.116156
0.0844078
0.0559916
0.0311383
0.0097868
0.952891
0.864211
0.780611
0.701929
0.628036
0.558802
0.494054
0.433573
0.377219
0.324717
0.275979
0.230903
0.189257
0.150913
0.115925
0.0842103
0.0558322
0.031031
0.00975111
0.952893
0.864215
0.780616
0.701935
0.628043
0.558809
0.494061
0.433581
0.377227
0.324724
0.275985
0.230909
0.189263
0.150917
0.115929
0.0842134
0.0558344
0.0310324
0.00975156
0.953456
0.865305
0.781915
0.703261
0.629295
0.559932
0.495033
0.4344
0.377905
0.325281
0.276444
0.23129
0.189583
0.151194
0.116169
0.0844176
0.0559988
0.0311427
0.00978833
0.954097
0.866723
0.783716
0.705171
0.631135
0.5616
0.496479
0.435617
0.378909
0.326106
0.277128
0.231871
0.190095
0.151659
0.116596
0.0848039
0.0563249
0.0313706
0.00986923
0.954971
0.868654
0.786177
0.707785
0.633652
0.56387
0.498432
0.43724
0.380228
0.327172
0.277999
0.232602
0.190735
0.152243
0.117136
0.0852944
0.0567399
0.0316599
0.00997036
0.956143
0.871241
0.789471
0.71128
0.637011
0.56689
0.501019
0.439378
0.381953
0.328558
0.279129
0.233554
0.191579
0.153023
0.117868
0.085966
0.0573107
0.0320593
0.0101134
0.957866
0.874912
0.794074
0.716126
0.641651
0.57106
0.504596
0.442344
0.384363
0.330515
0.280753
0.234962
0.192868
0.154258
0.119062
0.0870841
0.0582729
0.0327421
0.0103733
0.959979
0.879447
0.799793
0.722177
0.647476
0.576326
0.509144
0.446152
0.387501
0.333121
0.282997
0.237017
0.194893
0.156369
0.121292
0.0893703
0.0604167
0.0343957
0.0110853
0.961548
0.882568
0.803287
0.725188
0.64945
0.576962
0.508346
0.443977
0.384115
0.328761
0.277928
0.231506
0.189189
0.150684
0.115795
0.0842315
0.055874
0.0309057
0.00948349
0.962355
0.883469
0.80313
0.723123
0.64496
0.569837
0.498625
0.431887
0.370001
0.313032
0.261008
0.213803
0.171097
0.132622
0.098303
0.068111
0.042327
0.0214839
0.00580969
0.963021
0.883938
0.802165
0.719826
0.638802
0.560635
0.486489
0.417146
0.353124
0.294569
0.241535
0.193898
0.151375
0.113784
0.0811908
0.0537113
0.0316355
0.0151347
0.00379155
0.963756
0.884718
0.801761
0.717318
0.633638
0.552622
0.475749
0.404046
0.338194
0.278438
0.22488
0.177421
0.135819
0.0999368
0.0698287
0.0454572
0.0267034
0.0130873
0.00356757
0.964588
0.885794
0.801843
0.71547
0.629295
0.545596
0.466183
0.392342
0.324935
0.264314
0.210629
0.163793
0.123552
0.0897047
0.0621141
0.0404078
0.0240115
0.0120443
0.00336903
0.965749
0.887453
0.802642
0.714441
0.625872
0.539601
0.457787
0.381985
0.313241
0.252008
0.198468
0.152508
0.113792
0.0819497
0.0565674
0.0369337
0.0221697
0.0112638
0.00318208
0.966679
0.888765
0.803079
0.71311
0.622273
0.533622
0.449649
0.37217
0.302393
0.240853
0.187733
0.142845
0.105711
0.07574
0.0522355
0.0342282
0.0206828
0.0105829
0.00300463
0.967146
0.889083
0.802256
0.710456
0.617459
0.526666
0.440869
0.362097
0.291689
0.230215
0.177816
0.134185
0.0986648
0.070433
0.0485537
0.0318889
0.0193402
0.00992872
0.00282037
0.967089
0.888018
0.79952
0.705678
0.610579
0.517914
0.4307
0.351115
0.280559
0.219582
0.168235
0.126057
0.0921915
0.0656074
0.0451871
0.0296953
0.0180238
0.00924625
0.00260964
0.966209
0.884969
0.794092
0.697917
0.600775
0.506562
0.418427
0.338603
0.268469
0.208484
0.158561
0.118056
0.0859205
0.0609475
0.0418948
0.0274829
0.0166278
0.00846868
0.00234201
0.964491
0.88
0.786121
0.687389
0.588311
0.492905
0.404351
0.324843
0.255655
0.197093
0.148896
0.110224
0.0798532
0.0564395
0.0386664
0.0252461
0.0151451
0.00758259
0.00200436
0.962951
0.876218
0.780785
0.68116
0.581792
0.486606
0.398672
0.320065
0.251949
0.194527
0.147441
0.109764
0.0802123
0.0574097
0.0400326
0.0268099
0.0167086
0.00889931
0.00268202
0.962012
0.874553
0.779351
0.680686
0.582736
0.489155
0.402781
0.325519
0.258437
0.201696
0.154945
0.117296
0.0875091
0.0642617
0.0462789
0.0323045
0.0212633
0.012198
0.0041433
0.961149
0.873061
0.778152
0.680495
0.584006
0.492062
0.407265
0.331346
0.265273
0.209164
0.162679
0.124972
0.0948508
0.0710472
0.0523261
0.0374365
0.0252715
0.0148155
0.00506995
0.960434
0.87183
0.777277
0.680667
0.58565
0.495335
0.412097
0.337498
0.272408
0.216902
0.170651
0.132846
0.102343
0.0779201
0.0583786
0.0424759
0.0290984
0.0172313
0.00591049
0.959746
0.870647
0.7765
0.680965
0.587418
0.498718
0.417024
0.343741
0.279645
0.224763
0.17877
0.140889
0.110014
0.0849631
0.064571
0.0476096
0.0329758
0.0196763
0.00677627
0.958833
0.869274
0.775593
0.681144
0.58905
0.501945
0.421797
0.349857
0.286807
0.232619
0.186962
0.149079
0.117889
0.0922452
0.0710108
0.0529746
0.0370502
0.0222681
0.00770976
0.958121
0.868318
0.775114
0.681666
0.590915
0.505313
0.426654
0.356045
0.294067
0.24063
0.195379
0.157565
0.126123
0.0999232
0.0778559
0.058723
0.0414529
0.025096
0.00874232
0.957807
0.867839
0.775003
0.682412
0.592885
0.50871
0.43152
0.362272
0.301435
0.248842
0.204103
0.166457
0.134842
0.108137
0.0852496
0.0649895
0.0462955
0.0282352
0.00990141
0.957316
0.866924
0.774284
0.682455
0.594138
0.511455
0.43586
0.368144
0.308645
0.2571
0.213065
0.175756
0.144097
0.116971
0.0932927
0.0718758
0.0516662
0.031747
0.0112115
0.956547
0.865457
0.772846
0.681721
0.59466
0.513602
0.439794
0.373835
0.315909
0.26564
0.222515
0.185712
0.154134
0.126654
0.102191
0.0795571
0.057701
0.035721
0.0127076
0.955741
0.863717
0.770969
0.680528
0.594831
0.515588
0.443798
0.37984
0.323724
0.274946
0.232911
0.196751
0.165339
0.137529
0.11224
0.088275
0.0645832
0.0402759
0.0144351
0.954754
0.861416
0.768443
0.678826
0.594761
0.517655
0.448213
0.386565
0.332531
0.28547
0.2447
0.209302
0.178108
0.149953
0.123749
0.0982868
0.0725099
0.045541
0.0164443
0.953086
0.858129
0.7651
0.676692
0.594725
0.520222
0.453549
0.394571
0.342911
0.297789
0.258436
0.223882
0.192917
0.164351
0.137087
0.109897
0.0817156
0.0516719
0.0187981
0.951303
0.85492
0.76224
0.675557
0.596207
0.524764
0.461229
0.405198
0.356105
0.31304
0.275152
0.241419
0.210591
0.181443
0.152869
0.123613
0.0925909
0.0589288
0.0216026
0.949849
0.852486
0.760814
0.676575
0.600483
0.532601
0.472565
0.419717
0.373326
0.332362
0.295906
0.262891
0.232019
0.20203
0.171801
0.140037
0.10562
0.0676519
0.0250047
0.948014
0.850399
0.760901
0.680205
0.608235
0.544539
0.488426
0.439027
0.395478
0.356657
0.321584
0.289156
0.258028
0.226896
0.194615
0.159831
0.121368
0.0782632
0.0292047
0.94662
0.850546
0.764849
0.688894
0.621853
0.562848
0.510947
0.465135
0.424458
0.387717
0.353889
0.321839
0.290165
0.25751
0.222686
0.184248
0.14091
0.0915715
0.0345931
0.947051
0.85528
0.775244
0.705197
0.643781
0.589857
0.542367
0.500209
0.462377
0.427619
0.394875
0.36298
0.330459
0.295876
0.257973
0.215148
0.165918
0.1089
0.0418544
0.949974
0.865756
0.793358
0.730402
0.675329
0.626928
0.584121
0.54578
0.510886
0.478146
0.446472
0.414665
0.381155
0.344389
0.302983
0.255077
0.198829
0.132306
0.0521763
0.956078
0.882817
0.819977
0.765287
0.717341
0.675027
0.637342
0.603186
0.571561
0.54115
0.510841
0.479398
0.445127
0.406303
0.361327
0.30791
0.243571
0.165342
0.0678979
0.965232
0.905972
0.85449
0.809312
0.769459
0.734052
0.702237
0.672991
0.645373
0.618075
0.589975
0.559808
0.525729
0.485778
0.438018
0.379467
0.306534
0.214344
0.0939626
0.976317
0.933307
0.894832
0.860545
0.830024
0.802685
0.777883
0.754725
0.732394
0.709645
0.685405
0.658424
0.626724
0.588081
0.540095
0.478745
0.398607
0.29141
0.141788
0.987582
0.961979
0.937953
0.916074
0.896388
0.878609
0.862336
0.846896
0.831689
0.815675
0.79796
0.777455
0.752227
0.719936
0.677731
0.620306
0.539528
0.421457
0.239716
0.997125
0.988893
0.980511
0.972647
0.965494
0.95899
0.953004
0.94722
0.941401
0.934996
0.927569
0.91853
0.906599
0.890027
0.866132
0.828986
0.76758
0.65992
0.461921
)
;

boundaryField
{
    up
    {
        type            fixedValue;
        value           uniform 0;
    }
    low
    {
        type            fixedValue;
        value           uniform 1;
    }
    left
    {
        type            fixedValue;
        value           uniform 1;
    }
    right
    {
        type            fixedValue;
        value           uniform 1;
    }
    frontAndBackPlanes
    {
        type            empty;
    }
}


// ************************************************************************* //
