/*--------------------------------*- C++ -*----------------------------------*\
  =========                 |
  \\      /  F ield         | OpenFOAM: The Open Source CFD Toolbox
   \\    /   O peration     | Website:  https://openfoam.org
    \\  /    A nd           | Version:  7
     \\/     M anipulation  |
\*---------------------------------------------------------------------------*/
FoamFile
{
    version     2.0;
    format      ascii;
    class       volScalarField;
    location    "0.23";
    object      T;
}
// * * * * * * * * * * * * * * * * * * * * * * * * * * * * * * * * * * * * * //

dimensions      [0 0 0 1 0 0 0];

internalField   nonuniform List<scalar> 
1596
(
0.99713
0.988908
0.980536
0.97268
0.965534
0.959033
0.953047
0.947259
0.941433
0.935018
0.927581
0.918532
0.906596
0.89002
0.866124
0.828978
0.767573
0.659918
0.461927
0.987601
0.962038
0.938045
0.916193
0.896527
0.878758
0.862487
0.847036
0.831808
0.815764
0.798017
0.777482
0.752232
0.719928
0.677718
0.620294
0.539519
0.421453
0.239715
0.976367
0.933441
0.895034
0.8608
0.830316
0.802999
0.778201
0.755027
0.73266
0.70986
0.685561
0.658521
0.626772
0.588094
0.540089
0.478734
0.398597
0.291403
0.141784
0.96533
0.906223
0.85486
0.809771
0.769984
0.734616
0.702812
0.673545
0.645877
0.618503
0.59031
0.560045
0.525877
0.485854
0.438047
0.379471
0.306528
0.214337
0.0939564
0.956242
0.883225
0.820571
0.766024
0.718181
0.675932
0.638272
0.604096
0.572406
0.541892
0.511452
0.479863
0.44545
0.406503
0.361434
0.307956
0.243583
0.165338
0.0678913
0.950211
0.866344
0.794215
0.731468
0.676551
0.628252
0.585491
0.547138
0.512171
0.479305
0.44746
0.415454
0.381741
0.344788
0.303226
0.255205
0.198882
0.132318
0.0521722
0.947356
0.856047
0.776375
0.706615
0.645418
0.591646
0.544237
0.502086
0.464183
0.429282
0.396332
0.364188
0.331398
0.296554
0.258419
0.215409
0.166046
0.108945
0.0418574
0.946977
0.85147
0.766232
0.690651
0.623903
0.565111
0.51334
0.467568
0.426834
0.389946
0.355888
0.323545
0.291539
0.258546
0.223407
0.184699
0.141153
0.091672
0.0346099
0.948401
0.851442
0.762496
0.68226
0.610664
0.547254
0.491331
0.442018
0.398444
0.359487
0.324173
0.291418
0.259904
0.22836
0.195676
0.160531
0.121771
0.0784459
0.0292438
0.950252
0.853611
0.762573
0.67888
0.603245
0.535726
0.475949
0.423245
0.376872
0.335798
0.299106
0.265745
0.234443
0.203976
0.17326
0.141038
0.106225
0.0679443
0.0250755
0.951714
0.856101
0.764123
0.678064
0.599251
0.52825
0.465048
0.409225
0.360204
0.317065
0.278958
0.244873
0.213585
0.183904
0.154765
0.124957
0.093435
0.0593568
0.0217145
0.953494
0.859337
0.767064
0.679349
0.597996
0.524012
0.457746
0.399045
0.347514
0.302364
0.262821
0.227921
0.19648
0.167338
0.139442
0.111611
0.0828264
0.052257
0.0189598
0.955153
0.862629
0.770454
0.681589
0.598207
0.521694
0.452732
0.39143
0.337587
0.290547
0.24962
0.213892
0.182215
0.153453
0.126562
0.100381
0.0739023
0.0462971
0.0166623
0.956131
0.864927
0.773006
0.683366
0.598413
0.519831
0.44859
0.385044
0.329178
0.28047
0.238314
0.201845
0.169949
0.141512
0.115491
0.0907395
0.0662571
0.0412077
0.014713
0.956927
0.866655
0.774891
0.684607
0.598346
0.518012
0.444818
0.379332
0.32171
0.271557
0.228344
0.191252
0.159195
0.131073
0.105844
0.0823669
0.0596425
0.0368238
0.0130457
0.957682
0.868098
0.776319
0.685365
0.597897
0.515997
0.441076
0.373891
0.314745
0.263355
0.219262
0.18168
0.149546
0.121768
0.0972971
0.0749921
0.0538495
0.0330077
0.0116067
0.958159
0.868985
0.777016
0.685328
0.596694
0.513357
0.436897
0.368233
0.307793
0.255388
0.210611
0.172703
0.140613
0.113247
0.0895453
0.0683621
0.0486842
0.0296327
0.0103475
0.958459
0.869431
0.777094
0.68457
0.594754
0.510039
0.432165
0.362188
0.300646
0.247421
0.202145
0.16407
0.132147
0.105274
0.0823747
0.062293
0.0440022
0.0266032
0.00923062
0.95915
0.870342
0.777522
0.684013
0.592889
0.50672
0.427409
0.356147
0.293567
0.23961
0.193931
0.15578
0.124096
0.0977617
0.0756787
0.0566762
0.0397091
0.0238529
0.00822965
0.960041
0.871662
0.778361
0.683775
0.591228
0.503509
0.422704
0.350144
0.286547
0.231908
0.185888
0.147721
0.116328
0.0905641
0.0693063
0.0513679
0.0356844
0.021301
0.00731512
0.960708
0.872788
0.779061
0.683401
0.589407
0.500115
0.417811
0.343974
0.279409
0.22415
0.177856
0.139736
0.10868
0.083513
0.063086
0.0462015
0.0317834
0.0188483
0.00645255
0.961404
0.873962
0.779852
0.683138
0.587687
0.496798
0.412976
0.337853
0.272322
0.216455
0.1699
0.131836
0.101115
0.0765259
0.0568941
0.0410209
0.0278395
0.0163616
0.005594
0.962248
0.875397
0.780963
0.683225
0.58632
0.493817
0.408446
0.332004
0.26547
0.208955
0.162096
0.124036
0.0935893
0.069504
0.0505771
0.0356151
0.0235913
0.0135796
0.00461331
0.963174
0.877014
0.782317
0.683601
0.585275
0.491178
0.404262
0.326483
0.258907
0.201679
0.154431
0.116275
0.0859915
0.0622868
0.0439215
0.0296977
0.0186425
0.00997195
0.003008
0.964693
0.880724
0.787527
0.68965
0.59157
0.49722
0.409668
0.330983
0.262338
0.203976
0.155623
0.116474
0.0853714
0.0610565
0.0423011
0.0278943
0.0168664
0.00848851
0.00224438
0.966391
0.885618
0.795357
0.699961
0.603741
0.510522
0.423352
0.344344
0.274777
0.215043
0.165031
0.124124
0.0913304
0.0655205
0.045537
0.030175
0.0184118
0.00943537
0.00261589
0.967262
0.888629
0.800702
0.707581
0.613334
0.521594
0.435287
0.356485
0.286491
0.225788
0.174399
0.131879
0.097422
0.0700653
0.0487699
0.0323718
0.0198222
0.0102428
0.00290999
0.967316
0.889676
0.803388
0.712257
0.620042
0.530096
0.44513
0.367083
0.297204
0.236002
0.183588
0.139666
0.103617
0.0746805
0.051991
0.0344766
0.0210958
0.0109155
0.00312645
0.966849
0.889352
0.804182
0.714834
0.624709
0.536819
0.45359
0.376758
0.30746
0.246173
0.193051
0.147911
0.110308
0.0797017
0.0554582
0.036668
0.0223485
0.0115271
0.00330178
0.965923
0.888041
0.803723
0.716097
0.628168
0.54257
0.461405
0.386167
0.317839
0.256828
0.203289
0.15711
0.11798
0.0855718
0.0595251
0.0391812
0.0237094
0.0121398
0.00345979
0.964766
0.886381
0.802897
0.717049
0.631443
0.548326
0.469468
0.396105
0.32905
0.268617
0.21493
0.167904
0.127302
0.0929555
0.0647757
0.0424348
0.0254016
0.0128348
0.00361982
0.963935
0.885292
0.80277
0.718799
0.635614
0.555094
0.478686
0.407379
0.341819
0.282219
0.228658
0.181038
0.139124
0.102808
0.0721837
0.0472524
0.0279338
0.0137843
0.00378656
0.963198
0.884488
0.803111
0.721186
0.640584
0.562831
0.489067
0.420047
0.356263
0.297837
0.244804
0.197037
0.154254
0.116294
0.0832536
0.0552843
0.0327117
0.0157415
0.00398072
0.962522
0.883975
0.803984
0.724329
0.646516
0.571728
0.500822
0.434342
0.372648
0.315788
0.263774
0.216476
0.173571
0.1348
0.100111
0.0695008
0.0432842
0.0220276
0.00598275
0.961707
0.883037
0.804062
0.726263
0.650815
0.578598
0.510224
0.446058
0.386345
0.331077
0.280257
0.23377
0.191308
0.152583
0.117408
0.0855079
0.0567837
0.0314442
0.0096652
0.960128
0.879879
0.800495
0.723137
0.648677
0.577746
0.510754
0.447914
0.389369
0.335042
0.284914
0.238871
0.196626
0.157928
0.12263
0.090448
0.0612058
0.0348791
0.0112544
0.957997
0.875284
0.794669
0.716926
0.642637
0.57221
0.505882
0.443733
0.385816
0.331989
0.282203
0.236343
0.194138
0.155381
0.120006
0.0878285
0.0588043
0.0330579
0.0104793
0.956252
0.871543
0.789948
0.711914
0.637783
0.567781
0.502005
0.440431
0.383043
0.32965
0.280191
0.234554
0.192486
0.153814
0.118524
0.0864749
0.0576684
0.0322686
0.0101825
0.955055
0.868885
0.786539
0.708263
0.634231
0.564533
0.49916
0.438011
0.381019
0.327959
0.278757
0.233309
0.19137
0.15279
0.117584
0.0856382
0.0569786
0.0317978
0.0100154
0.954158
0.866893
0.783982
0.705522
0.631558
0.562082
0.497007
0.436173
0.379476
0.326667
0.277665
0.232367
0.190536
0.152036
0.116902
0.0850358
0.0564839
0.0314614
0.00989848
0.953501
0.865432
0.782114
0.703525
0.629613
0.560295
0.495429
0.434816
0.378327
0.325697
0.276839
0.231653
0.189905
0.151466
0.116387
0.0845818
0.0561101
0.0312055
0.00980826
0.95293
0.864322
0.780786
0.70216
0.628314
0.559118
0.494397
0.433933
0.377584
0.325075
0.276318
0.231214
0.189531
0.151144
0.116111
0.0843492
0.0559261
0.0310839
0.00976781
0.952932
0.864326
0.780792
0.702166
0.628321
0.559125
0.494404
0.43394
0.377591
0.325081
0.276325
0.23122
0.189537
0.151149
0.116115
0.0843521
0.0559283
0.0310851
0.00976824
0.953506
0.865443
0.782129
0.703543
0.629633
0.560316
0.49545
0.434838
0.378349
0.325717
0.276858
0.23167
0.189921
0.15148
0.116399
0.0845914
0.0561171
0.0312098
0.00980975
0.954165
0.86691
0.784006
0.705551
0.631591
0.562116
0.497042
0.436208
0.37951
0.3267
0.277695
0.232395
0.190562
0.152058
0.11692
0.0850504
0.0564945
0.0314677
0.00990067
0.955064
0.868908
0.786571
0.708302
0.634274
0.564578
0.499206
0.438058
0.381064
0.328002
0.278798
0.233346
0.191403
0.152819
0.117609
0.0856572
0.0569921
0.0318059
0.0100181
0.956263
0.871571
0.789987
0.711961
0.637836
0.567837
0.502062
0.440488
0.383098
0.329704
0.280241
0.2346
0.192527
0.153849
0.118553
0.086497
0.0576839
0.0322778
0.0101856
0.95801
0.875315
0.794713
0.71698
0.642698
0.572275
0.505948
0.4438
0.385881
0.332051
0.28226
0.236394
0.194183
0.155417
0.120035
0.0878497
0.0588185
0.0330661
0.0104819
0.960142
0.879913
0.800545
0.723198
0.648746
0.577819
0.510829
0.447989
0.389441
0.33511
0.284975
0.238924
0.19667
0.157961
0.122652
0.0904618
0.0612124
0.0348812
0.0112544
0.961724
0.883087
0.804141
0.726367
0.650939
0.578739
0.510377
0.446218
0.38651
0.331242
0.28042
0.233929
0.191463
0.152733
0.117552
0.0856438
0.0569036
0.0315333
0.0097029
0.962542
0.884034
0.804078
0.724455
0.646669
0.571902
0.501012
0.434544
0.372856
0.315999
0.263985
0.216683
0.173772
0.134993
0.10029
0.0696585
0.0434085
0.022107
0.00601053
0.963215
0.884538
0.803192
0.721295
0.640718
0.562983
0.489233
0.420222
0.356442
0.298015
0.244979
0.197204
0.154411
0.116435
0.0833736
0.0553767
0.0327722
0.0157712
0.00398659
0.96395
0.885338
0.802846
0.718902
0.63574
0.555238
0.478843
0.407543
0.341985
0.282382
0.228815
0.181184
0.139255
0.102921
0.0722728
0.0473158
0.0279727
0.0138036
0.00379211
0.96478
0.886423
0.802967
0.717145
0.631562
0.548462
0.469614
0.396257
0.329203
0.268765
0.21507
0.168031
0.127413
0.0930473
0.0648463
0.0424844
0.0254325
0.012851
0.00362453
0.965934
0.88808
0.803788
0.716186
0.628279
0.542696
0.461541
0.386307
0.317978
0.256961
0.203412
0.15722
0.118074
0.0856485
0.0595834
0.0392221
0.0237354
0.0121536
0.00346383
0.966859
0.889387
0.804241
0.714915
0.62481
0.536935
0.453715
0.376886
0.307586
0.246293
0.19316
0.148008
0.110389
0.079767
0.0555076
0.0367028
0.0223709
0.0115392
0.0033053
0.967324
0.889706
0.803441
0.71233
0.620133
0.530201
0.445243
0.367198
0.297317
0.236109
0.183685
0.139751
0.103688
0.074737
0.0520339
0.0345072
0.0211158
0.0109266
0.00312969
0.967269
0.888655
0.800747
0.707645
0.613415
0.521688
0.435388
0.356588
0.286592
0.225883
0.174484
0.131953
0.0974839
0.0701149
0.048808
0.0323994
0.0198407
0.0102533
0.00291323
0.966396
0.885639
0.795396
0.700018
0.603812
0.510605
0.423441
0.344436
0.274866
0.215126
0.165106
0.124189
0.0913847
0.0655643
0.0455708
0.0301996
0.0184282
0.00944502
0.00261985
0.964693
0.880728
0.787536
0.689665
0.591589
0.497244
0.409694
0.331009
0.262364
0.204
0.155644
0.116492
0.0853857
0.0610671
0.0423079
0.0278974
0.0168661
0.00848671
0.00224415
0.963171
0.877007
0.782307
0.683588
0.58526
0.491161
0.404243
0.326465
0.258889
0.201662
0.154416
0.116262
0.085981
0.0622779
0.0439138
0.029691
0.0186365
0.00996698
0.00300595
0.962248
0.875395
0.780961
0.683223
0.586317
0.493814
0.408444
0.332002
0.265469
0.208955
0.162097
0.124038
0.0935919
0.0695069
0.05058
0.0356177
0.0235934
0.0135808
0.00461336
0.961404
0.873961
0.779851
0.683136
0.587685
0.496797
0.412975
0.337853
0.272322
0.216455
0.169902
0.131838
0.101117
0.0765279
0.0568959
0.0410224
0.0278407
0.0163624
0.00559403
0.960708
0.872787
0.779061
0.683401
0.589406
0.500115
0.417811
0.343975
0.27941
0.224151
0.177857
0.139737
0.108682
0.0835143
0.063087
0.0462022
0.0317839
0.0188486
0.00645256
0.960041
0.871662
0.778361
0.683775
0.591228
0.50351
0.422705
0.350144
0.286548
0.23191
0.185889
0.147722
0.116329
0.0905649
0.0693068
0.0513682
0.0356845
0.0213011
0.00731507
0.95915
0.870342
0.777522
0.684013
0.592889
0.506721
0.42741
0.356149
0.293568
0.239612
0.193933
0.155781
0.124097
0.0977621
0.0756789
0.0566761
0.0397089
0.0238528
0.00822956
0.958459
0.869431
0.777094
0.684571
0.594755
0.51004
0.432166
0.36219
0.300647
0.247422
0.202146
0.164071
0.132148
0.105274
0.0823745
0.0622927
0.0440019
0.0266029
0.0092305
0.958159
0.868985
0.777017
0.685328
0.596696
0.513358
0.436899
0.368235
0.307795
0.255389
0.210612
0.172704
0.140613
0.113247
0.0895449
0.0683616
0.0486837
0.0296324
0.0103474
0.957682
0.868099
0.77632
0.685366
0.597899
0.515999
0.441078
0.373893
0.314747
0.263356
0.219263
0.18168
0.149547
0.121768
0.0972965
0.0749913
0.0538488
0.0330073
0.0116065
0.956927
0.866655
0.774892
0.684608
0.598347
0.518014
0.44482
0.379334
0.321712
0.271558
0.228345
0.191252
0.159195
0.131072
0.105843
0.082366
0.0596418
0.0368235
0.0130454
0.956132
0.864927
0.773007
0.683367
0.598415
0.519833
0.448592
0.385046
0.329179
0.280471
0.238315
0.201845
0.169949
0.141511
0.11549
0.0907384
0.0662564
0.0412073
0.0147128
0.955153
0.86263
0.770455
0.68159
0.598208
0.521695
0.452733
0.391431
0.337588
0.290548
0.24962
0.213892
0.182214
0.153452
0.126561
0.10038
0.0739016
0.0462968
0.0166621
0.953495
0.859338
0.767065
0.679351
0.597997
0.524013
0.457747
0.399045
0.347515
0.302364
0.262821
0.227921
0.196479
0.167336
0.139441
0.11161
0.082826
0.0522569
0.0189597
0.951714
0.856102
0.764124
0.678065
0.599252
0.528251
0.465048
0.409226
0.360204
0.317065
0.278958
0.244873
0.213584
0.183903
0.154765
0.124956
0.0934349
0.059357
0.0217145
0.950252
0.853612
0.762574
0.678881
0.603245
0.535726
0.475949
0.423245
0.376872
0.335798
0.299106
0.265744
0.234442
0.203976
0.17326
0.141038
0.106225
0.0679447
0.0250756
0.948402
0.851442
0.762496
0.68226
0.610664
0.547254
0.49133
0.442017
0.398443
0.359486
0.324173
0.291418
0.259903
0.22836
0.195677
0.160531
0.121771
0.0784465
0.0292441
0.946977
0.85147
0.766232
0.69065
0.623902
0.56511
0.513339
0.467566
0.426833
0.389945
0.355887
0.323544
0.291539
0.258546
0.223408
0.1847
0.141154
0.0916727
0.0346103
0.947356
0.856047
0.776375
0.706614
0.645416
0.591645
0.544236
0.502084
0.464182
0.429281
0.396332
0.364188
0.331399
0.296555
0.258421
0.21541
0.166048
0.108946
0.0418578
0.950211
0.866344
0.794215
0.731467
0.676549
0.628251
0.58549
0.547136
0.51217
0.479304
0.447459
0.415454
0.381742
0.344789
0.303228
0.255207
0.198883
0.132319
0.0521727
0.956241
0.883224
0.82057
0.766022
0.71818
0.675931
0.63827
0.604094
0.572405
0.541891
0.511451
0.479864
0.445451
0.406505
0.361436
0.307958
0.243584
0.165339
0.0678917
0.96533
0.906222
0.854858
0.80977
0.769983
0.734615
0.702811
0.673544
0.645876
0.618502
0.59031
0.560046
0.525878
0.485856
0.438049
0.379472
0.306528
0.214337
0.0939567
0.976367
0.93344
0.895033
0.860799
0.830316
0.802999
0.7782
0.755027
0.732659
0.70986
0.685561
0.658522
0.626772
0.588095
0.54009
0.478734
0.398597
0.291403
0.141784
0.987601
0.962038
0.938045
0.916193
0.896526
0.878758
0.862486
0.847036
0.831808
0.815764
0.798017
0.777483
0.752232
0.719928
0.677718
0.620294
0.539519
0.421453
0.239715
0.99713
0.988908
0.980536
0.97268
0.965533
0.959032
0.953047
0.947259
0.941433
0.935018
0.927581
0.918533
0.906596
0.89002
0.866124
0.828978
0.767574
0.659919
0.461927
)
;

boundaryField
{
    up
    {
        type            fixedValue;
        value           uniform 0;
    }
    low
    {
        type            fixedValue;
        value           uniform 1;
    }
    left
    {
        type            fixedValue;
        value           uniform 1;
    }
    right
    {
        type            fixedValue;
        value           uniform 1;
    }
    frontAndBackPlanes
    {
        type            empty;
    }
}


// ************************************************************************* //
