/*--------------------------------*- C++ -*----------------------------------*\
  =========                 |
  \\      /  F ield         | OpenFOAM: The Open Source CFD Toolbox
   \\    /   O peration     | Website:  https://openfoam.org
    \\  /    A nd           | Version:  7
     \\/     M anipulation  |
\*---------------------------------------------------------------------------*/
FoamFile
{
    version     2.0;
    format      ascii;
    class       volScalarField;
    location    "0.438";
    object      gradTz;
}
// * * * * * * * * * * * * * * * * * * * * * * * * * * * * * * * * * * * * * //

dimensions      [0 -1 0 1 0 0 0];

internalField   nonuniform List<scalar> 
1596
(
-8.06892e-16
-3.94208e-16
3.98367e-16
6.70636e-18
-7.6452e-16
0
-3.60331e-16
-3.55239e-16
-2.0745e-17
-1.85586e-16
-1.89671e-18
-1.84093e-16
8.06589e-16
-1.8152e-16
8.4926e-16
7.31984e-16
4.35152e-16
5.48955e-16
0
8.08446e-16
0
1.15264e-15
-6.54484e-18
-3.58345e-16
3.55836e-16
7.25728e-16
1.95249e-17
3.45201e-16
-1.65687e-16
3.30129e-16
-5.52209e-18
-4.57047e-16
-2.8471e-16
-6.86871e-16
-6.69212e-16
-6.08259e-16
3.45815e-16
0
-3.99492e-16
0
-7.58457e-16
1.04058e-17
7.07077e-16
-1.92737e-16
1.19233e-17
-5.01269e-18
-5.33805e-18
-5.84831e-18
1.29712e-16
0
2.37167e-16
6.74631e-16
-6.63156e-17
5.29036e-17
1.24665e-16
1.93198e-16
0
6.23665e-16
-1.91914e-16
1.91213e-16
0
-1.85218e-16
-1.89651e-16
3.32472e-16
-2.97219e-16
0
0
-9.81347e-17
6.7626e-17
0
-1.9985e-16
-2.57038e-16
1.76483e-16
-1.78252e-16
-9.18992e-18
0
1.08499e-16
2.96757e-16
-2.74192e-16
0
-8.27862e-17
-2.50275e-16
0
3.78442e-16
-3.80859e-17
-3.44243e-17
-2.59861e-17
1.99278e-16
2.4179e-16
2.43359e-17
4.3546e-18
-1.90863e-16
9.65518e-18
8.81234e-17
-3.75401e-17
-2.81755e-17
-4.0799e-16
3.95207e-16
-3.5395e-16
-5.9363e-19
-3.23262e-16
9.15836e-18
-9.18877e-18
-2.61449e-16
0
-2.08792e-17
-2.35031e-16
-2.18658e-16
1.80838e-16
1.80434e-16
-2.47977e-18
-1.0805e-16
-8.93824e-17
6.8049e-17
2.35468e-16
-4.18127e-16
4.80911e-16
2.73186e-16
0
2.4716e-16
1.48999e-16
-7.21885e-17
3.32513e-16
-6.31915e-17
-2.62956e-16
2.61104e-18
-1.58563e-16
-1.81755e-16
-1.44693e-16
1.21235e-16
1.09001e-16
-1.44518e-18
-2.85583e-17
1.78791e-17
6.61495e-16
-8.01418e-16
0
0
-3.16097e-16
0
0
0
2.29757e-16
0
0
1.4467e-16
5.97418e-18
3.46252e-17
-1.0558e-16
0
5.62136e-17
2.14495e-17
0
-4.36781e-16
8.45727e-16
0
0
3.25536e-16
0
-1.30843e-16
1.30711e-16
-2.33859e-16
9.90905e-17
-9.98152e-17
0
1.44277e-16
1.33265e-16
0
-7.70971e-17
-5.7462e-17
-1.86634e-17
1.01314e-15
-4.80143e-16
0
-3.69753e-16
3.65614e-16
0
2.91412e-16
0
0
0
9.45276e-17
-9.49807e-17
0
-1.10987e-16
-3.23595e-17
0
5.43969e-18
4.48086e-17
0
-2.57171e-16
0
0
3.71583e-16
-7.03502e-16
2.77583e-17
1.1583e-17
-1.25237e-16
1.16488e-17
2.38917e-18
-1.01285e-16
-1.67797e-16
0
1.268e-16
-2.44391e-17
2.48059e-17
6.15398e-17
-3.48987e-17
-1.64178e-17
2.2581e-16
-1.71374e-17
2.16311e-16
7.6786e-16
-3.08955e-17
-3.3478e-16
0
0
0
2.0954e-16
8.69729e-17
3.16067e-16
-7.64181e-17
-1.24532e-16
-7.73514e-17
-4.04827e-17
1.78836e-17
-3.85074e-17
1.56932e-17
-2.424e-16
2.37141e-16
-4.44909e-16
-7.58953e-16
7.14897e-16
3.00352e-16
-5.64564e-16
5.05163e-16
-4.50624e-16
1.16984e-16
9.38808e-17
-8.48609e-17
6.01064e-17
-5.19688e-17
1.49736e-16
0
-1.10794e-17
8.06673e-17
-1.19131e-17
-1.5324e-15
7.14841e-16
6.7411e-19
-1.74044e-16
1.61768e-17
2.9307e-16
-5.62784e-16
-2.43793e-16
2.15974e-16
-1.89913e-16
-1.66972e-16
0
-1.95037e-16
-5.84369e-17
-1.06823e-16
-6.3487e-17
5.01932e-18
-5.30192e-17
5.82384e-19
2.50453e-16
-2.28677e-16
5.92616e-19
-1.86487e-16
-4.87586e-16
4.65387e-16
5.86443e-19
2.37576e-16
-2.10279e-16
3.6702e-16
8.71131e-17
7.48118e-17
2.38971e-16
0
2.0232e-16
9.26831e-17
0
2.97892e-17
4.91224e-19
0
2.21843e-16
1.85345e-16
-3.79016e-16
4.73305e-16
-7.28533e-16
5.31081e-16
2.15775e-16
-2.41145e-17
-3.63383e-16
7.13025e-17
-7.09507e-17
-2.24873e-16
9.27177e-17
-4.43417e-17
-9.56536e-17
4.27743e-17
-2.6241e-17
9.52658e-18
-2.33326e-16
8.23057e-16
-6.10223e-16
3.50186e-16
0
0
-1.10919e-16
2.31729e-16
-1.80143e-16
3.43503e-16
0
0
1.55148e-16
-1.37621e-16
-1.02128e-16
3.18928e-17
-3.31402e-17
1.7067e-17
0
1.39554e-17
2.1817e-16
-1.8572e-16
-1.6775e-16
-2.87144e-16
-1.0656e-16
1.32329e-16
0
-1.71365e-16
-1.47069e-16
1.3534e-16
-1.15317e-16
9.7133e-17
0
3.84589e-17
7.9931e-17
0
0
0
-1.32714e-17
3.68529e-16
1.51951e-16
-5.02147e-16
1.45918e-16
1.29993e-16
0
0
1.63677e-16
-8.47268e-17
-1.30903e-16
1.11533e-16
-9.39349e-17
0
-2.72067e-17
2.50101e-17
0
-2.02735e-17
-6.98309e-18
-1.91917e-16
5.633e-16
-6.98574e-16
-2.96838e-16
1.53017e-16
-1.24054e-16
1.09179e-16
0
-8.25092e-17
7.18244e-17
0
0
3.9043e-17
-3.9088e-17
1.24739e-17
-1.50797e-17
3.01722e-17
2.78993e-18
5.14147e-18
9.6273e-17
-8.89933e-17
4.74541e-16
-3.08052e-16
-1.32553e-16
1.29015e-17
2.2024e-16
9.0383e-17
7.89489e-17
0
5.24756e-17
-4.90823e-17
4.09104e-17
-3.60173e-17
4.98522e-17
-8.69217e-17
-2.34578e-17
2.06004e-17
5.65018e-18
2.61794e-16
-2.63255e-16
0
2.68041e-16
-1.38814e-16
-1.12472e-16
8.65406e-17
-2.70664e-16
0
-4.22376e-18
-5.81599e-17
-4.52535e-17
7.02191e-17
-4.59466e-18
-4.81813e-17
3.66221e-17
0
1.40154e-17
-5.48628e-18
4.36698e-16
-7.97037e-17
3.54335e-16
-2.7855e-16
1.67665e-16
2.886e-17
-2.0007e-16
-7.59966e-17
1.40457e-16
-4.53015e-18
-9.40395e-17
8.2322e-17
-3.71326e-17
-5.26795e-17
0
0
0
-1.41558e-17
5.33725e-19
-3.95035e-16
3.86579e-16
2.02093e-19
6.36782e-17
5.71884e-17
-1.46841e-16
1.78855e-16
-1.5507e-16
1.37979e-16
-5.076e-17
9.78976e-17
3.73312e-17
-1.63675e-17
9.6416e-19
-6.81349e-18
-1.20518e-17
0
0
0
0
0
2.01503e-16
-8.96396e-17
-3.17108e-16
0
0
-4.46022e-17
-7.69442e-17
6.72286e-17
0
-4.70815e-17
3.85725e-17
-1.35904e-16
1.58372e-16
-5.4875e-17
5.87099e-17
6.60103e-18
0
-7.6586e-17
7.75286e-17
0
-6.70172e-17
6.82658e-17
1.19572e-16
0
4.50281e-17
6.65331e-17
-2.89319e-16
0
-5.01974e-17
4.12328e-17
3.1847e-17
-2.47276e-17
3.70831e-17
0
-1.43855e-17
0
-3.93564e-17
-4.00474e-17
2.37586e-18
6.88584e-17
-1.91707e-16
0
-5.34278e-17
0
1.67759e-16
7.20314e-17
0
1.98498e-16
-2.16278e-16
1.97146e-17
-5.53969e-17
1.22173e-17
7.04283e-17
2.81091e-17
-2.2239e-17
0
8.22149e-17
-7.50222e-17
9.36414e-17
1.17985e-16
0
1.0954e-16
-1.05198e-16
-8.91747e-17
1.42799e-16
-2.15265e-16
-1.12856e-16
0
0
2.89291e-17
0
0
8.8817e-18
0
-3.60515e-16
2.75901e-16
0
3.23645e-18
-6.96153e-17
-3.97199e-18
6.50868e-17
5.07779e-17
-5.9952e-17
-1.69508e-16
2.84445e-16
-7.58785e-17
0
-4.1143e-17
0
0
0
-3.40854e-17
2.71582e-17
-1.00985e-16
9.65647e-17
2.66516e-16
-2.63234e-16
8.29646e-17
3.84264e-18
-6.61859e-17
5.94487e-17
1.05474e-16
8.4897e-17
-1.68364e-16
0
9.84191e-17
1.86854e-17
-4.70556e-17
-1.1017e-16
9.17037e-17
-1.62114e-17
2.99746e-17
-3.38053e-16
5.06148e-16
-5.04412e-16
9.1771e-17
8.10687e-17
-7.84312e-17
6.72432e-17
-5.61578e-17
0
-5.10248e-17
8.72404e-17
3.7988e-17
6.33628e-17
8.63832e-17
-1.31019e-16
-7.82409e-19
0
-1.17555e-17
3.88503e-18
-3.65557e-16
-1.12189e-16
-2.03451e-16
1.06738e-16
-1.83945e-16
1.6542e-16
-1.00179e-16
8.87465e-17
-4.78532e-18
-4.81824e-18
-8.90422e-17
5.12043e-17
-3.29977e-17
9.85648e-17
-1.0581e-16
1.52312e-17
1.17883e-17
0
-6.608e-18
3.95248e-16
-1.20687e-16
0
0
-1.89636e-16
3.72539e-16
-8.89592e-17
-1.80702e-17
1.52364e-16
-3.83604e-18
0
0
-3.96583e-17
0
-9.01989e-17
2.23452e-16
-1.56666e-16
0
2.53245e-18
1.365e-16
2.59384e-16
0
-1.14666e-16
-9.77269e-17
-8.99818e-17
-9.19732e-17
3.97707e-17
-1.12899e-16
-6.41538e-17
0
0
4.92344e-17
0
0
-1.18957e-16
1.95285e-16
0
0
9.36411e-16
-1.03907e-16
-5.81098e-16
-3.28917e-16
4.45107e-16
1.46648e-16
8.91795e-17
0
-3.43226e-17
3.46351e-17
8.46688e-17
-2.76785e-17
-4.32035e-17
6.74169e-17
-7.17109e-17
-2.32072e-17
0
0
0
7.49879e-17
-6.04579e-16
5.93799e-16
-5.82154e-17
-4.6274e-16
7.31561e-16
-3.7114e-16
0
0
2.12862e-16
-1.76322e-16
0
-5.58241e-17
9.64751e-17
-1.14085e-17
2.86847e-17
8.89081e-18
8.3375e-20
1.97518e-18
0
0
0
5.13589e-16
-3.43767e-16
3.74687e-16
-5.87235e-16
1.6924e-16
0
-6.35507e-17
1.03772e-16
-1.06061e-16
-2.14913e-17
-8.236e-19
-1.50873e-17
-2.37736e-18
-1.198e-17
-3.31775e-18
-1.83298e-18
6.30832e-16
-1.13259e-15
5.40527e-16
0
1.52322e-16
-2.07216e-16
2.14024e-16
-1.69871e-16
0
-8.62252e-17
1.20968e-16
0
0
-6.36547e-19
0
-1.50227e-17
1.03248e-17
2.02617e-18
2.90454e-18
6.05046e-16
0
-2.49961e-16
2.79353e-16
-1.80414e-16
3.96337e-16
-1.88742e-16
-1.51736e-16
1.53321e-16
-1.58123e-17
0
0
1.04168e-17
-1.79988e-17
-1.25916e-17
2.39692e-17
-5.188e-18
2.69906e-18
0
3.43737e-16
2.74531e-16
-6.26817e-18
-2.65688e-16
-2.74001e-17
-2.00886e-16
1.96361e-17
1.71061e-16
-8.97869e-18
1.61092e-17
0
0
-1.06713e-17
0
1.26201e-17
-1.35005e-17
0
1.73189e-18
-4.82379e-19
-1.82493e-16
-1.37555e-16
1.28742e-16
-1.50378e-17
-6.81508e-18
1.8672e-17
0
-5.03865e-18
7.67583e-17
-6.46412e-17
0
2.24586e-17
-4.30054e-18
-1.99412e-17
-1.8316e-18
-1.43205e-18
0
-1.3518e-18
0
7.52162e-17
-1.43768e-16
-2.66721e-18
6.28468e-17
5.8874e-17
-5.8566e-17
-4.24709e-17
4.81124e-17
-1.68567e-17
1.31599e-17
-1.30403e-17
1.34424e-17
0
3.48714e-20
-1.34495e-18
4.85072e-18
-1.66308e-20
0
0
7.52187e-17
-7.49368e-17
-6.25187e-17
5.53335e-17
1.04062e-16
-1.04676e-16
-2.12361e-17
2.12856e-17
-1.69986e-17
1.71773e-17
-1.30406e-17
2.46842e-17
-6.92262e-18
-5.03109e-18
-1.55546e-18
5.1325e-19
1.23277e-18
3.26571e-19
-2.44969e-19
0
-1.79585e-17
1.09073e-16
-1.18101e-16
1.04041e-16
-9.2126e-17
0
7.60712e-17
-6.7969e-17
0
2.60602e-17
-3.30463e-17
-1.90281e-17
1.99427e-17
3.71221e-18
0
0
-1.3519e-18
4.91744e-19
2.9962e-16
-5.54872e-16
5.73018e-16
-5.09539e-16
2.01431e-16
-1.75962e-16
1.66766e-16
2.03176e-17
-7.65855e-17
6.84927e-17
0
-5.11637e-17
4.65212e-17
-8.99197e-18
-3.6361e-18
5.81678e-18
4.28883e-18
1.31244e-18
-4.75136e-19
6.82712e-16
0
-2.82522e-16
2.19389e-16
2.70846e-17
-2.1287e-16
3.80442e-16
-3.42347e-16
1.3516e-16
-5.93295e-17
6.0729e-17
1.21431e-17
2.136e-17
8.75827e-18
-7.43723e-18
-9.17783e-19
-9.32538e-18
0
9.7627e-19
5.542e-16
-6.23812e-16
0
5.9184e-17
2.6159e-16
-2.57027e-16
4.50311e-17
4.05736e-17
1.77874e-17
3.22175e-17
0
0
-3.72115e-17
7.07586e-17
-2.60216e-17
-9.43137e-18
1.03258e-17
8.3395e-19
-1.86636e-18
4.20735e-17
5.47952e-16
-6.49209e-17
-4.54096e-16
3.98344e-16
4.87982e-17
-4.40711e-17
-3.96283e-17
1.34585e-16
-1.66978e-16
1.03792e-16
-1.0608e-16
1.73462e-17
-2.12512e-17
4.04108e-17
-2.68121e-17
0
0
2.02865e-18
0
1.38649e-16
-4.2783e-16
4.88197e-16
-4.09835e-16
4.08859e-16
0
1.50457e-16
-1.51147e-16
-1.18165e-16
1.76431e-16
0
7.6469e-17
-9.65283e-17
-1.43719e-17
0
-1.68659e-18
-3.5502e-18
4.69949e-20
-1.29754e-15
6.24687e-16
0
-4.45009e-16
4.44964e-16
2.84588e-16
-1.87367e-16
8.06792e-17
0
-3.80293e-18
3.04069e-17
-2.76361e-17
-4.31383e-17
6.73018e-17
-7.15642e-17
0
1.66975e-17
-4.1185e-18
-2.19142e-18
8.03475e-16
-7.95191e-16
0
1.15112e-16
1.07326e-16
-9.96081e-17
0
-8.45525e-17
-7.62606e-17
0
-1.80301e-18
0
4.92465e-17
0
0
2.46979e-17
9.40275e-17
-1.20873e-16
0
1.49138e-19
1.20744e-16
-1.14166e-16
9.82611e-17
-4.96969e-16
1.93089e-16
0
1.80811e-17
5.15504e-17
0
-5.59164e-17
1.72587e-16
-1.81313e-16
3.2638e-17
0
-2.53316e-18
0
0
0
1.32147e-19
0
1.05518e-16
0
-1.75541e-16
1.78332e-16
0
7.01215e-17
-5.86994e-17
2.18397e-16
-1.06497e-16
4.13613e-17
-6.91637e-17
6.90672e-17
-1.0591e-16
-1.72954e-17
0
-1.32132e-17
0
3.15325e-16
-5.3247e-16
0
-9.21427e-17
8.5473e-17
0
0
-1.29264e-16
0
-5.10546e-17
-8.72929e-17
-3.80148e-17
6.34121e-17
0
3.87434e-17
0
0
2.94551e-17
-3.33522e-17
0
4.69917e-16
-3.77212e-16
8.53031e-17
-7.91485e-17
-3.45184e-17
1.01287e-16
1.19193e-16
-1.54582e-16
5.02298e-17
1.28886e-18
-5.39994e-17
2.24753e-16
-7.03745e-17
-1.77224e-16
6.30856e-17
-1.79338e-17
1.05871e-17
-3.54127e-18
-7.3945e-16
2.75833e-16
0
0
3.47868e-17
-3.53743e-17
2.85033e-17
2.15487e-17
1.4191e-16
7.75444e-17
-7.8996e-17
-1.11643e-18
-5.02785e-17
4.11694e-17
0
2.34826e-17
1.64377e-17
9.62171e-18
3.20081e-18
0
2.44048e-16
-2.33565e-16
7.61506e-17
8.40019e-17
-1.645e-17
-5.67578e-17
-5.09474e-17
-1.79478e-16
7.74705e-17
-5.37715e-17
6.88505e-17
4.70166e-17
-6.47221e-17
6.86985e-17
4.88057e-17
-6.16735e-17
-8.88708e-18
0
-4.14843e-17
-1.92594e-16
7.11855e-17
6.88747e-17
-2.49651e-16
1.82506e-16
9.97622e-17
-1.01972e-16
8.46207e-17
-7.35233e-17
0
0
-7.61049e-17
1.39768e-16
-6.36213e-17
6.52832e-17
-7.09404e-17
1.24904e-17
-2.2254e-17
7.8748e-17
7.54664e-17
-7.11351e-17
6.06852e-17
-6.76476e-17
-1.13103e-16
0
0
0
0
0
0
3.987e-17
-1.12429e-16
1.18906e-16
-4.22423e-17
5.19301e-17
2.56483e-17
-2.18889e-17
1.61531e-16
-2.90865e-16
3.64988e-16
-1.86352e-16
2.55793e-16
-2.0804e-16
3.98043e-16
-2.33508e-16
-1.41681e-16
1.44933e-16
0
4.70494e-17
-3.89509e-17
1.04809e-16
-3.15705e-17
-4.55375e-17
-1.04627e-16
7.53949e-18
1.88425e-17
2.50475e-16
7.53968e-17
0
-1.27041e-16
-1.08227e-16
2.54472e-16
3.29895e-17
-1.16033e-16
7.1539e-17
-5.62105e-17
0
-3.72449e-17
0
-3.45279e-17
2.89688e-17
-2.73084e-17
-9.19869e-18
6.74731e-18
0
3.51101e-16
-7.97026e-17
3.54207e-16
-2.78461e-16
-6.00107e-17
2.55113e-16
-1.52722e-16
6.02523e-18
5.04719e-18
-5.58637e-17
5.44633e-17
0
0
4.10268e-17
-1.64104e-17
1.12462e-17
3.31784e-17
-1.15087e-17
0
5.73747e-20
0
-7.7248e-17
4.78573e-16
-3.2798e-16
-3.80836e-16
2.10601e-16
-2.46482e-16
2.33403e-16
1.26209e-16
-1.02923e-16
4.39244e-17
-4.04352e-17
6.1032e-18
7.4603e-17
4.03228e-18
-3.08594e-17
3.04782e-17
-6.12368e-18
8.64839e-16
-2.78204e-16
1.49723e-16
-4.55774e-16
1.32552e-16
-2.23308e-16
1.16889e-16
0
0
-4.34491e-18
-5.68717e-18
-1.6572e-18
0
-6.28172e-17
-4.98519e-17
3.78413e-17
-2.79568e-18
4.2713e-18
1.17782e-17
0
-2.81969e-16
5.00677e-16
1.27852e-16
-4.31439e-16
1.24054e-16
-2.06052e-16
2.43851e-17
1.77699e-16
0
0
3.45477e-18
4.71341e-17
0
-4.56152e-17
-2.17973e-17
3.18989e-18
-1.2042e-17
-1.30736e-17
0
-1.83606e-16
2.80637e-17
3.39238e-16
2.77697e-16
-5.20087e-16
2.42692e-16
-1.88875e-16
9.89369e-17
-1.51945e-16
0
0
0
-7.77686e-17
2.44493e-17
-2.73398e-17
0
-1.72649e-18
8.73978e-18
-6.55847e-16
6.27514e-16
7.1394e-16
-8.70162e-16
4.37991e-16
-4.17797e-16
0
1.96911e-16
-2.75231e-16
1.671e-16
-1.38049e-16
1.18258e-16
1.00144e-16
8.04299e-17
6.52011e-17
0
0
0
0
7.13433e-16
-4.26729e-16
0
0
-1.56701e-16
4.0607e-16
-2.61894e-16
-2.06244e-16
2.03919e-16
1.65486e-16
2.89256e-16
-1.22704e-16
5.1257e-17
4.10447e-17
3.17286e-17
2.49231e-17
4.11661e-17
-2.04392e-18
2.08192e-18
-7.28768e-16
6.81673e-16
3.86125e-16
-1.97596e-16
4.73585e-16
-3.06039e-16
-2.58645e-16
-2.28992e-16
0
-3.40905e-16
1.20923e-17
1.33345e-16
-1.10921e-16
-9.27175e-17
-3.41767e-17
-3.74783e-17
-2.97229e-17
0
0
-2.50668e-16
0
2.06354e-16
-5.35993e-19
0
0
2.66801e-16
2.36287e-16
0
1.82271e-16
0
-2.02543e-16
-5.64891e-17
1.02135e-16
0
6.60449e-17
-9.41337e-18
9.6029e-18
0
5.27207e-16
0
4.03769e-16
-7.62764e-16
7.00169e-16
6.006e-16
-1.37471e-17
0
1.30617e-17
2.02859e-16
0
-2.17021e-16
2.51483e-16
-2.24219e-16
-4.91426e-17
-5.34882e-17
-1.52155e-17
-2.62555e-18
-8.74596e-18
-5.02752e-16
7.27609e-16
-2.14608e-16
-5.81541e-16
-3.4967e-16
-3.14716e-16
-5.64106e-16
-2.39683e-16
1.35539e-17
9.40574e-17
-9.38807e-17
3.10165e-16
-1.36465e-16
2.80812e-16
-5.26138e-17
0
5.68595e-17
-3.26874e-17
8.97174e-18
1.08423e-15
-1.78538e-17
-8.80319e-16
7.67864e-16
-7.08131e-16
6.40635e-16
-1.44555e-17
-2.60652e-16
2.34476e-16
9.79945e-17
-1.09962e-17
-2.47918e-16
7.42996e-17
7.09773e-17
-2.27681e-17
2.30278e-17
-5.88926e-17
-3.82718e-18
-1.24532e-17
5.32259e-16
2.34567e-16
4.25838e-16
-3.87105e-16
-3.36888e-16
1.30893e-17
-2.77006e-16
6.75401e-16
1.62873e-17
3.28421e-16
1.94904e-16
-1.73876e-16
0
-1.268e-16
0
0
7.47396e-17
3.37098e-17
1.46214e-17
5.05996e-16
0
4.20556e-16
3.84606e-16
-3.52172e-16
3.20149e-16
0
-2.6528e-16
-3.72031e-16
-3.33421e-16
-1.96629e-16
1.75842e-16
0
0
0
0
-6.99838e-17
-4.86955e-17
0
-9.91574e-16
0
-1.52772e-17
-1.35652e-17
5.32243e-16
-3.13066e-16
-1.45973e-16
-1.46223e-16
3.71498e-16
0
9.90902e-17
-1.08306e-17
8.47755e-17
0
0
1.09594e-16
-8.09239e-18
5.84231e-17
-2.09425e-17
7.0092e-16
2.09799e-16
-2.07633e-16
-1.90175e-16
-6.84556e-16
4.81497e-16
5.93724e-16
-1.02361e-17
-2.50052e-16
2.41818e-16
5.15763e-17
-2.5761e-16
-2.15243e-16
-1.23885e-16
-1.3018e-16
-1.26208e-16
9.96766e-17
-4.74503e-18
2.14495e-17
-2.17571e-16
1.01305e-16
-4.9211e-16
8.78824e-17
-8.75627e-17
0
-2.92601e-16
-1.35798e-17
-2.6958e-16
1.56552e-17
2.62956e-16
1.99266e-16
-4.77061e-17
2.57549e-17
1.24131e-16
0
-2.04312e-16
-7.30564e-17
-1.52814e-18
4.35661e-16
-1.22926e-17
7.72386e-16
-3.7388e-16
5.93629e-19
1.02595e-17
3.10471e-16
-1.7286e-17
2.61448e-16
-2.44907e-16
-2.29544e-16
0
2.18657e-16
1.78107e-16
2.3948e-18
-3.4686e-18
1.09091e-16
7.42675e-17
0
-3.10916e-16
0
-8.18315e-17
3.54833e-16
4.03731e-18
8.28968e-17
-3.00221e-16
2.85434e-16
2.94046e-16
2.80941e-16
2.68707e-16
0
-2.12422e-16
0
1.08486e-17
-1.12672e-17
0
-1.04914e-18
5.11595e-17
2.11739e-16
8.43703e-18
-1.78007e-16
5.43465e-16
-1.76016e-16
0
0
-3.22148e-16
-2.84901e-16
-2.72169e-16
-4.85381e-16
-6.76259e-17
0
0
0
-2.16616e-17
2.29234e-17
1.44966e-16
-5.19317e-17
8.61094e-18
0
-3.73346e-16
-3.48624e-16
3.60671e-16
-3.57254e-16
-5.14578e-16
6.39771e-16
1.72941e-16
0
2.82671e-16
3.12794e-16
-6.75339e-17
3.64225e-16
-5.94554e-17
6.18785e-17
2.38497e-16
-1.37752e-16
0
-4.05733e-16
0
-3.91567e-16
3.84958e-16
0
7.07744e-16
3.34812e-16
-6.95423e-16
5.48842e-16
-4.03001e-18
-1.67384e-16
-3.02849e-16
0
4.0802e-16
-6.8687e-16
7.36175e-16
-9.37919e-16
0
0
4.03355e-16
-1.98907e-18
-4.90727e-18
-7.71415e-16
7.75767e-16
-3.76854e-16
3.75318e-16
3.69777e-16
-3.32693e-16
0
0
6.11212e-16
-6.21742e-16
-6.68367e-16
6.6144e-16
-6.4352e-16
6.95356e-16
-1.08859e-15
0
)
;

boundaryField
{
    up
    {
        type            calculated;
        value           nonuniform List<scalar> 
84
(
0
0
0
0
-3.75401e-17
6.8049e-17
-2.85583e-17
2.14495e-17
-1.86634e-17
0
-1.64178e-17
1.56932e-17
-1.19131e-17
5.82384e-19
4.91224e-19
9.52658e-18
0
0
-6.98309e-18
5.14147e-18
5.65018e-18
-5.48628e-18
5.33725e-19
0
2.30645e-18
9.31113e-19
-2.14231e-17
0
2.71582e-17
3.08948e-17
3.88503e-18
-6.608e-18
2.53245e-18
0
-1.23132e-18
2.0604e-18
-1.8389e-18
2.9055e-18
0
-4.82625e-19
0
0
-2.45212e-19
4.91744e-19
-4.75136e-19
9.7627e-19
-1.86636e-18
2.02865e-18
4.69949e-20
-2.19142e-18
0
0
0
-3.33522e-17
-4.46184e-18
3.20081e-18
0
-2.2254e-17
-2.18889e-17
1.65444e-17
0
0
-6.12368e-18
1.17782e-17
-1.30736e-17
8.73978e-18
0
2.08192e-18
0
0
-8.74596e-18
8.97174e-18
-1.24532e-17
1.46214e-17
0
-2.09425e-17
2.14495e-17
-1.52814e-18
0
5.11595e-17
-5.19317e-17
0
0
0
)
;
    }
    low
    {
        type            calculated;
        value           nonuniform List<scalar> 
84
(
-8.0731e-16
8.08446e-16
-3.98743e-16
6.24278e-16
1.08916e-16
-2.82989e-17
2.36503e-16
1.88632e-17
0
1.01423e-15
-2.57171e-16
2.2529e-16
-2.424e-16
-1.53227e-15
2.50453e-16
0
-2.33326e-16
1.39554e-17
-1.32714e-17
-1.91917e-16
9.6273e-17
2.61794e-16
4.35498e-16
-3.95035e-16
0
-7.6586e-17
-3.93564e-17
0
-3.60515e-16
-1.00985e-16
-3.37168e-16
-3.64804e-16
3.94674e-16
1.365e-16
9.36287e-16
7.49879e-17
0
6.30832e-16
6.06046e-16
3.4431e-16
-1.82808e-16
7.52162e-17
7.52187e-17
0
2.9962e-16
6.83712e-16
5.542e-16
4.26428e-17
0
-1.29742e-15
8.03475e-16
1.49138e-19
1.32147e-19
3.15325e-16
0
-7.38185e-16
0
-4.14843e-17
7.8748e-17
1.60815e-16
2.49204e-16
3.49901e-16
5.73747e-20
8.63798e-16
0
0
-6.55847e-16
7.12812e-16
-7.28303e-16
-2.50668e-16
5.27071e-16
-5.02752e-16
1.08527e-15
5.33064e-16
5.05996e-16
-9.91574e-16
6.99936e-16
-2.16536e-16
4.35661e-16
-3.10499e-16
2.11739e-16
9.3601e-18
-4.05733e-16
4.03564e-16
)
;
    }
    left
    {
        type            calculated;
        value           nonuniform List<scalar> 
19
(
-8.06892e-16
-3.94445e-16
3.98367e-16
6.69904e-18
-7.64683e-16
0
-3.60331e-16
-3.55239e-16
-2.18439e-17
-1.85586e-16
-1.89671e-18
-1.84093e-16
8.14876e-16
-1.8152e-16
8.4926e-16
7.31984e-16
4.35152e-16
6.37666e-16
0
)
;
    }
    right
    {
        type            calculated;
        value           nonuniform List<scalar> 
19
(
4.03355e-16
-1.75163e-18
-4.90727e-18
-7.71408e-16
7.7593e-16
-3.76854e-16
3.75318e-16
3.69777e-16
-3.31594e-16
0
0
6.17083e-16
-6.30029e-16
-6.68367e-16
6.6144e-16
-6.4352e-16
6.95356e-16
-1.1773e-15
0
)
;
    }
    frontAndBackPlanes
    {
        type            empty;
    }
}


// ************************************************************************* //
