/*--------------------------------*- C++ -*----------------------------------*\
  =========                 |
  \\      /  F ield         | OpenFOAM: The Open Source CFD Toolbox
   \\    /   O peration     | Website:  https://openfoam.org
    \\  /    A nd           | Version:  7
     \\/     M anipulation  |
\*---------------------------------------------------------------------------*/
FoamFile
{
    version     2.0;
    format      ascii;
    class       volScalarField;
    location    "0.03";
    object      gradTy;
}
// * * * * * * * * * * * * * * * * * * * * * * * * * * * * * * * * * * * * * //

dimensions      [0 -1 0 1 0 0 0];

internalField   nonuniform List<scalar> 
1596
(
-0.484879
-0.843284
-1.05186
-1.17988
-1.25416
-1.32551
-1.38741
-1.46359
-1.55012
-1.63645
-1.75608
-1.88028
-2.04361
-2.2817
-2.7093
-3.45841
-4.96014
-7.88784
-18.5903
-1.38902
-1.55141
-1.50553
-1.39712
-1.2935
-1.24673
-1.23798
-1.26919
-1.32473
-1.38469
-1.47472
-1.57027
-1.69616
-1.8703
-2.16535
-2.61697
-3.39436
-4.62593
-8.20764
-2.26012
-2.10416
-1.78894
-1.46517
-1.20852
-1.0585
-0.985513
-0.97322
-0.996582
-1.03094
-1.09198
-1.15892
-1.24811
-1.36892
-1.57327
-1.87691
-2.38899
-3.17063
-4.88755
-2.94297
-2.49447
-1.95722
-1.46359
-1.08704
-0.853216
-0.726432
-0.676504
-0.671547
-0.684448
-0.720856
-0.763805
-0.822308
-0.900542
-1.03385
-1.2309
-1.56787
-2.0836
-3.02215
-3.37365
-2.75051
-2.07088
-1.46115
-0.997306
-0.698132
-0.527445
-0.446278
-0.418036
-0.414072
-0.431303
-0.45579
-0.490954
-0.53777
-0.618275
-0.737948
-0.949742
-1.28465
-1.84496
-3.57544
-2.90605
-2.16448
-1.48836
-0.964846
-0.615208
-0.408046
-0.300556
-0.25323
-0.236103
-0.239257
-0.250488
-0.269322
-0.294843
-0.339248
-0.405795
-0.529007
-0.734225
-1.07456
-3.61246
-2.9853
-2.24478
-1.54278
-0.982108
-0.593909
-0.355744
-0.225297
-0.161813
-0.134102
-0.127227
-0.129495
-0.137826
-0.150221
-0.1724
-0.205882
-0.271096
-0.386889
-0.585806
-3.54767
-3.00257
-2.30325
-1.60604
-1.0273
-0.611384
-0.347347
-0.196739
-0.119204
-0.0826276
-0.068558
-0.0649731
-0.0670138
-0.0720218
-0.0819327
-0.0970716
-0.128224
-0.187684
-0.296131
-3.43081
-2.9842
-2.34558
-1.67111
-1.08693
-0.650988
-0.364722
-0.195712
-0.105255
-0.0606777
-0.0410502
-0.0335234
-0.0319019
-0.0330217
-0.0367956
-0.0428727
-0.0562513
-0.0839172
-0.138279
-3.28095
-2.91777
-2.3455
-1.70785
-1.13287
-0.68885
-0.388151
-0.205372
-0.104626
-0.0535006
-0.0296651
-0.0194604
-0.0157282
-0.0148922
-0.0158438
-0.0179048
-0.0230198
-0.0346398
-0.0595604
-3.15662
-2.83982
-2.31952
-1.71879
-1.16004
-0.716562
-0.408514
-0.216819
-0.108741
-0.0527093
-0.0258011
-0.0137675
-0.00879592
-0.0069832
-0.0067127
-0.00716517
-0.00886433
-0.0132663
-0.0236976
-3.0407
-2.76705
-2.28724
-1.71751
-1.1752
-0.735743
-0.424386
-0.227067
-0.113885
-0.0542645
-0.0251278
-0.0118204
-0.00608729
-0.00376911
-0.00298117
-0.00283544
-0.00326284
-0.00474778
-0.00873056
-2.91799
-2.68028
-2.23421
-1.69238
-1.1684
-0.738168
-0.429365
-0.231329
-0.116446
-0.0552934
-0.0251069
-0.0111706
-0.00506952
-0.00252492
-0.00153518
-0.00118574
-0.00118738
-0.00161055
-0.00299354
-2.82681
-2.59977
-2.17208
-1.64993
-1.14257
-0.724338
-0.422714
-0.228407
-0.115165
-0.0546186
-0.0246179
-0.0107111
-0.00459238
-0.00201814
-0.000982117
-0.000580143
-0.000458407
-0.000535295
-0.000967082
-2.75552
-2.53135
-2.10925
-1.59764
-1.10332
-0.697851
-0.406386
-0.219137
-0.110228
-0.0520937
-0.0233453
-0.0100408
-0.00419704
-0.00174074
-0.000746442
-0.000354068
-0.000209178
-0.0001871
-0.000302323
-2.69407
-2.47093
-2.04629
-1.5378
-1.05313
-0.660728
-0.381779
-0.204353
-0.10205
-0.0478672
-0.0212769
-0.00905704
-0.00372769
-0.00150297
-0.000607052
-0.000254598
-0.00011975
-7.69487e-05
-9.7125e-05
-2.65069
-2.41867
-1.98255
-1.4705
-0.992766
-0.614056
-0.349947
-0.184874
-0.0911743
-0.0422462
-0.0185537
-0.00779856
-0.00316401
-0.00125172
-0.000490103
-0.000193629
-8.03609e-05
-3.98437e-05
-3.55686e-05
-2.62694
-2.37777
-1.92091
-1.39883
-0.925574
-0.560962
-0.313406
-0.162465
-0.0786954
-0.0358421
-0.0154837
-0.00640301
-0.00255521
-0.00099287
-0.000380232
-0.000145316
-5.66978e-05
-2.43676e-05
-1.61374e-05
-2.60624
-2.34965
-1.86812
-1.33059
-0.858716
-0.507229
-0.276293
-0.139774
-0.0661475
-0.0294654
-0.0124616
-0.00504823
-0.00197422
-0.000751614
-0.00028167
-0.000104924
-3.94669e-05
-1.57778e-05
-8.75696e-06
-2.58531
-2.3261
-1.81794
-1.26183
-0.790261
-0.452387
-0.238879
-0.117278
-0.0539387
-0.0233838
-0.00963789
-0.00380901
-0.00145446
-0.000540939
-0.000198035
-7.19821e-05
-2.63159e-05
-1.00775e-05
-5.10925e-06
-2.58244
-2.31236
-1.77098
-1.19227
-0.72035
-0.397078
-0.201966
-0.0956519
-0.0425198
-0.0178522
-0.00713953
-0.00274228
-0.00101908
-0.00036925
-0.000131793
-4.67095e-05
-1.66313e-05
-6.16483e-06
-2.96874e-06
-2.58822
-2.30971
-1.73039
-1.12525
-0.652005
-0.343684
-0.167183
-0.0758643
-0.0323971
-0.0131038
-0.00506212
-0.00188257
-0.000678743
-0.000238999
-8.30075e-05
-2.86526e-05
-9.93742e-06
-3.57802e-06
-1.66065e-06
-2.59233
-2.31529
-1.69847
-1.06472
-0.588736
-0.294583
-0.135863
-0.058547
-0.0238204
-0.00921569
-0.00341882
-0.00122541
-0.000427173
-0.00014582
-4.92054e-05
-1.65302e-05
-5.58643e-06
-1.95765e-06
-8.79607e-07
-2.58911
-2.3239
-1.67512
-1.01345
-0.533387
-0.251472
-0.108677
-0.0438099
-0.0167037
-0.00608105
-0.00213311
-0.000726901
-0.000242077
-7.92676e-05
-2.57341e-05
-8.34157e-06
-2.72636e-06
-9.27067e-07
-3.9054e-07
-2.58032
-2.34836
-1.69569
-1.01769
-0.527048
-0.24271
-0.101928
-0.03982
-0.0147299
-0.00523052
-0.0018043
-0.000611787
-0.000205216
-6.8534e-05
-2.2936e-05
-7.74922e-06
-2.66591e-06
-9.68451e-07
-4.1084e-07
-2.5654
-2.37737
-1.74463
-1.06227
-0.556469
-0.257944
-0.108355
-0.0420337
-0.0153329
-0.00534447
-0.00180782
-0.000603996
-0.000201762
-6.81482e-05
-2.34778e-05
-8.31233e-06
-3.05115e-06
-1.20643e-06
-5.64682e-07
-2.55704
-2.39602
-1.79301
-1.11904
-0.602229
-0.286561
-0.123103
-0.0484901
-0.0177743
-0.00614536
-0.00203198
-0.000655511
-0.000210183
-6.85478e-05
-2.32581e-05
-8.36566e-06
-3.25138e-06
-1.42965e-06
-7.66687e-07
-2.56086
-2.40568
-1.83762
-1.18482
-0.663825
-0.330212
-0.148438
-0.0610296
-0.0232002
-0.00822716
-0.0027411
-0.000869387
-0.000265499
-7.97709e-05
-2.43751e-05
-7.95708e-06
-2.99378e-06
-1.46186e-06
-9.70288e-07
-2.57584
-2.41593
-1.88452
-1.26094
-0.741414
-0.389919
-0.186144
-0.081442
-0.0329347
-0.012388
-0.0043462
-0.00143179
-0.000442608
-0.000128517
-3.49521e-05
-8.86801e-06
-2.2117e-06
-9.50541e-07
-1.01255e-06
-2.60503
-2.43168
-1.93542
-1.34498
-0.831594
-0.463872
-0.236307
-0.110816
-0.0481948
-0.0195508
-0.00741216
-0.00264077
-0.000880874
-0.000273316
-7.68713e-05
-1.79322e-05
-1.97198e-06
8.07606e-07
-2.0869e-07
-2.65332
-2.46297
-1.99849
-1.44024
-0.934697
-0.552086
-0.299801
-0.150703
-0.0706179
-0.0310312
-0.0128195
-0.00501246
-0.00185193
-0.000644866
-0.000207995
-5.8467e-05
-9.39033e-06
3.91141e-06
3.62103e-06
-2.69839
-2.50652
-2.07509
-1.54816
-1.05159
-0.655594
-0.378352
-0.203369
-0.102509
-0.0487612
-0.0219624
-0.00944381
-0.00388113
-0.00152867
-0.000574345
-0.000202251
-5.62775e-05
-2.74915e-07
1.41455e-05
-2.75741
-2.56669
-2.16412
-1.66555
-1.17894
-0.772369
-0.471815
-0.270242
-0.146103
-0.0750468
-0.0367713
-0.0173468
-0.00790331
-0.00349945
-0.00151031
-0.000641056
-0.000251886
-6.84232e-05
3.12203e-05
-2.84249
-2.65013
-2.27006
-1.79571
-1.31943
-0.905234
-0.583716
-0.35564
-0.206086
-0.114364
-0.0610934
-0.031744
-0.0161385
-0.00811004
-0.00407321
-0.00209531
-0.00111169
-0.000607719
-0.00030353
-2.94326
-2.74348
-2.37379
-1.91513
-1.44763
-1.02989
-0.693441
-0.444014
-0.271986
-0.160375
-0.0915307
-0.051038
-0.0279805
-0.0152275
-0.00832197
-0.0046741
-0.00276543
-0.00179509
-0.00128465
-3.06777
-2.84228
-2.4638
-2.00548
-1.53873
-1.11727
-0.771373
-0.508655
-0.322141
-0.197044
-0.117089
-0.0681719
-0.039143
-0.0223684
-0.0128755
-0.00762366
-0.00477984
-0.00333898
-0.00270479
-3.22087
-2.95608
-2.55607
-2.08607
-1.61135
-1.18212
-0.827197
-0.554517
-0.358052
-0.223904
-0.13644
-0.0817034
-0.0484095
-0.0286523
-0.0171685
-0.0106399
-0.00702216
-0.00515156
-0.00430793
-3.35958
-3.06014
-2.6394
-2.15711
-1.67418
-1.23787
-0.875503
-0.594809
-0.390266
-0.248604
-0.154715
-0.094855
-0.0576958
-0.035161
-0.021777
-0.01401
-0.00963903
-0.00736684
-0.00636336
-3.46616
-3.14628
-2.71116
-2.21931
-1.72949
-1.28705
-0.918285
-0.630748
-0.419303
-0.271172
-0.171691
-0.10731
-0.0666871
-0.0416254
-0.0264911
-0.017573
-0.0125047
-0.00987129
-0.00874155
-3.55072
-3.21516
-2.76857
-2.26887
-1.77336
-1.32602
-0.952286
-0.659506
-0.442772
-0.289643
-0.185795
-0.117836
-0.0744354
-0.0473202
-0.0307503
-0.0208828
-0.015244
-0.012326
-0.0111145
-3.61328
-3.26516
-2.80905
-2.303
-1.80316
-1.35239
-0.975356
-0.679163
-0.458977
-0.302551
-0.195786
-0.125404
-0.0800991
-0.0515601
-0.0339876
-0.0234552
-0.0174207
-0.0143125
-0.0130566
-3.65873
-3.29424
-2.82951
-2.31892
-1.81664
-1.36433
-0.985993
-0.688437
-0.466804
-0.308925
-0.200822
-0.129294
-0.0830642
-0.0538208
-0.035746
-0.024879
-0.0186478
-0.0154507
-0.0141841
-3.65874
-3.29427
-2.82956
-2.31899
-1.81671
-1.3644
-0.986057
-0.688491
-0.466848
-0.308958
-0.200847
-0.129312
-0.0830772
-0.0538302
-0.0357529
-0.0248842
-0.0186521
-0.0154545
-0.014188
-3.6133
-3.26524
-2.80918
-2.30318
-1.80336
-1.35259
-0.975539
-0.67932
-0.459104
-0.302649
-0.195858
-0.125457
-0.080137
-0.0515873
-0.0340074
-0.0234702
-0.0174329
-0.0143235
-0.0130676
-3.55075
-3.21529
-2.76878
-2.26916
-1.77368
-1.32634
-0.952579
-0.659756
-0.442972
-0.289796
-0.185908
-0.117917
-0.0744932
-0.0473612
-0.0307797
-0.0209048
-0.0152616
-0.0123415
-0.0111297
-3.46621
-3.14644
-2.71144
-2.21969
-1.72991
-1.28748
-0.918671
-0.631074
-0.419563
-0.271368
-0.171835
-0.107411
-0.0667581
-0.0416747
-0.0265258
-0.0175983
-0.0125244
-0.0098883
-0.00875796
-3.35963
-3.06033
-2.63974
-2.15756
-1.6747
-1.23839
-0.875971
-0.5952
-0.390574
-0.248833
-0.15488
-0.0949695
-0.0577739
-0.035214
-0.0218134
-0.0140357
-0.00965842
-0.00738306
-0.00637865
-3.22093
-2.9563
-2.55646
-2.0866
-1.61195
-1.18272
-0.827729
-0.554957
-0.358392
-0.224152
-0.136615
-0.0818217
-0.0484881
-0.028704
-0.0172028
-0.0106633
-0.00703919
-0.00516535
-0.00432069
-3.06783
-2.84255
-2.46428
-2.00614
-1.53947
-1.11801
-0.772022
-0.509181
-0.322538
-0.197327
-0.117282
-0.0682988
-0.0392247
-0.0224205
-0.0129089
-0.00764568
-0.00479528
-0.00335103
-0.00271587
-2.94329
-2.74364
-2.37419
-1.91579
-1.44845
-1.03075
-0.694227
-0.444664
-0.272478
-0.160721
-0.0917611
-0.0511844
-0.0280703
-0.0152814
-0.00835393
-0.00469315
-0.00277747
-0.0018042
-0.00129424
-2.84255
-2.65049
-2.27077
-1.79671
-1.32057
-0.906339
-0.584668
-0.356381
-0.206618
-0.11472
-0.0613201
-0.0318826
-0.016221
-0.00815842
-0.00410166
-0.00211256
-0.00112315
-0.000616411
-0.000310006
-2.75744
-2.56694
-2.16468
-1.66636
-1.17985
-0.773224
-0.472514
-0.270754
-0.146443
-0.0752573
-0.0368933
-0.0174141
-0.00793913
-0.00351798
-0.00151974
-0.000645958
-0.000254617
-6.98579e-05
3.21404e-05
-2.69841
-2.50676
-2.07564
-1.54894
-1.05244
-0.656352
-0.378937
-0.203769
-0.102758
-0.0489034
-0.0220384
-0.00948229
-0.00389976
-0.00153738
-0.000578338
-0.000204081
-5.69446e-05
-9.68042e-08
1.48571e-05
-2.65333
-2.46319
-1.99902
-1.44098
-0.935466
-0.552737
-0.300273
-0.151005
-0.0707921
-0.0311233
-0.0128647
-0.00503333
-0.00186104
-0.000648647
-0.000209511
-5.90536e-05
-9.45796e-06
4.27834e-06
3.93931e-06
-2.60503
-2.43189
-1.93593
-1.34567
-0.83228
-0.464419
-0.236679
-0.111037
-0.0483132
-0.0196085
-0.0074381
-0.00265164
-0.000885112
-0.000274844
-7.73771e-05
-1.80708e-05
-1.92593e-06
9.98858e-07
-1.2827e-07
-2.57582
-2.41612
-1.88499
-1.26157
-0.742007
-0.390365
-0.186427
-0.0815984
-0.033012
-0.0124227
-0.00436049
-0.0014372
-0.000444469
-0.000129082
-3.50908e-05
-8.87928e-06
-2.17442e-06
-8.84959e-07
-1.01577e-06
-2.56085
-2.40586
-1.83805
-1.18537
-0.664319
-0.330561
-0.148644
-0.0611356
-0.0232487
-0.00824726
-0.00274867
-0.000871974
-0.000266282
-7.99677e-05
-2.44072e-05
-7.95164e-06
-2.9813e-06
-1.44985e-06
-9.87867e-07
-2.55702
-2.39617
-1.79339
-1.11951
-0.602622
-0.286821
-0.123247
-0.0485594
-0.017804
-0.00615681
-0.00203598
-0.000656773
-0.000210536
-6.86328e-05
-2.32755e-05
-8.36967e-06
-3.25411e-06
-1.43381e-06
-7.79804e-07
-2.56539
-2.3775
-1.74494
-1.06263
-0.55676
-0.258128
-0.108452
-0.0420778
-0.0153508
-0.00535102
-0.00181001
-0.000604667
-0.000201956
-6.82053e-05
-2.34979e-05
-8.32216e-06
-3.05772e-06
-1.21187e-06
-5.70858e-07
-2.58033
-2.3484
-1.69578
-1.01779
-0.527123
-0.242753
-0.101949
-0.0398285
-0.0147329
-0.00523149
-0.00180459
-0.000611874
-0.000205249
-6.8552e-05
-2.29471e-05
-7.75633e-06
-2.67049e-06
-9.7149e-07
-4.1259e-07
-2.5891
-2.32386
-1.67505
-1.01335
-0.5333
-0.251408
-0.108638
-0.0437885
-0.0166933
-0.00607641
-0.00213117
-0.000726135
-0.000241787
-7.91616e-05
-2.56963e-05
-8.32836e-06
-2.72185e-06
-9.25505e-07
-3.89791e-07
-2.59233
-2.31529
-1.69848
-1.06473
-0.588739
-0.294585
-0.135864
-0.0585476
-0.0238208
-0.00921593
-0.00341894
-0.00122546
-0.000427193
-0.000145825
-4.92067e-05
-1.65303e-05
-5.58627e-06
-1.95749e-06
-8.79425e-07
-2.58822
-2.30971
-1.73039
-1.12525
-0.652006
-0.343683
-0.167183
-0.0758642
-0.0323972
-0.0131039
-0.0050622
-0.00188261
-0.000678764
-0.000239007
-8.30102e-05
-2.86533e-05
-9.93749e-06
-3.57792e-06
-1.66046e-06
-2.58244
-2.31236
-1.77098
-1.19227
-0.720351
-0.397078
-0.201966
-0.0956516
-0.0425198
-0.0178522
-0.00713959
-0.00274233
-0.00101911
-0.000369266
-0.000131801
-4.67127e-05
-1.66325e-05
-6.1652e-06
-2.96878e-06
-2.5853
-2.32609
-1.81794
-1.26183
-0.790262
-0.452387
-0.238878
-0.117278
-0.0539385
-0.0233838
-0.00963794
-0.00380907
-0.00145451
-0.000540968
-0.000198051
-7.19901e-05
-2.6319e-05
-1.00786e-05
-5.10986e-06
-2.60624
-2.34964
-1.86812
-1.33059
-0.858718
-0.50723
-0.276293
-0.139774
-0.0661472
-0.0294652
-0.0124616
-0.0050483
-0.00197429
-0.000751662
-0.000281699
-0.000104938
-3.94713e-05
-1.5779e-05
-8.75863e-06
-2.62693
-2.37777
-1.92091
-1.39884
-0.925576
-0.560963
-0.313406
-0.162464
-0.0786949
-0.035842
-0.0154837
-0.00640311
-0.00255531
-0.000992943
-0.000380277
-0.000145336
-5.66973e-05
-2.43651e-05
-1.61425e-05
-2.65069
-2.41867
-1.98255
-1.4705
-0.992768
-0.614057
-0.349947
-0.184874
-0.0911739
-0.042246
-0.0185538
-0.00779869
-0.00316414
-0.00125182
-0.000490165
-0.000193645
-8.03313e-05
-3.9827e-05
-3.55903e-05
-2.69406
-2.47093
-2.04629
-1.5378
-1.05313
-0.660729
-0.38178
-0.204352
-0.10205
-0.0478671
-0.021277
-0.00905721
-0.00372786
-0.00150309
-0.000607122
-0.00025457
-0.000119621
-7.69003e-05
-9.72216e-05
-2.75551
-2.53135
-2.10925
-1.59764
-1.10333
-0.697852
-0.406387
-0.219137
-0.110228
-0.0520938
-0.0233455
-0.010041
-0.00419724
-0.0017409
-0.000746498
-0.000353893
-0.000208785
-0.00018702
-0.000302694
-2.8268
-2.59977
-2.17208
-1.64993
-1.14257
-0.724339
-0.422714
-0.228408
-0.115165
-0.0546191
-0.0246183
-0.0107114
-0.00459264
-0.00201836
-0.000982093
-0.000579584
-0.000457446
-0.000535299
-0.000968262
-2.91799
-2.68028
-2.23421
-1.69238
-1.1684
-0.738169
-0.429366
-0.231331
-0.116447
-0.0552941
-0.0251074
-0.011171
-0.00506991
-0.00252521
-0.0015349
-0.00118436
-0.00118546
-0.00161109
-0.0029966
-3.04069
-2.76705
-2.28724
-1.71751
-1.1752
-0.735744
-0.424387
-0.227068
-0.113886
-0.0542655
-0.0251284
-0.0118209
-0.00608789
-0.00376942
-0.00298028
-0.00283268
-0.00325986
-0.0047499
-0.00873693
-3.15661
-2.83982
-2.31952
-1.71879
-1.16005
-0.716564
-0.408517
-0.216821
-0.108743
-0.0527106
-0.025802
-0.0137684
-0.00879678
-0.00698324
-0.00671062
-0.00716078
-0.00886118
-0.0132714
-0.0237078
-3.28094
-2.91777
-2.3455
-1.70785
-1.13287
-0.688852
-0.388154
-0.205374
-0.104628
-0.053502
-0.0296662
-0.0194616
-0.0157289
-0.0148912
-0.0158399
-0.0178997
-0.0230191
-0.0346486
-0.0595711
-3.43081
-2.9842
-2.34558
-1.67112
-1.08693
-0.650991
-0.364724
-0.195714
-0.105257
-0.0606788
-0.0410513
-0.0335243
-0.0319014
-0.0330183
-0.0367897
-0.0428695
-0.0562571
-0.0839268
-0.138282
-3.54767
-3.00257
-2.30325
-1.60604
-1.02731
-0.611386
-0.347349
-0.19674
-0.119205
-0.0826283
-0.0685586
-0.0649726
-0.0670106
-0.0720151
-0.0819264
-0.0970747
-0.128239
-0.187688
-0.296113
-3.61246
-2.9853
-2.24478
-1.54278
-0.98211
-0.59391
-0.355745
-0.225297
-0.161813
-0.134102
-0.127226
-0.129491
-0.137819
-0.150212
-0.172397
-0.205894
-0.271116
-0.386878
-0.585764
-3.57544
-2.90605
-2.16448
-1.48836
-0.964847
-0.615208
-0.408045
-0.300555
-0.253229
-0.236101
-0.239254
-0.250481
-0.269313
-0.294836
-0.339252
-0.405815
-0.529023
-0.734199
-1.07451
-3.37366
-2.75051
-2.07088
-1.46115
-0.997307
-0.698131
-0.527444
-0.446276
-0.418033
-0.414068
-0.431297
-0.455781
-0.490946
-0.537769
-0.618289
-0.737967
-0.949744
-1.28462
-1.84493
-2.94298
-2.49447
-1.95722
-1.46359
-1.08703
-0.853215
-0.72643
-0.676501
-0.671544
-0.684443
-0.720848
-0.763798
-0.822306
-0.900551
-1.03387
-1.23091
-1.56785
-2.08359
-3.02217
-2.26013
-2.10417
-1.78895
-1.46517
-1.20852
-1.0585
-0.985511
-0.973217
-0.996579
-1.03093
-1.09197
-1.15892
-1.24811
-1.36894
-1.57328
-1.87691
-2.38896
-3.17064
-4.88759
-1.38903
-1.55141
-1.50553
-1.39712
-1.2935
-1.24673
-1.23798
-1.26918
-1.32473
-1.38469
-1.47472
-1.57027
-1.69617
-1.87032
-2.16535
-2.61696
-3.39433
-4.62594
-8.20767
-0.48488
-0.843285
-1.05186
-1.17988
-1.25416
-1.32551
-1.38741
-1.46359
-1.55012
-1.63645
-1.75608
-1.88028
-2.04362
-2.28171
-2.7093
-3.45839
-4.96012
-7.88783
-18.5903
)
;

boundaryField
{
    up
    {
        type            calculated;
        value           nonuniform List<scalar> 
84
(
-16.8671
-9.10289
-5.4002
-3.34381
-2.05043
-1.20034
-0.657221
-0.333199
-0.155752
-0.0670613
-0.0266167
-0.00976411
-0.00332833
-0.00106502
-0.000327131
-0.000101424
-3.48554e-05
-1.46282e-05
-7.46632e-06
-4.19844e-06
-2.38516e-06
-1.31243e-06
-6.82145e-07
-2.77676e-07
-2.80374e-07
-4.35695e-07
-6.38899e-07
-9.19583e-07
-1.26087e-06
-1.2024e-06
1.99757e-06
1.96158e-05
6.89376e-05
-0.000219383
-0.00117959
-0.00255384
-0.00408932
-0.00611347
-0.00847414
-0.0108434
-0.0127895
-0.0139254
-0.0139292
-0.0128006
-0.0108588
-0.00849064
-0.00612871
-0.00410198
-0.00256488
-0.00118986
-0.000225509
7.14008e-05
2.08081e-05
2.17268e-06
-1.3043e-06
-1.36624e-06
-9.80246e-07
-6.67181e-07
-4.46064e-07
-2.82475e-07
-2.77008e-07
-6.81943e-07
-1.31217e-06
-2.38505e-06
-4.19883e-06
-7.46796e-06
-1.46347e-05
-3.48851e-05
-0.000101552
-0.000327607
-0.00106647
-0.00333198
-0.00977136
-0.0266273
-0.0670702
-0.155748
-0.333168
-0.657166
-1.20029
-2.05042
-3.34387
-5.40027
-9.1029
-16.8671
)
;
    }
    low
    {
        type            calculated;
        value           nonuniform List<scalar> 
84
(
-0.527913
-1.47876
-2.4299
-3.18952
-3.66973
-3.88443
-3.90236
-3.80288
-3.63751
-3.43746
-3.29266
-3.15826
-3.00762
-2.90427
-2.82844
-2.75761
-2.7072
-2.68741
-2.66486
-2.62902
-2.61604
-2.61371
-2.60345
-2.58395
-2.53706
-2.49431
-2.47776
-2.49855
-2.53977
-2.60118
-2.67607
-2.73314
-2.80435
-2.90346
-3.01458
-3.15589
-3.33442
-3.48667
-3.59918
-3.68891
-3.75607
-3.81045
-3.81046
-3.75608
-3.68892
-3.59919
-3.48669
-3.33443
-3.15591
-3.01453
-2.90349
-2.8043
-2.7331
-2.67602
-2.60113
-2.53971
-2.4985
-2.47771
-2.49428
-2.53704
-2.58399
-2.60343
-2.6137
-2.61604
-2.62902
-2.66486
-2.68741
-2.7072
-2.75761
-2.82843
-2.90427
-3.00762
-3.15825
-3.29265
-3.43745
-3.6375
-3.80287
-3.90236
-3.88443
-3.66973
-3.18953
-2.4299
-1.47877
-0.527913
)
;
    }
    left
    {
        type            calculated;
        value           nonuniform List<scalar> 
19
(
-0.481652
-0.844675
-1.06926
-1.21291
-1.29922
-1.37953
-1.44787
-1.5305
-1.62294
-1.71624
-1.8447
-1.97703
-2.15246
-2.414
-2.88913
-3.74147
-5.47372
-8.89154
-17.4554
)
;
    }
    right
    {
        type            calculated;
        value           nonuniform List<scalar> 
19
(
-0.481653
-0.844676
-1.06926
-1.21291
-1.29922
-1.37953
-1.44787
-1.5305
-1.62294
-1.71624
-1.8447
-1.97704
-2.15247
-2.41401
-2.88912
-3.74145
-5.47369
-8.89153
-17.4554
)
;
    }
    frontAndBackPlanes
    {
        type            empty;
    }
}


// ************************************************************************* //
