/*--------------------------------*- C++ -*----------------------------------*\
  =========                 |
  \\      /  F ield         | OpenFOAM: The Open Source CFD Toolbox
   \\    /   O peration     | Website:  https://openfoam.org
    \\  /    A nd           | Version:  7
     \\/     M anipulation  |
\*---------------------------------------------------------------------------*/
FoamFile
{
    version     2.0;
    format      ascii;
    class       volScalarField;
    location    "0.03";
    object      T;
}
// * * * * * * * * * * * * * * * * * * * * * * * * * * * * * * * * * * * * * //

dimensions      [0 0 0 1 0 0 0];

internalField   nonuniform List<scalar> 
1596
(
0.98481
0.943619
0.907473
0.881542
0.865575
0.856774
0.852298
0.84994
0.848855
0.848227
0.848228
0.848803
0.848777
0.846148
0.837143
0.813555
0.762135
0.659646
0.462554
0.938053
0.81721
0.720629
0.654075
0.61368
0.591497
0.580216
0.574601
0.572191
0.571346
0.572108
0.574467
0.577219
0.57819
0.573255
0.553301
0.505122
0.409913
0.239196
0.89249
0.706196
0.564098
0.468247
0.410536
0.379001
0.363101
0.355515
0.352454
0.351704
0.352995
0.356271
0.360786
0.365136
0.366428
0.357426
0.327228
0.26059
0.136779
0.860097
0.628833
0.455847
0.339922
0.270052
0.231786
0.212505
0.203472
0.19985
0.19895
0.200093
0.203069
0.207489
0.21269
0.217147
0.216141
0.201893
0.162637
0.0823295
0.844382
0.588018
0.395836
0.266126
0.187087
0.143289
0.120982
0.110475
0.106098
0.104727
0.105252
0.107248
0.110462
0.114657
0.119239
0.121613
0.116955
0.0969972
0.0496004
0.841989
0.575827
0.372698
0.233097
0.146372
0.0973621
0.0719118
0.059689
0.0543463
0.0523366
0.0521406
0.0531017
0.0549493
0.0575903
0.0608854
0.0636234
0.0632094
0.0544592
0.0288705
0.847186
0.581179
0.372627
0.225642
0.132027
0.077808
0.0489669
0.0347732
0.0283161
0.0256284
0.0248158
0.0250004
0.0258216
0.0271778
0.0290687
0.031014
0.0318071
0.0285653
0.0159052
0.855208
0.594783
0.384443
0.231963
0.132152
0.0727836
0.0403834
0.0240344
0.0163658
0.0130028
0.011708
0.0113979
0.0116022
0.0121576
0.0130572
0.0141326
0.0149014
0.0139439
0.0082004
0.86403
0.611564
0.401554
0.244942
0.139567
0.0751932
0.0391546
0.0205237
0.0115644
0.00751508
0.0058206
0.00520137
0.00507722
0.00521622
0.00556328
0.00605087
0.00651195
0.00632602
0.00393338
0.870868
0.626198
0.41784
0.258659
0.148943
0.0803155
0.0410164
0.020261
0.0100745
0.00537712
0.00334329
0.00251981
0.00222774
0.00217648
0.00226526
0.00244452
0.00265866
0.00266517
0.00174921
0.874778
0.636143
0.430023
0.269782
0.157251
0.0855189
0.0436755
0.0211845
0.0099637
0.00471118
0.00239699
0.00142842
0.00104562
0.000912477
0.000895517
0.00093965
0.00101814
0.00104342
0.000719679
0.878223
0.643914
0.439484
0.27862
0.164112
0.0900761
0.0462739
0.0224078
0.0103503
0.00464256
0.00210089
0.00102307
0.00058467
0.00041473
0.000358052
0.000351112
0.000370065
0.000381928
0.000274474
0.880388
0.648648
0.445191
0.284002
0.168377
0.0929943
0.0480109
0.0232952
0.0107112
0.00471341
0.00202702
0.000881804
0.000412536
0.000226564
0.000156375
0.00013293
0.000130308
0.000132016
9.7464e-05
0.880155
0.648754
0.445686
0.28472
0.169099
0.0935636
0.0483752
0.0234797
0.0107722
0.00470309
0.00198107
0.00082002
0.000344262
0.000155435
8.26519e-05
5.53706e-05
4.65029e-05
4.40038e-05
3.2496e-05
0.878902
0.645713
0.442078
0.281481
0.166658
0.0919446
0.0473987
0.0229298
0.0104751
0.00454382
0.00189229
0.000765568
0.000305943
0.00012447
5.46881e-05
2.81625e-05
1.84089e-05
1.48711e-05
1.03974e-05
0.876991
0.640302
0.435097
0.274826
0.16141
0.0883468
0.0451912
0.0216928
0.0098306
0.00422666
0.00174148
0.000694056
0.00027044
0.000104732
4.16191e-05
1.78212e-05
8.94735e-06
5.59628e-06
3.356e-06
0.873753
0.631842
0.424327
0.264584
0.153339
0.0828276
0.0418237
0.0198244
0.00887277
0.00376727
0.00153204
0.000601754
0.000230218
8.67392e-05
3.28119e-05
1.27601e-05
5.36171e-06
2.58474e-06
1.19925e-06
0.869457
0.62066
0.410201
0.251265
0.142946
0.0757956
0.0375845
0.0175042
0.00770171
0.00321588
0.00128634
0.000496799
0.000186665
6.88482e-05
2.5288e-05
9.36293e-06
3.58674e-06
1.45789e-06
5.2247e-07
0.865806
0.609138
0.39492
0.236654
0.131548
0.0681384
0.0330177
0.0150367
0.00647408
0.00264692
0.00103719
0.000392505
0.00014448
5.21523e-05
1.86933e-05
6.70468e-06
2.44462e-06
9.09438e-07
2.76394e-07
0.862259
0.596879
0.378294
0.220758
0.119288
0.060043
0.0282856
0.0125342
0.00525632
0.00209519
0.000801113
0.000296008
0.000106428
3.75239e-05
1.3127e-05
4.58371e-06
1.61684e-06
5.73503e-07
1.60818e-07
0.85778
0.582621
0.359461
0.203197
0.106116
0.0516022
0.0235025
0.0100823
0.0040994
0.00158663
0.000589861
0.000212154
7.43167e-05
2.55436e-05
8.71323e-06
2.96508e-06
1.01736e-06
3.49582e-07
9.42924e-08
0.853506
0.567727
0.339628
0.184935
0.0927337
0.0432743
0.0189341
0.00781827
0.00306667
0.0011476
0.000413353
0.000144292
4.91291e-05
1.64325e-05
5.45939e-06
1.81019e-06
6.05108e-07
2.02529e-07
5.3388e-08
0.850309
0.55389
0.320446
0.167207
0.0799181
0.0354845
0.0147855
0.00582899
0.00219017
0.000787824
0.00027366
9.23898e-05
3.04975e-05
9.90906e-06
3.20302e-06
1.03439e-06
3.36937e-07
1.09925e-07
2.84555e-08
0.848586
0.542651
0.303742
0.151426
0.0684968
0.0286192
0.0111991
0.00415159
0.00147192
0.000501945
0.000166152
5.37134e-05
1.70505e-05
5.34557e-06
1.6716e-06
5.22655e-07
1.64388e-07
5.09689e-08
1.18281e-08
0.851151
0.542934
0.300906
0.147451
0.0651212
0.0264245
0.0100138
0.00359672
0.00124065
0.000414711
0.000135912
4.39952e-05
1.41429e-05
4.53631e-06
1.46335e-06
4.74256e-07
1.53793e-07
4.72165e-08
8.95627e-09
0.856587
0.553044
0.310204
0.153534
0.0682202
0.0276895
0.0104255
0.00369604
0.00125242
0.000410935
0.000132769
4.28142e-05
1.39289e-05
4.60767e-06
1.56255e-06
5.41839e-07
1.9011e-07
6.29705e-08
1.25929e-08
0.861103
0.565124
0.323931
0.164285
0.0747833
0.030988
0.0118305
0.00420941
0.00141253
0.000452205
0.000140611
4.3312e-05
1.35254e-05
4.38552e-06
1.51111e-06
5.56397e-07
2.15408e-07
7.96758e-08
1.75692e-08
0.86453
0.578425
0.341557
0.1798
0.085335
0.0369137
0.014681
0.00540847
0.00185817
0.000598406
0.000182321
5.31154e-05
1.50715e-05
4.31058e-06
1.32697e-06
4.76126e-07
2.05252e-07
9.08493e-08
2.38202e-08
0.8678
0.593019
0.36239
0.199478
0.0997435
0.0456761
0.0192798
0.00754003
0.00274306
0.000929339
0.000293769
8.63768e-05
2.34261e-05
5.75761e-06
1.26232e-06
2.71777e-07
1.08734e-07
7.65784e-08
3.10242e-08
0.870858
0.607973
0.3848
0.221826
0.117155
0.0570314
0.0257188
0.0107897
0.0042254
0.00154562
0.000528441
0.000167866
4.86955e-05
1.22862e-05
2.2962e-06
4.77716e-08
-1.68065e-07
-2.84003e-08
3.13713e-08
0.874097
0.623232
0.40803
0.245897
0.136931
0.0707789
0.0341008
0.0153742
0.00650986
0.00259283
0.000973523
0.00034357
0.000112661
3.31577e-05
7.83833e-06
7.10963e-07
-6.19242e-07
-3.77784e-07
-1.88811e-08
0.878884
0.640177
0.432862
0.27199
0.15922
0.0871408
0.0447519
0.02165
0.00990716
0.00429983
0.00177732
0.000700343
0.000262073
9.16927e-05
2.86014e-05
6.51839e-06
-9.81458e-08
-1.05108e-06
-2.82958e-07
0.883922
0.656904
0.457514
0.298723
0.183167
0.105785
0.0577386
0.0298997
0.0147572
0.00696708
0.00316461
0.00138864
0.000589785
0.000241763
9.43126e-05
3.28367e-05
8.27594e-06
-1.39125e-07
-1.16314e-06
0.888746
0.672734
0.481313
0.325507
0.208374
0.126598
0.0732313
0.0404902
0.0215023
0.0110148
0.0054803
0.00266497
0.0012735
0.000600562
0.000279972
0.000126686
5.29199e-05
1.76013e-05
2.15964e-06
0.89265
0.685882
0.501646
0.349294
0.231823
0.146996
0.089303
0.0521641
0.0294298
0.0161029
0.00860247
0.00451574
0.00234292
0.00120822
0.000622481
0.000317987
0.000156545
6.7392e-05
1.57968e-05
0.893972
0.69198
0.512231
0.362663
0.245853
0.159925
0.100084
0.0604587
0.0354075
0.0201833
0.0112719
0.00620662
0.00338888
0.00184521
0.00100746
0.000548501
0.000291029
0.00013837
3.87185e-05
0.893296
0.692745
0.515276
0.367622
0.251821
0.165968
0.105518
0.0649272
0.038836
0.0226707
0.013002
0.00737274
0.00415683
0.00234267
0.00132595
0.000748183
0.000410272
0.000200629
5.77049e-05
0.892949
0.693671
0.51808
0.372019
0.2571
0.171367
0.11045
0.0690616
0.0420768
0.0250771
0.0147172
0.00855904
0.00495939
0.00287713
0.00167766
0.000974629
0.000548819
0.000274551
8.07858e-05
0.893199
0.695204
0.521094
0.376207
0.261895
0.176179
0.114826
0.0727429
0.0449892
0.0272685
0.0163052
0.00967843
0.00573276
0.00340368
0.00203196
0.00120753
0.000693868
0.000353047
0.000105651
0.89341
0.696381
0.523379
0.379386
0.265556
0.179887
0.118235
0.075648
0.0473205
0.0290504
0.0176184
0.0106211
0.00639656
0.00386442
0.00234778
0.00141864
0.000827171
0.00042595
0.000128991
0.893442
0.696925
0.524632
0.381271
0.267828
0.182259
0.120467
0.0775881
0.0489052
0.0302821
0.0185413
0.0112946
0.00687854
0.00420426
0.00258414
0.00157861
0.000929113
0.000482029
0.000147033
0.892935
0.696426
0.524535
0.381633
0.268543
0.183165
0.121412
0.0784626
0.049652
0.0308822
0.0190031
0.0116392
0.00712994
0.00438451
0.00271133
0.00166573
0.000985166
0.000513097
0.00015711
0.892939
0.696435
0.524546
0.381646
0.268555
0.183175
0.12142
0.0784693
0.0496569
0.0308858
0.0190056
0.0116409
0.0071311
0.0043853
0.00271186
0.00166609
0.000985399
0.000513228
0.000157155
0.893452
0.69695
0.524667
0.381308
0.267863
0.182291
0.120493
0.0776079
0.0489199
0.0302926
0.0185487
0.0112996
0.00688196
0.00420657
0.0025857
0.00157965
0.000929784
0.00048241
0.000147162
0.893426
0.696422
0.523434
0.379446
0.265614
0.179938
0.118276
0.0756796
0.0473437
0.0290668
0.0176298
0.0106289
0.00640175
0.00386789
0.0023501
0.00142018
0.000828147
0.000426498
0.000129175
0.893221
0.695259
0.521168
0.376289
0.261972
0.176247
0.11488
0.0727846
0.0450196
0.0272897
0.0163196
0.00968809
0.00573915
0.00340788
0.00203471
0.00120932
0.000694994
0.000353673
0.000105858
0.892977
0.69374
0.518174
0.372121
0.257197
0.171451
0.110517
0.0691118
0.0421129
0.0251019
0.0147338
0.00856991
0.00496642
0.00288164
0.00168056
0.000976473
0.000549955
0.000275172
8.09886e-05
0.893329
0.692827
0.515387
0.367742
0.251935
0.166065
0.105594
0.0649839
0.038876
0.0226977
0.0130196
0.00738398
0.0041639
0.00234709
0.00132872
0.0007499
0.000411308
0.000201187
5.78853e-05
0.894009
0.692076
0.512361
0.362803
0.245985
0.160036
0.10017
0.0605215
0.0354507
0.0202116
0.01129
0.00621782
0.00339573
0.00184938
0.00101001
0.000550049
0.000291951
0.000138868
3.88867e-05
0.892699
0.686021
0.501846
0.349517
0.232035
0.147176
0.0894429
0.0522647
0.0294977
0.0161464
0.00862915
0.00453163
0.00235219
0.00121358
0.000625587
0.000319804
0.000157611
6.79766e-05
1.59983e-05
0.888807
0.672898
0.481541
0.325753
0.2086
0.126783
0.0733689
0.0405848
0.0215634
0.0110521
0.0055022
0.00267747
0.0012805
0.000604458
0.000282148
0.000127909
5.3591e-05
1.79167e-05
2.22903e-06
0.883977
0.657053
0.457718
0.298938
0.183357
0.105933
0.0578422
0.0299665
0.0147972
0.00698971
0.00317681
0.001395
0.000593006
0.000243361
9.50902e-05
3.3195e-05
8.41055e-06
-1.32202e-07
-1.20493e-06
0.878936
0.640322
0.433058
0.27219
0.159389
0.0872657
0.0448345
0.0216997
0.00993484
0.00431424
0.00178443
0.000703684
0.000263572
9.2327e-05
2.88411e-05
6.57678e-06
-1.20877e-07
-1.09366e-06
-3.01906e-07
0.874147
0.623372
0.408216
0.24608
0.137078
0.070882
0.0341647
0.0154101
0.00652834
0.00260166
0.000977476
0.000345224
0.000113298
3.33698e-05
7.88133e-06
6.88694e-07
-6.61446e-07
-4.08921e-07
-2.09046e-08
0.870905
0.608106
0.384973
0.22199
0.117281
0.0571142
0.0257668
0.0108148
0.00423732
0.00155083
0.000530545
0.00016864
4.89418e-05
1.23407e-05
2.2881e-06
2.30254e-08
-1.91965e-07
-4.0621e-08
3.41318e-08
0.867843
0.593142
0.362547
0.19962
0.0998469
0.04574
0.0193145
0.0075568
0.00275041
0.000932277
0.000294834
8.6716e-05
2.35113e-05
5.76488e-06
1.25104e-06
2.59547e-07
1.00532e-07
7.43619e-08
3.36311e-08
0.864568
0.578535
0.341694
0.179918
0.0854164
0.0369609
0.0147048
0.00541919
0.00186251
0.00059999
0.000182837
5.32579e-05
1.50995e-05
4.30989e-06
1.3223e-06
4.73038e-07
2.04357e-07
9.17569e-08
2.53411e-08
0.861136
0.565219
0.324045
0.164379
0.0748445
0.0310214
0.0118464
0.00421605
0.00141504
0.000453053
0.000140866
4.33781e-05
1.35391e-05
4.38771e-06
1.51185e-06
5.57439e-07
2.16695e-07
8.0886e-08
1.82909e-08
0.856614
0.553122
0.310294
0.153606
0.0682646
0.0277126
0.0104359
0.00370019
0.00125391
0.000411421
0.000132915
4.28556e-05
1.39415e-05
4.61264e-06
1.56534e-06
5.43714e-07
1.91366e-07
6.3703e-08
1.28498e-08
0.851156
0.542954
0.300929
0.147468
0.0651309
0.026429
0.0100155
0.00359727
0.00124079
0.000414739
0.000135916
4.39963e-05
1.41446e-05
4.53809e-06
1.46475e-06
4.75189e-07
1.54323e-07
4.74421e-08
8.98581e-09
0.848576
0.542633
0.303719
0.151405
0.0684817
0.02861
0.0111942
0.00414923
0.00147088
0.000501519
0.000165987
5.36529e-05
1.70292e-05
5.33845e-06
1.66932e-06
5.21957e-07
1.64174e-07
5.08894e-08
1.17994e-08
0.850309
0.553891
0.320446
0.167207
0.079918
0.0354846
0.0147856
0.00582905
0.00219021
0.000787845
0.000273669
9.23929e-05
3.04984e-05
9.90924e-06
3.20302e-06
1.03436e-06
3.36909e-07
1.09905e-07
2.84471e-08
0.853506
0.567728
0.339629
0.184935
0.0927336
0.0432742
0.0189341
0.0078183
0.00306671
0.00114762
0.000413363
0.000144296
4.91305e-05
1.64329e-05
5.45944e-06
1.81016e-06
6.05075e-07
2.02506e-07
5.33778e-08
0.85778
0.582621
0.359461
0.203197
0.106116
0.0516021
0.0235025
0.0100824
0.00409942
0.00158665
0.000589873
0.00021216
7.43197e-05
2.55448e-05
8.71371e-06
2.96523e-06
1.01739e-06
3.49586e-07
9.42884e-08
0.86226
0.596879
0.378294
0.220759
0.119288
0.060043
0.0282855
0.0125342
0.00525633
0.00209521
0.000801128
0.000296018
0.000106434
3.75268e-05
1.31284e-05
4.58425e-06
1.617e-06
5.73561e-07
1.60833e-07
0.865806
0.609138
0.394921
0.236654
0.131548
0.0681384
0.0330176
0.0150367
0.00647408
0.00264694
0.00103721
0.00039252
0.000144489
5.21576e-05
1.86958e-05
6.70566e-06
2.44484e-06
9.0955e-07
2.76455e-07
0.869457
0.62066
0.410202
0.251266
0.142946
0.0757956
0.0375844
0.0175042
0.00770171
0.0032159
0.00128636
0.000496821
0.00018668
6.88565e-05
2.52918e-05
9.36394e-06
3.58653e-06
1.45801e-06
5.22703e-07
0.873753
0.631842
0.424328
0.264585
0.15334
0.0828276
0.0418236
0.0198243
0.00887278
0.00376731
0.00153208
0.000601785
0.000230238
8.67499e-05
3.28157e-05
1.27591e-05
5.35939e-06
2.58505e-06
1.20028e-06
0.876991
0.640302
0.435097
0.274827
0.16141
0.0883468
0.0451912
0.0216928
0.00983063
0.00422671
0.00174152
0.000694093
0.000270463
0.000104742
4.16182e-05
1.78124e-05
8.93905e-06
5.59869e-06
3.36026e-06
0.878902
0.645714
0.442079
0.281482
0.166658
0.0919447
0.0473987
0.0229299
0.0104752
0.00454389
0.00189235
0.000765607
0.000305963
0.000124472
5.46705e-05
2.81323e-05
1.8389e-05
1.48848e-05
1.04126e-05
0.880156
0.648754
0.445687
0.284721
0.169099
0.0935638
0.0483754
0.0234799
0.0107724
0.00470318
0.00198113
0.000820055
0.00034427
0.00015541
8.25918e-05
5.52958e-05
4.64713e-05
4.40593e-05
3.25405e-05
0.880388
0.648649
0.445192
0.284003
0.168378
0.0929946
0.0480112
0.0232954
0.0107114
0.00471352
0.00202708
0.000881819
0.000412507
0.000226476
0.00015623
0.000132788
0.000130295
0.000132188
9.75711e-05
0.878223
0.643915
0.439484
0.278621
0.164112
0.0900767
0.0462743
0.0224081
0.0103505
0.00464266
0.00210091
0.00102304
0.000584562
0.000414525
0.000357784
0.000350928
0.000370181
0.000382349
0.000274678
0.874779
0.636144
0.430024
0.269783
0.157252
0.0855197
0.0436762
0.0211849
0.00996391
0.00471126
0.00239696
0.0014283
0.00104538
0.000912116
0.000895161
0.000939578
0.00101861
0.00104423
0.000719968
0.870869
0.626199
0.417841
0.25866
0.148944
0.0803164
0.041017
0.0202614
0.0100747
0.00537712
0.00334316
0.00251955
0.00222734
0.00217603
0.00226503
0.00244491
0.00265975
0.00266631
0.00174944
0.864031
0.611565
0.401555
0.244943
0.139568
0.0751939
0.039155
0.0205239
0.0115644
0.00751493
0.00582032
0.00520095
0.00507675
0.00521594
0.00556364
0.00605214
0.00651365
0.00632697
0.00393327
0.855208
0.594783
0.384444
0.231963
0.132153
0.0727839
0.0403835
0.0240344
0.0163656
0.0130024
0.0117076
0.0113975
0.011602
0.012158
0.0130586
0.0141348
0.0149031
0.0139436
0.00819966
0.847186
0.58118
0.372628
0.225642
0.132028
0.077808
0.0489667
0.0347729
0.0283157
0.025628
0.0248154
0.0250002
0.0258219
0.0271791
0.029071
0.0310162
0.0318072
0.0285628
0.0159038
0.841989
0.575827
0.372698
0.233097
0.146371
0.0973616
0.0719113
0.0596884
0.0543457
0.052336
0.0521403
0.0531018
0.0549503
0.0575923
0.0608876
0.0636239
0.0632067
0.0544548
0.0288693
0.844382
0.588017
0.395835
0.266125
0.187086
0.143288
0.120981
0.110474
0.106097
0.104727
0.105252
0.107248
0.110463
0.114659
0.119239
0.12161
0.116949
0.096993
0.0496003
0.860096
0.628832
0.455845
0.339921
0.270051
0.231785
0.212504
0.203471
0.199849
0.19895
0.200093
0.20307
0.20749
0.21269
0.217144
0.216136
0.201888
0.162636
0.0823308
0.89249
0.706195
0.564097
0.468246
0.410535
0.379
0.3631
0.355514
0.352453
0.351704
0.352995
0.356271
0.360786
0.365133
0.366424
0.357421
0.327227
0.260594
0.136781
0.938053
0.81721
0.720628
0.654074
0.613679
0.591496
0.580215
0.5746
0.572191
0.571346
0.572108
0.574466
0.577218
0.578187
0.573252
0.5533
0.505125
0.409917
0.239196
0.98481
0.943619
0.907472
0.881542
0.865575
0.856774
0.852298
0.849939
0.848855
0.848227
0.848228
0.848802
0.848776
0.846147
0.837143
0.813556
0.762137
0.659647
0.462554
)
;

boundaryField
{
    up
    {
        type            fixedValue;
        value           uniform 0;
    }
    low
    {
        type            fixedValue;
        value           uniform 1;
    }
    left
    {
        type            fixedValue;
        value           uniform 1;
    }
    right
    {
        type            fixedValue;
        value           uniform 1;
    }
    frontAndBackPlanes
    {
        type            empty;
    }
}


// ************************************************************************* //
