/*--------------------------------*- C++ -*----------------------------------*\
  =========                 |
  \\      /  F ield         | OpenFOAM: The Open Source CFD Toolbox
   \\    /   O peration     | Website:  https://openfoam.org
    \\  /    A nd           | Version:  7
     \\/     M anipulation  |
\*---------------------------------------------------------------------------*/
FoamFile
{
    version     2.0;
    format      ascii;
    class       volScalarField;
    location    "0.27";
    object      gradTy;
}
// * * * * * * * * * * * * * * * * * * * * * * * * * * * * * * * * * * * * * //

dimensions      [0 -1 0 1 0 0 0];

internalField   nonuniform List<scalar> 
1596
(
-0.168504
-0.313509
-0.433469
-0.550285
-0.664432
-0.79069
-0.92339
-1.07957
-1.26639
-1.48914
-1.79408
-2.18183
-2.71672
-3.47543
-4.64971
-6.47628
-9.73324
-15.7365
-37.1749
-0.513613
-0.634825
-0.719562
-0.800257
-0.880908
-0.977674
-1.08575
-1.22057
-1.38875
-1.59175
-1.86786
-2.21335
-2.6711
-3.27596
-4.12609
-5.27178
-6.97238
-9.47048
-16.5605
-0.919871
-0.962532
-0.991337
-1.0275
-1.07047
-1.13393
-1.21212
-1.31832
-1.45726
-1.62776
-1.86097
-2.14896
-2.52113
-2.9935
-3.62543
-4.42511
-5.53329
-7.05235
-10.3142
-1.34657
-1.28234
-1.24386
-1.23041
-1.23306
-1.26063
-1.30581
-1.3792
-1.48363
-1.61624
-1.80216
-2.03125
-2.32401
-2.68685
-3.15718
-3.72701
-4.47881
-5.45504
-7.12972
-1.74125
-1.57612
-1.47176
-1.40887
-1.37125
-1.3624
-1.37371
-1.41298
-1.48157
-1.57569
-1.71555
-1.89056
-2.11534
-2.39159
-2.74392
-3.15914
-3.68874
-4.34822
-5.3116
-2.05615
-1.82624
-1.67004
-1.56378
-1.48909
-1.44553
-1.42415
-1.43022
-1.46409
-1.52175
-1.61932
-1.74691
-1.91515
-2.12356
-2.3889
-2.69734
-3.08256
-3.54773
-4.15945
-2.2649
-2.01873
-1.83363
-1.69546
-1.59007
-1.51572
-1.4645
-1.43978
-1.4415
-1.46586
-1.52566
-1.61233
-1.73368
-1.88835
-2.08802
-2.32002
-2.60703
-2.94672
-3.36543
-2.36654
-2.14488
-1.95634
-1.80134
-1.67442
-1.57531
-1.49858
-1.44666
-1.41964
-1.41435
-1.4409
-1.49236
-1.57451
-1.68575
-1.83438
-2.00945
-2.22649
-2.48099
-2.78316
-2.38046
-2.21372
-2.04381
-1.88696
-1.74818
-1.63087
-1.53324
-1.45784
-1.40543
-1.3738
-1.37107
-1.39192
-1.44075
-1.51602
-1.62371
-1.75455
-1.91927
-2.11261
-2.3379
-2.3232
-2.21606
-2.0796
-1.93554
-1.79638
-1.66974
-1.55788
-1.46441
-1.39124
-1.33737
-1.30964
-1.3043
-1.32483
-1.37
-1.44426
-1.53993
-1.66452
-1.81283
-1.98505
-2.24949
-2.18525
-2.0828
-1.95848
-1.82675
-1.69785
-1.57747
-1.47072
-1.38094
-1.3085
-1.25955
-1.23178
-1.22818
-1.24789
-1.29433
-1.36119
-1.45377
-1.5672
-1.70022
-2.1565
-2.13654
-2.06743
-1.96547
-1.84555
-1.7192
-1.59462
-1.47841
-1.37537
-1.28733
-1.22019
-1.17299
-1.14849
-1.14627
-1.16909
-1.21179
-1.27814
-1.36373
-1.46666
-2.04002
-2.05975
-2.02348
-1.94598
-1.84171
-1.72272
-1.59871
-1.47757
-1.36541
-1.26545
-1.18369
-1.1204
-1.07838
-1.05769
-1.06074
-1.08339
-1.12841
-1.1919
-1.27172
-1.93541
-1.97816
-1.96801
-1.91304
-1.82503
-1.71553
-1.59484
-1.47174
-1.35346
-1.24437
-1.15085
-1.07422
-1.01748
-0.981183
-0.967589
-0.973406
-1.00076
-1.04624
-1.10768
-1.83773
-1.89869
-1.90879
-1.873
-1.80021
-1.70075
-1.58481
-1.46171
-1.33946
-1.22344
-1.12046
-1.03278
-0.963688
-0.914208
-0.886583
-0.878245
-0.89091
-0.921628
-0.96832
-1.74149
-1.81966
-1.84693
-1.82754
-1.76848
-1.67887
-1.56842
-1.44667
-1.32215
-1.20106
-1.09064
-0.993945
-0.914619
-0.854128
-0.814777
-0.794626
-0.795146
-0.813806
-0.848674
-1.65377
-1.74368
-1.78491
-1.77934
-1.73226
-1.65171
-1.54681
-1.42711
-1.30148
-1.17674
-1.06053
-0.956578
-0.868864
-0.799262
-0.750184
-0.720233
-0.710754
-0.71959
-0.744961
-1.57646
-1.67436
-1.72656
-1.73238
-1.69545
-1.62276
-1.52289
-1.40529
-1.27907
-1.15154
-1.03067
-0.920777
-0.826118
-0.748919
-0.691708
-0.65356
-0.635783
-0.636565
-0.654273
-1.4991
-1.61102
-1.67456
-1.69072
-1.66267
-1.59671
-1.50106
-1.38513
-1.25823
-1.12813
-1.00311
-0.887981
-0.787252
-0.703425
-0.639118
-0.593818
-0.568879
-0.562848
-0.574257
-1.41979
-1.54752
-1.62366
-1.65025
-1.63062
-1.57087
-1.4791
-1.36473
-1.23733
-1.10509
-0.97657
-0.857026
-0.751159
-0.661665
-0.591193
-0.539549
-0.508241
-0.496291
-0.50252
-1.35183
-1.48998
-1.5777
-1.61429
-1.60252
-1.54835
-1.45988
-1.34668
-1.21864
-1.08434
-0.952634
-0.829177
-0.718821
-0.62435
-0.54832
-0.490672
-0.453089
-0.435292
-0.436843
-1.29177
-1.43953
-1.5378
-1.58384
-1.57949
-1.53041
-1.4448
-1.33246
-1.20359
-1.06725
-0.93255
-0.805526
-0.691165
-0.592268
-0.511141
-0.447511
-0.402965
-0.378043
-0.37415
-1.23675
-1.39536
-1.50405
-1.55916
-1.56185
-1.51752
-1.43447
-1.3228
-1.19307
-1.05477
-0.91727
-0.786979
-0.669034
-0.566261
-0.480618
-0.411162
-0.358535
-0.323022
-0.3093
-1.1882
-1.35781
-1.47617
-1.53891
-1.54693
-1.50542
-1.42322
-1.31066
-1.17883
-1.03776
-0.896695
-0.762815
-0.641308
-0.535164
-0.4459
-0.371992
-0.311681
-0.261675
-0.219758
-1.14931
-1.32912
-1.45872
-1.53274
-1.55198
-1.52094
-1.4484
-1.34403
-1.21863
-1.0823
-0.943323
-0.809575
-0.686086
-0.576774
-0.483445
-0.405579
-0.340125
-0.282141
-0.223348
-1.12278
-1.30857
-1.44421
-1.5253
-1.55258
-1.53009
-1.46618
-1.36986
-1.25127
-1.12015
-0.983768
-0.850073
-0.724068
-0.610345
-0.511612
-0.429282
-0.361456
-0.305545
-0.256534
-1.12286
-1.30978
-1.44761
-1.53252
-1.56519
-1.54967
-1.49369
-1.40583
-1.29547
-1.17151
-1.04047
-0.90936
-0.782808
-0.665641
-0.561602
-0.473592
-0.401242
-0.343071
-0.294939
-1.15258
-1.33549
-1.47044
-1.55435
-1.58815
-1.57612
-1.52561
-1.44481
-1.34239
-1.22636
-1.10228
-0.975883
-0.850785
-0.731397
-0.622103
-0.527381
-0.448725
-0.385988
-0.335597
-1.20908
-1.38514
-1.51289
-1.59155
-1.62276
-1.61117
-1.56391
-1.48884
-1.39395
-1.28648
-1.17091
-1.05159
-0.93054
-0.810884
-0.696808
-0.594222
-0.506981
-0.437104
-0.381843
-1.29103
-1.45473
-1.57106
-1.64096
-1.66666
-1.65317
-1.60751
-1.53718
-1.44961
-1.35136
-1.246
-1.13666
-1.02343
-0.907202
-0.790476
-0.679645
-0.581104
-0.500565
-0.437298
-1.39746
-1.54335
-1.64547
-1.70423
-1.72236
-1.70523
-1.65983
-1.5933
-1.51254
-1.42369
-1.32972
-1.23307
-1.13216
-1.02513
-0.910854
-0.793809
-0.681329
-0.584435
-0.507618
-1.51393
-1.64449
-1.73167
-1.77787
-1.7871
-1.76521
-1.71918
-1.6557
-1.58119
-1.50154
-1.41948
-1.33768
-1.25395
-1.16443
-1.0632
-0.949328
-0.825395
-0.705089
-0.603456
-1.64783
-1.76052
-1.8304
-1.86213
-1.86098
-1.83318
-1.78553
-1.72413
-1.65483
-1.58326
-1.5121
-1.44505
-1.38101
-1.31671
-1.24342
-1.15448
-1.03988
-0.902791
-0.749308
-1.80505
-1.89541
-1.94551
-1.96152
-1.94963
-1.91617
-1.86744
-1.80881
-1.74536
-1.68227
-1.62233
-1.57013
-1.52694
-1.49338
-1.46427
-1.43506
-1.39006
-1.31998
-1.21421
-1.98114
-2.04507
-2.07006
-2.06516
-2.03736
-1.99291
-1.93711
-1.87457
-1.80937
-1.74538
-1.68525
-1.63249
-1.58926
-1.55826
-1.54033
-1.53862
-1.54946
-1.56917
-1.58969
-2.18123
-2.2086
-2.20277
-2.17366
-2.12776
-2.07067
-2.00651
-1.9392
-1.87198
-1.80757
-1.74863
-1.69721
-1.65505
-1.62361
-1.60421
-1.59836
-1.6078
-1.6346
-1.6815
-2.4029
-2.38462
-2.34585
-2.29295
-2.23029
-2.16198
-2.09095
-2.02026
-1.95239
-1.88934
-1.83333
-1.7855
-1.74686
-1.71766
-1.69786
-1.68601
-1.68103
-1.68051
-1.68247
-2.60875
-2.54618
-2.47586
-2.40011
-2.32111
-2.24134
-2.16271
-2.08728
-2.0168
-1.95263
-1.89624
-1.8483
-1.80917
-1.77863
-1.75624
-1.74063
-1.73079
-1.72509
-1.72219
-2.77878
-2.68313
-2.5876
-2.49302
-2.40036
-2.31093
-2.22581
-2.14622
-2.07332
-2.00793
-1.95103
-1.90297
-1.86378
-1.8331
-1.81036
-1.79437
-1.7841
-1.77815
-1.77521
-2.91574
-2.79345
-2.67768
-2.56803
-2.46446
-2.3673
-2.27694
-2.19395
-2.11901
-2.05257
-1.99522
-1.94715
-1.90818
-1.87784
-1.85551
-1.84006
-1.8304
-1.82522
-1.82323
-3.01557
-2.87306
-2.74194
-2.62113
-2.50966
-2.40701
-2.31296
-2.2276
-2.15126
-2.08414
-2.02656
-1.97863
-1.94003
-1.91022
-1.88851
-1.87377
-1.86482
-1.86033
-1.85892
-3.07911
-2.91812
-2.77623
-2.64867
-2.53281
-2.42724
-2.33131
-2.24478
-2.16777
-2.10035
-2.04274
-1.99498
-1.95669
-1.92734
-1.90621
-1.89223
-1.88419
-1.88077
-1.8806
-3.07913
-2.91815
-2.77627
-2.64871
-2.53285
-2.42728
-2.33135
-2.24482
-2.16781
-2.1004
-2.04279
-1.99503
-1.95674
-1.92739
-1.90626
-1.89229
-1.88424
-1.88083
-1.88066
-3.01559
-2.87312
-2.74202
-2.62122
-2.50976
-2.40711
-2.31307
-2.22772
-2.15138
-2.08426
-2.02669
-1.97876
-1.94016
-1.91036
-1.88865
-1.87394
-1.86499
-1.86052
-1.85913
-2.91578
-2.79354
-2.6778
-2.56817
-2.46462
-2.36747
-2.27712
-2.19413
-2.1192
-2.05277
-1.99542
-1.94736
-1.90839
-1.87807
-1.85574
-1.84031
-1.83067
-1.82551
-1.82354
-2.77884
-2.68325
-2.58775
-2.4932
-2.40057
-2.31115
-2.22603
-2.14645
-2.07356
-2.00818
-1.95128
-1.90323
-1.86406
-1.83338
-1.81065
-1.79467
-1.78441
-1.77847
-1.77554
-2.60881
-2.54631
-2.47604
-2.40032
-2.32134
-2.24159
-2.16298
-2.08756
-2.01709
-1.95293
-1.89655
-1.84862
-1.80949
-1.77896
-1.75657
-1.74097
-1.73113
-1.72544
-1.72254
-2.40297
-2.38476
-2.34604
-2.29318
-2.23055
-2.16226
-2.09125
-2.02057
-1.95272
-1.88968
-1.83367
-1.78585
-1.74721
-1.71801
-1.6982
-1.68633
-1.68132
-1.68076
-1.68269
-2.1813
-2.20876
-2.20301
-2.17396
-2.12811
-2.07107
-2.00697
-1.93971
-1.87253
-1.80817
-1.74929
-1.69792
-1.65583
-1.62445
-1.6051
-1.59925
-1.60861
-1.63517
-1.6816
-1.98118
-2.0451
-2.07009
-2.0652
-2.03741
-1.99296
-1.93716
-1.87461
-1.80938
-1.74535
-1.68517
-1.63232
-1.58898
-1.55783
-1.53974
-1.53789
-1.54878
-1.56888
-1.59035
-1.80507
-1.8955
-1.94566
-1.96174
-1.94993
-1.91656
-1.8679
-1.80936
-1.74599
-1.68298
-1.62312
-1.571
-1.52792
-1.49454
-1.46572
-1.43698
-1.39267
-1.32348
-1.21871
-1.64784
-1.76053
-1.83045
-1.86222
-1.86112
-1.83338
-1.78578
-1.72444
-1.65519
-1.58368
-1.51258
-1.44559
-1.38165
-1.31751
-1.24443
-1.15573
-1.04133
-0.90424
-0.750391
-1.51393
-1.64449
-1.7317
-1.77794
-1.78722
-1.7654
-1.71943
-1.65601
-1.58157
-1.50198
-1.41999
-1.33826
-1.25465
-1.16526
-1.06415
-0.950363
-0.826408
-0.705962
-0.604148
-1.39746
-1.54334
-1.64547
-1.70427
-1.72245
-1.70539
-1.66006
-1.59359
-1.5129
-1.42411
-1.33021
-1.23364
-1.13281
-1.02586
-0.91164
-0.794588
-0.682036
-0.585033
-0.508114
-1.29102
-1.45471
-1.57105
-1.64099
-1.66674
-1.65331
-1.60771
-1.53745
-1.44994
-1.35175
-1.24647
-1.13719
-1.02402
-0.907829
-0.791107
-0.680239
-0.581628
-0.501013
-0.437687
-1.20907
-1.38511
-1.51287
-1.59156
-1.62282
-1.61128
-1.56409
-1.48908
-1.39426
-1.28685
-1.17133
-1.05206
-0.931051
-0.811408
-0.697317
-0.594688
-0.507391
-0.437463
-0.382168
-1.15258
-1.33546
-1.47041
-1.55435
-1.58819
-1.57622
-1.52576
-1.44503
-1.34266
-1.2267
-1.10266
-0.976299
-0.851221
-0.731831
-0.622515
-0.527756
-0.449058
-0.386289
-0.335884
-1.12285
-1.30975
-1.44758
-1.53251
-1.56522
-1.54975
-1.49383
-1.40602
-1.29571
-1.1718
-1.0408
-0.909719
-0.783176
-0.666002
-0.56194
-0.4739
-0.401522
-0.343336
-0.295214
-1.12278
-1.30854
-1.44418
-1.52527
-1.55257
-1.53013
-1.46626
-1.36997
-1.25143
-1.12034
-0.983988
-0.850307
-0.724303
-0.610569
-0.511815
-0.429464
-0.361626
-0.30573
-0.256788
-1.14934
-1.32914
-1.45874
-1.53277
-1.55203
-1.52101
-1.4485
-1.34416
-1.2188
-1.08249
-0.94354
-0.809809
-0.68633
-0.577021
-0.483688
-0.405815
-0.340349
-0.282345
-0.223517
-1.18823
-1.35784
-1.47619
-1.53892
-1.54692
-1.50539
-1.42317
-1.31059
-1.17875
-1.03767
-0.8966
-0.762718
-0.641211
-0.53507
-0.445808
-0.3719
-0.311585
-0.26157
-0.219632
-1.23677
-1.39538
-1.50406
-1.55918
-1.56186
-1.51753
-1.43447
-1.3228
-1.19307
-1.05476
-0.917267
-0.786977
-0.669033
-0.566263
-0.480621
-0.411168
-0.358543
-0.323035
-0.309315
-1.29178
-1.43955
-1.53781
-1.58384
-1.57949
-1.53041
-1.44479
-1.33245
-1.20358
-1.06724
-0.93254
-0.805518
-0.69116
-0.592266
-0.511142
-0.447514
-0.402971
-0.378051
-0.374159
-1.35184
-1.48999
-1.57771
-1.61429
-1.60252
-1.54834
-1.45987
-1.34668
-1.21863
-1.08433
-0.952627
-0.829172
-0.718818
-0.624349
-0.548322
-0.490676
-0.453094
-0.435298
-0.436849
-1.4198
-1.54752
-1.62367
-1.65025
-1.63061
-1.57086
-1.47909
-1.36472
-1.23733
-1.10509
-0.976565
-0.857022
-0.751157
-0.661665
-0.591195
-0.539552
-0.508245
-0.496295
-0.502524
-1.4991
-1.61102
-1.67456
-1.69072
-1.66267
-1.5967
-1.50106
-1.38512
-1.25823
-1.12813
-1.00311
-0.887979
-0.787251
-0.703425
-0.63912
-0.593821
-0.568882
-0.562851
-0.57426
-1.57647
-1.67437
-1.72656
-1.73238
-1.69545
-1.62275
-1.52288
-1.40529
-1.27907
-1.15154
-1.03067
-0.920776
-0.826118
-0.74892
-0.691709
-0.653561
-0.635784
-0.636566
-0.654273
-1.65377
-1.74368
-1.78491
-1.77934
-1.73225
-1.65171
-1.54681
-1.42711
-1.30148
-1.17674
-1.06053
-0.956577
-0.868864
-0.799262
-0.750185
-0.720233
-0.710754
-0.719589
-0.744961
-1.74149
-1.81966
-1.84693
-1.82754
-1.76848
-1.67887
-1.56842
-1.44667
-1.32215
-1.20106
-1.09064
-0.993945
-0.914619
-0.854128
-0.814776
-0.794625
-0.795144
-0.813804
-0.848672
-1.83773
-1.89868
-1.90879
-1.873
-1.80021
-1.70075
-1.58481
-1.46171
-1.33946
-1.22344
-1.12046
-1.03278
-0.963688
-0.914207
-0.886582
-0.878244
-0.890907
-0.921625
-0.968318
-1.93541
-1.97816
-1.968
-1.91304
-1.82503
-1.71553
-1.59484
-1.47174
-1.35346
-1.24437
-1.15085
-1.07422
-1.01748
-0.981182
-0.967588
-0.973404
-1.00076
-1.04624
-1.10768
-2.04001
-2.05975
-2.02348
-1.94598
-1.84171
-1.72272
-1.59871
-1.47757
-1.36541
-1.26545
-1.18369
-1.1204
-1.07838
-1.05768
-1.06073
-1.08338
-1.1284
-1.1919
-1.27171
-2.15649
-2.13653
-2.06743
-1.96547
-1.84555
-1.7192
-1.59462
-1.47841
-1.37537
-1.28733
-1.22019
-1.17299
-1.14849
-1.14627
-1.16908
-1.21179
-1.27813
-1.36372
-1.46665
-2.24949
-2.18525
-2.0828
-1.95849
-1.82675
-1.69785
-1.57747
-1.47073
-1.38094
-1.3085
-1.25955
-1.23178
-1.22818
-1.24788
-1.29432
-1.36118
-1.45376
-1.5672
-1.70022
-2.3232
-2.21607
-2.0796
-1.93554
-1.79638
-1.66975
-1.55788
-1.46441
-1.39124
-1.33737
-1.30964
-1.3043
-1.32483
-1.37
-1.44426
-1.53993
-1.66452
-1.81283
-1.98505
-2.38046
-2.21372
-2.04381
-1.88697
-1.74818
-1.63087
-1.53324
-1.45785
-1.40543
-1.3738
-1.37107
-1.39192
-1.44075
-1.51601
-1.62371
-1.75455
-1.91926
-2.11261
-2.3379
-2.36655
-2.14488
-1.95634
-1.80135
-1.67442
-1.57531
-1.49858
-1.44667
-1.41964
-1.41435
-1.4409
-1.49236
-1.57451
-1.68574
-1.83438
-2.00944
-2.22649
-2.48099
-2.78316
-2.26491
-2.01873
-1.83364
-1.69546
-1.59007
-1.51573
-1.4645
-1.43978
-1.4415
-1.46586
-1.52565
-1.61233
-1.73368
-1.88834
-2.08801
-2.32001
-2.60702
-2.94672
-3.36544
-2.05616
-1.82624
-1.67004
-1.56379
-1.4891
-1.44554
-1.42416
-1.43022
-1.46409
-1.52175
-1.61932
-1.74691
-1.91515
-2.12356
-2.38889
-2.69734
-3.08256
-3.54773
-4.15945
-1.74126
-1.57613
-1.47176
-1.40888
-1.37125
-1.3624
-1.37371
-1.41298
-1.48157
-1.57569
-1.71555
-1.89056
-2.11534
-2.39159
-2.74392
-3.15914
-3.68874
-4.34822
-5.31161
-1.34658
-1.28234
-1.24386
-1.23041
-1.23306
-1.26063
-1.30581
-1.3792
-1.48363
-1.61624
-1.80216
-2.03125
-2.324
-2.68685
-3.15718
-3.72701
-4.47881
-5.45504
-7.12972
-0.919877
-0.962535
-0.99134
-1.02751
-1.07047
-1.13393
-1.21212
-1.31833
-1.45726
-1.62776
-1.86097
-2.14896
-2.52113
-2.9935
-3.62542
-4.42511
-5.53329
-7.05235
-10.3142
-0.513616
-0.634825
-0.719562
-0.800258
-0.880909
-0.977676
-1.08575
-1.22057
-1.38875
-1.59175
-1.86786
-2.21335
-2.6711
-3.27595
-4.12609
-5.27178
-6.97238
-9.47049
-16.5605
-0.168504
-0.31351
-0.433469
-0.550285
-0.664432
-0.79069
-0.92339
-1.07957
-1.26639
-1.48914
-1.79408
-2.18183
-2.71672
-3.47543
-4.64971
-6.47628
-9.73324
-15.7365
-37.1749
)
;

boundaryField
{
    up
    {
        type            calculated;
        value           nonuniform List<scalar> 
84
(
-33.6875
-18.2449
-11.1996
-7.64559
-5.64172
-4.38672
-3.53042
-2.90752
-2.43369
-2.06031
-1.75972
-1.51378
-1.30925
-1.1375
-0.991907
-0.867255
-0.759509
-0.665561
-0.582903
-0.509095
-0.441745
-0.377222
-0.306771
-0.197615
-0.191616
-0.242175
-0.281089
-0.32085
-0.365385
-0.418163
-0.483568
-0.567062
-0.693158
-1.20819
-1.63949
-1.71216
-1.68175
-1.72044
-1.77386
-1.82259
-1.85874
-1.88118
-1.88124
-1.85895
-1.82291
-1.7742
-1.7208
-1.68195
-1.71186
-1.64022
-1.21347
-0.694164
-0.567672
-0.484035
-0.418539
-0.365704
-0.321137
-0.281369
-0.242521
-0.191841
-0.197481
-0.306786
-0.377231
-0.441751
-0.509099
-0.582905
-0.665562
-0.759508
-0.867254
-0.991905
-1.13749
-1.30925
-1.51378
-1.75972
-2.06032
-2.43369
-2.90753
-3.53043
-4.38672
-5.64172
-7.64558
-11.1996
-18.2449
-33.6875
)
;
    }
    low
    {
        type            calculated;
        value           nonuniform List<scalar> 
84
(
-0.180715
-0.536282
-0.969344
-1.43031
-1.85766
-2.19479
-2.40922
-2.50174
-2.48912
-2.39716
-2.30489
-2.19373
-2.05254
-1.93414
-1.82841
-1.72143
-1.62445
-1.54441
-1.4616
-1.3699
-1.29253
-1.22531
-1.16156
-1.10483
-1.0513
-1.01852
-1.01984
-1.05984
-1.1296
-1.22841
-1.3498
-1.47622
-1.62195
-1.79326
-1.98122
-2.19743
-2.44187
-2.66274
-2.84226
-2.98737
-3.09378
-3.16604
-3.16605
-3.0938
-2.98739
-2.84229
-2.66277
-2.44191
-2.19747
-1.98121
-1.79329
-1.62193
-1.47621
-1.3498
-1.22841
-1.1296
-1.05985
-1.01984
-1.01853
-1.05132
-1.10486
-1.16157
-1.22533
-1.29254
-1.36991
-1.46161
-1.54442
-1.62445
-1.72143
-1.82841
-1.93414
-2.05253
-2.19372
-2.30488
-2.39716
-2.48911
-2.50175
-2.40923
-2.19481
-1.85767
-1.43032
-0.969352
-0.536286
-0.180717
)
;
    }
    left
    {
        type            calculated;
        value           nonuniform List<scalar> 
19
(
-0.165253
-0.30753
-0.429704
-0.550194
-0.668866
-0.800062
-0.938463
-1.10201
-1.29819
-1.53498
-1.86091
-2.27885
-2.86188
-3.70184
-5.01391
-7.08825
-10.8308
-17.8113
-34.9414
)
;
    }
    right
    {
        type            calculated;
        value           nonuniform List<scalar> 
19
(
-0.165254
-0.30753
-0.429704
-0.550194
-0.668866
-0.800063
-0.938464
-1.10201
-1.29819
-1.53498
-1.86091
-2.27885
-2.86188
-3.70183
-5.01391
-7.08825
-10.8308
-17.8113
-34.9414
)
;
    }
    frontAndBackPlanes
    {
        type            empty;
    }
}


// ************************************************************************* //
