/*--------------------------------*- C++ -*----------------------------------*\
  =========                 |
  \\      /  F ield         | OpenFOAM: The Open Source CFD Toolbox
   \\    /   O peration     | Website:  https://openfoam.org
    \\  /    A nd           | Version:  7
     \\/     M anipulation  |
\*---------------------------------------------------------------------------*/
FoamFile
{
    version     2.0;
    format      ascii;
    class       volScalarField;
    location    "0.27";
    object      gradTx;
}
// * * * * * * * * * * * * * * * * * * * * * * * * * * * * * * * * * * * * * //

dimensions      [0 -1 0 1 0 0 0];

internalField   nonuniform List<scalar> 
1596
(
-0.0809749
-0.40671
-0.729866
-1.02405
-1.28833
-1.52268
-1.73787
-1.94078
-2.14055
-2.35491
-2.58844
-2.86244
-3.20237
-3.64605
-4.23874
-5.09614
-6.39794
-8.53284
-12.3045
0.0177167
-0.33883
-0.656695
-0.933524
-1.17654
-1.38763
-1.57646
-1.74643
-1.90432
-2.05921
-2.21168
-2.37296
-2.54666
-2.73843
-2.94277
-3.15018
-3.30963
-3.31785
-2.95634
0.0985576
-0.277669
-0.58538
-0.842245
-1.06176
-1.24839
-1.41044
-1.55011
-1.67189
-1.78057
-1.87507
-1.96113
-2.03661
-2.09967
-2.14097
-2.14467
-2.06974
-1.84485
-1.33093
0.111292
-0.245935
-0.527789
-0.758119
-0.951369
-1.11308
-1.24975
-1.36312
-1.45602
-1.53083
-1.58639
-1.62536
-1.64475
-1.64132
-1.60759
-1.53087
-1.38461
-1.12574
-0.671129
0.032304
-0.258254
-0.494328
-0.689657
-0.853438
-0.989889
-1.10302
-1.19409
-1.26466
-1.31558
-1.34618
-1.3573
-1.34654
-1.31097
-1.24574
-1.14193
-0.983837
-0.74663
-0.382289
-0.132007
-0.32001
-0.492626
-0.644475
-0.775298
-0.885727
-0.976652
-1.04846
-1.10152
-1.13556
-1.15042
-1.14572
-1.11983
-1.07039
-0.994584
-0.886296
-0.736661
-0.531555
-0.243604
-0.350901
-0.426183
-0.525562
-0.627521
-0.722122
-0.805259
-0.87443
-0.928655
-0.967102
-0.988561
-0.993056
-0.979405
-0.946491
-0.89241
-0.815629
-0.711861
-0.576297
-0.400891
-0.17007
-0.580591
-0.557055
-0.584796
-0.635365
-0.692426
-0.747572
-0.795246
-0.832828
-0.858296
-0.869595
-0.866634
-0.847668
-0.811823
-0.757478
-0.683816
-0.587711
-0.466664
-0.316078
-0.127112
-0.818546
-0.724438
-0.688154
-0.686864
-0.703562
-0.727529
-0.751116
-0.770123
-0.781406
-0.782123
-0.771763
-0.748149
-0.710373
-0.656895
-0.587174
-0.498772
-0.390384
-0.259307
-0.100408
-0.9614
-0.840831
-0.766423
-0.727769
-0.712455
-0.710359
-0.713375
-0.716381
-0.715507
-0.707387
-0.69106
-0.664124
-0.625566
-0.573915
-0.50874
-0.4281
-0.33135
-0.216929
-0.081847
-1.07746
-0.94536
-0.847856
-0.781484
-0.739193
-0.7132
-0.696296
-0.683218
-0.669803
-0.65241
-0.629652
-0.598993
-0.559257
-0.508955
-0.447618
-0.373586
-0.286503
-0.185436
-0.068645
-1.19519
-1.06165
-0.949685
-0.861538
-0.795039
-0.745507
-0.70757
-0.676586
-0.648582
-0.619901
-0.588851
-0.552808
-0.510388
-0.460015
-0.401064
-0.331985
-0.252459
-0.161831
-0.0590023
-1.22594
-1.11016
-1.00069
-0.905587
-0.826967
-0.763238
-0.711173
-0.667276
-0.628221
-0.590693
-0.552978
-0.512565
-0.468
-0.417712
-0.360994
-0.296403
-0.223619
-0.142139
-0.0512113
-1.2318
-1.13556
-1.0353
-0.940417
-0.855833
-0.782662
-0.719804
-0.665181
-0.616379
-0.570667
-0.526516
-0.481635
-0.434587
-0.38384
-0.328613
-0.267537
-0.200234
-0.126256
-0.045031
-1.22712
-1.14866
-1.05988
-0.969317
-0.883
-0.803971
-0.732985
-0.669436
-0.61198
-0.558621
-0.508192
-0.45871
-0.408826
-0.357077
-0.302635
-0.244176
-0.181243
-0.113374
-0.0400606
-1.19436
-1.13498
-1.06016
-0.978054
-0.894895
-0.814804
-0.739886
-0.67083
-0.607351
-0.548268
-0.4929
-0.439663
-0.387386
-0.334733
-0.280883
-0.224579
-0.165312
-0.1026
-0.0359375
-1.13275
-1.0914
-1.03185
-0.961224
-0.885376
-0.808806
-0.734404
-0.663813
-0.597659
-0.535534
-0.477294
-0.421808
-0.36815
-0.315165
-0.262094
-0.207779
-0.151716
-0.0934422
-0.0324641
-1.06104
-1.03116
-0.984975
-0.926284
-0.859644
-0.789291
-0.718414
-0.649248
-0.583104
-0.520239
-0.461008
-0.404727
-0.350735
-0.298073
-0.246054
-0.193626
-0.140326
-0.0857747
-0.0295582
-1.00085
-0.980269
-0.944397
-0.895427
-0.836678
-0.771905
-0.704397
-0.636795
-0.570966
-0.507735
-0.447895
-0.39116
-0.337094
-0.284878
-0.233837
-0.18294
-0.13172
-0.0799083
-0.0272761
-0.89806
-0.889601
-0.865525
-0.828433
-0.780854
-0.725834
-0.666352
-0.605059
-0.544072
-0.484573
-0.427677
-0.373449
-0.321684
-0.271731
-0.222936
-0.174248
-0.12514
-0.0754805
-0.0254722
-0.78512
-0.78624
-0.772799
-0.746939
-0.710616
-0.666234
-0.616328
-0.563358
-0.509463
-0.455996
-0.404235
-0.354489
-0.306735
-0.260472
-0.215043
-0.169263
-0.122294
-0.0738374
-0.0246052
-0.667994
-0.67537
-0.670796
-0.655191
-0.629786
-0.596347
-0.556933
-0.513698
-0.46866
-0.423174
-0.37852
-0.335122
-0.293064
-0.25199
-0.211282
-0.169598
-0.125472
-0.077584
-0.0260321
-0.538784
-0.549357
-0.552024
-0.546177
-0.532074
-0.510696
-0.483528
-0.452272
-0.418677
-0.383932
-0.349104
-0.314593
-0.28046
-0.246514
-0.212348
-0.176738
-0.137681
-0.0920507
-0.035814
-0.39353
-0.388115
-0.376601
-0.359208
-0.33728
-0.312622
-0.287308
-0.263066
-0.241236
-0.222325
-0.206063
-0.191598
-0.177751
-0.163444
-0.147801
-0.129819
-0.107853
-0.0784605
-0.0351726
-0.263207
-0.293587
-0.328045
-0.361647
-0.39087
-0.413236
-0.427736
-0.434236
-0.433506
-0.426544
-0.414048
-0.396809
-0.37522
-0.350269
-0.323115
-0.294845
-0.265236
-0.23219
-0.189692
-0.0893691
-0.1044
-0.124431
-0.146564
-0.168668
-0.189214
-0.207637
-0.223731
-0.237825
-0.25013
-0.259991
-0.266788
-0.269013
-0.266024
-0.258006
-0.246747
-0.233748
-0.220825
-0.208356
0.084836
0.0657425
0.0388789
0.0070372
-0.0272177
-0.0618484
-0.0956792
-0.128114
-0.159144
-0.188813
-0.216268
-0.240362
-0.258789
-0.269788
-0.272646
-0.269077
-0.26127
-0.252062
-0.242699
0.259086
0.233108
0.197023
0.154076
0.10722
0.0588743
0.0106091
-0.0367968
-0.0832435
-0.128853
-0.172946
-0.214163
-0.249576
-0.276075
-0.291382
-0.296333
-0.293439
-0.286659
-0.278306
0.417303
0.380884
0.333431
0.27886
0.220313
0.16033
0.100522
0.0415448
-0.0167153
-0.0747688
-0.132475
-0.188799
-0.240648
-0.283677
-0.313425
-0.3287
-0.331349
-0.326424
-0.317956
0.582456
0.533483
0.473439
0.406481
0.335909
0.264389
0.193511
0.123781
0.0548301
-0.0143221
-0.0842728
-0.154845
-0.22356
-0.285546
-0.334022
-0.364487
-0.376129
-0.374106
-0.364849
0.708739
0.645207
0.572424
0.49455
0.414894
0.33588
0.258708
0.183438
0.109278
0.0346791
-0.0417938
-0.121253
-0.202775
-0.282422
-0.35217
-0.403709
-0.430666
-0.434968
-0.424193
0.828734
0.752553
0.667378
0.578979
0.490896
0.405266
0.322883
0.243431
0.165835
0.0881977
0.00849239
-0.0756775
-0.165584
-0.260058
-0.352541
-0.433079
-0.488155
-0.510833
-0.504589
0.941924
0.849353
0.750876
0.65242
0.557111
0.466459
0.380718
0.299182
0.22063
0.14309
0.0644269
-0.0184009
-0.108526
-0.208502
-0.316511
-0.42682
-0.52322
-0.587333
-0.600638
1.01865
0.901211
0.782442
0.667554
0.558727
0.456616
0.36084
0.270375
0.183924
0.0996632
0.0156666
-0.0709371
-0.163837
-0.268102
-0.387724
-0.526528
-0.678584
-0.830035
-0.954194
1.07003
0.940986
0.819837
0.709876
0.611121
0.522612
0.442805
0.37014
0.303157
0.240462
0.181011
0.123537
0.0666002
0.00783733
-0.0563551
-0.133298
-0.230806
-0.358043
-0.519597
1.11123
0.977078
0.859404
0.756915
0.667089
0.587708
0.516579
0.452007
0.392639
0.337335
0.285515
0.236747
0.190841
0.1479
0.108361
0.0720756
0.0384325
0.00457652
-0.0350841
1.05996
0.906489
0.777352
0.667435
0.572618
0.489912
0.416749
0.351226
0.291887
0.237498
0.187424
0.141201
0.0985783
0.0596485
0.0249829
-0.00479412
-0.0286122
-0.0453475
-0.0544586
0.937173
0.795885
0.679208
0.581398
0.498166
0.426399
0.363582
0.307858
0.257869
0.212514
0.171206
0.133528
0.0991857
0.0680879
0.0403495
0.0159521
-0.00506251
-0.0226704
-0.0370776
0.783656
0.663843
0.565005
0.482591
0.412956
0.35333
0.301508
0.255841
0.215144
0.178455
0.145222
0.115037
0.0875448
0.062532
0.0399339
0.019592
0.00143044
-0.0145355
-0.028437
0.593141
0.500105
0.424259
0.361689
0.309307
0.264787
0.226343
0.192643
0.162746
0.135892
0.111624
0.0895978
0.0694963
0.0511139
0.034367
0.0191264
0.00534826
-0.00690563
-0.0176862
0.374952
0.312819
0.263691
0.22394
0.191072
0.163363
0.13957
0.118796
0.100418
0.0839406
0.0690549
0.0555304
0.043147
0.0317583
0.0212986
0.0116828
0.00288795
-0.00502232
-0.0120485
0.144361
0.119493
0.100502
0.0853353
0.0728314
0.0622741
0.0531843
0.0452258
0.038169
0.0318305
0.0260919
0.0208627
0.016054
0.0116024
0.00747149
0.00361895
2.4045e-05
-0.00329775
-0.00634675
-0.144291
-0.119342
-0.100298
-0.0850976
-0.0725749
-0.0620097
-0.0529201
-0.0449686
-0.0379242
-0.0316027
-0.0258851
-0.02068
-0.0158982
-0.0114759
-0.00737613
-0.00355618
5.19702e-06
0.00329341
0.00630938
-0.374888
-0.312687
-0.263514
-0.223735
-0.190853
-0.163139
-0.13935
-0.118585
-0.100222
-0.0837633
-0.0689001
-0.0554011
-0.0430458
-0.0316872
-0.0212591
-0.0116761
-0.00291435
0.00496328
0.0119582
-0.593079
-0.499979
-0.424088
-0.361487
-0.309086
-0.264557
-0.226111
-0.192416
-0.162529
-0.135689
-0.111438
-0.0894328
-0.0693538
-0.050995
-0.0342719
-0.0190546
-0.00529856
0.00693531
0.0176982
-0.783612
-0.66376
-0.564893
-0.48246
-0.412813
-0.353183
-0.301364
-0.255705
-0.21502
-0.178347
-0.145135
-0.114972
-0.0875033
-0.0625148
-0.0399401
-0.0196201
-0.00147802
0.0144712
0.028359
-0.937147
-0.795837
-0.679139
-0.581313
-0.49807
-0.426298
-0.363481
-0.307762
-0.257785
-0.212444
-0.171155
-0.133499
-0.0991799
-0.0681057
-0.0403894
-0.0160105
0.00499119
0.0225935
0.0370041
-1.05997
-0.906486
-0.777334
-0.667403
-0.572576
-0.489866
-0.416705
-0.351191
-0.291866
-0.237496
-0.187448
-0.141256
-0.0986682
-0.0597767
-0.0251487
0.0045972
0.0284016
0.0451524
0.0543131
-1.11124
-0.976999
-0.859205
-0.756583
-0.666621
-0.587109
-0.515857
-0.451172
-0.391704
-0.33631
-0.284408
-0.235566
-0.189592
-0.146585
-0.106991
-0.0706881
-0.0371161
-0.00352098
0.035565
-1.07024
-0.941519
-0.820716
-0.711097
-0.612672
-0.524479
-0.444968
-0.372583
-0.305867
-0.24343
-0.184242
-0.12705
-0.0704394
-0.0120873
0.0515631
0.127774
0.224361
0.350589
0.511303
-1.01857
-0.901002
-0.782073
-0.667016
-0.558023
-0.455755
-0.359836
-0.269245
-0.182687
-0.09834
-0.0142797
0.0723623
0.165272
0.269521
0.389134
0.528006
0.680344
0.832451
0.957767
-0.941994
-0.84952
-0.751123
-0.652732
-0.557473
-0.466861
-0.381149
-0.299638
-0.221109
-0.143592
-0.0649578
0.0178343
0.107922
0.207883
0.315939
0.426414
0.523124
0.587637
0.601223
-0.828779
-0.752659
-0.667534
-0.579175
-0.491122
-0.405514
-0.323149
-0.243712
-0.16613
-0.0885094
-0.00882128
0.0753353
0.165246
0.259767
0.352366
0.433099
0.488411
0.511288
0.505147
-0.708784
-0.645311
-0.57258
-0.494747
-0.415124
-0.336134
-0.258978
-0.183719
-0.109566
-0.0349724
0.0415019
0.120976
0.20254
0.282271
0.352149
0.403849
0.430952
0.435344
0.424596
-0.582498
-0.533584
-0.473594
-0.406681
-0.336144
-0.264648
-0.193786
-0.124063
-0.0551128
0.0140465
0.0840153
0.154623
0.223401
0.285481
0.334073
0.364653
0.376381
0.374406
0.365168
-0.41734
-0.380977
-0.333576
-0.279048
-0.220535
-0.160575
-0.100779
-0.0418046
0.0164621
0.0745324
0.132269
0.188639
0.240556
0.283672
0.313511
0.328867
0.331571
0.326677
0.318227
-0.259125
-0.233204
-0.197172
-0.15427
-0.107449
-0.0591248
-0.0108689
0.0365396
0.0830005
0.128636
0.172768
0.21404
0.249522
0.276097
0.291478
0.296489
0.293637
0.286884
0.278552
-0.0848689
-0.0658319
-0.0390217
-0.00722495
0.026997
0.0616083
0.0954337
0.127876
0.158927
0.188629
0.216129
0.240279
0.258769
0.269834
0.272751
0.26923
0.261459
0.25228
0.242945
0.0892934
0.10417
0.124038
0.146013
0.167982
0.188425
0.206782
0.22285
0.236956
0.24931
0.259246
0.26614
0.268475
0.265596
0.257681
0.246517
0.23361
0.220801
0.208505
0.263261
0.293793
0.328442
0.362257
0.391691
0.414248
0.428906
0.43552
0.434859
0.427924
0.415417
0.398137
0.376487
0.351464
0.324236
0.295898
0.266228
0.233126
0.190567
0.393475
0.387913
0.376247
0.358713
0.336668
0.311927
0.286566
0.262313
0.240503
0.221637
0.205438
0.191045
0.177276
0.163046
0.147475
0.12956
0.107657
0.0783265
0.0351137
0.538818
0.549424
0.552127
0.546311
0.532229
0.510862
0.483695
0.452429
0.418817
0.38405
0.349199
0.314665
0.280511
0.246548
0.212368
0.176746
0.13768
0.0920443
0.0358097
0.668002
0.67538
0.67081
0.655208
0.629804
0.596365
0.556951
0.513713
0.468671
0.423181
0.378523
0.335122
0.29306
0.251983
0.211274
0.169589
0.125463
0.0775778
0.0260304
0.785127
0.78625
0.772811
0.746952
0.710631
0.666248
0.61634
0.563367
0.50947
0.455999
0.404235
0.354486
0.30673
0.260466
0.215036
0.169256
0.122289
0.0738341
0.0246043
0.898065
0.889608
0.865534
0.828443
0.780864
0.725844
0.66636
0.605065
0.544075
0.484573
0.427675
0.373445
0.321679
0.271725
0.22293
0.174243
0.125136
0.0754783
0.0254716
1.00086
0.980278
0.944406
0.895437
0.836688
0.771914
0.704404
0.636799
0.570967
0.507734
0.447892
0.391156
0.337089
0.284873
0.233832
0.182936
0.131717
0.0799066
0.0272756
1.06104
1.03117
0.984983
0.926291
0.859651
0.789297
0.718418
0.649249
0.583103
0.520237
0.461004
0.404722
0.35073
0.298068
0.246049
0.193623
0.140323
0.0857732
0.0295578
1.13275
1.09141
1.03185
0.961229
0.88538
0.808809
0.734405
0.663813
0.597657
0.535531
0.47729
0.421803
0.368145
0.315161
0.26209
0.207776
0.151714
0.0934409
0.0324638
1.19437
1.13498
1.06016
0.97806
0.894899
0.814806
0.739887
0.670829
0.607349
0.548265
0.492896
0.439659
0.387382
0.334729
0.28088
0.224576
0.16531
0.102599
0.0359373
1.22712
1.14866
1.05988
0.969319
0.883001
0.803971
0.732983
0.669434
0.611976
0.558617
0.508187
0.458705
0.408821
0.357073
0.302631
0.244173
0.181241
0.113374
0.0400605
1.2318
1.13556
1.0353
0.94042
0.855834
0.782662
0.719802
0.665178
0.616376
0.570663
0.526512
0.481631
0.434584
0.383837
0.32861
0.267535
0.200233
0.126255
0.0450311
1.22594
1.11016
1.00069
0.90559
0.826969
0.763238
0.711172
0.667275
0.628219
0.59069
0.552975
0.512562
0.467997
0.41771
0.360992
0.296402
0.223619
0.142139
0.0512116
1.19519
1.06165
0.949683
0.861535
0.795035
0.745503
0.707565
0.676581
0.648577
0.619897
0.588846
0.552804
0.510385
0.460012
0.401062
0.331984
0.252459
0.161831
0.0590027
1.07747
0.945367
0.847861
0.781486
0.739193
0.713199
0.696294
0.683216
0.669801
0.652408
0.62965
0.598991
0.559255
0.508955
0.447618
0.373587
0.286504
0.185437
0.0686455
0.961411
0.840839
0.766428
0.727771
0.712455
0.710359
0.713374
0.716379
0.715505
0.707386
0.691058
0.664123
0.625566
0.573915
0.508741
0.428101
0.331352
0.216931
0.0818475
0.818555
0.724444
0.688158
0.686866
0.703562
0.727529
0.751115
0.770122
0.781405
0.782123
0.771763
0.748149
0.710374
0.656897
0.587177
0.498775
0.390387
0.259309
0.100408
0.580598
0.557058
0.584798
0.635366
0.692426
0.747572
0.795245
0.832828
0.858295
0.869594
0.866634
0.847669
0.811824
0.75748
0.683818
0.587713
0.466666
0.31608
0.127112
0.350907
0.426186
0.525564
0.627522
0.722123
0.805259
0.87443
0.928655
0.967102
0.988561
0.993057
0.979407
0.946492
0.892413
0.815632
0.711864
0.576299
0.400892
0.17007
0.13201
0.320013
0.492628
0.644477
0.775299
0.885728
0.976652
1.04846
1.10152
1.13556
1.15042
1.14572
1.11983
1.07039
0.994586
0.886298
0.736663
0.531555
0.243604
-0.0323018
0.258257
0.49433
0.689659
0.853439
0.98989
1.10302
1.19409
1.26466
1.31558
1.34618
1.3573
1.34654
1.31097
1.24574
1.14193
0.983837
0.746629
0.382288
-0.111292
0.245937
0.527791
0.75812
0.95137
1.11308
1.24975
1.36312
1.45602
1.53083
1.5864
1.62536
1.64475
1.64132
1.60759
1.53087
1.3846
1.12573
0.671128
-0.0985583
0.27767
0.58538
0.842245
1.06176
1.24839
1.41044
1.55011
1.67189
1.78057
1.87507
1.96113
2.0366
2.09966
2.14096
2.14467
2.06973
1.84485
1.33093
-0.0177168
0.33883
0.656694
0.933523
1.17654
1.38763
1.57646
1.74643
1.90432
2.05921
2.21168
2.37296
2.54666
2.73843
2.94277
3.15018
3.30963
3.31785
2.95634
0.0809754
0.40671
0.729866
1.02405
1.28833
1.52268
1.73787
1.94078
2.14055
2.35491
2.58844
2.86244
3.20237
3.64604
4.23873
5.09613
6.39793
8.53284
12.3045
)
;

boundaryField
{
    up
    {
        type            calculated;
        value           nonuniform List<scalar> 
84
(
-12.3045
-2.95634
-1.33093
-0.671129
-0.382289
-0.243604
-0.17007
-0.127112
-0.100408
-0.081847
-0.068645
-0.0590023
-0.0512113
-0.045031
-0.0400606
-0.0359375
-0.0324641
-0.0295582
-0.0272761
-0.0254722
-0.0246052
-0.0260321
-0.035814
-0.0351726
-0.162779
-0.195763
-0.230552
-0.265374
-0.303523
-0.348068
-0.403103
-0.472674
-0.551397
-0.948916
-0.53893
-0.0361715
-0.0544348
-0.0370336
-0.0284104
-0.0176782
-0.012047
-0.00634916
0.00631177
0.0119567
0.0176904
0.0283326
0.0369603
0.0542891
0.0366384
0.530378
0.95317
0.551915
0.473159
0.40348
0.348376
0.303789
0.26562
0.230803
0.195994
0.163578
0.0351137
0.0358097
0.0260304
0.0246043
0.0254716
0.0272756
0.0295578
0.0324638
0.0359373
0.0400605
0.0450311
0.0512116
0.0590027
0.0686455
0.0818475
0.100408
0.127112
0.17007
0.243604
0.382288
0.671128
1.33093
2.95634
12.3045
)
;
    }
    low
    {
        type            calculated;
        value           nonuniform List<scalar> 
84
(
-0.0730493
0.0295929
0.117857
0.132409
0.0456623
-0.134492
-0.371476
-0.615302
-0.858742
-0.994255
-1.10591
-1.21735
-1.23397
-1.23094
-1.22053
-1.17982
-1.1116
-1.03826
-0.974195
-0.864425
-0.748465
-0.631254
-0.503471
-0.362936
-0.239574
-0.0808861
0.0751698
0.234897
0.385892
0.550396
0.681627
0.805865
0.925629
1.01133
1.07009
1.12021
1.07869
0.95813
0.802868
0.608746
0.385432
0.148781
-0.148711
-0.385366
-0.608679
-0.802815
-0.958093
-1.07868
-1.1202
-1.07026
-1.01126
-0.925687
-0.805905
-0.68167
-0.550438
-0.38593
-0.234938
-0.0752034
0.0808124
0.239627
0.362884
0.5035
0.631262
0.748472
0.86443
0.974201
1.03826
1.11161
1.17983
1.22053
1.23094
1.23397
1.21734
1.10592
0.994264
0.85875
0.61531
0.371483
0.134497
-0.04566
-0.132409
-0.117859
-0.0295938
0.0730495
)
;
    }
    left
    {
        type            calculated;
        value           nonuniform List<scalar> 
19
(
-0.0717759
-0.390165
-0.719675
-1.02381
-1.29929
-1.54447
-1.77103
-1.98701
-2.20158
-2.43715
-2.69808
-3.00855
-3.40216
-3.93001
-4.64933
-5.72324
-7.40117
-10.226
-10.6724
)
;
    }
    right
    {
        type            calculated;
        value           nonuniform List<scalar> 
19
(
0.0717764
0.390166
0.719676
1.02382
1.2993
1.54448
1.77103
1.98701
2.20158
2.43715
2.69808
3.00855
3.40215
3.93001
4.64933
5.72324
7.40117
10.226
10.6724
)
;
    }
    frontAndBackPlanes
    {
        type            empty;
    }
}


// ************************************************************************* //
