/*--------------------------------*- C++ -*----------------------------------*\
  =========                 |
  \\      /  F ield         | OpenFOAM: The Open Source CFD Toolbox
   \\    /   O peration     | Website:  https://openfoam.org
    \\  /    A nd           | Version:  7
     \\/     M anipulation  |
\*---------------------------------------------------------------------------*/
FoamFile
{
    version     2.0;
    format      ascii;
    class       volScalarField;
    location    "0.18";
    object      gradTy;
}
// * * * * * * * * * * * * * * * * * * * * * * * * * * * * * * * * * * * * * //

dimensions      [0 -1 0 1 0 0 0];

internalField   nonuniform List<scalar> 
1596
(
-0.759958
-1.4071
-1.92842
-2.41679
-2.86943
-3.34646
-3.81827
-4.35247
-4.97266
-5.69549
-6.69722
-7.97352
-9.76162
-12.3362
-16.3778
-22.7173
-34.0842
-55.0806
-130.113
-2.30968
-2.83452
-3.172
-3.46448
-3.72841
-4.0336
-4.35775
-4.76506
-5.28013
-5.90684
-6.79485
-7.9248
-9.45664
-11.5146
-14.4492
-18.4322
-24.376
-33.1236
-57.9511
-4.11984
-4.27658
-4.3397
-4.40377
-4.46817
-4.5945
-4.75926
-5.01999
-5.39613
-5.88288
-6.60505
-7.52862
-8.76535
-10.3717
-12.5612
-15.3546
-19.2488
-24.5932
-36.0445
-5.9993
-5.66811
-5.4128
-5.23349
-5.09553
-5.04119
-5.0426
-5.14759
-5.36972
-5.69857
-6.23737
-6.94464
-7.9003
-9.12646
-10.7596
-12.762
-15.4271
-18.8926
-24.8122
-7.71019
-6.92963
-6.37177
-5.95908
-5.62804
-5.39933
-5.2415
-5.19153
-5.25819
-5.4282
-5.7864
-6.29044
-6.99894
-7.91736
-9.13767
-10.6035
-12.5006
-14.8719
-18.3208
-9.04489
-7.98632
-7.19829
-6.58838
-6.08681
-5.69877
-5.393
-5.19652
-5.11508
-5.13485
-5.32496
-5.64651
-6.14333
-6.81336
-7.72145
-8.80944
-10.2016
-11.8985
-14.1274
-9.89921
-8.78192
-7.87269
-7.12387
-6.48691
-5.96284
-5.52644
-5.1974
-4.98052
-4.86335
-4.90166
-5.0624
-5.3786
-5.84535
-6.50985
-7.319
-8.35931
-9.61331
-11.1682
-10.2843
-9.28501
-8.36968
-7.55355
-6.82667
-6.19767
-5.65341
-5.21026
-4.87429
-4.63609
-4.54039
-4.56102
-4.72292
-5.02058
-5.48907
-6.08274
-6.8633
-7.80739
-8.94674
-10.298
-9.5422
-8.71601
-7.89963
-7.12762
-6.42501
-5.79516
-5.2557
-4.81617
-4.47154
-4.25805
-4.15648
-4.18571
-4.34064
-4.64749
-5.06816
-5.64699
-6.36012
-7.21605
-10.0205
-9.52011
-8.84325
-8.08938
-7.3232
-6.58761
-5.90344
-5.2935
-4.77256
-4.34107
-4.02948
-3.82509
-3.74255
-3.77772
-3.9504
-4.22964
-4.64764
-5.18269
-5.83351
-9.69037
-9.36595
-8.8348
-8.1697
-7.44114
-6.70252
-5.98901
-5.33011
-4.74683
-4.24563
-3.8536
-3.56392
-3.38842
-3.32405
-3.38576
-3.54863
-3.83585
-4.22853
-4.7213
-9.29509
-9.1484
-8.75471
-8.18492
-7.50946
-6.78642
-6.06101
-5.36927
-4.73844
-4.18116
-3.72306
-3.36255
-3.10973
-2.96266
-2.93256
-2.99942
-3.17958
-3.45695
-3.82467
-8.81443
-8.82449
-8.56253
-8.0932
-7.48392
-6.79472
-6.07656
-5.37105
-4.71089
-4.11432
-3.60712
-3.19207
-2.87859
-2.66581
-2.56228
-2.55195
-2.6462
-2.83154
-3.10085
-8.39645
-8.49175
-8.32998
-7.94865
-7.40398
-6.75423
-6.05247
-5.34447
-4.66723
-4.04377
-3.50085
-3.0448
-2.68494
-2.42134
-2.26052
-2.18944
-2.21573
-2.32806
-2.51954
-8.01628
-8.17821
-8.09043
-7.77968
-7.29126
-6.67945
-5.99714
-5.29273
-4.60649
-3.96528
-3.39717
-2.91131
-2.51716
-2.21552
-2.01136
-1.89379
-1.86761
-1.92313
-2.05395
-7.64683
-7.87465
-7.84822
-7.59439
-7.15279
-6.57456
-5.91158
-5.21397
-4.52437
-3.8726
-3.2881
-2.78209
-2.36426
-2.03586
-1.80058
-1.64899
-1.58373
-1.59633
-1.68089
-7.31573
-7.58943
-7.61202
-7.40333
-6.99871
-6.44754
-5.80096
-5.11049
-4.42056
-3.7633
-3.16928
-2.65115
-2.21869
-1.87327
-1.61741
-1.44254
-1.34957
-1.33088
-1.381
-7.02874
-7.33571
-7.39641
-7.22246
-6.84532
-6.31332
-5.67789
-4.99198
-4.30182
-3.64141
-3.04217
-2.51769
-2.07753
-1.72282
-1.45486
-1.26544
-1.15397
-1.11336
-1.13844
-6.73751
-7.10904
-7.21251
-7.06957
-6.71339
-6.19321
-5.56236
-4.87599
-4.18256
-3.51808
-2.91464
-2.38651
-1.94271
-1.5838
-1.30968
-1.11203
-0.988883
-0.933378
-0.940518
-6.43157
-6.88036
-7.03598
-6.92649
-6.58955
-6.07765
-5.44755
-4.75764
-4.05919
-3.39041
-2.7841
-2.25494
-1.81121
-1.45253
-1.17722
-0.97645
-0.846958
-0.781988
-0.776703
-6.16873
-6.67379
-6.87995
-6.80405
-6.48445
-5.97721
-5.34362
-4.64624
-3.93987
-3.26525
-2.65593
-2.12688
-1.68543
-1.32993
-1.05687
-0.856448
-0.724044
-0.653003
-0.638963
-5.93276
-6.49259
-6.74731
-6.7047
-6.4016
-5.89681
-5.25666
-4.54856
-3.83147
-3.1491
-2.53583
-2.00698
-1.56875
-1.2181
-0.949411
-0.751383
-0.617618
-0.541431
-0.519965
-5.71018
-6.33146
-6.63622
-6.6274
-6.34077
-5.83755
-5.18923
-4.46843
-3.73871
-3.04703
-2.42876
-1.89961
-1.46471
-1.11963
-0.856591
-0.662217
-0.527314
-0.443621
-0.411094
-5.50716
-6.1898
-6.54216
-6.56272
-6.28772
-5.78067
-5.11959
-4.38207
-3.63681
-2.93455
-2.31035
-1.78145
-1.3513
-1.01417
-0.759844
-0.573105
-0.440014
-0.346585
-0.282132
-5.33893
-6.07893
-6.48986
-6.56277
-6.33213
-5.85811
-5.21991
-4.49471
-3.75316
-3.049
-2.41671
-1.87731
-1.43446
-1.08473
-0.818452
-0.622139
-0.47943
-0.37388
-0.286117
-5.21851
-5.99448
-6.44416
-6.56001
-6.37311
-5.93877
-5.33297
-4.63016
-3.90025
-3.19834
-2.55884
-2.00594
-1.54508
-1.17545
-0.88951
-0.677116
-0.523026
-0.413516
-0.332894
-5.20983
-5.99136
-6.45628
-6.59755
-6.44278
-6.04342
-5.4702
-4.79404
-4.08212
-3.38861
-2.74794
-2.18503
-1.70687
-1.31508
-1.00527
-0.770814
-0.598953
-0.477429
-0.391044
-5.32619
-6.08155
-6.53239
-6.6741
-6.53254
-6.15602
-5.60984
-4.96026
-4.2703
-3.59159
-2.95697
-2.39077
-1.89996
-1.48753
-1.152
-0.891195
-0.696133
-0.557019
-0.458841
-5.55234
-6.26276
-6.67566
-6.7964
-6.65151
-6.28667
-5.76189
-5.13802
-4.47297
-3.81475
-3.19336
-2.63147
-2.1344
-1.70471
-1.3424
-1.05016
-0.824505
-0.660451
-0.543972
-5.87938
-6.51683
-6.87105
-6.95472
-6.79447
-6.43328
-5.9261
-5.32788
-4.69091
-4.05907
-3.45884
-2.91084
-2.41743
-1.9784
-1.59216
-1.26481
-0.999455
-0.800003
-0.656365
-6.29951
-6.83939
-7.12304
-7.15996
-6.97647
-6.61297
-6.11985
-5.54607
-4.9383
-4.33635
-3.76327
-3.23821
-2.76044
-2.32529
-1.925
-1.56407
-1.24934
-0.99817
-0.812071
-6.74461
-7.20113
-7.41428
-7.40109
-7.19086
-6.8223
-6.34165
-5.79195
-5.21439
-4.64505
-4.10401
-3.61057
-3.16265
-2.75207
-2.36147
-1.98574
-1.62288
-1.29914
-1.0409
-7.24543
-7.61165
-7.74806
-7.67976
-7.43898
-7.06255
-6.59244
-6.0657
-5.51803
-4.98186
-4.47464
-4.01737
-3.61002
-3.24621
-2.90225
-2.56144
-2.19422
-1.80642
-1.40735
-7.82513
-8.08739
-8.14104
-8.01561
-7.74469
-7.36255
-6.90593
-6.4059
-5.89244
-5.39385
-4.92574
-4.51015
-4.15229
-3.85493
-3.60207
-3.38163
-3.14905
-2.88188
-2.55145
-8.46048
-8.60685
-8.55885
-8.35662
-8.03522
-7.62678
-7.16205
-6.66717
-6.16657
-5.68265
-5.22963
-4.82555
-4.47815
-4.19574
-3.97752
-3.82953
-3.73418
-3.67787
-3.63264
-9.17168
-9.16442
-8.99247
-8.69817
-8.31326
-7.8662
-7.3817
-6.88205
-6.38738
-5.91497
-5.47868
-5.09132
-4.75981
-4.48955
-4.28246
-4.14162
-4.06544
-4.05576
-4.11287
-9.95171
-9.76123
-9.46008
-9.07539
-8.62974
-8.14519
-7.64114
-7.13605
-6.64671
-6.18715
-5.76978
-5.40413
-5.09516
-4.84506
-4.65275
-4.51341
-4.41926
-4.36075
-4.3271
-10.6544
-10.2966
-9.8781
-9.4107
-8.9086
-8.38769
-7.86312
-7.34952
-6.86068
-6.40792
-6.00128
-5.64821
-5.35172
-5.11233
-4.92775
-4.79266
-4.69942
-4.63981
-4.6045
-11.2129
-10.7394
-10.2329
-9.70101
-9.15418
-8.60434
-8.06345
-7.54313
-7.05478
-6.60755
-6.20972
-5.86725
-5.58191
-5.35336
-5.17886
-5.05287
-4.96785
-4.91578
-4.88755
-11.6534
-11.0913
-10.5169
-9.93534
-9.35401
-8.78187
-8.22838
-7.70284
-7.21482
-6.77181
-6.38084
-6.04679
-5.77061
-5.55135
-5.38597
-5.26868
-5.19196
-5.14783
-5.12726
-11.9725
-11.3442
-10.7191
-10.1012
-9.49524
-8.90752
-8.34538
-7.8164
-7.32879
-6.8889
-6.50296
-6.17511
-5.90576
-5.69355
-5.53519
-5.42462
-5.35417
-5.31569
-5.30007
-12.1829
-11.4893
-10.827
-10.1866
-9.5668
-8.97087
-8.40446
-7.874
-7.38693
-6.94899
-6.56597
-6.24167
-5.97626
-5.76822
-5.61421
-5.50815
-5.44244
-5.40892
-5.39847
-12.183
-11.4894
-10.8272
-10.1867
-9.56695
-8.97103
-8.40463
-7.87417
-7.38711
-6.94918
-6.56617
-6.24188
-5.97647
-5.76844
-5.61445
-5.5084
-5.4427
-5.40919
-5.39876
-11.9726
-11.3445
-10.7194
-10.1016
-9.49563
-8.90795
-8.34584
-7.81688
-7.3293
-6.88944
-6.50351
-6.17569
-5.90638
-5.6942
-5.53589
-5.42536
-5.35498
-5.31657
-5.30103
-11.6536
-11.0916
-10.5174
-9.9359
-9.35464
-8.78257
-8.22912
-7.70362
-7.21564
-6.77267
-6.38174
-6.04774
-5.77161
-5.5524
-5.38709
-5.26987
-5.19324
-5.1492
-5.12873
-11.2131
-10.7398
-10.2335
-9.70173
-9.155
-8.60523
-8.0644
-7.54414
-7.05584
-6.60866
-6.21088
-5.86846
-5.58318
-5.35469
-5.18026
-5.05434
-4.96941
-4.91743
-4.8893
-10.6546
-10.297
-9.87878
-9.41153
-8.90955
-8.38874
-7.86425
-7.35073
-6.86196
-6.40926
-6.00267
-5.64967
-5.35323
-5.1139
-4.92939
-4.79438
-4.70122
-4.64169
-4.60648
-9.95194
-9.76175
-9.46082
-9.0763
-8.63079
-8.14635
-7.6424
-7.1374
-6.64813
-6.18864
-5.77134
-5.40574
-5.09683
-4.84678
-4.65451
-4.5152
-4.42106
-4.36255
-4.32891
-9.17193
-9.16503
-8.9934
-8.69937
-8.3147
-7.86786
-7.38357
-6.88411
-6.3896
-5.91735
-5.48124
-5.09404
-4.76272
-4.49263
-4.28572
-4.14495
-4.06865
-4.05851
-4.11467
-8.46064
-8.60696
-8.55902
-8.3569
-8.03562
-7.62731
-7.1627
-6.66791
-6.16736
-5.68343
-5.23035
-4.82612
-4.47851
-4.19578
-3.97726
-3.82905
-3.73396
-3.67879
-3.63609
-7.8252
-8.08776
-8.14175
-8.01673
-7.74624
-7.36455
-6.90835
-6.40872
-5.8956
-5.39728
-4.92939
-4.51398
-4.15633
-3.85928
-3.60699
-3.3875
-3.15639
-2.89116
-2.56293
-7.24545
-7.61171
-7.74832
-7.68031
-7.43985
-7.06377
-6.59399
-6.06755
-5.52013
-4.98414
-4.47706
-4.0199
-3.6127
-3.24913
-2.90552
-2.56515
-2.19822
-1.81029
-1.41028
-6.7446
-7.20114
-7.41447
-7.40156
-7.19167
-6.82347
-6.34316
-5.79377
-5.21645
-4.64729
-4.10639
-3.61306
-3.16526
-2.75483
-2.36437
-1.98868
-1.62565
-1.30147
-1.04269
-6.29948
-6.83935
-7.12313
-7.16032
-6.97716
-6.61402
-6.12125
-5.54776
-4.94022
-4.33845
-3.76547
-3.24049
-2.76277
-2.32765
-1.92732
-1.56625
-1.25124
-0.999714
-0.813286
-5.87934
-6.51675
-6.87109
-6.95499
-6.79506
-6.43422
-5.92738
-5.32945
-4.69269
-4.06099
-3.46083
-2.91286
-2.41944
-1.98035
-1.59398
-1.26642
-1.00081
-0.801101
-0.657254
-5.55227
-6.26264
-6.67562
-6.79659
-6.65201
-6.2875
-5.76304
-5.13944
-4.47459
-3.81647
-3.19513
-2.63322
-2.1361
-1.70629
-1.34382
-1.05138
-0.825514
-0.661276
-0.544659
-5.32613
-6.08142
-6.53233
-6.67424
-6.53296
-6.15675
-5.61086
-4.96152
-4.27174
-3.59311
-2.95851
-2.39226
-1.90137
-1.48881
-1.15311
-0.892137
-0.696911
-0.557667
-0.459404
-5.20977
-5.99123
-6.4562
-6.59766
-6.44313
-6.04406
-5.47109
-4.79515
-4.08337
-3.38992
-2.74925
-2.18629
-1.70803
-1.31611
-1.00616
-0.771559
-0.599575
-0.477964
-0.391539
-5.21844
-5.99434
-6.44404
-6.56002
-6.37331
-5.93918
-5.33359
-4.63095
-3.90114
-3.19928
-2.55978
-2.00682
-1.54588
-1.17615
-0.890104
-0.677609
-0.52344
-0.413896
-0.333322
-5.33902
-6.07898
-6.48993
-6.56291
-6.33235
-5.85842
-5.22032
-4.49521
-3.75372
-3.0496
-2.41732
-1.87792
-1.43504
-1.08528
-0.818951
-0.622591
-0.479834
-0.374228
-0.286375
-5.50726
-6.18989
-6.54221
-6.56269
-6.2876
-5.78046
-5.11931
-4.38173
-3.63644
-2.93419
-2.31001
-1.78113
-1.35103
-1.01394
-0.759655
-0.572946
-0.439874
-0.346445
-0.281954
-5.71024
-6.33152
-6.63626
-6.62742
-6.34078
-5.83754
-5.18921
-4.46841
-3.7387
-3.04702
-2.42876
-1.89962
-1.46473
-1.11965
-0.856619
-0.662247
-0.527345
-0.443654
-0.411118
-5.93281
-6.49263
-6.74733
-6.7047
-6.40158
-5.89677
-5.25662
-4.54852
-3.83143
-3.14907
-2.53582
-2.00697
-1.56875
-1.21811
-0.949427
-0.751402
-0.61764
-0.541452
-0.519983
-6.16877
-6.67382
-6.87996
-6.80404
-6.48443
-5.97718
-5.34358
-4.64621
-3.93984
-3.26523
-2.65592
-2.12688
-1.68543
-1.32994
-1.05688
-0.856463
-0.724061
-0.65302
-0.638979
-6.4316
-6.88038
-7.03598
-6.92648
-6.58953
-6.07762
-5.44753
-4.75762
-4.05917
-3.3904
-2.78409
-2.25494
-1.81121
-1.45254
-1.17723
-0.976462
-0.846972
-0.782004
-0.776717
-6.73753
-7.10905
-7.21251
-7.06956
-6.71337
-6.19319
-5.56235
-4.87598
-4.18255
-3.51807
-2.91464
-2.3865
-1.94271
-1.58381
-1.30969
-1.11204
-0.988896
-0.933392
-0.940531
-7.02876
-7.33572
-7.39641
-7.22244
-6.8453
-6.31331
-5.67788
-4.99197
-4.30181
-3.6414
-3.04216
-2.51769
-2.07753
-1.72283
-1.45487
-1.26545
-1.15399
-1.11337
-1.13845
-7.31574
-7.58943
-7.61201
-7.40332
-6.9987
-6.44753
-5.80096
-5.11049
-4.42056
-3.76329
-3.16927
-2.65115
-2.21869
-1.87327
-1.61741
-1.44254
-1.34958
-1.33089
-1.38101
-7.64683
-7.87464
-7.84821
-7.59439
-7.15278
-6.57455
-5.91158
-5.21397
-4.52436
-3.87259
-3.28809
-2.78208
-2.36425
-2.03586
-1.80058
-1.649
-1.58373
-1.59633
-1.68089
-8.01627
-8.17819
-8.09042
-7.77967
-7.29126
-6.67945
-5.99714
-5.29273
-4.60649
-3.96527
-3.39716
-2.9113
-2.51716
-2.21552
-2.01136
-1.89379
-1.86761
-1.92313
-2.05394
-8.39643
-8.49174
-8.32997
-7.94865
-7.40399
-6.75424
-6.05248
-5.34447
-4.66723
-4.04376
-3.50084
-3.0448
-2.68494
-2.42133
-2.26052
-2.18944
-2.21573
-2.32805
-2.51953
-8.81441
-8.82448
-8.56253
-8.0932
-7.48393
-6.79473
-6.07656
-5.37105
-4.71088
-4.11432
-3.60712
-3.19207
-2.87858
-2.66581
-2.56228
-2.55195
-2.64618
-2.83152
-3.10083
-9.29506
-9.14838
-8.7547
-8.18493
-7.50947
-6.78642
-6.06101
-5.36927
-4.73844
-4.18115
-3.72305
-3.36254
-3.10972
-2.96265
-2.93256
-2.99941
-3.17956
-3.45692
-3.82465
-9.69033
-9.36594
-8.83481
-8.16971
-7.44116
-6.70253
-5.98901
-5.33012
-4.74683
-4.24563
-3.8536
-3.56392
-3.38842
-3.32404
-3.38575
-3.54861
-3.83582
-4.22848
-4.72128
-10.0205
-9.52012
-8.84327
-8.0894
-7.32322
-6.58762
-5.90345
-5.2935
-4.77256
-4.34107
-4.02948
-3.82509
-3.74255
-3.77771
-3.95038
-4.22961
-4.6476
-5.18265
-5.83349
-10.298
-9.54222
-8.71604
-7.89965
-7.12763
-6.42502
-5.79516
-5.2557
-4.81617
-4.47154
-4.25805
-4.15648
-4.18571
-4.34063
-4.64747
-5.06813
-5.64696
-6.36009
-7.21605
-10.2844
-9.28504
-8.36971
-7.55356
-6.82668
-6.19768
-5.65341
-5.21027
-4.8743
-4.6361
-4.54039
-4.56102
-4.72291
-5.02057
-5.48905
-6.08271
-6.86326
-7.80736
-8.94675
-9.89925
-8.78195
-7.87271
-7.12389
-6.48692
-5.96285
-5.52645
-5.19741
-4.98053
-4.86336
-4.90166
-5.0624
-5.3786
-5.84534
-6.50982
-7.31898
-8.35929
-9.61331
-11.1682
-9.04494
-7.98635
-7.19831
-6.58839
-6.08683
-5.69878
-5.39302
-5.19654
-5.11509
-5.13486
-5.32496
-5.64651
-6.14332
-6.81334
-7.72143
-8.80942
-10.2016
-11.8985
-14.1274
-7.71023
-6.92965
-6.37179
-5.9591
-5.62805
-5.39935
-5.24152
-5.19154
-5.2582
-5.42821
-5.78641
-6.29044
-6.99893
-7.91734
-9.13765
-10.6035
-12.5006
-14.872
-18.3209
-5.99934
-5.66813
-5.41281
-5.2335
-5.09554
-5.04121
-5.04262
-5.14761
-5.36974
-5.69858
-6.23737
-6.94463
-7.90029
-9.12644
-10.7596
-12.762
-15.4271
-18.8927
-24.8122
-4.11986
-4.27658
-4.33971
-4.40378
-4.46819
-4.59451
-4.75927
-5.02
-5.39614
-5.88289
-6.60505
-7.52862
-8.76533
-10.3717
-12.5612
-15.3546
-19.2489
-24.5932
-36.0445
-2.3097
-2.83452
-3.172
-3.46448
-3.72842
-4.03361
-4.35776
-4.76507
-5.28014
-5.90684
-6.79485
-7.92479
-9.45663
-11.5146
-14.4492
-18.4322
-24.376
-33.1236
-57.9511
-0.759963
-1.4071
-1.92842
-2.41679
-2.86943
-3.34646
-3.81828
-4.35248
-4.97266
-5.69549
-6.69722
-7.97351
-9.76161
-12.3361
-16.3778
-22.7173
-34.0842
-55.0807
-130.113
)
;

boundaryField
{
    up
    {
        type            calculated;
        value           nonuniform List<scalar> 
84
(
-117.911
-63.8607
-39.1691
-26.6547
-19.5211
-14.9713
-11.7931
-9.42427
-7.58551
-6.12121
-4.94359
-3.9942
-3.22869
-2.61416
-2.12259
-1.72967
-1.41485
-1.16123
-0.955208
-0.785639
-0.643815
-0.521405
-0.405099
-0.251869
-0.242796
-0.310041
-0.366777
-0.43077
-0.510076
-0.613905
-0.755178
-0.951305
-1.26514
-2.50561
-3.71603
-4.1664
-4.31243
-4.59102
-4.87781
-5.12143
-5.29678
-5.398
-5.39829
-5.29778
-5.12295
-4.87961
-4.59306
-4.31426
-4.16736
-3.71974
-2.51891
-1.2679
-0.952879
-0.75629
-0.614737
-0.510729
-0.431312
-0.367263
-0.310584
-0.243111
-0.251665
-0.405115
-0.52142
-0.643829
-0.785651
-0.955219
-1.16124
-1.41486
-1.72967
-2.12258
-2.61415
-3.22867
-3.99419
-4.94358
-6.12122
-7.58554
-9.42431
-11.7931
-14.9713
-19.5211
-26.6547
-39.1691
-63.8606
-117.911
)
;
    }
    low
    {
        type            calculated;
        value           nonuniform List<scalar> 
84
(
-0.816003
-2.41528
-4.34807
-6.38166
-8.2364
-9.66544
-10.5392
-10.8792
-10.7745
-10.3469
-9.93943
-9.47024
-8.88791
-8.41511
-8.0039
-7.59009
-7.21958
-6.92068
-6.60359
-6.23915
-5.93012
-5.65733
-5.39026
-5.14559
-4.90619
-4.75413
-4.75117
-4.91747
-5.20877
-5.6175
-6.11024
-6.60372
-7.1594
-7.80182
-8.48848
-9.26704
-10.1395
-10.8995
-11.4908
-11.9587
-12.2998
-12.5426
-12.5426
-12.2999
-11.9588
-11.4909
-10.8996
-10.1396
-9.2672
-8.48842
-7.80191
-7.15932
-6.60367
-6.11019
-5.61746
-5.20873
-4.91746
-4.75117
-4.75415
-4.90624
-5.14574
-5.39028
-5.65737
-5.93015
-6.23917
-6.60361
-6.92069
-7.21958
-7.59009
-8.00389
-8.41509
-8.88788
-9.47019
-9.93937
-10.3468
-10.7745
-10.8792
-10.5392
-9.66549
-8.23645
-6.38171
-4.34811
-2.41531
-0.816011
)
;
    }
    left
    {
        type            calculated;
        value           nonuniform List<scalar> 
19
(
-0.745697
-1.38141
-1.91348
-2.41877
-2.89115
-3.38835
-3.88157
-4.44169
-5.09288
-5.86187
-6.93296
-8.30938
-10.2605
-13.115
-17.6361
-24.8427
-37.9116
-62.3333
-122.292
)
;
    }
    right
    {
        type            calculated;
        value           nonuniform List<scalar> 
19
(
-0.745702
-1.38142
-1.91348
-2.41877
-2.89115
-3.38835
-3.88157
-4.44169
-5.09289
-5.86187
-6.93295
-8.30937
-10.2605
-13.1149
-17.6361
-24.8427
-37.9116
-62.3333
-122.292
)
;
    }
    frontAndBackPlanes
    {
        type            empty;
    }
}


// ************************************************************************* //
