/*--------------------------------*- C++ -*----------------------------------*\
  =========                 |
  \\      /  F ield         | OpenFOAM: The Open Source CFD Toolbox
   \\    /   O peration     | Website:  https://openfoam.org
    \\  /    A nd           | Version:  7
     \\/     M anipulation  |
\*---------------------------------------------------------------------------*/
FoamFile
{
    version     2.0;
    format      ascii;
    class       volScalarField;
    location    "0.21";
    object      gradTx;
}
// * * * * * * * * * * * * * * * * * * * * * * * * * * * * * * * * * * * * * //

dimensions      [0 -1 0 1 0 0 0];

internalField   nonuniform List<scalar> 
1596
(
-0.0942286
-0.472697
-0.845678
-1.18045
-1.4742
-1.72567
-1.94651
-2.14425
-2.32946
-2.52225
-2.72872
-2.97315
-3.28375
-3.70086
-4.27154
-5.11278
-6.40435
-8.53415
-12.3043
0.0208694
-0.393002
-0.760245
-1.07643
-1.34856
-1.57795
-1.77519
-1.94407
-2.09259
-2.23143
-2.36231
-2.49867
-2.64593
-2.81181
-2.99256
-3.18028
-3.32489
-3.32346
-2.95703
0.115348
-0.319984
-0.675119
-0.969042
-1.2163
-1.42141
-1.59354
-1.73523
-1.85187
-1.94933
-2.02733
-2.09315
-2.14588
-2.18524
-2.20338
-2.18607
-2.09351
-1.85541
-1.33305
0.130891
-0.280117
-0.604159
-0.867436
-1.08575
-1.26501
-1.4124
-1.52993
-1.62105
-1.68879
-1.73251
-1.75586
-1.75666
-1.7327
-1.67771
-1.58034
-1.41532
-1.14091
-0.674847
0.0405098
-0.290677
-0.55998
-0.782056
-0.966797
-1.11867
-1.24208
-1.33845
-1.40966
-1.45689
-1.47976
-1.47965
-1.45457
-1.40223
-1.3186
-1.19579
-1.01923
-0.765414
-0.387458
-0.147798
-0.358318
-0.552295
-0.722798
-0.869075
-0.991583
-1.09121
-1.16835
-1.22345
-1.2563
-1.26682
-1.25479
-1.2187
-1.15644
-1.06567
-0.940914
-0.774213
-0.552606
-0.249872
-0.398128
-0.477583
-0.585294
-0.696577
-0.799974
-0.890697
-0.965866
-1.02432
-1.06511
-1.08684
-1.08949
-1.07173
-1.0323
-0.969223
-0.881121
-0.763966
-0.61356
-0.422749
-0.176983
-0.660152
-0.625986
-0.650001
-0.70047
-0.759146
-0.816616
-0.866686
-0.906399
-0.933465
-0.945481
-0.942208
-0.921516
-0.882195
-0.822283
-0.740842
-0.634645
-0.501497
-0.337367
-0.134202
-0.931264
-0.816931
-0.766717
-0.75606
-0.766535
-0.786491
-0.807624
-0.825332
-0.836138
-0.836763
-0.826453
-0.802502
-0.763505
-0.707364
-0.633164
-0.538049
-0.420697
-0.278619
-0.107168
-1.0942
-0.950684
-0.856748
-0.80232
-0.774632
-0.763086
-0.759147
-0.757367
-0.753577
-0.743982
-0.727329
-0.700634
-0.662289
-0.61013
-0.543164
-0.458799
-0.3561
-0.233406
-0.0879166
-1.22745
-1.0718
-0.951647
-0.864831
-0.804928
-0.764334
-0.735824
-0.714035
-0.69464
-0.673656
-0.64941
-0.618789
-0.579967
-0.530685
-0.469761
-0.394711
-0.304646
-0.198249
-0.0736731
-1.36383
-1.20727
-1.07081
-0.95856
-0.869727
-0.800489
-0.745979
-0.701807
-0.664072
-0.628927
-0.594447
-0.557478
-0.515965
-0.467506
-0.410658
-0.342919
-0.26323
-0.170311
-0.0626819
-1.40251
-1.26687
-1.13371
-1.01343
-0.910013
-0.823266
-0.750953
-0.690224
-0.638114
-0.591347
-0.548095
-0.505417
-0.461224
-0.413129
-0.35955
-0.298034
-0.227383
-0.146303
-0.0534589
-1.41385
-1.30096
-1.1787
-1.05868
-0.947903
-0.849295
-0.763155
-0.688451
-0.62345
-0.565716
-0.513768
-0.465019
-0.417459
-0.368775
-0.317291
-0.2606
-0.197354
-0.126192
-0.0458103
-1.41398
-1.32165
-1.21277
-1.09769
-0.984488
-0.878274
-0.78152
-0.695035
-0.618471
-0.550398
-0.489885
-0.434798
-0.3833
-0.333199
-0.282767
-0.229639
-0.172323
-0.109366
-0.0394202
-1.38233
-1.31215
-1.21955
-1.11426
-1.00441
-0.896301
-0.793958
-0.699793
-0.614812
-0.538664
-0.471112
-0.410578
-0.355508
-0.303907
-0.254073
-0.203716
-0.151254
-0.0951595
-0.0340251
-1.31724
-1.26824
-1.19362
-1.1018
-1.00032
-0.895825
-0.793253
-0.696183
-0.606785
-0.525728
-0.453525
-0.389219
-0.331627
-0.279025
-0.229815
-0.18183
-0.13346
-0.0831573
-0.0294755
-1.23977
-1.20442
-1.1457
-1.06802
-0.9773
-0.879773
-0.780685
-0.684347
-0.593809
-0.510619
-0.435991
-0.369585
-0.310622
-0.257677
-0.209298
-0.163461
-0.11858
-0.0731303
-0.0256778
-1.17482
-1.15042
-1.10383
-1.03753
-0.95592
-0.864599
-0.768895
-0.673604
-0.582478
-0.497794
-0.421369
-0.353399
-0.293453
-0.240354
-0.192754
-0.148716
-0.106653
-0.0650746
-0.0226039
-1.05887
-1.04911
-1.01682
-0.964888
-0.89665
-0.816781
-0.730186
-0.641665
-0.555303
-0.473868
-0.399646
-0.333338
-0.274881
-0.223405
-0.177727
-0.13603
-0.0967515
-0.0584869
-0.0200719
-0.929304
-0.931082
-0.911733
-0.873489
-0.818906
-0.751763
-0.67636
-0.597213
-0.518442
-0.443057
-0.373621
-0.311207
-0.256065
-0.207615
-0.164847
-0.126033
-0.0895395
-0.0539146
-0.0182612
-0.793174
-0.802319
-0.79364
-0.767856
-0.726565
-0.672646
-0.609716
-0.541822
-0.472898
-0.405965
-0.343649
-0.287242
-0.237205
-0.193226
-0.154494
-0.119388
-0.0860742
-0.052638
-0.0178537
-0.641232
-0.653897
-0.653843
-0.639933
-0.612507
-0.573339
-0.525192
-0.471411
-0.415507
-0.360279
-0.308165
-0.260519
-0.217883
-0.180206
-0.146986
-0.116897
-0.0880163
-0.0576043
-0.0222239
-0.468906
-0.462116
-0.445873
-0.420457
-0.387635
-0.34989
-0.310084
-0.270776
-0.234149
-0.201478
-0.173244
-0.149242
-0.12873
-0.110892
-0.094954
-0.0799816
-0.0645933
-0.0462855
-0.0206755
-0.313386
-0.347603
-0.383437
-0.414216
-0.435394
-0.444291
-0.44052
-0.42525
-0.401054
-0.370864
-0.337286
-0.302675
-0.268397
-0.235802
-0.205904
-0.17936
-0.15569
-0.133189
-0.107643
-0.105732
-0.121043
-0.140722
-0.161046
-0.179237
-0.193344
-0.202674
-0.207206
-0.207818
-0.205541
-0.20084
-0.194312
-0.18556
-0.174701
-0.162201
-0.149488
-0.1375
-0.127306
-0.118835
0.102314
0.0833928
0.0561998
0.0241923
-0.00933268
-0.0416504
-0.0710432
-0.0966041
-0.118364
-0.136746
-0.151704
-0.163248
-0.170346
-0.172379
-0.169323
-0.162838
-0.154611
-0.146717
-0.139875
0.309625
0.283747
0.246413
0.20149
0.152699
0.103288
0.0556214
0.0111128
-0.02979
-0.0672091
-0.100917
-0.130534
-0.154444
-0.170998
-0.179076
-0.179898
-0.175615
-0.169412
-0.162999
0.496478
0.459466
0.409711
0.351735
0.289396
0.226051
0.164174
0.105187
0.049552
-0.00295076
-0.0522766
-0.0980602
-0.138377
-0.170508
-0.191606
-0.201464
-0.201878
-0.197124
-0.190403
0.689389
0.638536
0.574717
0.502633
0.426281
0.349137
0.27369
0.201266
0.132205
0.0660255
0.00235355
-0.0589304
-0.116192
-0.166125
-0.203943
-0.226909
-0.23486
-0.23241
-0.224825
0.833971
0.767332
0.689825
0.606009
0.519786
0.434252
0.351388
0.271986
0.195957
0.122344
0.0501823
-0.0215218
-0.0921534
-0.15889
-0.215681
-0.256676
-0.277311
-0.279884
-0.270794
0.968424
0.888371
0.797609
0.702455
0.607025
0.514027
0.424934
0.34005
0.258944
0.180305
0.102698
0.0241657
-0.0562951
-0.137842
-0.215239
-0.281058
-0.324844
-0.342004
-0.335971
1.09192
0.994349
0.889432
0.783573
0.680386
0.581826
0.488693
0.400768
0.317356
0.236967
0.158027
0.0780416
-0.0054645
-0.0945187
-0.187354
-0.279522
-0.357858
-0.408415
-0.417352
1.17066
1.04662
0.920366
0.797515
0.68069
0.570923
0.468313
0.372225
0.281779
0.195498
0.111834
0.0283262
-0.0580951
-0.151608
-0.255124
-0.371559
-0.495318
-0.615009
-0.709056
1.21822
1.08312
0.955542
0.838854
0.733169
0.637573
0.550695
0.47109
0.397477
0.328606
0.26355
0.201182
0.140192
0.0785089
0.0132182
-0.0616808
-0.152022
-0.264482
-0.401558
1.25257
1.11343
0.990394
0.881915
0.785434
0.698763
0.61989
0.547268
0.479752
0.416378
0.35666
0.300277
0.246979
0.196771
0.149939
0.106195
0.0649328
0.0238207
-0.0216704
1.18354
1.0249
0.890484
0.774935
0.674176
0.585303
0.505923
0.434233
0.368888
0.308712
0.253034
0.201378
0.15335
0.108894
0.0684048
0.0323323
0.00154203
-0.0229191
-0.0405656
1.03744
0.893537
0.77348
0.671586
0.583737
0.506972
0.438946
0.377902
0.32257
0.271891
0.225259
0.182263
0.142532
0.10592
0.0725176
0.0423177
0.0154091
-0.00802656
-0.0280849
0.860869
0.740408
0.639617
0.554312
0.481143
0.417548
0.361495
0.311437
0.26627
0.225072
0.187297
0.152558
0.120473
0.0908294
0.0635906
0.0386439
0.015982
-0.00425268
-0.0221155
0.647561
0.554839
0.478012
0.413578
0.358738
0.311362
0.269809
0.232837
0.199575
0.169299
0.141574
0.116083
0.0925107
0.0706657
0.0505027
0.0319303
0.0149559
-0.000276107
-0.0137732
0.407547
0.345734
0.296108
0.25529
0.220965
0.191535
0.165852
0.143075
0.122631
0.104045
0.0870299
0.0713763
0.0568698
0.0433784
0.0308632
0.0192627
0.00858453
-0.00106176
-0.00965534
0.156385
0.131391
0.112048
0.0963555
0.0832086
0.0719363
0.0620938
0.0533682
0.045547
0.0384546
0.0319791
0.0260343
0.0205309
0.0154073
0.0106332
0.00617109
0.00200839
-0.00182634
-0.00532813
-0.15631
-0.131224
-0.111818
-0.0960845
-0.0829122
-0.0716267
-0.061781
-0.0530602
-0.0452506
-0.0381758
-0.0317229
-0.0258049
-0.0203321
-0.0152424
-0.0105046
-0.00608091
-0.00195788
0.00183702
0.00529966
-0.407477
-0.345586
-0.295907
-0.255053
-0.220707
-0.191268
-0.165584
-0.142814
-0.122383
-0.103816
-0.0868245
-0.0711983
-0.0567227
-0.0432651
-0.0307861
-0.0192234
-0.0085841
0.00102365
0.00957999
-0.647491
-0.554695
-0.477815
-0.413343
-0.358478
-0.311088
-0.26953
-0.232561
-0.199309
-0.169047
-0.141341
-0.115874
-0.0923273
-0.0705104
-0.0503764
-0.0318332
-0.0148874
0.000317669
0.0137902
-0.860816
-0.740308
-0.639481
-0.55415
-0.480964
-0.417361
-0.361307
-0.311255
-0.266099
-0.224916
-0.187161
-0.152445
-0.120386
-0.0907682
-0.0635564
-0.038636
-0.0159991
0.0042126
0.022055
-1.03741
-0.893473
-0.773388
-0.671472
-0.583607
-0.506834
-0.438806
-0.377765
-0.322442
-0.271776
-0.225162
-0.182187
-0.142479
-0.105891
-0.0725131
-0.0423351
-0.0154445
0.00797863
0.0280317
-1.18353
-1.02488
-0.890446
-0.774878
-0.674106
-0.585226
-0.505846
-0.434162
-0.36883
-0.308671
-0.253015
-0.201385
-0.153387
-0.108964
-0.0685073
-0.0324631
-0.00168808
0.0227798
0.0404588
-1.25257
-1.11333
-0.990154
-0.881529
-0.784905
-0.698101
-0.619111
-0.546391
-0.478794
-0.415355
-0.355586
-0.299161
-0.245829
-0.19559
-0.148737
-0.105001
-0.0638175
-0.0229357
0.0220757
-1.21844
-1.0837
-0.956497
-0.840172
-0.734826
-0.639539
-0.552934
-0.47357
-0.400165
-0.331479
-0.266597
-0.204406
-0.143619
-0.0822005
-0.0172721
0.0571216
0.146823
0.258596
0.395153
-1.17057
-1.04637
-0.91994
-0.796912
-0.679919
-0.570003
-0.467268
-0.371078
-0.280555
-0.194222
-0.110528
-0.027013
0.0593934
0.152876
0.256372
0.372855
0.496841
0.617066
0.712051
-1.092
-0.994527
-0.889698
-0.783909
-0.680775
-0.582255
-0.489151
-0.401245
-0.317846
-0.237469
-0.15854
-0.0785673
0.00492815
0.0939912
0.186887
0.279209
0.357812
0.408703
0.41788
-0.968471
-0.888482
-0.797776
-0.702667
-0.607271
-0.514298
-0.425224
-0.340352
-0.259255
-0.180623
-0.103019
-0.0244842
0.0559957
0.137597
0.215101
0.281089
0.325072
0.342395
0.336444
-0.834019
-0.767444
-0.689996
-0.606228
-0.520042
-0.434533
-0.351686
-0.272292
-0.196264
-0.122646
-0.0504703
0.0212597
0.091939
0.158756
0.215661
0.256792
0.277548
0.280196
0.271125
-0.689434
-0.638649
-0.574891
-0.502859
-0.426547
-0.34943
-0.273997
-0.201575
-0.132507
-0.0663109
-0.00261084
0.0587159
0.11604
0.166058
0.203976
0.227038
0.235061
0.232649
0.225077
-0.496518
-0.459571
-0.409877
-0.351952
-0.289652
-0.226331
-0.164465
-0.105475
-0.0498249
0.00270372
0.0520669
0.097901
0.138283
0.17049
0.191665
0.201589
0.202048
0.197317
0.190607
-0.309669
-0.283858
-0.246587
-0.201716
-0.152965
-0.103575
-0.0559146
-0.0113961
0.0295299
0.0669842
0.100738
0.13041
0.154384
0.171004
0.179143
0.180012
0.175761
0.169576
0.163176
-0.102352
-0.0834982
-0.0563687
-0.0244136
0.009075
0.0413747
0.0707678
0.0963456
0.118136
0.136559
0.151566
0.163165
0.17032
0.172408
0.169398
0.162948
0.154746
0.146868
0.140042
0.105642
0.120771
0.140262
0.160415
0.178471
0.19249
0.201786
0.206332
0.206999
0.204809
0.200213
0.1938
0.185163
0.174409
0.161998
0.149359
0.137434
0.127308
0.118937
0.313448
0.34784
0.383889
0.414894
0.43628
0.445346
0.441693
0.426482
0.402291
0.372061
0.338409
0.303704
0.269323
0.236627
0.206637
0.180015
0.156283
0.133734
0.108143
0.468837
0.461875
0.445456
0.419885
0.386945
0.349128
0.309297
0.270006
0.233428
0.200829
0.17268
0.148766
0.128339
0.110579
0.0947102
0.079797
0.0644598
0.0461988
0.0206393
0.64127
0.653974
0.653958
0.640079
0.612672
0.573509
0.525355
0.471556
0.415629
0.360375
0.308235
0.260566
0.217913
0.180222
0.146992
0.116898
0.0880129
0.0575999
0.022222
0.79318
0.802327
0.793651
0.767868
0.726578
0.672658
0.609725
0.541827
0.472898
0.405962
0.343642
0.287233
0.237195
0.193216
0.154485
0.11938
0.086068
0.0526343
0.017853
0.92931
0.93109
0.911742
0.873499
0.818915
0.751771
0.676365
0.597215
0.51844
0.443052
0.373614
0.311199
0.256056
0.207607
0.16484
0.126028
0.0895356
0.0539125
0.0182607
1.05888
1.04911
1.01683
0.964894
0.896656
0.816785
0.730188
0.641664
0.5553
0.473862
0.39964
0.333331
0.274874
0.223398
0.177722
0.136026
0.096749
0.0584855
0.0200715
1.17483
1.15043
1.10383
1.03754
0.955926
0.864604
0.768897
0.673603
0.582475
0.49779
0.421363
0.353394
0.293447
0.240349
0.19275
0.148713
0.106651
0.0650735
0.0226035
1.23977
1.20443
1.14571
1.06803
0.977305
0.879776
0.780686
0.684345
0.593806
0.510614
0.435986
0.36958
0.310617
0.257673
0.209295
0.163459
0.118579
0.0731292
0.0256774
1.31724
1.26825
1.19362
1.1018
1.00032
0.895826
0.793252
0.696181
0.606782
0.525723
0.45352
0.389214
0.331623
0.279021
0.229812
0.181827
0.133458
0.083156
0.0294751
1.38233
1.31215
1.21955
1.11427
1.00442
0.896302
0.793958
0.699791
0.614809
0.53866
0.471108
0.410574
0.355504
0.303903
0.254069
0.203713
0.151251
0.095158
0.0340247
1.41398
1.32165
1.21277
1.09769
0.984489
0.878273
0.781518
0.695032
0.618467
0.550393
0.489881
0.434794
0.383296
0.333195
0.282763
0.229635
0.172321
0.109365
0.0394199
1.41385
1.30096
1.17871
1.05869
0.947904
0.849295
0.763153
0.688448
0.623447
0.565712
0.513763
0.465014
0.417454
0.368771
0.317286
0.260596
0.197352
0.126191
0.0458102
1.40252
1.26688
1.13372
1.01344
0.910014
0.823266
0.750952
0.690222
0.638111
0.591344
0.548091
0.505413
0.46122
0.413125
0.359546
0.29803
0.227381
0.146302
0.0534591
1.36383
1.20727
1.07081
0.958556
0.869723
0.800483
0.745973
0.701802
0.664066
0.628922
0.594441
0.557473
0.515959
0.467501
0.410654
0.342916
0.263229
0.170311
0.0626823
1.22746
1.0718
0.951651
0.864833
0.804928
0.764333
0.735822
0.714032
0.694636
0.673652
0.649405
0.618785
0.579963
0.530682
0.469758
0.39471
0.304646
0.19825
0.0736739
1.09422
0.950692
0.856753
0.802322
0.774632
0.763085
0.759145
0.757364
0.753574
0.743979
0.727325
0.70063
0.662286
0.610128
0.543163
0.458799
0.356101
0.233408
0.0879175
0.931273
0.816936
0.766719
0.75606
0.766535
0.78649
0.807623
0.82533
0.836136
0.836761
0.826451
0.8025
0.763504
0.707365
0.633166
0.538052
0.4207
0.278621
0.107169
0.660159
0.625989
0.650002
0.70047
0.759146
0.816615
0.866684
0.906397
0.933463
0.945478
0.942206
0.921515
0.882195
0.822285
0.740845
0.634649
0.501501
0.33737
0.134202
0.398134
0.477586
0.585296
0.696579
0.799975
0.890697
0.965866
1.02432
1.06511
1.08684
1.08949
1.07174
1.0323
0.969226
0.881126
0.763971
0.613564
0.422751
0.176983
0.147802
0.358321
0.552298
0.722801
0.869077
0.991583
1.09121
1.16835
1.22345
1.2563
1.26682
1.2548
1.21871
1.15644
1.06567
0.940918
0.774216
0.552607
0.249871
-0.0405075
0.29068
0.559983
0.782058
0.966799
1.11867
1.24208
1.33845
1.40966
1.45689
1.47977
1.47965
1.45458
1.40223
1.3186
1.19579
1.01923
0.765414
0.387457
-0.130891
0.280119
0.604161
0.867438
1.08575
1.26501
1.4124
1.52993
1.62105
1.68879
1.73251
1.75586
1.75666
1.7327
1.67771
1.58034
1.41532
1.1409
0.674845
-0.115349
0.319985
0.67512
0.969042
1.2163
1.42141
1.59354
1.73523
1.85188
1.94933
2.02733
2.09315
2.14588
2.18524
2.20338
2.18607
2.09351
1.85541
1.33304
-0.0208695
0.393002
0.760245
1.07642
1.34856
1.57795
1.77519
1.94407
2.09259
2.23143
2.36232
2.49867
2.64593
2.81181
2.99255
3.18028
3.32488
3.32345
2.95703
0.0942294
0.472698
0.845678
1.18045
1.4742
1.72567
1.94651
2.14425
2.32946
2.52225
2.72872
2.97315
3.28375
3.70085
4.27153
5.11278
6.40435
8.53415
12.3043
)
;

boundaryField
{
    up
    {
        type            calculated;
        value           nonuniform List<scalar> 
84
(
-12.3043
-2.95703
-1.33305
-0.674847
-0.387458
-0.249872
-0.176983
-0.134202
-0.107168
-0.0879166
-0.0736731
-0.0626819
-0.0534589
-0.0458103
-0.0394202
-0.0340251
-0.0294755
-0.0256778
-0.0226039
-0.0200719
-0.0182612
-0.0178537
-0.0222239
-0.0206755
-0.0918067
-0.11071
-0.131552
-0.153674
-0.179503
-0.21161
-0.253617
-0.30951
-0.376015
-0.699295
-0.414482
-0.0224159
-0.0404676
-0.0280068
-0.0220711
-0.0137574
-0.00965011
-0.00532883
0.00530037
0.00957488
0.0137745
0.0220109
0.027954
0.0403611
0.0228106
0.407914
0.702831
0.376489
0.30992
0.253922
0.211849
0.179699
0.153847
0.131719
0.110858
0.0922587
0.0206393
0.022222
0.017853
0.0182607
0.0200715
0.0226035
0.0256774
0.0294751
0.0340247
0.0394199
0.0458102
0.0534591
0.0626823
0.0736739
0.0879175
0.107169
0.134202
0.176983
0.249871
0.387457
0.674845
1.33304
2.95703
12.3043
)
;
    }
    low
    {
        type            calculated;
        value           nonuniform List<scalar> 
84
(
-0.0849035
0.0349861
0.138161
0.155708
0.0561248
-0.150689
-0.421948
-0.700196
-0.977606
-1.13228
-1.26083
-1.39058
-1.41373
-1.41549
-1.40957
-1.36911
-1.29649
-1.21705
-1.14741
-1.0228
-0.889054
-0.752154
-0.601225
-0.433879
-0.286061
-0.0958784
0.0910923
0.281724
0.460673
0.653565
0.804599
0.944531
1.076
1.16512
1.22096
1.26509
1.20636
1.062
0.882861
0.665113
0.419194
0.161261
-0.161186
-0.419122
-0.665038
-0.882801
-1.06196
-1.20634
-1.26507
-1.22114
-1.16503
-1.07606
-0.944572
-0.804645
-0.653611
-0.460715
-0.28177
-0.0911314
0.0957904
0.286121
0.433816
0.601258
0.752161
0.889059
1.0228
1.14741
1.21706
1.2965
1.36911
1.40957
1.4155
1.41373
1.39058
1.26084
1.13229
0.977614
0.700203
0.421955
0.150693
-0.0561225
-0.155708
-0.138163
-0.0349875
0.0849039
)
;
    }
    left
    {
        type            calculated;
        value           nonuniform List<scalar> 
19
(
-0.0836772
-0.45393
-0.834573
-1.18098
-1.48742
-1.75065
-1.98317
-2.1938
-2.39303
-2.60601
-2.83866
-3.11822
-3.4814
-3.98202
-4.67913
-5.73717
-7.40556
-10.2262
-10.6718
)
;
    }
    right
    {
        type            calculated;
        value           nonuniform List<scalar> 
19
(
0.083678
0.453932
0.834574
1.18098
1.48742
1.75065
1.98317
2.1938
2.39303
2.60601
2.83866
3.11821
3.4814
3.98201
4.67913
5.73716
7.40556
10.2262
10.6718
)
;
    }
    frontAndBackPlanes
    {
        type            empty;
    }
}


// ************************************************************************* //
