/*--------------------------------*- C++ -*----------------------------------*\
  =========                 |
  \\      /  F ield         | OpenFOAM: The Open Source CFD Toolbox
   \\    /   O peration     | Website:  https://openfoam.org
    \\  /    A nd           | Version:  7
     \\/     M anipulation  |
\*---------------------------------------------------------------------------*/
FoamFile
{
    version     2.0;
    format      ascii;
    class       volScalarField;
    location    "0.332";
    object      gradTz;
}
// * * * * * * * * * * * * * * * * * * * * * * * * * * * * * * * * * * * * * //

dimensions      [0 -1 0 1 0 0 0];

internalField   nonuniform List<scalar> 
1596
(
-9.68241e-16
-4.72151e-16
4.78133e-16
8.9402e-18
-9.15014e-16
0
-4.29755e-16
-4.23723e-16
-2.59976e-17
-2.22065e-16
-2.17834e-18
-2.20533e-16
9.67907e-16
-2.17709e-16
1.01809e-15
8.77895e-16
5.22001e-16
6.58788e-16
0
9.69056e-16
0
1.37537e-15
-8.47475e-18
-4.25211e-16
4.21944e-16
8.64173e-16
2.45925e-17
4.10443e-16
-1.97325e-16
3.93396e-16
-6.33907e-18
-5.45072e-16
-3.39919e-16
-8.2331e-16
-8.0256e-16
-7.29723e-16
4.15062e-16
0
-4.77366e-16
0
-9.01907e-16
1.34709e-17
8.35317e-16
-2.30467e-16
1.56626e-17
-5.8674e-18
-6.13779e-18
-6.65551e-18
1.5236e-16
0
2.82808e-16
8.03587e-16
-7.90758e-17
6.33057e-17
1.49064e-16
2.3172e-16
0
7.47118e-16
-2.27756e-16
2.26925e-16
0
-2.19238e-16
-2.25499e-16
3.9067e-16
-3.45991e-16
0
0
-1.18258e-16
7.94786e-17
0
-2.37514e-16
-3.04372e-16
2.09619e-16
-2.13197e-16
-1.09829e-17
0
1.30199e-16
3.52044e-16
-3.22151e-16
0
-9.64329e-17
-2.9236e-16
0
4.40136e-16
-4.40996e-17
-3.98987e-17
-3.33783e-17
2.30765e-16
2.81459e-16
2.86339e-17
7.05868e-18
-2.26681e-16
1.14497e-17
1.04792e-16
-4.48205e-17
-3.38107e-17
-4.83666e-16
4.65089e-16
-4.12174e-16
-7.5643e-19
-3.71754e-16
1.05176e-17
-1.05525e-17
-2.98064e-16
0
-2.72717e-17
-2.72451e-16
-2.54427e-16
2.08972e-16
2.11832e-16
-2.90332e-18
-1.26918e-16
-1.06289e-16
8.10624e-17
2.82562e-16
-4.9425e-16
5.62639e-16
3.178e-16
0
2.8471e-16
1.6994e-16
-8.21507e-17
3.78673e-16
-7.16323e-17
-3.00153e-16
2.87368e-18
-1.7979e-16
-2.10006e-16
-1.6597e-16
1.39952e-16
1.28036e-16
-1.70252e-18
-3.3938e-17
2.42206e-17
7.8324e-16
-9.37476e-16
0
0
-3.59004e-16
0
0
0
2.55834e-16
0
0
1.6439e-16
6.52229e-18
4.15374e-17
-1.22072e-16
0
6.49846e-17
2.50287e-17
0
-5.13176e-16
9.91147e-16
0
0
3.69724e-16
0
-1.45663e-16
1.45516e-16
-2.60402e-16
1.09626e-16
-1.10428e-16
0
1.59632e-16
1.50671e-16
0
-8.70927e-17
-6.64173e-17
-2.18134e-17
1.20973e-15
-5.70238e-16
0
-4.2428e-16
4.19532e-16
0
3.24712e-16
0
0
0
1.03182e-16
-1.03677e-16
0
-1.22998e-16
-3.55998e-17
0
7.48055e-18
5.02261e-17
0
-3.07046e-16
0
0
4.25706e-16
-8.01214e-16
3.54947e-17
1.40951e-17
-1.37206e-16
1.37177e-17
3.88318e-18
-1.09482e-16
-1.79358e-16
0
1.35725e-16
-2.65789e-17
2.69778e-17
6.83846e-17
-3.92418e-17
-1.82967e-17
2.63164e-16
-2.35674e-17
2.52358e-16
8.81472e-16
-4.05069e-17
-3.78019e-16
0
0
0
2.25895e-16
9.25213e-17
3.3539e-16
-8.10662e-17
-1.33297e-16
-8.13796e-17
-4.33496e-17
1.92209e-17
-4.15717e-17
1.74551e-17
-2.86283e-16
2.80259e-16
-5.22407e-16
-8.70883e-16
8.14253e-16
3.33768e-16
-6.23253e-16
5.50213e-16
-4.84796e-16
1.26061e-16
9.94102e-17
-9.01307e-17
6.16364e-17
-5.42869e-17
1.57488e-16
0
-1.17639e-17
8.60918e-17
-1.27501e-17
-1.82986e-15
8.47519e-16
7.40029e-19
-1.9737e-16
2.12543e-17
3.24845e-16
-6.20913e-16
-2.63481e-16
2.29953e-16
-1.99468e-16
-1.73331e-16
0
-2.00858e-16
-6.00592e-17
-1.08937e-16
-6.48141e-17
5.11429e-18
-5.55032e-17
8.76373e-19
2.99073e-16
-2.70057e-16
6.39323e-19
-2.14494e-16
-5.49342e-16
5.21485e-16
1.47062e-18
2.56762e-16
-2.23889e-16
3.84045e-16
9.11976e-17
7.68971e-17
2.42516e-16
0
2.04135e-16
9.37326e-17
0
3.08061e-17
7.47878e-19
0
2.61987e-16
2.12985e-16
-4.38865e-16
5.32772e-16
-8.1113e-16
5.83762e-16
2.29893e-16
-2.90585e-17
-3.7977e-16
7.25385e-17
-7.21805e-17
-2.25111e-16
9.14712e-17
-4.46401e-17
-9.53658e-17
4.20799e-17
-2.59641e-17
9.74933e-18
-2.78628e-16
9.65856e-16
-7.17667e-16
4.02088e-16
0
0
-1.18859e-16
2.50449e-16
-1.87599e-16
3.55526e-16
0
0
1.53743e-16
-1.35628e-16
-9.88443e-17
3.10219e-17
-3.26714e-17
1.70038e-17
0
1.94825e-17
2.60538e-16
-2.16436e-16
-1.92721e-16
-3.2139e-16
-1.12479e-16
1.46541e-16
0
-1.77455e-16
-1.48952e-16
1.3564e-16
-1.13562e-16
9.4217e-17
0
3.74294e-17
7.58812e-17
0
0
0
-1.85807e-17
4.29394e-16
1.7104e-16
-5.79282e-16
1.64512e-16
1.4401e-16
0
0
1.68628e-16
-8.75184e-17
-1.31194e-16
1.09835e-16
-9.1115e-17
0
-2.55755e-17
2.27593e-17
0
-1.88194e-17
-6.5249e-18
-2.2663e-16
6.65092e-16
-8.16719e-16
-3.37628e-16
1.75436e-16
-1.37075e-16
1.18136e-16
0
-8.53588e-17
7.29792e-17
0
0
3.70046e-17
-3.70472e-17
1.1549e-17
-1.457e-17
2.74955e-17
2.89456e-18
4.82692e-18
1.14993e-16
-1.05099e-16
5.50063e-16
-3.56153e-16
-1.4927e-16
1.6719e-17
2.40641e-16
9.54475e-17
8.16756e-17
0
5.12209e-17
-4.7698e-17
3.90094e-17
-3.38052e-17
4.55068e-17
-7.90401e-17
-2.1395e-17
1.87443e-17
5.07882e-18
3.10423e-16
-3.13335e-16
0
3.04682e-16
-1.59124e-16
-1.2416e-16
9.12174e-17
-2.88055e-16
0
-4.81377e-18
-5.78188e-17
-4.35296e-17
6.58099e-17
-4.62603e-18
-4.39815e-17
3.30836e-17
0
1.23906e-17
-4.93149e-18
5.23585e-16
-9.41683e-17
4.104e-16
-3.22098e-16
1.86298e-16
2.68379e-17
-2.18415e-16
-7.91764e-17
1.44687e-16
-5.35142e-18
-9.14786e-17
7.8844e-17
-3.51135e-17
-4.82949e-17
0
0
0
-1.25119e-17
4.68916e-19
-4.69975e-16
4.58894e-16
2.92136e-19
7.30966e-17
6.43908e-17
-1.6089e-16
1.93187e-16
-1.63614e-16
1.42934e-16
-5.02723e-17
9.63514e-17
3.57027e-17
-1.54531e-17
8.48957e-19
-6.06495e-18
-1.06873e-17
0
0
0
0
0
2.32794e-16
-1.07976e-16
-3.60638e-16
0
0
-4.732e-17
-7.92502e-17
6.80063e-17
0
-4.50277e-17
3.60583e-17
-1.24181e-16
1.43886e-16
-4.86389e-17
5.19256e-17
5.77344e-18
0
-9.10964e-17
9.22176e-17
0
-7.72405e-17
7.85586e-17
1.34145e-16
0
4.77718e-17
6.72246e-17
-2.95994e-16
0
-4.89698e-17
3.93501e-17
2.9407e-17
-2.24183e-17
3.32929e-17
0
-1.26315e-17
0
-4.683e-17
-4.71851e-17
2.79692e-18
7.93626e-17
-2.17537e-16
0
-5.85959e-17
0
1.75968e-16
7.35514e-17
0
1.93952e-16
-2.07917e-16
1.98758e-17
-5.01163e-17
1.23902e-17
6.35832e-17
2.48086e-17
-1.96389e-17
0
9.73634e-17
-8.72992e-17
1.0868e-16
1.34145e-16
0
1.1976e-16
-1.14255e-16
-9.39156e-17
1.46541e-16
-2.2055e-16
-1.1223e-16
0
0
2.69145e-17
0
0
8.02385e-18
0
-4.29143e-16
3.28896e-16
0
4.40411e-18
-7.8803e-17
-4.428e-18
7.21407e-17
5.42672e-17
-6.5738e-17
-1.77651e-16
2.91344e-16
-7.82935e-17
0
-4.02945e-17
0
0
0
-3.08845e-17
2.46365e-17
-1.2074e-16
1.14429e-16
3.11491e-16
-3.06328e-16
9.55137e-17
4.81964e-18
-7.33307e-17
6.4771e-17
1.12941e-16
8.90653e-17
-1.76405e-16
0
9.81453e-17
1.65448e-17
-4.61085e-17
-1.05008e-16
8.70477e-17
-1.48304e-17
2.76847e-17
-4.06142e-16
5.97828e-16
-5.94533e-16
1.06661e-16
9.26959e-17
-8.90666e-17
7.57719e-17
-6.20107e-17
0
-5.4831e-17
9.12804e-17
3.9703e-17
6.53138e-17
8.63545e-17
-1.30267e-16
-1.39725e-18
0
-1.10158e-17
3.66097e-18
-4.39163e-16
-1.33034e-16
-2.37939e-16
1.25552e-16
-2.11658e-16
1.87778e-16
-1.12986e-16
9.82679e-17
-5.9517e-18
-5.97527e-18
-9.43889e-17
5.48949e-17
-3.33773e-17
1.00539e-16
-1.07929e-16
1.46274e-17
1.17671e-17
0
-6.27576e-18
4.74831e-16
-1.43283e-16
0
0
-2.18174e-16
4.26928e-16
-1.01079e-16
-2.00784e-17
1.67693e-16
-4.25294e-18
0
0
-4.15784e-17
0
-9.28732e-17
2.28093e-16
-1.59226e-16
0
2.44348e-18
1.63283e-16
3.08057e-16
0
-1.3415e-16
-1.12341e-16
-1.01811e-16
-1.04813e-16
4.45521e-17
-1.25691e-16
-7.03586e-17
0
0
5.32246e-17
0
0
-1.23926e-16
2.03782e-16
0
0
1.12034e-15
-1.27751e-16
-6.88083e-16
-3.83452e-16
5.19385e-16
1.68868e-16
1.0163e-16
0
-3.8425e-17
3.81095e-17
9.38183e-17
-3.04976e-17
-4.6705e-17
7.27299e-17
-7.73623e-17
-2.45321e-17
0
0
0
8.97174e-17
-7.17024e-16
7.03712e-16
-6.83801e-17
-5.37653e-16
8.4672e-16
-4.2786e-16
0
0
2.38653e-16
-1.97028e-16
0
-6.12617e-17
1.06227e-16
-1.23047e-17
3.13653e-17
9.65763e-18
9.67412e-20
2.12868e-18
0
0
0
6.02099e-16
-4.03333e-16
4.33507e-16
-6.78092e-16
1.94551e-16
0
-7.19162e-17
1.16537e-16
-1.19108e-16
-2.38322e-17
-6.99297e-19
-1.65818e-17
-2.53871e-18
-1.31936e-17
-3.67476e-18
-2.02028e-18
7.53346e-16
-1.3489e-15
6.41998e-16
0
1.77766e-16
-2.41965e-16
2.47109e-16
-1.961e-16
0
-9.80448e-17
1.37497e-16
0
0
-5.33852e-19
0
-1.6785e-17
1.15129e-17
2.19798e-18
3.21031e-18
7.26166e-16
0
-2.9566e-16
3.30355e-16
-2.11082e-16
4.62807e-16
-2.19797e-16
-1.74965e-16
1.76792e-16
-1.81464e-17
0
0
1.18389e-17
-2.02653e-17
-1.41954e-17
2.69778e-17
-5.84025e-18
3.01718e-18
0
4.12438e-16
3.26615e-16
-8.88063e-18
-3.1455e-16
-3.2183e-17
-2.34557e-16
2.38285e-17
1.98783e-16
-1.03785e-17
1.84872e-17
0
0
-1.21281e-17
0
1.43223e-17
-1.53214e-17
0
1.96471e-18
-5.46141e-19
-2.18944e-16
-1.63742e-16
1.53282e-16
-1.77724e-17
-8.0245e-18
2.18717e-17
0
-5.85744e-18
8.86934e-17
-7.4694e-17
0
2.57235e-17
-4.96987e-18
-2.27938e-17
-2.09094e-18
-1.63328e-18
0
-1.5345e-18
0
8.99215e-17
-1.71545e-16
-2.83623e-18
7.45149e-17
6.92147e-17
-6.8819e-17
-4.95039e-17
5.60635e-17
-1.95028e-17
1.52373e-17
-1.49977e-17
1.54603e-17
0
3.99013e-20
-1.53789e-18
5.53865e-18
-1.89787e-20
0
0
8.99245e-17
-8.95876e-17
-7.41253e-17
6.56288e-17
1.22314e-16
-1.23036e-16
-2.47527e-17
2.48108e-17
-1.96672e-17
1.98739e-17
-1.49982e-17
2.83596e-17
-7.95358e-18
-5.76194e-18
-1.77692e-18
5.87315e-19
1.40731e-18
3.72578e-19
-2.79458e-19
0
-2.1417e-17
1.29236e-16
-1.39989e-16
1.22204e-16
-1.08255e-16
0
8.82228e-17
-7.8861e-17
0
2.9923e-17
-3.79222e-17
-2.17505e-17
2.27959e-17
4.22432e-18
0
0
-1.53467e-18
5.58005e-19
3.58051e-16
-6.61671e-16
6.80198e-16
-6.01998e-16
2.37512e-16
-2.05431e-16
1.94784e-16
2.35175e-17
-8.82879e-17
7.89301e-17
0
-5.83532e-17
5.30947e-17
-1.01964e-17
-4.13772e-18
6.57429e-18
4.84207e-18
1.48987e-18
-5.3916e-19
8.19143e-16
0
-3.34288e-16
2.59679e-16
3.18126e-17
-2.48e-16
4.42015e-16
-3.95803e-16
1.55955e-16
-6.78226e-17
6.94224e-17
1.38396e-17
2.41194e-17
9.93137e-18
-8.35436e-18
-1.05826e-18
-1.05117e-17
0
1.09001e-18
6.61608e-16
-7.44718e-16
0
6.97593e-17
3.0556e-16
-2.99867e-16
5.20228e-17
4.65929e-17
2.0412e-17
3.65834e-17
0
0
-4.19989e-17
7.93894e-17
-2.91252e-17
-1.05174e-17
1.15148e-17
9.27159e-19
-2.07933e-18
5.43152e-17
6.54143e-16
-7.67558e-17
-5.32223e-16
4.67014e-16
5.67211e-17
-5.09138e-17
-4.55074e-17
1.52821e-16
-1.89603e-16
1.16565e-16
-1.19135e-16
1.91572e-17
-2.38134e-17
4.45639e-17
-2.96255e-17
0
0
2.19908e-18
0
1.64894e-16
-5.03602e-16
5.74988e-16
-4.75935e-16
4.74802e-16
0
1.70946e-16
-1.71729e-16
-1.32407e-16
1.9716e-16
0
8.41613e-17
-1.06294e-16
-1.57969e-17
0
-1.82416e-18
-3.75906e-18
4.92515e-21
-1.55234e-15
7.44616e-16
0
-5.1928e-16
5.19228e-16
3.26908e-16
-2.15104e-16
9.11083e-17
0
-4.22333e-18
3.28598e-17
-3.0453e-17
-4.66384e-17
7.26136e-17
-7.72124e-17
0
1.75269e-17
-4.14194e-18
-2.32333e-18
9.58856e-16
-9.46735e-16
0
1.34367e-16
1.24102e-16
-1.14547e-16
0
-9.54823e-17
-8.46226e-17
0
-2.73526e-18
0
5.32422e-17
0
0
2.55983e-17
9.70149e-17
-1.25021e-16
0
1.5529e-19
1.43351e-16
-1.34263e-16
1.13274e-16
-5.74003e-16
2.21766e-16
0
2.00915e-17
5.71745e-17
0
-6.07762e-17
1.83474e-16
-1.9275e-16
3.38264e-17
0
-3.10406e-18
0
0
0
1.42985e-19
0
1.24092e-16
0
-2.00844e-16
2.04037e-16
0
7.74794e-17
-6.38602e-17
2.3542e-16
-1.14364e-16
4.32324e-17
-7.13008e-17
6.99784e-17
-1.08045e-16
-1.74976e-17
0
-1.2665e-17
0
3.7492e-16
-6.3346e-16
0
-1.06902e-16
9.79214e-17
0
0
-1.42321e-16
0
-5.48665e-17
-9.13424e-17
-3.97346e-17
6.53714e-17
0
3.8027e-17
0
0
2.80298e-17
-3.14552e-17
0
5.54736e-16
-4.44826e-16
9.89669e-17
-9.06757e-17
-3.86516e-17
1.12638e-16
1.30317e-16
-1.65343e-16
5.35931e-17
2.37703e-18
-5.47225e-17
2.263e-16
-7.06865e-17
-1.72874e-16
6.08498e-17
-1.67128e-17
9.92241e-18
-3.20688e-18
-8.83865e-16
3.28847e-16
0
0
3.94073e-17
-4.00728e-17
3.08943e-17
2.2234e-17
1.50798e-16
8.04507e-17
-8.10629e-17
-1.98928e-18
-4.9355e-17
4.0325e-17
0
2.18276e-17
1.53185e-17
8.69345e-18
2.89857e-18
0
2.88552e-16
-2.73486e-16
8.86132e-17
9.53785e-17
-1.85781e-17
-6.25671e-17
-5.51419e-17
-1.89814e-16
7.98796e-17
-5.30034e-17
6.94691e-17
4.6153e-17
-6.13077e-17
6.50743e-17
4.44043e-17
-5.66985e-17
-8.02969e-18
0
-4.98078e-17
-2.28276e-16
8.33124e-17
7.93823e-17
-2.8227e-16
2.04719e-16
1.08087e-16
-1.10481e-16
8.91241e-17
-7.58098e-17
0
0
-7.24361e-17
1.31916e-16
-5.9374e-17
5.89444e-17
-6.42022e-17
1.10454e-17
-1.96543e-17
9.41363e-17
8.93272e-17
-8.30666e-17
6.86095e-17
-7.77845e-17
-1.25628e-16
0
0
0
0
0
0
3.75923e-17
-1.03558e-16
1.09524e-16
-3.76888e-17
4.63658e-17
2.25014e-17
-1.91539e-17
1.93837e-16
-3.41729e-16
4.28306e-16
-2.11664e-16
2.91345e-16
-2.27536e-16
4.31258e-16
-2.49319e-16
-1.44582e-16
1.47901e-16
0
4.49984e-17
-3.67257e-17
9.5475e-17
-2.99271e-17
-4.13883e-17
-9.21779e-17
6.74884e-18
1.64101e-17
3.00998e-16
8.90797e-17
0
-1.45764e-16
-1.20699e-16
2.81004e-16
3.33704e-17
-1.2241e-16
7.45007e-17
-5.6339e-17
0
-3.56214e-17
0
-3.14865e-17
2.61154e-17
-2.42318e-17
-8.11213e-18
5.87672e-18
0
4.21334e-16
-9.4167e-17
4.10227e-16
-3.2198e-16
-6.75635e-17
2.79126e-16
-1.67291e-16
7.30524e-18
6.15955e-18
-5.5505e-17
5.39989e-17
0
0
3.76997e-17
-1.46072e-17
9.84044e-18
2.93014e-17
-1.01818e-17
0
7.90548e-20
0
-9.00039e-17
5.46075e-16
-3.72165e-16
-4.17908e-16
2.30139e-16
-2.58109e-16
2.42467e-16
1.26905e-16
-1.00625e-16
4.22131e-17
-3.8409e-17
6.12229e-18
6.81732e-17
3.26536e-18
-2.7434e-17
2.71384e-17
-5.49843e-18
1.03274e-15
-3.31093e-16
1.71678e-16
-5.25529e-16
1.49269e-16
-2.44284e-16
1.2915e-16
0
0
-4.92522e-18
-6.4939e-18
-1.90505e-18
0
-5.81671e-17
-4.55071e-17
3.41855e-17
-2.525e-18
4.11248e-18
1.06887e-17
0
-3.32942e-16
5.80406e-16
1.40808e-16
-4.89336e-16
1.37075e-16
-2.20886e-16
3.03184e-17
1.86353e-16
0
0
3.55982e-18
4.5426e-17
0
-4.28207e-17
-2.01303e-17
2.94713e-18
-1.09224e-17
-1.2096e-17
0
-2.13894e-16
3.86689e-17
3.9241e-16
3.10307e-16
-5.76172e-16
2.66143e-16
-1.9874e-16
1.04938e-16
-1.55253e-16
0
0
0
-7.45265e-17
2.21023e-17
-2.57008e-17
0
-1.62107e-18
8.17437e-18
-7.80373e-16
7.43863e-16
8.25948e-16
-1.00511e-15
4.916e-16
-4.66329e-16
0
2.07988e-16
-2.88391e-16
1.72056e-16
-1.3946e-16
1.17615e-16
9.83074e-17
7.70769e-17
6.19499e-17
0
0
0
0
8.54756e-16
-5.03891e-16
0
0
-1.77186e-16
4.48295e-16
-2.88347e-16
-2.18765e-16
2.16299e-16
1.70142e-16
2.93481e-16
-1.22037e-16
5.17575e-17
4.06366e-17
3.08623e-17
2.47343e-17
4.0498e-17
-2.00462e-18
2.04189e-18
-8.7019e-16
8.08144e-16
4.47097e-16
-2.30312e-16
5.32896e-16
-3.43485e-16
-2.83162e-16
-2.46465e-16
0
-3.53551e-16
1.43626e-17
1.35541e-16
-1.10285e-16
-9.14713e-17
-3.38545e-17
-3.65982e-17
-2.91341e-17
0
0
-2.99335e-16
0
2.40663e-16
-5.00805e-19
0
0
2.9209e-16
2.54318e-16
0
1.90002e-16
0
-2.06015e-16
-5.79311e-17
1.03999e-16
0
6.73962e-17
-9.58129e-18
9.7742e-18
0
6.32649e-16
0
4.67913e-16
-8.77797e-16
7.97152e-16
6.68565e-16
-1.72094e-17
0
1.60108e-17
2.15329e-16
0
-2.25338e-16
2.58009e-16
-2.303e-16
-5.04502e-17
-5.43968e-17
-1.57162e-17
-2.75321e-18
-9.41849e-18
-5.9717e-16
8.62643e-16
-2.50337e-16
-6.69467e-16
-3.96654e-16
-3.51751e-16
-6.22267e-16
-2.59273e-16
1.69956e-17
9.95973e-17
-9.94101e-17
3.25075e-16
-1.43593e-16
2.93201e-16
-5.49606e-17
0
6.07856e-17
-3.52913e-17
9.59896e-18
1.30107e-15
-2.42245e-17
-1.03044e-15
8.81477e-16
-8.05212e-16
7.18867e-16
-1.88284e-17
-2.85912e-16
2.54739e-16
1.04803e-16
-1.22544e-17
-2.62273e-16
7.76309e-17
7.74576e-17
-2.43122e-17
2.45895e-17
-6.2959e-17
-4.99639e-18
-1.39125e-17
6.38711e-16
2.76999e-16
4.96874e-16
-4.46404e-16
-3.812e-16
1.65055e-17
-3.06383e-16
7.45371e-16
2.0898e-17
3.57444e-16
2.115e-16
-1.88449e-16
0
-1.35725e-16
0
0
8.29624e-17
3.70724e-17
1.62947e-17
6.04061e-16
0
4.91138e-16
4.43522e-16
-4.02224e-16
3.60569e-16
0
-2.92826e-16
-4.09697e-16
-3.64083e-16
-2.13372e-16
1.9058e-16
0
0
0
0
-7.77214e-17
-5.54915e-17
0
-1.18372e-15
0
-2.01135e-17
-1.77786e-17
6.09762e-16
-3.5396e-16
-1.64395e-16
-1.64838e-16
4.123e-16
0
1.09625e-16
-1.17978e-17
9.57308e-17
0
0
1.24764e-16
-9.24347e-18
6.65992e-17
-2.44371e-17
8.35237e-16
2.46677e-16
-2.4413e-16
-2.20672e-16
-7.85235e-16
5.48116e-16
6.71794e-16
-1.42865e-17
-2.79067e-16
2.72469e-16
5.78355e-17
-2.9073e-16
-2.41198e-16
-1.4175e-16
-1.49394e-16
-1.43743e-16
1.15814e-16
-5.49555e-18
2.50287e-17
-2.58298e-16
1.19275e-16
-5.77829e-16
1.01735e-16
-1.01364e-16
0
-3.32262e-16
-1.84723e-17
-3.07334e-16
2.10363e-17
3.00153e-16
2.25327e-16
-5.45008e-17
2.69537e-17
1.423e-16
0
-2.38794e-16
-8.62824e-17
-1.80025e-18
5.20531e-16
-1.45025e-17
9.07765e-16
-4.37193e-16
7.56429e-19
1.18679e-17
3.58543e-16
-2.30684e-17
2.98063e-16
-2.7925e-16
-2.6215e-16
0
2.54427e-16
2.0579e-16
2.80383e-18
-4.06681e-18
1.28143e-16
8.77084e-17
0
-3.70921e-16
0
-9.45322e-17
4.15543e-16
5.12532e-18
9.65617e-17
-3.46706e-16
3.29069e-16
3.42376e-16
3.27511e-16
3.13899e-16
0
-2.47171e-16
0
1.28159e-17
-1.33104e-17
0
-1.25203e-18
6.12615e-17
2.54206e-16
1.12711e-17
-2.09275e-16
6.41466e-16
-2.07129e-16
0
0
-3.78433e-16
-3.31728e-16
-3.17286e-16
-5.6969e-16
-7.94785e-17
0
0
0
-2.583e-17
2.73346e-17
1.73643e-16
-6.21899e-17
1.15882e-17
0
-4.43166e-16
-4.10916e-16
4.27004e-16
-4.23342e-16
-6.0866e-16
7.5322e-16
2.05751e-16
0
3.33261e-16
3.72164e-16
-8.03581e-17
4.34574e-16
-7.10313e-17
7.39262e-17
2.85851e-16
-1.65004e-16
0
-4.86559e-16
0
-4.68258e-16
4.59839e-16
0
8.40036e-16
3.96442e-16
-8.26733e-16
6.55526e-16
-4.60368e-18
-1.99345e-16
-3.60331e-16
0
4.89851e-16
-8.23309e-16
8.82843e-16
-1.12489e-15
0
0
4.83997e-16
-2.67262e-18
-6.58997e-18
-9.23396e-16
9.2981e-16
-4.50904e-16
4.49066e-16
4.425e-16
-3.95624e-16
0
0
7.33733e-16
-7.46373e-16
-8.00587e-16
7.92828e-16
-7.7175e-16
8.34231e-16
-1.30631e-15
0
)
;

boundaryField
{
    up
    {
        type            calculated;
        value           nonuniform List<scalar> 
84
(
0
0
0
0
-4.48205e-17
8.10624e-17
-3.3938e-17
2.50287e-17
-2.18134e-17
0
-1.82967e-17
1.74551e-17
-1.27501e-17
8.76373e-19
7.47878e-19
9.74933e-18
0
0
-6.5249e-18
4.82692e-18
5.07882e-18
-4.93149e-18
4.68916e-19
0
2.05016e-18
8.8082e-19
-1.88276e-17
0
2.46365e-17
2.87006e-17
3.66097e-18
-6.27576e-18
2.44348e-18
0
-1.1995e-18
2.21318e-18
-2.02279e-18
3.20883e-18
0
-5.45936e-19
0
0
-2.79688e-19
5.58005e-19
-5.3916e-19
1.09001e-18
-2.07933e-18
2.19908e-18
4.92515e-21
-2.32333e-18
0
0
0
-3.14552e-17
-4.22334e-18
2.89857e-18
0
-1.96543e-17
-1.91539e-17
1.43671e-17
0
0
-5.49843e-18
1.06887e-17
-1.2096e-17
8.17437e-18
0
2.04189e-18
0
0
-9.41849e-18
9.59896e-18
-1.39125e-17
1.62947e-17
0
-2.44371e-17
2.50287e-17
-1.80025e-18
0
6.12615e-17
-6.21899e-17
0
0
0
)
;
    }
    low
    {
        type            calculated;
        value           nonuniform List<scalar> 
84
(
-9.68813e-16
9.69056e-16
-4.76332e-16
7.47962e-16
1.30773e-16
-3.39807e-17
2.83992e-16
2.55892e-17
0
1.2113e-15
-3.07046e-16
2.6236e-16
-2.86283e-16
-1.82976e-15
2.99073e-16
0
-2.78628e-16
1.94825e-17
-1.85807e-17
-2.2663e-16
1.14993e-16
3.10423e-16
5.21937e-16
-4.69975e-16
0
-9.10964e-17
-4.683e-17
0
-4.29143e-16
-1.2074e-16
-4.05005e-16
-4.38223e-16
4.74149e-16
1.63283e-16
1.12026e-15
8.97174e-17
0
7.53346e-16
7.27495e-16
4.13183e-16
-2.1935e-16
8.99215e-17
8.99245e-17
0
3.58051e-16
8.2047e-16
6.61608e-16
5.51317e-17
0
-1.55227e-15
9.58856e-16
1.5529e-19
1.42985e-19
3.7492e-16
0
-8.82161e-16
0
-4.98078e-17
9.41363e-17
1.92848e-16
2.99247e-16
4.19686e-16
7.90548e-20
1.03133e-15
0
0
-7.80373e-16
8.53974e-16
-8.69629e-16
-2.99335e-16
6.32552e-16
-5.9717e-16
1.30268e-15
6.39899e-16
6.04061e-16
-1.18372e-15
8.33868e-16
-2.56867e-16
5.20531e-16
-3.70348e-16
2.54206e-16
1.26227e-17
-4.86559e-16
4.84283e-16
)
;
    }
    left
    {
        type            calculated;
        value           nonuniform List<scalar> 
19
(
-9.68241e-16
-4.72468e-16
4.78133e-16
8.93081e-18
-9.15226e-16
0
-4.29755e-16
-4.23723e-16
-2.73364e-17
-2.22065e-16
-2.17834e-18
-2.20533e-16
9.77785e-16
-2.17709e-16
1.01809e-15
8.77895e-16
5.22001e-16
7.65203e-16
0
)
;
    }
    right
    {
        type            calculated;
        value           nonuniform List<scalar> 
19
(
4.83997e-16
-2.35527e-18
-6.58997e-18
-9.23387e-16
9.30022e-16
-4.50904e-16
4.49066e-16
4.425e-16
-3.94285e-16
0
0
7.40738e-16
-7.56251e-16
-8.00587e-16
7.92828e-16
-7.7175e-16
8.34231e-16
-1.41272e-15
0
)
;
    }
    frontAndBackPlanes
    {
        type            empty;
    }
}


// ************************************************************************* //
