/*--------------------------------*- C++ -*----------------------------------*\
  =========                 |
  \\      /  F ield         | OpenFOAM: The Open Source CFD Toolbox
   \\    /   O peration     | Website:  https://openfoam.org
    \\  /    A nd           | Version:  7
     \\/     M anipulation  |
\*---------------------------------------------------------------------------*/
FoamFile
{
    version     2.0;
    format      ascii;
    class       volScalarField;
    location    "0.29";
    object      gradTx;
}
// * * * * * * * * * * * * * * * * * * * * * * * * * * * * * * * * * * * * * //

dimensions      [0 -1 0 1 0 0 0];

internalField   nonuniform List<scalar> 
1596
(
-0.0389347
-0.195643
-0.351418
-0.493802
-0.622544
-0.737768
-0.844753
-0.946858
-1.04849
-1.15821
-1.27815
-1.41859
-1.59195
-1.81683
-2.11568
-2.54621
-3.19826
-4.26627
-6.15228
0.00852236
-0.162999
-0.316134
-0.449949
-0.568076
-0.671518
-0.764997
-0.850158
-0.930256
-1.00963
-1.08843
-1.17202
-1.26196
-1.36086
-1.46575
-1.5717
-1.65311
-1.6583
-1.4781
0.0473888
-0.13365
-0.281854
-0.405895
-0.51239
-0.603556
-0.683438
-0.753093
-0.814661
-0.870402
-0.919675
-0.965155
-1.00562
-1.03996
-1.06333
-1.06763
-1.03218
-0.921242
-0.665228
0.0534804
-0.118528
-0.25431
-0.365487
-0.459106
-0.537886
-0.604987
-0.661244
-0.707999
-0.74636
-0.775669
-0.797125
-0.809138
-0.809934
-0.795638
-0.75973
-0.68879
-0.561148
-0.335147
0.0154116
-0.124658
-0.238491
-0.332812
-0.412114
-0.478468
-0.533825
-0.578797
-0.614112
-0.640157
-0.656553
-0.663633
-0.660141
-0.644508
-0.614202
-0.564633
-0.487802
-0.371154
-0.190558
-0.0637598
-0.154596
-0.238011
-0.311466
-0.374872
-0.428557
-0.472962
-0.508278
-0.534672
-0.552005
-0.560161
-0.558926
-0.547448
-0.524496
-0.488581
-0.436553
-0.363862
-0.263308
-0.121079
-0.169241
-0.205888
-0.25418
-0.303732
-0.349754
-0.39027
-0.424075
-0.450698
-0.469736
-0.480601
-0.483298
-0.477243
-0.46187
-0.436213
-0.399458
-0.349411
-0.283574
-0.197812
-0.0842199
-0.279924
-0.269003
-0.282913
-0.307856
-0.335912
-0.363006
-0.386442
-0.404953
-0.417559
-0.423275
-0.42206
-0.413079
-0.395912
-0.369767
-0.334219
-0.287691
-0.228872
-0.15538
-0.0626945
-0.394555
-0.349628
-0.332798
-0.332921
-0.341707
-0.353929
-0.365858
-0.375448
-0.381173
-0.381665
-0.376688
-0.365213
-0.346824
-0.320796
-0.286875
-0.243862
-0.191077
-0.127119
-0.0493487
-0.463269
-0.405551
-0.370395
-0.352624
-0.346132
-0.345945
-0.348089
-0.350054
-0.34995
-0.346152
-0.338206
-0.324981
-0.306023
-0.280662
-0.248723
-0.209284
-0.162025
-0.106147
-0.0401119
-0.518971
-0.455663
-0.409408
-0.37838
-0.359039
-0.347511
-0.340228
-0.334589
-0.328545
-0.320327
-0.309268
-0.294175
-0.274522
-0.249644
-0.219368
-0.182938
-0.140205
-0.0907186
-0.033594
-0.57534
-0.511336
-0.458153
-0.416735
-0.38589
-0.363218
-0.346013
-0.331943
-0.319033
-0.305488
-0.290485
-0.272781
-0.251756
-0.226711
-0.197413
-0.163181
-0.123915
-0.0793303
-0.0288948
-0.589683
-0.534212
-0.482229
-0.437507
-0.400929
-0.371572
-0.347746
-0.327651
-0.309599
-0.291942
-0.273831
-0.254071
-0.232002
-0.206934
-0.178601
-0.146393
-0.110227
-0.0699202
-0.0251373
-0.591966
-0.545892
-0.498343
-0.453763
-0.414401
-0.380636
-0.351791
-0.326728
-0.304178
-0.282753
-0.261679
-0.239851
-0.216614
-0.191293
-0.163595
-0.132956
-0.0992816
-0.0624374
-0.0221993
-0.589117
-0.551602
-0.509585
-0.467119
-0.427003
-0.390546
-0.357957
-0.328792
-0.302276
-0.277356
-0.253413
-0.229478
-0.204927
-0.179116
-0.151733
-0.122242
-0.0905262
-0.0564616
-0.0198735
-0.572755
-0.544401
-0.509094
-0.470716
-0.432177
-0.395313
-0.36098
-0.329345
-0.300126
-0.272641
-0.246489
-0.220875
-0.195249
-0.169022
-0.141885
-0.11334
-0.083258
-0.0515195
-0.0179679
-0.542578
-0.522864
-0.494868
-0.462003
-0.427009
-0.391912
-0.357948
-0.325733
-0.29541
-0.266651
-0.239293
-0.212742
-0.186552
-0.160208
-0.133429
-0.105767
-0.0771076
-0.0473563
-0.0163782
-0.507654
-0.493414
-0.471806
-0.444654
-0.414094
-0.382036
-0.349861
-0.318468
-0.288316
-0.259384
-0.231728
-0.204951
-0.178716
-0.152589
-0.126313
-0.0994908
-0.0720388
-0.0439217
-0.0150651
-0.478344
-0.468562
-0.451902
-0.429425
-0.402684
-0.373365
-0.342903
-0.31239
-0.282545
-0.253607
-0.22583
-0.198988
-0.172837
-0.14699
-0.121183
-0.0950166
-0.0684134
-0.0414141
-0.0140683
-0.428784
-0.42477
-0.413721
-0.396904
-0.375504
-0.350882
-0.324331
-0.296948
-0.269571
-0.242597
-0.216421
-0.190968
-0.166084
-0.141441
-0.11676
-0.0916083
-0.0658698
-0.0396693
-0.0133189
-0.374543
-0.375095
-0.369107
-0.357637
-0.341608
-0.322086
-0.300166
-0.276858
-0.253011
-0.229097
-0.205576
-0.182474
-0.159708
-0.136997
-0.114031
-0.0902721
-0.0654119
-0.039478
-0.0130878
-0.318459
-0.322018
-0.32027
-0.313694
-0.302877
-0.288598
-0.271734
-0.253163
-0.233678
-0.213751
-0.193834
-0.173993
-0.154182
-0.134172
-0.113645
-0.0919387
-0.0683614
-0.0423441
-0.0141586
-0.256752
-0.261881
-0.263611
-0.261697
-0.256271
-0.247756
-0.23677
-0.223993
-0.2101
-0.195484
-0.180487
-0.165151
-0.149404
-0.133088
-0.115971
-0.0974234
-0.0764092
-0.0512982
-0.0199897
-0.187513
-0.185086
-0.180021
-0.17242
-0.162911
-0.152323
-0.141603
-0.131519
-0.122632
-0.115089
-0.108647
-0.102775
-0.0968072
-0.0901514
-0.0823405
-0.0728484
-0.0608051
-0.0443363
-0.0198813
-0.125469
-0.140274
-0.157407
-0.174609
-0.190254
-0.203157
-0.212774
-0.218914
-0.221764
-0.221583
-0.218459
-0.212545
-0.20386
-0.192792
-0.179886
-0.165696
-0.150114
-0.132004
-0.108072
-0.042703
-0.0502704
-0.060448
-0.0718859
-0.0835967
-0.0948673
-0.105431
-0.115166
-0.124169
-0.132443
-0.139512
-0.144894
-0.147678
-0.147422
-0.144165
-0.13883
-0.13224
-0.1254
-0.118563
0.0402633
0.0306229
0.0171036
0.00101878
-0.0164325
-0.0343058
-0.0520681
-0.0694502
-0.0864369
-0.102995
-0.118597
-0.132512
-0.143419
-0.150279
-0.152636
-0.151342
-0.147556
-0.142795
-0.137754
0.123353
0.11029
0.0922656
0.0708242
0.0473576
0.0229901
-0.00157027
-0.0259937
-0.0502589
-0.0744179
-0.0980723
-0.120417
-0.13982
-0.154537
-0.163278
-0.166399
-0.165207
-0.161776
-0.157345
0.198964
0.180771
0.157186
0.130091
0.10098
0.0710442
0.041007
0.0111274
-0.0187035
-0.0487644
-0.0789709
-0.10872
-0.136327
-0.159412
-0.175542
-0.183987
-0.18568
-0.183242
-0.178801
0.278142
0.253825
0.224112
0.191017
0.156119
0.120673
0.0853947
0.0504615
0.0156243
-0.0196553
-0.0557011
-0.092391
-0.128391
-0.161076
-0.186809
-0.203108
-0.209487
-0.20859
-0.203784
0.339035
0.307582
0.271607
0.233148
0.193801
0.154719
0.116436
0.0789192
0.0417082
0.0039716
-0.0350639
-0.0759738
-0.118273
-0.159866
-0.196506
-0.223722
-0.238099
-0.240542
-0.234994
0.397251
0.359556
0.317481
0.273854
0.230392
0.188118
0.147373
0.10795
0.0692527
0.0302765
-0.0100616
-0.0530191
-0.0992825
-0.148247
-0.196491
-0.23872
-0.267794
-0.279926
-0.276856
0.452578
0.406811
0.35818
0.309604
0.262605
0.217908
0.175597
0.135283
0.0963126
0.0576528
0.0181733
-0.0237176
-0.069683
-0.121089
-0.177051
-0.234561
-0.285146
-0.319039
-0.326356
0.490702
0.432682
0.374027
0.317312
0.263593
0.213172
0.16582
0.120997
0.0780194
0.0359429
-0.00623648
-0.0500072
-0.097302
-0.150785
-0.212623
-0.284875
-0.36458
-0.444516
-0.510701
0.516895
0.452977
0.392993
0.338593
0.289793
0.246125
0.206813
0.17108
0.13819
0.107441
0.0783053
0.0501389
0.0222064
-0.00671326
-0.038519
-0.0770529
-0.126505
-0.191814
-0.275594
0.53839
0.471759
0.41337
0.36262
0.318267
0.279215
0.24436
0.21285
0.183997
0.157218
0.132219
0.108775
0.0867981
0.0663492
0.0476614
0.0306728
0.015069
-0.00065402
-0.0194386
0.514995
0.438698
0.37456
0.320064
0.273156
0.232344
0.196332
0.164168
0.135117
0.108561
0.0841928
0.0617797
0.0412132
0.0225538
0.00610227
-0.00781532
-0.0186464
-0.0258293
-0.0290927
0.456506
0.385978
0.327844
0.279233
0.237987
0.202538
0.171616
0.144287
0.119866
0.0978013
0.077804
0.059663
0.0432383
0.0284853
0.0154573
0.0041357
-0.00547303
-0.0133861
-0.0197268
0.382598
0.322574
0.273207
0.232179
0.197635
0.168169
0.142662
0.120281
0.100427
0.0826148
0.0665695
0.0520815
0.0389731
0.0271331
0.0165188
0.00703881
-0.00136015
-0.00869319
-0.0150398
0.290117
0.243395
0.205443
0.174253
0.148245
0.126235
0.107314
0.0908075
0.0762383
0.0632218
0.0515265
0.0409755
0.0314068
0.0227119
0.0148396
0.00771572
0.00130743
-0.00436928
-0.00934807
0.183637
0.152419
0.127819
0.10799
0.0916617
0.0779575
0.066246
0.0560712
0.047118
0.0391342
0.0319634
0.0254862
0.0195897
0.0141966
0.00926783
0.00475514
0.000640478
-0.0030526
-0.0063286
0.0707726
0.0583128
0.048825
0.0412755
0.0350764
0.0298641
0.0253949
0.0214981
0.0180572
0.0149792
0.0122042
0.00968554
0.00737833
0.00524976
0.00327984
0.00144587
-0.000264423
-0.0018458
-0.0032996
-0.0707386
-0.058239
-0.048726
-0.041161
-0.0349534
-0.0297379
-0.0252694
-0.0213765
-0.0179421
-0.0148727
-0.0121079
-0.00960099
-0.00730674
-0.00519217
-0.00323704
-0.0014185
0.000275979
0.00184153
0.00327976
-0.183606
-0.152355
-0.127734
-0.107892
-0.0915573
-0.0778516
-0.0661423
-0.0559727
-0.047027
-0.0390529
-0.0318933
-0.0254286
-0.0195458
-0.0141672
-0.00925356
-0.00475641
-0.000657422
0.00302027
0.00628153
-0.290087
-0.243335
-0.205361
-0.174156
-0.14814
-0.126126
-0.107205
-0.0907006
-0.0761365
-0.0631272
-0.0514407
-0.0408997
-0.0313418
-0.0226581
-0.0147969
-0.00768375
-0.00128548
0.00438229
0.00935334
-0.382577
-0.322535
-0.273154
-0.232117
-0.197568
-0.168101
-0.142596
-0.120219
-0.100372
-0.0825682
-0.066533
-0.0520561
-0.0389594
-0.0271311
-0.016528
-0.00705818
0.00133192
0.00865763
0.0149984
-0.456494
-0.385956
-0.327812
-0.279194
-0.237943
-0.202493
-0.171571
-0.144245
-0.11983
-0.0977733
-0.0777856
-0.0596556
-0.0432427
-0.0285014
-0.0154841
-0.00417116
0.00543199
0.0133435
0.0196872
-0.514998
-0.438698
-0.374554
-0.320051
-0.273139
-0.232325
-0.196315
-0.164155
-0.135112
-0.108567
-0.0842118
-0.0618146
-0.0412664
-0.0226269
-0.00619478
0.00770698
0.0185316
0.0257237
0.0290146
-0.538394
-0.471723
-0.413276
-0.362461
-0.318041
-0.278924
-0.244006
-0.212439
-0.183533
-0.156706
-0.131664
-0.108179
-0.0861635
-0.0656775
-0.046958
-0.0299566
-0.0143868
0.00120255
0.0196882
-0.516994
-0.453238
-0.393423
-0.339192
-0.290556
-0.247046
-0.207885
-0.172297
-0.139548
-0.108937
-0.0799439
-0.0519317
-0.0241778
0.00451751
0.0360286
0.074166
0.12312
0.18788
0.271194
-0.490668
-0.432582
-0.373849
-0.317052
-0.26325
-0.21275
-0.165325
-0.120436
-0.0774013
-0.0352777
0.00693774
0.0507316
0.0980343
0.151512
0.213346
0.285635
0.365487
0.445767
0.512559
-0.452612
-0.406893
-0.358302
-0.309758
-0.262784
-0.218106
-0.17581
-0.135509
-0.0965513
-0.0579049
-0.018442
0.0234281
0.0693717
0.120766
0.17675
0.234344
0.285089
0.31919
0.326654
-0.397273
-0.359608
-0.317558
-0.27395
-0.230503
-0.18824
-0.147504
-0.108088
-0.0693995
-0.0304326
0.00989514
0.0528439
0.0991076
0.148094
0.196397
0.238727
0.267923
0.280159
0.277143
-0.339057
-0.307633
-0.271684
-0.233244
-0.193913
-0.154843
-0.116568
-0.0790574
-0.0418513
-0.00411812
0.0349166
0.0758325
0.118151
0.159787
0.196494
0.223793
0.238246
0.240737
0.235203
-0.278162
-0.253874
-0.224187
-0.191114
-0.156233
-0.120799
-0.0855287
-0.0505999
-0.0157639
0.0195181
0.0555717
0.0922786
0.12831
0.161042
0.186835
0.203194
0.209619
0.208746
0.203951
-0.198982
-0.180816
-0.157256
-0.130182
-0.101087
-0.0711628
-0.041132
-0.0112543
0.0185789
0.0486471
0.0788676
0.10864
0.136281
0.15941
0.175588
0.184075
0.185796
0.183375
0.178944
-0.123372
-0.110336
-0.0923373
-0.0709177
-0.0474677
-0.023111
0.00144428
0.0258682
0.0501394
0.0743104
0.0979836
0.120355
0.139793
0.15455
0.163329
0.166482
0.165312
0.161896
0.157477
-0.0402791
-0.0306657
-0.0171719
-0.00110868
0.0163265
0.0341901
0.051949
0.0693343
0.08633
0.102904
0.118527
0.13247
0.14341
0.150304
0.152692
0.151424
0.147658
0.142913
0.137888
0.042667
0.0501608
0.0602597
0.0716212
0.0832645
0.0944816
0.105009
0.114726
0.123731
0.132023
0.139125
0.144552
0.147389
0.147188
0.143983
0.138699
0.132159
0.125382
0.118643
0.125495
0.140373
0.157599
0.174905
0.190655
0.203655
0.213355
0.21956
0.222453
0.222294
0.219174
0.213249
0.20454
0.193442
0.180504
0.166283
0.150672
0.132534
0.108569
0.187487
0.184991
0.179852
0.172183
0.162616
0.151985
0.14124
0.131147
0.122266
0.114742
0.108328
0.10249
0.0965592
0.089941
0.0821661
0.0727081
0.0606975
0.0442622
0.0198484
0.256768
0.261914
0.263661
0.261762
0.256348
0.247838
0.236853
0.224073
0.210173
0.195546
0.180538
0.165191
0.149433
0.133108
0.115983
0.0974288
0.0764091
0.0512948
0.0199871
0.318464
0.322023
0.320277
0.313703
0.302887
0.288608
0.271744
0.253172
0.233685
0.213756
0.193837
0.173994
0.154181
0.13417
0.113641
0.0919345
0.068357
0.0423407
0.0141576
0.374546
0.3751
0.369114
0.357645
0.341615
0.322094
0.300173
0.276864
0.253016
0.2291
0.205577
0.182474
0.159706
0.136995
0.114028
0.0902689
0.0654091
0.0394762
0.0130874
0.428787
0.424774
0.413726
0.39691
0.37551
0.350888
0.324335
0.296952
0.269574
0.242598
0.216421
0.190967
0.166082
0.141439
0.116757
0.0916058
0.0658678
0.0396682
0.0133186
0.478348
0.468567
0.451907
0.42943
0.402689
0.37337
0.342907
0.312392
0.282546
0.253607
0.225829
0.198986
0.172834
0.146988
0.12118
0.0950146
0.0684119
0.0414133
0.014068
0.507656
0.493417
0.471811
0.444658
0.414098
0.382039
0.349864
0.318469
0.288316
0.259383
0.231727
0.204949
0.178714
0.152587
0.126311
0.0994891
0.0720375
0.043921
0.0150649
0.54258
0.522866
0.494871
0.462006
0.427011
0.391914
0.357949
0.325733
0.295409
0.266649
0.239292
0.21274
0.186549
0.160206
0.133427
0.105765
0.0771065
0.0473557
0.0163781
0.572757
0.544404
0.509097
0.470719
0.432179
0.395315
0.360981
0.329345
0.300125
0.27264
0.246488
0.220873
0.195247
0.16902
0.141884
0.113339
0.0832571
0.0515191
0.0179678
0.589118
0.551604
0.509586
0.46712
0.427004
0.390546
0.357956
0.328791
0.302274
0.277354
0.253411
0.229476
0.204925
0.179114
0.151731
0.12224
0.0905255
0.0564612
0.0198734
0.591967
0.545894
0.498345
0.453764
0.414401
0.380636
0.35179
0.326727
0.304177
0.282752
0.261677
0.239849
0.216612
0.191291
0.163594
0.132955
0.0992811
0.0624372
0.0221994
0.589685
0.534215
0.482232
0.437509
0.40093
0.371572
0.347746
0.327651
0.309599
0.291941
0.27383
0.25407
0.232001
0.206933
0.178601
0.146393
0.110227
0.0699203
0.0251374
0.575339
0.511336
0.458152
0.416734
0.385889
0.363216
0.34601
0.331941
0.319031
0.305486
0.290483
0.272779
0.251755
0.22671
0.197412
0.16318
0.123914
0.0793304
0.028895
0.518974
0.455666
0.40941
0.378381
0.359039
0.34751
0.340228
0.334588
0.328544
0.320326
0.309268
0.294174
0.274521
0.249644
0.219368
0.182938
0.140206
0.0907191
0.0335942
0.463274
0.405555
0.370397
0.352626
0.346133
0.345945
0.348089
0.350053
0.349949
0.346152
0.338206
0.32498
0.306023
0.280663
0.248724
0.209285
0.162025
0.106148
0.0401122
0.394559
0.349631
0.3328
0.332922
0.341708
0.353928
0.365858
0.375448
0.381173
0.381665
0.376688
0.365213
0.346825
0.320797
0.286876
0.243863
0.191078
0.127119
0.0493488
0.279927
0.269005
0.282914
0.307856
0.335912
0.363006
0.386442
0.404953
0.417559
0.423274
0.42206
0.413079
0.395913
0.369768
0.33422
0.287693
0.228873
0.155381
0.0626946
0.169244
0.20589
0.254181
0.303733
0.349754
0.39027
0.424075
0.450698
0.469736
0.480602
0.483299
0.477243
0.46187
0.436214
0.39946
0.349412
0.283575
0.197812
0.0842199
0.0637617
0.154598
0.238012
0.311467
0.374872
0.428557
0.472962
0.508278
0.534672
0.552005
0.560161
0.558926
0.547449
0.524497
0.488582
0.436554
0.363862
0.263308
0.121079
-0.0154105
0.124659
0.238492
0.332812
0.412114
0.478468
0.533825
0.578797
0.614112
0.640157
0.656553
0.663633
0.660141
0.644509
0.614202
0.564633
0.487802
0.371154
0.190557
-0.0534802
0.118529
0.254311
0.365488
0.459106
0.537886
0.604987
0.661244
0.707999
0.74636
0.775669
0.797125
0.809138
0.809934
0.795638
0.759729
0.688789
0.561147
0.335147
-0.0473891
0.133651
0.281854
0.405895
0.512389
0.603556
0.683438
0.753093
0.814661
0.870402
0.919675
0.965155
1.00562
1.03996
1.06333
1.06763
1.03218
0.92124
0.665227
-0.00852245
0.162999
0.316134
0.449949
0.568076
0.671518
0.764997
0.850158
0.930256
1.00963
1.08843
1.17202
1.26196
1.36085
1.46575
1.5717
1.6531
1.6583
1.4781
0.0389349
0.195643
0.351418
0.493802
0.622544
0.737768
0.844754
0.946858
1.04849
1.15821
1.27815
1.41859
1.59195
1.81683
2.11568
2.54621
3.19825
4.26627
6.15228
)
;

boundaryField
{
    up
    {
        type            calculated;
        value           nonuniform List<scalar> 
84
(
-6.15228
-1.4781
-0.665228
-0.335147
-0.190558
-0.121079
-0.0842199
-0.0626945
-0.0493487
-0.0401119
-0.033594
-0.0288948
-0.0251373
-0.0221993
-0.0198735
-0.0179679
-0.0163782
-0.0150651
-0.0140683
-0.0133189
-0.0130878
-0.0141586
-0.0199897
-0.0198813
-0.0928636
-0.11161
-0.131158
-0.150419
-0.171162
-0.19499
-0.224017
-0.260275
-0.300805
-0.508822
-0.286163
-0.0200292
-0.0290916
-0.0197096
-0.0150289
-0.00934513
-0.00632829
-0.003301
0.00328116
0.00628126
0.00935046
0.0149876
0.0196701
0.0290133
0.0202714
0.28162
0.511039
0.301067
0.260525
0.224213
0.195152
0.171303
0.150551
0.131295
0.111737
0.0933187
0.0198484
0.0199871
0.0141576
0.0130874
0.0133186
0.014068
0.0150649
0.0163781
0.0179678
0.0198734
0.0221994
0.0251374
0.028895
0.0335942
0.0401122
0.0493488
0.0626946
0.0842199
0.121079
0.190557
0.335147
0.665227
1.4781
6.15228
)
;
    }
    low
    {
        type            calculated;
        value           nonuniform List<scalar> 
84
(
-0.0351365
0.0141939
0.0566178
0.063591
0.0218139
-0.0649522
-0.179115
-0.296583
-0.41383
-0.478978
-0.532515
-0.585796
-0.593284
-0.59124
-0.585596
-0.565392
-0.532049
-0.496356
-0.465218
-0.412373
-0.356753
-0.300694
-0.239731
-0.172801
-0.114128
-0.0386355
0.0356263
0.111727
0.183815
0.262595
0.325777
0.385961
0.444398
0.486833
0.516595
0.542445
0.523858
0.466549
0.391871
0.29769
0.188741
0.0729301
-0.0728959
-0.188709
-0.297657
-0.391846
-0.466531
-0.523855
-0.542441
-0.516678
-0.486799
-0.444427
-0.38598
-0.325798
-0.262615
-0.183834
-0.111746
-0.0356424
0.0386004
0.114153
0.172776
0.239746
0.300698
0.356756
0.412376
0.465222
0.496359
0.532051
0.565394
0.585596
0.591241
0.593286
0.585794
0.532517
0.478983
0.413834
0.296587
0.179119
0.0649543
-0.0218128
-0.0635911
-0.0566185
-0.0141944
0.0351366
)
;
    }
    left
    {
        type            calculated;
        value           nonuniform List<scalar> 
19
(
-0.0344999
-0.187649
-0.346459
-0.493632
-0.627807
-0.748342
-0.860975
-0.969641
-1.07875
-1.1992
-1.33297
-1.49179
-1.6921
-1.95915
-2.32133
-2.86007
-3.7001
-5.11301
-5.33625
)
;
    }
    right
    {
        type            calculated;
        value           nonuniform List<scalar> 
19
(
0.0345001
0.18765
0.346459
0.493632
0.627807
0.748342
0.860975
0.969641
1.07875
1.1992
1.33297
1.49179
1.6921
1.95914
2.32132
2.86007
3.7001
5.11301
5.33625
)
;
    }
    frontAndBackPlanes
    {
        type            empty;
    }
}


// ************************************************************************* //
